# vtk DataFile Version 4.0
vtk output
ASCII
DATASET POLYDATA
POINTS 1002 float
-81.2047 -106.189 58.6061 -81.3277 -106.433 59.1599 -81.6484 -106.041 58.9302 
-81.5709 -105.912 58.2324 -82.0123 -105.724 58.6064 -81.0318 -105.945 57.9014 
-82.0041 -105.819 57.6554 -82.7347 -105.657 58.0354 -81.4094 -105.839 57.3475 
-80.9049 -105.561 57.2448 -82.7771 -105.899 56.8996 -83.5462 -105.727 57.3565 
-81.8687 -105.872 56.6313 -81.2616 -105.463 56.6362 -80.8103 -105.029 56.7249 
-83.5518 -105.869 56.263 -83.9341 -105.598 56.8666 -82.636 -105.855 55.9419 
-81.7162 -105.462 55.9652 -81.1457 -105.036 56.0135 -80.5157 -104.922 55.8123 
-83.9384 -105.47 55.9072 -84.0736 -105.074 56.5742 -83.3746 -105.587 55.4471 
-82.4053 -105.341 55.4037 -81.6117 -105.106 55.3388 -80.8829 -105.132 54.9902 
-79.9976 -105.176 54.6236 -84.0983 -104.727 55.7223 -84.2498 -104.321 56.3409 
-83.7672 -105.016 55.1572 -82.9715 -104.99 54.978 -82.1615 -104.875 54.8782 
-81.4364 -104.967 54.4877 -80.4882 -105.044 54.1456 -79.5914 -104.85 54.0912 
-84.1665 -103.971 55.5815 -84.3872 -103.693 56.0976 -83.8941 -104.246 55.0416 
-83.2409 -104.38 54.7265 -82.4655 -104.351 54.6023 -81.9148 -104.351 54.2946 
-81.1611 -104.374 53.9866 -80.1741 -104.243 53.9826 -79.4264 -104.022 54.0265 
-84.2402 -103.468 55.3415 -84.5779 -103.308 55.7582 -83.9358 -103.577 54.9049 
-83.4352 -103.638 54.5327 -82.6764 -103.669 54.3622 -82.1161 -103.71 54.1574 
-81.6497 -103.75 53.8243 -80.8404 -103.684 53.701 -79.9549 -103.555 53.7281 
-79.3181 -103.514 53.564 -84.4832 -103.129 54.959 -84.9281 -103.009 55.321 
-84.0848 -103.152 54.5748 -83.7207 -103.088 54.1503 -83.1068 -103.05 53.9038 
-82.3882 -103.162 53.8154 -81.8799 -103.4 53.5446 -81.3082 -103.55 53.1916 
-80.5013 -103.498 53.0514 -79.7415 -103.403 52.9642 -79.1494 -103.414 52.719 
-81.5838 -106.373 59.6007 -81.8521 -105.98 59.3946 -81.7557 -106.206 60.2621 
-82.1575 -105.964 59.9968 -81.9907 -105.959 61.0068 -82.4307 -105.711 59.085 
-82.6245 -105.825 60.6206 -82.3048 -105.636 61.4834 -82.9971 -105.832 59.6473 
-83.335 -105.642 58.5464 -83.0455 -105.464 61.0191 -82.6605 -105.329 61.7396 
-83.519 -105.725 60.2348 -83.8276 -105.681 59.1469 -83.9221 -105.568 57.9442 
-83.3807 -105.154 61.3085 -83.0549 -105.121 62.1384 -83.8295 -105.34 60.6668 
-84.1551 -105.453 59.7612 -84.2133 -105.359 58.5274 -84.1127 -105.233 57.4527 
-83.7311 -104.931 61.6979 -83.3779 -104.859 62.5656 -84.0927 -104.973 60.979 
-84.37 -105.009 60.2417 -84.5437 -104.99 59.0599 -84.5284 -104.846 57.889 
-84.3626 -104.59 57.0706 -84.023 -104.511 62.0217 -83.6124 -104.419 62.7658 
-84.3475 -104.524 61.2275 -84.5292 -104.46 60.5492 -84.7124 -104.448 59.569 
-84.8752 -104.405 58.3705 -84.7945 -104.168 57.489 -84.5691 -103.872 56.8061 
-84.2466 -103.954 62.2157 -83.9004 -103.923 62.8773 -84.4769 -103.936 61.3815 
-84.6341 -103.822 60.6754 -84.8346 -103.767 59.9413 -85.0132 -103.817 58.966 
-84.9712 -103.732 58.0759 -84.799 -103.498 57.3452 -84.6848 -103.348 56.5445 
-84.4655 -103.491 62.4111 -84.2388 -103.492 63.0354 -84.5362 -103.449 61.5422 
-84.6994 -103.314 60.7323 -85.1365 -103.19 60.0934 -85.5051 -103.215 59.4034 
-85.3639 -103.25 58.6696 -84.9845 -103.147 57.9675 -84.8774 -103.038 57.1053 
-84.9688 -103.021 56.1275 -84.6243 -103.1 62.8221 -84.6199 -103.094 61.9963 
-84.6909 -102.642 62.3781 -84.6996 -102.609 61.4464 -84.7122 -101.978 61.7807 
-84.6928 -103.005 61.0257 -85.075 -101.938 60.9017 -84.9565 -101.218 61.2151 
-85.2787 -102.538 60.5471 -85.3587 -102.861 60.2496 -85.4402 -101.319 60.4487 
-85.1159 -100.709 60.6623 -86.006 -102.025 60.2026 -86.5386 -102.521 59.8976 
-86.2901 -102.805 59.6457 -85.3411 -100.945 59.9 -84.9561 -100.418 59.9601 
-85.9221 -101.593 59.8319 -86.8913 -102.192 59.6292 -87.2696 -102.556 59.3036 
-86.3901 -102.84 59.0203 -85.1181 -100.504 59.1321 -84.7091 -100.03 59.1699 
-85.4039 -101.106 59.1492 -85.9908 -101.727 59.1423 -86.7775 -102.224 58.9116 
-86.6225 -102.546 58.6061 -85.6375 -102.816 58.349 -84.9582 -99.8993 58.3611 
-84.4755 -99.5794 58.4766 -85.2635 -100.391 58.2664 -85.3718 -100.97 58.2961 
-85.6773 -101.572 58.2532 -85.9472 -102.118 57.9849 -85.6586 -102.487 57.7064 
-85.1575 -102.751 57.4483 -84.652 -99.4308 57.7662 -84.2267 -99.2204 57.9214 
-85.1031 -99.7714 57.5303 -85.3719 -100.174 57.3809 -85.4074 -100.658 57.3467 
-85.4159 -101.326 57.1624 -85.4702 -101.981 56.8122 -85.4506 -102.413 56.5159 
-85.2744 -102.724 56.3023 -84.3154 -99.1178 57.2929 -84.0416 -98.888 57.4609 
-84.6617 -99.4337 56.9994 -85.1382 -99.7074 56.673 -85.5123 -99.9202 56.4596 
-85.5238 -100.365 56.2695 -85.4041 -101.114 55.9492 -85.4971 -101.807 55.6035 
-85.6012 -102.291 55.3871 -85.3845 -102.681 55.311 -84.9838 -102.692 54.6714 
-85.3696 -102.229 54.6548 -84.7063 -102.201 54.2232 -85.4174 -101.683 54.7365 
-84.7904 -101.607 54.3816 -84.0476 -101.681 54.0388 -85.346 -100.999 54.9164 
-84.8143 -100.95 54.4614 -83.9343 -101.011 54.3126 -83.3029 -101.181 53.9261 
-85.5544 -100.174 55.1738 -85.166 -100.168 54.4553 -84.273 -100.31 54.2037 
-83.3888 -100.457 53.9519 -82.8788 -100.612 53.5735 -85.6607 -99.6187 55.4554 
-85.5686 -99.4564 54.5633 -84.9214 -99.5889 54.0166 -83.9922 -99.8004 53.5879 
-83.2724 -99.9302 53.2088 -82.7434 -100.081 52.9819 -85.1779 -99.5047 55.7694 
-85.2636 -99.2007 54.8537 -85.0055 -99.1195 54.1468 -84.3341 -99.3125 53.5107 
-83.6932 -99.4547 52.874 -83.1096 -99.5343 52.5623 -82.4164 -99.6585 52.4541 
-84.551 -99.3662 56.1726 -84.568 -99.102 55.2423 -84.4795 -98.8598 54.4677 
-84.0242 -98.9722 53.8533 -83.5528 -99.1532 53.1178 -83.1938 -99.1356 52.4839 
-82.5882 -99.114 52.2314 -81.8224 -99.1885 52.0823 -84.249 -98.9961 56.5917 
-84.2348 -98.7399 55.6933 -84.1524 -98.4182 54.8112 -83.7346 -98.4321 54.1939 
-83.2031 -98.7137 53.6214 -82.9301 -98.7529 52.8862 -82.621 -98.5863 52.2868 
-82.0138 -98.5432 51.9618 -81.3851 -98.674 51.7388 -84.098 -98.6257 56.9076 
-84.1605 -98.3016 56.1589 -84.1121 -97.9315 55.2525 -83.7498 -97.7836 54.4789 
-83.1476 -98.0077 53.9387 -82.7143 -98.1986 53.3397 -82.5094 -98.0806 52.6079 
-82.1934 -97.9336 51.9962 -81.7035 -97.9974 51.6074 -81.24 -98.2391 51.3903 
-84.4511 -102.776 54.2906 -84.2531 -102.349 53.6906 -84.0948 -102.77 53.7486 
-83.7339 -101.947 53.3872 -84.0112 -102.465 52.9676 -83.7135 -102.698 53.2649 
-83.0118 -101.442 53.3595 -83.4385 -102.161 52.7399 -83.4705 -102.493 52.5979 
-82.9479 -102.731 53.1716 -82.5056 -100.793 53.1509 -82.5652 -101.593 52.8614 
-82.6476 -102.171 52.5239 -82.4566 -102.579 52.6498 -82.1134 -103.033 53.109 
-82.1592 -100.213 52.6158 -81.9512 -100.88 52.595 -81.7505 -101.516 52.4856 
-81.6126 -102.128 52.4154 -81.551 -102.881 52.4328 -81.4718 -103.431 52.6868 
-81.6118 -99.7074 52.1024 -81.441 -100.267 52.0468 -81.1342 -100.838 52.0817 
-80.8494 -101.416 52.165 -80.8382 -102.248 52.03 -80.8888 -103.179 51.9095 
-80.7666 -103.573 52.2887 -81.0887 -99.2167 51.7552 -80.8728 -99.7664 51.7053 
-80.5391 -100.329 51.7203 -80.1513 -100.882 51.85 -80.0871 -101.53 51.8212 
-80.2417 -102.428 51.5868 -80.2132 -103.207 51.6059 -79.9928 -103.451 52.1588 
-80.8843 -98.8094 51.4691 -80.5385 -99.3917 51.5311 -80.0755 -99.9559 51.5477 
-79.5361 -100.531 51.5246 -79.3244 -101.13 51.4276 -79.5185 -101.797 51.3018 
-79.6514 -102.515 51.3019 -79.52 -103.073 51.5484 -79.3124 -103.329 52.0618 
-80.9037 -98.233 51.1427 -80.5066 -98.9216 51.29 -80.2966 -98.2703 51.0149 
-79.8256 -99.0647 51.0881 -79.3847 -98.3105 50.9916 -79.9753 -99.5686 51.3481 
-78.9237 -99.1102 50.782 -78.5908 -98.4472 51.1274 -79.23 -99.6996 50.8107 
-79.2916 -100.143 51.1479 -78.2161 -99.1658 50.7163 -78.0847 -98.7224 51.4228 
-78.548 -99.6861 50.1119 -78.7167 -100.27 50.1034 -78.8279 -100.79 50.7252 
-77.7088 -99.3656 51.0419 -77.5274 -98.967 51.6104 -78.05 -99.7506 50.1566 
-78.4328 -100.36 49.3761 -78.582 -101.07 49.5106 -78.881 -101.503 50.4953 
-77.1224 -99.5595 51.3208 -76.8293 -99.0978 51.6855 -77.5266 -99.9586 50.821 
-78.0517 -100.522 49.9699 -78.3835 -101.288 49.3199 -78.6027 -101.835 49.7796 
-79.0538 -102.104 50.7632 -76.4284 -99.6321 51.5309 -76.1938 -99.2118 51.9989 
-76.8646 -100.088 51.2497 -77.4149 -100.646 50.9215 -77.8135 -101.343 50.2979 
-78.0493 -101.939 50.0991 -78.4157 -102.272 50.6531 -78.9667 -102.613 51.2198 
-75.7926 -99.6752 51.9831 -75.7258 -99.3516 52.554 -76.1343 -100.125 51.5531 
-76.658 -100.693 51.3729 -77.0648 -101.312 51.1147 -77.2948 -101.88 50.8393 
-77.6038 -102.314 50.9534 -78.1398 -102.698 51.2734 -78.7637 -103.078 51.5902 
-75.3678 -99.7699 52.5831 -75.4029 -99.4967 53.0696 -75.5449 -100.196 52.0834 
-75.9322 -100.77 51.7681 -76.3166 -101.372 51.5426 -76.5953 -101.915 51.3133 
-76.8865 -102.389 51.2706 -77.339 -102.83 51.3946 -77.9704 -103.205 51.5899 
-78.6231 -103.396 52.0313 -81.3911 -97.6464 51.1653 -80.8714 -97.5316 50.9135 
-81.3511 -97.0538 51.0677 -80.6187 -96.7976 50.8553 -81.0798 -96.5206 51.2096 
-80.0051 -97.4275 50.8735 -80.2932 -96.2147 51.0855 -80.7482 -96.1166 51.6342 
-79.7021 -96.6639 50.9254 -79.1038 -97.5116 51.1022 -79.9525 -95.9215 51.6315 
-80.4073 -95.9706 52.3158 -79.4724 -96.2058 51.2476 -78.9711 -96.9483 51.3083 
-78.5167 -97.8885 51.5312 -79.4504 -95.9311 52.4016 -79.9592 -96.0263 53.1592 
-79.0648 -96.0101 51.8517 -78.6607 -96.5719 51.5939 -78.2533 -97.401 51.7042 
-77.9024 -98.2383 51.8145 -78.8911 -96.0032 53.3021 -79.4789 -95.9946 54.0723 
-78.506 -96.014 52.6578 -78.1343 -96.2922 52.1099 -77.6043 -96.8541 51.7788 
-77.2362 -97.5633 51.7942 -77.0677 -98.3783 51.839 -78.5728 -95.9541 54.2655 
-79.1429 -95.8641 54.9491 -78.1591 -96.1118 53.5837 -77.8507 -96.3178 52.9399 
-77.2564 -96.5858 52.2994 -76.6089 -96.9781 51.9174 -76.4097 -97.6864 51.9435 
-76.3917 -98.5559 52.0556 -78.5325 -95.9934 55.1089 -78.98 -95.8881 55.6607 
-78.0957 -96.2384 54.4782 -77.7843 -96.5258 53.876 -77.3418 -96.7644 53.2869 
-76.6212 -96.9183 52.7349 -76.1226 -97.292 52.4519 -76.0548 -98.0663 52.5085 
-75.9831 -98.8507 52.6137 -78.5711 -96.2608 55.718 -78.8916 -96.1077 56.192 
-78.1207 -96.4693 55.1832 -77.6462 -96.6658 54.6635 -77.2297 -96.9033 54.2078 
[...]
CELL_DATA 2000
SCALARS Distance double
LOOKUP_TABLE default
145.209 145.042 145.004 144.729 145.015 144.885 144.633 144.515 144.175 
145.205 144.976 144.681 144.468 144.109 143.934 143.544 145.324 145.18 
144.856 144.586 144.159 143.895 143.476 143.3 142.922 145.098 145.15 
144.858 144.707 144.252 143.974 143.521 143.288 142.925 142.735 142.376 
144.613 144.773 144.519 144.553 144.134 143.983 143.508 143.323 142.932 
142.768 142.39 142.188 141.763 144.096 144.239 143.986 144.106 143.731 
143.725 143.245 143.177 142.735 142.674 142.25 142.13 141.651 141.486 
141.022 143.706 143.762 143.494 143.575 143.22 143.257 142.797 142.791 
142.342 142.352 141.953 141.91 141.469 141.33 140.87 140.727 140.335 
143.467 143.445 143.161 143.154 142.811 142.796 142.383 142.347 141.94 
141.94 141.619 141.621 141.307 141.197 140.82 140.632 140.263 140.109 
139.796 145.458 145.718 145.478 145.267 146.02 145.78 145.626 145.354 
145.259 146.293 146.14 146.111 145.839 145.787 145.48 145.466 146.417 
146.373 146.45 146.342 146.334 146.052 145.937 145.657 145.54 146.555 
146.479 146.553 146.567 146.603 146.477 146.292 146.033 145.756 145.542 
145.274 146.761 146.656 146.655 146.628 146.635 146.594 146.429 146.252 
145.929 145.692 145.346 145.141 144.805 146.789 146.783 146.7 146.678 
146.559 146.543 146.345 146.271 145.973 145.808 145.453 145.228 144.862 
144.644 144.308 146.65 146.691 146.547 146.563 146.33 146.349 146.087 
146.099 145.826 145.773 145.454 145.299 144.934 144.722 144.383 144.187 
143.919 146.55 146.544 146.366 146.329 146.058 146.045 145.819 145.843 
145.695 145.665 145.475 145.315 145.019 144.792 144.482 144.284 144.045 
143.876 143.686 146.488 146.161 146.321 146.205 145.595 145.867 145.763 
145.941 145.832 144.991 145.298 145.366 145.558 145.579 145.674 145.674 
144.484 144.794 145.045 145.311 145.594 145.669 145.805 145.715 145.711 
143.942 144.313 144.561 144.983 145.359 145.704 145.954 145.981 145.907 
145.729 145.521 143.247 143.684 143.82 144.326 144.532 145.142 145.332 
145.799 145.691 145.773 145.385 145.312 144.969 142.478 142.908 142.978 
143.453 143.498 144.071 144.112 144.764 144.691 145.152 144.832 144.983 
144.591 144.649 144.388 141.776 142.137 142.178 142.589 142.603 143.037 
143.004 143.507 143.448 143.98 143.844 144.236 144.014 144.217 144.014 
144.126 143.981 141.189 141.477 141.488 141.828 141.842 142.206 142.18 
142.544 142.471 142.873 142.795 143.234 143.16 143.548 143.463 143.725 
143.62 143.764 143.637 143.376 143.311 143.194 142.808 143.055 143.009 
142.559 142.476 142.008 142.659 142.64 142.157 142.123 141.617 141.585 
141.133 142.294 142.232 141.771 141.715 141.249 141.185 140.722 140.702 
140.306 142.031 141.932 141.508 141.409 140.997 140.893 140.463 140.355 
139.941 139.912 139.573 141.773 141.697 141.27 141.181 140.766 140.681 
140.266 140.152 139.731 139.628 139.261 139.235 138.907 141.458 141.415 
140.972 140.904 140.445 140.396 139.966 139.921 139.508 139.432 139.034 
138.966 138.586 138.553 138.156 141.15 141.105 140.686 140.597 140.118 
140.035 139.577 139.558 139.16 139.156 138.764 138.718 138.295 138.23 
137.791 137.75 137.347 140.889 140.838 140.467 140.359 139.907 139.756 
139.278 139.181 138.772 138.771 138.403 138.401 137.985 137.925 137.473 
137.403 136.997 136.98 136.684 143.261 142.712 142.982 142.903 141.991 
142.363 142.319 142.589 142.503 141.2 141.635 141.681 141.993 141.918 
142.158 142.052 140.392 140.854 140.966 141.358 141.339 141.587 141.468 
141.693 141.617 139.621 140.045 140.129 140.587 140.587 140.947 140.845 
141.118 141.049 141.321 141.324 138.888 139.264 139.251 139.691 139.635 
140.071 139.96 140.374 140.322 140.723 140.744 141.072 141.053 138.09 
138.467 138.37 138.779 138.663 139.078 138.94 139.385 139.33 139.853 
139.906 140.397 140.397 140.726 140.603 137.3 137.636 137.542 137.899 
137.791 138.147 138.021 138.399 138.332 138.818 138.875 139.441 139.504 
139.969 139.896 140.2 140.049 136.699 136.948 136.929 137.185 137.14 
137.389 137.293 137.569 137.493 137.878 137.912 138.423 138.516 139.031 
139.047 139.446 139.362 139.659 139.561 136.425 136.131 136.432 136.686 
135.711 136.113 136.404 136.676 136.874 135.234 135.617 135.9 136.285 
136.45 136.766 136.936 135.007 135.182 135.348 135.684 135.843 136.224 
136.402 136.797 137.078 134.982 135.05 135.135 135.259 135.428 135.676 
135.948 136.292 136.673 137.063 137.512 134.839 134.99 135.132 135.21 
135.426 135.52 135.859 136.039 136.483 136.772 137.267 137.617 138.11 
134.61 134.784 134.977 135.175 135.446 135.618 135.948 136.094 136.458 
136.666 137.075 137.387 137.822 138.195 138.617 134.526 134.595 134.751 
134.96 135.243 135.532 135.853 136.097 136.368 136.583 136.863 137.148 
137.495 137.858 138.237 138.623 138.968 134.608 134.584 134.696 134.794 
135.062 135.302 135.641 135.904 136.186 136.406 136.658 136.9 137.212 
137.523 137.89 138.241 138.598 138.938 139.233 136.21 135.708 135.909 
135.824 135.153 135.315 135.113 135.421 135.326 134.709 134.747 134.473 
134.678 134.582 134.922 134.924 134.519 134.397 134.118 134.155 134.098 
134.32 134.459 134.722 134.858 134.54 134.317 134.003 133.925 133.821 
133.958 134.064 134.344 134.512 134.762 134.843 134.618 134.379 134.027 
133.874 133.665 133.691 133.6 133.837 133.826 134.221 134.247 134.619 
134.607 134.712 134.477 134.184 133.973 133.799 133.644 133.493 133.423 
133.27 133.436 133.43 133.846 133.96 134.349 134.408 134.919 134.668 
134.49 134.242 134.174 133.942 133.901 133.607 133.489 133.221 133.196 
133.238 133.473 133.779 134.068 134.307 134.441 135.251 135.007 134.913 
134.649 134.578 134.351 134.308 134.09 134.012 133.705 133.618 133.375 
133.495 133.55 133.88 134.092 134.362 134.471 134.58 140.634 140.076 
140.326 140.208 139.466 139.733 139.617 139.843 139.649 138.865 139.12 
139.001 139.231 139.02 139.213 138.993 138.2 138.477 138.318 138.587 
138.363 138.567 138.322 138.554 138.43 137.465 137.73 137.506 137.816 
137.57 137.848 137.583 137.852 137.691 138.037 138.011 136.835 137.015 
136.772 136.998 136.748 137.01 136.753 137.048 136.859 137.232 137.161 
137.594 137.571 136.29 136.445 136.232 136.379 136.158 136.302 136.069 
136.259 136.072 136.377 136.29 136.7 136.668 137.105 137.068 135.762 
135.902 135.691 135.866 135.665 135.811 135.58 135.694 135.473 135.661 
135.541 135.865 135.844 136.237 136.24 136.634 136.633 135.409 135.43 
135.184 135.305 135.085 135.271 135.039 135.202 134.943 135.099 134.898 
135.152 135.085 135.453 135.483 135.878 135.941 136.302 136.369 140.782 
140.838 140.614 140.216 140.921 140.665 140.223 139.999 139.591 141.027 
140.75 140.305 140.034 139.606 139.387 139.006 141.181 140.872 140.437 
140.147 139.729 139.459 139.052 138.817 138.399 141.365 141.053 140.59 
140.284 139.845 139.58 139.144 138.885 138.424 138.172 137.708 141.427 
141.2 140.716 140.419 139.92 139.653 139.188 138.944 138.475 138.214 
137.746 137.492 137.069 141.346 141.189 140.735 140.489 139.977 139.705 
139.245 138.996 138.587 138.311 137.886 137.582 137.151 136.892 136.503 
141.309 141.126 140.724 140.49 140.015 139.748 139.309 139.078 138.738 
138.497 138.14 137.806 137.369 137.019 136.591 136.334 135.98 141.37 
141.161 140.797 140.543 140.102 139.808 139.35 139.118 138.764 138.614 
138.297 138.064 137.636 137.276 136.813 136.479 136.127 135.886 135.647 
141.286 140.917 140.994 140.714 140.478 140.584 140.298 140.352 139.994 
140.073 140.139 139.815 139.869 139.463 139.534 139.184 139.682 139.732 
139.359 139.375 138.928 138.962 138.6 138.751 138.562 139.143 139.252 
138.871 138.928 138.508 138.492 138.117 138.191 137.997 138.217 138.102 
138.521 138.624 138.255 138.393 138.068 138.127 137.78 137.786 137.496 
137.633 137.438 137.687 137.454 138.059 138.071 137.718 137.8 137.523 
137.654 137.355 137.422 137.055 137.123 136.808 136.986 136.732 136.951 
136.67 137.738 137.73 137.42 137.396 137.097 137.142 136.823 136.905 
136.512 136.595 136.234 136.379 136.154 136.328 136.149 136.272 136.064 
137.392 137.443 137.177 137.162 136.844 136.802 136.439 136.414 135.999 
136.015 135.635 135.771 135.575 135.813 135.74 135.903 135.785 135.823 
135.647 137.093 136.529 136.854 136.887 135.865 136.22 136.25 136.592 
136.564 135.265 135.568 135.625 135.952 135.962 136.232 136.148 134.833 
135.073 135.202 135.451 135.511 135.694 135.583 135.768 135.643 134.504 
134.702 134.821 135.082 135.126 135.305 135.123 135.218 134.988 135.229 
135.205 134.33 134.397 134.384 134.61 134.567 134.822 134.597 134.719 
134.421 134.596 134.575 134.944 135.178 134.417 134.314 134.191 134.194 
134.09 134.238 134.116 134.22 134.038 134.117 134.149 134.432 134.764 
135.14 135.465 134.594 134.462 134.301 134.133 133.963 133.917 133.875 
133.926 133.952 133.959 134.063 134.173 134.478 134.785 135.122 135.425 
135.582 134.638 134.59 134.422 134.265 133.993 133.859 133.691 133.754 
133.801 133.947 134.072 134.18 134.338 134.526 134.722 135.01 135.131 
135.399 135.426 137.088 136.992 136.869 136.549 137.089 136.837 136.48 
136.315 135.94 137.319 136.988 136.582 136.327 135.919 135.697 135.319 
137.575 137.219 136.787 136.481 136.038 135.731 135.27 135.08 134.786 
137.903 137.503 137.095 136.735 136.289 135.898 135.362 135.041 134.644 
134.578 134.427 138.315 137.886 137.482 137.091 136.666 136.223 135.673 
135.203 134.727 134.489 134.326 134.33 134.338 138.706 138.292 137.838 
137.459 137.026 136.624 136.135 135.627 135.161 134.732 134.543 134.375 
134.442 134.402 134.497 139.041 138.644 138.171 137.78 137.344 136.97 
136.571 136.137 135.784 135.316 135.136 134.793 134.822 134.64 134.733 
134.63 134.682 139.368 138.983 138.559 138.144 137.757 137.349 137.024 
136.619 136.365 135.962 135.823 135.464 135.44 135.141 135.14 134.913 
134.884 134.756 134.716 137.402 137.963 137.538 137.347 138.77 138.237 
138.08 137.614 137.511 139.705 139.144 139.028 138.497 138.43 137.91 
137.819 140.649 140.115 140.019 139.494 139.447 138.915 138.815 138.24 
138.096 141.545 141.084 141.049 140.519 140.465 139.918 139.809 139.239 
139.069 138.501 138.381 142.344 141.974 142.059 141.596 141.583 140.982 
140.837 140.211 140.035 139.464 139.343 138.828 138.78 143.158 142.778 
142.903 142.555 142.608 142.1 141.949 141.288 141.08 140.453 140.346 
139.807 139.767 139.256 139.205 144.065 143.633 143.677 143.328 143.349 
142.977 142.854 142.335 142.137 141.544 141.429 140.858 140.812 140.26 
140.191 139.647 139.544 144.876 144.497 144.454 144.067 143.991 143.622 
143.488 143.092 142.944 142.508 142.417 141.932 141.857 141.308 141.184 
140.619 140.472 139.941 139.823 145.213 145.473 145.188 144.809 145.684 
145.423 145.062 144.733 144.302 145.938 145.667 145.331 144.987 144.537 
144.181 143.736 146.083 145.891 145.556 145.267 144.816 144.43 143.954 
143.617 143.221 145.947 145.867 145.491 145.373 144.931 144.663 144.168 
143.847 143.439 143.151 142.784 145.725 145.624 145.238 145.185 144.8 
144.664 144.177 143.949 143.474 143.286 142.885 142.672 142.23 145.65 
145.472 145.115 144.983 144.675 144.545 144.134 143.902 143.374 143.175 
142.699 142.598 142.151 141.996 141.499 145.61 145.466 145.109 144.937 
144.612 144.483 144.135 143.915 143.418 143.109 142.59 142.379 141.953 
141.826 141.403 141.23 140.768 145.432 145.388 145.024 144.889 144.488 
144.383 144.019 143.899 143.469 143.207 142.702 142.394 141.965 141.735 
141.379 141.174 140.79 140.557 140.142 145.182 144.642 144.89 144.775 
144.044 144.297 144.152 144.382 144.23 143.425 143.684 143.548 143.763 
143.612 143.848 143.742 142.782 143.042 142.916 143.162 142.996 143.23 
143.084 143.36 143.206 142.157 142.377 142.191 142.47 142.273 142.553 
142.344 142.642 142.452 142.741 142.499 141.53 141.735 141.494 141.73 
141.516 141.781 141.563 141.847 141.652 141.959 141.777 142.028 141.802 
140.845 141.076 140.852 141.064 140.865 141.082 140.898 141.115 140.932 
141.185 141.035 141.319 141.162 141.394 141.2 140.184 140.399 140.195 
140.416 140.212 140.448 140.265 140.497 140.304 140.521 140.327 140.588 
140.42 140.71 140.523 140.782 140.577 139.631 139.792 139.579 139.766 
139.535 139.759 139.543 139.812 139.61 139.869 139.648 139.889 139.677 
139.948 139.754 140.039 139.831 140.11 139.909 139.432 139.34 139.142 
138.654 139.283 139.077 138.604 138.379 137.897 139.232 139.032 138.596 
138.373 137.907 137.655 137.191 139.191 138.987 138.55 138.359 137.909 
137.68 137.212 136.974 136.553 139.131 138.934 138.482 138.302 137.855 
137.653 137.198 136.986 136.597 136.401 136.074 139.076 138.867 138.437 
138.249 137.838 137.624 137.194 136.97 136.607 136.447 136.179 136.003 
135.728 139.101 138.859 138.454 138.24 137.865 137.651 137.251 137.008 
136.632 136.454 136.171 136.057 135.784 135.632 135.342 139.187 138.941 
138.539 138.294 137.899 137.683 137.285 137.067 136.681 136.487 136.157 
136.017 135.703 135.585 135.269 135.18 134.947 139.279 139.049 138.663 
138.399 137.982 137.727 137.324 137.098 136.744 136.544 136.238 136.044 
135.729 135.528 135.2 135.061 134.824 134.801 134.697 146.573 146.667 
146.583 146.517 146.82 146.738 146.703 146.565 146.546 146.826 146.879 
146.9 146.807 146.807 146.684 146.763 146.633 146.799 146.899 146.948 
146.951 146.903 146.97 146.952 147.066 146.475 146.616 146.785 146.902 
146.954 146.953 146.971 147.035 147.162 147.211 147.186 146.373 146.512 
146.717 146.85 146.994 146.98 146.978 146.969 147.027 147.157 147.181 
147.162 146.888 146.17 146.37 146.557 146.765 146.938 147.034 147.044 
147.001 146.924 146.959 146.902 146.995 146.8 146.712 146.344 145.905 
146.117 146.236 146.477 146.551 146.804 146.794 146.938 146.801 146.83 
146.636 146.674 146.468 146.502 146.239 146.17 145.881 145.617 145.824 
145.86 146.061 145.995 146.245 146.153 146.449 146.345 146.553 146.371 
146.425 146.185 146.19 145.959 145.975 145.749 145.725 145.473 146.529 
146.419 146.441 146.316 146.398 146.319 146.151 146.124 145.864 146.618 
146.391 146.155 145.993 145.703 145.6 145.271 146.925 146.666 146.372 
146.088 145.721 145.498 145.138 145.013 144.691 146.955 146.838 146.48 
146.273 145.85 145.581 145.138 144.917 144.54 144.439 144.105 146.556 
146.598 146.17 146.169 145.762 145.65 145.184 144.94 144.457 144.279 
143.9 143.828 143.483 146.046 146.083 145.663 145.708 145.356 145.411 
145.026 144.911 144.383 144.174 143.701 143.606 143.275 143.224 142.904 
145.684 145.675 145.338 145.29 144.97 144.99 144.666 144.646 144.166 
144.019 143.487 143.379 143.006 142.997 142.718 142.677 142.372 145.322 
145.376 145.086 145.057 144.727 144.688 144.338 144.296 143.859 143.75 
143.245 143.13 142.712 142.697 142.405 142.436 142.163 142.141 141.846 
146.504 146.305 146.405 146.23 145.821 146.071 145.924 145.984 145.642 
145.201 145.488 145.373 145.56 145.279 145.301 144.948 144.617 144.87 
144.781 144.998 144.816 144.91 144.618 144.634 144.367 144.014 144.275 
144.169 144.423 144.291 144.468 144.239 144.296 144 144.056 143.802 
143.359 143.613 143.461 143.756 143.62 143.901 143.703 143.865 143.547 
143.626 143.284 143.404 143.108 142.755 142.95 142.77 143.027 142.895 
143.193 143.035 143.264 142.981 143.102 142.743 142.846 142.518 142.659 
142.369 142.218 142.373 142.183 142.384 142.265 142.518 142.395 142.613 
142.377 142.515 142.195 142.302 141.993 142.106 141.834 141.955 141.704 
141.714 141.855 141.659 141.833 141.702 141.934 141.815 142.023 141.8 
141.935 141.629 141.75 141.457 141.593 141.333 141.461 141.222 141.344 
141.128 137.585 138.005 137.903 138.145 138.433 138.371 138.709 138.586 
138.937 138.945 138.868 139.288 139.192 139.591 139.46 139.855 139.535 
139.44 139.854 139.78 140.2 140.109 140.509 140.386 140.771 140.013 
139.974 140.339 140.314 140.716 140.677 141.083 141.007 141.371 141.257 
141.597 140.342 140.332 140.657 140.703 141.102 141.14 141.558 141.54 
141.922 141.829 142.144 142.025 142.343 140.714 140.644 140.941 140.965 
141.363 141.455 141.894 141.959 142.377 142.358 142.733 142.611 142.955 
142.807 143.188 141.169 141.072 141.359 141.298 141.655 141.697 142.121 
142.226 142.67 142.756 143.193 143.188 143.6 143.489 143.889 143.736 
144.139 141.571 141.531 141.829 141.754 142.057 142.019 142.383 142.443 
142.886 143.009 143.476 143.574 144 144.03 144.408 144.377 144.726 
144.64 144.946 
POINT_DATA 1002
SCALARS Distance double
LOOKUP_TABLE default
144.963 145.432 145.233 144.816 145.077 144.408 144.762 145.208 144.322 
143.796 144.96 145.452 144.323 143.685 143.15 145.133 145.389 144.477 
143.679 143.066 142.55 144.929 144.978 144.514 143.766 143.119 142.593 
141.988 144.414 144.448 144.216 143.672 143.087 142.593 141.985 141.318 
143.856 143.984 143.69 143.289 142.775 142.343 141.814 141.158 140.592 
143.446 143.689 143.18 142.792 142.311 141.94 141.576 141.019 140.433 
139.982 143.2 143.513 142.837 142.417 141.94 141.571 141.348 140.997 
140.446 139.912 139.494 145.71 145.491 145.954 145.895 146.214 145.495 
146.312 146.355 146.129 145.741 146.454 146.442 146.586 146.289 145.783 
146.542 146.682 146.664 146.56 146.03 145.458 146.744 146.858 146.681 
146.562 146.169 145.591 144.99 146.748 146.764 146.61 146.389 146.086 
145.668 145.103 144.493 146.564 146.625 146.333 146.05 145.825 145.568 
145.128 144.572 144.085 146.446 146.582 146.091 145.753 145.655 145.606 
145.252 144.678 144.197 143.856 146.437 146.081 145.967 145.556 145.263 
145.653 145.076 144.637 145.467 145.617 144.67 144.145 145.392 145.926 
145.876 144.125 143.557 144.889 145.796 146.142 145.706 143.371 142.815 
143.965 144.742 145.461 145.471 144.978 142.541 142.08 143.025 143.505 
144.09 144.524 144.503 144.292 141.792 141.456 142.202 142.582 142.928 
143.327 143.682 143.86 143.893 141.183 140.928 141.491 141.835 142.123 
142.366 142.695 143.105 143.426 143.545 143.072 142.965 142.389 142.637 
142.076 141.56 142.18 141.655 141.12 140.722 141.823 141.31 140.782 
140.266 139.932 141.608 141.094 140.589 140.019 139.54 139.249 141.361 
140.844 140.359 139.85 139.326 138.918 138.555 141.049 140.509 139.985 
139.555 139.121 138.655 138.185 137.729 140.777 140.233 139.613 139.133 
138.794 138.379 137.85 137.337 136.975 140.556 140.068 139.422 138.799 
138.386 138.031 137.547 137.023 136.631 136.448 142.675 142.027 142.257 
141.319 141.697 141.801 140.523 141.058 141.263 141.342 139.682 140.183 
140.522 140.752 141.053 138.861 139.211 139.511 139.848 140.366 140.816 
137.985 138.266 138.512 138.797 139.345 140.009 140.368 137.195 137.446 
137.663 137.888 138.312 138.97 139.532 139.79 136.676 136.915 137.06 
137.157 137.436 137.989 138.591 139.018 139.278 136.152 136.468 135.774 
136.098 135.261 136.647 135.494 134.95 136.11 136.594 135.102 134.97 
135.449 135.97 136.643 135.079 134.9 135.227 135.609 136.265 137.112 
134.992 134.627 135.327 135.726 136.244 136.938 137.751 134.733 134.472 
135.208 135.806 136.315 136.817 137.472 138.244 134.581 134.526 134.939 
135.583 136.172 136.619 137.156 137.859 138.609 134.645 134.653 134.865 
135.384 135.958 136.43 136.928 137.554 138.257 138.928 136.03 135.546 
135.548 134.851 135.061 134.945 134.329 134.738 134.24 134.563 134.126 
134.693 133.899 134.159 134.656 134.134 134.796 133.751 133.817 134.218 
134.663 134.209 134.852 133.74 133.509 133.478 133.784 134.296 134.372 
134.915 133.973 133.687 133.286 133.049 133.459 134.126 134.717 135.127 
134.384 134.168 133.851 133.332 133.208 133.754 134.327 135.177 135.449 
134.847 134.504 134.253 133.936 133.589 133.691 134.197 134.562 140.419 
140.003 139.807 139.39 139.2 139.46 138.772 138.624 138.843 138.758 
138.037 137.939 138.146 138.101 138.107 137.214 137.243 137.266 137.299 
137.35 137.617 136.588 136.675 136.513 136.465 136.497 136.731 137.134 
136.073 136.123 136.036 135.928 135.816 135.905 136.235 136.636 135.511 
135.652 135.491 135.472 135.342 135.263 135.456 135.842 136.244 140.999 
140.424 141.093 140.479 141.191 139.766 140.58 141.31 139.857 139.195 
140.726 141.509 140.005 139.327 138.635 140.924 141.665 140.121 139.411 
138.695 137.943 141.013 141.605 140.213 139.428 138.727 138.007 137.292 
140.95 141.484 140.243 139.475 138.834 138.203 137.451 136.712 140.945 
141.499 140.278 139.526 138.926 138.455 137.764 136.894 136.166 141.04 