# vtk DataFile Version 4.0
vtk output
ASCII
DATASET POLYDATA
POINTS 1002 float
-80.257 -104.969 52.8994 -80.4476 -105.088 53.5398 -81.1234 -105.153 53.1321 
-80.904 -104.851 52.5539 -81.5872 -104.83 52.8354 -80.0493 -104.501 52.4265 
-81.3403 -104.235 52.3723 -81.7729 -104.048 52.6336 -80.5955 -104.102 52.2114 
-79.8845 -103.755 52.0015 -81.6389 -103.37 52.1907 -82.2076 -103.524 52.2214 
-80.9887 -103.331 52.1222 -80.3041 -103.253 51.8026 -79.6778 -103.103 51.3986 
-82.2718 -103.059 51.6496 -83.048 -103.519 51.5923 -81.4732 -102.749 51.7619 
-80.7234 -102.792 51.462 -80.0518 -102.838 50.9373 -79.3508 -102.811 50.5062 
-83.0628 -103.128 50.9286 -83.6025 -103.242 51.1616 -82.2582 -102.784 50.909 
-81.3661 -102.705 50.6865 -80.5721 -102.791 50.1935 -79.8343 -102.792 49.7652 
-79.0624 -102.795 49.4249 -83.493 -102.864 50.3466 -83.8044 -102.577 50.8514 
-82.9339 -102.896 49.9856 -82.0529 -102.783 49.7299 -81.1918 -102.746 49.3808 
-80.4615 -102.73 49.0082 -79.6977 -102.773 48.6584 -78.9241 -102.861 48.3134 
-83.8352 -102.455 49.7652 -84.235 -102.164 50.3195 -83.3499 -102.732 49.2579 
-82.5314 -102.713 48.9812 -81.6404 -102.529 48.7956 -80.9998 -102.449 48.5149 
-80.3433 -102.531 48.1257 -79.5475 -102.72 47.6974 -78.8129 -102.853 47.3565 
-84.3378 -102.184 49.2282 -84.806 -102.001 49.7545 -83.7758 -102.434 48.7449 
-82.9765 -102.5 48.4814 -82.0516 -102.309 48.3644 -81.3944 -102.17 48.1436 
-80.8583 -102.232 47.7707 -80.0873 -102.394 47.3497 -79.2847 -102.573 46.9781 
-78.6623 -102.696 46.703 -84.7088 -101.86 48.9877 -85.1064 -101.708 49.4662 
-84.1388 -102.005 48.5536 -83.3977 -102.074 48.2675 -82.5524 -101.998 48.0805 
-81.8567 -101.935 47.7881 -81.3236 -102.005 47.3934 -80.5958 -102.085 47.0636 
-79.7069 -102.145 46.8112 -79.0156 -102.267 46.5658 -78.5307 -102.426 46.3135 
-81.0045 -105.117 54.1114 -81.5891 -105.091 53.7161 -81.4514 -105.103 54.8712 
-81.722 -104.771 54.5183 -81.7007 -105.009 55.6688 -81.7587 -104.508 53.4828 
-81.6687 -104.268 55.253 -81.7586 -104.685 56.3597 -81.6858 -103.906 54.3224 
-81.9524 -103.773 53.2107 -81.786 -103.776 55.7991 -81.774 -104.155 56.9912 
-81.8683 -103.415 54.9325 -82.2961 -103.439 53.9221 -82.8128 -103.655 52.5729 
-82.2388 -103.538 56.3712 -81.9955 -103.725 57.5267 -82.512 -103.371 55.3082 
-82.979 -103.367 54.3829 -83.5011 -103.568 53.1103 -83.7039 -103.587 51.9053 
-82.8592 -103.505 56.914 -82.4471 -103.498 57.7747 -83.2521 -103.529 55.7978 
-83.6605 -103.502 54.7456 -83.9965 -103.383 53.5931 -84.103 -103.197 52.4126 
-83.9557 -102.876 51.5903 -83.3486 -103.348 57.1924 -82.8807 -103.251 57.7978 
-83.7316 -103.379 56.2763 -84.0649 -103.322 55.2535 -84.258 -103.095 54.1559 
-84.3227 -102.773 52.9498 -84.3092 -102.468 51.9908 -84.2474 -102.229 51.2264 
-83.6013 -102.954 57.2989 -83.1405 -102.868 57.7923 -83.9482 -102.912 56.5349 
-84.2674 -102.781 55.6527 -84.4951 -102.617 54.7376 -84.6071 -102.442 53.5752 
-84.748 -102.286 52.3857 -84.8621 -102.138 51.4666 -84.8697 -102.029 50.6183 
-83.7397 -102.464 57.3805 -83.2784 -102.416 57.7802 -84.0935 -102.423 56.7011 
-84.4278 -102.305 55.8655 -84.7472 -102.203 55.0764 -84.9483 -102.147 54.0962 
-85.122 -102.086 52.8614 -85.3038 -101.989 51.7724 -85.3594 -101.875 50.9116 
-85.279 -101.784 50.1268 -83.7374 -101.93 57.5392 -84.208 -101.956 57.034 
-84.3124 -101.362 57.2223 -84.7626 -101.471 56.5496 -84.8013 -100.801 56.6938 
-84.5846 -101.961 56.2139 -85.0869 -100.912 55.8943 -84.8791 -100.298 55.8839 
-85.097 -101.55 55.6926 -84.951 -101.943 55.3564 -85.0637 -100.223 55.0617 
-84.7516 -99.8519 55.0055 -85.3536 -100.827 55.0197 -85.4113 -101.507 54.7189 
-85.2393 -101.9 54.4118 -85.0662 -99.6614 54.1972 -84.8176 -99.3596 54.3504 
-85.4923 -99.9825 54.0806 -85.7885 -100.631 53.7757 -85.6886 -101.299 53.4296 
-85.4154 -101.757 53.1789 -85.1389 -99.2298 53.4673 -84.9205 -98.7684 53.8219 
-85.5789 -99.5402 53.1389 -86.1742 -99.9428 52.7779 -86.263 -100.432 52.445 
-85.8404 -100.925 52.2428 -85.5302 -101.519 52.0291 -85.0944 -98.6978 52.8472 
-84.8476 -98.2224 53.2207 -85.4053 -99.1583 52.4734 -86.139 -99.6371 52.1389 
-86.7649 -99.9996 51.8757 -86.437 -100.153 51.7072 -85.7666 -100.563 51.4912 
-85.526 -101.323 51.1642 -85.0308 -98.1568 52.3131 -84.7001 -97.8154 52.6399 
-85.2248 -98.5502 52.0105 -85.7093 -99.076 51.7652 -86.6465 -99.6371 51.5467 
-86.9924 -99.8477 51.3476 -86.2752 -99.9041 51.1238 -85.5841 -100.427 50.7792 
-85.4263 -101.242 50.3894 -84.9592 -97.7541 51.8828 -84.5324 -97.4856 52.1868 
-85.2222 -98.036 51.5993 -85.4617 -98.4016 51.3667 -86.155 -98.9589 51.1189 
-86.9789 -99.463 50.8154 -86.8898 -99.644 50.5399 -86.0409 -99.8688 50.3101 
-85.4513 -100.49 50.0356 -85.2848 -101.217 49.723 -84.9576 -101.306 49.1394 
-85.1917 -100.727 49.3981 -84.6837 -100.775 48.8776 -85.6482 -100.084 49.5654 
-85.086 -100.272 49.0226 -84.4066 -100.271 48.3769 -86.4282 -99.6299 49.6506 
-85.628 -99.762 49.0909 -84.7697 -99.8422 48.4756 -84.1884 -99.8262 47.6501 
-86.8753 -99.3287 49.8297 -86.0844 -99.3072 49.1528 -84.9706 -99.2902 48.6682 
-84.2886 -99.2645 47.8045 -83.9949 -99.2908 47.0139 -86.4191 -98.8623 50.1828 
-86.0816 -98.8173 49.3091 -85.1043 -98.6673 48.8016 -84.2794 -98.4864 48.0549 
-83.9858 -98.4909 47.1153 -83.6796 -98.6424 46.5711 -85.7045 -98.3081 50.5629 
-85.6964 -98.269 49.5856 -85.2075 -98.0335 48.8648 -84.546 -97.6861 48.1747 
-84.0931 -97.592 47.2503 -83.6901 -97.7764 46.5715 -83.0949 -98.0014 46.2519 
-85.3407 -97.9269 50.8874 -85.3035 -97.8529 49.9386 -85.0604 -97.5565 49.0441 
-84.7076 -97.1046 48.3169 -84.2728 -96.9185 47.4691 -83.6962 -97.0344 46.6854 
-83.0194 -97.2121 46.2499 -82.3512 -97.3557 45.9983 -85.032 -97.6395 51.2187 
-84.9072 -97.5585 50.3449 -84.6191 -97.3204 49.3972 -84.3204 -96.9144 48.6266 
-83.9569 -96.6867 47.8718 -83.4062 -96.6733 47.0327 -82.7841 -96.6239 46.3794 
-82.2312 -96.5847 45.9815 -81.7222 -96.6727 45.7157 -84.5647 -97.3382 51.5654 
-84.4168 -97.2495 50.7698 -84.0945 -97.1444 49.8352 -83.7289 -96.9275 49.0191 
-83.316 -96.7346 48.3191 -82.8067 -96.6043 47.5094 -82.3446 -96.3243 46.6873 
-82.0202 -95.9793 46.0667 -81.7091 -95.878 45.6513 -81.2955 -96.0501 45.3868 
-84.4531 -101.406 48.7058 -84.0442 -100.763 48.4178 -83.7658 -101.42 48.3335 
-83.7742 -100.211 47.8215 -83.3329 -100.681 48.0316 -83.0099 -101.395 48.0395 
-83.6744 -99.8048 47.141 -83.0708 -100.139 47.4936 -82.6525 -100.693 47.6678 
-82.3274 -101.444 47.6367 -83.4518 -99.3322 46.632 -82.8568 -99.7773 46.8844 
-82.3046 -100.19 47.131 -82.0552 -100.893 47.1022 -81.7571 -101.618 47.0985 
-82.9359 -98.7101 46.2317 -82.5136 -99.3145 46.265 -81.9731 -99.8021 46.4316 
-81.653 -100.376 46.5622 -81.4157 -101.108 46.5834 -81.0221 -101.722 46.7402 
-82.2286 -97.997 45.95 -81.9955 -98.6122 45.8591 -81.6522 -99.2459 45.8427 
-81.3176 -99.9088 45.9939 -80.9775 -100.543 46.2042 -80.5155 -101.143 46.4028 
-80.0412 -101.688 46.6104 -81.5383 -97.2734 45.7319 -81.3202 -97.8024 45.7433 
-81.0947 -98.3905 45.7387 -80.8583 -99.2024 45.7615 -80.5425 -100.013 45.8662 
-80.08 -100.605 46.0753 -79.5788 -101.138 46.3111 -79.2187 -101.727 46.4635 
-81.0093 -96.6439 45.4435 -80.6764 -97.1315 45.5844 -80.3643 -97.5616 45.7503 
-80.1077 -98.2457 45.838 -79.871 -99.196 45.7974 -79.5834 -100.024 45.7785 
-79.2427 -100.643 45.9217 -78.9325 -101.274 46.1094 -78.7079 -101.922 46.2132 
-80.7052 -95.9161 45.0879 -80.2942 -96.5093 45.2057 -79.9662 -95.8182 44.9051 
-79.5525 -96.4328 45.0244 -79.1225 -95.639 44.9199 -79.8505 -96.9554 45.4236 
-78.7687 -96.393 44.992 -78.0587 -95.461 45.0264 -79.1342 -96.9882 45.1649 
-79.4498 -97.4327 45.6475 -77.7034 -96.3984 45.0534 -76.881 -95.4991 45.0058 
-78.4428 -97.2168 44.9716 -78.7457 -97.6383 45.3102 -79.134 -98.2333 45.7384 
-76.5991 -96.5306 45.0444 -76.1756 -95.8488 45.0619 -77.4051 -97.456 44.8862 
-78.0882 -98.0482 45.0275 -78.4099 -98.4238 45.4824 -78.908 -99.1916 45.6876 
-75.955 -96.884 45.1837 -75.8725 -96.387 45.4695 -76.2752 -97.6645 44.8335 
-77.0414 -98.374 44.8673 -77.7029 -98.6985 45.3706 -78.1684 -99.2136 45.6582 
-78.7343 -100.037 45.691 -75.4065 -97.2964 45.5182 -75.2525 -96.8214 45.821 
-75.4804 -97.9122 45.0577 -75.9257 -98.5602 44.8652 -76.6839 -98.9414 45.3083 
-77.3484 -99.3427 45.7556 -77.9783 -100.127 45.7471 -78.5556 -100.866 45.795 
-74.5592 -97.5256 45.6475 -74.3323 -97.0258 45.8256 -74.7842 -98.1199 45.4324 
-75.1437 -98.7135 45.2198 -75.7362 -99.1572 45.3669 -76.3629 -99.585 45.7453 
-77.0189 -100.338 45.7958 -77.7649 -101.186 45.6949 -78.3532 -101.692 45.8723 
-73.7889 -97.6474 45.6483 -73.6724 -97.1814 45.8793 -74.0801 -98.268 45.6267 
-74.5167 -98.9062 45.6311 -75.0603 -99.4206 45.653 -75.5803 -99.8872 45.7773 
-76.0728 -100.581 45.7773 -76.7444 -101.439 45.6113 -77.525 -102.053 45.6426 
-78.1301 -102.312 45.9505 -81.2199 -95.3369 45.2306 -80.5341 -95.2053 44.9498 
-81.0437 -94.7436 45.2966 -80.0954 -94.6035 45.0982 -80.6246 -94.4618 45.7155 
-79.6189 -95.0091 44.8646 -79.3842 -94.3191 45.5546 -79.9963 -94.5166 46.3377 
-79.0205 -94.242 45.0803 -78.5954 -94.674 44.9462 -78.7167 -94.3837 46.0822 
-79.4245 -94.6389 46.9207 -78.3857 -93.8607 45.5528 -78.0395 -93.8415 45.1379 
-77.3977 -94.5508 44.9193 -78.3782 -94.5249 46.6198 -79.0642 -94.496 47.6205 
-77.9538 -94.0583 46.0812 -77.612 -93.5717 45.6787 -76.932 -93.9176 45.0501 
-76.3511 -94.8667 44.8161 -78.2339 -94.4439 47.5035 -78.7788 -94.2789 48.5232 
-77.676 -94.4673 46.6856 -77.1974 -93.9839 46.3279 -76.5429 -93.7807 45.7239 
-75.9661 -94.4458 45.0893 -75.8826 -95.466 45.1529 -78.042 -94.3871 48.5304 
-78.4641 -94.5026 49.155 -77.3995 -94.5618 47.64 -76.7147 -94.4519 47.0325 
-76.0901 -94.1153 46.5246 -75.5775 -94.3287 45.8505 -75.4376 -95.1662 45.588 
-75.482 -96.0789 45.7734 -77.7979 -94.7501 49.0672 -78.1744 -95.1349 49.3197 
-77.151 -94.5918 48.554 -76.3288 -94.5136 47.9552 -75.6843 -94.3932 47.3812 
-75.3022 -94.5376 46.7067 -75.0862 -95.1204 46.2223 -74.956 -95.8506 46.1389 
-74.7173 -96.4829 46.0673 -77.561 -95.3541 49.1995 -77.9411 -95.6924 49.4424 
[...]
CELL_DATA 2000
SCALARS Distance double
LOOKUP_TABLE default
141.713 141.828 141.618 141.169 141.53 141.551 141.108 140.935 140.405 
141.079 141.104 140.717 140.699 140.191 140.071 139.552 141.05 140.814 
140.428 140.305 139.9 139.804 139.36 139.229 138.781 141.208 140.963 
140.549 140.25 139.872 139.645 139.292 139.102 138.728 138.537 138.157 
140.991 140.988 140.633 140.439 140.016 139.748 139.35 139.121 138.754 
138.55 138.197 137.994 137.667 140.655 140.681 140.441 140.396 140.011 
139.825 139.344 139.138 138.71 138.556 138.193 138.038 137.708 137.54 
137.24 140.557 140.475 140.265 140.206 139.898 139.748 139.287 139.069 
138.618 138.464 138.121 138.004 137.68 137.539 137.214 137.084 136.796 
140.489 140.423 140.151 140.076 139.752 139.634 139.21 139.013 138.576 
138.399 138.071 137.947 137.647 137.498 137.144 137.002 136.676 136.6 
136.344 142.041 142.546 142.279 142.16 142.898 142.649 142.388 142.167 
141.813 143.007 142.785 142.343 142.194 141.831 141.672 141.363 142.961 
142.742 142.272 142.095 141.845 141.73 141.667 141.46 141.412 143.031 
142.777 142.51 142.223 142.172 141.97 142.092 141.904 141.964 141.679 
141.562 143.287 143.071 143.038 142.731 142.786 142.514 142.587 142.367 
142.3 142.085 141.822 141.584 141.233 143.472 143.411 143.432 143.274 
143.248 143.067 142.95 142.741 142.472 142.25 141.895 141.682 141.334 
141.124 140.856 143.426 143.5 143.458 143.45 143.293 143.248 143.017 
142.9 142.584 142.364 142.048 141.801 141.575 141.321 141.162 140.907 
140.789 143.223 143.349 143.283 143.318 143.137 143.12 142.919 142.862 
142.647 142.487 142.249 142.031 141.84 141.631 141.477 141.261 141.101 
140.883 140.718 143.082 142.885 143.054 143.129 142.646 142.846 142.908 
143.021 142.994 142.179 142.518 142.622 142.811 142.805 142.874 142.817 
141.453 141.883 141.989 142.389 142.442 142.668 142.616 142.694 142.582 
140.781 141.124 141.184 141.619 141.696 142.119 142.096 142.366 142.233 
142.37 142.197 140.231 140.516 140.558 140.883 140.993 141.37 141.427 
141.729 141.619 141.853 141.701 141.908 141.769 139.616 139.941 139.96 
140.292 140.424 140.801 140.993 141.242 141.214 141.289 141.103 141.282 
141.183 141.463 141.379 138.993 139.305 139.307 139.637 139.716 140.172 
140.422 140.866 140.993 141.091 140.878 140.815 140.595 140.784 140.745 
141.06 140.997 138.466 138.739 138.767 139.023 139.051 139.414 139.59 
140.142 140.376 140.783 140.714 140.71 140.397 140.345 140.187 140.397 
140.4 140.684 140.623 140.329 140.113 140.103 139.778 139.974 139.898 
139.654 139.544 139.158 140.188 139.924 139.671 139.477 139.115 138.906 
138.46 140.387 140.175 139.768 139.528 139.036 138.817 138.277 138.129 
137.673 139.984 140.065 139.551 139.465 138.826 138.636 137.947 137.807 
137.238 137.252 136.84 139.262 139.423 138.984 139.031 138.433 138.313 
137.6 137.423 136.782 136.736 136.278 136.366 135.97 138.791 138.827 
138.493 138.49 138 137.896 137.27 137.093 136.476 136.342 135.842 
135.823 135.4 135.459 135.021 138.511 138.507 138.178 138.129 137.66 
137.535 136.958 136.797 136.229 136.085 135.567 135.459 134.96 134.919 
134.434 134.477 134.024 138.193 138.211 137.845 137.817 137.342 137.234 
136.687 136.535 136.003 135.857 135.344 135.198 134.646 134.516 133.958 
133.916 133.436 133.501 133.116 140.281 139.712 139.99 139.927 138.996 
139.315 139.223 139.557 139.458 138.272 138.556 138.399 138.747 138.65 
139.027 138.898 137.603 137.871 137.704 137.948 137.823 138.177 138.117 
138.461 138.336 136.878 137.22 137.093 137.309 137.126 137.396 137.332 
137.699 137.682 137.975 137.887 136.002 136.437 136.328 136.643 136.437 
136.705 136.574 136.931 136.917 137.301 137.259 137.553 137.436 135.015 
135.484 135.365 135.775 135.603 135.951 135.826 136.182 136.139 136.518 
136.463 136.821 136.698 137.02 136.877 134.021 134.467 134.338 134.766 
134.61 135.037 134.942 135.384 135.353 135.753 135.689 136.021 135.906 
136.225 136.125 136.455 136.395 133.135 133.516 133.401 133.776 133.613 
134.018 133.894 134.392 134.352 134.871 134.823 135.241 135.148 135.481 
135.427 135.752 135.767 136.08 136.105 132.677 132.095 132.565 132.907 
131.504 131.981 132.291 132.748 133.078 130.882 131.414 131.771 132.171 
132.464 132.914 133.325 130.212 130.8 131.297 131.736 132.07 132.398 
132.766 133.243 133.773 129.756 130.188 130.756 131.276 131.752 132.108 
132.454 132.785 133.24 133.751 134.282 129.808 129.936 130.375 130.763 
131.283 131.751 132.17 132.518 132.891 133.283 133.766 134.254 134.703 
129.992 130.068 130.322 130.502 130.875 131.268 131.716 132.15 132.549 
132.943 133.391 133.823 134.321 134.713 135.104 129.806 130.042 130.229 
130.433 130.7 130.962 131.356 131.717 132.155 132.553 133.019 133.464 
133.994 134.42 134.894 135.187 135.525 129.486 129.712 129.951 130.231 
130.565 130.831 131.232 131.496 131.935 132.233 132.699 133.086 133.605 
134.069 134.576 134.975 135.354 135.611 135.877 132.382 131.788 131.976 
131.801 131.298 131.37 131.096 131.339 131.156 130.993 130.89 130.441 
130.574 130.272 130.61 130.426 130.877 130.632 130.061 129.971 129.539 
129.706 129.438 129.82 129.687 130.866 130.588 130.057 129.773 129.311 
129.166 128.831 128.936 128.813 129.182 129.275 130.902 130.652 130.258 
129.941 129.542 129.195 128.806 128.588 128.405 128.525 128.708 129.089 
129.443 131.045 130.783 130.47 130.195 129.84 129.504 129.088 128.737 
128.445 128.332 128.437 128.693 129.078 129.447 129.736 131.333 131.03 
130.719 130.42 130.044 129.74 129.333 129.017 128.723 128.503 128.517 
128.564 128.849 129.108 129.349 129.607 129.627 131.664 131.364 131.049 
130.706 130.32 129.956 129.581 129.261 129.051 128.829 128.862 128.77 
128.975 129.008 129.196 129.278 129.313 129.404 129.357 137.897 137.279 
137.559 137.49 136.619 136.889 136.753 137.073 136.953 135.893 136.187 
136.025 136.321 136.172 136.484 136.326 135.088 135.398 135.21 135.543 
135.365 135.698 135.524 135.839 135.669 134.326 134.577 134.318 134.641 
134.39 134.781 134.547 134.956 134.74 135.137 134.958 133.637 133.831 
133.526 133.762 133.474 133.779 133.514 133.891 133.642 134.082 133.864 
134.344 134.177 132.968 133.129 132.798 133.001 132.734 132.971 132.76 
132.998 132.79 133.057 132.854 133.221 133.062 133.539 133.449 132.399 
132.487 132.131 132.281 132 132.25 132.066 132.338 132.163 132.376 
132.173 132.382 132.214 132.527 132.458 132.904 132.932 131.978 132.002 
131.657 131.698 131.388 131.541 131.316 131.591 131.391 131.691 131.455 
131.723 131.505 131.786 131.682 132.04 132.075 132.521 132.64 138 
138.032 137.829 137.446 138.089 137.883 137.497 137.262 136.824 138.073 
137.903 137.491 137.291 136.821 136.589 136.09 137.99 137.832 137.406 
137.235 136.76 136.546 136.029 135.804 135.298 137.954 137.756 137.351 
137.159 136.731 136.503 136.018 135.758 135.269 135.034 134.574 137.987 
137.761 137.355 137.144 136.74 136.519 136.062 135.789 135.293 135.032 
134.574 134.351 133.909 137.991 137.79 137.349 137.14 136.696 136.508 
136.043 135.817 135.301 135.049 134.557 134.342 133.905 133.696 133.262 
137.9 137.743 137.29 137.097 136.629 136.438 135.978 135.772 135.289 
135.043 134.555 134.321 133.886 133.685 133.289 133.076 132.693 137.754 
137.611 137.172 137.008 136.57 136.384 135.963 135.749 135.323 135.069 
134.623 134.356 133.925 133.69 133.303 133.103 132.755 132.558 132.239 
137.537 137.022 137.156 136.934 136.592 136.656 136.422 136.566 136.366 
136.256 136.267 135.99 136.08 135.865 136.007 135.79 135.849 135.895 
135.525 135.609 135.295 135.461 135.205 135.393 135.139 135.266 135.372 
134.94 135.048 134.628 134.791 134.459 134.707 134.443 134.688 134.426 
134.603 134.718 134.328 134.444 134.077 134.153 133.802 133.944 133.672 
133.924 133.694 133.952 133.718 133.966 134.063 133.744 133.893 133.67 
133.738 133.453 133.441 133.13 133.219 132.978 133.201 133.004 133.263 
133.082 133.443 133.484 133.182 133.345 133.171 133.347 133.107 133.146 
132.779 132.776 132.446 132.559 132.346 132.567 132.422 132.678 132.55 
133.134 133.07 132.746 132.818 132.603 132.793 132.56 132.698 132.341 
132.384 132.019 132.084 131.837 131.986 131.843 132.058 131.956 132.193 
132.079 132.94 132.502 132.621 132.492 131.995 132.151 132.002 132.224 
132.264 131.365 131.597 131.486 131.734 131.735 132.042 132.149 130.653 
130.901 130.841 131.193 131.236 131.53 131.563 131.876 131.93 130.197 
130.238 130.126 130.482 130.605 131.008 131.089 131.351 131.363 131.63 
131.676 130.154 129.984 129.763 129.865 129.944 130.328 130.496 130.853 
130.9 131.147 131.178 131.438 131.534 130.039 129.977 129.725 129.68 
129.632 129.794 129.894 130.211 130.264 130.596 130.608 130.943 131.031 
131.361 131.521 129.621 129.726 129.543 129.604 129.503 129.576 129.524 
129.681 129.62 129.886 129.859 130.25 130.354 130.801 131.004 131.395 
131.615 129.329 129.368 129.305 129.375 129.301 129.369 129.23 129.313 
129.151 129.301 129.235 129.527 129.663 130.099 130.381 130.839 131.122 
131.507 131.735 133.201 133.488 133.181 132.801 133.644 133.419 133.053 
132.743 132.289 133.71 133.477 133.123 132.925 132.497 132.171 131.645 
134.009 133.586 133.195 132.966 132.645 132.375 131.907 131.503 130.974 
134.575 134.039 133.598 133.178 132.873 132.57 132.224 131.832 131.392 
130.939 130.578 135.01 134.6 134.152 133.687 133.278 132.884 132.511 
132.154 131.789 131.42 131.132 130.743 130.532 135.212 134.919 134.505 
134.148 133.706 133.302 132.856 132.459 132.079 131.766 131.507 131.242 
130.995 130.674 130.358 135.426 135.117 134.75 134.432 134.069 133.7 
133.319 132.88 132.521 132.117 131.859 131.562 131.304 131.001 130.597 
130.275 129.851 135.698 135.383 135.044 134.721 134.424 134.09 133.81 
133.408 133.111 132.663 132.396 131.995 131.732 131.337 130.95 130.513 
130.072 129.733 129.464 133.532 134.148 133.806 133.783 134.901 134.44 
134.355 134.039 133.97 135.879 135.283 135.166 134.699 134.667 134.254 
134.162 137.038 136.381 136.267 135.648 135.61 135.096 135.094 134.572 
134.544 138.178 137.582 137.472 136.813 136.676 136.092 136.036 135.551 
135.54 135.055 135.057 139.134 138.659 138.579 137.987 137.816 137.165 
136.99 136.445 136.358 135.938 135.886 135.491 135.418 139.943 139.551 
139.55 139.052 138.981 138.337 138.187 137.492 137.352 136.763 136.674 
136.217 136.128 135.725 135.609 140.713 140.365 140.439 140.016 140.033 
139.496 139.424 138.76 138.616 137.904 137.75 137.109 136.988 136.463 
136.366 135.915 135.827 141.425 141.135 141.224 140.876 140.891 140.471 
140.399 139.889 139.728 139.119 138.894 138.238 138.015 137.406 137.244 
136.728 136.619 136.169 136.084 141.822 142.274 141.916 141.608 142.625 
142.289 141.947 141.624 141.255 142.91 142.585 142.186 141.884 141.491 
141.185 140.749 142.988 142.778 142.325 142.058 141.613 141.348 140.883 
140.59 140.079 142.742 142.697 142.218 142.056 141.562 141.386 140.899 
140.661 140.124 139.834 139.258 142.351 142.375 141.939 141.827 141.322 
141.218 140.775 140.631 140.123 139.853 139.268 138.962 138.376 142.009 
142.029 141.7 141.587 141.134 140.981 140.585 140.482 140.074 139.859 
139.301 138.981 138.394 138.096 137.573 141.76 141.742 141.476 141.415 
141.046 140.879 140.474 140.333 139.954 139.798 139.295 139.014 138.415 
138.116 137.589 137.345 136.907 141.62 141.529 141.229 141.195 140.866 
140.778 140.363 140.226 139.788 139.656 139.174 138.969 138.394 138.121 
137.574 137.341 136.904 136.714 136.341 141.459 140.927 141.124 140.986 
140.223 140.512 140.374 140.651 140.566 139.422 139.758 139.626 139.953 
139.835 140.171 140.056 138.621 138.938 138.773 139.123 138.952 139.336 
139.194 139.578 139.446 137.929 138.15 137.902 138.209 137.98 138.373 
138.212 138.648 138.526 138.94 138.799 137.418 137.518 137.198 137.362 
137.088 137.399 137.272 137.691 137.629 138.026 137.898 138.256 138.056 
137.017 137.067 136.725 136.756 136.442 136.609 136.502 136.854 136.876 
137.231 137.147 137.416 137.212 137.494 137.285 136.623 136.688 136.365 
136.352 136.016 136.074 135.935 136.195 136.236 136.565 136.516 136.742 
136.526 136.727 136.51 136.786 136.638 136.229 136.311 136.033 136.022 
135.695 135.702 135.521 135.695 135.7 135.98 135.94 136.146 135.932 
136.086 135.847 136.071 135.921 136.213 136.106 135.72 135.541 135.447 
135.087 135.445 135.289 134.946 134.838 134.499 135.514 135.266 134.885 
134.721 134.391 134.276 133.922 135.597 135.385 134.962 134.71 134.3 
134.145 133.769 133.661 133.253 135.466 135.403 135.037 134.808 134.311 
134.055 133.574 133.443 133.031 132.948 132.539 135.288 135.228 134.943 
134.815 134.356 134.081 133.52 133.269 132.795 132.688 132.289 132.223 
131.816 135.404 135.178 134.891 134.716 134.321 134.09 133.565 133.27 
132.75 132.526 132.084 131.955 131.496 131.424 130.953 135.731 135.429 
135.108 134.796 134.385 134.085 133.593 133.305 132.8 132.54 132.071 
131.84 131.357 131.143 130.624 130.506 130.063 135.947 135.727 135.4 
135.084 134.638 134.251 133.725 133.367 132.86 132.58 132.121 131.871 
131.422 131.139 130.684 130.383 129.984 129.781 129.522 143.161 143.338 
143.199 143.138 143.382 143.324 143.256 143.21 143.32 143.331 143.365 
143.395 143.345 143.481 143.502 143.688 143.336 143.421 143.634 143.574 
143.773 143.731 143.943 143.879 143.859 143.434 143.556 143.84 143.834 
144.001 144.001 144.184 144.168 144.198 143.953 143.674 143.387 143.596 
143.746 143.869 143.862 144 144.068 144.253 144.321 144.282 144.088 
143.724 143.341 143.035 143.302 143.264 143.5 143.371 143.609 143.599 
143.92 144.023 144.24 144.156 144.043 143.692 143.353 142.948 142.506 
142.746 142.62 142.872 142.775 143.038 143.076 143.399 143.539 143.842 
143.837 143.934 143.653 143.525 143.115 142.878 142.488 141.965 142.162 
142.05 142.268 142.246 142.501 142.587 142.898 143.03 143.347 143.35 
143.536 143.306 143.326 142.97 142.888 142.528 142.365 142.017 142.965 
143.025 142.89 142.67 143.325 143.101 142.954 142.657 142.376 143.656 
143.475 143.347 143.049 142.747 142.371 142.015 143.598 143.586 143.323 
143.265 142.885 142.665 142.208 141.934 141.543 143.223 143.241 142.822 
142.916 142.482 142.509 142.031 141.95 141.509 141.376 140.989 142.881 
142.813 142.379 142.37 141.98 141.999 141.606 141.611 141.232 141.211 
140.836 140.746 140.339 142.569 142.514 142.121 142.054 141.695 141.631 
141.257 141.213 140.849 140.862 140.521 140.515 140.126 140.04 139.622 
142.174 142.185 141.807 141.798 141.422 141.386 140.954 140.889 140.437 
140.44 140.067 140.134 139.783 139.781 139.38 139.308 138.92 141.736 
141.77 141.407 141.433 141.078 141.076 140.672 140.587 140.115 140.03 
139.625 139.658 139.349 139.407 139.065 139.04 138.645 138.597 138.237 
142.922 142.551 142.728 142.719 142.143 142.305 142.27 142.507 142.473 
141.744 141.867 141.771 142.013 141.977 142.2 142.034 141.326 141.447 
141.295 141.497 141.42 141.658 141.504 141.655 141.371 140.811 140.982 
140.784 140.977 140.824 141.066 140.903 141.103 140.868 140.984 140.724 
140.167 140.397 140.173 140.389 140.176 140.418 140.23 140.473 140.27 
140.465 140.243 140.386 140.157 139.477 139.723 139.523 139.744 139.535 
139.751 139.56 139.797 139.619 139.848 139.648 139.848 139.62 139.787 
139.535 138.817 139.06 138.908 139.126 138.951 139.14 138.949 139.153 
138.98 139.209 139.035 139.244 139.033 139.209 138.973 139.132 138.901 
138.168 138.426 138.3 138.539 138.387 138.582 138.383 138.561 138.359 
138.574 138.404 138.636 138.463 138.651 138.446 138.592 138.384 138.534 
138.352 133.498 133.842 133.832 134.208 134.412 134.329 134.775 134.665 
135.065 135.06 134.966 135.434 135.326 135.746 135.596 136.028 135.679 
135.588 135.98 135.92 136.298 136.232 136.643 136.589 137.097 136.211 
136.146 136.473 136.398 136.744 136.704 137.15 137.154 137.697 137.694 
138.23 136.603 136.603 136.964 136.898 137.285 137.206 137.727 137.711 
138.34 138.322 138.882 138.793 139.216 136.946 136.968 137.397 137.392 
137.821 137.78 138.274 138.3 138.9 138.956 139.488 139.432 139.794 
139.667 139.977 137.369 137.358 137.815 137.832 138.261 138.255 138.638 
138.697 139.141 139.317 139.772 139.886 140.206 140.17 140.424 140.358 
140.672 137.849 137.815 138.251 138.262 138.681 138.663 138.988 138.969 
139.297 139.409 139.822 140.009 140.388 140.471 140.757 140.747 141.041 
141.032 141.363 
POINT_DATA 1002
SCALARS Distance double
LOOKUP_TABLE default
141.331 141.765 142.043 141.482 141.96 140.693 141.212 141.419 140.63 
139.893 140.684 141.136 140.256 139.69 139.074 140.625 141.391 139.978 
139.467 138.924 138.347 140.876 141.359 140.149 139.492 138.919 138.343 
137.783 140.729 140.885 140.296 139.607 138.956 138.39 137.859 137.361 
140.43 140.653 140.166 139.574 138.852 138.323 137.867 137.4 136.961 
140.344 140.676 140.023 139.507 138.782 138.219 137.823 137.351 136.894 
136.535 140.249 140.545 139.862 139.372 138.752 138.195 137.799 137.32 
136.763 136.371 136.126 142.316 142.48 142.847 142.624 143.225 142.063 
142.508 143.291 141.899 141.536 142.429 143.164 141.88 141.758 141.711 
142.74 143.193 142.363 142.275 142.247 141.937 143.285 143.386 143.092 
142.906 142.582 142.074 141.457 143.564 143.467 143.448 143.206 142.739 
142.096 141.517 141.031 143.471 143.341 143.342 143.091 142.757 142.259 
141.791 141.418 141.04 143.235 143.094 143.143 142.929 142.74 142.446 
142.045 141.686 141.328 140.935 142.919 143.011 142.727 142.802 142.41 
142.912 142.344 141.785 142.721 142.783 141.522 141.053 142.104 142.503 
142.563 140.797 140.494 141.234 141.753 142.035 142.103 140.26 139.939 
140.62 141.129 141.404 141.422 141.58 139.626 139.284 139.998 140.656 
141.196 141.043 140.847 141.124 139.007 138.69 139.289 139.862 140.749 
141.036 140.557 140.383 140.729 138.521 138.187 138.774 139.091 139.816 
140.566 140.54 140.097 140.082 140.39 140.052 139.869 139.415 139.746 
139.348 138.712 139.931 139.338 138.659 138.01 140.056 139.317 138.454 
137.721 137.291 139.573 139.024 138.14 137.247 136.747 136.483 138.881 
138.498 137.777 136.883 136.218 135.87 135.559 138.509 138.091 137.413 
136.621 135.926 135.384 134.947 134.558 138.24 137.787 137.102 136.358 
135.708 135.069 134.428 133.926 133.589 137.872 137.426 136.815 136.145 
135.507 134.819 134.052 133.394 132.99 132.771 139.67 138.861 139.14 
138.095 138.242 138.57 137.51 137.508 137.719 138.062 136.862 136.91 
136.963 137.316 137.669 135.966 136.159 136.245 136.517 136.919 137.192 
134.928 135.202 135.45 135.784 136.118 136.354 136.55 133.916 134.17 
134.46 134.917 135.359 135.592 135.773 136.052 133.044 133.244 133.425 
133.799 134.34 134.773 135.079 135.431 135.818 132.215 132.435 131.636 
131.873 131.005 132.566 131.366 130.277 132.075 132.751 130.76 129.601 
131.767 132.37 133.18 130.206 129.463 131.304 132.188 132.807 133.734 
130.14 129.824 130.783 131.764 132.559 133.308 134.257 130.244 129.909 
130.585 131.258 132.128 132.962 133.905 134.803 129.974 129.536 130.471 
131.046 131.765 132.572 133.526 134.552 135.327 129.629 129.296 130.25 
130.976 131.676 132.363 133.162 134.131 135.046 135.689 132.161 131.554 
131.651 130.906 131.339 130.829 130.428 131.213 129.99 129.999 130.257 
131.162 129.497 129.131 129.186 130.346 131.094 129.567 128.87 128.495 
128.761 130.518 131.096 129.91 129.15 128.401 128.322 129.043 130.738 
131.302 130.158 129.455 128.662 128.276 128.715 129.477 131.053 131.644 
130.368 129.609 128.936 128.574 128.702 129.134 129.438 131.397 131.953 
130.7 129.894 129.242 128.979 129.036 129.191 129.264 129.24 137.634 
137.174 137.029 136.466 136.362 136.62 135.735 135.584 135.878 136.018 
134.877 134.805 135.019 135.199 135.354 134.049 134.126 134.028 134.125 
134.316 134.55 133.319 133.467 133.212 133.185 133.232 133.38 133.663 
132.603 132.836 132.473 132.518 132.577 132.562 132.622 132.903 132.025 
132.337 131.768 131.76 131.921 131.993 131.966 132.056 132.414 138.181 
137.675 138.241 137.733 138.293 137.083 137.684 138.243 137.056 136.325 
137.569 138.158 136.965 136.259 135.506 137.54 138.165 136.945 136.286 
135.511 134.791 137.58 138.217 136.947 136.329 135.573 134.797 134.136 
137.575 138.182 136.894 136.249 135.552 134.779 134.096 133.486 137.472 
138.047 136.824 136.172 135.517 134.799 134.089 133.476 132.909 137.315 
137.901 136.73 136.158 135.561 134.892 134.18 133.507 132.928 132.429 