# vtk DataFile Version 4.0
vtk output
ASCII
DATASET POLYDATA
POINTS 1002 float
-77.4551 -94.5601 55.0856 -77.3461 -94.2262 54.6531 -76.7949 -94.3402 54.819 
-76.9558 -94.6499 55.3682 -76.2547 -94.3161 55.1444 -77.7289 -94.558 55.996 
-76.4682 -94.536 55.9218 -75.7768 -94.2811 55.6901 -77.2625 -94.5565 56.4893 
-78.0272 -94.4457 57.0994 -75.9678 -94.4645 56.5945 -75.3788 -94.506 56.2018 
-76.7563 -94.4931 57.0765 -77.5588 -94.5793 57.5288 -78.1832 -94.894 57.6297 
-75.5705 -94.8282 56.9604 -75.1233 -95.0399 56.4062 -76.2144 -94.6771 57.4495 
-77.0015 -94.9122 57.7483 -77.7239 -95.347 57.8185 -78.3201 -95.7994 57.8299 
-75.3624 -95.5523 56.9944 -74.9409 -95.6091 56.4875 -75.853 -95.3365 57.4927 
-76.4783 -95.4618 57.7928 -77.1796 -95.9333 57.9405 -77.9137 -96.2409 58.1745 
-78.6101 -96.3762 58.5877 -75.1056 -96.1311 57.1883 -74.6508 -96.006 56.8174 
-75.6188 -96.1255 57.6078 -76.1638 -96.1113 57.998 -76.7344 -96.3643 58.3252 
-77.4384 -96.595 58.6919 -78.2254 -96.5959 59.1782 -78.9049 -96.6351 59.6393 
-74.7195 -96.4213 57.7382 -74.3064 -96.329 57.3861 -75.2599 -96.5581 58.1183 
-75.8561 -96.5748 58.5706 -76.4026 -96.5987 59.0552 -77.0286 -96.7218 59.4699 
-77.7881 -96.784 59.8339 -78.4863 -96.8397 60.1724 -79.0204 -97.0177 60.4034 
-74.4228 -96.6912 58.3559 -74.0626 -96.6822 57.952 -74.901 -96.7577 58.7843 
-75.4737 -96.7786 59.284 -76.0232 -96.7497 59.8239 -76.6276 -96.8234 60.2465 
-77.3736 -96.9618 60.5164 -78.073 -97.0662 60.7566 -78.5903 -97.2224 60.9559 
-79.0066 -97.4519 61.0371 -74.258 -97.0289 58.8407 -73.9031 -97.0039 58.4224 
-74.6969 -97.0493 59.2839 -75.2079 -97.0281 59.7882 -75.7015 -96.9892 60.3276 
-76.2429 -97.0781 60.7488 -76.9627 -97.2802 61.0028 -77.696 -97.3824 61.2669 
-78.2264 -97.3984 61.5775 -78.6081 -97.5197 61.74 -78.9793 -97.755 61.6891 
-76.9543 -93.8619 54.4527 -76.2709 -93.8631 54.6695 -76.3826 -93.6184 54.022 
-75.6544 -93.6282 54.2641 -75.6894 -93.6866 53.2453 -75.693 -93.8853 54.99 
-75.187 -93.8807 53.4767 -75.1682 -93.8201 52.4619 -75.2199 -93.8499 54.5402 
-75.2794 -94.096 55.4127 -74.9386 -94.1774 52.7016 -74.7168 -93.7576 51.8519 
-74.9562 -94.2497 53.7564 -74.864 -94.1793 54.9009 -74.9206 -94.5073 55.7571 
-74.4228 -94.1551 52.1464 -74.0473 -93.6871 51.2811 -74.5867 -94.5158 53.0358 
-74.3968 -94.4273 54.2358 -74.3369 -94.4931 55.2858 -74.6275 -95.0228 55.925 
-73.6342 -94.1227 51.751 -73.4987 -93.8814 50.8503 -73.8315 -94.486 52.5125 
-73.7994 -94.6101 53.5595 -73.6991 -94.6462 54.7634 -73.9635 -95.0152 55.5538 
-74.4044 -95.5586 56.1252 -73.2408 -94.4083 51.5394 -73.4239 -94.3792 50.6452 
-73.1772 -94.5586 52.1748 -73.3078 -94.7639 52.9203 -73.4047 -94.9765 54.0507 
-73.5221 -95.3025 55.0743 -73.8337 -95.7093 55.8041 -74.139 -96.0463 56.5597 
-73.335 -94.9383 51.4073 -73.5554 -95.0481 50.5135 -73.0161 -94.9203 52.0097 
-73.0372 -95.0727 52.5255 -73.3425 -95.354 53.376 -73.4813 -95.6703 54.4208 
-73.4994 -95.986 55.3483 -73.646 -96.253 56.2359 -73.8619 -96.4676 57.1344 
-73.469 -95.5028 51.2198 -73.5716 -95.6992 50.3992 -73.0878 -95.4178 51.8503 
-72.8285 -95.5469 52.3706 -73.0036 -95.8086 53.0609 -73.2641 -96.0117 53.9439 
-73.2647 -96.1613 54.8697 -73.2363 -96.3643 55.8392 -73.3981 -96.5965 56.8155 
-73.6552 -96.8066 57.6851 -73.4643 -96.1081 50.7985 -73.2074 -95.9462 51.4486 
-73.1759 -96.5516 51.059 -72.7497 -96.5499 51.6621 -72.8098 -97.2112 51.3336 
-72.7099 -96.0338 52.0888 -72.4235 -97.2117 52.117 -72.6081 -97.9039 51.8801 
-72.2137 -96.7452 52.5301 -72.4344 -96.3085 52.8679 -72.5259 -97.696 52.7945 
-72.6445 -98.4648 52.616 -72.1383 -97.187 53.1143 -71.9909 -96.8853 53.5079 
-72.5731 -96.4553 53.7371 -72.7312 -98.3022 53.5208 -72.7719 -99.0571 53.3304 
-72.5421 -97.5684 53.7121 -72.1587 -97.1718 54.0403 -72.1901 -96.8312 54.3918 
-72.7644 -96.4171 54.6116 -72.7628 -99.1188 54.3513 -72.9859 -99.5849 54.1181 
-72.6828 -98.4376 54.5326 -72.5938 -97.8162 54.7333 -72.4407 -97.3431 55.0744 
-72.5031 -96.8325 55.3992 -72.8441 -96.4779 55.6169 -72.9617 -99.6665 55.2747 
-73.277 -99.9524 55.015 -72.6839 -99.3064 55.5288 -72.6416 -98.7984 55.7371 
-72.7277 -98.251 56.007 -72.7184 -97.62 56.3286 -72.7492 -97.0074 56.5599 
-73.0058 -96.7054 56.6951 -73.3269 -100.074 56.0838 -73.4362 -100.459 55.8124 
-73.1047 -99.7621 56.336 -72.8815 -99.4082 56.5629 -72.8553 -98.978 56.8327 
-72.914 -98.4512 57.1472 -72.9055 -97.7702 57.4152 -72.9951 -97.202 57.5685 
-73.2898 -96.9462 57.6387 -73.4886 -100.743 56.7256 -73.4261 -101.175 56.4213 
-73.5391 -100.312 56.9577 -73.4331 -99.8601 57.1417 -73.2671 -99.3977 57.3799 
-73.1829 -98.9946 57.6847 -73.1278 -98.4944 57.9989 -73.1109 -97.8481 58.2578 
-73.2691 -97.3663 58.3963 -73.5813 -97.1497 58.4289 -73.9747 -97.3306 59.1284 
-73.6377 -97.5147 59.1863 -74.1096 -97.7868 59.8152 -73.4067 -97.9192 59.1297 
-73.8239 -98.1276 59.909 -74.4207 -98.4591 60.3229 -73.3924 -98.6039 58.8929 
-73.7411 -98.8091 59.816 -74.2393 -98.9896 60.3958 -74.8732 -99.1977 60.7212 
-73.477 -99.1914 58.6057 -73.7668 -99.5742 59.6307 -74.1554 -99.7563 60.3449 
-74.6943 -99.7374 60.8025 -75.2045 -99.7764 61.4347 -73.5267 -99.5794 58.3589 
-73.6446 -100.027 59.5905 -73.917 -100.341 60.4472 -74.4452 -100.288 60.8998 
-75.0051 -100.238 61.5849 -75.3852 -100.323 62.4338 -73.5911 -100.126 58.1 
-73.4316 -100.509 59.5231 -73.4766 -100.754 60.709 -74.0598 -100.706 61.1885 
-74.7703 -100.653 61.7359 -75.2775 -100.829 62.5733 -75.6342 -101.016 63.1713 
-73.6326 -100.777 57.8488 -73.3759 -101.229 59.2012 -73.2208 -101.382 60.6243 
-73.7373 -101.253 61.3743 -74.5499 -101.165 61.8695 -75.1162 -101.31 62.6603 
-75.5286 -101.567 63.3037 -75.9343 -101.704 63.6512 -73.5516 -101.275 57.5873 
-73.4681 -101.749 58.7513 -73.4044 -101.906 60.1038 -73.7769 -101.822 61.0936 
-74.4501 -101.811 61.7603 -74.9398 -101.933 62.6197 -75.288 -102.087 63.4244 
-75.7157 -102.208 63.8714 -76.1537 -102.224 64.2756 -73.4553 -101.639 57.2365 
-73.5919 -101.954 58.2774 -73.817 -102.013 59.4849 -74.1664 -102.01 60.5367 
-74.5678 -102.218 61.3682 -74.8487 -102.527 62.3427 -75.0911 -102.677 63.3691 
-75.471 -102.691 64.0288 -75.9283 -102.67 64.471 -76.3217 -102.594 65.0272 
-74.4247 -97.4344 59.5408 -74.6875 -98.0074 60.1097 -74.9689 -97.4987 59.9646 
-75.0741 -98.7251 60.5406 -75.3157 -98.168 60.4568 -75.4944 -97.488 60.4736 
-75.4038 -99.323 61.2185 -75.6419 -98.842 61.0344 -75.8409 -98.2078 60.9974 
-75.9906 -97.545 60.9677 -75.5037 -99.7598 62.2865 -75.7357 -99.2122 62.04 
-76.0965 -98.7695 61.7481 -76.4105 -98.3092 61.4912 -76.6593 -97.771 61.2838 
-75.6481 -100.355 63.142 -75.7286 -99.5724 63.0457 -76.1351 -99.0506 62.7134 
-76.7249 -98.8089 62.1914 -77.1538 -98.4512 61.8077 -77.4319 -97.8862 61.5951 
-76.0191 -101.12 63.6083 -75.9993 -100.291 63.6 -76.2289 -99.5715 63.422 
-76.845 -99.2122 62.9153 -77.4498 -98.8782 62.4189 -77.7877 -98.2959 62.2503 
-78.0047 -97.7302 62.0696 -76.3605 -101.773 64.2283 -76.4162 -101.106 64.1233 
-76.5281 -100.397 63.9147 -76.9783 -99.8715 63.5195 -77.5823 -99.3805 63.035 
-77.9761 -98.6748 62.8106 -78.1842 -97.9817 62.7668 -78.3792 -97.6293 62.422 
-76.5424 -102.223 65.1267 -76.6817 -101.712 64.9531 -76.8027 -101.119 64.5092 
-77.146 -100.561 64.0346 -77.7056 -99.9911 63.6424 -78.1489 -99.2582 63.327 
-78.3671 -98.4752 63.1497 -78.5316 -97.972 62.9227 -78.7379 -97.8146 62.3929 
-76.6572 -102.698 65.8587 -76.8436 -102.276 65.9194 -77.1186 -102.785 66.3322 
-77.3245 -102.341 66.0594 -77.7428 -102.889 66.0312 -76.9953 -101.752 65.3556 
-78.007 -102.404 65.4805 -78.2836 -102.884 65.2093 -77.5579 -101.768 65.1001 
-77.2745 -101.162 64.5396 -78.7076 -102.261 64.8505 -78.7715 -102.598 64.4254 
-78.405 -101.694 64.6725 -78.0349 -101.055 64.3313 -77.8321 -100.525 64.0835 
-79.5687 -101.904 64.4995 -79.6892 -102.263 63.9828 -79.3935 -101.457 64.5747 
-79.0355 -100.875 64.3009 -78.6788 -100.318 64.1406 -78.3948 -99.8195 63.8395 
-80.6584 -101.716 64.2942 -80.8027 -102.196 63.8264 -80.4748 -101.226 64.5314 
-80.0838 -100.708 64.3304 -79.565 -100.198 64.075 -79.0874 -99.7128 63.8079 
-78.6785 -99.107 63.4509 -81.3903 -101.758 63.9549 -81.3914 -102.194 63.4844 
-81.3329 -101.201 64.2562 -81.0278 -100.589 64.1702 -80.4333 -100.08 63.8531 
-79.7783 -99.7306 63.4665 -79.2403 -99.262 63.1244 -78.825 -98.5619 63.0072 
-81.5743 -101.702 63.1695 -81.5629 -102.005 62.6875 -81.629 -101.221 63.5762 
-81.5871 -100.534 63.752 -81.2226 -99.8787 63.6457 -80.5579 -99.5507 63.2528 
-79.8919 -99.36 62.7422 -79.3894 -98.9006 62.4995 -79.0129 -98.2745 62.5129 
-81.7425 -101.487 62.1418 -81.8732 -101.744 61.7979 -81.6892 -101.104 62.537 
-81.7398 -100.493 62.9372 -81.693 -99.7764 63.2052 -81.2959 -99.3065 63.1189 
-80.647 -99.1614 62.6557 -80.0543 -98.9764 62.1971 -79.6078 -98.5617 62.0129 
-79.2523 -98.1067 61.9183 -76.3414 -103.013 65.2042 -76.7701 -103.174 65.7848 
-76.4969 -103.55 64.9907 -76.9499 -103.828 65.1701 -76.6703 -104.258 64.4506 
-77.3372 -103.303 65.9 -77.1175 -104.713 64.3792 -76.7599 -104.907 63.849 
-77.5298 -103.983 64.9852 -77.9346 -103.36 65.3637 -77.3543 -105.358 63.7625 
-76.9453 -104.93 63.3924 -77.7763 -104.78 64.1561 -78.0549 -103.853 64.5045 
-78.3078 -103.186 64.5267 -77.7337 -105.004 63.3269 -77.3106 -104.228 62.9442 
-78.1636 -105.078 63.5647 -78.3474 -104.301 63.9185 -78.4803 -103.435 64.0337 
-78.9129 -102.819 63.8805 -78.0607 -103.944 62.7865 -77.6192 -103.575 62.0972 
-78.4882 -104.403 63.0336 -78.7359 -104.315 63.342 -78.9767 -103.692 63.7725 
-79.4543 -103.096 63.7877 -80.1268 -102.639 63.6496 -78.2589 -103.317 61.787 
-77.8101 -103.472 60.8153 -78.6577 -103.517 62.3492 -78.9926 -103.832 62.5894 
-79.4598 -103.77 63.0637 -80.1232 -103.419 63.5568 -80.722 -103.055 63.5783 
-81.126 -102.645 63.4686 -78.4855 -103.376 60.445 -78.0428 -103.581 59.5843 
-78.8733 -103.305 61.2637 -79.2473 -103.46 61.7004 -79.7847 -103.593 61.9919 
-80.4965 -103.529 62.5272 -81.0648 -103.327 62.9518 -81.3258 -102.966 62.9663 
-81.451 -102.476 62.8336 -78.7597 -103.542 59.2668 -78.332 -103.531 58.7469 
-79.1673 -103.536 59.957 -79.5886 -103.516 60.5767 -80.0968 -103.444 60.934 
[...]
CELL_DATA 2000
SCALARS Distance double
LOOKUP_TABLE default
132.699 132.542 132.821 133.214 132.411 132.678 133.113 133.37 133.769 
132.419 132.593 133.023 133.277 133.721 133.956 134.373 132.638 132.687 
133.062 133.224 133.689 133.933 134.422 134.626 135.1 132.995 132.994 
133.355 133.373 133.811 133.965 134.512 134.725 135.27 135.44 135.959 
133.311 133.361 133.768 133.762 134.187 134.218 134.744 134.885 135.461 
135.633 136.162 136.318 136.808 133.568 133.64 134.069 134.147 134.589 
134.634 135.099 135.178 135.695 135.836 136.349 136.503 136.971 137.12 
137.546 133.88 133.908 134.32 134.408 134.854 134.957 135.39 135.486 
135.931 136.06 136.539 136.687 137.15 137.281 137.698 137.814 138.18 
134.236 134.247 134.643 134.688 135.119 135.198 135.624 135.714 136.141 
136.261 136.733 136.882 137.361 137.482 137.9 137.984 138.335 138.415 
138.719 132.352 131.703 132.062 132.129 131.026 131.373 131.437 131.835 
131.98 130.494 130.785 130.91 131.215 131.413 131.78 132.036 130.059 
130.395 130.631 130.856 131.06 131.313 131.581 131.937 132.27 129.48 
129.955 130.27 130.609 130.774 131 131.152 131.48 131.779 132.213 
132.581 128.937 129.349 129.663 130.109 130.29 130.615 130.715 131.026 
131.268 131.693 132.076 132.531 132.895 128.87 128.993 129.271 129.53 
129.779 130.094 130.34 130.636 130.959 131.28 131.704 132.076 132.496 
132.86 133.204 129.248 129.168 129.402 129.382 129.636 129.774 130.158 
130.409 130.864 131.117 131.557 131.823 132.236 132.538 132.911 133.214 
133.549 129.703 129.604 129.781 129.659 129.84 129.837 130.19 130.373 
130.834 131.073 131.458 131.688 132.006 132.288 132.622 132.943 133.283 
133.587 133.907 129.981 130.29 130.109 130.008 130.598 130.377 130.299 
130.11 130.065 131.095 130.76 130.693 130.453 130.496 130.296 130.425 
131.768 131.354 131.255 130.929 130.956 130.762 130.919 130.782 131.008 
132.556 132.105 132.012 131.576 131.548 131.253 131.349 131.208 131.385 
131.322 131.532 133.41 132.969 132.962 132.455 132.475 132.004 132.116 
131.756 131.922 131.692 131.895 131.798 132.042 134.243 133.856 133.924 
133.471 133.56 133.07 133.235 132.752 132.947 132.477 132.659 132.306 
132.548 132.38 132.678 135.044 134.691 134.794 134.414 134.513 134.112 
134.243 133.856 134.016 133.591 133.704 133.242 133.366 133.025 133.261 
133.082 133.365 135.844 135.51 135.65 135.287 135.4 135.006 135.092 
134.73 134.841 134.514 134.61 134.226 134.273 133.876 133.984 133.711 
133.928 133.762 134 134.391 134.35 134.575 135.025 134.456 134.605 
135.107 135.302 135.835 134.773 134.847 135.417 135.528 136.119 136.231 
136.795 135.098 135.213 135.823 135.953 136.577 136.633 137.17 137.22 
137.734 135.322 135.484 136.088 136.312 136.934 137.07 137.547 137.593 
138.042 138.134 138.638 135.609 135.729 136.332 136.531 137.145 137.324 
137.795 137.882 138.298 138.412 138.937 139.071 139.605 135.953 136.077 
136.69 136.827 137.428 137.549 138.052 138.119 138.578 138.67 139.22 
139.373 139.959 140.057 140.544 136.192 136.382 136.972 137.157 137.712 
137.847 138.336 138.42 138.907 138.998 139.558 139.688 140.271 140.389 
140.891 140.948 141.361 136.333 136.541 137.072 137.313 137.808 138.022 
138.464 138.642 139.106 139.286 139.828 140.009 140.568 140.7 141.186 
141.258 141.668 141.714 142.087 134.545 135.2 134.904 134.992 135.992 
135.634 135.743 135.396 135.479 136.904 136.496 136.609 136.214 136.291 
135.903 135.97 137.824 137.419 137.519 137.116 137.2 136.77 136.821 
136.409 136.49 138.717 138.302 138.353 137.975 138.048 137.675 137.756 
137.333 137.422 136.992 137.114 139.643 139.188 139.163 138.743 138.752 
138.435 138.543 138.237 138.364 137.973 138.078 137.649 137.747 140.57 
140.121 140.079 139.575 139.535 139.133 139.231 138.957 139.113 138.826 
138.91 138.552 138.58 138.204 138.235 141.426 141.039 141.053 140.542 
140.508 140.005 140.071 139.699 139.842 139.53 139.596 139.263 139.241 
138.916 138.896 138.591 138.606 142.189 141.88 141.954 141.515 141.481 
140.985 140.974 140.563 140.639 140.291 140.333 139.949 139.9 139.524 
139.48 139.177 139.186 138.919 138.953 142.63 143.203 142.783 142.416 
143.59 143.267 142.852 142.42 141.924 143.701 143.529 143.089 142.735 
142.217 141.838 141.384 143.574 143.548 143.208 142.921 142.435 142.085 
141.688 141.366 141.033 143.521 143.47 143.337 143.101 142.753 142.373 
142.02 141.685 141.387 141.058 140.705 143.837 143.64 143.623 143.371 
143.161 142.778 142.441 142.062 141.726 141.386 141 140.649 140.226 
144.16 144.03 143.96 143.75 143.538 143.201 142.826 142.448 142.035 
141.692 141.272 140.92 140.483 140.141 139.771 143.998 144.092 143.923 
143.92 143.642 143.47 143.051 142.744 142.279 141.947 141.514 141.181 
140.772 140.426 140.063 139.749 139.468 143.573 143.704 143.495 143.619 
143.335 143.36 142.982 142.846 142.413 142.153 141.733 141.425 141.042 
140.721 140.375 140.063 139.766 139.485 139.237 142.795 143.17 143.127 
143.382 143.509 143.468 143.695 143.653 143.796 143.836 143.806 143.972 
143.902 143.995 143.931 143.896 143.998 144.121 144.316 144.197 144.176 
144.045 143.926 143.842 143.672 143.718 144.118 144.395 144.47 144.416 
144.241 144.028 143.845 143.661 143.573 143.525 143.049 143.592 143.858 
144.262 144.279 144.358 144.203 144.048 143.942 143.739 143.794 143.669 
143.861 142.392 142.834 143.044 143.526 143.639 143.988 144.017 144.153 
144.223 144.167 144.308 144.137 144.293 144.142 144.248 141.979 142.266 
142.483 142.82 143.022 143.36 143.532 143.841 144.035 144.282 144.456 
144.537 144.567 144.493 144.384 144.29 144.108 141.726 141.952 142.199 
142.443 142.697 142.94 143.151 143.406 143.581 143.901 144.031 144.339 
144.307 144.454 144.236 144.24 143.968 143.929 143.688 136.576 137.136 
136.99 137.277 137.708 137.546 137.811 137.689 137.979 138.362 138.163 
138.44 138.251 138.533 138.382 138.653 139.054 138.873 139.209 138.976 
139.285 139.031 139.33 139.103 139.378 139.662 139.552 139.929 139.768 
140.115 139.865 140.177 139.895 140.213 139.922 140.193 140.199 140.121 
140.5 140.417 140.768 140.627 140.945 140.745 141.073 140.822 141.122 
140.783 140.979 140.712 140.643 141.011 140.946 141.299 141.204 141.55 
141.433 141.808 141.649 141.986 141.71 141.907 141.513 141.589 141.138 
141.103 141.44 141.417 141.791 141.739 142.153 142.059 142.507 142.374 
142.766 142.538 142.754 142.399 142.454 142.038 142.044 141.467 141.452 
141.736 141.76 142.128 142.183 142.662 142.684 143.197 143.114 143.515 
143.3 143.498 143.18 143.221 142.85 142.841 142.452 142.449 136.261 
136.04 136.379 136.84 135.835 136.169 136.628 136.961 137.42 135.625 
135.949 136.399 136.745 137.219 137.561 138.049 135.481 135.756 136.198 
136.516 137.012 137.368 137.886 138.224 138.719 135.432 135.668 136.109 
136.363 136.854 137.184 137.732 138.076 138.576 138.88 139.326 135.394 
135.641 136.092 136.323 136.781 137.058 137.583 137.927 138.445 138.749 
139.183 139.456 139.869 135.355 135.597 136.064 136.312 136.764 137.002 
137.474 137.778 138.294 138.616 139.079 139.341 139.748 140.003 140.402 
135.363 135.568 136.03 136.284 136.756 136.987 137.434 137.683 138.166 
138.472 138.964 139.248 139.676 139.913 140.296 140.529 140.874 135.411 
135.586 136.023 136.262 136.737 136.977 137.422 137.647 138.089 138.359 
138.835 139.133 139.58 139.839 140.215 140.435 140.761 140.967 141.247 
135.566 136.032 135.917 136.199 136.612 136.453 136.756 136.619 136.918 
137.321 137.108 137.411 137.218 137.505 137.342 137.606 138.103 137.878 
138.177 137.923 138.18 137.954 138.205 138.019 138.277 138.812 138.645 
138.938 138.695 138.919 138.658 138.883 138.656 138.92 138.727 139.015 
139.345 139.27 139.542 139.376 139.571 139.356 139.558 139.345 139.592 
139.394 139.67 139.484 139.751 139.713 139.716 140.001 139.902 140.108 
139.943 140.157 139.985 140.234 140.053 140.3 140.116 140.348 140.169 
140.375 140.005 140.043 140.386 140.341 140.615 140.481 140.749 140.591 
140.88 140.694 140.938 140.725 140.92 140.727 140.908 140.735 140.901 
140.34 140.36 140.748 140.736 141.066 140.99 141.303 141.197 141.525 
141.367 141.626 141.383 141.55 141.301 141.453 141.254 141.41 141.231 
141.371 140.716 141.452 141.091 141.103 142.079 141.774 141.731 141.421 
141.396 142.502 142.278 142.202 141.96 141.936 141.682 141.666 142.887 
142.645 142.562 142.343 142.345 142.18 142.248 141.988 141.953 143.395 
143.085 142.982 142.702 142.678 142.54 142.641 142.515 142.529 142.228 
142.059 143.824 143.579 143.408 143.123 142.994 142.83 142.854 142.803 
142.83 142.683 142.531 142.208 141.942 143.878 143.823 143.621 143.451 
143.27 143.099 143.041 142.96 142.981 142.902 142.836 142.612 142.404 
142.057 141.817 143.684 143.741 143.669 143.604 143.564 143.4 143.399 
143.211 143.238 143.089 143.089 142.914 142.798 142.511 142.299 141.953 
141.745 143.583 143.633 143.776 143.755 143.942 143.815 143.962 143.71 
143.747 143.464 143.427 143.201 143.1 142.872 142.681 142.395 142.168 
141.865 141.67 140.603 140.729 140.899 141.372 140.83 141.015 141.464 
141.651 142.036 140.821 141.046 141.416 141.65 142.016 142.215 142.482 
140.679 140.977 141.33 141.543 141.857 142.095 142.415 142.602 142.865 
140.368 140.779 141.235 141.487 141.821 141.977 142.297 142.496 142.869 
143.051 143.384 139.971 140.414 140.934 141.344 141.765 141.99 142.284 
142.434 142.784 143.02 143.441 143.623 143.879 139.701 140.044 140.498 
140.945 141.373 141.784 142.075 142.35 142.595 142.879 143.229 143.555 
143.832 143.974 143.974 139.542 139.82 140.179 140.515 140.856 141.268 
141.553 141.95 142.167 142.538 142.777 143.185 143.403 143.725 143.735 
143.842 143.689 139.293 139.61 139.916 140.208 140.467 140.78 141.024 
141.386 141.62 142.004 142.217 142.619 142.78 143.157 143.186 143.442 
143.348 143.488 143.433 140.141 139.539 139.954 140.246 139.002 139.367 
139.61 140.075 140.373 138.392 138.788 138.928 139.386 139.626 140.148 
140.38 137.59 138.08 138.167 138.62 138.743 139.291 139.484 140.05 
140.193 136.641 137.195 137.324 137.806 137.89 138.375 138.507 139.067 
139.204 139.763 139.837 135.692 136.222 136.357 136.904 137.017 137.521 
137.625 138.126 138.249 138.767 138.875 139.386 139.473 134.839 135.293 
135.371 135.905 136.006 136.57 136.661 137.213 137.309 137.845 137.967 
138.479 138.625 139.107 139.263 134.063 134.457 134.496 134.956 135.035 
135.551 135.634 136.18 136.265 136.843 136.971 137.559 137.734 138.287 
138.476 138.969 139.13 133.348 133.689 133.705 134.118 134.195 134.652 
134.747 135.214 135.307 135.812 135.957 136.538 136.748 137.355 137.568 
138.135 138.299 138.801 138.895 132.969 132.52 132.91 133.305 132.176 
132.503 132.911 133.322 133.799 132.019 132.249 132.634 132.969 133.453 
133.872 134.363 132.036 132.202 132.571 132.773 133.21 133.556 134.064 
134.452 134.93 132.116 132.281 132.685 132.81 133.207 133.406 133.904 
134.216 134.752 135.077 135.599 132.183 132.351 132.776 132.945 133.357 
133.495 133.957 134.168 134.729 135.001 135.577 135.85 136.417 132.287 
132.405 132.793 132.996 133.432 133.624 134.058 134.254 134.762 135.026 
135.594 135.874 136.43 136.701 137.243 132.461 132.526 132.879 133.028 
133.465 133.666 134.096 134.297 134.734 135.003 135.512 135.838 136.359 
136.671 137.169 137.471 137.959 132.664 132.719 133.069 133.165 133.591 
133.742 134.178 134.331 134.734 134.936 135.392 135.699 136.204 136.537 
137.014 137.334 137.789 138.113 138.547 132.885 133.406 133.2 133.328 
133.965 133.759 133.929 133.704 133.872 134.556 134.336 134.534 134.334 
134.527 134.289 134.444 135.265 134.975 135.175 134.953 135.17 134.943 
135.099 134.837 134.973 136.128 135.775 135.973 135.663 135.888 135.617 
135.816 135.524 135.693 135.404 135.62 136.994 136.674 136.878 136.53 
136.733 136.401 136.618 136.304 136.53 136.21 136.452 136.151 136.428 
137.727 137.488 137.699 137.409 137.592 137.263 137.451 137.138 137.368 
137.075 137.319 137.017 137.256 136.968 137.221 138.337 138.152 138.362 
138.149 138.343 138.076 138.257 137.961 138.162 137.883 138.103 137.833 
138.04 137.766 137.983 137.725 137.974 138.859 138.711 138.913 138.75 
138.957 138.763 138.965 138.726 138.914 138.646 138.824 138.559 138.737 
138.488 138.689 138.458 138.699 138.473 138.722 139.187 139.169 139.408 
139.819 139.126 139.365 139.793 140.008 140.364 139.143 139.331 139.74 
139.963 140.354 140.54 140.887 139.238 139.38 139.753 139.926 140.317 
140.523 140.912 141.091 141.462 139.343 139.489 139.846 139.968 140.316 
140.493 140.887 141.1 141.49 141.674 142.044 139.374 139.563 139.93 
140.066 140.398 140.526 140.89 141.074 141.452 141.655 141.992 142.198 
142.531 139.33 139.545 139.916 140.111 140.473 140.623 140.995 141.133 
141.501 141.636 141.942 142.095 142.363 142.592 142.87 139.264 139.474 
139.831 140.058 140.435 140.655 141.05 141.239 141.628 141.752 142.08 
142.136 142.4 142.474 142.722 142.888 143.11 139.186 139.389 139.72 
139.952 140.311 140.567 140.951 141.214 141.612 141.836 142.217 142.336 
142.669 142.677 142.965 142.936 143.181 143.19 143.372 129.476 128.981 
129.11 128.9 128.603 128.633 128.484 128.62 128.668 128.66 128.449 
128.398 128.402 128.607 128.737 129.113 129.185 128.778 128.754 128.586 
128.877 128.894 129.3 129.39 129.79 129.838 129.44 129.405 129.126 
129.337 129.255 129.552 129.58 129.842 129.962 130.28 130.44 130.121 
130.146 129.828 129.932 129.719 129.855 129.769 129.915 129.96 130.214 
130.414 130.837 131.085 130.79 130.902 130.577 130.657 130.329 130.389 
130.128 130.245 130.118 130.381 130.432 130.86 131.065 131.557 131.756 
131.484 131.601 131.313 131.389 131.058 131.118 130.777 130.907 130.638 
130.897 130.768 131.145 131.185 131.618 131.784 132.194 132.345 132.107 
132.168 131.932 131.987 131.731 131.809 131.527 131.666 131.387 131.592 
131.372 131.633 131.534 131.846 131.889 132.235 132.373 132.716 129.663 
129.146 129.544 129.874 128.937 129.135 129.565 129.906 130.367 129.323 
129.215 129.635 129.786 130.34 130.58 131.074 129.969 129.78 130.115 
130.078 130.589 130.701 131.206 131.339 131.748 130.547 130.41 130.742 
130.637 131.068 131.058 131.51 131.547 131.941 132.01 132.403 131.179 
131.022 131.426 131.283 131.714 131.604 132.032 131.948 132.338 132.294 
132.697 132.737 133.178 131.864 131.713 132.104 131.973 132.387 132.27 
132.688 132.56 132.944 132.806 133.18 133.115 133.525 133.548 133.938 
132.442 132.339 132.649 132.565 132.886 132.838 133.197 133.162 133.524 
133.433 133.751 133.636 133.952 133.906 134.233 134.242 134.526 132.935 
132.84 133.109 133.021 133.277 133.224 133.519 133.538 133.888 133.908 
134.224 134.158 134.407 134.316 134.559 134.521 134.774 134.77 135.013 
129.982 130.193 130.181 130.361 130.632 130.49 130.684 130.567 130.717 
131.258 131.029 131.213 131.01 131.192 131.016 131.233 131.891 131.665 
131.846 131.622 131.813 131.585 131.797 131.621 131.897 132.541 132.29 
132.487 132.268 132.467 132.235 132.415 132.204 132.437 132.306 132.628 
133.291 132.988 133.167 132.918 133.111 132.879 133.046 132.814 133.004 
132.838 133.131 133.051 133.42 134.006 133.729 133.852 133.593 133.745 
133.513 133.682 133.447 133.641 133.431 133.71 133.576 133.934 133.858 
134.235 134.573 134.356 134.449 134.222 134.353 134.135 134.317 134.096 
134.318 134.099 134.382 134.204 134.551 134.415 134.778 134.674 135.035 
135.07 134.874 134.991 134.783 134.941 134.738 134.949 134.745 134.982 
134.775 135.038 134.864 135.176 135.041 135.376 135.248 135.579 135.47 
135.814 139.987 139.658 139.66 139.399 139.378 139.36 139.071 139.108 
138.884 138.991 139.026 138.671 138.734 138.438 138.552 138.274 138.425 
138.529 138.096 138.203 137.794 137.966 137.6 137.795 137.423 137.721 
137.877 137.434 137.549 137.092 137.229 136.802 137.001 136.606 136.832 
136.445 136.969 137.144 136.756 136.891 136.493 136.579 136.17 136.256 
135.87 136.021 135.678 135.876 135.541 136.28 136.424 136.083 136.241 
135.926 136.043 135.698 135.738 135.35 135.395 135.043 135.175 134.876 
135.045 134.741 135.726 135.813 135.499 135.624 135.359 135.504 135.231 
135.308 134.945 134.947 134.552 134.603 134.279 134.42 134.14 134.291 
133.996 135.303 135.347 135.061 135.125 134.876 134.985 134.759 134.861 
134.575 134.582 134.212 134.18 133.837 133.884 133.618 133.732 133.479 
133.59 133.316 
POINT_DATA 1002
SCALARS Distance double
LOOKUP_TABLE default
133.073 132.597 132.427 132.965 132.234 133.606 132.835 132.164 133.542 
134.162 132.782 132.312 133.456 134.168 134.789 132.969 132.633 133.435 
134.176 134.923 135.587 133.381 132.971 133.715 134.285 135.077 135.811 
136.479 133.732 133.232 134.193 134.654 135.294 136.011 136.667 137.28 
133.959 133.514 134.519 135.057 135.588 136.205 136.834 137.415 137.943 
134.253 133.875 134.749 135.297 135.817 136.391 137.024 137.595 138.084 
138.515 134.614 134.221 135.062 135.548 136.029 136.577 137.232 137.83 
138.275 138.647 138.998 132.031 131.727 131.353 131.04 130.687 131.544 
130.631 130.168 131.063 131.634 130.388 129.621 130.876 131.244 131.867 
129.857 128.963 130.565 130.883 131.331 132.14 129.229 128.622 129.907 
130.401 130.866 131.608 132.482 129.13 128.86 129.456 129.977 130.645 
131.368 132.139 132.868 129.516 129.37 129.562 129.891 130.608 131.341 
131.963 132.607 133.261 129.929 129.811 129.901 130.058 130.623 131.273 
131.761 132.296 132.964 133.626 130.204 130.196 130.47 130.468 130.859 
130.236 130.954 131.473 130.659 130.596 131.635 132.197 131.177 131.033 
131.13 132.484 132.987 131.918 131.551 131.463 131.565 133.437 133.808 
132.966 132.543 132.254 132.051 132.07 134.323 134.599 134.013 133.703 
133.46 133.129 132.798 132.777 135.152 135.383 134.907 134.622 134.406 
134.185 133.799 133.502 133.507 135.996 136.155 135.802 135.491 135.164 
134.953 134.694 134.327 134.125 134.153 134.8 134.774 135.5 134.916 
135.631 136.374 135.3 136.037 136.688 137.323 135.648 136.523 137.174 
137.65 138.231 135.851 136.768 137.514 137.956 138.521 139.163 136.174 
136.976 137.694 138.179 138.761 139.53 140.122 136.566 137.334 137.979 
138.486 139.071 139.828 140.52 140.99 136.779 137.573 138.233 138.798 
139.438 140.165 140.82 141.334 141.761 136.849 137.589 138.263 138.898 
139.624 140.424 141.116 141.622 142.048 142.454 135.3 136.102 135.829 
137.014 136.711 136.333 137.919 137.624 137.265 136.865 138.759 138.384 
138.136 137.868 137.533 139.644 139.087 138.788 138.706 138.519 138.181 
140.599 139.994 139.527 139.38 139.255 138.958 138.601 141.527 141.034 
140.496 140.19 139.957 139.578 139.189 138.897 142.352 141.984 141.426 
141.002 140.728 140.314 139.807 139.446 139.215 143.086 142.912 143.61 
143.28 143.88 142.364 143.428 143.795 142.562 141.725 143.422 143.506 
142.776 141.969 141.372 143.485 143.575 143.107 142.377 141.717 141.075 
143.864 144.076 143.524 142.854 142.094 141.369 140.558 144.153 144.253 
143.864 143.227 142.397 141.614 140.833 140.059 143.873 143.87 143.744 
143.319 142.609 141.832 141.098 140.387 139.744 143.371 143.479 143.243 
143.019 142.611 142.02 141.347 140.681 140.058 139.498 142.845 143.452 
143.216 143.737 143.575 143.898 144.109 143.825 144.074 144.016 144.43 
143.74 144.41 144.048 143.718 144.185 143.231 144.573 144.267 143.77 
143.498 143.361 142.557 144.03 144.235 144.108 143.951 143.936 142.585 
142.037 143.188 143.701 144.118 144.447 144.529 144.416 142.179 141.724 
142.688 143.191 143.707 144.285 144.64 144.536 144.202 141.957 141.499 
142.465 142.943 143.323 143.716 144.095 144.189 143.984 143.718 136.726 
137.395 137.289 137.955 137.883 138.086 138.653 138.553 138.716 138.8 
139.415 139.198 139.56 139.579 139.611 140.044 139.745 140.329 140.456 
140.497 140.531 140.577 140.278 140.88 141.097 141.285 141.44 141.396 
141.077 140.783 141.382 141.637 141.918 142.224 142.296 142.029 141.452 
141.181 141.795 142.199 142.623 142.98 143.094 142.873 142.462 135.904 
136.507 135.71 136.29 135.507 137.089 136.051 135.317 136.856 137.713 
135.901 135.228 136.642 137.537 138.408 135.878 135.19 136.548 137.374 
138.285 139.037 135.855 135.139 136.544 137.252 138.123 138.928 139.587 
135.798 135.128 136.538 137.21 137.96 138.799 139.511 140.146 135.778 
135.183 136.515 137.214 137.881 138.659 139.436 140.083 140.659 135.799 
135.253 136.493 137.204 137.849 138.54 139.306 139.999 140.565 141.062 