# vtk DataFile Version 4.0
vtk output
ASCII
DATASET POLYDATA
POINTS 1002 float
-78.6255 -105.719 58.1663 -78.9172 -105.695 58.9269 -78.3868 -105.688 59.0635 
-78.0736 -105.766 58.2482 -77.8522 -105.695 59.1796 -78.2713 -105.784 57.313 
-77.3634 -105.788 58.2932 -77.1277 -105.698 59.2312 -77.6202 -105.815 57.3167 
-77.7944 -105.744 56.4787 -76.5132 -105.767 58.2637 -76.3274 -105.697 59.1787 
-76.7791 -105.82 57.242 -77.0649 -105.729 56.359 -77.2482 -105.526 55.7139 
-75.8002 -105.729 58.1296 -75.6623 -105.656 59.0262 -75.9616 -105.806 57.1341 
-76.2349 -105.737 56.2091 -76.4944 -105.504 55.551 -76.6735 -105.187 54.9951 
-75.0811 -105.728 57.8713 -74.9178 -105.66 58.8015 -75.2294 -105.795 56.974 
-75.4536 -105.721 56.1349 -75.7028 -105.446 55.4837 -75.8764 -105.101 54.926 
-76.0509 -104.77 54.335 -74.1233 -105.826 57.5751 -74.0122 -105.77 58.5453 
-74.2921 -105.846 56.7145 -74.5799 -105.691 56.036 -74.9137 -105.332 55.4578 
-75.1413 -104.959 54.8612 -75.3121 -104.716 54.1887 -75.5299 -104.459 53.6704 
-73.3158 -105.817 57.3691 -73.3193 -105.723 58.2665 -73.3881 -105.855 56.506 
-73.6324 -105.677 55.8546 -74.0374 -105.289 55.3167 -74.4218 -104.932 54.6602 
-74.724 -104.807 53.8521 -75.0087 -104.72 53.1996 -75.2577 -104.409 52.9362 
-72.862 -105.516 57.2167 -72.9069 -105.41 57.9548 -72.8692 -105.597 56.4491 
-72.9722 -105.509 55.7512 -73.2314 -105.247 55.1223 -73.6168 -105.009 54.4069 
-74.04 -105.002 53.5059 -74.4818 -105.081 52.6916 -74.8644 -104.884 52.3129 
-75.1062 -104.391 52.2869 -72.4127 -105.169 57.0402 -72.4591 -105.111 57.6682 
-72.4531 -105.213 56.4107 -72.5334 -105.167 55.7507 -72.645 -105.046 55.0305 
-72.8767 -104.951 54.2659 -73.2501 -105.003 53.4124 -73.7242 -105.17 52.5331 
-74.2346 -105.137 51.9639 -74.647 -104.718 51.8387 -74.9025 -104.14 51.8827 
-78.8477 -105.709 59.743 -78.3364 -105.693 59.9151 -78.8352 -105.832 60.58 
-78.378 -105.924 60.6716 -78.9094 -106.161 61.2591 -77.8206 -105.71 60.0182 
-78.4292 -106.393 61.1994 -78.9072 -106.498 61.8152 -77.8054 -106.037 60.6746 
-77.0369 -105.767 60.0335 -78.2775 -106.659 61.7919 -78.6933 -106.534 62.6384 
-77.6383 -106.498 61.1516 -76.8517 -106.108 60.6653 -76.162 -105.776 59.9812 
-77.9624 -106.536 62.7543 -78.4272 -106.446 63.6013 -77.2721 -106.605 61.8124 
-76.5271 -106.446 61.1678 -75.9101 -106.015 60.6478 -75.4461 -105.685 59.8726 
-77.6657 -106.413 63.5959 -78.1665 -106.416 64.1005 -76.8986 -106.46 62.7384 
-76.1603 -106.553 61.7898 -75.6286 -106.306 61.102 -75.1794 -105.885 60.5212 
-74.6442 -105.71 59.6695 -77.2837 -106.311 63.8905 -77.7163 -106.177 64.1854 
-76.5498 -106.376 63.4554 -75.7803 -106.58 62.6277 -75.2521 -106.587 61.6394 
-74.8216 -106.249 60.9152 -74.3155 -105.944 60.2726 -73.783 -105.809 59.3548 
-76.7633 -105.975 63.9327 -77.1211 -105.652 64.2637 -76.1432 -106.192 63.7353 
-75.3765 -106.495 63.3375 -74.7649 -106.718 62.4639 -74.3073 -106.566 61.5034 
-73.8734 -106.23 60.7487 -73.5113 -105.926 59.9428 -73.2149 -105.638 58.9469 
-76.3408 -105.5 63.9673 -76.6556 -105.103 64.359 -75.816 -105.812 63.7452 
-75.0829 -106.154 63.6018 -74.4041 -106.513 63.1229 -73.891 -106.589 62.2941 
-73.4694 -106.339 61.4306 -73.203 -105.982 60.5395 -73.0663 -105.598 59.5355 
-72.8397 -105.273 58.5323 -76.2542 -104.922 64.0608 -75.8449 -105.293 63.6776 
-75.9917 -104.752 63.5748 -75.3612 -104.99 63.2996 -75.5281 -104.404 63.136 
-75.1312 -105.576 63.5149 -74.6397 -104.428 63.0666 -74.7489 -103.871 62.9181 
-74.4784 -105.133 63.1904 -74.3496 -105.923 63.3206 -73.91 -103.813 62.8476 
-74.1435 -103.441 62.5277 -73.8364 -104.476 62.8868 -73.838 -105.42 62.8651 
-73.7832 -106.216 62.7906 -73.6103 -103.492 62.1103 -73.9368 -103.196 61.6913 
-73.3813 -103.92 62.3484 -73.4344 -104.753 62.3105 -73.446 -105.634 62.2718 
-73.3365 -106.159 62.0364 -73.4259 -103.304 61.1024 -73.6212 -102.865 60.9158 
-73.0959 -103.64 61.4181 -72.9408 -104.174 61.5783 -73.0157 -104.933 61.5722 
-73.0144 -105.52 61.4799 -73.0038 -105.836 61.0954 -72.9125 -102.891 60.4675 
-73.0242 -102.361 60.4803 -72.7228 -103.361 60.5787 -72.4684 -103.776 60.7554 
-72.379 -104.339 60.7704 -72.4955 -104.914 60.6538 -72.6673 -105.262 60.3967 
-72.8566 -105.455 59.9617 -72.3686 -102.328 60.0453 -72.5564 -101.893 60.0417 
-72.2989 -102.879 60.0037 -72.2042 -103.387 59.9988 -72.0206 -103.883 59.9466 
-71.924 -104.451 59.8078 -72.0574 -104.89 59.6114 -72.3398 -105.069 59.2774 
-72.624 -105.146 58.8664 -72.1232 -101.865 59.4809 -72.3838 -101.573 59.4377 
-72.0201 -102.346 59.4176 -72.0126 -102.904 59.2863 -71.9053 -103.404 59.1398 
-71.6561 -103.938 59.0254 -71.4685 -104.524 58.9561 -71.5183 -104.918 58.7667 
-71.7833 -105.022 58.371 -72.1365 -105.025 57.9573 -71.7251 -105.038 57.0716 
-71.2093 -105.076 57.4356 -70.9341 -105.033 56.5274 -70.8691 -105.012 57.9482 
-70.4685 -105.002 56.9515 -70.5845 -104.693 56.0211 -70.8393 -104.592 58.3159 
-70.3502 -104.611 57.4959 -70.3623 -104.402 56.4255 -70.6466 -103.949 55.5875 
-71.048 -103.895 58.3676 -70.4272 -103.854 57.8388 -70.2696 -103.833 56.9285 
-70.3913 -103.616 55.8856 -70.5084 -103.294 55.1772 -71.3321 -103.287 58.3508 
-70.4838 -103.131 57.9182 -70.0486 -103.159 57.3535 -70.0172 -103.224 56.2954 
-70.0045 -103.081 55.3276 -70.179 -102.91 54.6705 -71.5699 -102.833 58.4616 
-70.645 -102.693 57.941 -69.8957 -102.629 57.6014 -69.7147 -102.693 56.7485 
-69.5961 -102.647 55.5966 -69.6838 -102.508 54.7706 -70.1546 -102.472 54.1255 
-71.7238 -102.315 58.6393 -71.0091 -102.3 58.0023 -70.1797 -102.258 57.6458 
-69.8698 -102.186 57.0273 -69.6892 -102.017 55.9403 -69.5 -101.811 54.9809 
-69.8252 -101.76 54.3256 -70.3408 -101.859 53.6377 -71.8693 -101.78 58.7827 
-71.378 -101.765 58.1203 -70.6736 -101.792 57.6423 -70.3093 -101.761 57.0968 
-70.1766 -101.553 56.2126 -69.8235 -101.244 55.2781 -69.7359 -101.072 54.5872 
-70.1283 -101.095 53.9422 -70.4211 -101.196 53.1767 -72.1009 -101.429 58.827 
-71.6598 -101.28 58.2526 -71.0199 -101.202 57.7592 -70.5793 -101.212 57.1997 
-70.4835 -101.148 56.4458 -70.2579 -100.915 55.6217 -69.959 -100.683 54.9114 
-70.0615 -100.591 54.2612 -70.3553 -100.581 53.5243 -70.4414 -100.602 52.7567 
-71.7671 -105.009 56.4427 -71.1621 -104.815 55.874 -71.9444 -104.896 55.8352 
-70.9538 -104.316 55.3867 -71.4881 -104.563 55.2333 -72.1069 -104.776 55.1083 
-70.9245 -103.617 55.0083 -71.3297 -104.079 54.7335 -71.7866 -104.443 54.4476 
-72.2879 -104.722 54.2793 -70.6969 -103.117 54.5431 -71.2361 -103.481 54.3069 
-71.7629 -103.946 53.9867 -72.1751 -104.338 53.7043 -72.6109 -104.727 53.4929 
-70.523 -102.825 53.8915 -70.9746 -103.026 53.6913 -71.662 -103.311 53.5388 
-72.2739 -103.703 53.3737 -72.5977 -104.225 53.0696 -73.0296 -104.83 52.6867 
-70.5372 -102.437 53.2381 -70.7238 -102.749 52.937 -71.2675 -102.89 52.8541 
-72.0852 -103.152 52.8787 -72.603 -103.61 52.7358 -72.9177 -104.251 52.347 
-73.5047 -104.877 51.9835 -70.4863 -101.818 52.7028 -70.5591 -102.362 52.3273 
-70.9286 -102.634 52.1827 -71.6794 -102.858 52.2024 -72.3675 -103.247 52.162 
-72.7738 -103.697 51.9819 -73.2741 -104.162 51.7726 -74.0039 -104.569 51.6845 
-70.398 -101.092 52.2925 -70.4925 -101.724 51.9523 -70.8958 -102.213 51.7933 
-71.553 -102.513 51.7185 -72.1658 -102.891 51.5796 -72.6024 -103.311 51.4308 
-73.0756 -103.559 51.4314 -73.7369 -103.756 51.5414 -74.418 -104.002 51.6671 
-70.5118 -100.302 52.1464 -70.5773 -100.812 51.7968 -70.9377 -100.083 51.7738 
-71.3674 -100.603 51.5846 -71.7341 -99.954 51.552 -71.0445 -101.461 51.6457 
-72.2901 -100.418 51.2893 -72.3719 -99.7547 51.1404 -72.0842 -101.187 51.4342 
-71.7504 -101.93 51.5197 -72.6612 -100.098 50.5447 -72.7225 -99.4521 50.5106 
-72.6786 -100.887 50.7967 -72.5312 -101.601 51.0066 -72.2573 -102.295 51.2101 
-72.924 -99.6716 49.7604 -73.2307 -99.2324 50.0719 -72.7571 -100.512 49.866 
-72.6836 -101.386 50.0834 -72.614 -102.089 50.3801 -72.5577 -102.787 50.8519 
-73.6086 -99.3578 49.4943 -73.9314 -99.1641 50.0208 -73.2703 -100.063 49.4343 
-72.9819 -101.219 49.4645 -72.8786 -102.098 49.5479 -72.9438 -102.643 50.0623 
-73.0132 -103.116 50.8236 -74.4268 -99.2583 49.557 -74.615 -99.1316 50.1457 
-74.2314 -99.7173 49.4702 -73.9515 -100.875 49.5204 -73.6784 -102.056 49.327 
-73.6112 -102.617 49.5111 -73.6617 -102.843 50.3257 -73.6882 -103.176 51.136 
-75.1711 -99.2608 49.6418 -75.2819 -99.0569 50.279 -75.1136 -99.6143 49.4218 
-75.0153 -100.521 49.5586 -74.7821 -101.695 49.4808 -74.5483 -102.453 49.3994 
-74.4372 -102.713 49.9306 -74.3801 -102.889 50.8137 -74.3658 -103.318 51.4367 
-75.8303 -99.2511 49.8376 -75.8881 -98.974 50.4522 -75.8009 -99.6304 49.4237 
-75.7769 -100.361 49.3975 -75.6616 -101.313 49.4706 -75.4415 -102.085 49.4911 
-75.2271 -102.557 49.7788 -75.0527 -102.856 50.4376 -74.9206 -103.14 51.1545 
-74.8786 -103.575 51.6431 -70.5833 -100.132 52.8779 -70.8125 -99.868 52.323 
-70.8448 -99.7773 53.1209 -71.2096 -99.5808 52.6603 -71.1501 -99.3729 53.4258 
-71.3053 -99.6927 51.9589 -71.5874 -99.154 52.9763 -71.5311 -98.941 53.6561 
-71.6852 -99.3206 52.238 -71.9586 -99.4839 51.6276 -71.9399 -98.5245 53.1125 
-71.9433 -98.5358 53.8747 -71.9891 -98.6099 52.391 -72.18 -98.8322 51.7456 
-72.4709 -99.1563 51.196 -72.1764 -97.8573 53.3213 -72.1806 -97.9622 54.2684 
-72.1952 -97.7461 52.4411 -72.3545 -97.883 51.7693 -72.66 -98.3573 51.3477 
-72.9739 -98.9133 50.8343 -72.3355 -97.2727 53.833 -72.369 -97.3455 54.7491 
-72.3699 -97.1784 52.8013 -72.5184 -97.1636 51.889 -72.8316 -97.469 51.3747 
-73.2618 -98.1589 51.1553 -73.6367 -98.851 50.7067 -72.6861 -96.9415 54.397 
-72.7557 -97.0769 55.1446 -72.755 -96.9134 53.468 -72.9272 -96.9317 52.4467 
-73.1399 -96.9751 51.554 -73.5039 -97.3135 51.1275 -73.9604 -98.0736 51.0526 
-74.3176 -98.8067 50.7452 -73.1877 -96.8704 54.8315 -73.2202 -97.0551 55.5167 
-73.3269 -96.7909 54.0102 -73.5937 -96.8135 53.1441 -73.7784 -96.7974 52.212 
-73.9582 -96.8059 51.3176 -74.3076 -97.1929 50.9509 -74.6891 -97.9893 51.0074 
-74.9861 -98.7059 50.8147 -73.6387 -96.8203 55.2677 -73.6131 -96.9537 55.9453 
-73.8266 -96.7363 54.4085 -74.1551 -96.6729 53.591 -74.417 -96.5843 52.9131 
[...]
CELL_DATA 2000
SCALARS Distance double
LOOKUP_TABLE default
143.241 143.005 143.013 142.78 142.687 142.74 142.476 142.507 142.215 
142.253 142.339 142.037 142.12 141.794 141.857 141.507 141.799 141.873 
141.557 141.635 141.302 141.378 141.026 141.091 140.708 141.326 141.407 
141.086 141.162 140.831 140.894 140.54 140.596 140.205 140.252 139.832 
140.815 140.899 140.552 140.658 140.315 140.411 140.039 140.105 139.692 
139.737 139.317 139.365 138.981 140.307 140.378 140.014 140.104 139.75 
139.855 139.486 139.573 139.174 139.228 138.854 138.898 138.601 138.635 
138.389 139.771 139.863 139.507 139.587 139.233 139.307 138.943 139.017 
138.656 138.726 138.419 138.493 138.289 138.352 138.202 138.203 138.023 
139.198 139.308 138.97 139.077 138.735 138.811 138.445 138.503 138.151 
138.23 137.949 138.069 137.888 138.035 137.909 138.012 137.844 137.853 
137.619 143.494 143.849 143.523 143.262 144.349 143.945 143.654 143.297 
142.986 144.894 144.499 144.188 143.748 143.38 142.976 142.589 145.261 
144.976 144.655 144.263 143.837 143.394 142.941 142.54 142.13 145.468 
145.234 144.881 144.587 144.136 143.778 143.284 142.888 142.425 142.067 
141.656 145.595 145.393 145.001 144.722 144.27 143.978 143.515 143.178 
142.712 142.355 141.92 141.579 141.165 145.439 145.401 145.012 144.814 
144.383 144.119 143.705 143.394 142.961 142.617 142.182 141.843 141.417 
141.081 140.66 144.926 145.06 144.721 144.711 144.342 144.213 143.843 
143.599 143.179 142.853 142.399 142.073 141.629 141.313 140.861 140.544 
140.1 144.321 144.488 144.222 144.321 144.023 144.054 143.742 143.66 
143.276 143.039 142.574 142.262 141.79 141.484 141.017 140.71 140.235 
139.941 139.503 143.962 143.465 143.765 143.858 142.863 143.213 143.254 
143.599 143.665 142.038 142.473 142.475 142.906 142.961 143.376 143.422 
141.164 141.57 141.554 142.025 142.099 142.605 142.692 143.096 143.031 
140.44 140.755 140.713 141.106 141.175 141.697 141.824 142.313 142.289 
142.604 142.384 139.748 140.073 139.996 140.32 140.294 140.755 140.828 
141.375 141.371 141.796 141.6 141.874 141.593 138.927 139.318 139.234 
139.587 139.487 139.869 139.824 140.322 140.294 140.797 140.65 141.029 
140.769 141.06 140.79 138.084 138.452 138.384 138.776 138.708 139.067 
138.984 139.359 139.297 139.735 139.651 140.063 139.88 140.207 139.955 
140.248 140 137.392 137.662 137.59 137.945 137.916 138.288 138.226 
138.564 138.467 138.825 138.75 139.138 139.038 139.368 139.18 139.44 
139.211 139.477 139.274 138.823 138.753 138.568 138.168 138.729 138.532 
138.107 137.929 137.533 138.574 138.454 138.001 137.853 137.404 137.263 
136.842 138.258 138.182 137.681 137.621 137.141 137.072 136.608 136.519 
136.096 137.975 137.842 137.284 137.2 136.704 136.705 136.264 136.235 
135.782 135.732 135.354 137.761 137.607 137.045 136.856 136.341 136.273 
135.87 135.858 135.41 135.363 134.919 134.96 134.67 137.483 137.39 
136.885 136.695 136.198 136.033 135.646 135.55 135.131 135.002 134.502 
134.465 134.109 134.273 134.072 137.188 137.109 136.67 136.54 136.088 
135.937 135.555 135.43 135.053 134.85 134.366 134.145 133.732 133.732 
133.521 133.697 133.505 137.024 136.892 136.493 136.349 135.914 135.783 
135.379 135.302 134.941 134.819 134.395 134.144 133.711 133.519 133.259 
133.26 133.102 133.172 132.946 138.781 138.112 138.469 138.549 137.458 
137.797 137.842 138.237 138.316 136.781 137.127 137.143 137.52 137.571 
137.973 138.025 136.07 136.432 136.468 136.834 136.885 137.245 137.298 
137.676 137.743 135.377 135.729 135.785 136.163 136.256 136.612 136.689 
137.015 137.106 137.456 137.583 134.778 135.089 135.126 135.47 135.554 
135.962 136.077 136.448 136.545 136.878 137.022 137.377 137.562 134.222 
134.53 134.542 134.827 134.837 135.221 135.341 135.79 135.927 136.312 
136.432 136.809 136.996 137.394 137.595 133.586 133.927 133.92 134.227 
134.208 134.534 134.634 135.057 135.252 135.673 135.817 136.191 136.327 
136.755 136.945 137.387 137.532 132.92 133.226 133.212 133.565 133.619 
133.955 134.09 134.443 134.649 135.034 135.214 135.576 135.688 136.065 
136.196 136.648 136.799 137.242 137.32 132.576 132.302 132.528 132.857 
132.415 132.456 132.805 132.98 133.389 132.59 132.678 133.035 133.12 
133.513 133.607 133.972 132.403 132.665 132.959 133.241 133.545 133.732 
134.013 134.159 134.483 132.137 132.309 132.499 132.888 133.157 133.532 
133.77 134.064 134.348 134.621 134.966 132.24 132.149 132.284 132.462 
132.823 133.129 133.511 133.777 134.138 134.415 134.801 135.079 135.439 
132.614 132.403 132.527 132.499 132.943 133.089 133.65 133.766 134.238 
134.343 134.768 134.948 135.349 135.562 135.942 133.021 132.821 132.944 
132.861 133.284 133.394 133.99 134.1 134.59 134.612 134.988 135.039 
135.406 135.536 135.921 136.114 136.519 133.404 133.239 133.372 133.276 
133.631 133.722 134.251 134.408 134.869 134.94 135.274 135.3 135.62 
135.676 136.022 136.137 136.502 136.692 137.05 132.444 132.325 132.269 
132.175 132.352 132.27 132.178 132.139 132.225 132.341 132.31 132.236 
132.186 132.161 132.239 132.341 132.262 132.23 132.063 132.099 131.965 
132.077 132.043 132.229 132.217 132.126 132.066 131.726 131.754 131.494 
131.669 131.592 131.855 131.902 132.078 132.093 131.985 131.882 131.527 
131.431 131.134 131.168 131.077 131.327 131.482 131.795 132.014 132.136 
132.272 132.053 131.845 131.636 131.421 131.26 131.069 130.996 130.97 
131.09 131.351 131.667 132.016 132.318 132.451 132.631 132.377 132.098 
131.978 131.724 131.69 131.442 131.435 131.181 131.194 131.128 131.321 
131.598 131.968 132.34 132.656 132.814 132.996 132.746 132.494 132.375 
132.139 132.101 131.907 131.912 131.689 131.66 131.419 131.455 131.422 
131.692 131.961 132.366 132.689 133 133.149 133.338 136.88 136.485 
136.561 136.306 136.018 136.109 135.786 135.906 135.658 135.53 135.621 
135.265 135.339 135.026 135.225 135.076 134.986 135.139 134.829 134.865 
134.517 134.605 134.418 134.691 134.633 134.265 134.52 134.305 134.462 
134.169 134.188 133.91 134.052 133.936 134.244 134.129 133.584 133.765 
133.592 133.878 133.728 133.862 133.565 133.593 133.332 133.532 133.401 
133.688 133.522 133.242 133.226 133.013 133.199 133.145 133.388 133.231 
133.274 132.961 132.991 132.804 133.013 132.95 133.171 133.1 133.101 
133.014 132.735 132.75 132.635 132.843 132.809 132.954 132.768 132.732 
132.53 132.572 132.539 132.708 132.719 132.891 132.891 132.936 132.879 
132.572 132.516 132.276 132.38 132.297 132.518 132.451 132.556 132.427 
132.437 132.382 132.442 132.443 132.551 132.515 132.683 132.668 137.153 
137.433 137.127 136.779 137.671 137.356 136.969 136.698 136.314 137.959 
137.567 137.105 136.823 136.428 136.191 135.804 138.333 137.89 137.387 
136.995 136.583 136.298 135.927 135.67 135.244 138.636 138.261 137.797 
137.365 136.953 136.563 136.194 135.843 135.405 135.063 134.55 138.871 
138.537 138.127 137.762 137.357 136.98 136.589 136.194 135.741 135.304 
134.788 134.375 133.91 139.198 138.822 138.414 138.053 137.63 137.299 
136.883 136.549 136.091 135.679 135.167 134.713 134.263 133.873 133.563 
139.561 139.193 138.777 138.374 137.927 137.544 137.117 136.786 136.38 
136.02 135.56 135.12 134.656 134.254 133.909 133.609 133.376 139.809 
139.519 139.136 138.763 138.334 137.902 137.47 137.068 136.707 136.35 
135.997 135.568 135.137 134.666 134.26 133.907 133.62 133.389 133.172 
139.79 139.609 139.528 139.164 139.461 139.359 138.968 138.855 138.4 
139.249 139.172 138.737 138.637 138.146 138.021 137.525 138.937 138.888 
138.419 138.346 137.833 137.733 137.24 137.156 136.74 138.586 138.543 
138.087 138.012 137.506 137.4 136.923 136.862 136.466 136.428 136.042 
138.229 138.185 137.764 137.709 137.239 137.11 136.613 136.532 136.119 
136.114 135.694 135.66 135.185 137.927 137.841 137.427 137.394 136.962 
136.861 136.345 136.226 135.763 135.737 135.312 135.274 134.777 134.721 
134.268 137.725 137.584 137.145 137.074 136.657 136.578 136.089 135.957 
135.485 135.41 135.026 134.954 134.523 134.384 133.943 133.884 133.589 
137.546 137.4 136.935 136.821 136.397 136.304 135.855 135.72 135.262 
135.159 134.797 134.739 134.388 134.244 133.833 133.671 133.343 133.321 
133.134 137.261 136.573 136.827 136.647 135.892 136.125 135.968 136.235 
136.099 135.348 135.496 135.323 135.562 135.424 135.694 135.542 134.893 
134.995 134.752 134.933 134.723 134.976 134.791 135.087 134.942 134.396 
134.501 134.189 134.338 134.014 134.219 133.942 134.261 134.126 134.51 
134.468 133.939 133.981 133.649 133.751 133.396 133.51 133.148 133.376 
133.193 133.625 133.627 134.086 134.064 133.686 133.609 133.259 133.257 
132.922 132.958 132.619 132.696 132.473 132.743 132.737 133.189 133.224 
133.64 133.552 133.599 133.468 133.1 132.968 132.582 132.538 132.221 
132.266 132.078 132.209 132.183 132.441 132.501 132.832 132.841 133.146 
133.098 133.511 133.428 133.106 132.909 132.48 132.285 131.902 131.882 
131.704 131.856 131.847 132.044 132.079 132.279 132.306 132.537 132.569 
132.826 132.884 137.525 137.681 137.363 136.845 137.867 137.537 137.05 
136.675 136.17 138.155 137.785 137.345 136.939 136.452 136.058 135.632 
138.506 138.114 137.67 137.269 136.795 136.383 135.938 135.581 135.195 
138.862 138.463 137.997 137.595 137.108 136.709 136.251 135.892 135.482 
135.142 134.735 139.234 138.823 138.37 137.943 137.468 137.035 136.582 
136.198 135.807 135.451 135.064 134.687 134.306 139.615 139.212 138.773 
138.342 137.893 137.445 137.009 136.578 136.198 135.811 135.463 135.072 
134.722 134.333 134.043 139.966 139.593 139.157 138.741 138.291 137.873 
137.448 137.031 136.635 136.232 135.864 135.481 135.129 134.76 134.449 
134.121 133.895 140.254 139.928 139.513 139.115 138.667 138.259 137.844 
137.451 137.058 136.659 136.265 135.874 135.494 135.131 134.783 134.469 
134.181 133.935 133.722 137.986 138.695 138.274 138.131 139.429 138.988 
138.836 138.401 138.281 140.258 139.785 139.681 139.173 139.071 138.614 
138.569 141.129 140.671 140.627 140.109 140.047 139.517 139.478 138.988 
138.964 141.972 141.547 141.493 141.032 140.969 140.501 140.461 139.968 
139.919 139.405 139.345 142.812 142.422 142.412 141.909 141.832 141.353 
141.315 140.892 140.857 140.377 140.291 139.773 139.701 143.568 143.302 
143.462 142.963 142.948 142.32 142.253 141.728 141.705 141.258 141.186 
140.699 140.591 140.111 140.048 144.07 143.991 144.254 143.991 144.037 
143.494 143.335 142.723 142.574 142.081 141.97 141.522 141.384 140.94 
140.832 140.421 140.361 144.3 144.336 144.548 144.544 144.583 144.338 
144.105 143.646 143.333 142.873 142.653 142.243 142.068 141.658 141.512 
141.13 141.041 140.683 140.614 144.415 144.56 144.526 144.622 144.78 
144.665 144.68 144.671 144.635 145.059 144.918 144.817 144.694 144.52 
144.469 144.184 145.041 145.069 144.951 144.84 144.564 144.367 144.004 
143.872 143.481 144.768 144.865 144.788 144.846 144.635 144.465 144.082 
143.819 143.43 143.225 142.857 144.661 144.64 144.558 144.609 144.48 
144.449 144.157 143.961 143.575 143.308 142.923 142.677 142.299 144.585 
144.599 144.481 144.461 144.299 144.267 144.028 143.949 143.628 143.451 
143.062 142.8 142.386 142.131 141.754 144.203 144.376 144.23 144.322 
144.12 144.116 143.863 143.806 143.524 143.425 143.081 142.894 142.477 
142.231 141.83 141.608 141.276 143.653 143.858 143.702 143.902 143.721 
143.848 143.626 143.645 143.371 143.307 142.964 142.836 142.421 142.249 
141.828 141.655 141.3 141.143 140.838 143.327 142.837 143.156 143.326 
142.284 142.634 142.78 143.155 143.35 141.591 142.009 142.151 142.573 
142.767 143.17 143.32 140.765 141.231 141.331 141.832 141.987 142.501 
142.648 143.064 143.096 139.876 140.353 140.416 140.928 141.027 141.586 
141.691 142.24 142.268 142.709 142.641 139.026 139.454 139.543 140.028 
140.162 140.649 140.758 141.24 141.275 141.754 141.714 142.16 142.068 
138.375 138.667 138.741 139.189 139.385 139.873 140.062 140.46 140.533 
140.866 140.856 141.226 141.195 141.592 141.524 137.94 138.108 138.088 
138.429 138.578 139.086 139.306 139.794 139.91 140.251 140.238 140.51 
140.48 140.794 140.781 141.114 141.062 137.534 137.685 137.597 137.832 
137.89 138.294 138.46 138.964 139.088 139.544 139.547 139.9 139.844 
140.151 140.11 140.425 140.391 140.696 140.628 140.262 140.019 139.958 
139.534 139.751 139.694 139.269 139.171 138.702 139.461 139.409 138.985 
138.903 138.436 138.334 137.884 139.104 139.073 138.619 138.583 138.122 
138.058 137.593 137.521 137.089 138.661 138.674 138.218 138.194 137.744 
137.709 137.249 137.198 136.734 136.696 136.272 138.141 138.22 137.849 
137.835 137.42 137.354 136.911 136.842 136.383 136.326 135.879 135.862 
135.476 137.641 137.727 137.442 137.486 137.118 137.067 136.62 136.531 
136.081 136.002 135.558 135.491 135.076 135.077 134.746 137.327 137.314 
137.028 137.07 136.727 136.731 136.306 136.247 135.816 135.74 135.321 
135.218 134.777 134.702 134.327 134.37 134.118 137.208 137.089 136.742 
136.694 136.339 136.33 135.957 135.929 135.566 135.512 135.149 135.034 
134.597 134.443 134.007 133.967 133.687 133.795 133.645 144.455 145.111 
144.807 144.848 145.652 145.457 145.484 145.179 145.187 145.802 145.821 
145.825 145.683 145.659 145.469 145.514 145.654 145.787 145.797 145.816 
145.808 145.793 145.899 145.809 145.887 145.444 145.604 145.672 145.732 
145.802 145.859 146.039 146.094 146.235 146.118 146.029 145.101 145.366 
145.494 145.64 145.764 145.867 146.045 146.161 146.263 146.283 146.132 
145.994 145.662 144.589 144.946 145.107 145.389 145.485 145.715 145.793 
146.02 146.016 146.142 145.904 145.873 145.476 145.402 145.038 144.108 
144.444 144.648 144.953 145.03 145.279 145.256 145.54 145.497 145.745 
145.562 145.594 145.24 145.153 144.827 144.786 144.563 143.749 144.038 
144.286 144.56 144.686 144.85 144.812 144.968 144.944 145.189 145.188 
145.313 145.156 145.052 144.817 144.68 144.538 144.463 144.374 144.142 
144.486 144.132 143.783 144.861 144.491 144.139 143.785 143.458 145.245 
144.873 144.539 144.175 143.874 143.512 143.211 145.593 145.246 144.871 
144.535 144.206 143.909 143.601 143.266 142.925 145.706 145.5 145.071 
144.788 144.393 144.147 143.772 143.523 143.1 142.837 142.412 145.429 
145.438 145.046 144.883 144.483 144.276 143.878 143.62 143.128 142.857 
142.362 142.181 141.785 144.93 145.062 144.774 144.749 144.39 144.287 
143.929 143.726 143.264 142.924 142.396 142.107 141.703 141.564 141.272 
144.488 144.603 144.39 144.43 144.1 144.087 143.739 143.684 143.302 
143.085 142.609 142.261 141.818 141.551 141.238 141.099 140.831 144.246 
144.259 144.056 144.071 143.772 143.762 143.416 143.407 143.068 143.018 
142.646 142.454 142.033 141.745 141.356 141.118 140.8 140.652 140.358 
143.867 143.522 143.596 143.391 143.138 143.204 142.982 143.095 142.819 
142.811 142.791 142.466 142.591 142.315 142.429 142.038 142.537 142.477 
142.056 142.065 141.739 141.864 141.542 141.602 141.196 142.135 142.172 
141.764 141.708 141.336 141.358 141.062 141.121 140.8 140.815 140.467 
141.601 141.72 141.378 141.386 141.017 141.023 140.72 140.738 140.429 
140.432 140.091 140.112 139.759 141.107 141.215 140.898 140.942 140.574 
140.641 140.342 140.416 140.104 140.1 139.717 139.705 139.311 139.344 
138.943 140.652 140.757 140.434 140.467 140.071 140.134 139.812 139.952 
139.658 139.735 139.34 139.326 138.893 138.89 138.49 138.51 138.126 
140.17 140.285 139.967 140.011 139.61 139.637 139.273 139.385 139.081 
139.213 138.839 138.889 138.452 138.471 138.083 138.106 137.771 137.772 
137.46 137.994 138.199 138.322 138.735 138.407 138.538 139.011 139.086 
139.487 138.697 138.789 139.285 139.375 139.818 139.854 140.268 139.048 
139.114 139.596 139.674 140.121 140.173 140.603 140.661 141.108 139.39 
139.457 139.914 139.986 140.416 140.473 140.91 140.987 141.463 141.526 
141.973 139.672 139.764 140.201 140.283 140.695 140.755 141.179 141.277 
141.756 141.865 142.31 142.354 142.744 139.848 139.982 140.415 140.542 
140.964 141.034 141.426 141.511 141.941 142.088 142.496 142.609 142.931 
143.022 143.357 139.966 140.103 140.526 140.706 141.161 141.292 141.693 
141.757 142.122 142.22 142.583 142.712 143.017 143.124 143.392 143.535 
143.825 140.125 140.22 140.601 140.771 141.209 141.419 141.856 141.998 
142.367 142.427 142.756 142.815 143.135 143.209 143.501 143.577 143.834 
143.939 144.148 
POINT_DATA 1002
SCALARS Distance double
LOOKUP_TABLE default
143.021 143.471 143.233 142.788 142.996 142.533 142.438 142.629 142.203 
141.912 141.954 142.178 141.723 141.458 141.153 141.49 141.731 141.231 
140.957 140.664 140.308 141.003 141.248 140.768 140.497 140.168 139.786 
139.403 140.451 140.749 140.207 139.971 139.651 139.259 138.907 138.633 
139.939 140.238 139.656 139.389 139.098 138.776 138.53 138.367 138.167 
139.415 139.661 139.169 138.876 138.565 138.308 138.178 138.163 138.077 
137.826 138.849 139.087 138.648 138.389 138.07 137.819 137.724 137.766 
137.799 137.657 137.375 143.778 143.56 144.209 144.066 144.773 143.336 
144.658 145.251 143.842 142.963 145.02 145.512 144.29 143.38 142.482 
145.172 145.72 144.453 143.668 142.805 141.99 145.288 145.777 144.545 
143.817 143.063 142.27 141.502 145.14 145.401 144.611 143.997 143.302 
142.519 141.758 140.995 144.639 144.74 144.385 144.033 143.5 142.738 
141.942 141.188 140.402 144.087 144.138 143.941 143.746 143.449 142.881 
142.106 141.323 140.542 139.762 143.663 143.548 143.186 142.907 142.496 
143.31 142.017 141.602 142.503 143.073 141.091 140.8 141.555 142.239 
142.765 140.375 140.145 140.674 141.297 141.936 142.166 139.701 139.4 
139.913 140.296 140.892 141.286 141.35 138.854 138.529 139.15 139.401 
139.778 140.214 140.451 140.507 137.974 137.75 138.326 138.65 138.901 
139.214 139.527 139.664 139.695 137.262 137.164 137.535 137.888 138.141 
138.362 138.674 138.915 138.963 138.975 138.408 138.322 137.777 138.312 
137.689 137.135 138.135 137.558 136.966 136.428 137.74 137.17 136.695 
136.166 135.696 137.424 136.69 136.252 135.846 135.336 135.031 137.256 
136.454 135.88 135.479 134.908 134.512 134.469 137.026 136.375 135.766 
135.293 134.622 133.977 133.841 133.908 136.767 136.219 135.671 135.231 
134.638 133.838 133.382 133.343 133.267 136.648 136.063 135.462 135.004 
134.591 133.959 133.338 133.058 132.908 132.664 138.152 137.464 137.913 
136.783 137.184 137.616 136.087 136.536 136.936 137.342 135.405 135.866 
136.366 136.768 137.209 134.834 135.142 135.657 136.211 136.659 137.199 
134.29 134.505 134.864 135.503 136.068 136.571 137.22 133.584 133.889 
134.233 134.805 135.448 135.936 136.476 137.141 132.829 133.224 133.746 
134.292 134.85 135.344 135.785 136.329 136.929 132.236 132.519 132.152 
132.699 132.396 133.198 132.942 132.433 133.465 133.879 132.62 132.158 
133.317 133.854 134.308 132.149 132.107 132.728 133.428 134.032 134.706 
132.192 132.423 132.511 133.234 133.873 134.51 135.188 132.595 132.826 
132.796 133.526 134.194 134.648 135.146 135.713 133.045 133.194 133.193 
133.863 134.583 134.995 135.324 135.751 136.299 133.481 133.538 133.592 
134.11 134.781 135.244 135.584 135.954 136.361 136.848 132.434 132.139 
132.403 132.268 132.386 132.128 132.278 132.361 132.163 132.195 132.055 
132.371 131.859 131.875 132.062 131.774 132.236 131.351 131.275 131.629 
132.017 131.637 132.083 131.171 130.881 131.077 131.739 132.287 131.816 
132.261 131.456 131.156 130.954 131.239 132.024 132.646 132.218 132.653 
131.901 131.716 131.437 131.194 131.531 132.351 132.971 132.61 132.974 
132.3 132.105 131.916 131.63 131.544 132.002 132.746 133.285 136.828 
136.207 136.421 135.7 135.934 135.45 135.231 135.427 134.866 134.764 
134.759 134.773 134.499 134.188 134.305 134.028 133.993 134.13 133.879 
133.665 133.838 133.273 133.487 133.477 133.579 133.238 133.096 133.27 
132.918 133.321 132.848 133.111 133.006 132.641 132.677 132.906 132.803 
133.181 132.485 132.573 132.747 132.552 132.4 132.542 132.71 137.466 
137.087 137.747 137.236 138.031 136.587 137.433 138.414 136.648 136.052 
137.824 138.761 136.905 136.197 135.533 138.199 138.949 137.369 136.588 
135.8 134.883 138.464 139.199 137.718 136.985 136.194 135.23 134.25 
138.802 139.593 137.976 137.196 136.468 135.612 134.659 133.882 139.185 
139.905 138.345 137.46 136.695 135.979 135.089 134.222 133.626 139.467 