# vtk DataFile Version 4.0
vtk output
ASCII
DATASET POLYDATA
POINTS 1002 float
-81.5004 -98.0683 58.4906 -81.5577 -98.58 58.7426 -82.0542 -98.3393 58.5699 
-81.9685 -97.7388 58.368 -82.5579 -98.0799 58.3333 -81.4423 -97.6216 58.0892 
-82.4949 -97.5774 57.9989 -83.0718 -97.9175 57.9592 -81.8524 -97.3879 57.7854 
-81.33 -97.4199 57.2036 -83.1094 -97.5733 57.409 -83.6142 -97.826 57.5176 
-82.3708 -97.4728 57.0881 -81.6868 -97.3872 56.5774 -81.1394 -97.3211 56.0059 
-83.6898 -97.5033 56.7769 -84.0698 -97.8138 56.9144 -82.9909 -97.4864 56.3664 
-82.1696 -97.4661 55.8446 -81.5213 -97.2343 55.3811 -80.8807 -96.9101 55.0885 
-84.0091 -97.4992 56.0148 -84.3186 -97.9854 56.0564 -83.5161 -97.2038 55.8153 
-82.7108 -97.1349 55.4645 -81.9935 -96.9572 55.0365 -81.3701 -96.5266 54.7223 
-80.6024 -96.0714 54.584 -84.1565 -97.6635 55.2401 -84.5525 -98.1164 55.3418 
-83.8019 -97.116 55.1621 -83.1652 -96.7078 55.0842 -82.3932 -96.4734 54.8663 
-81.8567 -96.0989 54.5372 -81.2184 -95.5697 54.333 -80.4007 -95.2061 54.2249 
-84.4704 -97.6256 54.7863 -84.9654 -97.9645 54.9789 -84.0153 -97.2197 54.555 
-83.4817 -96.7482 54.3629 -82.6799 -96.3709 54.2351 -82.0782 -95.9535 54.1122 
-81.7314 -95.3393 54.0293 -81.1039 -94.8254 53.9984 -80.3071 -94.6758 53.8704 
-84.9391 -97.3833 54.4381 -85.3753 -97.7705 54.6148 -84.3453 -97.1053 54.1566 
-83.7417 -96.8422 53.7658 -82.9557 -96.577 53.4117 -82.1666 -96.1949 53.2949 
-81.8506 -95.5078 53.4218 -81.6311 -94.7649 53.5947 -81.0125 -94.4157 53.6016 
-80.24 -94.4568 53.391 -85.2559 -97.3271 53.8933 -85.5403 -97.8103 54.0627 
-84.694 -96.9598 53.6958 -84.0259 -96.7087 53.3993 -83.2918 -96.5385 52.9912 
-82.4395 -96.3279 52.6784 -81.874 -95.815 52.6866 -81.7488 -95.0133 52.9128 
-81.5023 -94.4065 53.0438 -80.868 -94.2808 52.9362 -80.1316 -94.4061 52.6911 
-81.9853 -98.9205 58.9712 -82.5446 -98.7158 58.731 -82.5329 -99.1041 59.4364 
-83.1378 -98.9279 59.1419 -83.1613 -99.1872 59.9709 -83.0221 -98.514 58.3585 
-83.7229 -99.1021 59.5537 -83.6671 -99.5685 60.1069 -83.5012 -98.886 58.5153 
-83.4315 -98.4008 57.8863 -84.04 -99.5754 59.591 -83.8406 -100.343 59.8349 
-83.9325 -99.2409 58.6802 -83.7908 -98.9338 57.8025 -83.9166 -98.3258 57.436 
-84.0879 -100.318 59.2872 -83.8695 -101.108 59.5513 -84.2302 -99.7307 58.6738 
-84.2348 -99.3752 57.8195 -84.3012 -98.8829 57.2672 -84.3968 -98.3396 56.7937 
-84.1879 -101 58.8412 -84.0482 -101.673 59.3306 -84.4744 -100.352 58.385 
-84.7214 -99.8006 57.8648 -84.8033 -99.3058 57.2692 -84.8161 -98.8508 56.6499 
-84.7235 -98.4832 55.9625 -84.4123 -101.519 58.4112 -84.3008 -102.151 59.0525 
-84.7083 -100.927 57.9262 -85.1419 -100.298 57.7152 -85.3362 -99.6955 57.368 
-85.2592 -99.2905 56.6854 -85.1351 -98.9694 55.9439 -85.0413 -98.5172 55.3862 
-84.6395 -101.963 58.1145 -84.4736 -102.561 58.7102 -84.9005 -101.405 57.6136 
-85.4095 -100.793 57.473 -85.8308 -100.103 57.3446 -85.8239 -99.6583 56.7807 
-85.5826 -99.4468 56.0099 -85.424 -99.0409 55.4353 -85.4027 -98.3865 55.0363 
-84.8637 -102.362 57.9021 -84.5921 -102.86 58.3388 -85.141 -101.868 57.5053 
-85.6328 -101.312 57.3469 -86.2118 -100.575 57.2479 -86.4559 -99.9514 56.8108 
-86.266 -99.7215 56.0856 -85.9276 -99.5105 55.4586 -85.7034 -98.977 55.0163 
-85.6245 -98.3239 54.5773 -84.9735 -102.835 57.7514 -85.3701 -102.43 57.4586 
-85.459 -102.865 57.2451 -86.0679 -102.59 57.099 -85.9423 -102.921 56.7413 
-85.8657 -102.002 57.2827 -86.689 -102.689 56.5873 -86.3155 -102.899 56.0724 
-86.7209 -102.174 56.9546 -86.4855 -101.329 57.1521 -86.934 -102.555 55.7828 
-86.476 -102.683 55.2088 -87.1545 -102.211 56.308 -87.1103 -101.366 56.6515 
-86.9046 -100.454 56.7867 -86.8906 -102.256 54.7396 -86.3764 -102.333 54.3381 
-87.0641 -102.049 55.3163 -87.0445 -101.353 55.8401 -87.114 -100.405 56.0899 
-86.9077 -99.883 56.1106 -86.7948 -102.003 53.7463 -86.1672 -102.088 53.6271 
-87.0302 -101.81 54.0715 -86.8555 -101.234 54.6185 -86.9081 -100.332 55.1196 
-87.033 -99.7499 55.3429 -86.6062 -99.6471 55.4035 -86.5855 -101.83 53.0504 
-85.9837 -102.006 52.9962 -87.0617 -101.563 53.0629 -87.061 -101.031 53.2585 
-86.9789 -100.204 53.7439 -87.0694 -99.5331 54.2721 -86.7953 -99.3565 54.6209 
-86.1708 -99.2903 54.8451 -86.1638 -101.628 52.5003 -85.7598 -101.909 52.3163 
-86.7081 -101.302 52.5188 -87.0418 -100.814 52.4581 -87.1291 -100.115 52.6001 
-87.1565 -99.4348 53.061 -86.8693 -99.1119 53.6123 -86.2512 -99.0237 54.0334 
-85.8035 -98.7663 54.3354 -85.6734 -101.379 51.8943 -85.4507 -101.713 51.6345 
-86.0996 -101.066 52.0593 -86.5152 -100.664 52.0978 -86.7648 -100.107 52.116 
-86.8943 -99.512 52.3022 -86.7295 -99.0981 52.7191 -86.1791 -98.9132 53.1825 
-85.702 -98.7038 53.5209 -85.5796 -98.2859 53.7885 -85.3683 -97.7081 53.3105 
-85.3333 -98.2099 53.0554 -85.0458 -97.582 52.6033 -85.4418 -98.5955 52.8303 
-85.0395 -97.9803 52.3986 -84.7414 -97.2494 51.9656 -85.8692 -98.8559 52.4775 
-85.1815 -98.3499 52.0992 -84.8171 -97.568 51.6446 -84.5446 -96.8465 51.1445 
-86.217 -99.1593 52.0975 -85.4485 -98.7431 51.6877 -84.945 -98.0791 51.1676 
-84.6589 -97.2611 50.6671 -84.4041 -96.5668 50.151 -86.2195 -99.6079 51.8812 
-85.5624 -99.1095 51.4381 -85.0468 -98.5704 50.8072 -84.725 -97.9049 50.234 
-84.529 -97.0621 49.7064 -84.2209 -96.3959 49.3014 -86.1062 -100.164 51.7248 
-85.619 -99.5685 51.2232 -85.1443 -98.895 50.5961 -84.7795 -98.3387 49.9965 
-84.5444 -97.6562 49.409 -84.3018 -96.8622 48.9039 -83.8154 -96.4136 48.7197 
-85.8898 -100.64 51.5432 -85.7036 -100.166 50.8867 -85.3796 -99.4369 50.2013 
-84.9439 -98.718 49.6487 -84.5866 -98.1267 49.1401 -84.2452 -97.4238 48.6197 
-83.7704 -96.8585 48.3307 -83.1602 -96.6416 48.3365 -85.5124 -100.948 51.3683 
-85.5381 -100.606 50.6849 -85.5013 -100.115 49.9011 -85.1377 -99.4144 49.2463 
-84.677 -98.7584 48.7934 -84.2322 -98.0837 48.4104 -83.6661 -97.4288 48.1202 
-83.0619 -97.0553 48.0078 -82.5488 -96.8538 47.9781 -85.2014 -101.248 51.1646 
-85.1546 -100.871 50.6306 -85.2496 -100.544 49.9514 -85.0866 -100.071 49.228 
-84.6517 -99.5083 48.6769 -84.1888 -98.8781 48.3324 -83.6322 -98.1482 48.083 
-83.0089 -97.5709 47.8751 -82.5295 -97.2327 47.6821 -82.2053 -96.9193 47.4933 
-85.0166 -97.1751 53.1111 -84.6677 -96.9928 52.391 -84.4148 -96.716 52.9626 
-84.3952 -96.6834 51.653 -84.1376 -96.4698 52.2528 -83.7383 -96.3776 52.7566 
-84.1694 -96.3719 50.6872 -83.8878 -96.232 51.3712 -83.5037 -96.06 52.0688 
-82.9531 -96.1559 52.4302 -83.8806 -96.1556 49.7545 -83.4738 -96.0517 50.3633 
-83.159 -95.8647 51.1315 -82.7222 -95.7706 51.7716 -82.1718 -95.8607 52.1769 
-83.4877 -96.132 49.1434 -82.9628 -95.9593 49.6336 -82.6248 -95.7545 50.2317 
-82.4305 -95.5354 50.8969 -82.0826 -95.4034 51.5075 -81.7958 -95.2425 52.1676 
-82.9395 -96.3359 48.7173 -82.5099 -96.0241 49.1101 -82.1811 -95.6571 49.5261 
-82.1007 -95.3104 50.0651 -81.9503 -95.0793 50.6675 -81.7116 -94.8404 51.3611 
-81.6056 -94.5611 52.2243 -82.3764 -96.5276 48.2771 -82.1018 -96.1238 48.5616 
-81.8917 -95.5827 48.7846 -81.854 -95.0172 49.1781 -81.739 -94.7112 49.7955 
-81.459 -94.6231 50.4402 -81.2588 -94.4736 51.1973 -81.1255 -94.3026 52.1216 
-82.0183 -96.5471 47.7293 -81.7872 -96.1178 48.0161 -81.6334 -95.5377 48.1747 
-81.6078 -94.8071 48.3427 -81.4855 -94.3056 48.8429 -81.1407 -94.3373 49.5385 
-80.8152 -94.5359 50.2002 -80.6244 -94.5135 50.9885 -80.4153 -94.4012 51.9135 
-81.9026 -96.6238 46.9991 -81.6275 -96.1864 47.3427 -81.4327 -96.3054 46.6197 
-81.0986 -95.9754 47.2118 -80.6502 -96.1953 46.5805 -81.388 -95.7018 47.7656 
-80.364 -96.0088 47.4046 -79.8413 -96.2494 46.7755 -80.8666 -95.4531 47.8812 
-81.2814 -94.9385 47.965 -79.6351 -95.966 47.5938 -79.3175 -96.344 47.1311 
-80.1049 -95.2461 48.0945 -80.6582 -94.4189 48.0932 -81.1403 -94.0983 48.1501 
-79.0537 -95.9119 47.7297 -78.8848 -96.5515 47.6379 -79.2568 -94.994 47.9898 
-79.7227 -94.027 48.1237 -80.306 -93.6702 48.1848 -80.7753 -93.9403 48.6956 
-78.4891 -96.1088 47.9427 -78.2045 -96.7329 47.9622 -78.5818 -95.165 47.9137 
-78.7887 -94.0901 47.9981 -79.3291 -93.6572 48.2234 -79.9159 -94.0118 48.6971 
-80.3725 -94.432 49.4092 -77.7381 -96.2336 48.1146 -77.3072 -96.6769 47.9942 
-78.0645 -95.6553 48.2061 -78.1919 -94.7766 48.2701 -78.4902 -94.1029 48.488 
-79.0701 -94.1883 48.9315 -79.6261 -94.6024 49.502 -80.1045 -94.7088 50.1712 
-76.8584 -96.1323 48.2526 -76.5167 -96.5784 48.0798 -77.4202 -95.8655 48.6035 
-77.8194 -95.4708 48.8735 -78.0029 -94.8466 49.0727 -78.3221 -94.4317 49.4296 
-78.8356 -94.4636 49.9211 -79.3526 -94.6158 50.4428 -79.8659 -94.5835 51.1012 
-76.1621 -96.1505 48.4927 -76.0492 -96.696 48.3855 -76.6685 -95.8892 48.8944 
-77.3189 -95.7744 49.3184 -77.7214 -95.4877 49.5704 -77.9077 -94.9788 49.8652 
-78.1789 -94.5356 50.3631 -78.6067 -94.3815 50.8895 -79.1014 -94.4373 51.3955 
-79.617 -94.4733 52.0111 -82.1888 -97.1995 47.0753 -81.8888 -96.925 46.5499 
-82.1716 -97.6619 46.7466 -81.7609 -97.503 46.4538 -82.0834 -98.347 46.5112 
-81.2141 -96.6096 46.3162 -81.4968 -98.368 46.5133 -81.8857 -99.0476 46.4071 
-80.8489 -97.2661 46.5216 -80.2041 -96.4346 46.3569 -81.0975 -99.168 46.4409 
-81.5209 -99.4687 46.6745 -80.4168 -98.3212 46.6197 -79.7403 -97.1404 46.5039 
-79.4226 -96.5082 46.5194 -80.5911 -99.5586 46.6136 -81.0617 -99.7363 47.2908 
-79.9515 -99.2457 46.3811 -79.3306 -98.3133 46.413 -79.0436 -97.304 46.5136 
-79.0182 -96.8302 47.0201 -80.2259 -99.7856 47.2755 -80.7677 -100.19 47.8226 
-79.5929 -99.6437 46.6438 -79.0311 -99.1956 46.4108 -78.7337 -98.3149 46.5715 
-78.6539 -97.5987 47.0646 -78.5084 -97.1712 47.6634 -80.1437 -100.167 47.9872 
-80.671 -100.75 48.1704 -79.5222 -99.8771 47.4761 -78.9615 -99.5982 47.0738 
-78.5943 -98.9615 47.0424 -78.3705 -98.256 47.2867 -78.0906 -97.7614 47.6777 
-77.6922 -97.2628 47.9248 -80.0911 -100.609 48.4928 -80.5331 -101.178 48.5323 
-79.5532 -100.23 48.1926 -79.0058 -99.9709 47.8548 -78.5435 -99.5029 47.7106 
-78.1731 -98.8492 47.6829 -77.7962 -98.3217 47.7849 -77.3501 -97.848 47.9547 
-76.8846 -97.2251 48.0084 -79.8633 -101.041 48.8209 -80.2506 -101.502 48.882 
[...]
CELL_DATA 2000
SCALARS Distance double
LOOKUP_TABLE default
139.636 139.654 139.468 139.115 139.685 139.484 139.11 138.928 138.568 
139.761 139.549 139.189 138.951 138.554 138.354 137.957 139.806 139.627 
139.269 139.043 138.622 138.371 137.919 137.705 137.235 139.747 139.606 
139.208 139.049 138.594 138.393 137.895 137.673 137.146 136.923 136.364 
139.67 139.507 139.084 138.926 138.45 138.277 137.759 137.578 137.044 
136.835 136.265 136.017 135.451 139.648 139.45 139.032 138.828 138.366 
138.146 137.627 137.413 136.893 136.705 136.199 135.968 135.451 135.182 
134.732 139.632 139.438 139.008 138.799 138.338 138.109 137.598 137.337 
136.806 136.577 136.104 135.914 135.48 135.249 134.834 134.586 134.249 
139.575 139.403 138.959 138.757 138.283 138.072 137.579 137.334 136.813 
136.547 136.059 135.846 135.438 135.262 134.887 134.691 134.34 134.145 
133.848 139.995 140.608 140.216 140.044 141.259 140.857 140.666 140.244 
140.055 141.892 141.506 141.301 140.862 140.625 140.24 140.081 142.45 
142.101 141.879 141.465 141.199 140.797 140.602 140.271 140.13 142.911 
142.593 142.366 142.002 141.752 141.362 141.16 140.801 140.647 140.306 
140.123 143.31 142.995 142.777 142.467 142.277 141.926 141.751 141.374 
141.211 140.842 140.66 140.281 140.068 143.676 143.356 143.12 142.856 
142.727 142.459 142.34 141.982 141.813 141.418 141.23 140.841 140.642 
140.248 140.048 143.992 143.695 143.443 143.189 143.089 142.892 142.844 
142.56 142.423 142.033 141.845 141.437 141.248 140.843 140.643 140.241 
140.035 144.228 143.996 143.803 143.547 143.487 143.284 143.301 143.058 
142.983 142.632 142.464 142.067 141.881 141.47 141.256 140.834 140.597 
140.2 139.968 144.262 144.344 144.196 143.968 144.549 144.415 144.297 
143.998 143.773 144.652 144.664 144.67 144.437 144.231 143.866 143.597 
144.418 144.639 144.674 144.694 144.477 144.248 143.862 143.577 143.206 
143.866 144.212 144.194 144.436 144.184 144.205 143.748 143.634 143.179 
143.036 142.646 143.262 143.585 143.56 143.822 143.559 143.68 143.222 
143.27 142.831 142.854 142.488 142.423 142.054 142.771 143.025 143.011 
143.222 142.987 143.062 142.634 142.674 142.278 142.386 142.074 142.151 
141.806 141.775 141.388 142.286 142.523 142.443 142.678 142.458 142.556 
142.174 142.177 141.799 141.86 141.567 141.672 141.358 141.414 141.04 
141.045 140.676 141.713 141.941 141.778 142.044 141.839 142.018 141.7 
141.757 141.403 141.442 141.138 141.203 140.898 140.948 140.605 140.641 
140.302 140.333 140.023 139.667 139.915 139.589 139.168 140.19 139.839 
139.395 139.05 138.57 140.493 140.128 139.66 139.277 138.763 138.4 
137.88 140.764 140.424 139.953 139.554 139.023 138.615 138.078 137.705 
137.204 141.011 140.676 140.205 139.822 139.289 138.889 138.368 137.965 
137.465 137.076 136.619 141.268 140.934 140.466 140.073 139.532 139.13 
138.616 138.254 137.769 137.383 136.893 136.518 136.102 141.399 141.147 
140.718 140.372 139.87 139.422 138.896 138.491 138.022 137.662 137.174 
136.791 136.317 136.003 135.651 141.349 141.175 140.787 140.583 140.183 
139.817 139.33 138.857 138.387 137.958 137.518 137.094 136.622 136.229 
135.829 135.565 135.274 141.305 141.104 140.727 140.584 140.266 140.07 
139.68 139.306 138.846 138.401 137.975 137.52 137.081 136.606 136.173 
135.79 135.461 135.21 134.944 139.392 138.87 139.017 138.756 138.263 
138.446 138.162 138.325 138.053 137.589 137.803 137.535 137.711 137.426 
137.605 137.34 136.899 137.109 136.86 137.072 136.798 136.976 136.686 
136.872 136.589 136.28 136.432 136.148 136.366 136.097 136.317 136.024 
136.214 135.913 136.102 135.839 135.793 135.87 135.551 135.677 135.386 
135.588 135.322 135.538 135.26 135.445 135.186 135.391 135.203 135.405 
135.447 135.137 135.163 134.833 134.929 134.655 134.846 134.606 134.804 
134.555 134.751 134.55 134.797 134.657 135.042 135.086 134.776 134.784 
134.402 134.424 134.063 134.197 133.918 134.136 133.892 134.112 133.898 
134.139 133.993 134.264 134.143 134.683 134.717 134.393 134.408 134.011 
133.998 133.56 133.603 133.227 133.408 133.148 133.414 133.237 133.5 
133.376 133.627 133.533 133.778 133.678 134.383 133.77 134.075 134.05 
133.194 133.477 133.459 133.727 133.672 132.762 133 133.019 133.195 
133.075 133.285 133.187 132.463 132.623 132.592 132.751 132.514 132.663 
132.43 132.744 132.742 132.336 132.339 132.105 132.199 131.818 131.975 
131.654 131.96 131.944 132.412 132.638 132.271 132.212 131.852 131.743 
131.287 131.268 130.994 131.222 131.327 131.742 132.085 132.512 132.846 
131.939 132.027 131.769 131.653 131.314 131.058 130.856 130.81 131.004 
131.292 131.733 132.11 132.494 132.803 133.07 131.409 131.567 131.466 
131.581 131.505 131.354 131.254 131.012 131.099 131.136 131.468 131.776 
132.122 132.463 132.707 133.005 133.216 131.118 131.121 131.082 131.27 
131.404 131.525 131.612 131.493 131.516 131.364 131.485 131.553 131.781 
132.042 132.275 132.599 132.818 133.137 133.354 134.497 134.599 134.325 
133.907 134.889 134.514 134.019 133.686 133.265 135.288 134.897 134.39 
133.888 133.308 133.018 132.71 135.571 135.282 134.838 134.338 133.691 
133.163 132.696 132.533 132.425 135.689 135.461 135.064 134.729 134.169 
133.631 133.1 132.694 132.536 132.43 132.466 135.907 135.58 135.194 
134.907 134.489 134.086 133.642 133.196 132.964 132.712 132.71 132.569 
132.498 136.339 135.913 135.553 135.162 134.846 134.461 134.146 133.729 
133.473 133.155 133.024 132.832 132.665 132.471 132.157 136.773 136.387 
136.045 135.637 135.353 134.953 134.699 134.277 134.012 133.624 133.4 
133.118 132.9 132.639 132.314 132.026 131.65 137.059 136.764 136.43 
136.097 135.799 135.463 135.196 134.832 134.536 134.137 133.836 133.487 
133.256 132.951 132.729 132.354 132.077 131.663 131.419 141.219 140.965 
140.901 140.611 140.779 140.681 140.348 140.341 140.139 140.524 140.496 
140.127 140.077 139.781 139.849 139.586 140.025 140.145 139.756 139.766 
139.346 139.41 139.072 139.18 138.814 139.339 139.526 139.137 139.248 
138.78 138.868 138.467 138.607 138.267 138.366 137.973 138.726 138.838 
138.464 138.576 138.16 138.253 137.852 137.977 137.632 137.782 137.413 
137.505 137.067 138.282 138.317 137.955 137.989 137.619 137.678 137.311 
137.392 137.027 137.141 136.763 136.885 136.467 136.557 136.138 137.871 
137.92 137.561 137.562 137.167 137.189 136.82 136.883 136.535 136.598 
136.241 136.292 135.925 135.978 135.626 135.696 135.403 137.413 137.496 
137.151 137.168 136.742 136.741 136.332 136.389 136.074 136.157 135.883 
135.904 135.599 135.57 135.252 135.255 134.978 135.056 134.848 141.587 
142.014 141.679 141.374 142.25 142.051 141.805 141.464 141.152 142.481 
142.236 141.988 141.756 141.414 141.152 140.807 142.993 142.563 142.204 
141.873 141.467 141.239 140.839 140.669 140.267 143.448 143.078 142.603 
142.159 141.643 141.281 140.825 140.611 140.22 140.046 139.618 143.374 
143.266 142.762 142.469 141.888 141.505 140.977 140.658 140.253 140.03 
139.67 139.432 139.041 143.005 142.991 142.556 142.436 141.914 141.659 
141.113 140.813 140.347 140.105 139.731 139.519 139.163 138.922 138.572 
142.769 142.689 142.357 142.239 141.842 141.638 141.157 140.887 140.395 
140.154 139.725 139.543 139.16 138.991 138.626 138.447 138.109 142.688 
142.577 142.298 142.158 141.827 141.629 141.211 140.943 140.47 140.192 
139.738 139.512 139.104 138.933 138.558 138.419 138.073 137.942 137.621 
142.562 142.166 142.314 142.161 141.644 141.833 141.673 141.854 141.66 
141.134 141.282 141.079 141.282 141.082 141.28 141.028 140.617 140.767 
140.516 140.681 140.456 140.654 140.414 140.591 140.3 139.972 140.177 
139.905 140.095 139.827 140.023 139.769 139.961 139.68 139.843 139.56 
139.305 139.494 139.217 139.423 139.121 139.335 139.034 139.271 138.986 
139.202 138.919 139.113 138.885 138.705 138.86 138.583 138.75 138.44 
138.605 138.277 138.492 138.223 138.48 138.249 138.472 138.256 138.474 
138.318 138.119 138.268 137.983 138.143 137.839 137.97 137.646 137.788 
137.547 137.767 137.626 137.852 137.706 137.888 137.735 137.948 137.841 
137.568 137.684 137.382 137.532 137.233 137.38 137.08 137.215 136.985 
137.174 137.066 137.298 137.209 137.392 137.245 137.407 137.269 137.491 
137.402 137.184 136.474 136.871 136.954 135.722 136.135 136.229 136.65 
136.779 135.03 135.423 135.551 135.943 136.086 136.5 136.654 134.324 
134.751 134.889 135.295 135.443 135.84 136.021 136.419 136.616 133.58 
134.012 134.129 134.579 134.704 135.162 135.336 135.797 136.047 136.467 
136.727 133.058 133.363 133.491 133.824 133.933 134.363 134.541 135.056 
135.331 135.861 136.173 136.62 136.87 132.726 132.998 133.168 133.355 
133.463 133.708 133.909 134.313 134.639 135.141 135.497 135.999 136.289 
136.713 136.906 132.221 132.624 132.822 133.094 133.212 133.393 133.577 
133.849 134.194 134.58 134.97 135.385 135.711 136.114 136.364 136.733 
136.935 131.591 132.016 132.259 132.662 132.855 133.133 133.312 133.575 
133.868 134.215 134.582 134.951 135.269 135.614 135.878 136.226 136.479 
136.819 137.065 137.212 137.016 136.918 136.493 136.705 136.645 136.172 
136.118 135.687 136.318 136.254 135.759 135.737 135.299 135.303 134.945 
135.992 135.876 135.404 135.35 134.968 134.939 134.576 134.578 134.237 
135.725 135.593 135.136 135.063 134.706 134.665 134.277 134.217 133.781 
133.799 133.454 135.489 135.341 134.839 134.765 134.329 134.343 133.887 
133.862 133.322 133.301 132.875 133.011 132.832 135.382 135.156 134.609 
134.439 133.92 133.883 133.423 133.412 132.922 132.856 132.423 132.462 
132.258 132.491 132.446 135.411 135.13 134.595 134.3 133.796 133.587 
133.211 133.084 132.786 132.634 132.347 132.201 131.982 132 131.871 
132.083 131.961 135.453 135.186 134.693 134.383 133.942 133.651 133.339 
133.108 132.909 132.713 132.542 132.328 132.123 131.924 131.697 131.627 
131.415 131.537 131.371 137.607 138.161 137.737 137.44 138.762 138.298 
137.99 137.556 137.193 139.4 138.907 138.585 138.132 137.816 137.311 
136.887 140.087 139.563 139.24 138.755 138.471 137.984 137.621 137.028 
136.576 140.882 140.315 139.983 139.432 139.109 138.632 138.279 137.754 
137.291 136.705 136.253 141.676 141.145 140.788 140.194 139.774 139.24 
138.818 138.334 137.849 137.33 136.838 136.347 135.966 142.25 141.837 
141.448 140.93 140.444 139.883 139.396 138.866 138.376 137.843 137.357 
136.87 136.51 136.097 135.845 142.61 142.265 141.855 141.451 140.972 
140.483 140.004 139.479 139.031 138.459 138.008 137.439 137.084 136.642 
136.439 136.054 135.872 142.901 142.561 142.152 141.79 141.363 140.949 
140.525 140.07 139.683 139.171 138.77 138.18 137.796 137.269 137.026 
136.637 136.482 136.102 135.907 142.914 142.651 142.584 142.161 142.321 
142.305 141.903 141.826 141.389 141.878 141.92 141.535 141.534 141.105 
141.036 140.586 141.394 141.416 140.995 141.072 140.671 140.705 140.287 
140.237 139.788 141.005 140.951 140.487 140.51 140.139 140.224 139.878 
139.908 139.494 139.425 138.92 140.672 140.605 140.158 140.094 139.747 
139.769 139.495 139.52 139.159 139.104 138.617 138.501 137.967 140.325 
140.286 139.881 139.82 139.485 139.476 139.22 139.218 138.886 138.803 
138.342 138.211 137.731 137.603 137.188 140.009 139.966 139.598 139.551 
139.223 139.218 138.937 138.949 138.61 138.55 138.104 137.98 137.532 
137.415 137.043 136.945 136.627 139.749 139.698 139.368 139.31 139.001 
138.961 138.652 138.634 138.268 138.233 137.802 137.734 137.308 137.231 
136.859 136.789 136.449 136.385 136.046 139.496 139.008 139.22 139.142 
138.478 138.729 138.676 138.877 138.793 137.844 138.151 138.092 138.365 
138.259 138.486 138.385 137.078 137.435 137.33 137.681 137.53 137.834 
137.662 137.985 137.886 136.169 136.57 136.439 136.842 136.685 137.022 
136.827 137.163 137.036 137.436 137.387 135.234 135.605 135.489 135.923 
135.836 136.195 136.063 136.359 136.26 136.601 136.583 136.968 136.958 
134.511 134.744 134.641 135.016 135.005 135.392 135.348 135.66 135.589 
135.893 135.861 136.209 136.201 136.565 136.544 134.039 134.155 134.031 
134.283 134.276 134.623 134.619 134.957 134.898 135.219 135.142 135.48 
135.41 135.783 135.735 136.132 136.108 133.65 133.736 133.567 133.745 
133.691 133.97 133.966 134.269 134.227 134.518 134.439 134.743 134.651 
134.98 134.9 135.282 135.252 135.68 135.681 135.301 134.857 134.905 
134.564 134.518 134.506 134.2 134.21 133.9 134.275 134.222 133.915 
133.906 133.637 133.621 133.352 134.082 134.009 133.673 133.632 133.318 
133.333 133.076 133.111 132.898 133.914 133.848 133.552 133.45 133.109 
133.019 132.712 132.754 132.57 132.679 132.519 133.671 133.66 133.404 
133.362 133.084 132.934 132.608 132.477 132.257 132.309 132.188 132.289 
132.108 133.381 133.364 133.049 133.1 132.826 132.852 132.57 132.476 
132.218 132.131 131.959 131.964 131.777 131.82 131.608 133.255 133.123 
132.766 132.709 132.381 132.447 132.192 132.289 132.09 132.113 131.941 
131.875 131.662 131.559 131.311 131.318 131.195 133.35 133.125 132.81 
132.583 132.269 132.123 131.869 131.872 131.717 131.838 131.758 131.838 
131.715 131.605 131.382 131.191 131.025 131.023 131.077 144.425 144.285 
144.485 144.629 143.976 144.287 144.486 144.628 144.659 143.545 143.891 
144.065 144.35 144.407 144.575 144.608 143.082 143.402 143.52 143.838 
143.903 144.188 144.251 144.503 144.596 142.56 142.874 142.94 143.266 
143.353 143.673 143.793 144.087 144.209 144.467 144.547 141.953 142.271 
142.278 142.633 142.724 143.118 143.279 143.634 143.771 144.053 144.131 
144.368 144.414 141.316 141.624 141.607 141.943 142.013 142.439 142.593 
143.039 143.149 143.526 143.553 143.877 143.891 144.19 144.217 140.679 
140.986 140.978 141.291 141.337 141.722 141.825 142.27 142.336 142.769 
142.759 143.167 143.141 143.541 143.531 143.906 143.874 140.066 140.359 
140.352 140.665 140.68 141.039 141.07 141.472 141.473 141.893 141.868 
142.301 142.289 142.721 142.711 143.12 143.076 143.454 143.359 144.512 
144.626 144.57 144.545 144.643 144.608 144.551 144.543 144.59 144.705 
144.655 144.625 144.555 144.641 144.683 144.864 144.811 144.814 144.885 
144.746 144.786 144.751 144.948 145.018 145.143 144.769 144.904 145.074 
145.051 145.069 144.943 144.928 144.967 145.009 145.116 145.012 144.621 
144.797 144.984 145.126 145.217 145.183 145.056 144.927 144.717 144.761 
144.586 144.731 144.495 144.46 144.641 144.789 144.954 145.056 145.176 
145.122 145.035 144.747 144.558 144.239 144.224 144.002 144.127 143.903 
144.146 144.422 144.533 144.718 144.722 144.894 144.822 144.93 144.699 
144.603 144.232 144.058 143.754 143.713 143.522 143.587 143.395 143.617 
143.985 144.079 144.35 144.287 144.474 144.304 144.481 144.245 144.356 
144.019 143.992 143.624 143.56 143.291 143.294 143.111 143.148 142.969 
144.429 144.514 144.456 144.438 144.575 144.497 144.454 144.452 144.492 
144.76 144.563 144.382 144.35 144.295 144.439 144.484 144.933 144.703 
144.293 144.168 143.97 144.129 144.139 144.35 144.298 144.853 144.745 
144.228 144.005 143.665 143.755 143.774 143.999 143.962 144.05 143.824 
144.493 144.569 144.225 143.991 143.659 143.555 143.565 143.693 143.692 
143.736 143.473 143.474 143.191 143.963 144.185 144.09 144.054 143.907 
143.746 143.731 143.652 143.606 143.517 143.234 143.146 142.837 142.882 
142.699 143.406 143.657 143.641 143.852 143.861 143.952 143.961 143.9 
143.757 143.541 143.199 142.981 142.669 142.614 142.452 142.491 142.327 
142.939 143.129 143.069 143.331 143.347 143.666 143.708 143.912 143.76 
143.666 143.269 143.018 142.66 142.53 142.364 142.342 142.191 142.136 
141.868 137.821 138.378 138.196 138.406 138.981 138.803 139.063 138.848 
139.067 139.588 139.42 139.725 139.547 139.815 139.55 139.738 140.25 
140.055 140.366 140.204 140.507 140.296 140.51 140.217 140.403 140.884 
140.722 141.012 140.851 141.159 140.976 141.232 140.977 141.19 140.909 
141.16 141.373 141.273 141.534 141.436 141.719 141.603 141.882 141.693 
141.938 141.689 141.944 141.696 141.949 141.843 141.721 141.961 141.875 
142.141 142.084 142.373 142.287 142.558 142.398 142.649 142.444 142.677 
142.43 142.57 142.34 142.206 142.433 142.312 142.585 142.501 142.821 
142.75 143.064 142.959 143.239 143.09 143.337 143.129 143.29 142.977 
143.002 142.73 142.655 142.856 142.77 143.021 142.958 143.292 143.239 
143.598 143.495 143.805 143.656 143.919 143.75 143.949 143.696 143.763 
143.381 143.329 
POINT_DATA 1002
SCALARS Distance double
LOOKUP_TABLE default
139.289 139.785 139.834 139.281 139.849 138.776 139.324 139.884 138.727 
138.204 139.441 139.96 138.804 138.134 137.535 139.48 139.978 138.887 
138.177 137.447 136.725 139.362 139.902 138.782 138.115 137.394 136.598 
135.771 139.258 139.851 138.633 137.937 137.226 136.514 135.683 134.901 
139.242 139.852 138.595 137.871 137.076 136.377 135.708 134.963 134.333 
139.221 139.823 138.56 137.861 137.065 136.279 135.658 135.076 134.465 
133.95 139.164 139.738 138.492 137.798 137.078 136.298 135.602 135.053 
134.533 134.023 133.575 140.367 140.449 141.008 141.114 141.655 140.434 
141.75 142.273 141.039 140.402 142.28 142.8 141.608 140.951 140.453 
142.7 143.234 142.121 141.528 141.001 140.489 143.052 143.644 142.581 
142.131 141.595 141.038 140.454 143.373 144.014 142.936 142.667 142.223 
141.623 141.032 140.441 143.699 144.264 143.259 143.074 142.792 142.255 
141.659 141.056 140.432 144.027 144.395 143.683 143.52 143.31 142.849 
142.29 141.695 141.017 140.344 144.366 144.196 144.471 144.578 144.598 
144.117 144.817 144.544 144.617 143.962 144.558 144.156 144.65 144.166 
143.459 143.924 143.519 144.101 143.802 143.279 142.8 143.315 142.954 
143.442 143.138 142.729 142.485 142.179 142.809 142.552 142.912 142.609 
142.16 141.947 141.79 141.451 142.209 142.099 142.314 142.15 141.764 
141.476 141.282 141.003 140.668 141.516 141.526 141.611 141.592 141.358 
141.088 140.852 140.56 140.252 139.988 139.275 139.507 138.723 139.758 
138.921 138.066 140.068 139.154 138.215 137.358 140.352 139.44 138.476 
137.543 136.712 140.589 139.676 138.752 137.879 136.975 136.172 140.855 
139.956 138.964 138.133 137.296 136.408 135.727 140.994 140.308 139.348 
138.377 137.559 136.669 135.876 135.352 140.921 140.448 139.797 138.846 
137.94 137.055 136.142 135.469 135.004 140.874 140.385 139.967 139.276 
138.418 137.567 136.621 135.758 135.158 134.671 138.614 138.001 137.871 
137.342 137.262 137.146 136.628 136.612 136.52 136.392 135.958 135.859 
135.822 135.732 135.617 135.48 135.216 135.085 135.061 134.988 134.954 
135.136 134.796 134.488 134.393 134.364 134.314 134.385 134.773 134.421 
133.99 133.711 133.652 133.661 133.721 133.875 134.375 134.031 133.582 
133.11 132.863 132.931 133.121 133.288 133.438 134.104 133.745 133.46 
133.228 132.895 133.404 132.878 132.516 132.953 132.868 132.478 132.397 
132.423 132.168 132.255 132.142 132.471 131.697 131.336 131.458 132.12 
132.026 132.318 131.391 130.774 130.873 131.651 132.486 131.737 131.764 
131.544 131.01 130.785 131.355 132.194 132.805 131.201 131.265 131.463 
131.511 131.244 131.269 131.781 132.393 132.926 130.898 131.192 131.15 
131.602 131.725 131.579 131.611 131.954 132.481 133.051 134.716 134.156 
134.924 134.461 135.283 133.441 134.947 135.636 133.765 132.721 135.264 
135.814 134.305 133.005 132.364 135.307 135.948 134.621 133.585 132.714 
132.532 135.486 136.29 134.792 134.054 133.29 132.892 132.707 135.964 
136.763 135.21 134.538 133.846 133.284 132.898 132.39 136.435 137.123 
135.738 135.111 134.448 133.744 133.175 132.63 131.924 136.735 137.319 
136.12 135.54 134.939 134.221 133.546 133.049 132.508 131.8 141.256 
140.573 141.065 140.407 140.867 140.065 140.214 140.49 139.762 139.516 
139.73 139.856 139.325 138.954 138.747 138.991 139.169 138.69 138.327 
138.119 137.935 138.353 138.656 138.048 137.744 137.485 137.292 137.014 
137.943 138.249 137.568 137.242 136.948 136.648 136.351 136.037 137.567 
137.798 137.174 136.759 136.461 136.199 135.878 135.549 135.293 141.979 
141.802 142.263 142.09 142.4 141.526 142.221 142.824 141.653 141.064 
142.645 143.511 141.747 141.001 140.454 143.079 143.756 142.086 141.098 
140.379 139.83 142.964 143.404 142.244 141.334 140.5 139.882 139.299 
142.606 143.007 142.101 141.4 140.606 139.936 139.378 138.813 142.454 
142.846 142.012 141.415 140.657 139.922 139.318 138.785 138.281 142.432 