# vtk DataFile Version 4.0
vtk output
ASCII
DATASET POLYDATA
POINTS 1002 float
-78.6257 -103.384 55.5713 -78.787 -103.408 56.204 -79.2486 -103.567 55.767 
-79.1584 -103.428 55.2034 -80.0441 -103.499 55.4365 -78.5061 -103.23 54.9795 
-79.9983 -103.199 54.8957 -80.8465 -103.27 55.1425 -79.1605 -103.131 54.5995 
-78.5292 -102.98 54.161 -80.7724 -102.971 54.4257 -81.4704 -103.012 54.7075 
-79.9709 -102.872 54.1563 -79.2168 -102.821 53.6769 -78.6149 -102.762 53.0832 
-81.473 -102.873 53.7634 -82.1552 -102.828 54.1395 -80.6802 -102.738 53.5275 
-79.8679 -102.578 53.159 -79.1987 -102.625 52.5356 -78.6128 -102.595 52.0394 
-82.317 -102.727 53.2123 -82.9974 -102.737 53.6158 -81.462 -102.64 52.9166 
-80.5169 -102.38 52.6494 -79.7595 -102.308 52.1295 -79.1582 -102.406 51.5503 
-78.5305 -102.199 51.3002 -83.1506 -102.488 52.7672 -83.8029 -102.624 53.121 
-82.3215 -102.378 52.4749 -81.3548 -102.203 52.1802 -80.5061 -101.963 51.8056 
-79.8619 -101.93 51.3238 -79.17 -101.848 50.9636 -78.4442 -101.466 50.847 
-83.8045 -102.263 52.1831 -84.406 -102.377 52.596 -82.9669 -102.093 51.9523 
-82.123 -102.06 51.6295 -81.3789 -101.854 51.2849 -80.74 -101.491 51.0719 
-79.9979 -101.302 50.8279 -79.1215 -101.119 50.5475 -78.3693 -100.83 50.3488 
-84.2666 -102.008 51.6221 -84.7083 -101.974 52.1646 -83.4029 -101.86 51.3728 
-82.5777 -101.905 51.0551 -82.0124 -101.933 50.61 -81.4997 -101.46 50.4891 
-80.7962 -100.902 50.553 -79.8621 -100.741 50.3074 -78.9633 -100.704 49.8946 
-78.291 -100.582 49.6114 -84.512 -101.627 51.318 -84.7567 -101.466 51.8947 
-83.7441 -101.554 51.029 -82.8806 -101.574 50.7326 -82.355 -101.787 50.1933 
-81.961 -101.603 49.8602 -81.3478 -100.913 49.9883 -80.4772 -100.484 49.9648 
-79.5425 -100.524 49.5093 -78.7796 -100.578 49.0527 -78.197 -100.486 48.8324 
-79.1636 -103.481 56.7323 -79.8879 -103.607 56.2304 -79.6936 -103.454 57.42 
-80.5947 -103.623 56.8338 -80.3268 -103.414 58.0858 -80.79 -103.623 55.8275 
-81.2138 -103.565 57.4942 -80.8981 -103.346 58.6343 -81.4766 -103.717 56.396 
-81.5126 -103.393 55.5531 -81.6106 -103.298 58.0771 -81.239 -103.156 59.0299 
-81.9822 -103.538 57.1059 -82.125 -103.389 56.1488 -82.0929 -102.99 55.1735 
-81.8397 -102.899 58.4319 -81.4673 -102.842 59.2983 -82.3058 -103.087 57.6929 
-82.6194 -103.133 56.7706 -82.7283 -102.922 55.6592 -82.8222 -102.782 54.5696 
-82.1867 -102.533 58.7211 -81.8642 -102.502 59.6121 -82.6665 -102.672 58.0351 
-83.0656 -102.792 57.2274 -83.3001 -102.781 56.0461 -83.4825 -102.743 54.9058 
-83.668 -102.746 53.9887 -82.721 -102.257 59.1332 -82.388 -102.249 59.9461 
-83.1749 -102.368 58.3541 -83.5878 -102.5 57.5766 -83.835 -102.555 56.4594 
-84.041 -102.543 55.2694 -84.2205 -102.533 54.4118 -84.359 -102.514 53.5731 
-83.2006 -102.051 59.4816 -82.8126 -102.034 60.1094 -83.6113 -102.09 58.6702 
-84.0125 -102.156 57.8495 -84.2736 -102.218 56.8797 -84.4726 -102.227 55.7462 
-84.6079 -102.134 54.8878 -84.6284 -102.043 54.1977 -84.6814 -102.03 53.2273 
-83.5123 -101.776 59.6461 -83.1014 -101.685 60.1263 -83.8555 -101.789 58.87 
-84.1932 -101.746 57.9958 -84.4707 -101.746 57.1239 -84.7309 -101.842 56.1266 
-84.949 -101.838 55.2221 -84.8832 -101.629 54.6255 -84.6859 -101.455 53.9264 
-84.688 -101.452 52.892 -83.6228 -101.223 59.9046 -83.9547 -101.342 59.2373 
-84.0288 -100.615 59.5813 -84.3034 -100.732 58.7147 -84.2541 -100.041 59.0133 
-84.2363 -101.305 58.2907 -84.5784 -100.158 58.0924 -84.3086 -99.6488 58.1525 
-84.5912 -100.67 57.7254 -84.5124 -101.199 57.3551 -84.69 -99.7636 57.285 
-84.2549 -99.3335 57.1472 -84.9466 -100.131 57.2057 -84.9139 -100.632 56.7842 
-84.8347 -101.287 56.3985 -84.6531 -99.4066 56.3299 -84.2472 -98.8969 56.2374 
-85.1236 -99.7613 56.4956 -85.4368 -100.184 56.2334 -85.4978 -100.875 55.6812 
-85.2888 -101.502 55.365 -84.7067 -98.8534 55.5278 -84.3957 -98.2895 55.5823 
-85.1141 -99.3577 55.6321 -85.7274 -99.7889 55.5729 -86.2965 -100.389 55.0906 
-86.1467 -101.056 54.658 -85.4302 -101.406 54.6348 -84.9133 -98.084 55.0234 
-84.5637 -97.6387 55.128 -85.162 -98.6671 54.9197 -85.5947 -99.2819 54.8669 
-86.4695 -99.8403 54.6574 -86.8115 -100.397 54.2502 -85.9745 -100.792 54.0732 
-85.005 -101.044 54.1084 -85.0418 -97.3612 54.5822 -84.5415 -97.1272 54.6539 
-85.357 -97.7593 54.3592 -85.4464 -98.46 54.1514 -85.9069 -99.2364 54.0979 
-86.5499 -99.8072 53.9409 -86.2269 -100.146 53.6468 -85.1918 -100.412 53.4668 
-84.6439 -100.846 53.2715 -84.9054 -96.9182 53.9986 -84.3165 -96.7974 54.0552 
-85.4537 -97.046 53.7685 -85.5648 -97.507 53.431 -85.4691 -98.3872 53.2848 
-85.7182 -99.2544 53.2824 -85.8674 -99.7186 53.0929 -85.3541 -99.9351 52.7807 
-84.7752 -100.289 52.5192 -84.6756 -100.876 52.2261 -84.6958 -101.071 51.3093 
-84.7757 -100.493 51.4697 -84.5478 -100.613 50.7897 -84.9551 -99.9504 51.6442 
-84.8515 -100.095 50.7169 -84.3282 -100.143 50.1683 -85.2407 -99.6294 51.9275 
-85.057 -99.5712 50.8033 -84.724 -99.6032 50.0337 -84.0023 -99.5932 49.5299 
-85.2695 -99.2564 52.2453 -85.0498 -99.111 51.1279 -84.8874 -98.9335 50.2291 
-84.3084 -98.8995 49.5454 -83.4872 -98.8333 49.1516 -85.2265 -98.4064 52.3656 
-84.9735 -98.4136 51.4348 -84.848 -98.2466 50.5837 -84.4848 -98.0995 49.7719 
-83.7312 -98.0654 49.1687 -82.8599 -97.9731 48.9614 -85.4965 -97.3663 52.4714 
-85.1722 -97.428 51.6041 -84.8566 -97.4589 50.8106 -84.5952 -97.3754 49.9273 
-84.0256 -97.3472 49.1572 -83.1458 -97.3297 48.8255 -82.2976 -97.2729 48.6923 
-85.5625 -96.7954 52.8147 -85.311 -96.7361 51.8897 -84.848 -96.7364 51.0293 
-84.5771 -96.6478 50.026 -84.271 -96.6286 49.1128 -83.4922 -96.7351 48.7165 
-82.5406 -96.7804 48.6062 -81.8335 -96.791 48.2883 -85.0315 -96.6991 53.172 
-84.9299 -96.5425 52.2969 -84.5788 -96.348 51.4272 -84.3525 -96.022 50.3348 
-84.2918 -95.8061 49.2215 -83.7737 -95.957 48.7021 -82.7777 -96.225 48.6434 
-81.9311 -96.3349 48.3942 -81.4371 -96.3841 47.8165 -84.3386 -96.6324 53.3418 
-84.322 -96.4302 52.5993 -84.2123 -96.1027 51.874 -84.1383 -95.6003 50.8951 
-84.1831 -95.1471 49.657 -83.8907 -95.1264 48.8431 -82.9947 -95.4797 48.6894 
-82.0369 -95.774 48.5386 -81.457 -95.8669 48.0068 -81.1222 -95.9274 47.3505 
-84.2075 -101.141 50.9326 -83.8536 -100.597 50.5212 -83.3385 -101.069 50.6839 
-83.592 -100.068 49.8523 -83.1087 -100.521 50.1677 -82.6792 -101.207 50.1813 
-83.2456 -99.4432 49.2517 -82.955 -99.9313 49.4703 -82.6129 -100.635 49.5626 
-82.2775 -101.368 49.5669 -82.6211 -98.627 49.0134 -82.4702 -99.2558 48.9799 
-82.3072 -99.9635 48.937 -82.018 -100.69 49.0239 -81.6836 -100.994 49.3922 
-81.982 -97.8326 48.7506 -81.7737 -98.552 48.6121 -81.7202 -99.3465 48.318 
-81.5754 -100.079 48.2875 -81.2146 -100.444 48.7289 -80.8318 -100.449 49.3898 
-81.573 -97.2575 48.1804 -81.317 -97.9522 48.0039 -81.2479 -98.7964 47.6337 
-81.2322 -99.596 47.3918 -80.9038 -100.087 47.7004 -80.358 -100.245 48.3689 
-79.9011 -100.351 48.998 -81.2777 -96.8238 47.5299 -81.0623 -97.4423 47.3045 
-80.9295 -98.2178 47.0428 -80.9104 -99.0356 46.771 -80.6726 -99.6683 46.8319 
-80.0881 -99.99 47.332 -79.4878 -100.204 47.9373 -79.078 -100.436 48.4833 
-80.9728 -96.3817 47.0354 -80.772 -96.9477 46.8037 -80.5616 -97.5987 46.6742 
-80.4093 -98.3332 46.5554 -80.1903 -99.0658 46.4835 -79.7345 -99.5573 46.6972 
-79.1737 -99.8171 47.1892 -78.7343 -100.086 47.7165 -78.4377 -100.356 48.2393 
-80.7177 -95.6786 46.7751 -80.4626 -96.2593 46.5521 -80.1413 -95.4606 46.4124 
-79.812 -96.1412 46.2152 -79.4408 -95.3098 46.1055 -80.1754 -96.8846 46.4158 
-79.105 -96.0786 45.7987 -78.6559 -95.1969 45.7452 -79.4387 -96.8102 46.072 
-79.8562 -97.532 46.4039 -78.2284 -96.0537 45.5408 -77.6478 -95.0899 45.6417 
-78.6335 -96.8275 45.6691 -78.9751 -97.5154 46.0766 -79.5209 -98.3076 46.3688 
-77.1521 -95.9876 45.7897 -76.5887 -95.0579 45.9095 -77.6877 -96.8465 45.673 
-78.1152 -97.6094 45.7304 -78.5522 -98.3919 46.0135 -79.1405 -99.0502 46.3502 
-76.2653 -95.9274 46.1852 -75.8579 -95.1928 46.2978 -76.7405 -96.767 46.0761 
-77.2247 -97.6327 45.813 -77.7185 -98.5231 45.6908 -78.2035 -99.1214 46.0671 
-78.7083 -99.4474 46.667 -75.658 -95.9683 46.4869 -75.3557 -95.4288 46.7476 
-76.0193 -96.706 46.3621 -76.3436 -97.5671 46.1417 -76.7593 -98.5258 45.815 
-77.2912 -99.2186 45.9216 -77.8169 -99.4437 46.5938 -78.3052 -99.6744 47.2447 
-75.067 -96.0674 46.9136 -74.8281 -95.6147 47.2613 -75.3872 -96.7266 46.635 
-75.6343 -97.5224 46.4453 -75.846 -98.3968 46.2488 -76.234 -99.1808 46.1851 
-76.8002 -99.549 46.6003 -77.422 -99.687 47.2802 -77.9875 -99.9915 47.7973 
-74.4955 -96.1631 47.4433 -74.3087 -95.727 47.7138 -74.7604 -96.774 47.1088 
-75.0463 -97.4993 46.8591 -75.2783 -98.2149 46.7819 -75.5281 -98.9269 46.7597 
-75.8987 -99.5158 46.8609 -76.4448 -99.8327 47.273 -77.1188 -100.043 47.8326 
-77.736 -100.287 48.3357 -81.067 -95.3126 47.2597 -80.6574 -94.9393 46.6543 
-81.072 -94.6287 47.1561 -80.6104 -94.2484 46.5408 -81.0108 -94.0559 47.289 
-79.97 -94.6788 46.3077 -80.3859 -93.8114 46.7851 -80.7324 -93.7475 47.8736 
-79.7283 -94.0896 46.2141 -79.0942 -94.5185 46.0287 -79.8702 -93.6489 47.587 
-80.2923 -93.6918 48.6474 -79.3076 -93.8036 46.5801 -78.6452 -93.9966 45.9996 
-78.1184 -94.3475 45.7484 -79.2552 -93.7039 48.4976 -79.8324 -93.7475 49.3405 
-78.7675 -93.6857 47.561 -78.1665 -93.7684 46.5129 -77.5358 -93.8413 45.8697 
-77.005 -94.2399 45.7572 -78.7726 -93.8672 49.2377 -79.3892 -93.7377 50.1614 
-78.3232 -93.7565 48.5372 -77.7834 -93.6826 47.593 -77.0705 -93.7038 46.5582 
-76.4692 -93.8504 46.1123 -76.0762 -94.4003 46.152 -78.4086 -93.869 50.1297 
-78.9749 -93.6508 51.12 -77.9783 -93.8994 49.3301 -77.475 -93.7492 48.6212 
-76.7257 -93.7078 47.6985 -76.0894 -93.8178 47.011 -75.755 -94.1727 46.8019 
-75.5353 -94.7891 46.7526 -78.0567 -93.7117 51.1312 -78.6091 -93.6733 51.8394 
-77.565 -93.8025 50.3079 -77.0527 -93.7628 49.5725 -76.348 -93.7156 48.804 
-75.7117 -93.7942 48.1382 -75.4336 -94.062 47.7927 -75.2861 -94.5632 47.5533 
-75.0592 -95.1265 47.3378 -77.7047 -93.7008 51.8426 -78.2831 -93.884 52.2159 
-77.104 -93.6335 51.2758 -76.5268 -93.6172 50.6007 -75.9105 -93.6549 49.834 
[...]
CELL_DATA 2000
SCALARS Distance double
LOOKUP_TABLE default
140.579 140.797 140.522 140.199 141.006 140.734 140.371 140.11 139.749 
141.094 140.885 140.496 140.253 139.858 139.614 139.228 141.135 140.941 
140.574 140.338 139.91 139.672 139.261 139.06 138.686 141.282 141.039 
140.707 140.435 139.993 139.704 139.249 139.044 138.667 138.509 138.126 
141.474 141.221 140.862 140.59 140.15 139.824 139.339 139.052 138.654 
138.473 138.105 137.915 137.463 141.539 141.34 140.905 140.68 140.236 
139.978 139.522 139.208 138.781 138.512 138.134 137.907 137.472 137.218 
136.742 141.406 141.299 140.828 140.633 140.169 139.998 139.61 139.393 
138.988 138.69 138.257 137.97 137.525 137.255 136.797 136.538 136.134 
141.093 141.092 140.663 140.506 140.021 139.879 139.514 139.416 139.08 
138.869 138.418 138.104 137.606 137.314 136.853 136.607 136.207 135.994 
135.666 140.856 141.387 141.112 141.111 141.985 141.702 141.738 141.421 
141.378 142.538 142.306 142.371 142.085 142.036 141.645 141.482 142.865 
142.751 142.796 142.648 142.602 142.274 142.058 141.656 141.461 142.938 
142.908 142.913 142.915 142.894 142.728 142.534 142.191 141.976 141.648 
141.564 142.999 142.927 142.943 142.959 143.006 142.939 142.84 142.601 
142.432 142.15 142.077 141.818 141.789 143.215 143.075 143.122 143.061 
143.168 143.097 143.086 142.896 142.77 142.546 142.457 142.27 142.218 
141.996 141.88 143.444 143.345 143.367 143.284 143.335 143.281 143.261 
143.138 143.005 142.828 142.676 142.529 142.39 142.265 142.087 141.924 
141.69 143.491 143.507 143.48 143.439 143.358 143.337 143.216 143.195 
143.034 142.968 142.796 142.681 142.477 142.332 142.065 141.944 141.652 
141.562 141.278 143.428 143.209 143.39 143.425 142.788 143.063 143.089 
143.271 143.244 142.258 142.586 142.624 142.851 142.819 143.029 143.023 
141.663 142.045 142.156 142.407 142.409 142.593 142.61 142.829 142.862 
141.002 141.431 141.616 141.959 142.065 142.265 142.348 142.508 142.602 
142.736 142.736 140.356 140.765 140.966 141.387 141.591 141.927 142.124 
142.346 142.489 142.584 142.561 142.58 142.435 139.778 140.141 140.295 
140.711 140.903 141.362 141.62 142.048 142.238 142.457 142.358 142.367 
142.067 142.117 141.892 139.217 139.562 139.65 140.02 140.102 140.569 
140.746 141.338 141.535 142.008 141.902 142.033 141.613 141.638 141.284 
141.488 141.369 138.628 138.973 139.024 139.356 139.348 139.723 139.755 
140.311 140.441 141.073 141.051 141.408 141.052 141.125 140.727 140.861 
140.714 141.018 141.018 140.735 140.434 140.456 140.194 140.345 140.2 
139.949 139.921 139.592 140.518 140.21 139.822 139.707 139.384 139.297 
138.865 140.452 140.275 139.725 139.58 139.139 139.058 138.597 138.492 
137.955 139.892 139.924 139.348 139.325 138.799 138.758 138.242 138.162 
137.596 137.495 136.913 139.298 139.305 138.811 138.821 138.333 138.334 
137.83 137.779 137.229 137.126 136.56 136.449 135.915 138.97 138.889 
138.465 138.381 137.923 137.865 137.369 137.333 136.814 136.761 136.241 
136.143 135.642 135.525 135.069 138.688 138.642 138.232 138.136 137.658 
137.529 136.975 136.872 136.322 136.299 135.814 135.809 135.353 135.285 
134.836 134.737 134.327 138.302 138.311 137.901 137.868 137.399 137.285 
136.73 136.549 135.971 135.846 135.362 135.353 134.947 134.953 134.537 
134.488 134.06 133.998 133.615 140.771 140.17 140.468 140.361 139.488 
139.794 139.649 139.918 139.735 138.727 139.055 138.902 139.191 139.064 
139.34 139.261 137.836 138.235 138.099 138.439 138.346 138.682 138.651 
138.953 138.87 136.805 137.267 137.145 137.578 137.478 137.907 137.851 
138.259 138.143 138.452 138.21 135.792 136.217 136.097 136.562 136.473 
136.956 136.896 137.362 137.238 137.611 137.364 137.653 137.363 134.937 
135.27 135.155 135.556 135.509 135.961 135.963 136.414 136.36 136.718 
136.529 136.802 136.555 136.826 136.609 134.209 134.488 134.373 134.707 
134.676 135.077 135.115 135.548 135.554 135.915 135.779 136.035 135.815 
136.062 135.874 136.149 135.995 133.525 133.791 133.674 133.978 133.921 
134.286 134.284 134.712 134.707 135.115 135.002 135.305 135.089 135.343 
135.148 135.433 135.303 135.59 135.475 133.09 132.484 132.944 133.262 
131.864 132.348 132.697 133.151 133.507 131.222 131.734 132.091 132.57 
132.936 133.419 133.832 130.549 131.095 131.476 131.96 132.315 132.812 
133.226 133.762 134.21 129.927 130.449 130.887 131.369 131.747 132.209 
132.614 133.133 133.572 134.111 134.496 129.538 129.924 130.39 130.832 
131.251 131.685 132.103 132.571 132.998 133.479 133.843 134.32 134.611 
129.416 129.647 130.056 130.412 130.824 131.221 131.626 132.075 132.491 
132.946 133.295 133.711 134.002 134.425 134.709 129.398 129.551 129.861 
130.136 130.508 130.84 131.21 131.6 131.983 132.425 132.776 133.192 
133.49 133.884 134.192 134.594 134.903 129.365 129.497 129.75 129.962 
130.303 130.576 130.939 131.242 131.606 131.957 132.316 132.693 133.021 
133.403 133.73 134.125 134.457 134.834 135.118 132.881 132.337 132.47 
132.22 131.844 131.907 131.597 131.776 131.556 131.532 131.468 131.089 
131.155 130.854 131.075 130.871 131.417 131.24 130.811 130.725 130.326 
130.389 130.074 130.334 130.139 131.415 131.185 130.745 130.548 130.106 
129.971 129.542 129.582 129.285 129.582 129.471 131.466 131.225 130.826 
130.577 130.168 129.894 129.441 129.224 128.86 128.882 128.763 129.055 
129.125 131.537 131.31 130.964 130.722 130.361 130.056 129.626 129.284 
128.912 128.705 128.59 128.625 128.747 128.955 129.136 131.604 131.391 
131.045 130.845 130.483 130.24 129.811 129.5 129.106 128.86 128.705 
128.642 128.732 128.802 128.964 129.091 129.217 131.685 131.459 131.081 
130.879 130.489 130.292 129.873 129.634 129.236 129.018 128.778 128.711 
128.672 128.756 128.803 128.941 128.983 129.133 129.182 137.94 137.247 
137.569 137.521 136.588 136.866 136.788 137.121 137.033 135.977 136.219 
136.113 136.404 136.291 136.585 136.396 135.321 135.569 135.42 135.722 
135.594 135.871 135.658 135.888 135.644 134.612 134.852 134.632 134.951 
134.798 135.139 134.94 135.181 134.918 135.151 134.994 133.924 134.133 
133.884 134.142 133.956 134.292 134.114 134.421 134.175 134.431 134.237 
134.567 134.53 133.265 133.464 133.228 133.439 133.239 133.498 133.314 
133.594 133.366 133.641 133.426 133.766 133.675 134.11 134.11 132.639 
132.822 132.583 132.791 132.572 132.809 132.598 132.844 132.606 132.848 
132.615 132.917 132.781 133.199 133.171 133.648 133.648 132.072 132.225 
131.983 132.158 131.925 132.131 131.899 132.129 131.886 132.117 131.878 
132.133 131.964 132.308 132.254 132.698 132.718 133.19 133.219 138.057 
138.053 137.835 137.397 138.08 137.852 137.418 137.181 136.754 138.09 
137.874 137.433 137.204 136.769 136.555 136.148 138.075 137.874 137.423 
137.197 136.74 136.54 136.123 135.944 135.525 138.029 137.856 137.423 
137.192 136.706 136.48 136.03 135.872 135.46 135.292 134.848 137.917 
137.784 137.378 137.19 136.71 136.458 135.954 135.752 135.31 135.176 
134.75 134.59 134.144 137.784 137.653 137.252 137.109 136.66 136.448 
135.937 135.695 135.206 135.023 134.592 134.453 134.031 133.882 133.464 
137.708 137.548 137.156 136.99 136.556 136.368 135.888 135.669 135.186 
134.965 134.522 134.332 133.925 133.764 133.371 133.22 132.838 137.68 
137.517 137.148 136.946 136.51 136.286 135.816 135.606 135.158 134.957 
134.532 134.318 133.907 133.704 133.315 133.143 132.771 132.618 132.266 
137.547 137.123 137.25 137.014 136.565 136.755 136.498 136.63 136.328 
135.936 136.142 135.875 136.041 135.718 135.874 135.586 135.303 135.494 
135.235 135.409 135.118 135.261 134.987 135.156 134.939 134.693 134.851 
134.581 134.774 134.512 134.682 134.415 134.578 134.345 134.536 134.331 
134.135 134.25 133.94 134.112 133.822 134.029 133.727 133.944 133.65 
133.888 133.64 133.892 133.682 133.597 133.704 133.378 133.498 133.164 
133.316 132.969 133.174 132.844 133.104 132.833 133.131 132.926 133.225 
133.061 133.063 133.169 132.858 132.96 132.607 132.691 132.308 132.434 
132.104 132.309 132.062 132.325 132.144 132.446 132.308 132.624 132.506 
132.598 132.666 132.36 132.446 132.078 132.137 131.713 131.799 131.454 
131.632 131.412 131.636 131.467 131.711 131.568 131.863 131.756 132.084 
131.997 132.27 131.614 131.963 131.985 130.839 131.224 131.204 131.616 
131.624 130.164 130.444 130.371 130.746 130.703 131.169 131.199 129.697 
129.851 129.734 129.975 129.927 130.281 130.364 130.817 130.985 129.17 
129.329 129.149 129.401 129.399 129.685 129.836 130.162 130.412 130.782 
131.031 128.616 128.693 128.435 128.732 128.778 129.193 129.411 129.768 
129.996 130.315 130.533 130.879 131.09 128.472 128.302 128.067 128.122 
128.192 128.551 128.828 129.273 129.493 129.859 129.996 130.351 130.523 
130.917 131.15 128.751 128.462 128.343 128.118 128.188 128.208 128.455 
128.717 128.975 129.306 129.489 129.814 130.015 130.37 130.649 131.036 
131.347 129.079 128.865 128.818 128.585 128.612 128.441 128.548 128.542 
128.734 128.904 129.166 129.42 129.729 130 130.341 130.635 130.984 
131.309 131.632 132.369 132.407 132.156 131.707 132.517 132.192 131.636 
131.403 130.924 132.704 132.323 131.707 131.345 130.799 130.611 130.246 
132.99 132.581 132.003 131.51 130.914 130.565 130.206 130.075 129.839 
133.28 132.908 132.394 131.898 131.287 130.796 130.353 130.112 129.901 
129.759 129.458 133.496 133.167 132.681 132.28 131.702 131.205 130.658 
130.297 130 129.844 129.625 129.381 129.016 133.74 133.379 132.924 
132.556 132.077 131.625 131.115 130.645 130.271 129.986 129.808 129.603 
129.405 129.062 128.832 134.105 133.693 133.28 132.872 132.496 132.07 
131.707 131.205 130.873 130.409 130.222 129.907 129.815 129.519 129.396 
129.052 128.981 134.522 134.118 133.738 133.311 132.968 132.561 132.275 
131.848 131.582 131.108 130.892 130.47 130.355 130.015 129.931 129.608 
129.523 129.24 129.225 132.768 133.484 133.027 132.879 134.309 133.813 
133.663 133.187 133.039 135.164 134.663 134.493 133.99 133.819 133.346 
133.204 136.058 135.549 135.4 134.846 134.653 134.13 133.977 133.525 
133.434 136.959 136.477 136.369 135.801 135.631 135.037 134.887 134.35 
134.261 133.798 133.726 137.766 137.358 137.28 136.773 136.641 136.067 
135.941 135.355 135.256 134.699 134.602 134.092 133.976 138.499 138.138 
138.11 137.66 137.581 137.069 136.993 136.439 136.345 135.748 135.609 
135.021 134.874 134.339 134.22 139.227 138.889 138.913 138.495 138.465 
138.001 137.977 137.48 137.425 136.845 136.694 136.055 135.871 135.277 
135.148 134.625 134.557 139.921 139.625 139.671 139.297 139.271 138.857 
138.823 138.407 138.36 137.875 137.731 137.131 136.917 136.295 136.127 
135.573 135.483 134.989 134.941 140.33 140.86 140.431 140.068 141.28 
140.89 140.459 140.066 139.643 141.46 141.187 140.712 140.374 139.919 
139.581 139.175 141.392 141.246 140.808 140.547 140.069 139.779 139.356 
139.091 138.691 141.228 141.132 140.769 140.591 140.126 139.864 139.383 
139.165 138.74 138.532 138.057 141.081 140.983 140.639 140.521 140.095 
139.878 139.363 139.13 138.658 138.486 138.03 137.809 137.269 140.922 
140.836 140.476 140.376 139.975 139.812 139.329 139.096 138.607 138.401 
137.965 137.766 137.297 137.021 136.501 140.731 140.662 140.319 140.218 
139.838 139.696 139.264 139.06 138.595 138.373 137.933 137.73 137.298 
137.065 136.601 136.313 135.849 140.559 140.485 140.172 140.074 139.719 
139.584 139.183 139.006 138.568 138.361 137.913 137.706 137.266 137.061 
136.621 136.395 135.961 135.702 135.288 140.389 139.992 140.124 139.981 
139.522 139.676 139.498 139.67 139.506 138.995 139.155 138.929 139.118 
138.916 139.132 138.945 138.47 138.613 138.353 138.51 138.264 138.483 
138.277 138.523 138.323 137.908 138.076 137.811 137.945 137.67 137.832 
137.597 137.823 137.614 137.869 137.666 137.206 137.44 137.176 137.379 
137.103 137.26 136.988 137.162 136.916 137.142 136.921 137.19 136.997 
136.466 136.685 136.42 136.677 136.419 136.643 136.353 136.54 136.251 
136.452 136.197 136.439 136.23 136.519 136.348 135.88 136.008 135.747 
135.94 135.694 135.917 135.632 135.845 135.546 135.765 135.506 135.737 
135.522 135.774 135.598 135.884 135.723 135.439 135.512 135.249 135.356 
135.1 135.245 134.969 135.134 134.851 135.051 134.814 135.05 134.851 
135.093 134.908 135.161 134.988 135.263 135.087 134.622 134.535 134.345 
133.865 134.466 134.266 133.788 133.576 133.106 134.409 134.209 133.724 
133.502 133.023 132.838 132.415 134.371 134.165 133.698 133.457 132.958 
132.745 132.311 132.165 131.76 134.414 134.172 133.762 133.495 133.033 
132.737 132.28 132.067 131.682 131.521 131.127 134.546 134.274 133.895 
133.625 133.236 132.91 132.47 132.136 131.733 131.492 131.144 130.94 
130.59 134.716 134.438 134.047 133.776 133.394 133.123 132.717 132.39 
131.963 131.64 131.262 131.006 130.667 130.454 130.134 134.904 134.626 
134.238 133.936 133.523 133.253 132.851 132.586 132.17 131.875 131.466 
131.177 130.805 130.55 130.214 130.011 129.722 135.108 134.836 134.469 
134.148 133.741 133.418 133.026 132.729 132.347 132.054 131.671 131.38 
131.012 130.727 130.382 130.124 129.833 129.635 129.421 143.404 143.433 
143.409 143.304 143.289 143.408 143.473 143.393 143.359 143.138 143.289 
143.489 143.554 143.653 143.537 143.517 143.079 143.208 143.437 143.568 
143.725 143.745 143.74 143.627 143.44 142.928 143.112 143.28 143.478 
143.601 143.719 143.711 143.713 143.517 143.358 142.942 142.515 142.79 
142.864 143.171 143.225 143.458 143.427 143.563 143.424 143.377 143.024 
142.748 142.226 141.936 142.234 142.241 142.597 142.595 142.916 142.842 
143.119 143.018 143.188 142.962 142.846 142.405 142.061 141.564 141.354 
141.62 141.599 141.922 141.893 142.21 142.105 142.415 142.303 142.629 
142.499 142.664 142.36 142.218 141.762 141.452 141.02 140.84 141.064 
141.028 141.297 141.259 141.532 141.438 141.695 141.582 141.88 141.786 
142.08 141.9 142.016 141.669 141.557 141.138 140.911 140.533 143.249 
143.081 143.031 142.759 143.093 142.905 142.59 142.495 142.21 143.271 
143.025 142.695 142.448 142.154 142.011 141.74 143.207 143.148 142.821 
142.613 142.251 142.039 141.706 141.55 141.205 142.645 142.827 142.491 
142.543 142.114 142.029 141.565 141.454 141.021 140.928 140.543 141.861 
142.086 141.76 141.982 141.608 141.688 141.221 141.183 140.717 140.666 
140.274 140.244 139.921 141.198 141.33 141.037 141.242 140.995 141.138 
140.817 140.82 140.447 140.382 140.035 139.978 139.665 139.638 139.33 
140.69 140.755 140.462 140.612 140.404 140.582 140.35 140.442 140.137 
140.138 139.804 139.765 139.426 139.382 139.043 139.019 138.69 140.242 
140.29 139.965 140.072 139.815 139.997 139.755 139.931 139.624 139.737 
139.365 139.43 139.033 139.067 138.682 138.702 138.363 138.376 138.085 
143.263 142.792 143.078 143.063 142.213 142.531 142.552 142.797 142.668 
141.654 141.929 141.912 142.217 142.122 142.328 142.12 141.066 141.326 
141.233 141.544 141.467 141.74 141.566 141.74 141.496 140.447 140.694 
140.564 140.844 140.775 141.087 140.995 141.2 140.975 141.097 140.835 
139.875 140.102 139.988 140.203 140.111 140.404 140.362 140.64 140.485 
140.615 140.336 140.434 140.192 139.276 139.537 139.427 139.65 139.513 
139.758 139.659 139.97 139.851 140.088 139.838 139.956 139.675 139.812 
139.614 138.616 138.891 138.758 139.033 138.877 139.134 138.974 139.254 
139.107 139.393 139.193 139.401 139.137 139.293 139.059 139.242 139.062 
138.017 138.235 138.088 138.337 138.192 138.458 138.313 138.573 138.421 
138.675 138.502 138.734 138.523 138.719 138.491 138.675 138.465 138.668 
138.479 132.89 133.36 133.256 133.591 133.919 133.788 134.126 134.034 
134.422 134.471 134.362 134.705 134.6 134.961 134.876 135.264 135.011 
134.905 135.261 135.17 135.527 135.424 135.791 135.716 136.126 135.581 
135.448 135.797 135.716 136.11 136.013 136.397 136.279 136.676 136.598 
137.012 136.172 136.009 136.3 136.221 136.607 136.576 136.989 136.907 
137.276 137.163 137.518 137.445 137.799 136.779 136.592 136.831 136.702 
137.032 137.015 137.428 137.432 137.804 137.729 138.023 137.924 138.221 
138.168 138.496 137.341 137.187 137.436 137.266 137.587 137.482 137.899 
137.862 138.284 138.222 138.552 138.427 138.702 138.594 138.902 138.856 
139.197 137.785 137.706 137.994 137.878 138.227 138.106 138.526 138.424 
138.866 138.762 139.148 139 139.299 139.127 139.4 139.283 139.592 
139.551 139.877 
POINT_DATA 1002
SCALARS Distance double
LOOKUP_TABLE default
140.275 140.632 140.833 140.46 141.1 139.863 140.645 141.273 140.009 
139.375 140.737 141.274 140.106 139.459 138.851 140.815 141.318 140.173 
139.454 138.873 138.334 140.988 141.542 140.32 139.488 138.808 138.322 
137.722 141.135 141.747 140.464 139.667 138.863 138.291 137.703 136.966 
141.141 141.73 140.442 139.806 139.097 138.384 137.728 136.988 136.273 
141.026 141.462 140.318 139.75 139.278 138.591 137.799 137.05 136.354 
135.777 140.788 141.029 140.175 139.572 139.223 138.739 137.924 137.095 
136.417 135.852 135.371 141.105 141.402 141.657 142.05 142.251 141.764 
142.621 142.746 142.444 141.901 142.888 142.963 142.883 142.48 141.795 
142.876 142.978 142.978 142.824 142.3 141.834 142.93 143.09 143.026 
143.018 142.681 142.319 142.081 143.208 143.348 143.231 143.251 142.992 
142.641 142.412 142.164 143.481 143.506 143.414 143.363 143.173 142.853 
142.537 142.221 141.879 143.535 143.433 143.425 143.237 143.051 142.88 
142.656 142.24 141.734 141.346 143.317 143.318 142.994 142.88 142.491 
143.071 142.388 141.898 142.605 142.782 141.853 141.239 142.23 142.394 
142.656 141.201 140.566 141.795 142.174 142.479 142.675 140.53 139.972 
141.167 141.813 142.389 142.601 142.411 139.921 139.441 140.437 141.106 
141.943 142.385 142.09 141.701 139.324 138.887 139.705 140.167 140.967 
141.696 141.627 141.124 141.03 138.708 138.289 139.042 139.3 139.8 
140.557 140.902 140.627 140.432 140.681 140.497 140.191 139.893 139.978 
139.681 139.203 140.027 139.464 139.008 138.386 139.899 139.252 138.702 
138.082 137.398 139.32 138.826 138.321 137.703 137.005 136.338 138.797 
138.319 137.855 137.315 136.671 136.005 135.403 138.571 138.027 137.424 
136.829 136.298 135.755 135.169 134.636 138.315 137.812 137.136 136.366 
135.773 135.373 134.932 134.407 133.938 137.912 137.477 136.908 136.146 
135.403 134.913 134.555 134.125 133.649 133.257 140.119 139.37 139.461 
138.594 138.744 138.989 137.725 137.979 138.316 138.65 136.68 137.029 
137.427 137.812 137.967 135.634 135.977 136.414 136.848 137.056 137.07 
134.774 135.057 135.495 135.982 136.253 136.281 136.315 134.056 134.292 
134.681 135.169 135.511 135.574 135.592 135.717 133.381 133.587 133.886 
134.287 134.666 134.831 134.864 134.99 135.202 132.633 132.818 132.002 
132.225 131.365 133.049 131.613 130.688 132.437 133.324 130.985 129.975 
131.833 132.677 133.678 130.388 129.421 131.29 132.12 133.048 133.991 
129.964 129.23 130.819 131.645 132.547 133.399 134.14 129.749 129.272 
130.456 131.2 132.036 132.893 133.595 134.274 129.634 129.289 130.203 
130.866 131.566 132.349 133.09 133.786 134.518 129.568 129.24 130.049 
130.659 131.295 131.958 132.643 133.333 134.071 134.783 132.753 132.025 
132.233 131.465 131.837 131.302 131.104 131.658 130.701 130.561 130.962 
131.634 130.372 129.906 129.755 130.962 131.652 130.314 129.637 129.085 
129.018 131.063 131.687 130.456 129.736 128.954 128.545 128.727 131.184 
131.744 130.649 129.979 129.166 128.621 128.607 128.91 131.247 131.822 
130.705 130.096 129.36 128.796 128.701 128.891 129.092 131.309 131.925 
130.688 130.077 129.45 128.901 128.638 128.679 128.841 129.017 137.621 
137.174 136.948 136.476 136.342 136.714 135.84 135.751 136.024 136.135 
135.119 135.095 135.302 135.456 135.385 134.344 134.398 134.433 134.661 
134.706 134.666 133.659 133.714 133.651 133.785 133.898 133.924 134.124 
133.018 133.064 133.009 133.059 133.099 133.102 133.253 133.651 132.385 
132.468 132.347 132.362 132.376 132.345 132.398 132.692 133.17 138.261 
137.623 138.277 137.658 138.306 136.974 137.661 138.304 136.982 136.351 
137.659 138.264 136.949 136.289 135.73 137.646 138.177 136.967 136.204 
135.598 135.054 137.532 138.044 136.959 136.204 135.455 134.878 134.321 
137.386 137.924 136.84 136.182 135.426 134.738 134.163 133.613 137.336 
137.864 136.746 136.083 135.401 134.731 134.096 133.52 132.982 137.352 