# vtk DataFile Version 4.0
vtk output
ASCII
DATASET POLYDATA
POINTS 1002 float
-80.1546 -107.973 57.7003 -80.218 -108.077 58.7137 -80.7281 -108.08 58.3457 
-80.7364 -107.875 57.3772 -81.3895 -108.065 57.8566 -80.0547 -107.617 56.9377 
-81.3785 -107.629 57.1148 -82.067 -107.891 57.4382 -80.6284 -107.273 56.8566 
-80.0371 -107.031 56.4858 -81.9586 -107.225 56.9824 -82.6091 -107.492 57.2628 
-81.1818 -106.827 56.791 -80.5442 -106.608 56.4025 -80.0694 -106.552 55.7643 
-82.5046 -106.82 56.7942 -83.1226 -107.022 57.1261 -81.7644 -106.493 56.4864 
-81.0539 -106.276 56.0444 -80.5236 -106.259 55.3866 -79.9804 -106.198 54.7198 
-83.1299 -106.539 56.3195 -83.6948 -106.653 56.709 -82.4297 -106.291 55.9096 
-81.6846 -106.078 55.4017 -81.02 -106 54.8338 -80.4209 -105.871 54.3356 
-79.7921 -105.724 53.8955 -83.7519 -106.33 55.6593 -84.2388 -106.37 56.0848 
-83.0532 -106.062 55.3052 -82.3094 -105.754 54.9031 -81.5925 -105.636 54.4149 
-80.8795 -105.485 54.0026 -80.2294 -105.296 53.6265 -79.6569 -105.33 53.1202 
-84.297 -106.049 55.0625 -84.7064 -106.035 55.5131 -83.6165 -105.814 54.7321 
-82.8671 -105.422 54.4723 -82.1853 -105.233 54.1096 -81.4352 -105.165 53.6663 
-80.6761 -104.993 53.2434 -80.0775 -104.963 52.7469 -79.5795 -105.143 52.1794 
-84.7236 -105.6 54.6043 -85.0327 -105.562 55.0547 -84.1879 -105.522 54.1822 
-83.5265 -105.303 53.8098 -82.8914 -105.127 53.4436 -82.166 -105.065 53.0383 
-81.3054 -104.92 52.6333 -80.5612 -104.752 52.2403 -80.0069 -104.752 51.8383 
-79.5125 -104.81 51.4958 -84.9492 -105.039 54.227 -85.1929 -104.995 54.6492 
-84.6091 -105.099 53.755 -84.1575 -105.148 53.2031 -83.6156 -105.138 52.6616 
-82.9276 -105.046 52.2639 -82.057 -104.843 51.9986 -81.2111 -104.584 51.7597 
-80.5535 -104.407 51.5141 -79.9996 -104.315 51.3096 -79.4699 -104.222 51.1831 
-80.4604 -108.123 59.4661 -81.0376 -108.086 59.1352 -80.7515 -108.211 60.0937 
-81.4068 -108.059 59.9116 -81.3136 -108.417 60.704 -81.7812 -108.086 58.579 
-81.903 -108.153 60.5689 -81.9364 -108.682 61.3611 -82.1467 -108.004 59.3578 
-82.517 -107.979 58.0007 -82.3323 -108.282 61.1119 -82.2679 -108.714 61.9971 
-82.56 -107.995 59.9754 -82.9886 -108.008 58.6322 -83.1603 -107.664 57.694 
-82.721 -108.222 61.7387 -82.5688 -108.409 62.667 -83.0278 -107.994 60.539 
-83.5883 -108.083 59.2197 -83.8506 -107.897 58.197 -83.7351 -107.196 57.5126 
-83.2714 -108.059 62.462 -83.0882 -108.043 63.3246 -83.5436 -107.927 61.2246 
-84.1086 -108.008 59.9023 -84.4927 -108.021 58.8127 -84.3566 -107.405 57.9875 
-84.1886 -106.689 57.1044 -83.7251 -107.849 62.9693 -83.5091 -107.731 63.7264 
-83.916 -107.784 61.802 -84.2883 -107.71 60.5851 -84.664 -107.699 59.5445 
-84.6976 -107.331 58.5858 -84.5548 -106.664 57.5734 -84.5988 -106.245 56.4932 
-83.8612 -107.413 63.1824 -83.6782 -107.318 63.8721 -83.9949 -107.377 62.1158 
-84.2088 -107.238 61.0495 -84.4746 -107.098 60.1759 -84.6901 -106.859 59.2218 
-84.7838 -106.431 58.0787 -84.8693 -106.055 56.9269 -85.0018 -105.824 55.8979 
-83.907 -106.782 63.3115 -83.8004 -106.764 63.9578 -83.9922 -106.717 62.3448 
-84.1725 -106.623 61.3873 -84.413 -106.523 60.6391 -84.708 -106.354 59.7866 
-84.9846 -106.072 58.6048 -85.1353 -105.784 57.361 -85.2251 -105.559 56.284 
-85.2692 -105.307 55.3835 -84.0539 -106.146 63.6791 -84.0979 -106.078 62.8212 
-84.2923 -105.566 63.1544 -84.436 -105.551 62.2485 -84.4772 -105.147 62.3656 
-84.2722 -106.011 61.8611 -84.7472 -105.152 61.5149 -84.6032 -104.583 61.4911 
-84.7711 -105.576 61.4076 -84.5875 -106.02 61.0813 -84.9317 -104.401 60.6799 
-84.7836 -103.7 60.7253 -85.1589 -105.093 60.7057 -85.2272 -105.619 60.6211 
-84.9673 -105.987 60.2787 -85.1574 -103.408 59.9454 -84.9702 -102.884 60.0064 
-85.3171 -104.171 59.8744 -85.5456 -104.954 59.784 -85.5707 -105.475 59.5229 
-85.2932 -105.764 59.0746 -85.3256 -102.692 59.2351 -84.9337 -102.369 59.2068 
-85.4616 -103.202 59.1113 -85.4737 -103.926 58.8187 -85.5313 -104.614 58.4603 
-85.5447 -105.082 58.0672 -85.397 -105.438 57.676 -85.1643 -102.245 58.3867 
-84.7094 -101.961 58.4048 -85.4737 -102.531 58.2288 -85.4992 -102.98 57.7977 
-85.3972 -103.561 57.284 -85.3888 -104.111 56.931 -85.4523 -104.636 56.686 
-85.409 -105.147 56.4648 -84.8508 -101.806 57.5376 -84.5717 -101.468 57.7343 
-85.1868 -102.038 57.2632 -85.5177 -102.294 56.8026 -85.7681 -102.713 56.2394 
-85.8668 -103.192 55.8681 -85.8119 -103.694 55.7247 -85.6604 -104.288 55.6087 
-85.4674 -104.865 55.4813 -84.7236 -101.274 56.8644 -84.6092 -100.879 57.194 
-84.9009 -101.578 56.4947 -85.2981 -101.802 56.0954 -85.963 -102.147 55.6588 
-86.6091 -102.615 55.2977 -86.784 -103.042 55.0955 -86.4065 -103.497 54.9359 
-85.8447 -104.046 54.7711 -85.4321 -104.568 54.6774 -85.1418 -104.444 54.0055 
-85.5351 -103.994 54.0333 -85.0763 -103.986 53.4064 -86.2767 -103.521 54.2336 
-85.5902 -103.565 53.5104 -85.0313 -103.533 52.8722 -87.0494 -103.103 54.5827 
-86.2953 -103.156 53.8598 -85.4399 -103.067 53.027 -84.9051 -102.828 52.3486 
-87.1802 -102.712 54.9014 -86.6454 -102.762 54.3073 -85.6759 -102.57 53.3385 
-85.1002 -102.243 52.4896 -84.5293 -101.954 51.8759 -86.5051 -102.176 55.1558 
-86.359 -102.217 54.6199 -85.6129 -101.993 53.587 -85.1307 -101.612 52.6287 
-84.6917 -101.323 51.9998 -84.0136 -101.186 51.4013 -85.6168 -101.628 55.4038 
-85.8227 -101.495 54.8238 -85.5722 -101.232 53.776 -85.251 -100.899 52.6918 
-84.9242 -100.689 52.0464 -84.3303 -100.584 51.3885 -83.7847 -100.54 50.6666 
-85.0547 -101.274 55.6732 -85.391 -100.931 55.0129 -85.5794 -100.516 54.0802 
-85.4475 -100.167 52.9353 -85.0976 -100.046 52.1502 -84.5976 -100.031 51.4506 
-84.1545 -99.9918 50.5467 -83.8516 -99.9938 49.8634 -84.8443 -100.941 56.0268 
-85.0886 -100.562 55.2644 -85.3416 -100.103 54.4587 -85.3267 -99.6784 53.4322 
-84.9623 -99.5001 52.4767 -84.4768 -99.5055 51.6949 -84.1501 -99.4982 50.8117 
-83.9789 -99.4941 49.9808 -83.7109 -99.5701 49.4913 -84.7554 -100.514 56.4369 
-84.8636 -100.178 55.6147 -84.9267 -99.8394 54.8251 -84.883 -99.4528 53.9703 
-84.6344 -99.1415 52.9879 -84.23 -99.0188 52.0362 -83.8906 -98.9991 51.1998 
-83.705 -99.0111 50.4872 -83.5106 -99.0769 49.9431 -83.1673 -99.1887 49.5449 
-84.8572 -104.541 53.5614 -84.7511 -104.096 52.9361 -84.5722 -104.705 52.9994 
-84.6016 -103.457 52.3776 -84.3782 -104.157 52.3803 -84.1428 -104.829 52.3352 
-84.2954 -102.581 51.8221 -83.9692 -103.239 51.9061 -83.7255 -104.021 51.877 
-83.4639 -104.737 51.8444 -83.8197 -101.8 51.3079 -83.5797 -102.388 51.3235 
-83.1862 -102.949 51.5501 -82.8763 -103.679 51.6566 -82.5871 -104.433 51.6638 
-83.4619 -101.129 50.7766 -83.305 -101.812 50.747 -82.9868 -102.356 50.8343 
-82.4705 -102.785 51.2621 -82.0947 -103.412 51.5278 -81.7371 -104.133 51.5366 
-83.4314 -100.479 50.085 -83.0521 -101.136 50.3141 -82.7614 -101.881 50.2145 
-82.34 -102.48 50.2896 -81.8913 -102.924 50.7823 -81.5262 -103.426 51.1421 
-81.0709 -103.972 51.2789 -83.401 -99.982 49.4767 -82.8288 -100.472 49.8094 
-82.2997 -101.118 49.9462 -81.9616 -101.958 49.7148 -81.7216 -102.765 49.6869 
-81.4516 -103.264 50.0923 -81.0232 -103.541 50.6066 -80.474 -103.867 51.0148 
-83.0354 -99.5921 49.2283 -82.5849 -100.033 49.2795 -81.9732 -100.5 49.5569 
-81.5426 -101.173 49.5964 -81.3954 -102.181 49.2977 -81.2787 -103.122 49.1297 
-80.9317 -103.502 49.4987 -80.3791 -103.531 50.2405 -79.8449 -103.735 50.872 
-82.4465 -98.9595 49.3455 -82.2953 -99.4456 48.9858 -81.8262 -98.5753 48.9937 
-81.6789 -99.2122 48.7235 -81.2674 -98.1765 48.7597 -81.9052 -99.9985 48.9727 
-80.9304 -99.0401 48.6863 -80.3856 -98.0689 48.8388 -81.3412 -99.9884 48.7166 
-81.432 -100.553 49.2309 -79.8251 -99.0963 48.8129 -79.4799 -98.3429 49.0432 
-80.387 -100.018 48.6081 -80.8964 -100.718 48.9273 -81.1385 -101.365 49.2861 
-79.0241 -99.321 48.987 -78.9545 -98.7727 49.326 -79.1983 -100.068 48.5991 
-79.7893 -100.846 48.6567 -80.4848 -101.662 48.9417 -80.959 -102.542 48.9203 
-78.4624 -99.5387 49.2782 -78.1914 -99.1164 49.5991 -78.5434 -100.15 48.8625 
-78.7076 -100.901 48.655 -79.2834 -101.839 48.6999 -80.0304 -102.818 48.6236 
-80.5983 -103.403 48.7436 -77.4055 -99.6872 49.4303 -77.0406 -99.338 49.6329 
-77.876 -100.262 49.2596 -78.1402 -101.007 49.0635 -78.3262 -101.928 48.8664 
-78.8102 -102.894 48.6467 -79.4788 -103.44 48.7062 -80.0277 -103.508 49.3525 
-76.343 -99.8449 49.4524 -76.2487 -99.5575 49.7027 -76.8294 -100.374 49.4471 
-77.4184 -101.12 49.46 -77.6997 -101.988 49.2776 -77.9064 -102.874 48.9831 
-78.3925 -103.395 48.9978 -78.9912 -103.425 49.5642 -79.482 -103.44 50.3273 
-75.9023 -100.075 49.7949 -75.9826 -99.8404 50.1717 -76.11 -100.509 49.6927 
-76.6071 -101.17 49.7336 -77.0061 -101.94 49.6451 -77.1964 -102.74 49.3978 
-77.5452 -103.341 49.3722 -78.1198 -103.488 49.8465 -78.6663 -103.484 50.5135 
-79.1045 -103.758 50.954 -82.6863 -98.6856 49.9219 -82.0262 -98.3093 49.5364 
-82.3255 -98.1528 50.1026 -81.8503 -97.6928 49.5194 -82.2374 -97.6277 50.1753 
-81.5605 -97.7801 48.977 -81.7807 -97.1295 49.7751 -82.0469 -97.2631 50.6211 
-81.4026 -97.139 48.9807 -80.9198 -97.3804 48.6999 -81.3846 -96.8216 50.5616 
-81.5615 -97.3172 51.261 -81.0315 -96.6217 49.6475 -80.4403 -96.8312 48.866 
-79.9007 -97.4226 48.8109 -80.7988 -97.087 51.1674 -81.0928 -97.57 51.797 
-80.4088 -96.5613 50.6211 -79.8016 -96.5027 49.7114 -79.3277 -97.0084 49.0592 
-79.1583 -97.878 49.134 -80.3257 -97.5123 51.6638 -80.6962 -97.5218 52.6701 
-79.916 -97.1673 51.1309 -79.3403 -96.7751 50.5906 -78.8471 -96.878 49.8483 
-78.7124 -97.5925 49.5182 -78.6117 -98.4591 49.6168 -79.8785 -97.5386 52.7069 
-80.2377 -97.3175 53.8322 -79.5234 -97.6548 51.8041 -79.0503 -97.4233 51.2174 
-78.5368 -97.1873 50.6576 -78.2416 -97.5079 50.2229 -78.0663 -98.2476 50.0835 
-77.6547 -98.8919 49.9314 -79.4531 -97.4276 53.8571 -79.8183 -97.393 54.631 
-79.0758 -97.5872 52.9908 -78.6099 -97.6011 52.2062 -78.0918 -97.4569 51.4761 
-77.7099 -97.5517 50.8913 -77.4911 -98.0592 50.6123 -77.2019 -98.6776 50.4056 
-76.7246 -99.1643 50.0373 -79.1474 -97.5759 54.5146 -79.5269 -97.7587 54.958 
-78.6918 -97.475 53.9868 -78.119 -97.3892 53.3772 -77.5224 -97.3452 52.5714 
[...]
CELL_DATA 2000
SCALARS Distance double
LOOKUP_TABLE default
145.716 145.855 145.585 145.164 145.961 145.703 145.238 144.968 144.516 
145.962 145.747 145.239 144.987 144.49 144.289 143.868 145.887 145.699 
145.197 144.952 144.43 144.22 143.777 143.626 143.205 145.805 145.632 
145.167 144.92 144.406 144.162 143.69 143.516 143.081 142.921 142.465 
145.709 145.568 145.124 144.896 144.369 144.127 143.619 143.428 142.955 
142.782 142.31 142.152 141.724 145.562 145.469 145.044 144.84 144.301 
144.059 143.542 143.345 142.881 142.682 142.205 142.005 141.57 141.446 
141.108 145.307 145.283 144.892 144.747 144.262 144.021 143.554 143.318 
142.919 142.679 142.252 141.977 141.534 141.327 140.969 140.873 140.576 
144.904 144.953 144.597 144.561 144.168 144.015 143.624 143.405 143.038 
142.788 142.382 142.086 141.63 141.353 140.948 140.771 140.444 140.345 
140.033 146.043 146.522 146.252 146.194 147.083 146.74 146.695 146.42 
146.338 147.789 147.344 147.214 146.908 146.84 146.545 146.382 148.397 
147.999 147.759 147.42 147.326 147.052 146.94 146.565 146.332 148.771 
148.482 148.248 147.924 147.854 147.595 147.577 147.195 146.992 146.504 
146.232 149.107 148.862 148.727 148.402 148.359 148.136 148.187 147.886 
147.706 147.194 146.824 146.351 146.064 149.371 149.228 149.108 148.852 
148.701 148.533 148.463 148.34 148.114 147.78 147.303 146.859 146.433 
146.11 145.848 149.335 149.344 149.124 149.031 148.711 148.636 148.356 
148.35 148.039 147.926 147.451 147.162 146.672 146.387 146.056 145.84 
145.577 149.069 149.125 148.826 148.817 148.438 148.425 148.097 148.103 
147.815 147.758 147.4 147.206 146.79 146.545 146.189 145.985 145.687 
145.495 145.175 148.834 148.328 148.566 148.502 147.846 148.058 147.979 
148.185 148.13 147.303 147.605 147.63 147.791 147.769 147.902 147.883 
146.537 146.981 147.099 147.446 147.525 147.687 147.668 147.731 147.658 
145.713 146.155 146.252 146.753 146.879 147.305 147.315 147.515 147.355 
147.434 147.234 144.991 145.378 145.427 145.859 145.89 146.41 146.366 
146.846 146.647 146.956 146.67 146.868 146.618 144.256 144.66 144.671 
145.051 144.96 145.367 145.197 145.676 145.455 145.947 145.705 146.119 
145.901 146.2 146.017 143.499 143.884 143.843 144.227 144.098 144.452 
144.291 144.629 144.5 144.846 144.758 145.124 145.05 145.412 145.316 
145.621 145.494 142.825 143.135 143.062 143.385 143.282 143.612 143.582 
143.908 144.006 144.26 144.393 144.544 144.605 144.744 144.713 144.923 
144.828 145.094 144.967 144.563 144.452 144.314 143.947 144.479 144.313 
143.991 143.763 143.411 144.566 144.471 144.233 143.92 143.497 143.216 
142.762 144.418 144.531 144.338 144.136 143.582 143.256 142.633 142.421 
141.834 143.887 144.166 143.937 143.996 143.349 143.137 142.355 142.177 
141.52 141.39 140.79 143.264 143.471 143.183 143.37 142.787 142.708 
141.935 141.794 141.158 141.062 140.506 140.364 139.836 142.869 142.881 
142.555 142.651 142.213 142.163 141.538 141.389 140.813 140.722 140.233 
140.114 139.612 139.476 139.056 142.659 142.568 142.207 142.182 141.808 
141.744 141.236 141.081 140.518 140.399 139.895 139.821 139.337 139.248 
138.819 138.764 138.448 142.465 142.372 141.979 141.904 141.506 141.435 
140.968 140.833 140.28 140.12 139.571 139.464 138.974 138.921 138.502 
138.489 138.156 138.171 137.884 144.526 143.887 144.216 144.239 143.302 
143.595 143.619 143.934 143.9 142.611 142.956 142.918 143.289 143.274 
143.57 143.448 141.674 142.11 141.97 142.434 142.337 142.807 142.705 
143.049 142.858 140.647 141.087 140.937 141.385 141.223 141.712 141.575 
142.098 141.952 142.368 142.141 139.719 140.105 140.036 140.428 140.34 
140.688 140.56 140.957 140.855 141.327 141.203 141.602 141.387 138.973 
139.276 139.231 139.605 139.581 139.924 139.842 140.129 140.047 140.375 
140.334 140.69 140.6 140.898 140.736 138.389 138.621 138.525 138.832 
138.746 139.12 139.033 139.411 139.361 139.709 139.704 140.001 139.964 
140.206 140.098 140.33 140.214 137.826 138.054 137.915 138.154 138.005 
138.289 138.18 138.549 138.554 138.987 139.069 139.438 139.444 139.672 
139.549 139.732 139.587 139.837 139.755 137.41 136.719 137.232 137.509 
136.018 136.554 136.909 137.351 137.609 135.399 135.916 136.362 136.819 
137.154 137.501 137.788 134.932 135.342 135.786 136.288 136.717 137.125 
137.486 137.802 138.198 134.801 134.987 135.298 135.687 136.088 136.615 
137.074 137.537 137.993 138.338 138.777 134.786 134.922 135.123 135.313 
135.598 135.984 136.447 137.009 137.536 138.057 138.483 138.857 139.155 
134.446 134.724 134.902 135.165 135.437 135.681 136.077 136.457 136.967 
137.483 137.917 138.395 138.65 139.036 139.202 134.038 134.255 134.447 
134.817 135.175 135.533 135.927 136.228 136.636 136.995 137.387 137.792 
138.066 138.446 138.638 139.008 139.211 134.044 134.024 134.232 134.437 
134.848 135.217 135.661 136.014 136.366 136.687 137.006 137.346 137.641 
137.956 138.21 138.513 138.784 139.111 139.406 137.207 136.643 136.769 
136.46 136.149 136.191 135.814 135.957 135.682 135.829 135.757 135.329 
135.344 134.986 135.18 135 135.699 135.515 135.041 134.927 134.478 
134.523 134.272 134.554 134.543 135.751 135.477 134.989 134.737 134.242 
134.097 133.78 133.911 133.942 134.292 134.495 135.877 135.604 135.193 
134.852 134.419 134.061 133.733 133.598 133.622 133.836 134.115 134.424 
134.593 135.962 135.747 135.439 135.158 134.831 134.433 134.109 133.767 
133.683 133.674 133.882 134.109 134.27 134.446 134.361 136.057 135.851 
135.58 135.383 135.087 134.817 134.451 134.141 133.872 133.755 133.758 
133.894 134.001 134.15 134.111 134.146 134.015 136.235 135.997 135.713 
135.502 135.173 134.955 134.544 134.31 133.932 133.804 133.65 133.721 
133.772 133.917 133.981 134.027 134.035 133.988 134.03 142.215 141.623 
141.853 141.71 140.959 141.206 141.036 141.31 141.181 140.281 140.516 
140.317 140.59 140.428 140.745 140.603 139.587 139.813 139.587 139.856 
139.668 139.967 139.786 140.105 139.917 138.907 139.101 138.836 139.096 
138.896 139.199 139.004 139.291 139.066 139.372 139.187 138.29 138.45 
138.183 138.374 138.167 138.429 138.248 138.52 138.296 138.554 138.342 
138.668 138.562 137.67 137.848 137.606 137.78 137.569 137.765 137.567 
137.789 137.57 137.805 137.597 137.875 137.763 138.124 138.117 137.053 
137.221 136.973 137.181 136.962 137.176 136.945 137.14 136.884 137.093 
136.871 137.14 137.018 137.363 137.358 137.751 137.803 136.553 136.648 
136.39 136.548 136.325 136.532 136.299 136.497 136.223 136.415 136.165 
136.413 136.261 136.598 136.557 136.973 137.016 137.453 137.519 142.405 
142.497 142.258 141.838 142.598 142.346 141.926 141.657 141.196 142.709 
142.447 141.999 141.73 141.258 140.993 140.522 142.76 142.527 142.046 
141.781 141.285 141.032 140.563 140.319 139.852 142.736 142.53 142.059 
141.809 141.303 141.045 140.573 140.345 139.901 139.653 139.195 142.71 
142.496 142.043 141.812 141.326 141.067 140.579 140.342 139.887 139.673 
139.221 138.99 138.542 142.699 142.476 142.011 141.793 141.322 141.086 
140.597 140.348 139.861 139.635 139.167 138.966 138.513 138.32 137.89 
142.652 142.448 141.968 141.753 141.276 141.064 140.59 140.359 139.881 
139.631 139.165 138.926 138.492 138.28 137.872 137.676 137.288 142.555 
142.382 141.914 141.704 141.222 141.008 140.539 140.333 139.887 139.666 
139.24 138.989 138.585 138.327 137.952 137.71 137.356 137.131 136.801 
142.344 141.815 141.964 141.708 141.191 141.383 141.099 141.275 140.999 
140.409 140.669 140.364 140.602 140.317 140.537 140.29 139.571 139.835 
139.559 139.828 139.573 139.822 139.6 139.848 139.65 138.918 139.074 
138.852 139.073 138.873 139.103 138.917 139.165 139.006 139.244 139.054 
138.5 138.549 138.302 138.448 138.239 138.442 138.246 138.49 138.33 
138.598 138.434 138.652 138.433 138.109 138.159 137.832 137.926 137.647 
137.814 137.578 137.807 137.615 137.894 137.731 138.003 137.811 138.023 
137.799 137.577 137.696 137.366 137.453 137.16 137.26 137.03 137.18 
137 137.205 137.044 137.29 137.122 137.37 137.177 137.394 137.193 
136.988 137.131 136.881 136.998 136.776 136.851 136.662 136.74 136.588 
136.697 136.539 136.68 136.498 136.694 136.516 136.75 136.577 136.803 
136.636 136.617 136.145 136.423 136.544 135.651 135.957 136.073 136.382 
136.496 135.029 135.388 135.492 135.871 136.008 136.324 136.414 134.504 
134.787 134.912 135.258 135.418 135.788 135.934 136.244 136.34 134.306 
134.442 134.627 134.813 134.976 135.234 135.38 135.71 135.828 136.149 
136.239 134.363 134.393 134.55 134.648 134.737 134.878 134.888 135.132 
135.152 135.519 135.588 135.988 136.106 134.484 134.461 134.458 134.517 
134.441 134.562 134.394 134.579 134.435 134.765 134.784 135.241 135.401 
135.867 136.081 134.454 134.466 134.325 134.34 134.141 134.182 133.947 
134.038 133.868 134.08 134.123 134.498 134.746 135.192 135.494 135.918 
136.179 134.216 134.288 134.149 134.174 134.014 133.966 133.789 133.729 
133.642 133.69 133.827 134.048 134.387 134.711 135.085 135.422 135.721 
136.055 136.286 136.623 136.663 136.448 136.164 136.946 136.617 136.254 
136.016 135.691 137.175 136.911 136.484 136.156 135.681 135.454 135.056 
137.202 137.011 136.559 136.297 135.73 135.442 134.92 134.761 134.451 
137.359 137.033 136.576 136.294 135.787 135.486 134.97 134.693 134.33 
134.248 134.165 137.786 137.335 136.884 136.452 136.058 135.675 135.306 
134.902 134.554 134.259 134.131 134.12 134.232 138.173 137.795 137.387 
136.927 136.587 136.15 135.88 135.418 135.096 134.634 134.415 134.207 
134.275 134.312 134.467 138.418 138.131 137.802 137.436 137.124 136.734 
136.462 136.044 135.716 135.229 134.919 134.566 134.515 134.433 134.55 
134.547 134.552 138.697 138.406 138.147 137.832 137.559 137.218 136.935 
136.569 136.253 135.818 135.506 135.093 134.957 134.731 134.767 134.668 
134.638 134.525 134.355 136.996 137.678 137.191 137.032 138.486 137.955 
137.767 137.331 137.291 139.374 138.827 138.646 138.117 137.974 137.584 
137.504 140.391 139.8 139.671 139.064 138.851 138.29 138.094 137.698 
137.562 141.493 140.88 140.76 140.142 139.95 139.266 139.003 138.392 
138.248 137.813 137.78 142.54 141.965 141.799 141.208 141.034 140.394 
140.156 139.45 139.257 138.667 138.647 138.195 138.225 143.454 142.963 
142.821 142.233 142.049 141.441 141.244 140.599 140.384 139.749 139.613 
139.101 139.049 138.625 138.563 144.229 143.837 143.793 143.268 143.13 
142.499 142.304 141.656 141.437 140.81 140.592 140.03 139.857 139.388 
139.254 138.853 138.751 144.903 144.578 144.591 144.198 144.136 143.593 
143.411 142.753 142.501 141.833 141.578 140.964 140.744 140.199 140.033 
139.557 139.451 139.045 139.004 145.275 145.725 145.32 144.962 146.121 
145.729 145.334 144.971 144.539 146.386 146.041 145.582 145.266 144.803 
144.439 143.854 146.455 146.194 145.692 145.425 144.933 144.628 144.032 
143.622 142.928 146.347 146.159 145.658 145.452 144.966 144.714 144.135 
143.759 143.059 142.638 141.956 146.207 146.031 145.547 145.363 144.896 
144.706 144.17 143.851 143.176 142.762 142.076 141.691 141.094 146.099 
145.932 145.464 145.256 144.781 144.606 144.108 143.862 143.245 142.88 
142.228 141.839 141.251 140.89 140.376 145.953 145.831 145.382 145.181 
144.69 144.498 144.023 143.808 143.267 142.95 142.357 142 141.453 
141.093 140.592 140.235 139.787 145.756 145.665 145.236 145.074 144.594 
144.411 143.958 143.763 143.289 143.009 142.468 142.132 141.61 141.288 
140.821 140.485 140.046 139.705 139.328 145.516 144.931 145.152 144.964 
144.314 144.533 144.338 144.548 144.34 143.701 143.92 143.727 143.925 
143.721 143.927 143.728 143.018 143.272 143.037 143.272 143.027 143.277 
143.054 143.299 143.056 142.262 142.531 142.253 142.505 142.203 142.49 
142.221 142.534 142.261 142.537 142.23 141.566 141.791 141.539 141.731 
141.435 141.655 141.38 141.658 141.394 141.684 141.402 141.671 141.387 
140.994 141.175 140.961 141.099 140.824 140.968 140.7 140.892 140.641 
140.865 140.615 140.862 140.622 140.878 140.634 140.457 140.64 140.424 
140.563 140.271 140.394 140.097 140.259 139.991 140.181 139.926 140.136 
139.907 140.146 139.927 140.159 139.908 139.884 140.076 139.85 140.014 
139.725 139.843 139.528 139.659 139.373 139.542 139.283 139.476 139.245 
139.466 139.264 139.486 139.269 139.459 139.22 138.821 138.855 138.647 
138.264 138.845 138.654 138.242 138.061 137.673 138.816 138.617 138.193 
138.01 137.586 137.431 137.035 138.852 138.615 138.2 137.976 137.557 
137.352 136.932 136.77 136.355 138.961 138.699 138.307 138.045 137.652 
137.388 136.995 136.744 136.339 136.112 135.698 139.129 138.847 138.472 
138.194 137.791 137.511 137.112 136.859 136.493 136.225 135.861 135.561 
135.233 139.313 139.033 138.651 138.372 137.953 137.649 137.2 136.942 
136.564 136.369 136.034 135.795 135.46 135.198 134.958 139.425 139.178 
138.773 138.527 138.124 137.829 137.393 137.068 136.679 136.434 136.115 
135.91 135.546 135.336 134.974 134.859 134.638 139.481 139.25 138.846 
138.617 138.252 138.005 137.649 137.332 136.984 136.657 136.357 136.06 
135.716 135.406 134.983 134.761 134.421 134.413 134.243 149.134 149.332 
149.187 148.965 149.304 149.273 149.054 148.891 148.65 149.083 149.137 
148.956 148.904 148.765 148.674 148.63 148.892 148.959 148.835 148.778 
148.646 148.685 148.703 148.739 148.693 148.603 148.809 148.743 148.703 
148.482 148.483 148.392 148.574 148.521 148.605 148.322 147.936 148.35 
148.322 148.509 148.276 148.29 148.075 148.176 148.077 148.24 148.049 
148.047 147.66 147.137 147.544 147.535 147.898 147.777 147.968 147.8 
147.892 147.779 147.863 147.735 147.759 147.488 147.391 147.002 146.543 
146.815 146.812 147.125 147.088 147.378 147.303 147.533 147.443 147.597 
147.452 147.507 147.245 147.203 146.827 146.723 146.302 146.068 146.297 
146.273 146.516 146.463 146.722 146.633 146.923 146.813 147.103 146.931 
147.127 146.843 146.906 146.528 146.492 146.08 145.994 145.594 148.962 
148.749 148.8 148.586 148.408 148.434 148.187 148.289 148.02 148.395 
148.197 147.866 147.83 147.561 147.65 147.345 148.484 148.295 147.889 
147.658 147.304 147.243 146.959 146.972 146.621 148.107 148.181 147.752 
147.649 147.204 147.09 146.723 146.653 146.272 146.227 145.819 147.426 
147.599 147.195 147.274 146.832 146.865 146.459 146.431 145.989 145.901 
145.438 145.401 145.011 146.784 146.94 146.599 146.681 146.295 146.367 
145.991 146.05 145.624 145.591 145.101 145.036 144.61 144.621 144.298 
146.114 146.318 146.022 146.148 145.792 145.858 145.461 145.523 145.09 
145.132 144.655 144.656 144.207 144.225 143.873 143.936 143.641 145.414 
145.626 145.346 145.538 145.19 145.319 144.879 144.955 144.462 144.535 
144.053 144.131 143.701 143.775 143.419 143.499 143.2 143.28 142.992 
148.826 148.566 148.643 148.413 148.059 148.307 148.143 148.172 147.875 
147.35 147.693 147.539 147.742 147.443 147.548 147.217 146.581 146.937 
146.772 147.031 146.752 146.962 146.654 146.804 146.446 145.794 146.162 
146.036 146.29 146.056 146.258 146.016 146.202 145.914 146.008 145.657 
145.015 145.38 145.301 145.588 145.394 145.607 145.383 145.589 145.337 
145.477 145.139 145.225 144.893 144.306 144.634 144.55 144.851 144.66 
144.915 144.67 144.923 144.661 144.869 144.528 144.658 144.289 144.438 
144.133 143.635 143.938 143.821 144.105 143.899 144.152 143.897 144.159 
143.911 144.16 143.87 144.03 143.686 143.815 143.511 143.679 143.418 
142.967 143.249 143.107 143.377 143.172 143.41 143.17 143.404 143.184 
143.429 143.211 143.403 143.135 143.257 142.983 143.107 142.874 143.016 
142.786 137.224 137.868 137.658 137.917 138.43 138.308 138.576 138.394 
138.687 138.808 138.788 139.101 139.012 139.302 139.159 139.506 139.235 
139.174 139.579 139.527 139.928 139.794 140.186 140.042 140.501 139.94 
139.759 140.249 140.13 140.652 140.502 140.981 140.799 141.289 141.135 
141.639 140.786 140.58 141.053 140.903 141.391 141.259 141.695 141.566 
142 141.903 142.367 142.257 142.686 141.519 141.374 141.753 141.639 
142 141.903 142.217 142.142 142.474 142.461 142.865 142.868 143.272 
143.201 143.545 142.1 141.995 142.31 142.213 142.509 142.41 142.692 
142.595 142.924 142.878 143.306 143.307 143.755 143.718 144.086 143.985 
144.285 142.611 142.517 142.818 142.716 143.018 142.908 143.235 143.117 
143.506 143.409 143.884 143.827 144.329 144.256 144.678 144.545 144.865 
144.706 144.975 
POINT_DATA 1002
SCALARS Distance double
LOOKUP_TABLE default
145.329 145.843 145.978 145.45 146.139 144.712 145.522 146.223 144.744 
144.094 145.498 146.166 144.698 144.031 143.479 145.435 146.06 144.661 
143.932 143.37 142.768 145.401 145.955 144.666 143.895 143.247 142.627 
142.001 145.351 145.822 144.622 143.822 143.144 142.475 141.829 141.343 
145.235 145.631 144.548 143.735 143.071 142.428 141.714 141.169 140.813 
144.984 145.305 144.46 143.78 143.15 142.538 141.791 141.1 140.639 
140.278 144.569 144.838 144.239 143.808 143.288 142.678 141.932 141.17 
140.575 140.118 139.704 146.312 146.468 146.789 146.964 147.496 146.656 
147.573 148.3 147.109 146.759 148.125 148.768 147.581 147.293 146.77 
148.554 148.991 148.068 147.916 147.525 146.684 149.042 149.29 148.587 
148.427 148.22 147.373 146.416 149.355 149.469 148.93 148.588 148.375 
147.749 146.789 146.094 149.208 149.33 148.812 148.393 148.088 147.656 
146.95 146.28 145.796 148.838 149.04 148.433 148.071 147.829 147.531 
147.015 146.407 145.882 145.384 148.624 148.237 148.125 147.814 147.601 
147.887 147.403 146.908 147.673 147.75 146.633 146.071 147.264 147.642 
147.615 145.762 145.309 146.363 147.013 147.293 147.159 145.066 144.599 
145.455 145.855 146.234 146.419 146.434 144.315 143.856 144.634 144.795 
144.944 145.192 145.508 145.763 143.482 143.159 143.735 143.929 144.153 
144.408 144.677 144.968 145.219 142.765 142.551 142.939 143.176 143.645 
144.222 144.551 144.589 144.586 144.682 144.171 144.09 143.581 144.265 
143.621 143.032 144.56 143.877 142.997 142.259 144.481 143.973 142.897 
142.008 141.237 143.795 143.534 142.542 141.627 140.927 140.207 142.974 
142.781 142.049 141.215 140.632 139.96 139.341 142.495 142.198 141.662 
140.906 140.318 139.75 139.127 138.701 142.273 141.854 141.373 140.675 
139.972 139.394 138.869 138.463 138.181 142.081 141.586 141.08 140.454 
139.713 139.027 138.5 138.137 137.87 137.601 143.909 143.296 143.654 
142.543 142.918 143.251 141.528 141.841 142.254 142.611 140.498 140.786 
141.042 141.43 141.815 139.611 140 140.237 140.401 140.735 141.059 
138.877 139.206 139.538 139.752 139.991 140.277 140.465 138.285 138.415 
138.617 138.946 139.385 139.738 139.878 139.951 137.698 137.764 137.838 
138.087 138.63 139.193 139.402 139.37 139.443 136.933 137.064 136.161 
136.436 135.458 137.227 135.855 134.885 136.795 137.441 135.29 134.624 
136.217 137.139 137.88 135.049 134.732 135.558 136.491 137.594 138.508 
134.988 134.64 135.333 135.906 136.945 138.071 138.872 134.546 134.155 
135.176 135.805 136.522 137.437 138.245 138.836 134.067 133.893 134.731 
135.621 136.358 137.029 137.697 138.259 138.822 134.114 134.125 134.515 
135.3 136.064 136.677 137.313 137.915 138.46 139.07 137.088 136.285 
136.557 135.733 136.157 135.426 135.382 135.948 134.874 134.657 135.216 
135.934 134.525 134.037 134.122 135.282 136.038 134.472 133.732 133.575 
134.131 135.493 136.102 134.804 133.982 133.489 133.804 134.411 135.649 
136.139 135.178 134.513 133.833 133.73 134.113 134.289 135.77 136.264 
135.325 134.762 134.079 133.705 133.842 134.05 133.997 135.958 136.485 
135.414 134.782 134.092 133.63 133.617 133.86 134.035 134.074 142.015 
141.465 141.391 140.763 140.725 140.879 140.061 140.059 140.128 140.278 
139.321 139.384 139.38 139.496 139.584 138.6 138.74 138.588 138.723 
138.795 138.82 138.013 138.118 137.937 137.978 138.045 138.049 138.159 
137.414 137.48 137.392 137.382 137.345 137.324 137.419 137.713 136.769 
136.912 136.738 136.758 136.698 136.613 136.678 136.958 137.403 142.65 
142.109 142.733 142.197 142.865 141.474 142.281 142.984 141.521 140.782 
142.318 142.981 141.543 140.793 140.116 142.293 142.934 141.568 140.8 
140.126 139.462 142.26 142.937 141.577 140.835 140.102 139.433 138.77 
142.232 142.928 141.542 140.848 140.109 139.372 138.698 138.074 142.186 
142.844 141.486 140.802 140.122 139.414 138.711 138.07 137.474 142.117 