# vtk DataFile Version 4.0
vtk output
ASCII
DATASET POLYDATA
POINTS 1002 float
-78.8665 -104.283 56.2283 -78.727 -104.223 56.9546 -78.936 -103.775 56.8014 
-79.1308 -103.768 55.9209 -79.4623 -103.441 56.3486 -78.8443 -104.068 55.4685 
-79.7206 -103.446 55.372 -80.4391 -103.437 55.6787 -79.1847 -103.598 55.0093 
-78.6611 -103.551 54.7975 -80.688 -103.452 54.7716 -81.4675 -103.614 55.0073 
-79.8502 -103.325 54.5063 -79.1056 -103.209 54.2666 -78.4977 -103.02 54.0457 
-81.5641 -103.447 54.2151 -82.1171 -103.422 54.4762 -80.7389 -103.235 54.0211 
-79.796 -102.983 53.7902 -79.0428 -102.835 53.4255 -78.4366 -102.83 52.9294 
-82.0455 -102.984 53.7669 -82.5302 -102.817 54.1109 -81.3999 -102.997 53.4763 
-80.5159 -102.842 53.2196 -79.6624 -102.698 52.8342 -79.0006 -102.721 52.2788 
-78.3159 -102.789 51.7789 -82.393 -102.375 53.4417 -82.9901 -102.329 53.7725 
-81.7338 -102.477 53.0648 -81.0079 -102.578 52.6575 -80.2245 -102.586 52.215 
-79.4988 -102.562 51.7271 -78.8192 -102.566 51.3029 -78.0565 -102.481 51.0518 
-82.8359 -102.056 53.0445 -83.4411 -102.055 53.3561 -82.0465 -102.053 52.7559 
-81.3141 -102.165 52.3574 -80.7127 -102.335 51.7999 -80.0237 -102.365 51.2593 
-79.2529 -102.28 50.8962 -78.5251 -102.196 50.6627 -77.8061 -102.105 50.4578 
-83.2344 -101.823 52.6002 -83.7089 -101.734 52.9885 -82.4549 -101.798 52.3396 
-81.6116 -101.785 52.066 -81.0869 -101.942 51.5387 -80.616 -102.101 50.8695 
-79.8236 -102.052 50.4304 -78.9652 -101.932 50.2266 -78.2815 -101.91 49.9901 
-77.6657 -101.954 49.6872 -83.4164 -101.437 52.3329 -83.784 -101.318 52.7623 
-82.7714 -101.447 52.0059 -81.914 -101.385 51.7257 -81.3174 -101.476 51.2531 
-81.0239 -101.735 50.5316 -80.4495 -101.854 49.9396 -79.5226 -101.752 49.7215 
-78.7079 -101.67 49.5904 -78.124 -101.728 49.2983 -77.5918 -101.825 48.984 
-78.6548 -103.844 57.5576 -79.0381 -103.507 57.3036 -78.8004 -103.643 58.0298 
-79.5382 -103.438 57.6701 -79.3239 -103.597 58.4694 -79.9669 -103.392 56.7528 
-80.319 -103.491 58.0486 -79.9628 -103.552 58.9432 -80.79 -103.515 57.1254 
-81.1813 -103.566 56.0408 -80.9336 -103.508 58.405 -80.4836 -103.484 59.2964 
-81.4853 -103.575 57.566 -81.8807 -103.591 56.5194 -82.054 -103.583 55.3759 
-81.3754 -103.339 58.6403 -81.0349 -103.38 59.5858 -81.8122 -103.356 57.9036 
-82.2322 -103.31 57.0451 -82.481 -103.242 55.8906 -82.5586 -103.123 54.849 
-81.8936 -103.021 58.9832 -81.613 -103.212 59.9922 -82.1849 -102.928 58.1563 
-82.5118 -102.875 57.394 -82.852 -102.844 56.3528 -83.0617 -102.803 55.2512 
-83.0852 -102.614 54.4276 -82.4113 -102.846 59.4731 -82.0304 -103.033 60.329 
-82.7739 -102.698 58.5863 -83.1057 -102.649 57.719 -83.4524 -102.709 56.6938 
-83.7224 -102.757 55.5834 -83.7624 -102.597 54.7078 -83.6258 -102.291 54.0271 
-82.8614 -102.792 59.8413 -82.339 -102.79 60.4157 -83.3306 -102.76 59.0952 
-83.7402 -102.714 58.1881 -84.1372 -102.745 57.1107 -84.4434 -102.809 55.958 
-84.4965 -102.655 55.0145 -84.2758 -102.262 54.3253 -83.9714 -101.916 53.6659 
-83.2811 -102.525 60.0287 -82.6452 -102.383 60.3825 -83.7527 -102.652 59.4622 
-84.0886 -102.67 58.6301 -84.4668 -102.618 57.5838 -84.8613 -102.59 56.4412 
-85.0544 -102.468 55.4292 -84.9083 -102.123 54.6855 -84.5102 -101.72 54.0584 
-84.1004 -101.461 53.3936 -83.3883 -101.895 60.2313 -83.9549 -102.058 59.8218 
-83.865 -101.263 60.0015 -84.1335 -101.339 59.35 -83.8118 -100.728 59.3924 
-84.1801 -102.173 59.0728 -83.9791 -100.732 58.5633 -83.6325 -100.436 58.5489 
-84.1837 -101.379 58.3789 -84.3818 -102.14 58.0494 -84.0351 -100.335 57.82 
-83.6011 -100.064 57.8371 -84.2545 -100.746 57.6107 -84.4873 -101.336 57.3036 
-84.8036 -102.036 56.9212 -84.0511 -99.8077 57.2359 -83.3858 -99.5172 57.2328 
-84.5031 -100.242 57.0215 -84.7257 -100.697 56.6618 -84.9865 -101.242 56.2752 
-85.2084 -101.922 55.8554 -83.6629 -99.2956 56.5912 -83.0197 -99.1029 56.6341 
-84.3651 -99.5953 56.4272 -84.8047 -100.034 56.1227 -85.0506 -100.556 55.7398 
-85.2928 -101.146 55.3557 -85.2905 -101.717 55.001 -83.2635 -98.9949 55.9215 
-82.8301 -98.7481 56.0874 -83.9144 -99.1078 55.7165 -84.5041 -99.297 55.4969 
-84.8461 -99.7849 55.2122 -85.1199 -100.476 54.8598 -85.2351 -101.048 54.5563 
-84.9728 -101.422 54.3098 -83.028 -98.6128 55.3019 -82.7189 -98.2517 55.5156 
-83.5099 -98.8173 55.0434 -84.0587 -98.9012 54.8294 -84.4579 -99.1385 54.6311 
-84.7672 -99.7374 54.3149 -84.9795 -100.435 53.9764 -84.8464 -100.878 53.7754 
-84.4573 -101.155 53.6123 -82.7346 -98.0879 54.6508 -82.4811 -97.7552 54.8486 
-83.0812 -98.4281 54.4178 -83.504 -98.7299 54.2112 -83.8913 -98.9618 54.0527 
-84.2666 -99.2465 53.7818 -84.6231 -99.7311 53.3601 -84.6742 -100.259 53.069 
-84.363 -100.642 52.9977 -84.0131 -100.966 52.9238 -83.5656 -100.919 52.3268 
-83.838 -100.517 52.343 -83.2466 -100.445 51.922 -84.235 -100.084 52.2377 
-83.6469 -100.039 51.7077 -82.8439 -100.059 51.4006 -84.4159 -99.6182 52.3348 
-84.0184 -99.5607 51.5057 -83.2896 -99.7096 51.0285 -82.4292 -99.7737 50.5934 
-84.0532 -99.3018 52.8073 -83.8539 -99.1972 51.7625 -83.4333 -99.2334 50.9122 
-82.7069 -99.3558 50.2805 -82.0724 -99.3005 49.6414 -83.4854 -99.1643 53.2614 
-83.1737 -99.107 52.3067 -83.0086 -98.8209 51.2339 -82.6591 -98.6829 50.2566 
-82.1384 -98.6307 49.5216 -81.6976 -98.5934 48.949 -83.1076 -98.8529 53.4556 
-82.6821 -98.8841 52.626 -82.5362 -98.4555 51.5991 -82.4642 -97.9434 50.4205 
-82.1656 -97.7529 49.4737 -81.7034 -97.7663 48.9348 -81.1911 -97.8896 48.5673 
-82.8167 -98.3115 53.5933 -82.524 -98.2699 52.7548 -82.4569 -97.9215 51.8187 
-82.4538 -97.3164 50.6801 -82.2319 -96.9937 49.5861 -81.7928 -96.9938 48.9067 
-81.2237 -97.0861 48.528 -80.6271 -97.2281 48.1659 -82.51 -97.8507 53.7809 
-82.3159 -97.6981 52.9057 -82.3703 -97.4186 52.0328 -82.4386 -96.9111 51.0449 
-82.17 -96.5619 50 -81.6947 -96.5235 49.192 -81.1847 -96.5293 48.6628 
-80.6302 -96.5375 48.1854 -80.114 -96.632 47.6998 -82.2493 -97.5621 53.983 
-82.0076 -97.4287 53.0906 -81.9982 -97.1979 52.2556 -82.1108 -96.7373 51.407 
-81.9085 -96.3275 50.4975 -81.3879 -96.228 49.6912 -80.8888 -96.2125 49.088 
-80.4526 -96.1318 48.5378 -80.0118 -96.1233 47.947 -79.6344 -96.2366 47.405 
-83.0553 -100.954 51.9753 -82.5232 -100.412 51.6605 -82.2638 -100.889 51.6345 
-82.0394 -100.019 51.0499 -81.7176 -100.35 51.2038 -81.5037 -100.901 51.1439 
-81.8131 -99.6815 49.9803 -81.4246 -99.9705 50.4001 -81.1859 -100.483 50.4837 
-81.1466 -101.176 50.3901 -81.6437 -99.1875 48.9459 -81.3336 -99.5752 49.2897 
-80.9287 -100.016 49.7337 -80.8017 -100.744 49.7343 -80.7676 -101.461 49.6471 
-81.1671 -98.6077 48.4443 -80.9974 -99.12 48.4659 -80.5319 -99.4315 48.9528 
-80.1687 -99.9637 49.3622 -80.0931 -100.8 49.2938 -79.9238 -101.455 49.3187 
-80.5001 -97.9488 48.1446 -80.3432 -98.6016 48.1025 -79.9645 -98.9551 48.316 
-79.5147 -99.221 48.8462 -79.3128 -99.8387 49.1588 -79.2218 -100.686 49.1557 
-79.0022 -101.322 49.2566 -79.9745 -97.2169 47.6414 -79.7883 -97.895 47.7104 
-79.4848 -98.4632 47.8143 -79.1079 -98.8439 48.0882 -78.8497 -99.2444 48.5389 
-78.7091 -99.8809 48.8763 -78.5496 -100.652 48.9809 -78.3477 -101.312 49.0492 
-79.5894 -96.6421 47.1433 -79.4742 -97.1943 47.1441 -79.2374 -97.8319 47.2726 
-78.9209 -98.4733 47.3931 -78.6505 -99.0317 47.6309 -78.4363 -99.4991 48.0888 
-78.2237 -100.024 48.5134 -78.0277 -100.711 48.6626 -77.8345 -101.394 48.7181 
-79.1446 -96.1962 47.0283 -79.1665 -96.6034 46.7034 -78.6369 -96.1532 46.6333 
-78.6668 -96.6922 46.2813 -78.0835 -96.027 46.093 -79.0719 -97.178 46.6785 
-78.0358 -96.8503 45.8823 -77.4886 -95.9789 45.6341 -78.5446 -97.391 46.2884 
-78.8078 -97.8936 46.8166 -77.2914 -97.0039 45.7589 -76.8556 -96.2067 45.7262 
-77.8202 -97.6453 46.1106 -78.2251 -98.1305 46.533 -78.4792 -98.6768 46.9533 
-76.4671 -97.1281 46.0297 -76.283 -96.5872 46.3021 -76.8961 -97.767 46.1679 
-77.3805 -98.3275 46.5001 -77.7987 -98.8973 46.7653 -78.1628 -99.3186 47.2479 
-75.8001 -97.2525 46.5027 -75.9054 -96.941 46.9731 -75.9296 -97.8513 46.3091 
-76.3489 -98.5495 46.4458 -76.8711 -99.1092 46.7226 -77.3928 -99.4813 47.1329 
-77.8612 -99.7213 47.8061 -75.4147 -97.4217 47.1172 -75.5457 -97.2354 47.6189 
-75.296 -97.9645 46.6593 -75.4566 -98.8246 46.4316 -75.942 -99.4626 46.6124 
-76.5543 -99.6569 47.1443 -77.1326 -99.8041 47.7604 -77.6284 -100.195 48.2691 
-74.9673 -97.6067 47.7513 -74.9278 -97.4249 48.138 -74.9296 -98.0604 47.3088 
-74.9497 -98.9194 46.883 -75.2294 -99.6986 46.7829 -75.7934 -99.8991 47.2483 
-76.4188 -99.9103 47.9109 -76.9637 -100.302 48.2718 -77.4366 -100.928 48.4326 
-74.2592 -97.7562 48.1425 -74.1342 -97.5027 48.4202 -74.4159 -98.1494 47.8862 
-74.5612 -98.853 47.6124 -74.7257 -99.6435 47.4103 -75.0806 -100.027 47.5933 
-75.6413 -100.094 48.1367 -76.2136 -100.428 48.4995 -76.7197 -101.079 48.5177 
-77.183 -101.609 48.6008 -79.3008 -95.9327 47.6697 -78.737 -95.8753 47.3078 
-78.9851 -95.6824 47.9812 -78.4484 -95.4908 47.4657 -78.8802 -95.2947 48.0806 
-78.2034 -95.5874 46.7267 -78.3714 -94.9811 47.4696 -78.855 -94.7665 48.2724 
-77.9686 -94.946 46.6145 -77.6804 -95.1473 45.9315 -78.2183 -94.5441 47.903 
-78.6235 -94.4654 48.8966 -77.8107 -94.4969 46.7561 -77.4091 -94.5154 45.8487 
-77.1178 -95.1272 45.5789 -77.8618 -94.4824 48.7899 -78.2987 -94.5537 49.6999 
-77.4397 -94.3752 47.6872 -77.0378 -94.426 46.5049 -76.7821 -94.8185 45.9835 
-76.5895 -95.6792 46.0965 -77.4996 -94.6202 49.6767 -78.0516 -94.6146 50.5814 
-76.9827 -94.4604 48.8215 -76.574 -94.5359 47.8021 -76.4008 -94.9177 47.0324 
-76.3774 -95.5484 46.8834 -76.2365 -96.3339 46.9488 -77.1252 -94.5268 50.6664 
-77.7486 -94.4631 51.5795 -76.5802 -94.4613 49.7638 -76.2443 -94.5689 48.9168 
-76.1428 -94.9923 48.1983 -76.1681 -95.5305 47.8568 -76.1277 -96.1938 47.753 
-75.9149 -96.8347 47.6658 -76.7325 -94.3663 51.6829 -77.3714 -94.4572 52.3338 
-76.1953 -94.3274 50.787 -75.9584 -94.5258 49.87 -75.973 -95.0383 49.1334 
-75.9824 -95.5589 48.7151 -75.8503 -96.0598 48.5095 -75.6339 -96.6573 48.3461 
-75.3326 -97.1406 48.2235 -76.4995 -94.5498 52.3038 -77.0793 -94.7865 52.6465 
-75.9757 -94.4123 51.6817 -75.7019 -94.5608 50.8638 -75.6956 -95.0787 50.0714 
[...]
CELL_DATA 2000
SCALARS Distance double
LOOKUP_TABLE default
141.346 141.095 141.173 141.052 141.105 140.972 140.784 140.785 140.498 
141.456 141.133 140.843 140.627 140.311 140.181 139.788 141.711 141.484 
141.128 140.81 140.402 140.119 139.71 139.508 139.12 141.532 141.512 
141.145 140.988 140.516 140.247 139.763 139.508 139.104 138.917 138.563 
141.228 141.203 140.835 140.799 140.362 140.237 139.754 139.549 139.102 
138.911 138.529 138.368 137.979 141.087 140.971 140.594 140.484 140.09 
140.004 139.616 139.492 139.079 138.894 138.472 138.298 137.893 137.736 
137.328 140.954 140.867 140.486 140.33 139.905 139.775 139.412 139.339 
139.006 138.871 138.464 138.251 137.817 137.634 137.249 137.1 136.76 
140.682 140.674 140.3 140.199 139.728 139.591 139.158 139.11 138.796 
138.765 138.427 138.261 137.828 137.597 137.189 137.024 136.703 136.587 
136.315 141.377 141.415 141.307 141.197 141.728 141.496 141.48 141.29 
141.319 142.255 141.975 142.048 141.785 141.907 141.632 141.741 142.724 
142.525 142.629 142.432 142.547 142.286 142.313 142.044 141.986 143.045 
142.896 142.926 142.858 142.875 142.76 142.649 142.463 142.264 142.056 
141.802 143.356 143.156 143.071 142.99 142.928 142.879 142.75 142.634 
142.438 142.254 142.033 141.788 141.544 143.687 143.473 143.379 143.177 
143.149 142.981 142.978 142.795 142.763 142.522 142.428 142.122 141.953 
141.621 141.421 143.906 143.803 143.817 143.606 143.656 143.401 143.478 
143.223 143.288 143.012 142.985 142.641 142.471 142.089 141.835 141.501 
141.254 143.919 143.982 144.088 144.026 144.068 143.908 143.891 143.715 
143.673 143.501 143.396 143.157 142.922 142.58 142.239 141.877 141.535 
141.246 140.954 143.883 143.793 143.981 144.123 143.288 143.686 143.832 
144.082 144.09 142.571 142.989 143.075 143.521 143.581 143.9 143.861 
141.98 142.308 142.375 142.724 142.796 143.206 143.288 143.623 143.61 
141.34 141.738 141.847 142.156 142.222 142.513 142.596 142.96 143.05 
143.365 143.323 140.558 141.006 141.109 141.553 141.607 141.967 141.98 
142.319 142.366 142.734 142.741 143.016 142.854 139.878 140.237 140.292 
140.717 140.739 141.185 141.166 141.601 141.603 142.03 142.03 142.374 
142.243 142.448 142.176 139.253 139.588 139.601 139.946 139.938 140.307 
140.281 140.694 140.697 141.171 141.193 141.625 141.527 141.801 141.553 
141.722 141.443 138.522 138.89 138.859 139.235 139.215 139.573 139.554 
139.894 139.882 140.272 140.282 140.728 140.675 141.042 140.846 141.083 
140.832 141.023 140.823 140.456 140.399 140.224 139.824 140.344 140.149 
139.703 139.554 139.132 140.164 140.03 139.54 139.409 138.984 138.856 
138.415 139.846 139.782 139.303 139.196 138.733 138.652 138.193 138.083 
137.576 139.519 139.473 139.037 138.931 138.413 138.323 137.778 137.729 
137.159 137.116 136.573 139.177 139.155 138.715 138.643 138.079 137.955 
137.305 137.218 136.582 136.572 136.004 136.048 135.568 138.771 138.752 
138.264 138.249 137.693 137.595 136.936 136.769 136.115 136.014 135.471 
135.471 135.01 135.063 134.628 138.38 138.312 137.794 137.764 137.267 
137.211 136.658 136.482 135.879 135.678 135.157 135.051 134.619 134.579 
134.151 134.148 133.719 138.067 137.956 137.455 137.362 136.911 136.847 
136.39 136.259 135.718 135.514 134.975 134.819 134.368 134.274 133.854 
133.771 133.354 133.306 132.943 140.377 139.728 140.049 139.98 138.993 
139.319 139.197 139.536 139.385 138.244 138.546 138.37 138.694 138.549 
138.9 138.811 137.441 137.777 137.603 137.894 137.769 138.1 138.088 
138.448 138.482 136.54 136.947 136.825 137.145 137.022 137.356 137.341 
137.743 137.798 138.178 138.154 135.605 136.051 135.982 136.348 136.189 
136.543 136.417 136.882 136.857 137.371 137.324 137.728 137.568 134.646 
135.117 135.066 135.484 135.316 135.654 135.433 135.843 135.729 136.279 
136.247 136.778 136.691 137.078 136.93 133.687 134.133 134.073 134.535 
134.42 134.783 134.598 134.91 134.79 135.199 135.208 135.705 135.736 
136.191 136.164 136.517 136.455 132.889 133.22 133.163 133.571 133.531 
133.919 133.851 134.168 134.122 134.432 134.461 134.828 134.895 135.305 
135.353 135.757 135.772 136.117 136.093 132.512 132.059 132.425 132.745 
131.572 131.997 132.336 132.717 133.095 131.055 131.535 131.98 132.356 
132.737 133.095 133.464 130.693 131.099 131.626 132.026 132.451 132.786 
133.164 133.484 133.826 130.586 130.821 131.262 131.661 132.088 132.477 
132.856 133.207 133.569 133.868 134.194 130.686 130.729 130.973 131.271 
131.647 132.065 132.455 132.857 133.217 133.578 133.914 134.232 134.566 
130.901 130.821 130.919 131.028 131.343 131.663 132.1 132.473 132.868 
133.21 133.553 133.896 134.251 134.603 134.98 131.01 130.979 131.028 
131.048 131.303 131.489 131.921 132.212 132.638 132.92 133.274 133.565 
133.935 134.278 134.693 135.043 135.431 130.857 130.958 131.01 131.111 
131.326 131.498 131.865 132.102 132.487 132.731 133.067 133.327 133.687 
134.004 134.422 134.769 135.173 135.485 135.802 132.347 132.029 132.07 
131.869 131.711 131.73 131.403 131.501 131.266 131.364 131.36 130.921 
130.945 130.529 130.751 130.578 131.132 131.032 130.578 130.471 129.976 
130.01 129.764 130.11 130.181 131.171 130.931 130.528 130.275 129.845 
129.654 129.437 129.514 129.664 129.986 130.264 131.377 131.084 130.694 
130.377 130.016 129.737 129.585 129.477 129.664 129.775 130.152 130.318 
130.598 131.517 131.263 130.836 130.56 130.207 129.98 129.868 129.752 
129.92 129.942 130.286 130.385 130.703 130.75 130.918 131.591 131.343 
130.906 130.653 130.325 130.156 130.098 130.037 130.201 130.2 130.441 
130.505 130.737 130.835 130.972 131.008 131.022 131.757 131.464 131.098 
130.788 130.53 130.32 130.313 130.26 130.431 130.432 130.576 130.585 
130.658 130.745 130.781 130.908 130.865 130.943 130.83 137.75 137.122 
137.337 137.153 136.49 136.709 136.517 136.747 136.599 135.773 136.019 
135.771 136.051 135.855 136.174 136.03 135.022 135.246 134.943 135.221 
134.959 135.313 135.114 135.512 135.331 134.338 134.509 134.216 134.425 
134.164 134.42 134.192 134.532 134.354 134.756 134.603 133.714 133.856 
133.57 133.758 133.531 133.729 133.499 133.707 133.502 133.81 133.689 
134.081 134.003 133.153 133.269 132.978 133.137 132.893 133.099 132.854 
133.057 132.805 133.042 132.876 133.216 133.147 133.541 133.487 132.638 
132.749 132.49 132.602 132.349 132.481 132.211 132.378 132.117 132.341 
132.165 132.463 132.391 132.736 132.695 133.051 133.002 132.13 132.243 
131.997 132.133 131.901 132.004 131.735 131.809 131.539 131.68 131.512 
131.774 131.726 132.045 132.035 132.34 132.316 132.621 132.61 137.997 
138.086 137.815 137.354 138.118 137.873 137.422 137.173 136.724 138.172 
137.911 137.46 137.216 136.775 136.531 136.053 138.252 137.987 137.517 
137.252 136.791 136.558 136.102 135.84 135.336 138.281 138.05 137.574 
137.307 136.811 136.561 136.102 135.875 135.42 135.142 134.657 138.242 
138.045 137.586 137.346 136.853 136.585 136.108 135.875 135.449 135.221 
134.781 134.495 134.034 138.188 138.001 137.566 137.348 136.882 136.627 
136.146 135.895 135.453 135.241 134.823 134.592 134.145 133.873 133.437 
138.158 137.969 137.555 137.339 136.884 136.645 136.172 135.928 135.477 
135.253 134.829 134.612 134.181 133.945 133.507 133.271 132.876 138.151 
137.965 137.566 137.345 136.891 136.647 136.18 135.944 135.52 135.296 
134.904 134.66 134.259 133.997 133.592 133.338 132.954 132.728 132.377 
138.024 137.602 137.692 137.42 137.122 137.216 136.905 137.019 136.711 
136.639 136.701 136.348 136.458 136.132 136.272 135.985 136.169 136.2 
135.809 135.895 135.581 135.709 135.456 135.593 135.364 135.651 135.694 
135.267 135.351 135.033 135.177 134.957 135.108 134.897 135.016 134.78 
135.061 135.131 134.7 134.793 134.441 134.597 134.334 134.549 134.318 
134.515 134.247 134.393 134.115 134.486 134.544 134.158 134.244 133.911 
134.015 133.699 133.861 133.582 133.824 133.569 133.795 133.519 133.693 
133.432 133.999 134.018 133.658 133.74 133.469 133.553 133.271 133.313 
133.017 133.124 132.908 133.111 132.925 133.107 132.876 133.028 132.804 
133.566 133.559 133.164 133.243 132.977 133.12 132.909 132.976 132.719 
132.718 132.502 132.584 132.451 132.588 132.412 132.518 132.279 132.413 
132.213 133.175 132.373 132.745 132.741 131.646 131.955 131.998 132.412 
132.568 131.209 131.371 131.435 131.752 131.97 132.373 132.57 130.979 
131.077 131.112 131.308 131.467 131.811 132.014 132.37 132.452 130.687 
130.826 130.784 130.973 130.982 131.28 131.386 131.774 131.891 132.212 
132.262 130.341 130.463 130.368 130.55 130.493 130.737 130.768 131.119 
131.253 131.636 131.774 132.079 132.186 130.183 130.19 130.143 130.199 
130.218 130.33 130.422 130.617 130.768 131.054 131.204 131.541 131.648 
131.989 132.077 130.324 130.229 130.288 130.196 130.296 130.262 130.422 
130.47 130.622 130.726 130.785 130.978 130.992 131.325 131.375 131.787 
131.882 130.629 130.523 130.646 130.507 130.598 130.479 130.575 130.551 
130.625 130.648 130.597 130.631 130.517 130.686 130.691 131.047 131.195 
131.619 131.815 133.359 133.434 133.124 132.569 133.603 133.247 132.706 
132.338 131.832 133.909 133.51 133.016 132.567 132.045 131.679 131.33 
134.262 133.882 133.423 132.956 132.416 131.953 131.513 131.256 131.037 
134.564 134.223 133.789 133.37 132.827 132.34 131.831 131.466 131.153 
130.981 130.784 134.893 134.525 134.117 133.723 133.237 132.761 132.282 
131.839 131.51 131.19 130.96 130.726 130.507 135.272 134.883 134.488 
134.09 133.685 133.227 132.837 132.369 132.081 131.666 131.422 131.036 
130.772 130.476 130.303 135.575 135.234 134.841 134.483 134.126 133.726 
133.398 132.968 132.692 132.275 132.001 131.564 131.229 130.822 130.564 
130.341 130.317 135.78 135.491 135.128 134.819 134.497 134.162 133.864 
133.5 133.212 132.835 132.531 132.115 131.752 131.302 130.977 130.646 
130.538 130.432 130.545 133.868 134.651 134.149 133.95 135.537 134.973 
134.767 134.246 134.086 136.553 135.94 135.75 135.141 134.976 134.442 
134.358 137.542 136.987 136.846 136.222 136.076 135.439 135.308 134.761 
134.692 138.375 137.921 137.829 137.308 137.216 136.608 136.464 135.802 
135.641 135.079 134.991 139.123 138.714 138.656 138.224 138.191 137.704 
137.621 136.989 136.803 136.118 135.959 135.394 135.335 139.876 139.482 
139.448 139.031 139.019 138.611 138.589 138.085 137.945 137.294 137.1 
136.45 136.335 135.785 135.732 140.64 140.272 140.273 139.843 139.81 
139.403 139.374 138.968 138.865 138.345 138.144 137.549 137.366 136.801 
136.671 136.151 136.032 141.395 141.069 141.117 140.688 140.63 140.182 
140.102 139.701 139.604 139.173 138.993 138.483 138.27 137.748 137.563 
137.051 136.87 136.371 136.203 141.869 142.459 142.002 141.576 142.722 
142.435 141.953 141.55 141.033 142.627 142.492 142.042 141.79 141.281 
140.926 140.444 142.498 142.347 141.976 141.807 141.394 141.119 140.658 
140.337 139.898 142.449 142.287 141.938 141.778 141.421 141.205 140.775 
140.502 140.029 139.745 139.271 142.258 142.214 141.869 141.755 141.372 
141.198 140.757 140.549 140.076 139.829 139.331 139.057 138.566 141.946 
141.985 141.729 141.657 141.293 141.122 140.68 140.489 140.057 139.851 
139.395 139.122 138.623 138.34 137.86 141.731 141.771 141.648 141.567 
141.284 141.082 140.681 140.451 140.048 139.845 139.426 139.182 138.672 
138.386 137.851 137.608 137.13 141.589 141.659 141.604 141.552 141.314 
141.126 140.739 140.496 140.066 139.849 139.39 139.17 138.626 138.372 
137.788 137.552 137.034 136.854 136.427 141.482 141.167 141.424 141.476 
140.521 140.923 140.952 141.249 141.137 139.698 140.114 140.086 140.522 
140.42 140.74 140.529 138.963 139.261 139.154 139.561 139.45 139.873 
139.705 140.041 139.822 138.373 138.571 138.387 138.671 138.505 138.876 
138.685 139.091 138.873 139.267 139.053 137.753 137.951 137.691 137.929 
137.705 137.996 137.765 138.083 137.819 138.203 137.962 138.418 138.21 
137.086 137.267 136.95 137.176 136.924 137.214 137.028 137.287 137.069 
137.283 137.049 137.344 137.154 137.565 137.396 136.547 136.645 136.331 
136.456 136.199 136.441 136.326 136.621 136.548 136.736 136.595 136.694 
136.523 136.688 136.541 136.838 136.711 136.148 136.207 135.939 135.965 
135.717 135.826 135.715 135.973 135.978 136.258 136.224 136.373 136.226 
136.277 136.083 136.181 136.023 136.255 136.15 135.765 135.676 135.523 
135.175 135.784 135.536 135.16 134.952 134.583 135.939 135.691 135.267 
134.984 134.538 134.346 133.96 135.912 135.774 135.32 135.06 134.532 
134.293 133.832 133.692 133.308 135.661 135.628 135.201 135.03 134.492 
134.254 133.735 133.552 133.11 133.005 132.606 135.428 135.368 135.008 
134.873 134.388 134.178 133.664 133.46 132.987 132.82 132.365 132.256 
131.818 135.448 135.27 134.963 134.76 134.325 134.087 133.607 133.394 
132.961 132.758 132.326 132.101 131.654 131.481 131.089 135.655 135.412 
135.101 134.829 134.409 134.107 133.65 133.388 133.003 132.789 132.441 
132.181 131.799 131.497 131.154 130.919 130.699 135.842 135.616 135.264 
134.991 134.553 134.243 133.795 133.503 133.134 132.897 132.585 132.343 
132.007 131.723 131.409 131.141 130.957 130.75 130.702 143.785 143.934 
143.875 143.908 143.854 143.998 144.178 144.146 144.251 143.507 143.791 
143.954 144.196 144.273 144.36 144.278 143.099 143.361 143.425 143.733 
143.708 144.005 143.881 144.068 143.807 142.774 143 143.14 143.303 
143.335 143.432 143.377 143.528 143.45 143.543 143.337 142.368 142.687 
143.01 143.237 143.508 143.443 143.522 143.359 143.437 143.377 143.42 
143.288 143.12 141.866 142.226 142.575 143.039 143.434 143.676 143.809 
143.72 143.709 143.589 143.641 143.533 143.468 143.187 142.902 141.553 
141.772 142.013 142.457 142.772 143.285 143.406 143.688 143.537 143.648 
143.508 143.621 143.532 143.487 143.232 142.928 142.534 141.52 141.588 
141.729 141.936 142.113 142.505 142.611 142.998 142.88 143.137 142.916 
143.177 143.038 143.279 143.099 143.096 142.742 142.484 142.067 143.604 
143.66 143.446 143.18 143.996 143.643 143.277 143.028 142.765 144.132 
143.959 143.551 143.223 142.86 142.652 142.384 143.75 143.864 143.519 
143.38 142.939 142.748 142.379 142.223 141.85 143.203 143.351 143.078 
143.131 142.727 142.674 142.258 142.154 141.716 141.568 141.103 142.824 
142.858 142.588 142.659 142.337 142.351 141.972 141.931 141.511 141.401 
140.936 140.787 140.358 142.503 142.493 142.188 142.248 141.979 141.997 
141.634 141.595 141.175 141.132 140.707 140.622 140.209 140.094 139.737 
142.123 142.118 141.783 141.863 141.624 141.68 141.328 141.265 140.782 
140.731 140.288 140.307 139.93 139.916 139.558 139.494 139.168 141.704 
141.71 141.363 141.441 141.206 141.309 141 140.963 140.469 140.35 
139.854 139.842 139.477 139.545 139.23 139.257 138.937 138.912 138.61 
143.639 143.17 143.471 143.528 142.701 142.954 142.975 143.248 143.116 
142.267 142.471 142.415 142.666 142.553 142.73 142.484 141.709 141.966 
141.843 142.087 141.953 142.168 141.978 142.118 141.876 140.974 141.298 
141.181 141.469 141.321 141.56 141.374 141.577 141.333 141.492 141.199 
140.245 140.544 140.467 140.78 140.667 140.919 140.725 140.94 140.687 
140.878 140.576 140.739 140.432 139.623 139.867 139.782 140.083 139.993 
140.263 140.078 140.286 140.028 140.214 139.936 140.108 139.843 140.005 
139.772 139.056 139.268 139.135 139.406 139.287 139.573 139.399 139.633 
139.388 139.574 139.306 139.482 139.235 139.424 139.204 139.391 139.162 
138.51 138.7 138.534 138.757 138.599 138.859 138.689 138.942 138.732 
138.943 138.694 138.871 138.614 138.802 138.566 138.78 138.544 138.74 
138.463 133.979 134.408 134.381 134.773 134.914 134.855 135.292 135.236 
135.678 135.518 135.429 135.887 135.809 136.285 136.21 136.681 136.113 
136.05 136.486 136.412 136.847 136.798 137.251 137.208 137.635 136.602 
136.588 136.987 136.947 137.306 137.28 137.669 137.689 138.101 138.09 
138.451 137.023 137.016 137.389 137.373 137.702 137.675 138.025 138.045 
138.461 138.498 138.9 138.863 139.197 137.454 137.418 137.76 137.738 
138.057 138.036 138.382 138.397 138.832 138.876 139.331 139.317 139.691 
139.607 139.929 137.902 137.849 138.172 138.119 138.421 138.381 138.707 
138.729 139.168 139.256 139.754 139.784 140.184 140.104 140.409 140.317 
140.632 138.309 138.277 138.603 138.551 138.858 138.781 139.085 139.052 
139.456 139.55 140.067 140.182 140.621 140.592 140.868 140.764 141.024 
140.983 141.316 
POINT_DATA 1002
SCALARS Distance double
LOOKUP_TABLE default
141.326 141.493 141.221 140.975 141.09 140.857 140.855 141.373 140.524 
140.115 141.173 141.825 140.504 139.907 139.343 141.456 141.855 140.756 
139.949 139.276 138.743 141.227 141.517 140.755 140.039 139.302 138.736 
138.213 140.865 141.304 140.415 139.917 139.309 138.696 138.156 137.57 
140.744 141.214 140.174 139.682 139.252 138.679 138.043 137.482 136.933 
140.644 141.004 140.072 139.47 139.085 138.684 138.032 137.378 136.887 
136.461 140.375 140.666 139.881 139.231 138.775 138.53 138.07 137.383 
136.808 136.413 136.071 141.419 141.284 141.545 141.66 141.981 141.498 
142.288 142.498 142.199 142.029 142.79 142.885 142.812 142.633 142.28 
143.014 143.239 142.975 142.839 142.479 142.036 143.22 143.612 142.983 
142.826 142.588 142.251 141.813 143.59 143.861 143.33 143.137 142.973 
142.731 142.303 141.745 143.961 143.899 143.901 143.738 143.561 143.334 
142.892 142.219 141.543 144.089 143.772 144.218 144.086 143.85 143.611 
143.246 142.63 141.87 141.192 143.791 144.063 143.527 143.468 142.87 
143.968 142.63 142.214 143.129 143.648 142.082 141.645 142.416 142.845 
143.373 141.487 140.89 141.972 142.28 142.666 143.114 140.641 140.144 
141.201 141.649 142.012 142.423 142.689 139.927 139.564 140.311 140.708 
141.143 141.656 142.013 142.028 139.274 138.922 139.602 139.904 140.232 
140.716 141.206 141.364 141.268 138.475 138.169 138.829 139.213 139.546 
139.867 140.263 140.557 140.616 140.611 140.09 139.971 139.412 139.86 
139.281 138.704 139.674 139.088 138.583 137.958 139.41 138.826 138.287 
137.71 137.062 139.145 138.558 137.857 137.192 136.577 136.082 138.774 
138.228 137.451 136.608 135.948 135.487 135.137 138.271 137.747 137.107 
136.252 135.488 134.978 134.566 134.182 137.836 137.276 136.779 136.091 
135.296 134.687 134.193 133.695 133.281 137.556 136.973 136.485 135.907 
135.156 134.475 133.944 133.425 132.943 132.606 139.683 138.864 139.044 
138.071 138.176 138.427 137.304 137.436 137.697 138.143 136.476 136.696 
136.936 137.391 137.862 135.597 135.874 135.998 136.319 136.861 137.251 
134.618 134.983 135.092 135.211 135.657 136.223 136.6 133.599 134.004 
134.274 134.428 134.731 135.237 135.749 136.144 132.779 133.11 133.479 
133.803 134.137 134.518 134.932 135.379 135.794 132.152 132.345 131.68 
131.966 131.072 132.697 131.57 130.526 132.405 133.111 131.203 130.353 
132.105 132.844 133.539 130.909 130.5 131.676 132.486 133.24 133.93 
130.781 130.779 131.23 132.036 132.847 133.565 134.249 130.904 131.021 
131.075 131.725 132.54 133.219 133.876 134.629 131.014 130.997 131.169 
131.668 132.372 133.004 133.601 134.33 135.12 130.866 130.71 131.153 
131.659 132.269 132.82 133.379 134.08 134.857 135.542 132.283 131.777 
132.027 131.385 131.722 131.046 130.974 131.398 130.404 130.138 130.726 
131.275 130.036 129.49 129.667 130.796 131.445 130.065 129.438 129.387 
129.941 131.013 131.676 130.275 129.713 129.609 130.001 130.516 131.103 
131.775 130.394 129.957 129.937 130.218 130.641 130.956 131.153 131.845 
130.466 130.119 130.22 130.447 130.659 130.912 131.049 131.393 132.033 
130.748 130.378 130.443 130.631 130.651 130.667 130.765 130.783 137.525 
136.93 136.913 136.285 136.275 136.338 135.498 135.548 135.53 135.698 
134.695 134.826 134.636 134.712 134.932 134.009 134.18 133.945 133.913 
133.952 134.18 133.38 133.583 133.321 133.329 133.258 133.298 133.59 
132.845 133.031 132.709 132.649 132.587 132.573 132.76 133.091 132.373 
132.512 132.254 132.085 131.901 131.866 132.059 132.356 132.638 138.298 
137.624 138.335 137.659 138.36 136.984 137.716 138.442 137.006 136.337 
137.804 138.512 137.035 136.333 135.637 137.835 138.498 137.084 136.317 
135.657 134.967 137.803 138.428 137.12 136.356 135.652 135.04 134.34 
137.772 138.364 137.123 136.405 135.677 135.032 134.4 133.697 137.773 
138.339 137.122 136.407 135.704 135.051 134.407 133.74 133.086 137.785 