# vtk DataFile Version 4.0
vtk output
ASCII
DATASET POLYDATA
POINTS 1002 float
-78.9439 -105.74 54.5104 -78.9714 -105.686 55.4888 -79.5343 -105.657 55.084 
-79.5822 -105.755 54.0712 -80.2456 -105.807 54.5696 -78.8326 -105.751 53.5361 
-80.3401 -105.858 53.5451 -81.0435 -105.892 54.038 -79.5527 -105.713 53.1298 
-78.7804 -105.572 52.7606 -81.1746 -105.778 53.0728 -81.6958 -105.588 53.6532 
-80.3213 -105.639 52.695 -79.4669 -105.383 52.418 -78.7623 -105.186 52.0912 
-81.8523 -105.373 52.7701 -82.1191 -105.05 53.4475 -81.1179 -105.382 52.3285 
-80.1233 -105.098 52.1048 -79.2692 -104.809 51.8596 -78.5953 -104.642 51.4732 
-82.2378 -104.784 52.6036 -82.483 -104.526 53.3081 -81.731 -104.916 52.0722 
-80.8316 -104.725 51.825 -79.8621 -104.375 51.6559 -79.0307 -104.132 51.3663 
-78.3472 -104.03 50.9527 -82.5005 -104.061 52.4963 -82.8527 -103.94 53.1342 
-82.0548 -104.215 51.9397 -81.3874 -104.221 51.5921 -80.5943 -104.014 51.3414 
-79.7594 -103.778 51.0532 -78.9255 -103.645 50.6823 -78.2423 -103.6 50.2496 
-82.8226 -103.377 52.3214 -83.1898 -103.391 52.8527 -82.3452 -103.426 51.8233 
-81.7327 -103.537 51.4085 -81.1264 -103.613 50.971 -80.5073 -103.62 50.4922 
-79.7028 -103.567 50.0661 -78.8843 -103.488 49.6643 -78.2768 -103.409 49.2801 
-83.2382 -103.018 51.9578 -83.5545 -103.065 52.4375 -82.8041 -102.97 51.4984 
-82.1521 -102.998 51.093 -81.4843 -103.142 50.5996 -80.9678 -103.362 49.9662 
-80.3137 -103.487 49.4333 -79.4609 -103.446 49.0624 -78.7766 -103.35 48.7086 
-78.3289 -103.241 48.394 -83.6911 -102.865 51.4758 -83.9589 -102.836 51.9696 
-83.3533 -102.867 50.97 -82.7387 -102.83 50.5647 -81.9374 -102.831 50.1755 
-81.3165 -102.984 49.6037 -80.7689 -103.153 49.0367 -79.9553 -103.133 48.7262 
-79.1365 -103.043 48.4705 -78.6577 -103.026 48.0987 -78.3523 -103.004 47.7566 
-79.1971 -105.621 56.1327 -79.901 -105.668 55.709 -79.5063 -105.668 56.7637 
-80.4322 -105.793 56.3888 -80.0702 -105.788 57.5289 -80.7553 -105.843 55.2216 
-80.9873 -105.861 57.1634 -80.6 -105.797 58.2829 -81.2645 -105.808 55.9867 
-81.4559 -105.713 54.7434 -81.2203 -105.66 57.8066 -80.8583 -105.614 58.8028 
-81.5819 -105.589 56.7335 -81.7479 -105.362 55.5122 -81.8829 -105.177 54.3821 
-81.3557 -105.289 58.2777 -81.1639 -105.377 59.2916 -81.8034 -105.263 57.2957 
-82.1716 -105.113 56.1565 -82.2514 -104.873 55.0407 -82.3404 -104.712 54.1446 
-81.7568 -104.997 58.7722 -81.6096 -105.148 59.812 -82.213 -104.993 57.7956 
-82.8419 -105.102 56.7259 -83.076 -104.98 55.5764 -82.9673 -104.65 54.6873 
-82.8929 -104.322 53.9358 -82.1631 -104.781 59.1495 -81.902 -104.808 60.0809 
-82.6177 -104.755 58.255 -83.3326 -104.982 57.3379 -83.8023 -105.113 56.199 
-83.7171 -104.744 55.1714 -83.4609 -104.196 54.4198 -83.2952 -103.764 53.6597 
-82.3491 -104.467 59.2804 -82.0324 -104.31 60.1138 -82.7754 -104.456 58.5067 
-83.3996 -104.546 57.8357 -83.9658 -104.75 56.908 -84.0625 -104.564 55.7892 
-83.8497 -103.984 54.8846 -83.6944 -103.522 54.1018 -83.6099 -103.266 53.26 
-82.4507 -103.988 59.3375 -82.1632 -103.755 60.1246 -82.8298 -104.049 58.6158 
-83.3532 -104.012 58.1178 -83.923 -104.087 57.4942 -84.1886 -104.081 56.4823 
-84.0936 -103.712 55.4366 -84.0045 -103.276 54.5491 -84.0256 -103.069 53.6495 
-84.0097 -102.962 52.7576 -82.4658 -103.324 59.6713 -82.8151 -103.475 58.8795 
-82.7642 -102.763 59.1361 -83.2705 -102.857 58.4858 -83.0942 -102.186 58.5341 
-83.3154 -103.49 58.3373 -83.7745 -102.261 58.0852 -83.4628 -101.651 57.9742 
-83.9746 -102.909 58.1245 -83.9599 -103.474 57.9339 -84.1365 -101.582 57.6285 
-83.772 -101.004 57.5272 -84.5169 -102.307 57.7367 -84.6602 -102.986 57.6058 
-84.4384 -103.539 57.1339 -84.2677 -100.8 57.0291 -83.9258 -100.339 56.9828 
-84.6209 -101.46 57.0551 -84.918 -102.325 56.951 -84.8648 -103.046 56.5632 
-84.4584 -103.431 55.9956 -84.2148 -100.242 56.1545 -83.8695 -99.8688 56.1531 
-84.5197 -100.645 56.1117 -84.7284 -101.317 56.029 -84.8218 -102.245 55.7813 
-84.6998 -102.885 55.3662 -84.3539 -103.101 54.9265 -84.0015 -99.822 55.1644 
-83.6753 -99.4165 55.2651 -84.3967 -100.163 55.071 -84.6591 -100.478 55.0274 
-84.6927 -101.143 54.882 -84.7344 -102.039 54.5461 -84.7189 -102.619 54.1663 
-84.4379 -102.865 53.8677 -83.8092 -99.1826 54.3988 -83.5316 -98.8196 54.6105 
-84.2037 -99.6056 54.2209 -84.6376 -99.8981 54.1614 -84.7862 -100.264 54.0351 
-84.7601 -101.002 53.6575 -84.862 -101.84 53.2153 -84.8468 -102.406 52.9425 
-84.4939 -102.738 52.8238 -83.7798 -98.4463 53.9166 -83.4688 -98.2455 54.1702 
-84.0996 -98.793 53.6766 -84.5012 -99.1531 53.5432 -84.7936 -99.5216 53.3671 
-84.802 -100.114 52.9251 -84.7809 -100.906 52.3847 -84.8543 -101.617 52.0703 
-84.7508 -102.159 51.9878 -84.3903 -102.571 51.9769 -84.1501 -102.523 51.2187 
-84.4343 -102.006 51.2959 -84.1954 -102.01 50.5178 -84.5777 -101.383 51.3546 
-84.2472 -101.227 50.7769 -84.0006 -101.321 49.9846 -84.6071 -100.756 51.4116 
-84.2916 -100.487 50.9006 -83.9907 -100.429 50.3278 -83.6167 -100.591 49.6385 
-84.6973 -100.011 51.7168 -84.5376 -99.8085 50.8412 -84.2689 -99.6137 50.3495 
-83.7949 -99.7061 49.8262 -83.132 -99.9126 49.3865 -84.8032 -99.1916 52.3165 
-84.8362 -98.9826 51.0513 -84.7921 -98.8266 50.1387 -84.2956 -98.8141 49.7029 
-83.4248 -99.044 49.4128 -82.5592 -99.2869 49.1169 -84.6761 -98.5844 52.8295 
-84.8293 -98.1839 51.6967 -84.9457 -98.0552 50.3994 -84.6253 -98.0777 49.6184 
-83.7273 -98.2086 49.3807 -82.7241 -98.4449 49.1653 -81.984 -98.6694 48.7256 
-84.3699 -98.2233 53.0958 -84.5641 -97.7386 52.3066 -84.611 -97.5267 51.1789 
-84.3495 -97.5723 50.1369 -83.64 -97.677 49.6038 -82.7605 -97.7462 49.3023 
-82.0416 -97.8395 48.8415 -81.564 -97.9949 48.2174 -84.0337 -97.9834 53.321 
-84.2186 -97.5892 52.6489 -84.1852 -97.3187 51.8184 -83.8894 -97.2238 50.919 
-83.3255 -97.2718 50.1883 -82.6572 -97.2882 49.614 -82.0919 -97.2201 49.0098 
-81.6415 -97.204 48.3692 -81.2899 -97.3283 47.7559 -83.6287 -97.8553 53.5905 
-83.7392 -97.5514 52.8984 -83.7045 -97.2786 52.1438 -83.5212 -97.004 51.4119 
-83.1633 -96.84 50.7327 -82.6446 -96.8074 50.0299 -82.1352 -96.7658 49.255 
-81.7121 -96.6966 48.5367 -81.3292 -96.7125 47.9644 -80.9985 -96.8567 47.4643 
-83.9143 -102.667 50.5967 -83.9325 -102.238 49.8124 -83.4616 -102.737 50.0519 
-83.5814 -101.494 49.4166 -83.2523 -102.251 49.441 -82.6035 -102.642 49.7559 
-82.9581 -100.641 49.3381 -82.6733 -101.355 49.3505 -82.2148 -102.063 49.3534 
-81.7305 -102.59 49.3994 -82.3174 -99.9138 49.1467 -81.9886 -100.44 49.2592 
-81.6538 -101.19 49.1815 -81.4318 -102.033 48.9124 -81.1492 -102.671 48.8317 
-81.8247 -99.3303 48.6399 -81.5358 -99.7966 48.6958 -81.1711 -100.398 48.68 
-81.0025 -101.266 48.4592 -80.8423 -102.007 48.3649 -80.4123 -102.595 48.5068 
-81.4885 -98.7419 47.9822 -81.3671 -99.3495 47.884 -81.0113 -99.8595 47.9122 
-80.6143 -100.54 47.9114 -80.3526 -101.215 48.0002 -79.9508 -101.769 48.2485 
-79.452 -102.423 48.3941 -81.222 -98.0482 47.4219 -81.2181 -98.8347 47.1845 
-81.0102 -99.4603 47.201 -80.4722 -99.9947 47.399 -79.9297 -100.548 47.6388 
-79.5118 -101.089 47.9055 -79.1026 -101.736 48.0583 -78.8098 -102.476 48.0357 
-80.931 -97.3894 47.0798 -80.9087 -98.1518 46.7471 -80.7921 -98.9366 46.664 
-80.3486 -99.5427 46.8817 -79.711 -100.029 47.1988 -79.2263 -100.582 47.4169 
-78.9164 -101.286 47.4895 -78.6859 -102.051 47.4647 -78.5247 -102.664 47.5017 
-80.5522 -96.82 47.0282 -80.4951 -97.3107 46.606 -80.0238 -96.8341 46.5568 
-79.8671 -97.263 46.2727 -79.4453 -96.8233 46.1396 -80.3452 -98.0644 46.3651 
-79.0861 -97.2918 46.1395 -78.704 -96.8162 45.9016 -79.487 -98.0085 46.2155 
-80.0024 -98.8842 46.4057 -78.1281 -97.4741 45.9525 -77.6226 -96.8876 45.6994 
-78.5706 -98.1373 46.1025 -79.0428 -98.8705 46.214 -79.472 -99.5174 46.6376 
-77.0034 -97.7304 45.4572 -76.521 -97.037 45.48 -77.6156 -98.448 45.6526 
-78.2296 -99.0189 45.9162 -78.7154 -99.5338 46.3007 -79.0118 -100.088 46.8514 
-76.1641 -97.9279 45.1492 -75.9698 -97.2677 45.5853 -76.5887 -98.6665 45.0864 
-77.3085 -99.1917 45.5546 -78.0278 -99.6083 46.1184 -78.4918 -100.237 46.4665 
-78.742 -100.891 46.8835 -75.7854 -98.0863 45.4925 -75.7189 -97.5461 46.0446 
-75.8574 -98.712 45.1172 -76.2716 -99.2186 45.4356 -77.0105 -99.6597 46.1732 
-77.7115 -100.36 46.4697 -78.2233 -101.234 46.4558 -78.5348 -101.811 46.8069 
-75.2793 -98.2234 46.0412 -75.1304 -97.7449 46.4432 -75.3543 -98.7751 45.6733 
-75.5359 -99.2556 45.7135 -76.0042 -99.755 46.2355 -76.6297 -100.493 46.5701 
-77.2788 -101.404 46.4327 -77.8998 -102.128 46.4283 -78.3257 -102.485 46.8821 
-74.4155 -98.3061 46.3272 -74.2617 -97.8292 46.6233 -74.6605 -98.915 46.1289 
-74.9545 -99.4528 46.1157 -75.3316 -99.9647 46.3264 -75.7844 -100.686 46.505 
-76.285 -101.53 46.4551 -76.9082 -102.189 46.4464 -77.5852 -102.575 46.7414 
-78.0837 -102.809 47.2384 -80.7272 -96.5241 47.599 -80.1018 -96.5593 47.2028 
-80.1627 -96.3187 47.8249 -79.4133 -96.2038 47.451 -79.5024 -95.9592 48.1146 
-79.5199 -96.5228 46.6322 -78.8879 -95.4459 47.6951 -79.2293 -95.4313 48.386 
-78.8975 -95.8288 46.822 -79.0157 -96.3603 46.0624 -78.8395 -94.7056 47.8842 
-79.2819 -94.9874 48.7461 -78.5343 -94.8322 47.0924 -78.5534 -95.5322 46.284 
-78.2817 -96.2721 45.7907 -78.7545 -94.4354 48.3722 -79.0567 -94.63 49.4743 
-78.3846 -94.4252 47.4277 -78.288 -94.9134 46.7992 -77.9303 -95.7124 46.1933 
-77.1407 -96.3658 45.7521 -78.3076 -94.3969 49.3994 -78.5698 -94.3606 50.4334 
-78.0101 -94.6813 48.1823 -78.0131 -95.0938 47.4509 -77.7647 -95.6104 46.9805 
-76.8854 -96.0816 46.3445 -76.1699 -96.5733 45.8506 -78.0321 -94.5366 50.3942 
-78.3022 -94.4323 51.1596 -77.686 -94.9833 49.2883 -77.6132 -95.4793 48.331 
-77.5202 -95.816 47.7938 -76.7933 -96.051 47.192 -75.9913 -96.372 46.5252 
-75.7642 -96.9008 46.1824 -78.0761 -95.0036 50.9061 -78.2259 -94.8439 51.5791 
-77.7488 -95.3411 50.1112 -77.4099 -95.6581 49.2603 -77.1383 -95.8367 48.5705 
-76.5775 -95.9755 47.9573 -75.8411 -96.2668 47.2841 -75.4919 -96.7412 46.8133 
-75.3967 -97.2586 46.6084 -77.9862 -95.5438 51.229 -78.0201 -95.3057 51.9499 
-77.7767 -95.792 50.5817 -77.3182 -95.8603 49.9783 -76.7726 -95.8068 49.3253 
[...]
CELL_DATA 2000
SCALARS Distance double
LOOKUP_TABLE default
142.053 142.267 142.001 141.699 142.574 142.272 141.939 141.631 141.274 
142.756 142.554 142.19 141.877 141.457 141.162 140.756 142.672 142.625 
142.302 142.069 141.585 141.286 140.781 140.547 140.085 142.43 142.449 
142.174 142.074 141.606 141.35 140.783 140.513 139.98 139.786 139.31 
142.123 142.145 141.819 141.829 141.405 141.283 140.756 140.512 139.982 
139.719 139.244 139.029 138.614 141.804 141.789 141.406 141.414 141.007 
140.988 140.546 140.437 139.988 139.778 139.346 139.075 138.671 138.426 
138.078 141.593 141.512 141.169 141.078 140.707 140.627 140.244 140.181 
139.818 139.735 139.365 139.186 138.774 138.53 138.141 137.934 137.618 
141.495 141.396 141.131 140.986 140.675 140.487 140.127 139.963 139.62 
139.538 139.218 139.129 138.733 138.558 138.111 137.938 137.569 137.456 
137.179 142.279 142.69 142.475 142.513 143.293 142.994 143.068 142.803 
142.859 143.949 143.667 143.692 143.392 143.353 143.085 143.002 144.302 
144.168 144.096 143.902 143.709 143.459 143.218 143.028 142.83 144.44 
144.319 144.21 144.121 143.951 143.732 143.467 143.202 142.983 142.801 
142.623 144.675 144.454 144.357 144.233 144.263 144.069 144.019 143.635 
143.487 143.1 142.95 142.655 142.44 144.859 144.699 144.584 144.462 
144.566 144.49 144.613 144.336 144.217 143.753 143.492 143.075 142.796 
142.456 142.154 144.756 144.762 144.629 144.61 144.613 144.689 144.768 
144.767 144.606 144.334 143.904 143.526 143.093 142.779 142.439 142.154 
141.885 144.473 144.562 144.447 144.508 144.433 144.556 144.553 144.687 
144.55 144.47 144.057 143.763 143.286 142.994 142.653 142.413 142.173 
141.93 141.737 144.259 143.887 144.146 144.244 143.47 143.768 143.938 
144.155 144.283 143.086 143.403 143.688 143.925 144.13 144.272 144.418 
142.653 143.024 143.351 143.699 143.978 144.172 144.28 144.384 144.382 
142.064 142.483 142.694 143.191 143.428 143.868 143.956 144.174 144.03 
144.134 143.889 141.378 141.79 141.864 142.348 142.428 143.012 143.07 
143.574 143.459 143.697 143.4 143.488 143.178 140.616 141.032 141.064 
141.483 141.48 141.941 141.933 142.478 142.46 142.935 142.798 143.024 
142.779 142.844 142.612 139.814 140.214 140.228 140.662 140.677 141.076 
141.044 141.44 141.409 141.883 141.871 142.311 142.22 142.461 142.279 
142.364 142.165 139.116 139.433 139.42 139.815 139.837 140.265 140.255 
140.635 140.562 140.941 140.885 141.342 141.31 141.749 141.652 141.94 
141.772 141.912 141.726 141.461 141.399 141.274 140.926 141.161 141.077 
140.608 140.581 140.174 140.781 140.728 140.205 140.169 139.701 139.733 
139.319 140.398 140.325 139.828 139.761 139.293 139.27 138.856 138.873 
138.466 140.098 139.989 139.498 139.41 138.958 138.909 138.488 138.458 
138.041 138.032 137.6 139.786 139.702 139.187 139.092 138.619 138.574 
138.146 138.109 137.657 137.619 137.151 137.142 136.683 139.403 139.362 
138.888 138.796 138.331 138.247 137.816 137.76 137.311 137.244 136.751 
136.696 136.205 136.201 135.749 139.046 139.007 138.619 138.54 138.131 
138.013 137.584 137.47 137.029 136.926 136.454 136.345 135.854 135.768 
135.303 135.288 134.887 138.778 138.721 138.373 138.31 137.93 137.83 
137.398 137.27 136.817 136.69 136.232 136.099 135.627 135.49 135.03 
134.929 134.531 134.504 134.185 141.334 140.898 141.119 141.015 140.24 
140.619 140.594 140.769 140.574 139.385 139.864 139.876 140.227 140.057 
140.229 139.969 138.466 138.938 138.901 139.36 139.221 139.566 139.346 
139.576 139.391 137.556 137.987 137.872 138.313 138.171 138.619 138.489 
138.87 138.75 139.041 138.95 136.654 137.068 136.938 137.311 137.147 
137.565 137.477 137.953 137.899 138.314 138.207 138.552 138.424 135.754 
136.176 136.118 136.465 136.347 136.656 136.563 136.967 136.927 137.383 
137.277 137.686 137.524 137.916 137.778 134.894 135.299 135.312 135.708 
135.696 135.988 135.912 136.179 136.103 136.448 136.367 136.741 136.635 
137.008 136.939 137.317 137.28 134.164 134.489 134.494 134.911 134.953 
135.342 135.307 135.585 135.469 135.72 135.623 135.926 135.894 136.228 
136.256 136.593 136.648 136.958 136.97 133.809 133.343 133.718 134.077 
132.845 133.225 133.564 134.041 134.499 132.34 132.722 133.026 133.488 
133.923 134.458 134.877 131.78 132.217 132.536 132.963 133.348 133.846 
134.259 134.756 135.069 131.146 131.62 131.995 132.474 132.868 133.314 
133.707 134.154 134.52 134.938 135.241 130.757 131.055 131.425 131.891 
132.322 132.82 133.239 133.681 134.094 134.486 134.892 135.228 135.578 
130.799 130.875 131.158 131.409 131.782 132.229 132.68 133.191 133.662 
134.123 134.601 134.978 135.414 135.678 136.021 130.857 130.956 131.148 
131.273 131.541 131.799 132.214 132.648 133.163 133.665 134.179 134.654 
135.124 135.508 135.887 136.136 136.425 130.609 130.831 130.996 131.214 
131.467 131.669 132.037 132.324 132.819 133.224 133.745 134.198 134.66 
135.111 135.497 135.889 136.186 136.473 136.708 133.622 133.237 133.341 
133.153 132.726 132.881 132.661 132.83 132.639 132.139 132.248 131.943 
132.202 131.998 132.267 132.092 131.776 131.68 131.243 131.397 131.184 
131.527 131.392 131.688 131.499 131.662 131.442 130.97 130.867 130.677 
130.84 130.827 131.036 130.897 131.066 130.872 131.61 131.408 131.054 
130.836 130.735 130.679 130.788 130.772 130.725 130.642 130.468 130.53 
130.505 131.731 131.501 131.332 131.087 131.078 130.945 131.074 130.973 
130.935 130.702 130.488 130.337 130.301 130.407 130.583 132.11 131.847 
131.822 131.536 131.541 131.327 131.337 131.218 131.09 130.909 130.631 
130.443 130.315 130.325 130.439 130.59 130.707 132.516 132.321 132.331 
132.095 132.035 131.766 131.59 131.375 131.112 130.947 130.658 130.524 
130.371 130.351 130.391 130.469 130.512 130.599 130.527 138.538 137.98 
138.213 138.105 137.301 137.57 137.43 137.732 137.62 136.604 136.852 
136.668 136.977 136.849 137.191 137.069 135.891 136.148 135.951 136.224 
136.079 136.396 136.284 136.615 136.491 135.061 135.366 135.142 135.469 
135.283 135.621 135.467 135.813 135.676 136.022 135.89 134.193 134.473 
134.175 134.54 134.292 134.708 134.487 134.909 134.711 135.132 134.973 
135.385 135.254 133.419 133.613 133.27 133.554 133.301 133.675 133.48 
133.876 133.688 134.101 133.952 134.404 134.306 134.745 134.658 132.852 
132.924 132.588 132.741 132.515 132.792 132.675 132.99 132.868 133.169 
133.054 133.424 133.389 133.82 133.815 134.214 134.187 132.603 132.538 
132.24 132.218 131.972 132.117 131.986 132.267 132.145 132.431 132.282 
132.603 132.557 132.973 133.033 133.444 133.493 133.837 133.862 138.721 
138.839 138.587 138.171 138.904 138.675 138.245 137.993 137.532 138.888 
138.693 138.268 138.049 137.601 137.337 136.859 138.826 138.642 138.21 
138.03 137.594 137.385 136.903 136.642 136.13 138.771 138.577 138.128 
137.944 137.499 137.329 136.854 136.637 136.102 135.856 135.312 138.754 
138.545 138.107 137.885 137.435 137.233 136.776 136.567 136.064 135.817 
135.288 135.029 134.5 138.755 138.55 138.13 137.896 137.451 137.212 
136.769 136.535 136.078 135.817 135.325 135.044 134.538 134.252 133.753 
138.746 138.549 138.111 137.898 137.429 137.217 136.761 136.552 136.112 
135.872 135.403 135.116 134.614 134.317 133.835 133.557 133.151 138.728 
138.532 138.061 137.838 137.324 137.13 136.652 136.496 136.064 135.889 
135.443 135.196 134.701 134.405 133.926 133.653 133.283 133.06 132.825 
138.579 138.038 138.173 137.851 137.407 137.557 137.201 137.36 137.056 
136.828 136.954 136.634 136.73 136.425 136.592 136.382 136.278 136.43 
136.168 136.245 135.942 136.026 135.787 135.975 135.813 135.659 135.858 
135.6 135.758 135.432 135.539 135.215 135.38 135.146 135.391 135.196 
135.058 135.222 134.951 135.129 134.798 134.942 134.576 134.743 134.439 
134.678 134.434 134.706 134.458 134.546 134.646 134.35 134.491 134.178 
134.306 133.97 134.096 133.791 133.968 133.715 133.942 133.704 133.949 
133.713 134.069 134.123 133.741 133.867 133.521 133.69 133.38 133.531 
133.236 133.37 133.111 133.279 133.08 133.279 133.118 133.308 133.152 
133.656 133.639 133.181 133.229 132.824 132.99 132.699 132.92 132.67 
132.835 132.569 132.711 132.519 132.72 132.649 132.848 132.803 132.916 
132.813 133.342 132.753 132.941 132.797 132.258 132.381 132.165 132.393 
132.372 131.703 131.887 131.7 131.856 131.81 132.098 132.259 131.048 
131.265 131.18 131.432 131.463 131.685 131.817 132.103 132.292 130.662 
130.692 130.632 130.904 131.067 131.374 131.521 131.742 131.828 132.094 
132.205 130.61 130.519 130.422 130.507 130.667 130.955 131.143 131.402 
131.449 131.656 131.724 132.007 132.18 130.488 130.521 130.467 130.46 
130.502 130.624 130.736 130.966 131.053 131.278 131.415 131.654 131.917 
132.159 132.427 130.29 130.394 130.45 130.489 130.476 130.496 130.488 
130.605 130.701 130.919 131.159 131.43 131.787 132.034 132.351 132.502 
132.678 130.331 130.334 130.442 130.454 130.446 130.429 130.394 130.434 
130.545 130.694 130.972 131.22 131.575 131.871 132.155 132.388 132.505 
132.644 132.666 133.543 133.61 133.388 132.999 133.584 133.405 133.051 
132.867 132.499 133.644 133.365 132.965 132.829 132.478 132.332 131.907 
133.981 133.532 133.051 132.762 132.395 132.247 131.902 131.709 131.288 
134.437 133.96 133.453 132.992 132.575 132.267 132.014 131.797 131.57 
131.254 130.985 134.791 134.396 133.922 133.456 132.99 132.569 132.286 
132.038 131.934 131.682 131.506 131.124 130.893 135.101 134.736 134.323 
133.904 133.447 132.999 132.635 132.342 132.204 132.044 131.883 131.597 
131.231 130.908 130.592 135.471 135.09 134.727 134.325 133.941 133.482 
133.122 132.723 132.535 132.309 132.175 131.91 131.537 131.143 130.681 
130.452 130.243 135.872 135.49 135.146 134.765 134.454 134.032 133.74 
133.289 133.08 132.724 132.608 132.284 132.034 131.552 131.133 130.656 
130.398 130.214 130.258 133.958 134.626 134.201 134.008 135.394 134.903 
134.703 134.234 134.015 136.303 135.744 135.558 135.008 134.823 134.299 
134.148 137.259 136.705 136.53 135.943 135.799 135.229 135.139 134.581 
134.527 138.141 137.654 137.52 136.951 136.823 136.259 136.199 135.649 
135.593 135.029 134.96 138.962 138.531 138.48 137.955 137.855 137.292 
137.215 136.686 136.608 136.066 135.928 135.386 135.258 139.772 139.372 
139.384 138.922 138.873 138.33 138.227 137.675 137.553 137.015 136.851 
136.306 136.135 135.628 135.526 140.554 140.181 140.191 139.795 139.754 
139.295 139.174 138.65 138.475 137.931 137.75 137.207 137.049 136.522 
136.421 135.932 135.889 141.283 140.931 140.909 140.543 140.465 140.074 
139.925 139.485 139.275 138.79 138.579 138.083 137.926 137.435 137.343 
136.857 136.807 136.328 136.292 141.675 142.108 141.691 141.277 142.495 
142.089 141.618 141.223 140.778 142.744 142.415 141.9 141.509 140.976 
140.641 140.179 142.718 142.535 142.036 141.73 141.156 140.793 140.253 
139.974 139.51 142.496 142.392 141.961 141.788 141.285 140.958 140.387 
140.044 139.543 139.288 138.841 142.339 142.198 141.821 141.688 141.288 
141.058 140.534 140.19 139.655 139.35 138.911 138.657 138.238 142.298 
142.141 141.777 141.598 141.213 141.036 140.576 140.305 139.77 139.465 
139.001 138.752 138.366 138.106 137.703 142.22 142.121 141.759 141.573 
141.146 140.964 140.538 140.328 139.848 139.563 139.082 138.827 138.438 
138.226 137.859 137.595 137.185 142.069 142.009 141.661 141.51 141.072 
140.893 140.484 140.31 139.904 139.653 139.192 138.907 138.489 138.275 
137.923 137.719 137.34 137.07 136.656 141.897 141.466 141.613 141.437 
141.006 141.131 140.902 141.06 140.846 140.52 140.658 140.413 140.531 
140.312 140.469 140.285 139.907 140.133 139.889 140.031 139.77 139.933 
139.726 139.922 139.715 139.157 139.454 139.236 139.444 139.128 139.311 
139.018 139.269 139.019 139.268 138.997 138.434 138.696 138.513 138.755 
138.466 138.63 138.292 138.496 138.23 138.502 138.274 138.52 138.297 
137.859 138.028 137.825 138.048 137.811 137.986 137.68 137.821 137.557 
137.761 137.581 137.822 137.659 137.888 137.728 137.407 137.505 137.245 
137.397 137.142 137.332 137.054 137.226 136.952 137.141 136.932 137.167 
136.991 137.242 137.059 137.316 137.133 137.014 137.08 136.79 136.858 
136.557 136.689 136.417 136.591 136.332 136.52 136.281 136.504 136.287 
136.539 136.322 136.591 136.376 136.66 136.454 135.975 135.893 135.698 
135.252 135.848 135.634 135.2 135.012 134.595 135.838 135.617 135.199 
134.996 134.604 134.391 133.958 135.862 135.635 135.23 135.015 134.616 
134.408 133.992 133.754 133.328 135.926 135.696 135.314 135.074 134.646 
134.403 133.952 133.749 133.338 133.154 132.79 136.01 135.78 135.426 
135.19 134.78 134.475 133.983 133.703 133.266 133.104 132.719 132.588 
132.156 136.172 135.898 135.55 135.309 134.944 134.651 134.187 133.823 
133.349 133.072 132.67 132.48 132.014 131.821 131.28 136.458 136.14 
135.803 135.487 135.133 134.831 134.418 134.067 133.586 133.232 132.783 
132.499 132.07 131.776 131.297 130.994 130.589 136.726 136.46 136.154 
135.815 135.455 135.089 134.68 134.311 133.838 133.464 132.966 132.639 
132.205 131.919 131.549 131.221 130.921 130.591 130.444 144.502 144.83 
144.664 144.59 145.027 145.003 144.997 144.749 144.609 144.889 145.081 
145.178 145.118 145.009 144.749 144.59 144.596 144.824 144.937 145.099 
145.024 144.995 144.829 144.685 144.557 144.341 144.514 144.569 144.763 
144.723 144.823 144.669 144.705 144.574 144.57 144.433 143.884 144.142 
144.139 144.392 144.414 144.55 144.474 144.492 144.355 144.401 144.266 
144.303 144.056 143.207 143.516 143.482 143.847 143.894 144.208 144.211 
144.339 144.213 144.209 144.02 144.031 143.795 143.783 143.42 142.656 
142.874 142.852 143.151 143.163 143.542 143.533 143.888 143.788 143.984 
143.768 143.807 143.525 143.503 143.17 143.1 142.697 142.289 142.45 
142.441 142.625 142.582 142.82 142.735 143.069 142.971 143.334 143.186 
143.423 143.164 143.227 142.887 142.852 142.479 142.394 142.007 144.33 
144.377 144.28 144.123 144.326 144.252 144.092 144.06 143.853 144.271 
144.146 143.884 143.904 143.683 143.665 143.28 144.284 144.093 143.689 
143.604 143.272 143.331 142.96 142.928 142.463 144.237 144.102 143.635 
143.413 142.948 142.892 142.531 142.541 142.156 142.11 141.737 143.881 
143.932 143.476 143.314 142.78 142.636 142.243 142.194 141.853 141.805 
141.438 141.416 141.076 143.216 143.405 142.969 142.989 142.447 142.4 
141.945 141.933 141.536 141.506 141.07 141.051 140.643 140.69 140.338 
142.476 142.674 142.269 142.376 141.876 141.927 141.448 141.513 141.053 
141.089 140.586 140.597 140.141 140.206 139.875 139.96 139.681 141.799 
141.965 141.606 141.712 141.293 141.351 140.924 140.97 140.528 140.547 
140.058 140.061 139.623 139.692 139.408 139.526 139.325 139.395 139.166 
144.192 143.984 144.002 143.811 143.685 143.753 143.492 143.532 143.309 
143.11 143.326 143.049 143.148 142.871 142.993 142.837 142.345 142.64 
142.436 142.629 142.387 142.53 142.344 142.529 142.407 141.679 141.934 
141.807 142.015 141.832 142.011 141.817 142.007 141.84 142.056 141.882 
141.056 141.339 141.228 141.441 141.25 141.434 141.203 141.408 141.191 
141.433 141.24 141.473 141.243 140.331 140.663 140.537 140.819 140.603 
140.821 140.556 140.755 140.511 140.743 140.546 140.801 140.595 140.803 
140.522 139.651 139.922 139.783 140.065 139.86 140.115 139.872 140.095 
139.863 140.08 139.888 140.123 139.941 140.158 139.918 140.073 139.767 
139.099 139.298 139.14 139.354 139.166 139.389 139.183 139.41 139.208 
139.438 139.251 139.484 139.304 139.527 139.322 139.496 139.242 139.358 
139.088 134.048 134.431 134.394 134.728 134.849 134.789 135.132 135.109 
135.498 135.342 135.233 135.601 135.56 136.01 135.971 136.426 135.937 
135.784 136.185 136.11 136.616 136.557 137.053 136.961 137.393 136.541 
136.398 136.789 136.729 137.252 137.214 137.717 137.616 138.018 137.887 
138.24 137.122 136.987 137.331 137.275 137.741 137.777 138.273 138.251 
138.635 138.504 138.814 138.681 139.012 137.754 137.597 137.907 137.777 
138.123 138.142 138.582 138.676 139.089 139.071 139.386 139.26 139.567 
139.452 139.801 138.375 138.242 138.518 138.342 138.571 138.483 138.817 
138.896 139.325 139.424 139.802 139.783 140.101 140.01 140.343 140.249 
140.593 138.858 138.789 139.027 138.889 139.069 138.928 139.198 139.175 
139.597 139.667 140.109 140.146 140.518 140.492 140.84 140.782 141.128 
141.034 141.346 
POINT_DATA 1002
SCALARS Distance double
LOOKUP_TABLE default
141.774 142.126 142.26 141.973 142.57 141.352 142.274 142.879 141.572 
140.9 142.51 142.881 141.786 141.015 140.355 142.485 142.652 141.912 
141.057 140.273 139.63 142.213 142.426 141.825 141.081 140.211 139.456 
138.846 141.797 142.149 141.449 140.943 140.246 139.492 138.787 138.212 
141.422 141.842 140.998 140.574 140.122 139.599 138.948 138.281 137.742 
141.272 141.666 140.816 140.309 139.849 139.486 139.013 138.364 137.779 
137.334 141.252 141.568 140.872 140.339 139.733 139.281 138.889 138.297 
137.672 137.257 136.948 142.453 142.713 142.907 143.365 143.61 143.131 
144.028 144.211 143.685 143.247 144.267 144.431 143.994 143.449 142.96 
144.262 144.628 144.103 143.757 143.198 142.793 144.475 144.924 144.337 
144.352 143.953 143.312 142.748 144.701 144.954 144.578 144.785 144.705 
143.996 143.167 142.473 144.633 144.684 144.554 144.707 144.813 144.302 
143.416 142.697 142.148 144.371 144.366 144.337 144.41 144.544 144.296 
143.573 142.87 142.395 141.977 144.043 144.026 143.594 143.687 143.129 
144.104 143.394 142.737 143.985 144.302 142.942 142.281 143.719 144.232 
144.309 142.229 141.685 142.912 143.656 143.984 143.8 141.458 140.991 
141.905 142.47 143.086 143.309 143.092 140.648 140.209 141.087 141.448 
141.882 142.414 142.674 142.572 139.787 139.448 140.251 140.694 140.992 
141.356 141.847 142.141 142.126 139.065 138.836 139.408 139.852 140.22 
140.477 140.825 141.26 141.556 141.634 141.183 141.007 140.588 140.667 
140.15 139.787 140.258 139.691 139.263 138.909 139.894 139.334 138.856 
138.449 138.043 139.599 139.006 138.538 138.071 137.605 137.155 139.287 
138.675 138.181 137.72 137.182 136.667 136.228 138.949 138.429 137.89 
137.382 136.832 136.24 135.709 135.312 138.664 138.244 137.722 137.142 
136.566 135.965 135.357 134.845 134.506 138.434 138.023 137.525 136.947 
136.363 135.768 135.148 134.585 134.162 133.889 140.924 140.346 140.514 
139.461 139.822 139.835 138.446 138.798 139.043 139.161 137.472 137.698 
138.017 138.408 138.683 136.579 136.764 136.98 137.437 137.853 138.086 
135.722 136.055 136.224 136.487 136.859 137.12 137.366 134.866 135.35 
135.686 135.827 135.997 136.245 136.54 136.913 134.097 134.519 134.991 
135.245 135.336 135.536 135.902 136.328 136.705 133.442 133.615 132.972 
133.09 132.474 133.988 132.601 131.947 133.387 134.396 132.105 131.292 
132.902 133.755 134.627 131.466 130.682 132.418 133.287 134.081 134.852 
131.02 130.57 131.792 132.757 133.674 134.527 135.299 131.038 130.791 
131.416 132.14 133.144 134.169 135.108 135.836 131.041 130.741 131.367 
131.843 132.662 133.684 134.687 135.58 136.245 130.712 130.374 131.236 
131.8 132.469 133.327 134.226 135.069 135.843 136.471 133.535 133.046 
133.13 132.467 132.582 132.472 131.697 132.139 131.667 131.856 131.205 
131.984 130.829 131.059 131.262 131.139 131.864 130.568 130.636 130.788 
130.645 131.225 131.744 130.803 130.836 130.894 130.495 130.266 131.537 
131.915 131.237 131.198 131.192 130.721 130.252 130.389 132.091 132.324 
131.839 131.55 131.266 130.816 130.359 130.338 130.592 132.548 132.676 
132.357 131.911 131.311 130.761 130.399 130.357 130.479 130.466 138.345 
137.86 137.734 137.118 137.053 137.314 136.386 136.376 136.501 136.735 
135.684 135.613 135.785 135.953 136.165 134.804 134.769 134.94 135.126 
135.323 135.54 133.847 133.966 133.878 134.06 134.279 134.533 134.847 
133.026 133.266 132.939 133.088 133.294 133.493 133.831 134.241 132.482 
132.81 132.259 132.351 132.588 132.722 132.949 133.389 133.816 138.982 
138.435 139.099 138.491 139.122 137.81 138.466 139.076 137.847 137.149 
138.387 139.016 137.778 137.16 136.401 138.329 138.971 137.669 137.052 
136.352 135.556 138.337 138.955 137.657 136.979 136.299 135.545 134.764 
138.358 138.954 137.696 137.002 136.327 135.609 134.824 134.028 138.338 
138.948 137.64 136.953 136.328 135.683 134.918 134.1 133.379 138.311 