# vtk DataFile Version 4.0
vtk output
ASCII
DATASET POLYDATA
POINTS 1002 float
-78.1205 -105.044 54.1015 -78.3932 -104.967 54.8168 -78.7375 -104.962 54.2926 
-78.4743 -105.037 53.4914 -79.2727 -105.016 53.6438 -77.7281 -105.048 53.2789 
-79.0088 -104.958 52.8396 -80.0448 -105.046 52.9686 -78.1288 -104.894 52.7347 
-77.199 -104.786 52.5119 -79.637 -104.723 52.3658 -80.5565 -104.784 52.6294 
-78.6253 -104.556 52.3333 -77.6557 -104.374 52.2321 -76.778 -104.223 52.0757 
-79.9497 -104.219 52.1801 -80.5874 -104.109 52.5518 -79.0862 -104.121 52.0158 
-78.1069 -103.919 51.924 -77.2008 -103.762 51.7531 -76.5017 -103.699 51.552 
-80.0552 -103.655 51.7949 -80.7249 -103.51 52.0648 -79.3512 -103.709 51.5307 
-78.4958 -103.638 51.2792 -77.5415 -103.506 51.0113 -76.7587 -103.475 50.715 
-76.1078 -103.533 50.3571 -80.387 -103.5 50.875 -81.1587 -103.401 51.1305 
-79.6209 -103.509 50.692 -78.8266 -103.454 50.4589 -77.8679 -103.383 50.13 
-76.9624 -103.33 49.7894 -76.2819 -103.413 49.3924 -75.6422 -103.512 49.0268 
-80.7915 -103.589 49.9659 -81.4453 -103.38 50.4074 -80.0194 -103.563 49.7582 
-79.1994 -103.294 49.7262 -78.2539 -103.106 49.5707 -77.2605 -103.044 49.2917 
-76.4835 -103.086 48.9169 -75.8724 -103.255 48.4809 -75.2708 -103.319 48.2546 
-81.0098 -103.38 49.4951 -81.5033 -103.062 50.0636 -80.3658 -103.498 49.1025 
-79.596 -103.194 49.0748 -78.7127 -102.84 49.0797 -77.7346 -102.733 48.8826 
-76.8498 -102.717 48.6004 -76.1413 -102.818 48.2244 -75.5048 -103.006 47.8776 
-74.9121 -103.014 47.8085 -81.1365 -102.9 49.2387 -81.5583 -102.626 49.7852 
-80.5846 -103.126 48.7222 -79.8938 -103.012 48.5172 -79.1197 -102.734 48.4506 
-78.2817 -102.673 48.1682 -77.42 -102.674 47.8344 -76.5953 -102.596 47.6237 
-75.814 -102.66 47.3989 -75.106 -102.801 47.2347 -74.5144 -102.767 47.2887 
-78.9512 -104.896 55.2539 -79.433 -104.951 54.7141 -79.702 -104.942 55.7603 
-80.3366 -105.086 55.1496 -80.3935 -105.02 56.1535 -80.1985 -105.096 54.0308 
-80.9882 -105.029 55.4392 -80.7373 -104.78 56.3829 -81.0754 -105.107 54.4558 
-80.9514 -105.08 53.4012 -81.2135 -104.477 55.6821 -80.9278 -104.222 56.6105 
-81.4289 -104.647 54.8056 -81.412 -104.731 53.918 -81.1045 -104.587 53.1474 
-81.5081 -103.844 56.0107 -81.2835 -103.686 56.7501 -81.6485 -103.954 55.2039 
-81.5844 -104.029 54.3129 -81.3712 -104.055 53.5532 -81.0724 -103.808 52.904 
-82.0847 -103.454 56.1879 -81.8055 -103.222 56.6785 -82.2781 -103.621 55.619 
-82.2494 -103.626 54.676 -82.0244 -103.636 53.6828 -81.762 -103.565 52.9481 
-81.4957 -103.39 52.1542 -82.7472 -103.122 56.2263 -82.4371 -102.871 56.6874 
-83.0122 -103.43 55.7974 -83.1872 -103.558 54.9904 -83.1364 -103.558 53.8457 
-82.8303 -103.546 52.8709 -82.4034 -103.443 52.1063 -81.9298 -103.335 51.2847 
-83.4389 -102.864 56.4613 -83.1175 -102.752 56.9793 -83.6395 -103.081 55.8893 
-83.7962 -103.285 55.1202 -83.8729 -103.376 54.094 -83.7003 -103.409 53.0433 
-83.2375 -103.405 52.1654 -82.6099 -103.284 51.4326 -81.9925 -103.124 50.7579 
-84.0583 -102.728 56.8584 -83.6836 -102.697 57.3443 -84.2369 -102.763 56.1252 
-84.2555 -102.853 55.2134 -84.1774 -102.955 54.2574 -84.0151 -102.987 53.3335 
-83.716 -103.002 52.4398 -83.1941 -103.006 51.6248 -82.528 -102.892 50.9764 
-81.9518 -102.717 50.4124 -84.3191 -102.49 57.2967 -84.628 -102.51 56.6021 
-84.5863 -102.06 56.8137 -84.8178 -102.099 55.9057 -84.4901 -101.507 55.979 
-84.7169 -102.488 55.5747 -84.7603 -101.462 55.0819 -84.4486 -100.831 55.2129 
-84.8813 -102.076 54.8119 -84.5544 -102.522 54.4847 -84.8188 -100.57 54.3692 
-84.601 -100.108 54.606 -84.8744 -101.371 54.0505 -84.6229 -102.082 53.732 
-84.2236 -102.534 53.5326 -84.7825 -99.8375 53.6798 -84.3071 -99.7318 53.9915 
-84.8479 -100.457 53.2478 -84.6258 -101.38 52.8885 -84.2429 -102.003 52.7516 
-83.9358 -102.456 52.658 -84.0588 -99.6737 53.0553 -83.3134 -99.7363 53.3569 
-84.4826 -99.8671 52.539 -84.479 -100.599 52.0745 -84.2566 -101.373 51.9317 
-83.9579 -101.896 51.9129 -83.5996 -102.455 51.7852 -82.922 -99.6896 52.4936 
-82.3398 -99.5852 52.701 -83.5886 -99.6878 52.0614 -83.9366 -100.033 51.5757 
-83.9111 -100.72 51.3903 -83.7557 -101.386 51.3455 -83.4668 -101.973 51.1714 
-82.9986 -102.503 51.022 -82.1317 -99.3432 51.8639 -81.8952 -99.0061 52.042 
-82.6366 -99.4659 51.5615 -83.1338 -99.6322 51.1639 -83.2648 -100.097 50.9791 
-83.1405 -100.795 50.9568 -83.0052 -101.531 50.7293 -82.7501 -102.095 50.4552 
-82.3371 -102.434 50.4067 -81.8348 -98.6547 51.2162 -81.7695 -98.2444 51.4765 
-82.0592 -98.9556 50.9234 -82.4226 -99.2064 50.5757 -82.6451 -99.5769 50.3574 
-82.5671 -100.151 50.3514 -82.4236 -100.912 50.2337 -82.3517 -101.645 49.92 
-82.1828 -102.082 49.7588 -81.8752 -102.32 49.7993 -81.4135 -102.374 49.1021 
-81.7172 -102.063 49.0807 -81.1082 -102.08 48.4354 -81.9016 -101.686 49.1027 
-81.3298 -101.626 48.4935 -80.4575 -101.532 48.0541 -81.9561 -101.022 49.3088 
-81.4457 -100.97 48.6232 -80.5861 -100.86 48.2023 -79.7294 -100.764 47.7355 
-82.0445 -100.241 49.5012 -81.5478 -100.231 48.7628 -80.7032 -100.112 48.3316 
-79.8189 -100.069 47.8047 -79.3712 -100.123 47.0547 -82.1596 -99.5817 49.5245 
-81.6618 -99.608 48.8008 -80.8553 -99.5283 48.3745 -79.9002 -99.4197 47.89 
-79.4155 -99.4314 47.0866 -79.2166 -99.5167 46.3423 -82.1034 -99.0027 49.6321 
-81.6886 -98.9095 48.8385 -80.996 -98.8741 48.3775 -80.0477 -98.8022 47.9738 
-79.4216 -98.6723 47.2531 -79.2165 -98.5997 46.4535 -78.8347 -98.6332 45.9977 
-81.9143 -98.5191 49.9504 -81.6583 -98.1525 49.0307 -81.1386 -97.955 48.4168 
-80.295 -97.9504 48.0133 -79.5419 -97.9034 47.4275 -79.2123 -97.7178 46.6403 
-78.9065 -97.6419 46.0509 -78.2757 -97.7543 45.8047 -81.7615 -98.1469 50.3466 
-81.6013 -97.6641 49.3929 -81.2293 -97.2792 48.5861 -80.5372 -97.1347 48.0505 
-79.745 -97.1515 47.5405 -79.2575 -97.0401 46.8547 -78.952 -96.9003 46.2167 
-78.4477 -96.9805 45.8567 -77.761 -97.2054 45.6898 -81.6638 -97.7928 50.7534 
-81.4575 -97.4139 49.8872 -81.1002 -97.0819 48.9889 -80.5364 -96.7878 48.2838 
-79.843 -96.6011 47.7357 -79.3008 -96.4523 47.1164 -78.9496 -96.312 46.5126 
-78.5132 -96.3485 46.1459 -77.9124 -96.573 45.9581 -77.3116 -96.822 45.783 
-80.8805 -102.583 48.5558 -80.3659 -102.136 48.0209 -80.1762 -102.654 48.1553 
-79.6402 -101.441 47.7145 -79.5431 -102.061 47.728 -79.4115 -102.542 47.9379 
-79.1854 -100.694 47.1725 -78.965 -101.324 47.2831 -78.8589 -102.099 47.2734 
-78.6928 -102.606 47.4968 -79.0431 -100.152 46.355 -78.7129 -100.65 46.5365 
-78.4711 -101.457 46.5915 -78.3249 -102.418 46.494 -77.9715 -102.786 46.8933 
-78.6353 -99.487 45.9186 -78.3551 -100.119 45.9007 -78.1154 -100.745 46.0084 
-77.9688 -101.721 46.0062 -77.6725 -102.53 46.0288 -77.1288 -102.669 46.6545 
-77.9268 -98.5573 45.8104 -77.6163 -99.3921 45.7177 -77.4485 -100.113 45.6607 
-77.3736 -100.884 45.8351 -77.1608 -101.744 45.9557 -76.688 -102.304 46.0841 
-76.1599 -102.494 46.6446 -77.3517 -97.7892 45.6347 -76.9614 -98.5274 45.5846 
-76.7397 -99.3677 45.4417 -76.6367 -100.178 45.5163 -76.4367 -100.947 45.8588 
-76.0382 -101.668 46.0087 -75.5687 -102.209 46.1015 -75.2342 -102.552 46.5678 
-76.9864 -97.3067 45.5291 -76.6281 -97.8734 45.3878 -76.3547 -98.603 45.257 
-76.1524 -99.4327 45.2016 -75.8513 -100.221 45.4566 -75.4162 -100.975 45.7825 
-74.9802 -101.708 45.8574 -74.6535 -102.286 46.0176 -74.5025 -102.613 46.5737 
-76.7092 -96.6572 45.7545 -76.4306 -97.2238 45.4271 -76.0631 -96.413 45.6889 
-75.7607 -97.1449 45.4693 -75.234 -96.2379 45.6995 -76.1463 -97.875 45.2488 
-74.8429 -97.0848 45.674 -74.3035 -96.172 45.8624 -75.496 -97.9115 45.4192 
-75.9056 -98.6248 45.1795 -73.907 -96.987 45.8606 -73.6034 -96.2032 46.1342 
-74.5776 -97.8821 45.743 -75.2279 -98.6249 45.5217 -75.5485 -99.4076 45.2851 
-73.2253 -96.9908 46.1063 -73.1454 -96.4858 46.5854 -73.635 -97.8 45.9224 
-74.2749 -98.6056 45.9423 -74.7212 -99.363 45.7335 -74.9917 -100.212 45.5713 
-72.6796 -97.2247 46.6838 -72.586 -96.8911 47.1865 -72.8911 -97.8255 46.2358 
-73.3017 -98.6433 46.1375 -73.7528 -99.4343 46.1367 -74.1057 -100.253 45.8871 
-74.4705 -101.081 45.7343 -72.0838 -97.4264 47.3369 -71.8721 -97.0406 47.6292 
-72.3319 -97.9373 46.9249 -72.5812 -98.6743 46.4862 -72.8857 -99.5324 46.3102 
-73.271 -100.378 46.1795 -73.684 -101.198 45.9186 -74.1238 -101.874 45.8239 
-71.4735 -97.4795 47.7215 -71.219 -97.0044 47.8841 -71.8234 -98.0587 47.5886 
-72.0952 -98.7004 47.1776 -72.2964 -99.4879 46.6773 -72.5709 -100.406 46.4016 
-72.9666 -101.261 46.2344 -73.4252 -101.915 46.1388 -73.9323 -102.357 46.2566 
-70.9202 -97.597 48.0182 -70.7021 -97.1039 48.2353 -71.292 -98.256 47.993 
-71.6324 -98.8683 47.8314 -71.8752 -99.4653 47.3696 -72.0882 -100.288 46.8815 
-72.3548 -101.215 46.6053 -72.759 -101.87 46.5668 -73.3075 -102.237 46.7432 
-73.9179 -102.519 47.0191 -77.1514 -96.1992 46.1537 -76.4738 -95.8727 46.07 
-76.9181 -95.4789 46.3997 -76.1937 -95.1313 46.1181 -76.7606 -94.9592 46.3887 
-75.7583 -95.5402 45.8312 -75.9946 -94.7214 46.1979 -76.6701 -94.6889 46.7339 
-75.461 -94.9182 45.8317 -74.8886 -95.4331 45.7813 -75.8486 -94.3878 47.0091 
-76.4573 -94.3799 47.7095 -75.2376 -94.5891 46.3327 -74.5849 -94.9762 46.0236 
-74.0354 -95.5118 46.0921 -75.6713 -94.037 48.0366 -76.1656 -94.1733 48.548 
-75.1055 -94.2263 47.4244 -74.3345 -94.6585 46.7994 -73.7826 -95.1309 46.5422 
-73.5008 -95.747 46.5708 -75.5223 -94.1145 48.5863 -76.0471 -94.3238 49.0928 
-74.995 -94.1119 48.1883 -74.1917 -94.3676 47.7013 -73.4968 -94.7812 47.2207 
-73.282 -95.4139 47.0948 -73.0525 -96.2233 47.1595 -75.4795 -94.4298 49.3045 
-76.0946 -94.557 49.8731 -74.8365 -94.3677 48.8041 -74.0493 -94.3743 48.4338 
-73.2752 -94.5646 48.0123 -72.9492 -95.091 47.7597 -72.7979 -95.911 47.7739 
-72.3633 -96.6174 47.736 -75.4834 -94.5349 50.3903 -76.0974 -94.6942 50.7236 
-74.71 -94.455 49.9039 -73.8695 -94.4095 49.4621 -73.1314 -94.5456 49.0128 
-72.7354 -94.9934 48.6197 -72.5602 -95.6851 48.4948 -72.1792 -96.3207 48.3924 
-71.6158 -96.6939 48.1054 -75.4523 -94.6212 51.16 -75.989 -94.9067 51.2262 
-74.6882 -94.4059 50.9334 -73.8126 -94.2946 50.598 -73.1018 -94.4791 50.1382 
[...]
CELL_DATA 2000
SCALARS Distance double
LOOKUP_TABLE default
140.888 140.899 140.751 140.458 140.995 140.766 140.41 140.25 139.831 
141.053 140.832 140.367 140.174 139.703 139.519 139.022 140.785 140.734 
140.219 140.073 139.534 139.357 138.825 138.673 138.209 140.27 140.311 
139.854 139.813 139.286 139.153 138.589 138.437 137.928 137.851 137.421 
139.944 139.877 139.5 139.435 138.991 138.882 138.353 138.192 137.649 
137.537 137.084 137.046 136.646 139.841 139.723 139.381 139.225 138.811 
138.642 138.15 137.97 137.434 137.275 136.798 136.72 136.344 136.309 
135.964 139.632 139.612 139.28 139.166 138.736 138.537 138.029 137.812 
137.297 137.099 136.624 136.482 136.091 136.031 135.707 135.676 135.359 
139.272 139.317 138.998 138.98 138.561 138.43 137.927 137.726 137.241 
137.029 136.597 136.39 135.995 135.837 135.49 135.42 135.109 135.079 
134.768 141.152 141.69 141.327 141.211 142.362 141.981 141.889 141.482 
141.4 142.742 142.582 142.513 142.202 142.095 141.7 141.516 142.648 
142.703 142.597 142.567 142.382 142.22 141.935 141.625 141.214 142.479 
142.518 142.406 142.431 142.217 142.197 141.884 141.783 141.367 141.107 
140.637 142.452 142.458 142.484 142.393 142.31 142.109 141.911 141.705 
141.456 141.218 140.907 140.586 140.285 142.52 142.527 142.693 142.643 
142.725 142.482 142.406 142.036 141.902 141.527 141.358 140.975 140.747 
140.379 140.156 142.801 142.719 142.897 142.863 142.962 142.873 142.809 
142.586 142.405 142.091 141.867 141.508 141.226 140.849 140.529 140.204 
139.909 143.226 143.102 143.21 143.086 143.08 142.99 142.856 142.764 
142.511 142.375 142.05 141.855 141.486 141.216 140.81 140.5 140.112 
139.846 139.525 143.438 143.419 143.48 143.375 142.897 143.242 143.208 
143.28 143.109 142.104 142.565 142.626 142.924 142.79 142.903 142.741 
141.329 141.741 141.804 142.228 142.177 142.442 142.26 142.447 142.308 
140.619 140.966 140.925 141.352 141.319 141.72 141.583 141.858 141.679 
141.942 141.819 139.855 140.212 140.096 140.462 140.381 140.811 140.748 
141.119 140.99 141.275 141.138 141.42 141.281 138.976 139.381 139.262 
139.62 139.497 139.892 139.84 140.265 140.221 140.574 140.47 140.749 
140.598 140.848 140.647 138.04 138.462 138.35 138.744 138.608 139.003 
138.904 139.345 139.293 139.743 139.678 140.051 139.916 140.184 139.983 
140.195 139.97 137.153 137.534 137.415 137.81 137.676 138.08 137.961 
138.39 138.303 138.765 138.704 139.167 139.092 139.468 139.324 139.57 
139.376 139.563 139.384 139.041 139.008 138.852 138.484 138.899 138.777 
138.351 138.214 137.72 138.593 138.544 138.05 137.979 137.415 137.293 
136.683 138.179 138.144 137.633 137.588 137.007 136.905 136.272 136.172 
135.622 137.785 137.723 137.228 137.173 136.634 136.512 135.889 135.751 
135.189 135.16 134.739 137.421 137.331 136.8 136.759 136.222 136.152 
135.542 135.401 134.781 134.706 134.206 134.267 133.834 137.11 136.973 
136.384 136.299 135.711 135.676 135.071 135.007 134.374 134.288 133.705 
133.697 133.207 133.282 132.817 136.87 136.698 136.113 135.935 135.339 
135.199 134.616 134.523 133.95 133.865 133.304 133.231 132.73 132.714 
132.294 132.321 131.949 136.658 136.494 135.96 135.751 135.201 134.967 
134.412 134.201 133.661 133.503 132.983 132.87 132.389 132.323 131.927 
131.913 131.599 131.607 131.337 138.973 138.388 138.688 138.667 137.603 
138.001 137.929 138.296 138.207 136.585 137.078 136.994 137.447 137.354 
137.747 137.598 135.579 136.031 135.969 136.439 136.4 136.862 136.808 
137.15 136.994 134.759 135.137 135.08 135.46 135.444 135.915 135.973 
136.404 136.362 136.609 136.424 133.876 134.33 134.261 134.633 134.56 
134.992 135.055 135.565 135.617 135.983 135.837 136.031 135.809 132.821 
133.329 133.247 133.725 133.621 134.085 134.079 134.617 134.677 135.166 
135.078 135.383 135.159 135.391 135.228 131.907 132.284 132.193 132.649 
132.578 133.072 133.057 133.599 133.636 134.176 134.139 134.552 134.386 
134.688 134.535 134.842 134.792 131.286 131.514 131.423 131.725 131.69 
132.087 132.113 132.588 132.633 133.139 133.138 133.598 133.515 133.891 
133.79 134.131 134.09 134.443 134.448 130.955 130.461 130.841 131.082 
129.923 130.365 130.69 131.028 131.334 129.379 129.852 130.283 130.679 
131.04 131.357 131.74 128.93 129.33 129.791 130.271 130.709 131.082 
131.448 131.789 132.208 128.776 128.958 129.335 129.769 130.251 130.711 
131.106 131.471 131.828 132.225 132.649 128.906 128.921 129.166 129.398 
129.828 130.247 130.703 131.102 131.476 131.838 132.223 132.637 133.044 
128.952 129.033 129.215 129.333 129.654 129.917 130.353 130.72 131.155 
131.513 131.92 132.268 132.673 133.035 133.406 128.761 128.958 129.199 
129.375 129.676 129.838 130.191 130.443 130.868 131.213 131.656 132.005 
132.418 132.738 133.116 133.422 133.765 128.602 128.773 129.113 129.341 
129.732 129.891 130.227 130.366 130.73 130.98 131.419 131.75 132.175 
132.494 132.863 133.165 133.509 133.804 134.134 130.788 130.256 130.427 
130.213 129.676 129.805 129.527 129.764 129.571 129.347 129.288 128.959 
129.069 128.85 129.114 128.993 129.293 129.104 128.753 128.666 128.435 
128.508 128.41 128.631 128.617 129.298 129.099 128.764 128.607 128.355 
128.269 128.147 128.214 128.263 128.444 128.575 129.434 129.16 128.874 
128.677 128.43 128.266 128.068 128.035 128.056 128.216 128.421 128.599 
128.785 129.836 129.457 129.198 128.888 128.648 128.388 128.147 127.991 
127.94 128.037 128.25 128.475 128.679 128.81 128.851 130.305 129.942 
129.655 129.289 128.996 128.665 128.41 128.152 128.078 128.021 128.222 
128.354 128.592 128.691 128.707 128.735 128.638 130.656 130.362 130.05 
129.706 129.356 129.012 128.743 128.472 128.419 128.283 128.471 128.468 
128.719 128.711 128.776 128.673 128.568 128.506 128.457 136.373 135.749 
135.944 135.695 135.113 135.307 135.045 135.238 134.954 134.414 134.631 
134.325 134.545 134.234 134.449 134.142 133.622 133.866 133.508 133.75 
133.377 133.641 133.3 133.586 133.317 132.857 133.062 132.718 132.92 
132.523 132.739 132.358 132.656 132.374 132.749 132.573 132.249 132.372 
132.073 132.214 131.89 131.997 131.638 131.784 131.495 131.788 131.637 
132.047 131.977 131.755 131.831 131.51 131.629 131.336 131.457 131.156 
131.231 130.936 131.055 130.879 131.168 131.14 131.539 131.554 131.321 
131.366 131 131.069 130.701 130.849 130.533 130.72 130.43 130.571 
130.321 130.509 130.418 130.759 130.81 131.206 131.264 130.954 130.971 
130.616 130.602 130.184 130.214 129.843 130.014 129.742 129.972 129.722 
129.931 129.744 130.044 130.034 130.459 130.552 130.961 131.027 136.675 
136.922 136.546 136.05 137.172 136.794 136.284 135.916 135.421 137.384 
137.029 136.51 136.143 135.622 135.269 134.743 137.532 137.214 136.695 
136.346 135.809 135.453 134.897 134.541 133.967 137.628 137.344 136.856 
136.525 136.003 135.637 135.082 134.698 134.119 133.744 133.194 137.7 
137.439 136.991 136.691 136.195 135.837 135.295 134.905 134.355 133.952 
133.422 133.04 132.58 137.783 137.523 137.096 136.825 136.351 136.021 
135.476 135.108 134.573 134.21 133.712 133.328 132.856 132.491 132.084 
137.881 137.617 137.192 136.931 136.491 136.182 135.668 135.293 134.764 
134.412 133.94 133.604 133.138 132.775 132.321 131.996 131.623 137.967 
137.716 137.291 137.031 136.616 136.337 135.888 135.529 135.033 134.643 
134.178 133.827 133.388 133.035 132.58 132.23 131.821 131.539 131.22 
137.869 137.478 137.514 137.187 136.988 137.065 136.718 136.804 136.493 
136.398 136.498 136.12 136.264 135.952 136.095 135.77 135.871 135.91 
135.508 135.618 135.29 135.481 135.173 135.32 134.943 135.479 135.475 
135.09 135.084 134.712 134.808 134.489 134.664 134.325 134.457 134.083 
135.023 135.084 134.724 134.735 134.327 134.311 133.907 133.99 133.646 
133.806 133.464 133.609 133.265 134.469 134.541 134.134 134.255 133.828 
133.889 133.41 133.445 133.029 133.148 132.818 132.974 132.64 132.786 
132.455 134.024 133.988 133.499 133.572 133.114 133.249 132.778 132.878 
132.431 132.548 132.204 132.355 132.045 132.174 131.851 131.985 131.702 
133.699 133.594 133.059 133 132.519 132.56 132.144 132.228 131.844 
131.947 131.619 131.759 131.463 131.598 131.288 131.411 131.136 131.292 
131.093 133.314 132.433 132.816 132.666 131.59 131.951 131.877 132.209 
132.121 130.876 131.175 131.14 131.481 131.445 131.754 131.736 130.152 
130.422 130.304 130.723 130.736 131.117 131.113 131.424 131.448 129.507 
129.658 129.436 129.813 129.851 130.355 130.445 130.822 130.841 131.157 
131.225 129.182 129.177 128.993 129.102 129.155 129.527 129.719 130.132 
130.194 130.525 130.534 130.918 131.016 128.986 129.019 128.963 128.942 
128.998 129.102 129.264 129.509 129.563 129.834 129.781 130.149 130.195 
130.679 130.815 128.684 128.818 128.844 128.956 129.014 129.077 129.103 
129.187 129.119 129.251 129.134 129.393 129.418 129.852 130.04 130.521 
130.718 128.462 128.534 128.59 128.768 128.849 128.984 128.92 128.976 
128.779 128.839 128.668 128.831 128.854 129.182 129.415 129.84 130.125 
130.522 130.742 133.556 133.564 133.257 132.632 133.615 133.247 132.592 
132.284 131.725 133.841 133.386 132.748 132.323 131.78 131.489 131.056 
134.118 133.674 133.082 132.612 132.097 131.69 131.268 130.925 130.475 
134.334 133.925 133.361 132.962 132.465 132.07 131.595 131.2 130.707 
130.326 129.853 134.595 134.149 133.583 133.204 132.738 132.397 131.899 
131.492 130.906 130.516 130.003 129.72 129.379 134.921 134.46 133.894 
133.462 133.022 132.677 132.259 131.822 131.24 130.731 130.163 129.824 
129.456 129.294 129.063 135.229 134.806 134.268 133.817 133.374 133.011 
132.67 132.263 131.791 131.205 130.644 130.111 129.719 129.403 129.154 
128.977 128.765 135.518 135.129 134.638 134.202 133.756 133.381 133.047 
132.7 132.323 131.821 131.322 130.732 130.325 129.845 129.606 129.231 
129.035 128.747 128.595 134.08 134.752 134.343 134.125 135.386 134.974 
134.832 134.392 134.199 136.308 135.732 135.624 135.135 135.055 134.558 
134.43 137.424 136.828 136.743 136.115 136.059 135.487 135.414 134.854 
134.709 138.25 137.858 137.81 137.291 137.207 136.603 136.488 135.872 
135.724 135.121 134.939 138.9 138.538 138.485 138.149 138.093 137.67 
137.551 136.973 136.787 136.153 135.972 135.361 135.201 139.77 139.272 
139.199 138.773 138.764 138.42 138.422 137.976 137.84 137.229 137.007 
136.384 136.202 135.63 135.485 140.659 140.212 140.163 139.648 139.645 
139.186 139.249 138.829 138.8 138.257 138.04 137.402 137.147 136.57 
136.39 135.876 135.736 141.25 140.988 141.004 140.627 140.645 140.178 
140.182 139.711 139.658 139.167 138.978 138.393 138.11 137.501 137.269 
136.734 136.588 136.103 135.985 141.491 141.961 141.596 141.371 142.592 
142.156 141.904 141.484 141.135 143.001 142.694 142.319 141.966 141.547 
141.136 140.65 142.913 142.828 142.364 142.163 141.623 141.36 140.803 
140.503 139.983 142.542 142.556 142.129 142.022 141.476 141.279 140.703 
140.49 139.959 139.751 139.238 142.138 142.167 141.793 141.741 141.272 
141.113 140.598 140.385 139.899 139.687 139.202 138.962 138.417 141.724 
141.764 141.389 141.389 140.958 140.893 140.43 140.293 139.845 139.663 
139.216 138.967 138.453 138.144 137.604 141.334 141.36 141.002 140.99 
140.588 140.556 140.144 140.083 139.669 139.567 139.142 138.972 138.492 
138.222 137.696 137.387 136.906 141.03 141.03 140.724 140.669 140.308 
140.239 139.89 139.826 139.479 139.382 138.986 138.848 138.398 138.211 
137.719 137.474 136.987 136.728 136.292 140.813 140.353 140.571 140.482 
139.687 140.002 139.892 140.155 140.036 138.886 139.24 139.156 139.494 
139.429 139.709 139.632 138.12 138.45 138.382 138.735 138.728 139.084 
139.067 139.335 139.245 137.347 137.689 137.572 137.936 137.859 138.299 
138.262 138.674 138.561 138.864 138.703 136.547 136.873 136.69 137.047 
136.858 137.306 137.174 137.691 137.553 138.011 137.824 138.212 138.046 
135.849 136.095 135.895 136.164 135.961 136.297 136.141 136.569 136.449 
136.916 136.781 137.232 137.093 137.519 137.379 135.243 135.445 135.241 
135.446 135.259 135.505 135.369 135.669 135.563 135.914 135.815 136.215 
136.12 136.548 136.443 136.849 136.702 134.648 134.843 134.621 134.817 
134.606 134.843 134.68 134.961 134.817 135.119 134.977 135.322 135.203 
135.602 135.5 135.914 135.794 136.176 136.026 135.533 135.275 135.164 
134.659 134.989 134.884 134.384 134.27 133.804 134.702 134.589 134.103 
134.002 133.56 133.475 133.094 134.483 134.327 133.836 133.726 133.285 
133.22 132.809 132.768 132.344 134.344 134.153 133.657 133.497 133.054 
132.952 132.515 132.437 131.962 131.91 131.391 134.228 134.036 133.556 
133.368 132.934 132.78 132.351 132.188 131.72 131.572 131.104 130.974 
130.499 134.162 133.948 133.491 133.292 132.871 132.701 132.282 132.087 
131.638 131.435 131.022 130.84 130.446 130.236 129.823 134.191 133.943 
133.509 133.272 132.863 132.661 132.244 132.034 131.581 131.38 130.977 
130.823 130.469 130.274 129.861 129.619 129.207 134.249 134.013 133.604 
133.348 132.951 132.704 132.297 132.038 131.586 131.337 130.921 130.763 
130.433 130.294 129.929 129.691 129.266 129.023 128.7 143.086 142.681 
142.841 142.816 142.46 142.538 142.664 142.781 142.982 142.51 142.524 
142.789 142.85 143.212 143.226 143.482 142.625 142.662 142.994 143.107 
143.516 143.559 143.79 143.699 143.684 142.748 142.764 143.003 143.197 
143.545 143.75 143.929 143.926 143.824 143.674 143.432 142.768 142.828 
142.901 143.06 143.258 143.549 143.742 143.916 143.88 143.791 143.554 
143.345 143.058 142.411 142.656 142.672 142.856 142.927 143.17 143.344 
143.624 143.755 143.836 143.718 143.525 143.206 142.948 142.608 141.791 
142.13 142.191 142.488 142.547 142.802 142.909 143.208 143.379 143.646 
143.674 143.665 143.376 143.11 142.674 142.43 142.083 141.252 141.528 
141.61 141.934 142.022 142.338 142.414 142.729 142.829 143.179 143.25 
143.478 143.314 143.222 142.807 142.526 142.116 141.917 141.657 143.202 
142.913 143.055 142.988 142.979 142.875 142.763 142.734 142.472 143.362 
143.103 142.891 142.655 142.364 142.21 141.91 143.51 143.404 143.132 
142.877 142.512 142.235 141.896 141.725 141.44 143.234 143.301 143.013 
142.949 142.543 142.36 141.953 141.766 141.424 141.269 140.931 142.83 
142.919 142.613 142.639 142.228 142.195 141.779 141.721 141.347 141.237 
140.859 140.707 140.324 142.398 142.51 142.213 142.227 141.818 141.792 
141.392 141.412 141.066 141.059 140.678 140.587 140.181 140.07 139.705 
141.936 142.073 141.84 141.868 141.492 141.428 141.024 141.015 140.687 
140.718 140.365 140.332 139.924 139.864 139.49 139.442 139.108 141.545 
141.658 141.48 141.525 141.19 141.129 140.703 140.663 140.3 140.333 
139.996 139.997 139.612 139.572 139.207 139.184 138.869 138.84 138.523 
143.395 143.083 143.341 143.324 142.464 142.821 142.769 143.014 142.763 
141.855 142.147 142.096 142.361 142.156 142.314 141.986 141.348 141.578 
141.522 141.748 141.606 141.749 141.505 141.585 141.291 140.777 141.023 
140.906 141.174 141.027 141.233 141.009 141.139 140.875 140.947 140.638 
140.147 140.377 140.191 140.473 140.289 140.574 140.333 140.563 140.266 
140.448 140.121 140.239 139.863 139.557 139.746 139.529 139.744 139.532 
139.794 139.565 139.818 139.527 139.745 139.408 139.602 139.231 139.374 
138.961 138.977 139.163 138.928 139.105 138.854 139.065 138.828 139.065 
138.805 139.014 138.701 138.878 138.528 138.688 138.306 138.437 138.03 
138.381 138.568 138.319 138.494 138.221 138.405 138.144 138.355 138.1 
138.313 138.028 138.207 137.881 138.025 137.671 137.792 137.422 137.529 
137.158 134.159 134.476 134.506 134.836 134.884 134.854 135.226 135.178 
135.506 135.392 135.325 135.73 135.66 136.077 135.971 136.427 135.852 
135.826 136.23 136.201 136.643 136.589 137.045 136.989 137.466 136.29 
136.266 136.669 136.659 137.06 137.073 137.459 137.485 137.864 137.9 
138.25 136.833 136.764 137.178 137.108 137.475 137.437 137.774 137.783 
138.121 138.176 138.55 138.588 138.95 137.391 137.335 137.735 137.647 
138.004 137.903 138.241 138.15 138.505 138.467 138.909 138.938 139.444 
139.419 139.866 137.841 137.83 138.193 138.154 138.497 138.434 138.79 
138.698 139.067 138.964 139.396 139.378 139.912 139.949 140.448 140.39 
140.742 138.209 138.217 138.559 138.546 138.879 138.868 139.237 139.221 
139.595 139.533 139.901 139.866 140.306 140.369 140.828 140.87 141.187 
141.116 141.296 
POINT_DATA 1002
SCALARS Distance double
LOOKUP_TABLE default
140.648 141.016 141.001 140.606 141.092 140.122 140.6 141.294 140.024 
139.347 140.602 141.264 139.9 139.188 138.532 140.338 140.756 139.718 
138.986 138.302 137.794 139.84 140.215 139.384 138.757 138.026 137.459 
137.012 139.58 140.042 139.083 138.508 137.797 137.128 136.669 136.259 
139.551 139.932 139.015 138.337 137.607 136.902 136.366 135.999 135.635 
139.356 139.609 138.934 138.258 137.494 136.791 136.181 135.728 135.395 
135.049 138.986 139.223 138.652 138.099 137.426 136.804 136.2 135.605 
135.138 134.794 134.461 141.442 141.541 142.09 142.313 142.686 141.816 
142.749 142.794 142.479 141.992 142.568 142.585 142.476 142.191 141.622 
142.403 142.453 142.25 141.927 141.537 140.943 142.52 142.386 142.529 
142.154 141.655 141.177 140.602 142.676 142.499 142.883 142.765 142.302 
141.752 141.148 140.495 142.984 142.922 143.032 142.972 142.693 142.223 
141.627 140.906 140.187 143.403 143.355 143.244 142.967 142.63 142.211 
141.716 141.115 140.408 139.742 143.559 143.48 143.219 143.028 142.444 
143.117 142.225 141.644 142.628 142.628 141.355 140.99 141.834 142.071 
142.083 140.554 140.314 140.868 141.257 141.423 141.533 139.769 139.484 
139.966 140.312 140.679 140.869 141.013 138.893 138.552 139.126 139.401 
139.808 140.176 140.364 140.418 137.942 137.628 138.216 138.484 138.827 
139.245 139.613 139.772 139.759 137.033 136.798 137.273 137.541 137.859 
138.223 138.644 139.02 139.181 139.189 138.713 138.655 138.086 138.496 
137.903 137.172 138.118 137.538 136.806 136.073 137.673 137.11 136.373 
135.639 135.157 137.274 136.739 136.054 135.242 134.686 134.376 136.863 
136.264 135.664 134.909 134.192 133.741 133.385 136.518 135.771 135.099 
134.451 133.765 133.16 132.72 132.346 136.306 135.517 134.729 134.02 
133.38 132.769 132.264 131.899 131.602 136.144 135.432 134.655 133.854 
133.11 132.461 131.938 131.578 131.321 131.09 138.365 137.551 137.871 
136.512 136.919 137.272 135.51 135.886 136.396 136.755 134.746 134.985 
135.463 136.062 136.272 133.87 134.168 134.53 135.172 135.617 135.625 
132.734 133.139 133.558 134.149 134.712 134.908 134.945 131.773 132.074 
132.521 133.092 133.67 134.037 134.214 134.446 131.168 131.33 131.668 
132.151 132.656 133.088 133.423 133.734 134.09 130.607 130.749 130.029 
130.318 129.424 131.005 129.817 128.898 130.717 131.4 129.276 128.618 
130.283 131.13 131.817 128.981 128.73 129.751 130.721 131.468 132.203 
129.055 128.935 129.463 130.272 131.118 131.846 132.622 129.111 128.812 
129.482 130.018 130.771 131.578 132.338 133.062 128.954 128.518 129.533 
130.016 130.543 131.292 132.1 132.816 133.472 128.849 128.44 129.538 
130.126 130.542 131.107 131.86 132.566 133.207 133.851 130.67 130.005 
130.094 129.317 129.62 129.261 128.929 129.493 128.632 128.66 128.892 
129.498 128.439 128.235 128.338 128.91 129.487 128.494 128.136 128.073 
128.378 129.084 129.73 128.628 128.171 127.899 128.198 128.69 129.557 
130.221 128.953 128.367 127.907 128.015 128.541 128.808 130.049 130.647 
129.361 128.678 128.187 128.144 128.508 128.728 128.587 130.392 130.932 
129.71 129 128.554 128.519 128.753 128.898 128.705 128.415 136.178 
135.51 135.561 134.852 134.928 134.774 134.114 134.2 134.011 133.919 
133.285 133.381 133.127 132.995 132.988 132.521 132.671 132.348 132.095 
131.986 132.149 131.926 132.15 131.775 131.55 131.27 131.23 131.532 
131.417 131.697 131.189 131.047 130.873 130.666 130.743 131.146 130.983 
131.284 130.602 130.312 130.243 130.179 130.122 130.391 130.894 137.048 
136.413 137.306 136.665 137.546 135.776 136.878 137.727 135.988 135.103 
137.036 137.833 136.173 135.269 134.321 137.165 137.886 136.367 135.47 
134.507 133.53 137.266 137.948 136.543 135.676 134.74 133.82 132.918 
137.354 138.047 136.668 135.845 134.909 134.071 133.248 132.404 137.451 
138.146 136.773 136.034 135.127 134.256 133.494 132.673 131.888 137.551 
138.205 136.871 136.205 135.427 134.547 133.732 132.94 132.13 131.446 