# vtk DataFile Version 4.0
vtk output
ASCII
DATASET POLYDATA
POINTS 1002 float
-78.652 -96.8017 54.1656 -78.5167 -96.7371 53.338 -77.8726 -96.8243 53.5717 
-78.1176 -96.7185 54.6155 -77.1536 -96.789 53.9926 -78.7416 -96.9127 55.0686 
-77.4801 -96.6303 55.135 -76.5294 -96.7019 54.5912 -78.3357 -96.7487 55.6536 
-78.7927 -97.1714 55.8782 -76.8017 -96.7286 55.6078 -76.0758 -96.8029 55.1501 
-77.7401 -96.6684 56.197 -78.4489 -97.0013 56.5345 -78.952 -97.4038 56.7564 
-76.1931 -97.0529 55.9773 -75.6255 -97.0414 55.5627 -76.9423 -96.8524 56.6145 
-77.8312 -96.9354 57.1486 -78.565 -97.2695 57.4441 -79.2118 -97.6072 57.7009 
-75.6912 -97.3891 56.3244 -75.0846 -97.3114 55.8965 -76.2552 -97.2362 56.9469 
-76.9987 -97.1857 57.5678 -77.8805 -97.4004 57.9581 -78.6987 -97.6972 58.2049 
-79.3549 -98.1108 58.365 -75.2532 -97.7896 56.6316 -74.6398 -97.767 56.1759 
-75.8203 -97.7006 57.221 -76.3825 -97.6481 57.7989 -77.105 -97.8694 58.1848 
-77.9709 -98.1555 58.4602 -78.757 -98.4346 58.7196 -79.361 -98.8019 58.9132 
-74.8959 -98.3352 56.8729 -74.3911 -98.352 56.4517 -75.4474 -98.2883 57.4103 
-75.9783 -98.1901 57.975 -76.5518 -98.3228 58.3968 -77.295 -98.6676 58.6986 
-78.0972 -98.8984 59.0519 -78.7867 -99.083 59.4167 -79.399 -99.2933 59.7009 
-74.6287 -98.8251 57.1613 -74.1955 -98.8258 56.7992 -75.1173 -98.8673 57.6104 
-75.5997 -98.7917 58.1755 -76.0991 -98.7105 58.7596 -76.7606 -98.9227 59.1985 
-77.5377 -99.2141 59.5495 -78.2487 -99.3529 59.9319 -78.8826 -99.4886 60.2777 
-79.5207 -99.6271 60.5291 -74.3742 -99.1812 57.5492 -73.9381 -99.1613 57.2012 
-74.8788 -99.2953 57.9307 -75.3363 -99.3363 58.4348 -75.728 -99.1864 59.1081 
-76.2623 -99.157 59.7502 -77.0073 -99.3975 60.1564 -77.7603 -99.6071 60.4341 
-78.423 -99.7248 60.7122 -79.0541 -99.8711 60.9554 -79.675 -99.9677 61.1453 
-77.989 -96.6892 52.7718 -77.1895 -96.8503 52.9697 -77.5289 -96.4872 52.3944 
-76.6765 -96.5412 52.7046 -77.1709 -96.1285 52.1259 -76.4172 -96.7098 53.4911 
-76.2709 -96.0956 52.5335 -76.6787 -96.0186 51.6765 -75.9042 -96.238 53.2838 
-75.9009 -96.4716 54.2335 -75.8617 -96.1499 52.1478 -76.1504 -96.3727 51.1866 
-75.5138 -95.9581 52.9806 -75.391 -96.0391 53.9381 -75.5115 -96.5066 54.8603 
-75.666 -96.7025 51.8112 -75.9096 -96.897 50.9506 -75.2979 -96.4312 52.5449 
-74.9612 -96.199 53.455 -74.8353 -96.2858 54.4986 -74.9196 -96.7678 55.2842 
-75.5634 -97.2522 51.6131 -75.7936 -97.4076 50.8102 -75.1439 -97.105 52.2488 
-74.6683 -96.9377 53.0152 -74.2337 -96.7024 54.0452 -74.0844 -96.7476 54.9603 
-74.3003 -97.2127 55.5935 -75.2706 -97.7293 51.3686 -75.5696 -97.9555 50.6542 
-74.6979 -97.4778 51.9306 -74.197 -97.3757 52.6179 -73.7954 -97.2413 53.5993 
-73.4816 -97.0923 54.5777 -73.5702 -97.3374 55.2904 -73.9953 -97.8813 55.8626 
-74.9684 -98.267 51.2024 -75.3232 -98.5146 50.5987 -74.2437 -97.8438 51.6197 
-73.6171 -97.5422 52.1429 -73.3587 -97.4644 53.0359 -73.1562 -97.3998 54.0685 
-73.0836 -97.5359 54.9165 -73.4181 -98.0311 55.5789 -73.8812 -98.5288 56.1906 
-74.8012 -98.8325 51.1754 -75.113 -99.0312 50.6197 -74.1442 -98.4092 51.5251 
-73.4344 -97.9771 51.8744 -73.0973 -97.8351 52.5502 -72.9586 -97.8334 53.496 
-72.7891 -97.8484 54.4267 -72.9057 -98.137 55.2349 -73.3347 -98.6256 55.9424 
-73.7063 -98.9738 56.5892 -74.7303 -99.4589 50.9634 -74.3329 -99.1755 51.4254 
-74.276 -99.8774 51.1321 -73.8967 -99.5834 51.6213 -73.8453 -100.303 51.2792 
-73.7084 -98.7616 51.7912 -73.3748 -100.086 51.9427 -73.4279 -100.85 51.6845 
-73.3116 -99.3726 52.2197 -73.1499 -98.568 52.3231 -72.8614 -100.658 52.3998 
-73.0857 -101.566 52.2917 -72.6762 -99.9896 52.6798 -72.6939 -99.4676 52.9342 
-72.8174 -98.6441 53.1129 -72.7286 -101.332 52.8806 -72.9824 -102.245 52.9202 
-72.3462 -100.405 52.9943 -72.0901 -100.011 53.345 -72.2271 -99.5448 53.6812 
-72.5276 -98.6031 54.0028 -72.82 -102.074 53.5655 -73.066 -102.682 53.6387 
-72.614 -101.021 53.5288 -72.2191 -100.253 53.7436 -71.9375 -99.9459 54.1519 
-72.0792 -99.3358 54.5529 -72.4714 -98.554 54.9166 -72.8045 -102.675 54.4712 
-73.1787 -102.994 54.4033 -72.7333 -101.959 54.5497 -72.6911 -100.988 54.6787 
-72.3839 -100.346 54.9117 -72.1774 -99.8448 55.2288 -72.3735 -99.2293 55.5433 
-72.8353 -98.8093 55.7874 -72.8561 -103.103 55.2895 -73.2889 -103.383 55.0776 
-72.6308 -102.731 55.5661 -72.7191 -102.029 55.8054 -72.7191 -101.235 55.9565 
-72.542 -100.538 56.1016 -72.5295 -99.8837 56.2822 -72.8052 -99.4038 56.4457 
-73.2496 -99.1552 56.5472 -73.0852 -103.534 55.9989 -73.3952 -103.855 55.7424 
-72.7883 -103.22 56.3079 -72.7324 -102.737 56.5816 -72.7786 -102.091 56.7626 
-72.7154 -101.377 56.9151 -72.6731 -100.634 57.0717 -72.7975 -100.018 57.18 
-73.0863 -99.632 57.2292 -73.4991 -99.3759 57.2334 -73.9148 -99.5051 57.8848 
-73.4474 -99.7736 57.9856 -74.0211 -99.9945 58.6771 -73.1106 -100.122 58.0539 
-73.616 -100.3 58.8546 -74.2557 -100.533 59.4786 -72.9307 -100.634 58.0511 
-73.3921 -100.718 59.0064 -73.9662 -100.867 59.6667 -74.5029 -101.014 60.2132 
-72.8743 -101.338 57.8769 -73.2572 -101.331 59.0247 -73.7417 -101.403 59.8706 
-74.2645 -101.457 60.3579 -74.814 -101.554 61.0303 -72.957 -102.039 57.5886 
-73.228 -101.999 58.7775 -73.4995 -102.099 59.9683 -73.9114 -102.114 60.6295 
-74.5704 -102.074 61.2249 -75.1788 -102.15 62.0827 -73.0362 -102.671 57.3844 
-73.3401 -102.563 58.4578 -73.4588 -102.655 59.8142 -73.6474 -102.767 60.8134 
-74.2424 -102.67 61.5151 -74.9492 -102.597 62.3715 -75.3128 -102.621 63.2109 
-73.054 -103.297 57.2448 -73.3759 -103.227 58.3077 -73.554 -103.17 59.5615 
-73.7427 -103.234 60.6622 -74.208 -103.222 61.5158 -74.7999 -103.121 62.481 
-75.1515 -103.092 63.4664 -75.262 -103.041 64.2124 -73.1784 -103.807 57.0353 
-73.3431 -103.964 58.2129 -73.5219 -103.892 59.3619 -73.876 -103.744 60.3121 
-74.423 -103.696 61.1447 -74.8795 -103.705 62.1884 -75.1019 -103.74 63.3788 
-75.2148 -103.741 64.3452 -75.3948 -103.575 65.0331 -73.3883 -104.149 56.7558 
-73.4169 -104.458 58.002 -73.5068 -104.539 59.1457 -73.8809 -104.321 59.9634 
-74.5281 -104.12 60.6884 -74.9876 -104.169 61.7183 -75.0899 -104.358 63.0326 
-75.1599 -104.513 64.2209 -75.398 -104.465 65.05 -75.741 -104.152 65.6053 
-74.4878 -99.6229 58.2828 -74.673 -100.165 59.1203 -75.073 -99.7796 58.7211 
-74.8073 -100.64 60.0039 -75.2089 -100.228 59.6652 -75.4786 -99.7319 59.3473 
-74.9724 -101.077 60.9542 -75.2502 -100.576 60.7456 -75.5666 -100.072 60.4082 
-75.8572 -99.5667 60.1184 -75.3158 -101.666 61.9895 -75.4369 -101.016 61.8968 
-75.677 -100.411 61.5691 -76.0227 -99.9981 61.1256 -76.4906 -99.6623 60.6939 
-75.5093 -102.238 63.0109 -75.6868 -101.627 62.875 -75.8848 -100.869 62.678 
-76.2012 -100.376 62.2052 -76.7059 -100.159 61.5721 -77.2884 -99.9053 60.9787 
-75.4189 -102.609 64.0238 -75.707 -102.159 63.711 -76.0321 -101.491 63.4642 
-76.3641 -100.775 63.2136 -76.865 -100.425 62.6503 -77.5174 -100.301 61.8491 
-78.0634 -100.05 61.1871 -75.5029 -102.957 65.0335 -75.7897 -102.524 64.734 
-76.2034 -102.128 64.206 -76.5733 -101.45 63.8268 -77.0229 -100.738 63.5678 
-77.7083 -100.459 62.9352 -78.3746 -100.397 62.0453 -78.7913 -100.182 61.388 
-75.8928 -103.402 65.7877 -76.1747 -102.85 65.744 -76.6011 -102.597 65.1903 
-76.9678 -102.228 64.3807 -77.2845 -101.44 63.937 -77.8558 -100.737 63.6721 
-78.6091 -100.538 63.0024 -79.1641 -100.499 62.1546 -79.4589 -100.287 61.5614 
-76.1953 -104.129 65.9908 -76.478 -103.351 66.2037 -76.4925 -103.951 65.8544 
-76.925 -103.312 65.9792 -76.7773 -103.855 65.2069 -76.9403 -102.928 66.0778 
-77.4303 -103.419 65.2618 -77.596 -104.052 64.5995 -77.5772 -103.017 65.7289 
-77.4213 -102.769 65.2395 -78.4552 -103.652 64.7078 -78.8754 -104.329 64.3381 
-78.2959 -103.036 65.0805 -78.1256 -102.746 64.8461 -77.7087 -102.267 64.2545 
-79.714 -103.787 64.4224 -79.9706 -104.353 64.0855 -79.4098 -103.018 64.6776 
-79.0137 -102.534 64.5227 -78.5134 -102.096 64.0651 -78.101 -101.368 63.8549 
-80.6648 -103.779 64.0693 -80.7619 -104.217 63.6501 -80.5261 -103.048 64.3802 
-80.2013 -102.411 64.3864 -79.6527 -101.911 64.0821 -79.1367 -101.279 63.8005 
-78.8439 -100.754 63.5494 -81.3474 -103.741 63.554 -81.399 -104.092 63.0642 
-81.2971 -103.144 63.9571 -81.181 -102.458 64.1004 -80.8842 -101.831 64.0417 
-80.3723 -101.164 63.8494 -79.8974 -100.693 63.4641 -79.5441 -100.574 62.8517 
-81.8826 -103.636 62.8245 -81.8686 -103.944 62.3164 -81.8612 -103.189 63.3337 
-81.7691 -102.545 63.5686 -81.6724 -101.803 63.6552 -81.4007 -101.01 63.7278 
-80.8843 -100.442 63.4948 -80.3698 -100.351 62.8552 -79.9221 -100.42 62.1318 
-82.3058 -103.464 61.9889 -82.2731 -103.785 61.5751 -82.3296 -103.113 62.5166 
-82.2138 -102.577 62.8428 -82.0855 -101.832 62.9907 -81.9639 -100.977 63.2285 
-81.609 -100.272 63.3247 -81.0778 -100.02 62.915 -80.5964 -100.1 62.2193 
-80.1471 -100.129 61.6105 -75.8367 -104.956 65.6822 -76.197 -104.879 65.8262 
-75.8418 -105.6 65.5908 -76.2151 -105.451 65.5367 -75.953 -105.884 65.0294 
-76.4192 -104.577 65.4144 -76.5484 -105.729 64.8515 -76.368 -105.827 63.914 
-76.7236 -105.092 65.0765 -76.9963 -104.414 64.7573 -77.2252 -105.784 63.7781 
-76.9481 -105.683 62.8002 -77.4799 -105.498 64.4769 -77.7649 -104.924 64.5396 
-78.1998 -104.573 64.3484 -77.9144 -105.828 62.7712 -77.4969 -105.708 61.9623 
-78.2728 -105.874 63.5077 -78.6028 -105.541 63.9695 -78.9517 -105.04 64.0854 
-79.3986 -104.707 64.0795 -78.4264 -105.926 61.843 -78.0164 -105.763 61.0679 
-78.7819 -106.157 62.4855 -79.1094 -106.226 63.0448 -79.4689 -105.802 63.4351 
-79.8626 -105.129 63.6263 -80.2933 -104.617 63.6677 -78.809 -105.875 60.882 
-78.4527 -105.649 60.1164 -79.1061 -106.175 61.5084 -79.424 -106.508 62.1318 
-79.8638 -106.525 62.7093 -80.3603 -105.934 63.0697 -80.7666 -105.109 63.2034 
-81.0788 -104.505 63.1586 -79.099 -105.754 60.0844 -78.7142 -105.608 59.3349 
-79.4024 -106.018 60.6844 -79.7321 -106.321 61.2867 -80.2244 -106.542 61.9889 
-80.8107 -106.411 62.5167 -81.2808 -105.809 62.7464 -81.5273 -105.041 62.7287 
-81.6634 -104.415 62.5206 -79.3126 -105.872 59.4436 -78.8575 -105.872 58.7074 
-79.6714 -106.023 60.047 -80.016 -106.179 60.5374 -80.4773 -106.203 61.13 
[...]
CELL_DATA 2000
SCALARS Distance double
LOOKUP_TABLE default
134.606 134.381 134.694 135.082 134.159 134.469 134.909 135.208 135.616 
134.074 134.296 134.737 135.04 135.504 135.78 136.203 134.131 134.284 
134.659 134.89 135.347 135.657 136.129 136.398 136.848 134.205 134.361 
134.716 134.863 135.267 135.52 136.014 136.313 136.805 137.07 137.547 
134.339 134.463 134.877 134.974 135.371 135.517 136 136.244 136.782 
137.044 137.561 137.798 138.284 134.638 134.686 135.132 135.199 135.617 
135.691 136.141 136.304 136.843 137.077 137.629 137.85 138.358 138.553 
139.016 135.009 135.029 135.447 135.503 135.924 135.972 136.383 136.478 
136.971 137.173 137.731 137.953 138.468 138.652 139.112 139.281 139.705 
135.321 135.36 135.756 135.824 136.255 136.3 136.7 136.736 137.169 
137.309 137.839 138.059 138.584 138.771 139.223 139.381 139.801 139.956 
140.342 134.269 133.692 133.992 134.017 133.11 133.396 133.381 133.701 
133.756 132.534 132.793 132.73 133.031 133.071 133.475 133.656 132.161 
132.292 132.226 132.405 132.412 132.776 132.978 133.454 133.72 132.186 
132.15 132.179 132.124 132.139 132.248 132.403 132.77 133.04 133.514 
133.769 132.409 132.342 132.416 132.288 132.315 132.221 132.287 132.36 
132.533 132.845 133.119 133.569 133.881 132.595 132.544 132.499 132.437 
132.342 132.348 132.308 132.342 132.37 132.488 132.69 133.009 133.391 
133.813 134.224 132.803 132.699 132.547 132.397 132.144 132.151 132.045 
132.197 132.205 132.344 132.464 132.692 133.045 133.426 133.895 134.271 
134.666 133.081 132.94 132.812 132.523 132.254 132.025 131.932 131.946 
132.075 132.182 132.359 132.501 132.795 133.111 133.563 133.967 134.388 
134.712 135.016 133.248 133.396 133.241 132.946 133.527 133.357 133.061 
132.806 132.403 133.754 133.517 133.311 133.025 132.729 132.363 132.122 
134.168 133.807 133.586 133.326 133.179 132.867 132.714 132.335 132.275 
134.802 134.317 133.986 133.617 133.442 133.264 133.205 132.967 132.867 
132.554 132.53 135.542 135.046 134.755 134.18 133.934 133.565 133.532 
133.35 133.343 133.097 133.064 132.81 132.932 136.225 135.821 135.702 
135.131 134.986 134.364 134.34 133.877 133.969 133.616 133.707 133.399 
133.575 133.361 133.676 136.854 136.511 136.503 136.098 136.101 135.559 
135.567 134.97 135.026 134.487 134.587 134.158 134.33 134.053 134.331 
134.167 134.476 137.528 137.185 137.221 136.883 136.944 136.568 136.598 
136.139 136.129 135.613 135.611 135.123 135.19 134.825 134.995 134.777 
135.005 134.867 135.084 135.432 135.393 135.603 136.05 135.45 135.62 
136.107 136.327 136.868 135.692 135.783 136.317 136.472 137.035 137.212 
137.738 136.113 136.127 136.676 136.776 137.366 137.471 137.999 138.089 
138.603 136.594 136.58 137.084 137.165 137.758 137.859 138.396 138.431 
138.936 139.018 139.599 137.029 137.035 137.486 137.548 138.101 138.23 
138.783 138.847 139.34 139.394 139.948 140.07 140.625 137.388 137.443 
137.915 137.952 138.471 138.557 139.105 139.202 139.717 139.791 140.322 
140.425 140.974 141.052 141.487 137.689 137.794 138.337 138.403 138.927 
138.957 139.454 139.516 140.024 140.128 140.663 140.783 141.338 141.426 
141.925 141.909 142.302 137.961 138.086 138.647 138.792 139.323 139.391 
139.818 139.852 140.272 140.382 140.883 141.059 141.612 141.77 142.315 
142.382 142.858 142.794 143.175 135.587 136.243 135.951 136.081 137.063 
136.714 136.859 136.517 136.624 137.881 137.55 137.674 137.332 137.405 
137.039 137.07 138.724 138.354 138.459 138.111 138.17 137.807 137.831 
137.461 137.524 139.744 139.284 139.393 138.937 138.994 138.574 138.63 
138.25 138.361 138.005 138.181 140.732 140.323 140.405 139.934 139.947 
139.461 139.491 139.08 139.207 138.869 139.056 138.725 138.907 141.501 
141.173 141.206 140.847 140.829 140.399 140.367 139.945 140.012 139.685 
139.854 139.564 139.731 139.406 139.534 142.268 141.888 141.936 141.582 
141.633 141.239 141.242 140.8 140.815 140.449 140.576 140.309 140.489 
140.202 140.342 139.999 140.107 143.118 142.703 142.774 142.386 142.518 
142.119 142.204 141.722 141.712 141.246 141.286 140.982 141.14 140.915 
141.078 140.792 140.897 140.555 140.634 143.536 143.811 143.564 143.218 
143.765 143.743 143.612 143.334 143.022 143.803 143.714 143.736 143.656 
143.503 143.148 142.73 144.318 143.979 143.935 143.779 143.682 143.486 
143.11 142.709 142.174 144.961 144.611 144.446 144.109 143.918 143.646 
143.311 142.972 142.493 142.096 141.674 145.297 145.117 144.952 144.632 
144.391 144.014 143.709 143.278 142.898 142.452 142.119 141.738 141.509 
145.392 145.328 145.218 145.023 144.812 144.5 144.231 143.817 143.476 
142.988 142.656 142.233 142.003 141.66 141.454 145.311 145.343 145.254 
145.193 144.992 144.806 144.517 144.254 143.902 143.538 143.133 142.74 
142.403 142.089 141.834 141.542 141.271 145.109 145.178 145.096 145.14 
144.956 144.869 144.543 144.378 143.999 143.786 143.369 143.08 142.67 
142.386 142.065 141.828 141.553 141.289 140.994 143.883 144.402 144.171 
144.07 144.646 144.566 144.394 144.13 143.893 144.567 144.69 144.641 
144.425 144.196 143.928 143.889 144.34 144.581 144.78 144.717 144.691 
144.387 144.416 144.186 144.44 144.216 144.448 144.832 144.923 145.138 
144.97 145.065 144.816 144.99 144.844 145.072 144.163 144.402 144.816 
145.014 145.363 145.396 145.583 145.421 145.499 145.318 145.399 145.301 
145.37 143.982 144.287 144.645 144.934 145.296 145.527 145.843 145.866 
146.026 145.822 145.858 145.617 145.624 145.475 145.467 143.743 144.039 
144.38 144.681 145.013 145.339 145.697 145.971 146.253 146.285 146.376 
146.154 146.106 145.817 145.719 145.518 145.411 143.657 143.861 144.234 
144.456 144.789 145.044 145.347 145.674 145.914 146.22 146.301 146.426 
146.338 146.24 146.055 145.823 145.614 145.403 145.234 138.269 138.898 
138.707 138.96 139.515 139.346 139.638 139.442 139.66 140.24 140.038 
140.348 140.117 140.318 140.057 140.148 141.006 140.839 141.184 140.896 
141.061 140.715 140.792 140.486 140.577 141.567 141.517 141.876 141.71 
141.875 141.515 141.57 141.194 141.325 141.014 141.209 141.949 141.917 
142.205 142.214 142.415 142.242 142.319 142.007 142.146 141.84 142.088 
141.767 141.993 142.343 142.237 142.452 142.451 142.686 142.641 142.794 
142.644 142.823 142.637 142.926 142.683 142.969 142.599 142.763 142.794 
142.641 142.865 142.782 143.065 142.971 143.196 143.065 143.296 143.204 
143.543 143.452 143.808 143.569 143.777 143.342 143.369 143.296 143.119 
143.363 143.262 143.585 143.472 143.745 143.564 143.796 143.659 143.971 
143.948 144.303 144.254 144.475 144.238 144.246 143.813 143.682 138.056 
138.095 138.256 138.66 138.231 138.35 138.675 138.824 139.231 138.281 
138.468 138.794 138.882 139.185 139.384 139.871 138.273 138.482 138.874 
139 139.283 139.379 139.744 140.036 140.573 138.37 138.514 138.938 
139.089 139.443 139.51 139.832 139.97 140.421 140.732 141.215 138.492 
138.627 139.015 139.182 139.578 139.687 140.057 140.135 140.588 140.737 
141.241 141.409 141.792 138.521 138.674 139.017 139.223 139.62 139.807 
140.212 140.352 140.825 140.983 141.515 141.624 142.037 142.037 142.299 
138.595 138.684 139.01 139.19 139.613 139.837 140.279 140.466 140.903 
141.121 141.61 141.846 142.27 142.351 142.6 142.549 142.746 138.826 
138.829 139.145 139.236 139.681 139.878 140.382 140.559 140.975 141.132 
141.521 141.782 142.201 142.452 142.778 142.844 143.06 143.013 143.238 
139.084 139.547 139.341 139.399 139.986 139.832 139.997 139.77 139.961 
140.52 140.344 140.635 140.443 140.719 140.465 140.689 141.24 140.986 
141.275 141.1 141.395 141.207 141.395 141.132 141.241 141.938 141.7 
141.862 141.69 141.912 141.792 141.967 141.759 141.832 141.577 141.701 
142.512 142.31 142.424 142.213 142.393 142.263 142.514 142.339 142.526 
142.228 142.389 142.117 142.357 143.152 142.934 143.163 142.855 143.073 
142.821 143.117 142.94 143.249 143.011 143.254 142.93 143.137 142.835 
143.004 143.838 143.669 143.999 143.712 143.956 143.625 143.823 143.567 
143.764 143.624 143.839 143.707 143.885 143.637 143.718 143.386 143.375 
144.393 144.31 144.596 144.454 144.649 144.437 144.531 144.248 144.247 
144.02 144.07 144.03 144.192 144.178 144.285 144.072 144.033 143.668 
143.578 144.783 145.288 144.979 144.876 145.62 145.329 145.116 144.971 
144.886 145.75 145.553 145.305 145.158 145.099 144.97 144.828 145.704 
145.643 145.54 145.398 145.388 145.234 145.113 144.835 144.538 145.736 
145.679 145.66 145.583 145.568 145.514 145.404 145.157 144.833 144.493 
144.252 145.909 145.837 145.712 145.593 145.394 145.447 145.329 145.34 
145.117 144.858 144.632 144.367 144.346 145.867 145.949 145.823 145.658 
145.367 145.222 145.082 145.136 145.125 145.094 145.016 144.813 144.751 
144.55 144.502 145.525 145.754 145.823 145.81 145.75 145.471 145.433 
145.189 145.299 145.181 145.26 145.125 145.058 144.887 144.721 144.537 
144.282 145.227 145.425 145.643 145.812 146.015 145.966 146.104 145.849 
145.958 145.652 145.69 145.415 145.312 145.089 144.869 144.672 144.369 
144.163 143.824 144.73 144.875 145.068 145.429 144.816 145.226 145.819 
145.829 145.979 144.394 145.011 145.715 146.112 146.385 146.242 146.079 
143.816 144.429 145.017 145.687 145.971 146.272 146.045 145.996 145.728 
143.302 143.818 144.277 144.863 145.101 145.539 145.356 145.562 145.309 
145.524 145.558 142.75 143.269 143.707 144.198 144.485 144.801 144.796 
144.913 144.843 145.032 145.212 145.521 145.773 142.135 142.654 143.083 
143.616 143.97 144.347 144.533 144.666 144.789 144.848 145.088 145.262 
145.52 145.72 145.775 141.633 142.06 142.466 142.97 143.334 143.801 
144.059 144.414 144.637 144.878 145.108 145.257 145.394 145.482 145.439 
145.531 145.394 141.307 141.629 142.001 142.411 142.766 143.185 143.45 
143.858 144.092 144.517 144.752 145.101 145.201 145.343 145.242 145.25 
145.092 145.144 145.077 144.257 143.403 143.98 144.261 142.6 143.105 
143.324 143.904 144.108 141.919 142.354 142.518 142.983 143.103 143.649 
143.74 141.166 141.641 141.702 142.143 142.159 142.654 142.693 143.233 
143.275 140.241 140.791 140.803 141.24 141.136 141.613 141.59 142.174 
142.229 142.789 142.814 139.225 139.795 139.877 140.336 140.268 140.631 
140.597 141.079 141.187 141.753 141.832 142.333 142.301 138.292 138.766 
138.84 139.382 139.437 139.864 139.918 140.288 140.452 140.87 141.033 
141.429 141.437 141.808 141.738 137.57 137.886 137.842 138.321 138.368 
138.942 139.059 139.608 139.792 140.266 140.44 140.789 140.821 141.074 
141.009 141.302 141.272 136.977 137.222 137.121 137.424 137.394 137.858 
137.942 138.569 138.75 139.424 139.598 140.139 140.181 140.513 140.447 
140.689 140.652 140.941 140.98 136.586 136.062 136.492 136.781 135.519 
135.999 136.355 136.708 137.017 134.981 135.465 135.898 136.308 136.654 
137.01 137.471 134.608 134.984 135.455 135.884 136.333 136.693 137.164 
137.587 138.238 134.472 134.732 135.194 135.54 136.065 136.428 136.947 
137.323 137.934 138.427 139.113 134.435 134.671 135.129 135.392 135.896 
136.223 136.753 137.114 137.667 138.111 138.723 139.231 139.758 134.429 
134.653 135.118 135.358 135.818 136.092 136.575 136.908 137.426 137.823 
138.38 138.834 139.352 139.768 140.124 134.503 134.675 135.122 135.342 
135.794 136.03 136.485 136.756 137.252 137.589 138.145 138.538 139.087 
139.446 139.871 140.134 140.419 134.636 134.766 135.167 135.351 135.787 
136.01 136.468 136.706 137.181 137.456 137.98 138.332 138.89 139.252 
139.73 139.989 140.33 140.497 140.769 134.84 135.311 135.157 135.354 
135.823 135.645 135.847 135.709 135.958 136.411 136.195 136.41 136.24 
136.523 136.378 136.665 137.087 136.845 137.085 136.866 137.158 136.985 
137.295 137.118 137.396 137.804 137.567 137.823 137.583 137.843 137.637 
137.912 137.743 138.035 137.864 138.173 138.521 138.293 138.548 138.316 
138.557 138.324 138.564 138.359 138.65 138.495 138.853 138.702 139.067 
139.23 139.005 139.253 139.024 139.283 139.048 139.325 139.074 139.376 
139.157 139.516 139.367 139.744 139.595 139.896 139.913 139.703 139.948 
139.724 139.987 139.776 140.084 139.868 140.177 139.935 140.226 140.026 
140.33 140.196 140.463 140.312 140.487 140.532 140.354 140.587 140.392 
140.627 140.447 140.719 140.568 140.841 140.667 140.883 140.685 140.884 
140.729 140.948 140.816 140.998 140.82 140.935 141.272 141.353 141.512 
141.919 141.319 141.543 141.971 142.188 142.626 141.26 141.476 141.916 
142.187 142.644 142.865 143.27 141.256 141.435 141.846 142.111 142.598 
142.859 143.291 143.481 143.896 141.228 141.427 141.8 142.041 142.508 
142.8 143.26 143.489 143.899 144.116 144.548 141.124 141.359 141.725 
141.968 142.379 142.678 143.101 143.391 143.757 144.035 144.392 144.688 
144.992 141.025 141.25 141.611 141.851 142.221 142.506 142.874 143.17 
143.492 143.789 144.091 144.417 144.671 144.95 145.058 140.974 141.176 
141.518 141.729 142.073 142.325 142.687 142.952 143.288 143.533 143.859 
144.121 144.427 144.652 144.815 144.942 144.968 140.923 141.132 141.466 
141.651 141.976 142.187 142.561 142.808 143.206 143.421 143.797 143.991 
144.357 144.531 144.804 144.863 144.97 144.949 145.005 133.012 132.721 
132.788 132.689 132.464 132.486 132.331 132.466 132.595 132.226 132.231 
132.038 132.116 132.211 132.554 133.046 132.044 132.018 131.853 131.868 
131.932 132.196 132.655 133.161 133.762 132.128 131.975 131.892 131.796 
131.88 132 132.383 132.773 133.309 133.792 134.185 132.554 132.279 
132.253 132.019 132.132 132.09 132.436 132.609 133.052 133.363 133.73 
134.07 134.323 133.127 132.831 132.831 132.528 132.642 132.48 132.798 
132.796 133.183 133.266 133.608 133.762 134.091 134.312 134.7 133.708 
133.43 133.47 133.167 133.287 133.064 133.336 133.231 133.563 133.517 
133.841 133.849 134.224 134.313 134.785 134.95 135.487 134.287 134.028 
134.113 133.833 133.978 133.734 133.968 133.793 134.06 133.936 134.224 
134.175 134.555 134.597 135.076 135.175 135.681 135.827 136.302 133.144 
132.887 133.118 133.367 132.934 133.004 133.351 133.483 133.847 133.489 
133.337 133.681 133.625 133.987 134.077 134.48 134.193 134.035 134.279 
134.076 134.278 134.244 134.573 134.717 135.11 134.546 134.583 134.775 
134.628 134.709 134.562 134.798 134.842 135.262 135.386 135.795 134.642 
134.749 135.006 134.994 135.157 135.019 135.27 135.196 135.643 135.665 
136.145 136.151 136.539 135.017 134.948 135.317 135.269 135.602 135.503 
135.85 135.755 136.185 136.147 136.605 136.58 136.979 136.932 137.279 
135.792 135.572 136 135.814 136.23 136.066 136.457 136.34 136.727 
136.666 137.047 137.024 137.402 137.382 137.746 137.691 138.01 136.571 
136.401 136.794 136.612 136.986 136.789 137.118 136.95 137.265 137.159 
137.481 137.43 137.786 137.782 138.172 138.157 138.503 138.412 138.654 
133.327 133.53 133.464 133.541 133.949 133.747 133.806 133.664 133.691 
134.591 134.291 134.321 134.037 134.075 133.87 133.943 135.256 134.975 
135.047 134.693 134.726 134.392 134.499 134.256 134.428 135.888 135.625 
135.754 135.458 135.538 135.161 135.233 134.905 135.077 134.843 135.069 
136.562 136.266 136.408 136.159 136.323 135.998 136.073 135.685 135.767 
135.487 135.68 135.496 135.725 137.283 136.958 137.087 136.833 137.027 
136.766 136.885 136.516 136.561 136.199 136.335 136.095 136.323 136.137 
136.358 137.979 137.663 137.757 137.505 137.669 137.445 137.572 137.273 
137.33 136.986 137.112 136.821 137.056 136.798 137.03 136.777 136.987 
138.563 138.289 138.318 138.101 138.216 138.035 138.158 137.919 137.996 
137.707 137.839 137.589 137.822 137.58 137.802 137.511 137.685 137.413 
137.624 144.054 143.458 143.59 143.217 142.837 142.974 142.616 142.727 
142.408 142.318 142.424 142.107 142.162 141.839 141.974 141.73 141.754 
141.932 141.62 141.689 141.305 141.4 141.083 141.278 140.992 140.963 
141.24 140.895 141.097 140.66 140.798 140.357 140.546 140.164 140.415 
140.039 140.227 140.417 140.092 140.293 139.911 140.075 139.639 139.782 
139.356 139.549 139.174 139.413 139.045 139.785 139.85 139.587 139.639 
139.331 139.401 139.056 139.129 138.775 138.859 138.555 138.677 138.414 
138.543 138.248 139.435 139.519 139.28 139.283 138.953 138.948 138.6 
138.638 138.321 138.386 138.13 138.215 138.015 138.092 137.875 137.902 
137.63 138.993 139.137 138.89 138.949 138.576 138.577 138.177 138.205 
137.865 137.943 137.666 137.788 137.555 137.697 137.457 137.559 137.268 
137.312 137.007 
POINT_DATA 1002
SCALARS Distance double
LOOKUP_TABLE default
134.981 134.529 134.311 134.793 134.041 135.473 134.575 133.864 135.361 
136.015 134.452 133.907 135.185 135.966 136.631 134.493 133.995 135.036 
135.822 136.6 137.315 134.597 134.025 135.062 135.704 136.519 137.297 
138.03 134.769 134.224 135.267 135.786 136.511 137.317 138.069 138.753 
135.066 134.626 135.562 136.023 136.615 137.403 138.167 138.84 139.455 
135.395 135.008 135.882 136.331 136.796 137.501 138.291 138.95 139.549 
140.113 135.678 135.28 136.196 136.689 137.082 137.631 138.388 139.074 
139.646 140.207 140.706 133.967 133.7 133.409 133.08 132.841 133.365 
132.46 132.304 132.651 133.198 132.114 132.067 132.107 132.48 133.259 
132.272 132.22 132.154 132.158 132.572 133.289 132.537 132.473 132.44 
132.354 132.354 132.677 133.394 132.626 132.687 132.337 132.253 132.322 
132.437 132.957 133.822 132.786 132.938 132.231 131.866 132.019 132.276 
132.681 133.498 134.367 133.098 133.208 132.555 131.979 131.954 132.254 
132.549 133.155 134.037 134.762 133.44 133.187 133.563 133.323 133.698 
132.677 133.534 134.033 133.077 132.434 133.858 134.616 133.37 133.092 
132.62 134.478 135.313 133.625 133.332 133.194 132.789 135.35 135.966 
134.439 133.74 133.525 133.311 133.094 136.15 136.56 135.608 134.914 
134.368 134.015 133.795 133.837 136.824 137.178 136.538 136.159 135.631 
135.081 134.666 134.529 134.629 137.553 137.853 137.287 137.01 136.628 
136.129 135.624 135.283 135.175 135.212 135.805 135.792 136.555 135.895 
136.636 137.415 136.172 136.886 137.584 138.214 136.586 137.271 137.943 
138.471 139.126 137.027 137.64 138.366 138.88 139.459 140.213 137.452 
137.98 138.686 139.298 139.845 140.542 141.123 137.868 138.427 139.007 
139.625 140.23 140.891 141.492 141.847 138.227 138.917 139.439 139.919 
140.529 141.23 141.896 142.388 142.672 138.479 139.235 139.819 140.199 
140.699 141.421 142.187 142.863 143.324 143.529 136.37 137.22 136.987 
138.016 137.789 137.441 138.833 138.53 138.192 137.861 139.895 139.451 
139.002 138.699 138.526 140.863 140.457 139.932 139.541 139.382 139.261 
141.534 141.223 140.807 140.363 140.134 140.049 139.883 142.285 141.99 
141.688 141.231 140.851 140.745 140.676 140.468 143.153 142.886 142.68 
142.247 141.658 141.351 141.327 141.234 140.99 143.927 143.615 143.893 
143.722 143.682 143.501 143.742 143.988 143.746 143.264 144.212 144.759 
143.853 143.45 142.618 144.865 145.261 144.266 143.637 142.849 142.014 
145.226 145.408 144.768 144.142 143.351 142.495 141.852 145.352 145.418 
145.078 144.592 143.96 143.121 142.355 141.804 145.261 145.254 145.153 
144.749 144.212 143.535 142.745 142.11 141.591 145.02 145.054 145.01 
144.707 144.175 143.611 142.961 142.304 141.784 141.286 144.194 144.392 
144.622 144.684 144.634 144.106 144.754 144.316 144.486 143.999 144.677 
144.031 144.913 144.678 144.574 144.639 143.981 145.183 145.321 145.199 
145.2 144.588 143.921 145.222 145.688 145.744 145.557 145.443 144.353 
143.675 144.995 145.673 146.169 146.166 145.854 145.575 144.09 143.465 
144.697 145.348 146.072 146.521 146.443 146.022 145.562 144.029 143.48 
144.583 145.088 145.605 146.068 146.316 146.258 145.887 145.395 138.477 
139.167 139.053 139.822 139.673 139.926 140.621 140.43 140.604 140.426 
141.47 141.121 141.464 141.116 140.836 141.962 141.62 142.198 141.966 
141.631 141.51 142.172 142.057 142.483 142.565 142.429 142.383 142.373 
142.485 142.489 142.702 142.878 142.942 143.101 143.296 143.241 142.95 
142.945 143.162 143.335 143.378 143.57 143.961 144.17 143.922 137.841 
138.453 137.993 138.605 138.096 138.969 138.703 138.047 139.076 139.513 
138.697 138.078 139.225 139.552 140.169 138.77 138.264 139.35 139.757 
140.19 140.906 138.848 138.365 139.429 139.958 140.46 141.115 141.702 
138.811 138.388 139.394 140.039 140.643 141.375 142.057 142.353 138.854 
138.545 139.365 140.08 140.722 141.349 142.11 142.643 142.806 139.091 