# vtk DataFile Version 4.0
vtk output
ASCII
DATASET POLYDATA
POINTS 1002 float
-78.8151 -104.196 54.4153 -78.7986 -104.622 54.9108 -79.1952 -104.73 54.5023 
-79.3229 -104.162 54.1123 -79.7562 -104.643 54.1406 -78.8778 -103.628 53.9248 
-79.8675 -103.983 53.7394 -80.324 -104.383 53.8262 -79.417 -103.507 53.5759 
-78.8317 -103.153 53.1209 -80.2922 -103.751 53.2569 -80.8221 -104.03 53.5681 
-79.8299 -103.409 52.9757 -79.2866 -103.092 52.5851 -78.5726 -102.903 52.0378 
-80.793 -103.546 52.7215 -81.3664 -103.601 53.2016 -80.2079 -103.351 52.2673 
-79.6283 -103.078 51.8729 -78.9816 -102.878 51.4181 -78.2295 -102.764 50.9342 
-81.4934 -103.296 52.1182 -81.9643 -103.191 52.6157 -80.8571 -103.253 51.6376 
-80.1275 -102.978 51.2571 -79.4345 -102.758 50.8156 -78.727 -102.659 50.3218 
-77.9902 -102.562 49.873 -82.1408 -103.01 51.5088 -82.5507 -102.968 52.0049 
-81.5857 -103.003 51.0688 -80.825 -102.768 50.7253 -80.0409 -102.55 50.2745 
-79.302 -102.489 49.7267 -78.5513 -102.382 49.2918 -77.8639 -102.173 49.01 
-82.7373 -102.838 50.9576 -83.1739 -102.872 51.4925 -82.1714 -102.743 50.5053 
-81.4452 -102.53 50.154 -80.6696 -102.373 49.6899 -79.9047 -102.346 49.1359 
-79.1167 -102.22 48.7425 -78.377 -101.917 48.5632 -77.7926 -101.582 48.5008 
-83.3942 -102.728 50.4271 -83.7443 -102.692 51.0331 -82.809 -102.639 49.9149 
-82.0506 -102.418 49.5598 -81.2859 -102.243 49.1505 -80.5182 -102.165 48.6732 
-79.6966 -101.974 48.36 -78.904 -101.622 48.2193 -78.2622 -101.268 48.1442 
-77.76 -100.989 48.1004 -83.8933 -102.489 49.985 -84.0691 -102.362 50.6538 
-83.4272 -102.506 49.4033 -82.6981 -102.35 49.0498 -81.9385 -102.122 48.752 
-81.1784 -101.903 48.3963 -80.3276 -101.588 48.163 -79.4909 -101.191 48.045 
-78.8025 -100.894 47.876 -78.25 -100.722 47.6906 -77.7399 -100.594 47.556 
-79.0674 -104.955 55.3457 -79.5187 -105.028 54.8347 -79.4651 -105.029 56.0454 
-79.9937 -105.021 55.4398 -79.9539 -104.975 56.8084 -80.1686 -104.944 54.3486 
-80.6142 -104.949 56.1468 -80.4506 -105.085 57.3716 -80.8099 -105.049 54.7696 
-80.8765 -104.733 54.0256 -81.2689 -105.071 56.7675 -80.927 -105.287 57.8254 
-81.6034 -105.109 55.3594 -81.642 -104.978 54.3144 -81.4513 -104.291 53.8568 
-81.793 -105.15 57.3255 -81.4383 -105.263 58.3786 -82.1972 -105.081 56.0661 
-82.3028 -104.952 54.8188 -82.1116 -104.426 54.0747 -81.9327 -103.647 53.5089 
-82.1341 -104.9 57.8108 -81.9458 -105.031 58.922 -82.38 -104.74 56.7103 
-82.5002 -104.492 55.5768 -82.5243 -104.184 54.5043 -82.5178 -103.702 53.6872 
-82.4951 -103.207 52.9099 -82.3637 -104.481 58.1703 -82.2891 -104.731 59.2413 
-82.4516 -104.224 57.1254 -82.5039 -103.885 56.2267 -82.7073 -103.666 55.1883 
-83.087 -103.612 54.046 -83.2348 -103.393 53.1135 -83.162 -103.067 52.3314 
-82.5793 -104.075 58.4426 -82.45 -104.298 59.3103 -82.766 -103.842 57.4889 
-82.893 -103.572 56.6604 -83.0853 -103.385 55.7703 -83.6039 -103.477 54.5803 
-84.0302 -103.518 53.4016 -83.9562 -103.225 52.5581 -83.7551 -102.876 51.8526 
-82.8307 -103.661 58.6184 -82.5649 -103.715 59.2151 -83.2621 -103.598 57.9095 
-83.6513 -103.516 57.1428 -83.8293 -103.43 56.2558 -84.1012 -103.473 55.0971 
-84.5395 -103.51 53.8063 -84.6326 -103.239 52.7792 -84.3306 -102.796 52.0899 
-84.0966 -102.496 51.4381 -82.9576 -103.155 58.7675 -83.5348 -103.291 58.3269 
-83.5806 -102.785 58.3598 -84.2928 -103.037 57.9868 -84.0378 -102.425 57.8382 
-84.2302 -103.409 57.753 -84.4936 -102.567 57.3081 -84.1075 -101.88 57.1293 
-84.8481 -103.127 57.3367 -84.5956 -103.431 56.8882 -84.3556 -101.827 56.3797 
-84.1332 -101.295 56.3343 -84.7322 -102.411 56.4415 -84.8898 -103.024 56.219 
-84.5973 -103.413 55.6609 -84.5072 -101.1 55.4692 -84.2686 -100.728 55.4965 
-84.6961 -101.523 55.3891 -84.7811 -102.129 55.2225 -84.785 -102.845 54.7963 
-84.7477 -103.335 54.243 -84.6763 -100.404 54.6404 -84.3043 -100.013 54.72 
-85.0013 -100.814 54.4791 -85.0919 -101.288 54.272 -85.0244 -101.888 53.9456 
-84.9985 -102.521 53.4447 -84.9463 -102.991 53.0059 -84.5365 -99.698 53.9389 
-84.2501 -99.2656 54.1161 -84.9554 -100.177 53.7458 -85.333 -100.681 53.5029 
-85.5098 -101.15 53.225 -85.4042 -101.614 52.836 -85.0987 -102.077 52.4166 
-84.7429 -102.492 52.1735 -84.3569 -99.1237 53.3184 -84.1842 -98.7128 53.544 
-84.6497 -99.5567 53.1342 -85.0472 -100.049 52.8811 -85.502 -100.536 52.569 
-85.6987 -100.974 52.259 -85.3418 -101.38 51.9539 -84.7565 -101.762 51.7113 
-84.3629 -102.148 51.56 -84.2793 -98.6648 52.6757 -84.0691 -98.3126 52.8979 
-84.53 -98.9889 52.5344 -84.7779 -99.3632 52.3255 -85.1086 -99.8215 51.9716 
-85.4603 -100.316 51.6265 -85.3926 -100.802 51.4137 -84.8389 -101.223 51.2681 
-84.3483 -101.595 51.0934 -84.1769 -101.989 50.8714 -84.1119 -101.996 49.9464 
-84.126 -101.527 50.259 -83.9658 -101.418 49.3344 -84.3025 -101.085 50.539 
-84.0587 -100.884 49.6301 -83.7202 -100.682 48.8551 -84.7661 -100.644 50.6686 
-84.3077 -100.408 49.8556 -84.0181 -100.195 48.9809 -83.466 -100.007 48.3729 
-85.0931 -100.117 50.7437 -84.5951 -99.9125 49.9569 -84.259 -99.6969 49.1457 
-83.835 -99.5429 48.3742 -83.1304 -99.3824 47.8513 -85.0265 -99.5304 51.0019 
-84.7157 -99.3127 50.0872 -84.3502 -99.0774 49.3198 -83.9832 -98.8291 48.5799 
-83.4022 -98.7097 47.9221 -82.7407 -98.6673 47.4138 -84.879 -98.9697 51.445 
-84.7968 -98.6074 50.4512 -84.4862 -98.326 49.5353 -84.1004 -97.9924 48.7885 
-83.5626 -97.7866 48.1629 -82.9037 -97.8632 47.6072 -82.3701 -97.9928 47.0829 
-84.7467 -98.5514 51.7871 -84.8657 -97.9686 50.9372 -84.6875 -97.5319 49.9588 
-84.3098 -97.2597 49.0289 -83.7582 -97.0824 48.3677 -83.0171 -97.1391 47.8781 
-82.3723 -97.3325 47.3435 -81.9506 -97.401 46.7913 -84.465 -98.2929 51.9426 
-84.6897 -97.6205 51.2752 -84.683 -96.9742 50.4973 -84.3637 -96.7036 49.5242 
-83.8127 -96.7085 48.7083 -83.0485 -96.789 48.212 -82.3032 -96.8662 47.7022 
-81.8374 -96.8399 47.0661 -81.5357 -96.7091 46.5218 -84.1013 -98.0533 52.1086 
-84.2825 -97.4817 51.4964 -84.4161 -96.7732 50.9468 -84.2227 -96.3826 50.1404 
-83.6746 -96.4248 49.2445 -82.9303 -96.5644 48.6638 -82.2182 -96.544 48.174 
-81.7617 -96.3547 47.4612 -81.5193 -96.1035 46.7519 -81.2627 -95.9235 46.2973 
-83.8772 -102.096 49.2409 -83.5459 -101.398 48.7836 -83.2841 -102.06 48.7911 
-83.0836 -100.527 48.5037 -82.8515 -101.244 48.52 -82.5358 -101.852 48.5448 
-82.698 -99.7873 48.041 -82.3573 -100.303 48.2051 -82.1734 -101.002 48.1882 
-81.8006 -101.557 48.2261 -82.4193 -99.1948 47.4086 -82.0531 -99.6587 47.5112 
-81.7923 -100.262 47.5237 -81.478 -100.795 47.6379 -80.9425 -101.176 47.9308 
-82.1876 -98.5698 46.8914 -81.9062 -99.1665 46.7898 -81.6021 -99.8935 46.6543 
-81.2056 -100.445 46.7002 -80.6445 -100.58 47.2072 -80.0346 -100.745 47.7732 
-81.8633 -97.8832 46.5388 -81.6445 -98.4623 46.3631 -81.3781 -99.2891 46.1519 
-81.0319 -100.159 45.9414 -80.4914 -100.48 46.186 -79.8657 -100.372 46.9085 
-79.2918 -100.483 47.535 -81.4274 -97.134 46.2831 -81.1852 -97.6258 46.124 
-80.8899 -98.2851 46.006 -80.6213 -99.1972 45.7865 -80.2496 -99.9919 45.6382 
-79.7299 -100.259 45.9607 -79.1867 -100.265 46.6181 -78.6805 -100.421 47.2199 
-81.0389 -96.3437 46.1018 -80.728 -96.8437 45.9461 -80.3646 -97.3793 45.8842 
-80.0505 -98.0332 45.8398 -79.7522 -98.8465 45.6914 -79.365 -99.5627 45.6523 
-78.9254 -99.9712 45.9471 -78.49 -100.195 46.4454 -78.0791 -100.389 46.9981 
-80.8587 -95.436 46.0241 -80.4638 -95.9634 45.8219 -80.2327 -95.1332 45.7469 
-79.8102 -95.7362 45.4137 -79.4795 -94.9542 45.315 -80.0551 -96.5751 45.6626 
-79.1275 -95.5796 44.9345 -78.7618 -94.8589 45.0075 -79.4242 -96.429 45.2671 
-79.6569 -97.1604 45.68 -78.3308 -95.5427 44.8482 -78.0211 -94.9684 45.2419 
-78.6823 -96.3362 44.9344 -78.9689 -97.0731 45.4112 -79.2667 -97.7789 45.7445 
-77.4004 -95.6961 45.2062 -77.145 -95.1502 45.6701 -77.6855 -96.3437 44.9151 
-78.0649 -97.0567 45.1352 -78.4171 -97.6872 45.6015 -78.8366 -98.5157 45.7456 
-76.5538 -95.7889 45.5095 -76.307 -95.166 45.8642 -76.727 -96.4147 45.1057 
-77.0128 -97.0428 44.9775 -77.4413 -97.6819 45.3614 -77.8757 -98.3704 45.7867 
-78.3975 -99.2414 45.8493 -75.9697 -95.7476 45.8209 -75.744 -95.1848 46.2023 
-76.1048 -96.4092 45.4536 -76.2022 -96.9981 45.1606 -76.5089 -97.6461 45.2502 
-76.945 -98.3793 45.6747 -77.4267 -99.1322 45.9649 -77.998 -99.8071 46.0951 
-75.5828 -95.8336 46.4799 -75.4261 -95.4157 46.9419 -75.7069 -96.4387 46.0881 
-75.7222 -96.9969 45.7727 -75.828 -97.6061 45.6222 -76.1255 -98.4395 45.6887 
-76.5155 -99.2479 45.8703 -77.0344 -99.8209 46.1006 -77.6255 -100.177 46.4704 
-75.2348 -96.0881 47.2705 -75.1663 -95.749 47.7179 -75.3122 -96.6107 46.8426 
-75.3514 -97.1288 46.5148 -75.4046 -97.6451 46.319 -75.5471 -98.4494 46.1412 
-75.7602 -99.3946 45.9618 -76.1252 -100.004 46.0207 -76.7062 -100.248 46.4376 
-77.3094 -100.393 47.0279 -81.3388 -95.216 46.3134 -80.9155 -94.7596 46.0593 
-81.5183 -94.5716 46.3958 -80.9209 -94.2548 46.2014 -81.5492 -94.0812 46.6914 
-80.1036 -94.5373 45.8533 -80.6974 -93.8922 46.5877 -81.2467 -93.7881 47.3072 
-79.8767 -94.12 46.0951 -79.1928 -94.4001 45.525 -80.333 -93.6456 47.297 
-80.8151 -93.7309 48.1302 -79.6018 -93.8111 46.5222 -78.898 -94.0307 45.8815 
-78.4549 -94.3855 45.4192 -80.0302 -93.6209 48.2106 -80.4535 -93.8822 48.8947 
-79.3968 -93.6482 47.2926 -78.6331 -93.8219 46.3902 -78.0996 -94.0819 45.9047 
-77.6762 -94.5471 45.7683 -79.6914 -93.8444 49.0096 -80.0822 -94.1305 49.509 
-79.1695 -93.6825 48.3488 -78.3544 -93.7253 47.3332 -77.6609 -93.8831 46.5399 
-77.222 -94.1973 46.2551 -76.7435 -94.6548 46.0809 -79.2626 -94.1997 49.5608 
-79.6969 -94.3638 50.1344 -78.8103 -93.9058 49.1812 -78.0377 -93.6856 48.5024 
-77.2347 -93.6752 47.587 -76.7953 -93.9128 46.9732 -76.4117 -94.3112 46.6123 
-75.9766 -94.725 46.3158 -78.9067 -94.4984 50.1259 -79.3786 -94.5041 50.8747 
-78.469 -94.2753 49.6628 -77.8045 -93.8859 49.2768 -76.9867 -93.606 48.6493 
-76.5021 -93.6893 47.9781 -76.2471 -94.1165 47.4821 -75.8685 -94.5926 47.1094 
-75.5446 -94.9816 46.9199 -78.6646 -94.5988 50.9107 -79.1176 -94.5452 51.6406 
-78.2262 -94.5623 50.2502 -77.6768 -94.3076 49.7829 -76.947 -93.9447 49.3566 
[...]
CELL_DATA 2000
SCALARS Distance double
LOOKUP_TABLE default
140.904 141.036 140.786 140.383 141.087 140.882 140.469 140.22 139.755 
141.029 140.858 140.42 140.236 139.763 139.531 139.031 140.935 140.775 
140.33 140.146 139.683 139.485 139.002 138.78 138.297 140.829 140.704 
140.329 140.115 139.67 139.422 138.952 138.73 138.267 138.055 137.603 
140.737 140.626 140.319 140.146 139.72 139.457 138.964 138.707 138.245 
138.027 137.584 137.371 136.931 140.764 140.599 140.29 140.12 139.705 
139.478 138.982 138.731 138.261 138.032 137.593 137.362 136.907 136.689 
136.254 140.852 140.681 140.364 140.139 139.737 139.473 139.019 138.755 
138.312 138.069 137.627 137.38 136.903 136.66 136.192 136.004 135.602 
140.792 140.72 140.42 140.235 139.845 139.572 139.14 138.85 138.419 
138.144 137.683 137.409 136.898 136.639 136.145 135.94 135.531 135.382 
135.047 141.257 141.802 141.48 141.377 142.326 142.002 141.894 141.592 
141.456 142.887 142.534 142.447 142.132 142.047 141.674 141.475 143.512 
143.151 143.11 142.76 142.727 142.329 142.15 141.67 141.384 144.064 
143.773 143.731 143.429 143.345 142.992 142.76 142.316 141.947 141.495 
141.171 144.408 144.195 144.026 143.853 143.601 143.394 143.04 142.759 
142.355 141.987 141.62 141.256 141.025 144.547 144.366 144.029 143.901 
143.519 143.391 142.998 142.854 142.559 142.342 142.114 141.76 141.564 
141.192 141.069 144.499 144.373 144.016 143.852 143.535 143.33 143.073 
142.869 142.771 142.607 142.602 142.327 142.219 141.809 141.631 141.263 
141.13 144.278 144.262 144.061 143.941 143.839 143.598 143.542 143.223 
143.23 142.983 143.046 142.83 142.75 142.413 142.138 141.765 141.482 
141.213 141.007 144.028 143.894 143.993 144.041 143.844 144.018 144.21 
144.134 144.053 143.407 143.83 144.086 144.293 144.3 144.135 143.867 
142.636 143.135 143.292 143.82 143.863 144.136 143.938 143.833 143.516 
141.922 142.313 142.355 142.834 142.839 143.34 143.241 143.566 143.361 
143.415 143.193 141.207 141.6 141.634 141.998 142.004 142.366 142.334 
142.709 142.62 142.947 142.79 142.981 142.754 140.399 140.818 140.862 
141.286 141.337 141.693 141.715 141.994 141.954 142.205 142.075 142.333 
142.12 142.35 142.07 139.67 140.021 140.045 140.466 140.517 140.965 
141.012 141.407 141.395 141.663 141.528 141.689 141.458 141.631 141.398 
141.607 141.391 139.051 139.352 139.359 139.7 139.716 140.113 140.122 
140.574 140.566 140.992 140.891 141.159 140.926 141.063 140.812 140.974 
140.812 141.02 140.904 140.609 140.46 140.373 140.012 140.419 140.229 
139.827 139.697 139.248 140.48 140.225 139.755 139.547 139.094 138.924 
138.448 140.383 140.206 139.659 139.465 138.957 138.793 138.318 138.142 
137.639 140.041 139.959 139.386 139.264 138.698 138.585 138.042 137.938 
137.387 137.263 136.722 139.657 139.584 139.05 138.934 138.364 138.25 
137.658 137.563 136.961 136.889 136.328 136.285 135.809 139.332 139.263 
138.782 138.642 138.085 137.923 137.336 137.186 136.606 136.477 135.948 
135.871 135.427 135.407 135.01 139.013 138.97 138.525 138.406 137.866 
137.684 137.114 136.929 136.407 136.236 135.771 135.613 135.188 135.079 
134.675 134.625 134.213 138.699 138.654 138.23 138.144 137.656 137.496 
136.973 136.772 136.286 136.107 135.68 135.515 135.089 134.92 134.469 
134.332 133.881 133.811 133.388 140.568 139.98 140.3 140.224 139.171 
139.587 139.544 139.86 139.667 138.286 138.684 138.608 139.051 138.934 
139.233 138.979 137.431 137.772 137.603 138.04 137.938 138.388 138.223 
138.514 138.244 136.582 136.915 136.727 137.074 136.949 137.376 137.256 
137.653 137.424 137.723 137.437 135.751 136.087 135.969 136.275 136.195 
136.522 136.452 136.759 136.574 136.842 136.563 136.859 136.594 134.947 
135.286 135.171 135.518 135.446 135.817 135.788 136.097 135.968 136.138 
135.881 136.039 135.79 136.049 135.86 134.11 134.46 134.284 134.656 
134.497 134.941 134.85 135.327 135.217 135.55 135.321 135.482 135.224 
135.374 135.192 135.418 135.295 133.273 133.594 133.398 133.738 133.539 
133.926 133.766 134.247 134.122 134.616 134.444 134.816 134.587 134.834 
134.632 134.841 134.702 134.929 134.831 132.775 132.076 132.569 132.871 
131.368 131.866 132.167 132.679 133.007 130.693 131.161 131.5 132.008 
132.352 132.839 133.211 130.219 130.552 130.885 131.365 131.75 132.228 
132.578 133.074 133.504 129.939 130.174 130.405 130.783 131.131 131.618 
131.971 132.453 132.817 133.372 133.817 129.614 129.881 130.042 130.331 
130.558 130.98 131.311 131.814 132.173 132.694 133.099 133.667 134.064 
129.325 129.548 129.765 129.992 130.18 130.458 130.735 131.166 131.561 
132.065 132.488 133.002 133.414 133.909 134.23 129.366 129.42 129.706 
129.827 130.08 130.206 130.467 130.718 131.12 131.532 132 132.452 
132.875 133.324 133.678 134.09 134.352 129.665 129.616 129.875 129.911 
130.189 130.237 130.503 130.608 130.976 131.237 131.706 132.058 132.484 
132.849 133.199 133.579 133.88 134.242 134.493 132.591 132.187 132.216 
131.907 131.903 131.861 131.503 131.52 131.191 131.683 131.598 131.197 
131.144 130.751 130.78 130.49 131.574 131.405 130.983 130.862 130.449 
130.39 130.09 130.16 130.03 131.671 131.397 130.99 130.746 130.338 
130.162 129.853 129.839 129.706 129.827 129.781 131.868 131.578 131.206 
130.891 130.473 130.164 129.783 129.648 129.442 129.513 129.404 129.551 
129.443 132.05 131.787 131.439 131.148 130.718 130.358 129.879 129.613 
129.306 129.27 129.135 129.198 129.088 129.187 129.135 132.241 131.98 
131.657 131.379 130.98 130.61 130.112 129.741 129.375 129.206 129.105 
129.072 129.071 129.025 129.056 129.067 129.204 132.436 132.19 131.897 
131.624 131.293 130.927 130.511 130.066 129.702 129.382 129.264 129.156 
129.222 129.17 129.272 129.203 129.351 129.34 129.551 138.406 137.776 
138.03 137.899 137.156 137.389 137.247 137.503 137.346 136.521 136.77 
136.627 136.871 136.705 136.924 136.71 135.754 136.059 135.873 136.193 
135.995 136.263 136.023 136.252 136.028 134.973 135.235 135.005 135.338 
135.105 135.442 135.173 135.486 135.248 135.561 135.392 134.371 134.529 
134.304 134.518 134.293 134.547 134.278 134.567 134.314 134.682 134.512 
134.909 134.77 133.853 133.993 133.759 133.913 133.679 133.846 133.572 
133.75 133.467 133.742 133.539 133.941 133.801 134.234 134.101 133.292 
133.45 133.175 133.344 133.058 133.239 132.927 133.093 132.768 132.964 
132.713 133.013 132.856 133.242 133.126 133.553 133.47 132.766 132.887 
132.606 132.737 132.441 132.593 132.284 132.436 132.113 132.279 132.014 
132.252 132.091 132.395 132.293 132.638 132.574 132.98 132.968 138.61 
138.769 138.465 138.008 138.889 138.621 138.146 137.836 137.372 138.879 
138.68 138.217 137.95 137.458 137.189 136.724 138.839 138.638 138.186 
137.964 137.479 137.239 136.748 136.502 135.994 138.851 138.627 138.173 
137.932 137.452 137.221 136.739 136.505 136.001 135.736 135.234 138.844 
138.642 138.195 137.949 137.462 137.206 136.719 136.482 135.995 135.748 
135.265 135.015 134.597 138.83 138.632 138.207 137.973 137.496 137.231 
136.729 136.472 135.971 135.731 135.245 135.026 134.593 134.414 134.048 
138.844 138.646 138.242 138.002 137.538 137.267 136.766 136.492 135.98 
135.716 135.209 134.977 134.516 134.351 133.961 133.838 133.484 138.809 
138.652 138.25 138.039 137.575 137.315 136.817 136.54 136.041 135.755 
135.256 134.973 134.5 134.274 133.874 133.726 133.39 133.271 132.958 
138.622 138.073 138.26 138.045 137.449 137.638 137.398 137.618 137.359 
136.81 136.983 136.701 136.926 136.679 136.892 136.61 136.078 136.31 
136.017 136.235 135.98 136.199 135.934 136.133 135.841 135.249 135.538 
135.277 135.525 135.232 135.469 135.177 135.423 135.129 135.349 135.05 
134.514 134.755 134.534 134.768 134.442 134.658 134.309 134.591 134.306 
134.599 134.324 134.555 134.288 133.922 134.099 133.882 134.076 133.762 
133.894 133.506 133.705 133.426 133.745 133.549 133.835 133.619 133.841 
133.653 133.341 133.496 133.24 133.449 133.179 133.298 132.923 132.999 
132.672 132.9 132.73 133.06 132.925 133.198 133.044 133.277 133.161 
132.765 132.878 132.59 132.797 132.58 132.753 132.454 132.504 132.138 
132.229 131.985 132.258 132.154 132.491 132.404 132.683 132.584 132.829 
132.745 132.354 131.762 132.065 132.188 131.333 131.57 131.691 132.006 
132.191 130.897 131.163 131.251 131.542 131.655 131.99 132.08 130.261 
130.599 130.623 131.01 131.056 131.411 131.424 131.758 131.765 129.591 
129.838 129.769 130.217 130.288 130.742 130.793 131.12 131.146 131.457 
131.586 129.331 129.291 129.151 129.382 129.5 129.958 130.19 130.571 
130.73 130.978 131.162 131.459 131.754 129.542 129.311 129.186 129.067 
129.14 129.343 129.641 130.03 130.336 130.655 130.897 131.155 131.437 
131.739 132.051 129.764 129.611 129.507 129.313 129.28 129.226 129.353 
129.565 129.812 130.194 130.463 130.847 131.115 131.446 131.719 132.023 
132.275 129.716 129.692 129.538 129.506 129.388 129.355 129.29 129.341 
129.381 129.639 129.842 130.284 130.588 131.035 131.324 131.676 131.919 
132.215 132.438 132.446 132.454 132.2 131.803 132.572 132.236 131.775 
131.597 131.317 132.831 132.415 131.894 131.59 131.219 131.125 130.874 
133.145 132.739 132.205 131.775 131.304 131.051 130.734 130.651 130.337 
133.33 133.025 132.547 132.132 131.615 131.216 130.817 130.587 130.295 
130.128 129.806 133.479 133.171 132.748 132.429 131.963 131.564 131.109 
130.761 130.432 130.196 129.959 129.736 129.562 133.824 133.405 132.996 
132.646 132.268 131.904 131.494 131.098 130.713 130.394 130.133 129.933 
129.818 129.67 129.67 134.277 133.838 133.435 133.011 132.671 132.276 
131.945 131.526 131.16 130.742 130.422 130.132 129.983 129.869 129.875 
129.825 129.85 134.617 134.267 133.884 133.491 133.144 132.747 132.43 
132.022 131.695 131.251 130.924 130.513 130.302 130.062 130.036 129.962 
129.994 129.932 129.87 132.942 133.777 133.231 132.989 134.559 134.071 
133.849 133.313 133.115 135.279 134.805 134.621 134.153 133.984 133.482 
133.355 136.191 135.586 135.409 134.917 134.796 134.331 134.208 133.734 
133.616 137.32 136.631 136.426 135.809 135.68 135.159 135.04 134.553 
134.399 133.935 133.769 138.35 137.761 137.55 136.905 136.71 136.104 
135.942 135.399 135.252 134.738 134.593 134.087 133.955 139.172 138.705 
138.551 137.985 137.77 137.141 136.908 136.317 136.154 135.633 135.545 
135.018 134.947 134.39 134.332 139.941 139.524 139.466 138.959 138.811 
138.188 137.94 137.29 137.069 136.525 136.418 135.959 135.902 135.416 
135.342 134.816 134.747 140.709 140.336 140.351 139.898 139.817 139.237 
139.024 138.35 138.091 137.46 137.27 136.772 136.653 136.242 136.125 
135.711 135.576 135.139 135.019 141.139 141.656 141.224 140.808 141.979 
141.652 141.209 140.797 140.259 142.089 141.851 141.383 141.068 140.505 
140.109 139.453 142.07 141.89 141.423 141.153 140.607 140.274 139.644 
139.219 138.53 141.94 141.825 141.381 141.159 140.637 140.355 139.784 
139.405 138.743 138.293 137.663 141.735 141.657 141.233 141.072 140.561 
140.349 139.809 139.526 138.894 138.49 137.822 137.445 136.933 141.502 
141.438 141.033 140.905 140.415 140.231 139.7 139.49 138.901 138.589 
137.921 137.558 136.981 136.733 136.336 141.232 141.186 140.804 140.714 
140.271 140.098 139.58 139.365 138.808 138.554 137.953 137.632 137.049 
136.762 136.318 136.141 135.795 140.961 140.908 140.54 140.481 140.083 
139.962 139.478 139.268 138.717 138.472 137.921 137.656 137.125 136.84 
136.37 136.136 135.758 135.594 135.255 140.713 140.166 140.377 140.258 
139.524 139.772 139.622 139.897 139.781 138.798 139.067 138.881 139.188 
139.036 139.354 139.173 138.069 138.319 138.103 138.396 138.201 138.534 
138.326 138.647 138.401 137.379 137.604 137.371 137.62 137.396 137.685 
137.459 137.768 137.531 137.844 137.609 136.707 136.923 136.68 136.903 
136.659 136.902 136.66 136.928 136.696 136.99 136.777 137.083 136.864 
136.043 136.253 136.011 136.221 135.971 136.185 135.933 136.166 135.926 
136.189 135.973 136.267 136.065 136.356 136.147 135.411 135.601 135.362 
135.562 135.318 135.516 135.275 135.478 135.251 135.467 135.249 135.492 
135.288 135.567 135.385 135.674 135.519 134.854 134.998 134.748 134.922 
134.675 134.871 134.644 134.849 134.648 134.847 134.645 134.831 134.624 
134.838 134.662 134.931 134.802 135.101 135.001 134.619 134.41 134.327 
133.942 134.254 134.13 133.748 133.642 133.238 134.214 134.02 133.603 
133.454 133.044 132.934 132.523 134.248 134.025 133.579 133.351 132.893 
132.734 132.313 132.212 131.792 134.248 134.05 133.616 133.368 132.892 
132.644 132.2 132.027 131.618 131.484 131.06 134.214 134.02 133.604 
133.397 132.969 132.711 132.278 132.014 131.614 131.391 131.01 130.812 
130.465 134.233 133.999 133.582 133.381 133.002 132.795 132.406 132.146 
131.743 131.475 131.115 130.873 130.579 130.369 130.179 134.335 134.067 
133.662 133.41 133.045 132.837 132.473 132.248 131.831 131.587 131.198 
130.995 130.707 130.533 130.332 130.188 130.076 134.495 134.227 133.862 
133.565 133.203 132.934 132.566 132.312 131.879 131.624 131.19 131.009 
130.691 130.591 130.356 130.27 130.067 130.017 129.873 144.474 144.821 
144.78 144.869 144.849 144.997 145.082 144.995 144.75 144.575 144.835 
144.887 144.986 144.708 144.559 144.115 144.156 144.454 144.539 144.712 
144.561 144.458 144.089 143.893 143.622 143.635 143.987 144.146 144.399 
144.423 144.411 144.217 143.997 143.791 143.611 143.503 143.038 143.423 
143.577 143.947 144 144.222 144.105 144.112 143.91 143.81 143.634 
143.507 143.273 142.447 142.805 142.889 143.276 143.258 143.613 143.483 
143.753 143.556 143.707 143.479 143.507 143.217 143.11 142.717 141.872 
142.192 142.216 142.556 142.511 142.826 142.72 143.022 142.897 143.162 
143 143.167 142.927 142.949 142.601 142.475 142.056 141.293 141.585 
141.578 141.888 141.859 142.142 142.082 142.344 142.28 142.531 142.436 
142.641 142.474 142.593 142.337 142.322 141.968 141.828 141.431 144.24 
144.562 144.241 143.831 144.486 144.424 144.012 143.74 143.335 143.979 
144.16 143.93 143.843 143.466 143.229 142.866 143.552 143.688 143.638 
143.699 143.47 143.324 142.943 142.723 142.34 143.363 143.401 143.297 
143.398 143.201 143.211 142.832 142.71 142.262 142.113 141.718 143.04 
143.134 142.846 142.971 142.639 142.768 142.359 142.412 141.954 141.926 
141.507 141.448 141.089 142.461 142.622 142.269 142.399 142.009 142.125 
141.727 141.832 141.444 141.514 141.14 141.162 140.807 140.794 140.453 
141.814 141.977 141.681 141.811 141.5 141.568 141.228 141.272 140.936 
141.004 140.68 140.747 140.412 140.45 140.113 140.129 139.807 141.198 
141.352 141.099 141.264 141.026 141.131 140.813 140.842 140.458 140.509 
140.154 140.258 139.933 140.02 139.694 139.748 139.44 139.483 139.204 
143.968 143.585 143.722 143.683 143.139 143.298 143.244 143.491 143.528 
142.694 142.862 142.788 143.01 142.977 143.248 143.141 142.176 142.387 
142.28 142.513 142.427 142.668 142.534 142.736 142.504 141.59 141.82 
141.686 141.935 141.808 142.067 141.922 142.148 141.952 142.106 141.847 
140.994 141.224 141.08 141.311 141.153 141.402 141.232 141.493 141.301 
141.535 141.287 141.446 141.128 140.369 140.615 140.459 140.694 140.519 
140.748 140.548 140.783 140.571 140.829 140.6 140.825 140.533 140.678 
140.338 139.74 139.978 139.81 140.045 139.863 140.102 139.902 140.119 
139.893 140.11 139.899 140.132 139.915 140.092 139.819 139.921 139.63 
139.163 139.375 139.213 139.409 139.224 139.443 139.26 139.48 139.273 
139.469 139.258 139.471 139.293 139.504 139.299 139.438 139.175 139.266 
139.004 133.126 133.669 133.567 133.93 134.177 134.079 134.417 134.369 
134.705 134.73 134.571 134.901 134.846 135.235 135.142 135.47 135.515 
135.237 135.6 135.424 135.894 135.76 136.217 136.02 136.434 136.44 
136.166 136.578 136.29 136.743 136.523 137.015 136.842 137.326 137.115 
137.561 137.207 137.07 137.502 137.285 137.622 137.368 137.694 137.56 
137.992 137.931 138.368 138.21 138.558 137.791 137.723 138.125 138.042 
138.319 138.116 138.291 138.122 138.448 138.452 138.918 138.896 139.263 
139.084 139.342 138.34 138.247 138.594 138.54 138.84 138.703 138.911 
138.702 139 138.915 139.41 139.41 139.868 139.743 140.025 139.804 
140.051 138.857 138.762 139.065 138.991 139.31 139.214 139.511 139.345 
139.664 139.528 139.968 139.935 140.397 140.33 140.641 140.462 140.682 
140.492 140.755 
POINT_DATA 1002
SCALARS Distance double
LOOKUP_TABLE default
140.526 141.022 141.165 140.669 141.276 139.955 140.702 141.285 140.036 
139.274 140.589 141.212 139.971 139.284 138.538 140.524 141.071 139.879 
139.202 138.521 137.834 140.52 140.899 139.946 139.187 138.469 137.814 
137.163 140.463 140.852 139.976 139.24 138.466 137.802 137.139 136.493 
140.485 140.959 139.923 139.219 138.489 137.831 137.147 136.436 135.833 
140.601 140.998 140.01 139.279 138.56 137.889 137.164 136.398 135.742 
135.233 140.565 140.815 140.097 139.43 138.713 137.984 137.176 136.357 
135.681 135.171 134.737 141.585 141.692 142.133 142.185 142.665 141.808 
142.755 143.245 142.406 141.93 143.455 143.839 143.124 142.652 141.869 
144.027 144.33 143.713 143.201 142.427 141.545 144.232 144.666 143.821 
143.27 142.651 141.989 141.327 144.203 144.773 143.653 143.086 142.642 
142.388 141.967 141.4 144.144 144.582 143.702 143.253 142.883 142.793 
142.629 142.062 141.434 144.062 144.191 143.979 143.84 143.534 143.277 
143.072 142.551 141.802 141.21 143.834 144.084 143.764 144.206 143.564 
144.341 143.72 142.937 144.335 144.228 142.749 142.224 143.408 143.849 
143.739 141.969 141.575 142.349 142.764 143.113 143.233 141.257 140.791 
141.679 141.989 142.251 142.499 142.642 140.407 139.999 140.922 141.413 
141.746 141.868 141.861 141.858 139.659 139.352 140.07 140.561 141.063 
141.377 141.34 141.174 141.162 139.046 138.756 139.372 139.708 140.1 
140.536 140.762 140.677 140.587 140.688 140.325 140.106 139.605 139.994 
139.381 138.76 140.004 139.269 138.633 137.953 139.852 139.124 138.479 
137.842 137.121 139.489 138.817 138.154 137.494 136.826 136.22 139.165 
138.497 137.78 137.043 136.349 135.809 135.397 138.916 138.266 137.494 
136.737 136.04 135.456 135.016 134.618 138.622 138.038 137.295 136.556 
135.93 135.344 134.766 134.243 133.778 138.295 137.775 137.156 136.468 
135.837 135.273 134.652 133.988 133.414 132.972 140.01 139.148 139.475 
138.145 138.531 138.795 137.219 137.446 137.838 138.036 136.405 136.557 
136.844 137.086 137.151 135.637 135.865 136.165 136.348 136.29 136.25 
134.826 135.052 135.421 135.78 135.778 135.578 135.542 133.936 134.09 
134.35 134.78 135.093 135.093 135.004 135.033 133.07 133.189 133.338 
133.61 133.977 134.262 134.406 134.488 134.585 132.283 132.353 131.591 
131.656 130.859 132.494 130.969 130.253 131.876 132.687 130.436 129.97 
131.252 132.122 132.927 130.119 129.732 130.661 131.482 132.31 133.214 
129.795 129.319 130.215 130.801 131.653 132.559 133.526 129.533 129.124 
129.969 130.359 131.046 131.986 132.922 133.797 129.604 129.373 129.982 
130.292 130.752 131.564 132.451 133.254 133.985 129.874 129.748 130.149 
130.437 130.781 131.397 132.16 132.844 133.5 134.157 132.518 131.847 
132.198 131.54 131.973 131.123 131.281 131.798 130.771 130.36 131.137 
131.79 130.535 130.041 129.869 131.266 131.957 130.57 129.912 129.607 
129.643 131.513 132.136 130.841 130.013 129.428 129.292 129.279 131.713 
132.304 131.093 130.224 129.403 129.092 129.024 128.964 131.926 132.494 
131.333 130.517 129.599 129.125 129.101 129.09 129.116 132.152 132.662 
131.616 130.933 130.084 129.423 129.245 129.323 129.405 129.534 138.169 
137.627 137.533 137.007 136.928 137.109 136.376 136.26 136.499 136.508 
135.541 135.462 135.705 135.782 135.78 134.703 134.754 134.771 134.842 
134.897 135.068 134.13 134.232 134.08 134.031 133.964 134.082 134.386 
133.619 133.709 133.529 133.43 133.257 133.18 133.356 133.664 133.024 
133.144 132.885 132.76 132.593 132.455 132.505 132.709 133.008 138.906 
138.323 139.079 138.462 139.125 137.655 138.454 139.06 137.735 136.984 
138.403 139.055 137.703 137 136.261 138.426 139.072 137.692 136.962 
136.256 135.486 138.43 139.032 137.73 136.966 136.228 135.502 134.807 
138.435 139.023 137.759 136.999 136.223 135.464 134.77 134.204 138.48 
139.03 137.812 137.044 136.256 135.464 134.7 134.08 133.601 138.447 
138.951 137.824 137.089 136.32 135.548 134.758 134.043 133.499 133.069 