# vtk DataFile Version 4.0
vtk output
ASCII
DATASET POLYDATA
POINTS 1002 float
-78.0787 -105.835 55.8565 -78.095 -105.906 56.629 -78.7612 -105.829 56.3733 
-78.8265 -105.603 55.6413 -79.3145 -105.577 56.2136 -78.0501 -105.343 55.2905 
-79.3892 -105.261 55.4436 -79.7133 -105.179 56.0585 -78.8554 -104.999 55.1227 
-78.0892 -104.551 54.8741 -79.8258 -104.981 54.9974 -80.3615 -104.888 55.6366 
-79.3746 -104.822 54.6922 -78.8891 -104.363 54.5795 -78.1789 -103.945 54.3312 
-80.6538 -105.038 54.2173 -81.4195 -104.996 54.9059 -79.8 -104.926 53.8315 
-79.3057 -104.523 53.8421 -78.918 -103.966 53.8393 -78.1861 -103.617 53.6233 
-81.7434 -105.242 53.5624 -82.2499 -105.027 54.3669 -80.7141 -105.179 53.0008 
-79.7094 -104.781 52.9368 -79.2628 -104.168 53.0893 -78.8458 -103.573 53.1189 
-78.0744 -103.246 52.9556 -82.3113 -104.872 53.4342 -82.4839 -104.443 54.2918 
-81.767 -105.07 52.7446 -80.667 -104.753 52.493 -79.737 -104.188 52.5017 
-79.2407 -103.589 52.5163 -78.6726 -103.104 52.4586 -77.962 -102.863 52.2411 
-82.4959 -104.073 53.4649 -82.6828 -103.763 54.2303 -82.3175 -104.401 52.7948 
-81.6674 -104.283 52.468 -80.6852 -103.869 52.2938 -79.8762 -103.442 52.0537 
-79.2147 -103.044 51.8407 -78.5488 -102.795 51.6304 -77.966 -102.732 51.2904 
-83.0115 -103.632 53.1959 -83.2723 -103.527 53.8434 -82.7544 -103.775 52.6201 
-82.2622 -103.667 52.3132 -81.5183 -103.39 52.1108 -80.756 -103.15 51.7477 
-79.9928 -102.876 51.3521 -79.2093 -102.664 51.0441 -78.5677 -102.686 50.6833 
-78.0773 -102.802 50.2463 -83.8192 -103.574 52.7318 -84 -103.499 53.326 
-83.4673 -103.535 52.2374 -82.8312 -103.266 51.9495 -82.0594 -102.975 51.7346 
-81.4215 -102.879 51.3763 -80.8108 -102.739 50.9622 -80.0156 -102.467 50.6556 
-79.228 -102.405 50.3206 -78.6552 -102.61 49.8511 -78.1841 -102.792 49.3986 
-78.4652 -105.804 57.388 -79.0958 -105.672 57.1883 -78.8736 -105.664 58.2973 
-79.4718 -105.504 58.0978 -79.4043 -105.642 59.1301 -79.5403 -105.408 57.056 
-80.006 -105.556 58.818 -79.951 -105.793 59.7798 -79.8979 -105.265 57.8808 
-79.9834 -105.007 56.8729 -80.5774 -105.689 59.4288 -80.3895 -105.861 60.4727 
-80.5063 -105.305 58.4756 -80.4458 -104.941 57.5081 -80.8392 -104.819 56.3218 
-81.036 -105.537 60.2202 -80.8365 -105.66 61.2684 -81.1686 -105.288 59.1355 
-81.1509 -105.014 57.9841 -81.4009 -104.914 56.7641 -81.9316 -104.976 55.5159 
-81.4245 -105.219 60.9738 -81.3729 -105.45 61.8578 -81.6049 -105.039 59.9246 
-81.8265 -104.975 58.6301 -82.1281 -105.048 57.2178 -82.5161 -105.077 56 
-82.6261 -104.816 55.0826 -81.8055 -105.032 61.3933 -81.8706 -105.352 62.1719 
-81.8022 -104.742 60.4117 -82.1 -104.701 59.1747 -82.646 -104.9 57.7934 
-83.1831 -105.109 56.5649 -83.2659 -104.863 55.6984 -82.9048 -104.212 55.0212 
-82.156 -104.844 61.6281 -82.2118 -105.11 62.387 -81.9906 -104.465 60.6223 
-82.0985 -104.292 59.3871 -82.6417 -104.403 58.1502 -83.3787 -104.705 57.1099 
-83.7806 -104.82 56.2549 -83.5864 -104.375 55.5292 -83.2532 -103.762 54.7627 
-82.4174 -104.476 61.7932 -82.3843 -104.61 62.5076 -82.2949 -104.144 60.8451 
-82.2661 -103.904 59.6281 -82.5575 -103.875 58.4062 -83.1418 -104.023 57.4904 
-83.7171 -104.278 56.7186 -83.9297 -104.29 55.8948 -83.8256 -103.915 55.0788 
-83.7972 -103.564 54.2295 -82.5352 -103.985 62.0177 -82.6277 -103.833 61.2525 
-82.763 -103.383 61.3422 -83.1045 -103.345 60.6753 -83.2445 -102.861 60.7483 
-82.7001 -103.628 60.2405 -83.7441 -102.982 60.1391 -83.7572 -102.284 60.2435 
-83.4239 -103.378 59.7393 -82.8518 -103.563 59.0071 -84.0984 -102.413 59.4495 
-83.9886 -101.603 59.5531 -84.0591 -103.132 59.2152 -83.6209 -103.413 58.646 
-83.1364 -103.55 57.9537 -84.1883 -101.583 58.5629 -84.112 -100.905 58.6915 
-84.2926 -102.457 58.4313 -84.2057 -103.078 58.1329 -83.7758 -103.254 57.604 
-83.5392 -103.59 57.0984 -84.3645 -100.833 57.6862 -84.2307 -100.349 57.811 
-84.4394 -101.526 57.5499 -84.5508 -102.334 57.2791 -84.4099 -102.8 56.8299 
-84.0393 -103.089 56.3988 -83.9124 -103.693 56.1081 -84.4376 -100.426 56.7921 
-84.0894 -100.064 56.8665 -84.6247 -100.831 56.7166 -84.787 -101.491 56.4438 
-84.907 -102.206 55.9239 -84.7076 -102.609 55.4672 -84.3405 -103.03 55.2326 
-84.1048 -103.61 55.1338 -84.2248 -100.201 55.8616 -83.7755 -99.8581 55.9539 
-84.5975 -100.453 55.8237 -84.8643 -100.815 55.675 -85.1117 -101.525 55.2683 
-85.1972 -102.184 54.8473 -84.9376 -102.535 54.6086 -84.5588 -102.941 54.4361 
-84.2254 -103.388 54.2999 -84.0154 -99.8244 55.1351 -83.642 -99.446 55.3084 
-84.4185 -100.122 54.9978 -84.7855 -100.315 54.8565 -85.1138 -100.768 54.6044 
-85.372 -101.548 54.3398 -85.358 -102.129 54.1933 -85.055 -102.445 54.0065 
-84.7274 -102.861 53.6983 -84.4242 -103.294 53.442 -84.5279 -103.396 52.5015 
-84.8143 -102.959 52.6809 -84.7515 -102.962 51.7845 -85.058 -102.407 53.0243 
-84.9652 -102.385 51.8737 -84.6508 -102.254 51.1634 -85.3988 -101.991 53.3347 
-85.2929 -101.82 52.0889 -84.9794 -101.691 51.1124 -84.5035 -101.596 50.5816 
-85.5788 -101.46 53.457 -85.6258 -101.279 52.3223 -85.373 -101.122 51.2902 
-84.9015 -101.033 50.6005 -84.3767 -100.967 50.0023 -85.3827 -100.648 53.5758 
-85.572 -100.537 52.5239 -85.4507 -100.484 51.6356 -85.0534 -100.45 50.919 
-84.6236 -100.348 50.0943 -84.1585 -100.212 49.4022 -84.9898 -100.085 53.8497 
-85.1679 -99.9222 52.8244 -85.1089 -99.874 51.9972 -84.7982 -99.8788 51.3051 
-84.4881 -99.811 50.3652 -84.2355 -99.6378 49.4114 -83.7883 -99.5089 48.9754 
-84.5798 -99.8644 54.1775 -84.7054 -99.6592 53.276 -84.6677 -99.5137 52.3917 
-84.4673 -99.3353 51.5961 -84.2222 -99.2059 50.6462 -84.0272 -99.1142 49.6319 
-83.7471 -98.9806 49.0551 -83.1947 -98.9001 48.8896 -84.2179 -99.5216 54.4917 
-84.3554 -99.2717 53.778 -84.3227 -99.1153 52.8697 -84.2436 -98.7964 51.8925 
-84.1314 -98.437 50.9301 -83.8806 -98.3765 50.0092 -83.5353 -98.422 49.3954 
-83.0777 -98.3306 49.128 -82.4635 -98.2225 48.9025 -83.9259 -99.0362 54.7813 
-84.1512 -98.6497 54.2232 -84.1299 -98.4683 53.3715 -84.0582 -98.2222 52.2785 
-84.0779 -97.7683 51.2709 -83.8873 -97.5721 50.4677 -83.4147 -97.7515 49.8582 
-82.9055 -97.8349 49.4487 -82.3886 -97.6763 49.1078 -81.8185 -97.5173 48.739 
-84.3033 -103.409 51.9614 -84.345 -102.81 51.3955 -83.6829 -103.098 51.6357 
-84.1129 -102.104 50.8369 -83.5615 -102.443 51.1012 -82.7569 -102.684 51.3617 
-83.9281 -101.557 50.1552 -83.3947 -101.977 50.3932 -82.6891 -102.299 50.5967 
-81.974 -102.612 50.9273 -83.7398 -100.861 49.5513 -83.2153 -101.49 49.7393 
-82.6638 -102.039 49.801 -82.0339 -102.487 49.9791 -81.429 -102.678 50.4553 
-83.4217 -100.053 49.1461 -82.8694 -100.673 49.4106 -82.3944 -101.366 49.4068 
-81.9446 -102.1 49.2906 -81.376 -102.462 49.5989 -80.7167 -102.427 50.1887 
-82.9162 -99.4171 48.8822 -82.4123 -99.9347 49.0978 -81.9261 -100.456 49.2147 
-81.5672 -101.223 49.0066 -81.1189 -101.932 48.9944 -80.4902 -102.118 49.4759 
-79.8249 -102.158 49.9785 -82.2368 -98.7593 48.7002 -81.8679 -99.3374 48.6708 
-81.4422 -99.7595 48.8032 -81.0999 -100.284 48.7914 -80.7548 -101.075 48.6805 
-80.2261 -101.647 48.8945 -79.6153 -101.904 49.3013 -79.0938 -102.24 49.5712 
-81.5705 -97.9638 48.5274 -81.2857 -98.5756 48.3758 -80.9407 -99.085 48.3969 
-80.5948 -99.4983 48.4934 -80.3077 -100.128 48.5074 -79.9347 -100.864 48.5898 
-79.4106 -101.406 48.8162 -78.9211 -101.909 48.9714 -78.5426 -102.451 49.084 
-81.1203 -97.0712 48.3433 -80.8258 -97.5625 48.2565 -80.4415 -96.7409 48.0573 
-80.1431 -97.2585 48.1029 -79.8082 -96.508 47.6662 -80.5047 -98.1635 48.2332 
-79.4813 -97.1154 47.5901 -79.3176 -96.2732 46.8704 -79.6925 -97.845 48.0419 
-80.0824 -98.6733 48.242 -78.9398 -97.0542 46.7808 -79.0242 -96.1625 46.4861 
-78.9194 -97.7807 47.2478 -79.1684 -98.4409 47.7714 -79.7237 -99.2298 48.2357 
-78.5786 -96.9947 46.8808 -78.6941 -96.2957 47.2297 -78.4681 -97.771 46.598 
-78.5561 -98.4764 46.8538 -78.9338 -99.1429 47.6774 -79.4767 -99.9602 48.3287 
-78.0855 -96.9226 47.7585 -78.0171 -96.4094 48.067 -78.15 -97.6088 47.1348 
-78.2924 -98.4542 46.6698 -78.4743 -99.1967 47.1532 -78.7261 -99.8453 48.0683 
-79.0761 -100.651 48.5603 -77.2673 -96.8551 48.1278 -77.0751 -96.3501 48.2282 
-77.4819 -97.4623 47.8877 -77.7287 -98.2731 47.405 -77.9244 -99.1571 47.3657 
-78.0081 -99.8238 47.9822 -78.1968 -100.506 48.49 -78.565 -101.323 48.6776 
-76.4116 -96.8621 48.1443 -76.222 -96.3491 48.33 -76.6179 -97.4881 48.0996 
-76.7823 -98.1911 47.9428 -76.9583 -99.0213 47.8444 -77.1019 -99.7921 48.1346 
-77.2719 -100.479 48.4911 -77.6627 -101.302 48.5654 -78.1674 -102.067 48.6652 
-75.7687 -96.978 48.5019 -75.6283 -96.5535 48.7996 -75.9346 -97.5949 48.3611 
-76.0025 -98.2596 48.2452 -76.072 -98.9529 48.1493 -76.2543 -99.695 48.2702 
-76.472 -100.447 48.5303 -76.7888 -101.263 48.6125 -77.3042 -102.082 48.5986 
-77.834 -102.628 48.8382 -81.6591 -96.9821 48.6447 -80.9904 -96.5056 48.1933 
-81.5618 -96.5461 48.548 -80.9118 -95.992 48.2362 -81.4172 -96.0477 48.7116 
-80.2311 -96.1269 47.8722 -80.8332 -95.4105 48.6496 -81.1375 -95.5406 49.1032 
-80.0761 -95.4484 47.9942 -79.5382 -95.6877 47.2496 -80.6891 -94.9956 49.118 
-80.7416 -95.3523 49.4907 -80.0584 -94.8494 48.4819 -79.3596 -94.8299 47.2831 
-79.1762 -95.2749 46.4367 -80.3556 -94.9381 49.5418 -80.2722 -95.484 50.0324 
-80.0189 -94.6126 49.045 -79.3201 -94.4232 47.9442 -79.0293 -94.5849 46.8017 
-79.0196 -95.3803 46.6551 -79.8249 -95.0577 50.2665 -79.7864 -95.6188 50.8638 
-79.71 -94.6057 49.7527 -79.1892 -94.4568 48.9644 -78.8081 -94.5893 48.0055 
-78.8045 -95.1282 47.5786 -78.5915 -95.8581 47.7929 -79.2853 -95.2205 51.1622 
-79.3567 -95.6518 51.684 -79.2304 -94.7066 50.6612 -78.8839 -94.507 50.0341 
-78.4844 -94.7748 49.3582 -78.403 -95.3057 48.9095 -78.2671 -95.7655 48.6885 
-77.723 -96.0474 48.4633 -78.8501 -95.3364 51.904 -79.0069 -95.6497 52.3175 
-78.7702 -94.8879 51.499 -78.5141 -94.5601 50.9498 -78.1141 -94.7014 50.3443 
-77.9251 -95.2824 49.9273 -77.8349 -95.7772 49.6168 -77.4027 -95.9064 49.1478 
-76.7316 -95.9988 48.6182 -78.5017 -95.3115 52.5422 -78.7253 -95.6544 52.8696 
-78.3535 -94.9249 52.2333 -78.1051 -94.5964 51.7578 -77.6874 -94.5323 51.1099 
[...]
CELL_DATA 2000
SCALARS Distance double
LOOKUP_TABLE default
142.202 142.341 142.132 141.741 142.311 142.197 141.829 141.582 141.089 
142.216 142.102 141.775 141.616 141.191 140.91 140.425 142.41 142.12 
141.794 141.563 141.207 140.994 140.59 140.302 139.866 142.812 142.494 
142.166 141.757 141.357 141.037 140.657 140.423 140.012 139.744 139.298 
142.804 142.767 142.484 142.202 141.746 141.311 140.822 140.488 140.055 
139.814 139.363 139.116 138.666 142.409 142.507 142.279 142.293 141.908 
141.642 141.087 140.702 140.177 139.863 139.402 139.143 138.708 138.478 
138.109 142.242 142.177 141.994 141.997 141.712 141.607 141.124 140.869 
140.33 140.023 139.533 139.226 138.785 138.526 138.174 137.987 137.73 
142.406 142.23 142.072 141.9 141.624 141.432 140.995 140.791 140.324 
140.117 139.683 139.405 138.964 138.65 138.264 138.046 137.784 137.655 
137.455 142.466 142.901 142.665 142.61 143.417 143.107 143.001 142.74 
142.585 144.055 143.668 143.499 143.141 142.952 142.656 142.495 144.693 
144.322 144.13 143.692 143.449 143.066 142.926 142.651 142.662 145.185 
144.891 144.714 144.323 144.071 143.634 143.478 143.153 143.18 142.963 
143.03 145.559 145.291 145.098 144.815 144.611 144.258 144.123 143.781 
143.792 143.517 143.509 143.237 143.058 145.888 145.606 145.315 145.076 
144.831 144.649 144.523 144.351 144.367 144.151 144.126 143.758 143.499 
143.069 142.717 146.09 145.856 145.451 145.191 144.793 144.671 144.441 
144.476 144.444 144.508 144.504 144.338 144.106 143.633 143.246 142.76 
142.517 146.041 145.93 145.5 145.254 144.774 144.572 144.236 144.226 
144.105 144.288 144.275 144.427 144.276 144.121 143.761 143.36 143.041 
142.684 142.586 145.782 145.211 145.467 145.296 144.796 144.979 144.872 
144.932 144.656 144.536 144.721 144.738 144.706 144.481 144.371 144.153 
144.058 144.416 144.532 144.67 144.545 144.388 144.133 144.007 143.969 
143.293 143.747 143.854 144.282 144.282 144.407 144.165 144.048 143.869 
143.915 144.037 142.551 142.933 142.988 143.456 143.531 143.929 143.82 
143.931 143.673 143.727 143.663 143.926 144.012 141.904 142.247 142.292 
142.651 142.723 143.136 143.174 143.46 143.32 143.422 143.256 143.442 
143.417 143.723 143.628 141.235 141.609 141.663 142.002 142.031 142.393 
142.464 142.832 142.871 143.073 142.989 143.071 142.989 143.15 143.094 
143.266 143.081 140.573 140.937 141.001 141.354 141.361 141.7 141.719 
142.121 142.223 142.605 142.66 142.842 142.769 142.835 142.757 142.856 
142.79 142.843 142.704 142.592 142.602 142.543 142.325 142.552 142.463 
142.172 142.093 141.708 142.572 142.433 142.094 141.923 141.504 141.368 
140.933 142.389 142.373 141.993 141.853 141.392 141.214 140.769 140.624 
140.198 141.855 141.967 141.541 141.583 141.103 141.052 140.57 140.466 
139.988 139.866 139.38 141.338 141.373 140.96 141.018 140.585 140.628 
140.168 140.162 139.656 139.587 139.049 138.964 138.465 141.007 140.965 
140.594 140.555 140.173 140.146 139.715 139.694 139.193 139.161 138.623 
138.581 138.079 138.048 137.601 140.663 140.661 140.293 140.267 139.874 
139.82 139.351 139.274 138.733 138.673 138.135 138.118 137.644 137.647 
137.21 137.195 136.739 140.257 140.283 139.916 139.928 139.52 139.492 
138.997 138.911 138.347 138.245 137.711 137.66 137.224 137.225 136.833 
136.815 136.373 136.311 135.819 142.454 142.245 142.325 142.119 141.63 
141.935 141.739 141.844 141.521 140.827 141.184 141.007 141.257 140.912 
141.07 140.737 140.077 140.396 140.245 140.499 140.237 140.399 140.109 
140.288 140.078 139.261 139.626 139.49 139.79 139.614 139.808 139.616 
139.755 139.585 139.73 139.54 138.369 138.751 138.605 138.979 138.818 
139.153 138.998 139.268 139.095 139.274 139.029 139.151 138.852 137.518 
137.869 137.711 138.065 137.874 138.252 138.081 138.492 138.332 138.666 
138.41 138.595 138.267 138.402 138.128 136.622 136.996 136.81 137.174 
136.955 137.3 137.089 137.492 137.35 137.779 137.608 137.905 137.645 
137.821 137.595 137.766 137.64 135.655 136.031 135.818 136.224 136.009 
136.376 136.143 136.511 136.343 136.779 136.67 137.07 136.907 137.184 
137.007 137.241 137.146 137.373 137.317 135.045 134.227 134.8 135.198 
133.524 134.049 134.424 134.999 135.405 132.822 133.368 133.711 134.242 
134.588 135.175 135.547 132.227 132.677 133.007 133.495 133.776 134.338 
134.703 135.324 135.752 132.078 132.257 132.551 132.851 133.131 133.568 
133.953 134.526 135.022 135.627 136.108 132.116 132.227 132.427 132.572 
132.847 133.105 133.52 133.93 134.44 134.959 135.459 136.003 136.402 
131.801 132.08 132.21 132.446 132.664 132.92 133.282 133.623 134.057 
134.463 134.888 135.365 135.769 136.261 136.59 131.309 131.609 131.783 
132.104 132.315 132.638 132.913 133.302 133.641 134.055 134.389 134.816 
135.183 135.66 136.06 136.497 136.82 131.099 131.244 131.497 131.735 
132.011 132.269 132.531 132.852 133.161 133.562 133.903 134.316 134.677 
135.118 135.534 136 136.393 136.776 137.046 134.842 134.358 134.37 
133.999 133.962 133.924 133.477 133.54 133.242 133.601 133.559 133.061 
133.018 132.553 132.714 132.449 133.326 133.255 132.8 132.648 132.051 
131.999 131.593 131.883 131.805 133.225 133.08 132.706 132.495 131.943 
131.649 131.179 131.175 131.165 131.506 131.749 133.281 133.068 132.714 
132.496 132.078 131.735 131.361 131.098 131.12 131.191 131.527 131.744 
131.962 133.393 133.165 132.813 132.575 132.228 131.949 131.697 131.451 
131.491 131.422 131.68 131.714 131.829 131.86 131.735 133.47 133.274 
132.954 132.721 132.386 132.132 131.87 131.715 131.698 131.72 131.864 
131.894 131.872 131.773 131.522 131.453 131.219 133.509 133.333 133.022 
132.839 132.499 132.279 131.932 131.778 131.589 131.664 131.679 131.857 
131.817 131.802 131.557 131.376 131.132 131.044 130.989 139.93 139.369 
139.623 139.584 138.79 139.05 138.951 139.23 139.155 138.101 138.41 
138.269 138.55 138.385 138.71 138.58 137.325 137.648 137.497 137.81 
137.623 137.917 137.729 138.067 137.92 136.561 136.851 136.677 136.999 
136.852 137.163 137.012 137.284 137.131 137.429 137.321 135.813 136.088 
135.891 136.189 136.029 136.369 136.243 136.575 136.44 136.724 136.603 
136.903 136.857 135.065 135.33 135.128 135.413 135.197 135.514 135.297 
135.685 135.499 135.922 135.774 136.171 136.08 136.466 136.442 134.394 
134.608 134.402 134.656 134.423 134.679 134.388 134.689 134.425 134.847 
134.686 135.19 135.093 135.586 135.51 135.98 135.929 133.846 134.004 
133.803 133.987 133.772 133.954 133.69 133.869 133.616 133.871 133.726 
134.119 134.064 134.535 134.476 134.958 134.878 135.38 135.332 140.035 
140.048 139.847 139.488 140.104 139.874 139.475 139.29 138.911 140.148 
139.924 139.472 139.254 138.807 138.65 138.22 140.115 139.927 139.463 
139.233 138.735 138.527 138.068 137.917 137.475 140.023 139.851 139.402 
139.201 138.717 138.481 138.004 137.798 137.362 137.19 136.749 139.933 
139.751 139.294 139.117 138.661 138.462 137.984 137.762 137.289 137.096 
136.638 136.463 136 139.828 139.659 139.188 139.004 138.54 138.374 
137.901 137.709 137.206 137.008 136.523 136.346 135.875 135.704 135.251 
139.682 139.544 139.085 138.897 138.413 138.24 137.767 137.593 137.103 
136.907 136.432 136.246 135.81 135.617 135.187 134.992 134.591 139.524 
139.405 138.975 138.793 138.308 138.116 137.642 137.466 137.004 136.814 
136.367 136.181 135.78 135.595 135.199 134.983 134.575 134.377 134.023 
139.309 138.752 138.954 138.738 138.076 138.322 138.088 138.303 138.054 
137.351 137.596 137.356 137.602 137.359 137.597 137.377 136.668 136.866 
136.6 136.845 136.611 136.879 136.672 136.933 136.737 136.036 136.198 
135.892 136.096 135.844 136.114 135.916 136.206 136.024 136.294 136.115 
135.391 135.574 135.28 135.436 135.169 135.373 135.172 135.445 135.281 
135.569 135.416 135.691 135.542 134.701 134.93 134.71 134.878 134.632 
134.767 134.552 134.753 134.586 134.841 134.68 134.966 134.811 135.112 
134.953 134.03 134.264 134.109 134.326 134.116 134.255 134.009 134.172 
133.973 134.187 133.983 134.221 134.009 134.312 134.133 134.473 134.311 
133.479 133.654 133.522 133.744 133.571 133.726 133.47 133.615 133.389 
133.585 133.373 133.558 133.305 133.518 133.313 133.625 133.506 133.852 
133.761 133.171 132.706 133.012 133.189 132.167 132.533 132.695 133.045 
133.205 131.575 131.984 132.2 132.545 132.68 132.991 133.1 131.124 
131.454 131.76 132.096 132.278 132.516 132.609 132.882 133.027 131.051 
131.158 131.413 131.685 131.867 132.123 132.181 132.429 132.509 132.834 
132.985 131.301 131.233 131.312 131.385 131.415 131.624 131.598 131.899 
131.903 132.266 132.345 132.74 132.876 131.448 131.434 131.414 131.36 
131.266 131.247 131.141 131.283 131.289 131.609 131.737 132.11 132.289 
132.66 132.885 131.271 131.378 131.372 131.422 131.406 131.303 131.239 
131.095 131.114 131.166 131.382 131.632 131.941 132.224 132.526 132.816 
133.124 131.036 131.111 131.152 131.307 131.468 131.517 131.621 131.445 
131.462 131.275 131.416 131.471 131.798 132.018 132.373 132.599 132.908 
133.144 133.435 133.182 133.227 133.008 132.691 133.423 133.118 132.684 
132.477 132.125 133.609 133.339 132.905 132.555 132.049 131.826 131.459 
133.73 133.51 133.184 132.85 132.354 131.903 131.394 131.172 130.958 
133.908 133.634 133.348 133.117 132.789 132.359 131.89 131.376 131.072 
130.876 130.935 134.252 133.866 133.501 133.256 133.015 132.778 132.476 
132.017 131.666 131.235 131.161 131.057 131.241 134.689 134.262 133.848 
133.473 133.183 132.97 132.758 132.501 132.162 131.784 131.501 131.308 
131.307 131.343 131.416 135.089 134.709 134.343 133.909 133.591 133.241 
133.02 132.75 132.454 132.122 131.746 131.502 131.327 131.324 131.323 
131.378 131.303 135.44 135.107 134.817 134.433 134.161 133.754 133.524 
133.14 132.884 132.467 132.135 131.745 131.532 131.358 131.359 131.327 
131.327 131.247 131.141 133.539 134.346 133.811 133.673 135.353 134.76 
134.567 134.016 133.875 136.156 135.707 135.482 134.936 134.678 134.169 
133.987 136.723 136.362 136.208 135.777 135.548 134.996 134.742 134.242 
134.084 137.468 136.987 136.921 136.504 136.455 135.931 135.77 135.133 
134.957 134.408 134.327 138.45 137.892 137.832 137.342 137.374 136.905 
136.868 136.257 136.083 135.421 135.287 134.742 134.709 139.403 138.9 
138.823 138.313 138.277 137.828 137.792 137.302 137.136 136.528 136.31 
135.731 135.621 135.143 135.113 140.29 139.83 139.778 139.275 139.18 
138.692 138.588 138.137 137.995 137.485 137.279 136.712 136.544 136.032 
135.95 135.51 135.466 141.156 140.726 140.702 140.213 140.105 139.575 
139.405 138.906 138.743 138.283 138.128 137.634 137.477 136.953 136.834 
136.343 136.269 135.832 135.789 141.62 142.125 141.661 141.173 142.466 
142.087 141.567 141.116 140.538 142.599 142.312 141.754 141.389 140.761 
140.361 139.759 142.57 142.354 141.8 141.488 140.853 140.491 139.875 
139.542 139.026 142.433 142.275 141.794 141.536 140.961 140.591 139.983 
139.629 139.119 138.848 138.41 142.251 142.119 141.705 141.538 141.069 
140.75 140.146 139.75 139.182 138.904 138.466 138.242 137.803 142.127 
141.971 141.593 141.46 141.07 140.846 140.277 139.897 139.246 138.928 
138.441 138.257 137.862 137.632 137.186 142.097 141.918 141.577 141.408 
141.056 140.851 140.352 140.003 139.374 138.998 138.501 138.263 137.932 
137.715 137.346 137.047 136.621 142.101 141.935 141.609 141.43 141.081 
140.876 140.436 140.117 139.582 139.189 138.747 138.435 138.167 137.901 
137.618 137.279 136.886 136.526 136.132 141.978 141.499 141.666 141.463 
140.813 141.065 140.875 141.105 140.902 140.116 140.327 140.127 140.424 
140.254 140.501 140.24 139.553 139.68 139.449 139.685 139.54 139.812 
139.604 139.784 139.445 139.015 139.148 138.9 139.073 138.907 139.138 
138.986 139.181 138.952 139.035 138.731 138.416 138.582 138.349 138.533 
138.341 138.541 138.364 138.578 138.412 138.591 138.393 138.449 138.197 
137.881 137.999 137.771 137.953 137.772 137.975 137.774 137.962 137.75 
137.986 137.797 138.026 137.777 137.892 137.579 137.528 137.556 137.301 
137.398 137.195 137.387 137.202 137.385 137.14 137.316 137.061 137.307 
137.044 137.286 136.949 137.127 136.773 137.275 137.273 136.987 136.988 
136.714 136.824 136.614 136.8 136.567 136.723 136.43 136.592 136.301 
136.508 136.209 136.408 136.089 136.275 135.994 135.56 135.617 135.37 
134.96 135.717 135.444 135.019 134.782 134.367 135.82 135.535 135.086 
134.843 134.422 134.183 133.747 135.97 135.651 135.176 134.897 134.456 
134.224 133.773 133.535 133.056 136.13 135.827 135.361 135.029 134.588 
134.294 133.871 133.581 133.089 132.801 132.298 136.225 135.974 135.561 
135.251 134.839 134.509 134.113 133.769 133.335 132.945 132.468 132.109 
131.732 136.387 136.108 135.748 135.451 135.059 134.757 134.335 134.022 
133.58 133.237 132.807 132.428 132.07 131.734 131.535 136.705 136.379 
136.033 135.68 135.266 134.941 134.485 134.181 133.699 133.411 132.978 
132.716 132.371 132.103 131.829 131.597 131.422 137.018 136.733 136.379 
136.004 135.553 135.168 134.708 134.351 133.908 133.56 133.155 132.861 
132.546 132.318 132.045 131.824 131.553 131.382 131.181 146.223 146.302 
146.324 146.205 146.107 146.287 146.251 146.146 145.828 145.744 146.01 
146.094 146.155 145.996 145.773 145.464 145.29 145.581 145.676 145.924 
145.935 145.946 145.776 145.516 145.212 144.74 145.044 145.019 145.36 
145.356 145.683 145.621 145.703 145.425 145.193 144.737 144.108 144.423 
144.341 144.633 144.52 144.902 144.839 145.23 145.052 145.164 144.727 
144.531 143.995 143.459 143.764 143.714 143.976 143.857 144.109 144.009 
144.357 144.271 144.574 144.311 144.351 143.898 143.738 143.279 142.881 
143.129 143.06 143.341 143.241 143.495 143.377 143.638 143.548 143.832 
143.694 143.869 143.576 143.564 143.172 143.047 142.644 142.399 142.577 
142.443 142.677 142.54 142.823 142.69 142.989 142.865 143.162 143.026 
143.273 143.063 143.191 142.882 142.874 142.496 142.391 141.979 146.056 
145.995 145.947 145.609 145.57 145.679 145.399 145.377 144.997 145.152 
145.204 144.955 145.042 144.743 144.721 144.343 144.859 144.851 144.567 
144.619 144.338 144.376 144.015 144.005 143.597 144.38 144.483 144.144 
144.237 143.913 143.963 143.575 143.59 143.167 143.185 142.759 143.688 
143.867 143.514 143.689 143.341 143.472 143.082 143.134 142.719 142.738 
142.331 142.334 141.92 143.036 143.188 142.866 143.014 142.675 142.827 
142.471 142.594 142.232 142.305 141.936 141.943 141.546 141.519 141.131 
142.42 142.58 142.27 142.405 142.067 142.189 141.84 141.97 141.635 
141.773 141.434 141.524 141.144 141.158 140.767 140.767 140.44 141.745 
141.933 141.604 141.781 141.44 141.591 141.243 141.371 141.028 141.161 
140.815 140.951 140.583 140.686 140.313 140.38 140.055 140.115 139.857 
145.811 145.409 145.503 145.217 144.833 145.014 144.775 144.885 144.695 
144.224 144.438 144.226 144.382 144.215 144.418 144.335 143.543 143.831 
143.653 143.833 143.653 143.878 143.786 144.039 143.883 142.738 143.11 
142.976 143.23 143.029 143.272 143.142 143.431 143.291 143.491 143.212 
141.886 142.279 142.187 142.512 142.331 142.594 142.417 142.724 142.581 
142.86 142.632 142.784 142.484 141.097 141.451 141.393 141.736 141.618 
141.888 141.709 141.976 141.809 142.108 141.912 142.157 141.887 142.061 
141.785 140.429 140.721 140.678 140.996 140.922 141.2 141.051 141.289 
141.114 141.367 141.186 141.433 141.2 141.409 141.139 141.34 141.085 
139.86 140.108 140.049 140.327 140.243 140.52 140.378 140.63 140.457 
140.702 140.532 140.764 140.568 140.757 140.519 140.691 140.45 140.643 
140.429 133.693 134.241 134.078 134.459 134.937 134.711 135.082 134.992 
135.473 135.682 135.457 135.804 135.655 136.072 135.98 136.308 136.356 
136.184 136.51 136.355 136.698 136.564 136.849 136.685 136.894 136.959 
136.809 137.11 136.983 137.296 137.166 137.468 137.284 137.56 137.333 
137.644 137.603 137.408 137.68 137.532 137.848 137.739 138.1 137.958 
138.319 138.105 138.463 138.229 138.611 138.313 138.085 138.342 138.132 
138.444 138.308 138.711 138.611 139.031 138.881 139.251 139.047 139.386 
139.183 139.526 138.983 138.789 139.053 138.834 139.139 138.96 139.355 
139.242 139.676 139.565 139.948 139.784 140.107 139.913 140.23 140.046 
140.383 139.523 139.398 139.672 139.52 139.837 139.675 140.048 139.908 
140.307 140.189 140.564 140.434 140.77 140.607 140.931 140.747 141.079 
140.899 141.236 
POINT_DATA 1002
SCALARS Distance double
LOOKUP_TABLE default
141.89 142.255 142.462 142.045 142.519 141.289 142.028 142.387 141.414 
140.564 141.892 142.371 141.406 140.755 139.956 142.101 142.764 141.392 
140.823 140.195 139.447 142.621 143.054 141.782 140.899 140.253 139.591 
138.857 142.627 142.735 142.205 141.254 140.315 139.599 138.9 138.242 
142.162 142.333 142.049 141.469 140.54 139.678 138.931 138.293 137.793 
142.04 142.357 141.781 141.305 140.599 139.852 139.07 138.355 137.875 
137.525 142.297 142.568 141.881 141.21 140.471 139.901 139.296 138.528 
137.911 137.567 137.273 142.683 142.853 143.169 143.3 143.783 142.852 
143.924 144.459 143.274 142.731 144.586 145.036 143.88 143.193 142.856 
145.054 145.467 144.504 143.831 143.414 143.274 145.353 145.86 144.89 
144.441 144.101 143.866 143.387 145.606 146.199 144.988 144.618 144.515 
144.489 144.024 143.086 145.766 146.307 144.982 144.41 144.297 144.523 
144.503 143.791 142.863 145.719 146.098 145.017 144.326 143.974 144.047 
144.257 144.069 143.426 142.834 145.531 145.153 144.948 144.837 144.605 
144.628 144.724 144.282 144.656 144.161 144.243 143.652 144.633 144.349 
143.89 143.349 142.88 143.973 144.242 143.907 143.81 142.571 142.203 
143.048 143.576 143.647 143.468 143.713 141.97 141.54 142.336 142.789 
143.162 143.155 143.15 143.39 141.319 140.848 141.702 142.057 142.548 
142.904 142.909 142.911 142.984 140.645 140.225 141.041 141.341 141.759 
142.364 142.712 142.687 142.675 142.712 142.5 142.42 142.058 142.296 
141.803 141.265 142.317 141.673 141.039 140.496 142.093 141.572 140.933 
140.338 139.762 141.445 141.088 140.651 140.128 139.5 138.878 140.916 
140.522 140.146 139.708 139.133 138.516 138 140.64 140.228 139.771 
139.23 138.643 138.095 137.626 137.177 140.303 139.935 139.461 138.823 
138.147 137.618 137.221 136.784 136.257 139.9 139.547 139.08 138.45 
137.768 137.219 136.838 136.442 135.895 135.306 142.18 141.568 141.472 
140.72 140.734 140.53 139.973 140.044 139.935 139.864 139.145 139.353 
139.447 139.468 139.425 138.231 138.441 138.66 138.889 138.931 138.734 
137.378 137.526 137.656 137.928 138.18 138.121 137.947 136.434 136.62 
136.719 136.894 137.23 137.417 137.397 137.443 135.402 135.619 135.79 
135.92 136.215 136.565 136.74 136.885 137.111 134.427 134.573 133.682 
133.893 132.997 134.807 133.215 132.254 134.028 134.93 132.565 131.865 
133.245 134.057 135.122 132.343 132.028 132.746 133.403 134.4 135.544 
132.313 132.011 132.629 133.168 133.988 134.932 135.901 131.919 131.476 
132.4 132.965 133.715 134.471 135.263 136.144 131.435 131.018 131.996 
132.55 133.228 133.983 134.715 135.574 136.464 131.281 130.999 131.777 
132.263 132.78 133.477 134.252 135.067 135.963 136.754 134.794 133.89 
134.39 133.491 134.007 133.049 133.179 133.62 132.514 132.098 132.968 
133.39 132.253 131.387 131.297 132.883 133.403 132.267 131.311 130.842 
131.357 132.921 133.521 132.339 131.629 131.145 131.375 131.852 133.055 
133.603 132.467 131.882 131.583 131.749 131.919 131.72 133.166 133.641 
132.644 132.049 131.683 131.83 132.017 131.683 131.164 133.192 133.695 
132.71 132.146 131.605 131.481 131.727 131.708 131.283 130.951 139.665 
139.305 139.138 138.707 138.526 138.84 137.997 137.782 138.105 138.212 
137.167 137.026 137.329 137.436 137.542 136.362 136.296 136.504 136.726 
136.876 136.977 135.608 135.536 135.704 135.88 136.125 136.319 136.515 
134.849 134.811 134.929 134.96 135.052 135.323 135.681 136.046 134.167 
134.204 134.192 134.15 134.056 134.169 134.568 135.032 135.451 140.215 
139.661 140.268 139.694 140.352 139.071 139.727 140.367 138.998 138.353 
139.689 140.289 138.976 138.233 137.618 139.576 140.205 138.942 138.236 
137.544 136.926 139.473 140.122 138.833 138.21 137.506 136.819 136.168 
139.384 139.978 138.708 138.081 137.412 136.701 136.05 135.409 139.272 
139.798 138.601 137.932 137.288 136.609 135.988 135.394 134.758 139.146 
139.629 138.507 137.817 137.179 136.547 135.947 135.405 134.799 134.17 