# vtk DataFile Version 4.0
vtk output
ASCII
DATASET POLYDATA
POINTS 1002 float
-80.0576 -96.6074 52.7911 -80.1238 -96.7361 53.6291 -80.6908 -96.6473 53.2472 
-80.5613 -96.4019 52.4016 -81.1359 -96.5411 52.7791 -79.9073 -96.1836 51.9738 
-80.9951 -96.2172 51.9239 -81.5149 -96.5342 52.1643 -80.3067 -96.0047 51.5136 
-79.7135 -95.6156 51.3127 -81.4423 -96.1744 51.3244 -81.9547 -96.5736 51.5132 
-80.746 -95.9248 50.9631 -80.0705 -95.637 50.6949 -79.622 -95.2099 50.678 
-81.9257 -96.1851 50.7155 -82.4647 -96.5058 50.9865 -81.2931 -95.9046 50.3838 
-80.5978 -95.594 50.1037 -80.0363 -95.234 49.9584 -79.6232 -94.8383 49.815 
-82.4053 -96.1391 50.1462 -82.9626 -96.4192 50.4516 -81.8585 -95.8196 49.8128 
-81.2892 -95.3839 49.6115 -80.6454 -94.9746 49.4391 -80.054 -94.6705 49.1437 
-79.5487 -94.3429 48.8387 -82.8875 -96.0869 49.5298 -83.3952 -96.4318 49.7745 
-82.3747 -95.6726 49.2291 -81.9456 -95.1186 49.0913 -81.3848 -94.6058 49.0194 
-80.636 -94.3764 48.6695 -79.9463 -94.2105 48.2294 -79.381 -93.9372 47.9992 
-83.3786 -96.0115 48.9296 -83.7766 -96.4152 49.1444 -82.8829 -95.5313 48.6866 
-82.4513 -94.9521 48.5378 -82.0128 -94.3848 48.5071 -81.3296 -94.0964 48.2303 
-80.5377 -94.0443 47.6941 -79.8289 -93.882 47.3443 -79.2172 -93.6327 47.2062 
-83.8325 -95.8759 48.4534 -84.1307 -96.3151 48.695 -83.398 -95.3836 48.2436 
-82.9054 -94.8598 48.0577 -82.4548 -94.342 47.9429 -81.8983 -93.9134 47.7338 
-81.1959 -93.725 47.2421 -80.4681 -93.6431 46.7578 -79.7438 -93.4438 46.5344 
-79.0986 -93.2493 46.3834 -84.1856 -95.787 48.0433 -84.4338 -96.2558 48.32 
-83.8467 -95.264 47.8437 -83.3829 -94.7523 47.6463 -82.8916 -94.3126 47.4221 
-82.3501 -93.8583 47.1885 -81.6919 -93.4517 46.8193 -80.9999 -93.272 46.3273 
-80.2981 -93.1611 45.9807 -79.6018 -92.9532 45.8279 -79.033 -92.803 45.6821 
-80.5615 -96.7802 54.1615 -81.0964 -96.7674 53.7116 -81.0027 -97.0022 54.596 
-81.4493 -97.0656 54.0735 -81.3757 -97.4366 54.8852 -81.4644 -96.8678 53.0827 
-81.8315 -97.4675 54.3544 -81.683 -97.9555 54.9899 -81.8239 -97.3052 53.3544 
-81.8501 -97.0548 52.3312 -82.331 -97.8481 54.5291 -82.016 -98.48 55.0154 
-82.4493 -97.5673 53.7294 -82.3759 -97.4796 52.6391 -82.4079 -97.0521 51.7154 
-82.8662 -98.3365 54.6133 -82.3818 -99.0201 55.0561 -83.2063 -97.7497 54.0451 
-83.1876 -97.5344 53.1402 -83.0677 -97.2997 52.112 -83.0348 -96.8198 51.2479 
-83.2704 -98.9777 54.6435 -82.7055 -99.5405 55.0022 -83.6699 -98.3136 54.1325 
-83.8085 -97.7495 53.4194 -83.7816 -97.3814 52.5178 -83.6914 -97.0468 51.5315 
-83.543 -96.7227 50.6063 -83.5587 -99.5493 54.6158 -83.0137 -100.038 54.8652 
-83.8322 -99.0841 54.0914 -83.9386 -98.5286 53.3302 -84.1174 -97.9056 52.5486 
-84.2426 -97.4257 51.6737 -84.1086 -97.1151 50.7043 -83.8863 -96.8095 49.8396 
-83.8424 -100.025 54.5639 -83.3466 -100.566 54.7775 -84.0411 -99.6165 54.0501 
-84.0251 -99.2769 53.1815 -84.1606 -98.7512 52.3205 -84.466 -98.1301 51.5639 
-84.5492 -97.6834 50.7336 -84.3582 -97.3009 49.9285 -84.186 -96.8242 49.2644 
-84.0908 -100.528 54.465 -83.6297 -101.075 54.6814 -84.3455 -100.011 53.9891 
-84.3882 -99.6523 53.1426 -84.4118 -99.2877 52.2025 -84.574 -98.7586 51.403 
-84.7571 -98.2606 50.6511 -84.7718 -97.8454 49.9617 -84.6508 -97.3296 49.4089 
-84.5255 -96.7536 48.8795 -84.0881 -101.202 54.288 -84.472 -100.637 53.9215 
-84.3592 -101.269 53.5647 -84.7068 -100.691 53.0364 -84.5071 -101.259 52.5843 
-84.7378 -100.064 53.2237 -84.8065 -100.667 51.99 -84.6581 -101.194 51.5273 
-85.0762 -100.073 52.3157 -84.89 -99.6051 52.3129 -84.9467 -100.608 50.899 
-84.9288 -101.14 50.5151 -85.2701 -100.085 51.3375 -85.3422 -99.5173 51.4939 
-84.9255 -99.1212 51.4061 -85.3069 -100.58 49.8553 -85.233 -101.15 49.6371 
-85.6039 -100.114 50.2141 -85.7901 -99.537 50.4735 -85.4393 -98.9577 50.4937 
-84.9747 -98.6158 50.5103 -85.5838 -100.572 49.0148 -85.334 -101.183 48.8507 
-86.0528 -100.088 49.2063 -86.4856 -99.5897 49.3851 -86.2894 -98.9377 49.4375 
-85.64 -98.4691 49.525 -85.1229 -98.2043 49.7592 -85.487 -100.522 48.2794 
-85.2029 -101.105 48.0416 -86.0518 -100.003 48.4851 -86.7999 -99.5468 48.6782 
-87.1119 -98.9327 48.7469 -86.6541 -98.346 48.7899 -85.8733 -98.0114 49.0232 
-85.1862 -97.7139 49.3019 -85.2261 -100.385 47.5047 -84.979 -100.866 47.2737 
-85.6537 -99.9123 47.7635 -86.3184 -99.4858 48.1083 -86.9417 -98.9075 48.3882 
-87.0352 -98.2288 48.4705 -86.5151 -97.7628 48.5489 -85.7405 -97.4554 48.7413 
-85.0377 -97.1058 48.8755 -85.0082 -100.188 46.7795 -84.7334 -100.567 46.653 
-85.3138 -99.7953 46.9674 -85.6785 -99.428 47.3164 -86.1069 -98.9234 47.7519 
-86.4233 -98.2074 48.0232 -86.3588 -97.5823 48.0783 -85.8998 -97.2197 48.115 
-85.3024 -96.9203 48.2051 -84.7981 -96.5715 48.2766 -84.5109 -95.9924 47.6719 
-84.8102 -96.3616 47.4915 -84.5532 -95.6815 46.9533 -85.1912 -96.6867 47.3498 
-84.8182 -96.0419 46.648 -84.6346 -95.1811 46.2715 -85.5689 -96.9832 47.2894 
-85.0979 -96.3435 46.4269 -84.9086 -95.4951 45.8803 -84.6516 -94.6409 45.4491 
-85.7304 -97.5002 47.2623 -85.2866 -96.7801 46.2954 -85.0786 -95.9256 45.5587 
-84.8407 -94.9998 44.9504 -84.4926 -94.3559 44.3002 -85.6153 -98.2629 47.0993 
-85.2749 -97.493 46.176 -85.1003 -96.6514 45.3204 -84.8346 -95.6975 44.5784 
-84.5437 -94.84 43.8235 -84.2462 -94.293 43.2681 -85.4169 -98.9101 46.7485 
-85.1326 -98.1963 46.0131 -84.9852 -97.4257 45.1783 -84.7887 -96.6238 44.3464 
-84.4668 -95.7371 43.5877 -84.1665 -94.9325 43.0633 -83.7688 -94.3474 42.8176 
-85.2444 -99.3311 46.3937 -85.0039 -98.6998 45.8107 -84.7561 -97.9756 45.1175 
-84.6577 -97.3368 44.2549 -84.478 -96.6761 43.4569 -84.0507 -95.8931 43.0051 
-83.5073 -95.1281 42.8252 -82.9386 -94.5198 42.636 -85.0095 -99.7166 46.1923 
-84.8672 -99.1734 45.6149 -84.5329 -98.5025 45.0203 -84.3232 -97.8725 44.2557 
-84.3032 -97.3367 43.4367 -84.0064 -96.7284 42.9357 -83.3158 -96.0147 42.771 
-82.6309 -95.3039 42.6025 -82.1793 -94.6893 42.2503 -84.6805 -100.106 46.1202 
-84.6182 -99.6663 45.4928 -84.3743 -99.1266 44.8591 -84.0354 -98.5003 44.214 
-83.8771 -97.9085 43.5317 -83.7272 -97.3293 42.9903 -83.2074 -96.7054 42.7001 
-82.501 -96.0549 42.4683 -82.0355 -95.4002 42.1086 -81.8597 -94.778 41.6573 
-84.2587 -95.4014 47.4325 -84.3066 -94.9274 46.7862 -83.9017 -94.7556 47.2551 
-84.313 -94.4095 46.0516 -83.9206 -94.2348 46.5582 -83.4333 -94.2421 46.9801 
-84.174 -94.1153 45.0059 -83.7842 -93.9011 45.6859 -83.3929 -93.7992 46.1693 
-82.8692 -93.8311 46.6414 -83.9624 -94.0191 43.802 -83.4682 -93.8226 44.6129 
-83.0717 -93.5912 45.2838 -82.6352 -93.4352 45.7718 -82.1149 -93.3678 46.2985 
-83.6382 -93.9127 42.9978 -83.1317 -93.6729 43.5942 -82.5959 -93.4433 44.3359 
-82.1216 -93.2583 44.8696 -81.6115 -93.1173 45.3333 -81.259 -93.0637 45.8502 
-82.9484 -93.9362 42.6169 -82.6422 -93.5115 42.879 -82.1792 -93.1473 43.4412 
-81.6845 -92.9559 43.9402 -81.0655 -92.9923 44.3185 -80.6165 -92.9779 44.832 
-80.4793 -92.9573 45.4296 -82.168 -94.1014 42.2006 -81.9811 -93.614 42.3159 
-81.7142 -93.0852 42.7368 -81.4421 -92.5699 43.2067 -80.8903 -92.4561 43.4912 
-80.1998 -92.6444 43.8886 -79.876 -92.704 44.5617 -79.7982 -92.7307 45.2471 
-81.7837 -94.1884 41.6051 -81.5521 -93.7429 41.702 -81.2756 -93.3066 42.1264 
-81.1387 -92.6386 42.7235 -80.8695 -91.9901 43.0847 -80.2086 -91.8389 43.3155 
-79.6043 -92.0299 43.8519 -79.3796 -92.2089 44.59 -79.2573 -92.4357 45.1963 
-81.7809 -94.4298 40.9997 -81.5456 -93.7988 41.0096 -81.4979 -94.0687 40.5147 
-81.0531 -93.3645 40.634 -80.6551 -93.819 40.3266 -81.109 -93.4214 41.3521 
-80.0955 -93.1038 40.5033 -79.524 -93.7729 40.359 -80.4652 -93.0806 41.2276 
-80.7652 -93.0342 42.1114 -79.0353 -93.161 40.5247 -78.5068 -93.8714 40.4404 
-79.5367 -92.9755 41.1948 -80.048 -92.8503 42.1744 -80.5813 -92.2674 42.813 
-78.0814 -93.3793 40.6207 -77.456 -94.0001 40.433 -78.6221 -93.122 41.2113 
-79.0979 -92.9295 42.0994 -79.6796 -92.1428 42.8021 -80.1316 -91.4816 43.0975 
-77.062 -93.6005 40.7352 -76.4082 -94.1366 40.4913 -77.7617 -93.2737 41.3283 
-78.2139 -93.064 42.0381 -78.6244 -92.3791 42.6237 -79.1639 -91.3955 43.0845 
-79.4902 -91.2845 43.4504 -76.1908 -93.8521 40.9877 -75.7985 -94.3152 40.9048 
-76.8592 -93.4549 41.4977 -77.4274 -93.1085 42.1403 -77.7821 -92.6765 42.5683 
-78.29 -91.9001 43.0307 -78.8512 -91.3289 43.6365 -79.147 -91.5716 44.1526 
-75.6957 -94.1236 41.4797 -75.5712 -94.5564 41.5835 -76.0849 -93.7439 41.7619 
-76.6243 -93.2938 42.3161 -77.0756 -92.9092 42.7198 -77.5989 -92.546 43.0914 
-78.298 -92.0665 43.7199 -78.7946 -91.8129 44.347 -79.0092 -92.0173 44.7938 
-75.3027 -94.3676 42.0425 -75.2644 -94.8493 42.1769 -75.4669 -94.002 42.1658 
-75.8414 -93.6124 42.5701 -76.3261 -93.2219 42.958 -76.883 -92.9858 43.2895 
-77.606 -92.7935 43.8124 -78.2796 -92.543 44.3892 -78.6204 -92.4211 44.8115 
-78.7828 -92.5358 45.2115 -81.8402 -95.3034 41.3084 -81.7494 -95.0763 40.695 
-81.8 -96.0055 41.0114 -81.4706 -95.9474 40.5306 -81.5859 -96.7322 40.8762 
-81.1843 -94.9044 40.3884 -80.9945 -96.6792 40.536 -81.1295 -97.2924 40.9745 
-80.6182 -95.8374 40.4204 -80.0996 -94.7997 40.4205 -80.4104 -97.2639 40.6935 
-80.5141 -97.7432 41.25 -80.0839 -96.4966 40.4614 -79.5518 -95.6487 40.573 
-79.009 -94.7419 40.575 -79.7582 -97.9825 40.8686 -79.9741 -98.2432 41.4908 
-79.545 -97.3053 40.4448 -79.0902 -96.3413 40.507 -78.5181 -95.5393 40.6667 
-77.9534 -94.7446 40.5485 -79.2346 -98.6459 40.9941 -79.6481 -98.7944 41.6276 
-78.9698 -98.2967 40.4519 -78.5576 -97.368 40.3762 -77.9343 -96.41 40.5105 
-77.3103 -95.647 40.4683 -76.7659 -94.8123 40.3734 -78.9309 -99.0338 41.2723 
-79.3882 -99.3318 41.8627 -78.5989 -98.805 40.7096 -78.1844 -98.1867 40.5487 
-77.4918 -97.3327 40.5862 -76.769 -96.6287 40.4263 -76.2465 -95.8153 40.3378 
-75.9263 -94.9041 40.5511 -78.6631 -99.3403 41.8096 -79.0457 -99.7835 42.3038 
-78.3612 -98.9495 41.2993 -78.0309 -98.4287 41.0692 -77.4234 -97.7715 41.0793 
-76.6517 -97.2738 40.8596 -76.0778 -96.7422 40.5953 -75.7909 -95.8847 40.7963 
-75.6626 -95.0466 41.2468 -78.3341 -99.6996 42.4036 -78.6684 -100.112 42.8065 
-78.0319 -99.236 41.9748 -77.7467 -98.7056 41.657 -77.3158 -98.0874 41.5844 
[...]
CELL_DATA 2000
SCALARS Distance double
LOOKUP_TABLE default
135.467 135.51 135.315 134.887 135.488 135.299 134.846 134.63 134.138 
135.501 135.278 134.829 134.588 134.112 133.878 133.449 135.559 135.319 
134.888 134.621 134.164 133.896 133.466 133.253 132.865 135.609 135.378 
134.949 134.7 134.247 133.977 133.511 133.268 132.822 132.632 132.186 
135.641 135.417 134.973 134.737 134.275 134.035 133.556 133.303 132.818 
132.581 132.112 131.907 131.459 135.657 135.445 134.998 134.75 134.275 
134.037 133.573 133.333 132.864 132.602 132.138 131.886 131.446 131.225 
130.818 135.654 135.457 135.03 134.783 134.312 134.052 133.597 133.357 
132.904 132.651 132.178 131.927 131.469 131.241 130.801 130.599 130.187 
135.657 135.46 135.055 134.822 134.371 134.108 133.656 133.405 132.953 
132.692 132.194 131.932 131.432 131.219 130.755 130.564 130.116 129.941 
129.545 135.785 136.316 135.994 135.871 136.912 136.546 136.408 136.054 
135.883 137.528 137.153 137.01 136.631 136.483 136.088 135.917 138.127 
137.766 137.661 137.281 137.17 136.751 136.599 136.16 135.985 138.754 
138.4 138.337 137.959 137.876 137.467 137.322 136.872 136.674 136.226 
136.032 139.372 139.07 139.038 138.66 138.556 138.15 137.984 137.564 
137.349 136.908 136.681 136.253 136.054 139.899 139.671 139.668 139.338 
139.197 138.793 138.586 138.183 137.974 137.56 137.339 136.901 136.677 
136.259 136.057 140.399 140.18 140.179 139.895 139.74 139.372 139.135 
138.752 138.543 138.169 137.979 137.563 137.344 136.896 136.67 136.249 
136.046 140.897 140.676 140.641 140.363 140.203 139.864 139.628 139.267 
139.034 138.694 138.493 138.154 137.954 137.561 137.339 136.896 136.676 
136.247 136.052 141.131 141.21 141.096 140.828 141.041 141.054 140.802 
140.689 140.342 140.716 140.792 140.592 140.588 140.279 140.145 139.77 
140.403 140.444 140.28 140.352 140.128 140.058 139.691 139.537 139.162 
140.224 140.187 140.043 140.095 139.961 139.922 139.588 139.428 139.022 
138.911 138.582 140.076 140.044 139.907 139.943 139.893 139.859 139.629 
139.398 139.004 138.788 138.458 138.364 138.076 139.759 139.821 139.643 
139.762 139.728 139.824 139.715 139.555 139.229 138.908 138.556 138.323 
138.026 137.874 137.53 139.258 139.393 139.168 139.357 139.261 139.514 
139.427 139.534 139.249 139.104 138.684 138.457 138.054 137.857 137.456 
137.281 136.871 138.705 138.857 138.634 138.811 138.654 138.915 138.772 
139.031 138.742 138.853 138.386 138.361 137.849 137.768 137.28 137.165 
136.709 136.589 136.2 135.877 136.326 135.883 135.47 136.825 136.326 
135.841 135.427 134.974 137.325 136.789 136.224 135.774 135.268 134.882 
134.383 137.806 137.257 136.643 136.145 135.599 135.172 134.638 134.235 
133.705 138.169 137.7 137.085 136.576 136.027 135.548 135.008 134.525 
133.966 133.549 133.074 138.296 137.983 137.414 136.985 136.442 135.993 
135.485 134.979 134.442 133.913 133.428 133.007 132.62 138.277 138.063 
137.583 137.248 136.709 136.332 135.837 135.439 134.969 134.478 134.007 
133.486 133.06 132.615 132.215 138.283 138.084 137.694 137.408 136.912 
136.549 136.042 135.706 135.279 134.94 134.519 134.077 133.605 133.109 
132.631 132.182 131.741 138.334 138.134 137.788 137.546 137.129 136.781 
136.297 135.921 135.483 135.176 134.789 134.47 134.014 133.592 133.07 
132.605 132.124 131.708 131.322 135.54 135.124 135.2 134.912 134.623 
134.73 134.413 134.52 134.212 134.024 134.172 133.835 133.969 133.65 
133.786 133.494 133.364 133.536 133.208 133.36 133.039 133.195 132.892 
133.054 132.765 132.757 132.891 132.586 132.732 132.41 132.566 132.228 
132.398 132.047 132.252 131.942 132.262 132.332 131.988 132.108 131.746 
131.903 131.52 131.689 131.28 131.469 131.106 131.374 131.126 131.794 
131.836 131.409 131.491 131.055 131.189 130.757 130.931 130.506 130.686 
130.305 130.537 130.278 130.599 130.44 131.316 131.336 130.887 130.919 
130.474 130.527 130.09 130.186 129.761 129.907 129.521 129.739 129.454 
129.761 129.583 129.941 129.807 130.927 130.887 130.473 130.453 130.071 
130.059 129.697 129.675 129.279 129.269 128.853 128.959 128.633 128.911 
128.719 129.084 128.967 129.332 129.245 130.651 130.082 130.284 130.146 
129.388 129.638 129.49 129.796 129.741 128.619 128.865 128.743 129.118 
129.135 129.453 129.421 128.001 128.148 128.046 128.395 128.502 128.868 
128.869 129.105 128.985 127.513 127.639 127.563 127.823 127.948 128.279 
128.283 128.509 128.303 128.544 128.421 127.021 127.186 127.166 127.416 
127.519 127.791 127.766 127.928 127.685 127.834 127.664 128.01 128.116 
126.732 126.791 126.822 127.032 127.137 127.374 127.37 127.489 127.335 
127.368 127.277 127.425 127.584 127.929 128.255 126.808 126.694 126.703 
126.772 126.866 127.022 127.067 127.178 127.182 127.219 127.307 127.332 
127.563 127.668 127.996 128.238 128.585 127.016 126.847 126.753 126.724 
126.747 126.82 126.873 126.964 127.05 127.156 127.358 127.47 127.754 
127.822 128.097 128.166 128.436 128.613 128.908 130.899 131.231 130.847 
130.398 131.615 131.23 130.774 130.325 129.759 131.867 131.564 131.103 
130.697 130.126 129.637 129.02 131.974 131.738 131.28 130.946 130.406 
129.992 129.415 128.932 128.384 132.09 131.855 131.47 131.13 130.619 
130.228 129.699 129.3 128.754 128.321 127.812 132.286 132.029 131.736 
131.411 130.969 130.517 129.982 129.554 129.024 128.623 128.063 127.685 
127.221 132.541 132.251 131.952 131.693 131.325 130.927 130.409 129.916 
129.384 128.919 128.42 127.965 127.516 127.15 126.892 132.817 132.501 
132.145 131.886 131.537 131.236 130.786 130.357 129.861 129.381 128.958 
128.461 128.123 127.633 127.424 127.049 127.004 133.056 132.758 132.389 
132.092 131.739 131.443 131.054 130.698 130.272 129.864 129.493 129.067 
128.795 128.348 128.174 127.74 127.664 127.303 127.277 138.23 137.806 
137.92 137.677 137.258 137.453 137.246 137.355 137.049 136.62 136.869 
136.707 136.89 136.611 136.66 136.257 135.984 136.219 136.074 136.313 
136.08 136.195 135.811 135.824 135.427 135.459 135.623 135.449 135.664 
135.436 135.612 135.251 135.335 134.924 135.003 134.672 135.033 135.152 
134.927 135.061 134.77 134.93 134.558 134.703 134.284 134.421 134.037 
134.209 133.87 134.568 134.711 134.431 134.528 134.139 134.248 133.833 
133.984 133.596 133.752 133.38 133.529 133.16 133.33 132.952 134.01 
134.178 133.856 133.965 133.526 133.603 133.165 133.287 132.953 133.111 
132.832 132.945 132.627 132.692 132.33 132.42 132.056 133.443 133.584 
133.256 133.358 132.961 133.018 132.634 132.704 132.416 132.543 132.335 
132.466 132.233 132.28 131.965 131.949 131.6 131.617 131.3 138.547 
138.898 138.521 138.09 139.131 138.819 138.324 137.972 137.493 139.152 
138.952 138.469 138.153 137.614 137.305 136.822 139.049 138.898 138.452 
138.223 137.715 137.422 136.922 136.631 136.194 138.921 138.771 138.331 
138.163 137.738 137.52 137.096 136.791 136.352 136.045 135.672 138.78 
138.629 138.195 138.046 137.685 137.546 137.216 136.985 136.563 136.235 
135.789 135.533 135.202 138.659 138.496 138.071 137.92 137.566 137.479 
137.172 137.048 136.625 136.371 135.839 135.586 135.145 135.017 134.704 
138.566 138.399 137.961 137.796 137.4 137.32 136.983 136.922 136.499 
136.326 135.772 135.539 135.029 134.888 134.53 134.474 134.168 138.463 
138.311 137.864 137.682 137.25 137.133 136.775 136.704 136.325 136.181 
135.707 135.473 135.002 134.792 134.433 134.312 134.03 133.943 133.643 
138.261 137.764 137.898 137.654 137.331 137.423 137.173 137.27 137.049 
136.919 137.032 136.801 136.851 136.613 136.715 136.558 136.384 136.576 
136.347 136.46 136.185 136.289 136.065 136.233 136.071 135.717 135.957 
135.685 135.882 135.564 135.754 135.492 135.7 135.489 135.691 135.472 
134.923 135.213 134.917 135.148 134.817 135.036 134.793 135.059 134.903 
135.124 134.926 135.072 134.836 134.019 134.343 134.079 134.363 134.093 
134.317 134.107 134.365 134.263 134.535 134.41 134.58 134.365 134.477 
134.283 133.196 133.456 133.232 133.531 133.342 133.62 133.452 133.716 
133.587 133.877 133.749 134.01 133.816 134.001 133.791 133.962 133.829 
132.569 132.739 132.522 132.754 132.586 132.875 132.731 133.029 132.867 
133.16 132.974 133.272 133.073 133.355 133.157 133.408 133.251 133.501 
133.403 132.187 131.542 131.947 132.111 130.822 131.26 131.445 131.892 
132.135 130.138 130.543 130.737 131.202 131.47 131.956 132.263 129.522 
129.903 130.102 130.531 130.81 131.284 131.592 132.085 132.39 128.892 
129.296 129.512 129.938 130.22 130.663 130.949 131.404 131.682 132.176 
132.466 128.357 128.71 128.953 129.353 129.641 130.083 130.369 130.792 
131.051 131.486 131.769 132.256 132.565 128.052 128.314 128.582 128.869 
129.143 129.515 129.809 130.221 130.502 130.908 131.201 131.626 131.951 
132.402 132.713 127.815 128.076 128.328 128.573 128.803 129.086 129.347 
129.698 129.996 130.387 130.71 131.116 131.451 131.86 132.185 132.587 
132.874 127.467 127.757 127.929 128.239 128.408 128.727 128.94 129.277 
129.558 129.926 130.269 130.661 131.02 131.404 131.733 132.106 132.408 
132.775 133.053 132.126 131.783 131.8 131.457 131.396 131.407 131.048 
131.081 130.728 131.085 131.025 130.643 130.655 130.315 130.355 130.044 
130.824 130.729 130.269 130.242 129.861 129.922 129.604 129.686 129.399 
130.502 130.431 129.912 129.844 129.364 129.408 129.026 129.161 128.828 
128.984 128.704 130.207 130.119 129.673 129.537 129.069 128.964 128.543 
128.562 128.197 128.328 128.031 128.252 128.088 130.074 129.924 129.566 
129.403 129.04 128.841 128.483 128.29 127.928 127.816 127.495 127.579 
127.421 127.709 127.716 130.074 129.869 129.461 129.308 128.924 128.819 
128.504 128.367 128.045 127.8 127.425 127.233 126.98 127.085 127.07 
127.414 127.488 130.129 129.883 129.384 129.167 128.673 128.583 128.234 
128.261 128.023 127.944 127.621 127.347 126.991 126.817 126.676 126.825 
126.884 127.204 127.24 132.487 133.024 132.556 132.178 133.726 133.151 
132.727 132.221 131.816 134.57 133.919 133.457 132.839 132.408 131.889 
131.529 135.487 134.815 134.36 133.653 133.184 132.557 132.169 131.66 
131.31 136.391 135.751 135.322 134.603 134.109 133.398 132.941 132.34 
131.931 131.411 130.995 137.148 136.595 136.149 135.517 135.007 134.318 
133.809 133.144 132.666 132.054 131.58 131.041 130.636 137.658 137.217 
136.741 136.226 135.72 135.133 134.627 133.993 133.499 132.838 132.339 
131.692 131.256 130.739 130.46 137.955 137.602 137.154 136.733 136.293 
135.794 135.347 134.767 134.294 133.661 133.17 132.509 132.055 131.448 
131.137 130.666 130.486 138.145 137.848 137.46 137.119 136.767 136.362 
135.989 135.473 135.013 134.413 133.91 133.299 132.837 132.254 131.901 
131.391 131.17 130.736 130.57 138.107 137.86 137.81 137.461 137.572 
137.548 137.22 137.183 136.83 137.228 137.201 136.831 136.873 136.528 
136.522 136.087 136.953 136.846 136.366 136.377 135.959 136.068 135.618 
135.643 135.085 136.715 136.594 136.052 135.931 135.419 135.436 134.975 
135.048 134.525 134.537 133.961 136.313 136.291 135.787 135.668 135.17 
135.042 134.61 134.526 134.089 134.015 133.521 133.456 132.943 135.846 
135.843 135.419 135.385 134.99 134.894 134.526 134.371 133.977 133.778 
133.322 133.139 132.668 132.537 132.079 135.57 135.48 135.12 135.062 
134.728 134.691 134.348 134.28 133.865 133.717 133.212 133.015 132.502 
132.337 131.888 131.761 131.362 135.46 135.331 134.986 134.864 134.5 
134.423 134.027 133.989 133.53 133.474 132.942 132.827 132.281 132.152 
131.682 131.582 131.193 131.1 130.742 135.278 134.711 134.95 134.786 
133.955 134.271 134.115 134.391 134.227 133.26 133.506 133.325 133.618 
133.436 133.77 133.645 132.682 132.881 132.672 132.869 132.65 132.923 
132.761 133.15 133.072 131.997 132.262 132.041 132.252 132.007 132.207 
132.002 132.282 132.156 132.557 132.483 131.255 131.515 131.291 131.553 
131.301 131.543 131.311 131.569 131.393 131.699 131.579 131.961 131.873 
130.616 130.819 130.611 130.824 130.577 130.793 130.534 130.809 130.614 
130.939 130.797 131.129 131.029 131.39 131.328 129.998 130.208 130.017 
130.218 129.989 130.136 129.851 130.033 129.819 130.124 130.012 130.359 
130.271 130.608 130.545 130.903 130.868 129.38 129.588 129.416 129.636 
129.438 129.591 129.313 129.426 129.199 129.409 129.325 129.622 129.565 
129.867 129.779 130.12 130.061 130.452 130.419 130.028 129.609 129.608 
129.21 129.332 129.221 128.746 128.736 128.415 129.222 129.078 128.659 
128.439 128.078 128.065 127.973 129.052 129.007 128.75 128.547 128.242 
127.993 127.842 127.835 127.858 128.866 128.804 128.583 128.574 128.362 
128.232 128.007 127.865 127.717 127.717 127.558 128.917 128.698 128.383 
128.33 128.112 128.152 127.929 127.913 127.63 127.576 127.267 127.249 
126.956 129.064 128.822 128.49 128.27 128.014 127.909 127.701 127.681 
127.435 127.399 127.093 127.015 126.745 126.703 126.598 129.067 128.914 
128.634 128.452 128.22 128.002 127.772 127.577 127.35 127.227 127.019 
126.92 126.749 126.652 126.604 126.591 126.728 129.01 128.868 128.589 
128.508 128.285 128.18 127.924 127.735 127.452 127.262 127.061 126.94 
126.837 126.746 126.708 126.663 126.731 126.809 127.001 140.903 140.367 
140.649 140.717 139.858 140.107 140.181 140.509 140.721 139.395 139.654 
139.773 140.052 140.298 140.639 140.921 138.854 139.193 139.38 139.702 
139.948 140.265 140.487 140.803 140.917 138.258 138.631 138.812 139.223 
139.415 139.818 139.922 140.274 140.253 140.582 140.503 137.661 138.03 
138.152 138.561 138.652 139.095 139.109 139.533 139.445 139.813 139.684 
140.045 139.95 137.01 137.383 137.453 137.853 137.893 138.283 138.267 
138.65 138.592 138.963 138.881 139.234 139.159 139.515 139.456 136.344 
136.672 136.671 137.079 137.115 137.529 137.545 137.893 137.858 138.175 
138.127 138.463 138.415 138.759 138.702 139.043 138.976 135.774 136.012 
135.936 136.268 136.268 136.707 136.756 137.18 137.161 137.492 137.405 
137.724 137.653 138.008 137.953 138.302 138.233 138.564 138.488 141.143 
141.015 141.187 141.304 141.055 141.141 141.3 141.291 141.219 141.226 
141.277 141.438 141.374 141.319 141.173 141.05 141.199 141.388 141.517 
141.515 141.431 141.299 141.14 141.037 140.963 140.835 141.195 141.366 
141.499 141.4 141.334 141.112 141.05 140.877 140.892 140.741 140.318 
140.745 141.022 141.283 141.294 141.278 141.054 140.953 140.707 140.692 
140.456 140.49 140.217 139.79 140.216 140.518 140.897 141.032 141.167 
141.033 140.935 140.659 140.531 140.244 140.184 139.905 139.904 139.656 
139.271 139.673 139.917 140.337 140.479 140.795 140.73 140.832 140.568 
140.493 140.144 140.023 139.7 139.641 139.398 139.414 139.235 138.766 
139.137 139.342 139.72 139.822 140.162 140.101 140.353 140.128 140.24 
139.889 139.868 139.487 139.439 139.137 139.154 138.942 139.006 138.811 
141.273 141.354 141.368 141.339 141.176 141.298 141.296 141.324 141.182 
140.997 141.076 141.14 141.238 141.229 141.145 140.929 140.979 141.001 
141.121 141.181 141.323 141.274 141.201 140.94 140.687 140.793 140.961 
141.068 141.206 141.344 141.4 141.392 141.243 141.033 140.738 140.491 
140.243 140.569 140.621 140.952 140.993 141.245 141.149 141.239 141.006 
140.949 140.692 140.529 140.295 139.661 139.935 139.948 140.308 140.318 
140.672 140.547 140.772 140.517 140.661 140.436 140.524 140.319 140.252 
139.973 139.239 139.424 139.396 139.646 139.632 139.944 139.873 140.123 
139.939 140.109 139.933 140.117 139.991 140.106 139.879 139.813 139.465 
138.804 139.004 138.919 139.126 139.033 139.288 139.198 139.47 139.343 
139.562 139.417 139.618 139.504 139.694 139.521 139.592 139.282 139.22 
138.862 132.762 133.414 133.149 133.343 134.259 133.913 134.151 133.845 
134.101 135.17 134.829 135.085 134.752 135.04 134.695 134.971 135.935 
135.678 135.931 135.679 135.978 135.672 135.949 135.592 135.863 136.556 
136.347 136.571 136.412 136.729 136.548 136.849 136.556 136.819 136.483 
136.748 137.096 136.924 137.127 136.983 137.291 137.197 137.541 137.374 
137.661 137.399 137.661 137.346 137.542 137.562 137.439 137.668 137.528 
137.822 137.73 138.083 137.988 138.305 138.145 138.41 138.188 138.382 
138.051 138.098 138.023 137.914 138.18 138.057 138.359 138.265 138.628 
138.538 138.885 138.747 139.026 138.85 139.05 138.804 138.861 138.485 
138.397 138.495 138.391 138.643 138.541 138.823 138.763 139.125 139.084 
139.467 139.357 139.667 139.474 139.683 139.435 139.514 139.185 139.115 
138.703 138.558 
POINT_DATA 1002
SCALARS Distance double
LOOKUP_TABLE default
135.122 135.579 135.701 135.123 135.708 134.417 135.067 135.692 134.351 
133.646 135.076 135.736 134.347 133.639 133.063 135.145 135.797 134.443 
133.702 133.057 132.476 135.191 135.839 134.512 133.787 133.045 132.365 
131.717 135.222 135.863 134.508 133.806 133.077 132.334 131.639 131.021 
135.252 135.857 134.523 133.797 133.118 132.398 131.686 131.015 130.419 
135.265 135.843 134.576 133.839 133.156 132.438 131.699 131.025 130.364 
129.78 135.275 135.855 134.627 133.912 133.22 132.484 131.661 130.936 
130.306 129.679 129.175 136.077 136.207 136.666 136.767 137.306 136.251 
137.387 137.894 136.878 136.323 138.019 138.47 137.579 137.055 136.422 
138.713 139.082 138.282 137.77 137.142 136.46 139.416 139.62 138.988 
138.401 137.783 137.123 136.462 139.979 140.1 139.611 138.992 138.366 
137.776 137.118 136.452 140.463 140.636 140.095 139.515 138.901 138.366 
137.797 137.119 136.439 140.928 141.128 140.532 139.983 139.387 138.816 
138.3 137.767 137.131 136.46 141.337 141.024 141.271 140.869 140.986 
140.514 140.524 140.642 140.385 139.941 140.169 140.4 140.151 139.85 
139.286 139.994 140.28 139.97 139.767 139.151 138.632 139.861 140.09 
139.869 139.844 139.281 138.583 138.162 139.512 139.677 139.558 139.761 
139.544 138.863 138.226 137.692 138.991 139.108 139.002 139.225 139.297 
138.906 138.283 137.654 137.022 138.472 138.536 138.441 138.52 138.573 
138.356 137.896 137.368 136.819 136.287 135.49 135.872 135.048 136.289 
135.362 134.513 136.711 135.673 134.772 133.865 137.167 136.054 135.073 
134.069 133.182 137.579 136.51 135.52 134.434 133.398 132.644 137.798 
136.868 135.951 134.985 133.908 132.98 132.237 137.873 137.08 136.181 
135.382 134.541 133.572 132.63 131.781 137.938 137.27 136.388 135.558 
134.898 134.118 133.126 132.138 131.305 137.994 137.432 136.686 135.818 
135.075 134.394 133.532 132.554 131.681 130.982 134.835 134.307 134.098 
133.696 133.502 133.351 133.047 132.883 132.733 132.594 132.447 132.267 
132.083 131.869 131.681 131.905 131.613 131.362 131.116 130.858 130.781 
131.366 130.958 130.595 130.317 130.086 129.973 130.08 130.862 130.435 
130.029 129.648 129.319 129.159 129.231 129.439 130.495 130.063 129.716 
129.349 128.84 128.399 128.343 128.584 128.88 130.477 129.881 129.89 
129.145 129.129 129.446 128.322 128.407 128.763 129.199 127.716 127.882 
128.103 128.644 128.768 127.322 127.337 127.653 128.092 128.117 128.025 
126.903 126.826 127.277 127.63 127.579 127.361 127.607 126.646 126.727 
126.919 127.219 127.262 127.167 127.308 127.838 126.71 126.99 126.754 
126.929 127.054 127.232 127.524 127.86 128.291 126.842 127.219 126.71 
126.779 126.912 127.185 127.658 128.083 128.348 128.668 131.238 130.828 
131.628 131.235 131.982 130.259 131.477 132.142 130.598 129.525 131.598 
132.184 130.766 129.856 128.865 131.787 132.301 131.029 130.064 129.18 
128.219 132.003 132.556 131.42 130.462 129.422 128.472 127.501 132.197 
132.873 131.656 130.901 129.867 128.866 127.924 127.126 132.434 133.145 
131.806 131.151 130.306 129.413 128.596 127.852 127.297 132.696 133.327 
132.037 131.374 130.637 129.873 129.193 128.598 128.074 127.623 138.162 
137.607 137.649 137.103 137.022 137.029 136.482 136.359 136.539 136.267 
135.82 135.776 135.921 135.78 135.388 135.275 135.329 135.253 135.135 
134.838 134.547 134.852 134.918 134.656 134.403 134.138 133.878 133.686 
134.364 134.422 134.077 133.685 133.412 133.24 133.022 132.772 133.75 
133.858 133.454 133.047 132.764 132.682 132.575 132.285 131.934 138.943 
138.459 139.293 138.705 139.398 137.808 138.754 139.307 137.948 137.087 
138.635 139.207 137.968 137.23 136.448 138.475 139.083 137.887 137.362 
136.697 135.911 138.332 138.926 137.779 137.392 136.897 136.098 135.361 
138.231 138.819 137.653 137.27 136.859 136.121 135.3 134.775 138.148 
138.733 137.506 137.043 136.641 135.999 135.199 134.591 134.225 138.053 