# vtk DataFile Version 4.0
vtk output
ASCII
DATASET POLYDATA
POINTS 1002 float
-79.1552 -103.554 57.1092 -79.1346 -103.418 58.3197 -79.6406 -103.54 57.7431 
-79.706 -103.622 56.5602 -80.2658 -103.67 57.0967 -79.1784 -103.551 56.0713 
-80.2765 -103.492 56.1906 -80.8346 -103.509 56.6756 -79.6931 -103.405 55.759 
-79.148 -103.334 55.2254 -80.7494 -103.111 56.0215 -81.2034 -103.05 56.5006 
-80.1842 -103.078 55.5842 -79.6082 -103.042 55.024 -79.0408 -103.036 54.3661 
-81.2494 -102.821 55.6516 -81.6456 -102.727 56.1352 -80.7615 -102.858 55.1545 
-80.1493 -102.796 54.6369 -79.5353 -102.767 54.0377 -78.9395 -102.753 53.4844 
-81.9612 -102.76 54.9479 -82.4499 -102.719 55.4111 -81.5175 -102.844 54.3846 
-80.9233 -102.803 53.8596 -80.2054 -102.649 53.4365 -79.5363 -102.584 53.0186 
-78.931 -102.532 52.6065 -82.7092 -102.642 54.354 -83.323 -102.77 54.7637 
-82.1976 -102.618 53.837 -81.69 -102.682 53.2643 -81.0194 -102.619 52.8054 
-80.2516 -102.454 52.4655 -79.5528 -102.358 52.1378 -78.9613 -102.234 51.8175 
-83.3057 -102.429 54.0319 -83.8905 -102.658 54.4489 -82.7316 -102.218 53.5802 
-82.2004 -102.23 53.0899 -81.6482 -102.367 52.5516 -80.9909 -102.31 52.0506 
-80.218 -102.076 51.7033 -79.4972 -101.872 51.4859 -78.9397 -101.67 51.313 
-83.777 -102.195 53.746 -84.1663 -102.31 54.2729 -83.3565 -102.035 53.1745 
-82.7969 -101.944 52.7327 -82.1178 -102.01 52.3415 -81.5197 -102.054 51.8127 
-80.9067 -101.824 51.3443 -80.1196 -101.464 51.1469 -79.3781 -101.21 51.0663 
-78.8591 -101.028 50.9458 -84.0728 -101.82 53.4606 -84.2783 -101.774 54.0731 
-83.9141 -101.889 52.7047 -83.5324 -101.891 52.1428 -82.7276 -101.779 51.9073 
-81.8851 -101.658 51.6118 -81.3572 -101.498 51.1297 -80.795 -101.191 50.8267 
-79.9786 -100.882 50.7394 -79.2337 -100.707 50.6157 -78.7562 -100.601 50.4155 
-79.4143 -103.387 59.2117 -79.9576 -103.492 58.639 -79.7309 -103.546 59.9119 
-80.2503 -103.506 59.4334 -80.1133 -103.913 60.2943 -80.6417 -103.63 57.8924 
-80.5593 -103.612 59.9294 -80.5756 -104.304 60.6628 -80.9398 -103.504 58.6599 
-81.2262 -103.446 57.3345 -80.9591 -103.743 60.3374 -80.9775 -104.438 61.2852 
-81.2492 -103.399 59.1822 -81.567 -103.308 57.9969 -81.5743 -102.975 57.0625 
-81.3516 -103.746 60.8558 -81.1562 -104.185 61.8612 -81.6767 -103.391 59.6033 
-81.9821 -103.233 58.5079 -82.0274 -102.938 57.6163 -82.135 -102.686 56.5882 
-81.6173 -103.548 61.2852 -81.2759 -103.722 62.1219 -82.0887 -103.364 60.086 
-82.4755 -103.212 58.9474 -82.5803 -102.927 58.0641 -82.7503 -102.683 57.0137 
-83.1345 -102.744 55.7567 -81.8876 -103.25 61.5225 -81.6032 -103.292 62.2357 
-82.3652 -103.213 60.5502 -82.8739 -103.11 59.441 -83.1029 -102.841 58.4421 
-83.2893 -102.609 57.3751 -83.7312 -102.703 56.1244 -84.0172 -102.847 55.0949 
-82.253 -102.929 61.6564 -82.0489 -102.915 62.3217 -82.6175 -102.972 60.893 
-83.1571 -102.927 59.9731 -83.5378 -102.693 58.9213 -83.6934 -102.45 57.7605 
-84.0186 -102.499 56.5355 -84.4087 -102.706 55.4966 -84.4217 -102.653 54.8161 
-82.5591 -102.57 61.6782 -82.341 -102.527 62.2983 -82.8867 -102.663 61.0438 
-83.4205 -102.706 60.3682 -83.9203 -102.564 59.4886 -84.0862 -102.31 58.3221 
-84.1689 -102.206 57.0645 -84.4595 -102.31 55.9903 -84.6601 -102.345 55.2161 
-84.5275 -102.118 54.6473 -82.5847 -102.133 61.7386 -82.9753 -102.214 61.1301 
-82.9078 -101.666 61.0895 -83.5777 -101.736 60.6096 -83.5435 -101.009 60.6382 
-83.5546 -102.347 60.5944 -84.2548 -101.096 60.2769 -84.2044 -100.303 60.3869 
-84.2864 -101.901 60.1818 -84.1891 -102.384 59.9833 -84.6217 -100.447 59.8044 
-84.4445 -99.8732 59.7599 -84.7111 -101.269 59.6834 -84.7021 -101.928 59.4496 
-84.4735 -102.202 58.9736 -84.7296 -99.9138 58.8245 -84.4201 -99.5941 58.6326 
-84.8688 -100.503 58.8494 -84.8395 -101.218 58.6367 -84.6724 -101.671 58.2414 
-84.4033 -101.933 57.6559 -84.7886 -99.426 57.7791 -84.449 -99.1289 57.7195 
-85.0845 -99.8013 57.8894 -85.1039 -100.417 57.7465 -84.8724 -100.938 57.4177 
-84.6098 -101.313 56.9873 -84.4789 -101.793 56.4638 -84.754 -98.929 57.1376 
-84.5396 -98.5266 57.3032 -85.1412 -99.2627 57.1417 -85.4485 -99.7985 57.04 
-85.368 -100.34 56.7379 -85.0297 -100.669 56.362 -84.7847 -101.101 55.9453 
-84.7123 -101.754 55.5402 -84.7517 -98.3828 56.7073 -84.6438 -97.9373 56.99 
-85.0289 -98.7177 56.5177 -85.4663 -99.1886 56.3494 -85.6878 -99.8001 56.093 
-85.4681 -100.229 55.7443 -85.1053 -100.536 55.3542 -84.8655 -101.013 55.0288 
-84.7067 -101.612 54.819 -84.8627 -97.7843 56.2516 -84.7016 -97.397 56.5464 
-85.0664 -98.0686 55.9357 -85.3986 -98.4237 55.6312 -85.6825 -98.9953 55.3546 
-85.608 -99.6063 55.0721 -85.2536 -100.074 54.7375 -84.9141 -100.461 54.445 
-84.6603 -100.875 54.3018 -84.4573 -101.338 54.2173 -84.1751 -101.209 53.504 
-84.2839 -100.737 53.7075 -83.9878 -100.637 52.9899 -84.5341 -100.37 53.7868 
-84.1333 -100.194 53.2575 -83.72 -100.067 52.5924 -84.8682 -99.9653 53.8955 
-84.5333 -99.8494 53.3115 -84.1264 -99.7141 52.7043 -83.5573 -99.5929 52.0434 
-85.2322 -99.3712 54.1494 -84.8719 -99.2766 53.4023 -84.6109 -99.2811 52.6714 
-84.1072 -99.254 51.9203 -83.4491 -99.1477 51.373 -85.5366 -98.6897 54.4479 
-85.0729 -98.5529 53.6893 -84.6903 -98.5833 52.8467 -84.355 -98.6256 51.9143 
-83.7646 -98.6043 51.3035 -83.1408 -98.4746 50.9495 -85.5669 -98.0698 54.7596 
-85.2322 -97.9661 54.0544 -84.6187 -97.9924 53.2614 -84.2426 -97.8603 52.1939 
-83.8796 -97.7706 51.3628 -83.2893 -97.7752 50.997 -82.7089 -97.6794 50.6395 
-85.3453 -97.6362 55.134 -85.2246 -97.4901 54.4234 -84.6363 -97.5863 53.6788 
-84.2097 -97.3526 52.6288 -84.0256 -96.9599 51.6032 -83.5728 -96.9587 51.0179 
-82.9082 -97.0818 50.6325 -82.3264 -97.0295 50.1546 -85.0649 -97.3872 55.519 
-84.9921 -97.1435 54.7899 -84.5092 -97.1925 54.0216 -84.139 -97.0436 53.0433 
-84.1114 -96.5124 52.0287 -83.8199 -96.2735 51.284 -83.1304 -96.4524 50.7165 
-82.4811 -96.5471 50.1413 -82.0046 -96.4865 49.6243 -84.7785 -97.1403 55.8491 
-84.6419 -96.9435 55.1275 -84.1829 -96.9325 54.3542 -83.8022 -96.8523 53.4381 
-83.8205 -96.4192 52.5209 -83.6959 -96.0181 51.7928 -83.0719 -96.0036 51.1212 
-82.424 -96.073 50.3725 -82.0452 -96.0041 49.6883 -81.7633 -95.9528 49.2163 
-84.0985 -101.378 52.7111 -83.8305 -100.787 52.2342 -83.9866 -101.572 51.9217 
-83.3154 -100.062 52.0271 -83.4944 -100.836 51.7327 -83.3734 -101.49 51.6 
-83.0461 -99.5175 51.5483 -82.842 -99.9689 51.6831 -82.6902 -100.553 51.6086 
-82.3077 -101.148 51.5129 -82.973 -99.0359 50.8407 -82.6994 -99.5197 50.923 
-82.2643 -99.8466 51.1648 -81.8101 -100.262 51.2055 -81.5502 -100.916 51.0914 
-82.6447 -98.2689 50.3629 -82.6266 -99.048 49.9871 -82.3089 -99.6361 49.9625 
-81.7299 -99.8899 50.2705 -81.3489 -100.269 50.4858 -81.1545 -100.8 50.6033 
-82.1456 -97.4527 49.9949 -82.1321 -98.1871 49.6148 -82.0527 -99.066 49.2633 
-81.6379 -99.6095 49.3334 -81.1515 -99.9199 49.7079 -80.8372 -100.3 50.0595 
-80.4692 -100.625 50.3831 -81.7531 -96.8469 49.5495 -81.5656 -97.3941 49.4518 
-81.4559 -98.152 49.2789 -81.1757 -98.838 49.1905 -80.6971 -99.3161 49.3096 
-80.2848 -99.7855 49.5238 -79.9437 -100.213 49.7858 -79.5644 -100.473 50.1721 
-81.5159 -96.3494 49.1275 -81.2248 -96.8555 49.1321 -80.9996 -97.4568 49.1564 
-80.7284 -98.0601 49.1604 -80.2794 -98.5754 49.1685 -79.8006 -99.1061 49.1701 
-79.4389 -99.7021 49.1823 -79.1478 -100.164 49.3831 -78.9136 -100.407 49.8586 
-81.4527 -95.6827 48.7936 -81.1226 -96.2151 48.7129 -81.037 -95.4861 48.3483 
-80.6828 -96.068 48.2213 -80.4768 -95.2566 47.9607 -80.796 -96.8121 48.6873 
-80.16 -95.8572 47.9402 -79.8725 -95.0811 48.0101 -80.3254 -96.6827 48.1122 
-80.4928 -97.4241 48.6744 -79.5636 -95.8137 48.2801 -79.2867 -95.2093 48.5136 
-79.718 -96.5117 47.9484 -79.929 -97.3821 48.0368 -80.0916 -98.0256 48.6837 
-78.9161 -96.0258 48.7451 -78.6248 -95.4727 48.8528 -79.0047 -96.4815 48.3602 
-79.2396 -97.3147 47.9286 -79.5376 -98.1562 48.105 -79.6205 -98.6111 48.724 
-78.1339 -96.1895 48.7053 -77.76 -95.5403 48.8097 -78.2363 -96.5872 48.4866 
-78.3911 -97.2319 48.1233 -78.8701 -98.2234 47.987 -79.1859 -98.882 48.2779 
-79.2112 -99.2502 48.714 -77.2229 -96.1994 48.5978 -76.8162 -95.533 48.7898 
-77.4286 -96.6955 48.2956 -77.4603 -97.2446 47.9513 -77.8271 -98.1795 47.872 
-78.4709 -99.0719 48.1019 -78.7943 -99.5497 48.3703 -78.8789 -99.8676 48.7532 
-76.4902 -96.2529 48.8898 -76.1538 -95.7005 49.0416 -76.7795 -96.7694 48.5686 
-76.7978 -97.3367 48.0328 -76.8277 -98.1895 47.6946 -77.3239 -99.1366 47.8757 
-78.0098 -99.7482 48.2342 -78.4124 -100.044 48.5709 -78.629 -100.238 49.1297 
-76.1579 -96.452 49.4189 -75.9292 -96.0413 49.5202 -76.4415 -96.867 49.2379 
-76.5643 -97.3975 48.7764 -76.4716 -98.1943 48.1925 -76.5453 -99.1153 47.9755 
-77.0453 -99.7757 48.2273 -77.682 -100.075 48.6418 -78.1489 -100.226 49.1573 
-78.467 -100.386 49.8076 -81.7218 -95.4001 49.1343 -81.4586 -95.048 48.657 
-81.6236 -94.8873 49.1476 -81.3262 -94.4636 48.6881 -81.4908 -94.4419 49.4184 
-80.9047 -94.7675 48.199 -81.0466 -93.9933 49.1465 -81.3039 -94.0294 50.1234 
-80.5573 -94.1093 48.3159 -80.1248 -94.4451 47.9146 -80.7374 -93.7274 50.0187 
-81.01 -93.8341 50.9812 -80.2126 -93.7476 48.8859 -79.657 -93.797 48.1176 
-79.413 -94.2935 48.1119 -80.3678 -93.7459 50.8505 -80.5698 -94.0087 51.566 
-80.0163 -93.7315 49.8044 -79.4077 -93.7017 48.6927 -78.9316 -93.8035 48.3199 
-78.7834 -94.512 48.6146 -79.7965 -93.9631 51.4134 -80.0517 -94.2993 52.0011 
-79.6113 -93.7366 50.8064 -79.1758 -93.7927 49.7595 -78.5781 -93.8599 48.877 
-78.2238 -94.0867 48.7696 -78.0402 -94.744 48.9036 -79.2242 -94.2537 51.8992 
-79.609 -94.4491 52.5908 -78.9714 -93.8063 51.5783 -78.618 -93.5874 51.0467 
-78.0868 -93.7819 50.0159 -77.6863 -94.0049 49.2776 -77.4375 -94.2566 49.0762 
-77.1295 -94.801 48.935 -78.8821 -94.4738 52.5302 -79.27 -94.5081 53.2975 
-78.5533 -94.1468 52.0701 -78.1346 -93.6396 51.8519 -77.5789 -93.506 51.2164 
-77.1669 -93.7849 50.2336 -76.9372 -94.0575 49.5604 -76.6329 -94.3634 49.2198 
-76.2984 -94.9536 49.0271 -78.6574 -94.5338 53.3097 -78.954 -94.6185 53.9143 
-78.3676 -94.4285 52.6638 -77.9456 -94.0928 52.2653 -77.3582 -93.7147 51.8948 
[...]
CELL_DATA 2000
SCALARS Distance double
LOOKUP_TABLE default
141.603 141.755 141.522 141.216 141.856 141.656 141.308 141.102 140.752 
141.779 141.67 141.3 141.138 140.751 140.572 140.179 141.65 141.557 
141.252 141.103 140.733 140.543 140.146 139.961 139.567 141.696 141.522 
141.3 141.121 140.824 140.584 140.209 139.959 139.586 139.378 139.026 
141.892 141.65 141.376 141.2 140.915 140.718 140.369 140.099 139.711 
139.447 139.09 138.876 138.532 142.057 141.812 141.415 141.221 140.864 
140.735 140.407 140.239 139.863 139.606 139.184 138.932 138.525 138.338 
137.952 142.05 141.879 141.466 141.247 140.868 140.68 140.356 140.213 
139.88 139.699 139.276 139.017 138.533 138.292 137.842 137.688 137.294 
141.8 141.761 141.414 141.29 140.97 140.767 140.426 140.203 139.819 
139.639 139.219 139.037 138.567 138.322 137.84 137.602 137.182 137.029 
136.682 141.895 142.425 142.109 142.049 142.998 142.639 142.552 142.278 
142.183 143.592 143.17 143 142.741 142.626 142.342 142.123 144.178 
143.714 143.418 143.127 142.979 142.737 142.516 142.186 141.935 144.572 
144.216 143.863 143.53 143.35 143.091 142.916 142.584 142.355 142.036 
141.925 144.637 144.479 144.21 143.95 143.772 143.505 143.357 143.027 
142.843 142.504 142.425 142.166 142.178 144.575 144.504 144.367 144.231 
144.109 143.91 143.754 143.469 143.27 142.974 142.885 142.675 142.71 
142.472 142.431 144.569 144.505 144.43 144.364 144.312 144.193 144.07 
143.831 143.605 143.33 143.172 143.024 143.019 142.915 142.87 142.624 
142.42 144.513 144.5 144.418 144.413 144.402 144.368 144.327 144.148 
143.957 143.653 143.412 143.206 143.089 143.05 142.968 142.891 142.667 
142.442 142.11 144.347 144 144.229 144.313 143.695 143.937 144.152 
144.298 144.392 143.465 143.708 143.997 144.198 144.381 144.429 144.398 
143.109 143.427 143.653 143.979 144.146 144.347 144.288 144.292 144.029 
142.508 142.906 143.01 143.439 143.502 143.883 143.774 143.979 143.68 
143.727 143.414 141.814 142.201 142.279 142.69 142.735 143.117 143.027 
143.302 143.059 143.232 142.987 143.121 143.002 141.201 141.523 141.614 
141.983 142.101 142.443 142.47 142.672 142.533 142.644 142.471 142.641 
142.576 142.803 142.808 140.681 140.953 140.989 141.329 141.426 141.83 
141.925 142.224 142.158 142.265 142.078 142.173 142.049 142.282 142.242 
142.54 142.476 140.174 140.433 140.408 140.692 140.689 141.083 141.126 
141.563 141.522 141.818 141.619 141.773 141.55 141.731 141.587 141.865 
141.758 142.07 141.929 141.5 141.326 141.209 140.795 141.212 141.058 
140.661 140.515 140.105 141.182 140.987 140.624 140.451 140.079 139.878 
139.47 141.166 140.952 140.519 140.385 140.019 139.885 139.486 139.271 
138.837 141.021 140.863 140.333 140.203 139.745 139.695 139.252 139.177 
138.678 138.553 138.056 140.679 140.615 140.118 139.993 139.495 139.376 
138.858 138.784 138.246 138.214 137.687 137.654 137.142 140.32 140.268 
139.86 139.774 139.335 139.18 138.65 138.446 137.877 137.75 137.258 
137.225 136.778 136.727 136.254 140.083 139.999 139.62 139.533 139.117 
139.005 138.505 138.304 137.739 137.515 137.016 136.885 136.475 136.4 
135.975 135.88 135.435 139.865 139.8 139.413 139.317 138.882 138.769 
138.287 138.135 137.625 137.429 136.943 136.753 136.31 136.163 135.721 
135.608 135.158 135.079 134.682 141.443 140.786 141.143 141.154 140.058 
140.459 140.55 140.887 140.828 139.307 139.669 139.701 140.181 140.181 
140.491 140.291 138.642 138.914 138.817 139.242 139.185 139.643 139.457 
139.795 139.546 137.944 138.246 138.13 138.43 138.306 138.636 138.444 
138.807 138.608 139.009 138.861 137.052 137.451 137.368 137.744 137.649 
137.911 137.729 137.933 137.772 138.083 138.012 138.389 138.276 136.111 
136.494 136.375 136.849 136.789 137.212 137.073 137.328 137.137 137.378 
137.277 137.599 137.501 137.802 137.611 135.287 135.59 135.438 135.841 
135.783 136.257 136.172 136.565 136.363 136.681 136.481 136.836 136.681 
137.025 136.834 137.119 136.929 134.589 134.839 134.71 135.008 134.955 
135.328 135.286 135.656 135.513 135.827 135.619 135.956 135.789 136.159 
136.014 136.345 136.203 136.501 136.407 134.187 133.665 134.059 134.333 
133.085 133.533 133.841 134.246 134.571 132.526 132.949 133.277 133.721 
134.062 134.506 134.848 132.256 132.515 132.819 133.158 133.489 133.949 
134.293 134.749 135.043 132.183 132.38 132.611 132.79 133.044 133.405 
133.784 134.213 134.532 134.905 135.168 131.878 132.214 132.361 132.56 
132.673 132.978 133.328 133.774 134.185 134.513 134.788 135.068 135.353 
131.343 131.748 131.899 132.177 132.21 132.506 132.74 133.256 133.716 
134.2 134.554 134.813 135.051 135.309 135.6 131.006 131.279 131.544 
131.76 131.886 132.058 132.234 132.619 133.047 133.627 134.09 134.533 
134.815 135.073 135.3 135.568 135.84 131.099 131.18 131.543 131.634 
131.913 131.948 132.192 132.305 132.686 133.043 133.538 134.004 134.395 
134.763 135.017 135.296 135.539 135.815 136.084 134.005 133.552 133.662 
133.449 133.153 133.197 132.908 133.05 132.818 132.896 132.826 132.425 
132.464 132.123 132.336 132.18 132.836 132.651 132.211 132.055 131.603 
131.633 131.421 131.756 131.843 132.901 132.672 132.3 132.024 131.586 
131.322 131.009 131.079 131.135 131.564 131.779 132.957 132.743 132.391 
132.176 131.811 131.497 131.125 130.901 130.766 130.93 131.049 131.469 
131.538 133.019 132.79 132.405 132.22 131.85 131.655 131.263 131.046 
130.741 130.686 130.58 130.779 130.756 131.093 131.03 133.149 132.898 
132.551 132.287 131.922 131.67 131.278 131.066 130.723 130.616 130.398 
130.419 130.291 130.428 130.367 130.631 130.672 133.308 133.077 132.798 
132.523 132.215 131.877 131.518 131.171 130.845 130.609 130.406 130.303 
130.186 130.154 130.107 130.183 130.287 130.513 130.766 139.582 138.944 
139.231 139.127 138.319 138.58 138.478 138.737 138.588 137.753 137.99 
137.874 138.101 137.929 138.157 137.969 137.04 137.353 137.196 137.479 
137.287 137.509 137.288 137.52 137.327 136.156 136.501 136.28 136.663 
136.454 136.794 136.571 136.842 136.629 136.882 136.693 135.363 135.615 
135.373 135.694 135.48 135.858 135.653 136.026 135.8 136.132 135.901 
136.209 136.016 134.725 134.911 134.69 134.9 134.689 134.948 134.732 
135.059 134.825 135.192 134.931 135.308 135.074 135.475 135.326 134.138 
134.311 134.087 134.281 134.057 134.255 134.004 134.223 133.961 134.236 
133.987 134.315 134.101 134.482 134.348 134.792 134.736 133.621 133.75 
133.51 133.674 133.435 133.625 133.375 133.557 133.296 133.482 133.249 
133.48 133.312 133.605 133.516 133.878 133.87 134.284 134.309 139.724 
139.731 139.519 139.09 139.767 139.547 139.115 138.871 138.463 139.719 
139.576 139.176 138.934 138.505 138.279 137.898 139.518 139.444 139.068 
138.942 138.51 138.314 137.872 137.682 137.225 139.402 139.243 138.863 
138.763 138.359 138.232 137.771 137.607 137.111 136.919 136.39 139.448 
139.223 138.848 138.647 138.277 138.09 137.657 137.465 136.981 136.792 
136.291 136.082 135.596 139.399 139.252 138.882 138.702 138.338 138.114 
137.682 137.412 136.918 136.679 136.198 136 135.544 135.348 134.929 
139.219 139.122 138.747 138.653 138.286 138.151 137.716 137.471 136.937 
136.654 136.138 135.922 135.478 135.298 134.884 134.71 134.333 139.066 
138.94 138.56 138.464 138.108 138.023 137.633 137.46 136.957 136.679 
136.142 135.884 135.431 135.241 134.848 134.67 134.299 134.135 133.811 
138.87 138.345 138.522 138.338 137.725 137.957 137.801 138.005 137.871 
137.09 137.324 137.207 137.453 137.331 137.545 137.391 136.534 136.714 
136.57 136.829 136.702 136.957 136.756 136.976 136.714 135.994 136.165 
135.921 136.147 135.928 136.223 135.983 136.26 135.963 136.197 135.903 
135.327 135.559 135.262 135.454 135.128 135.376 135.101 135.412 135.163 
135.437 135.184 135.416 135.202 134.59 134.847 134.606 134.79 134.492 
134.638 134.384 134.599 134.431 134.684 134.516 134.742 134.555 134.783 
134.619 133.966 134.173 134.021 134.197 134.015 134.126 133.952 134.063 
133.931 134.084 133.938 134.117 133.931 134.143 133.967 134.215 134.072 
133.507 133.657 133.551 133.708 133.603 133.734 133.618 133.724 133.572 
133.668 133.451 133.568 133.328 133.513 133.328 133.571 133.448 133.701 
133.603 133.246 132.865 133.135 133.29 132.529 132.783 132.967 133.204 
133.36 132.322 132.531 132.734 132.916 133.057 133.264 133.39 132.179 
132.38 132.567 132.711 132.746 132.909 132.933 133.206 133.282 131.984 
132.175 132.276 132.467 132.371 132.506 132.335 132.599 132.561 132.972 
133.044 131.738 131.844 131.749 131.99 131.821 132.011 131.762 131.952 
131.836 132.182 132.269 132.721 132.887 131.456 131.457 131.14 131.326 
131.107 131.361 131.187 131.399 131.341 131.589 131.736 132.07 132.332 
132.698 132.954 131.146 131.075 130.655 130.719 130.483 130.686 130.595 
130.844 130.87 131.156 131.349 131.682 131.986 132.303 132.598 132.883 
133.134 130.926 130.782 130.396 130.341 130.156 130.234 130.217 130.376 
130.448 130.694 130.888 131.257 131.561 131.957 132.253 132.576 132.813 
133.085 133.301 133.173 132.977 132.949 132.752 132.932 132.776 132.502 
132.507 132.366 133.138 132.837 132.526 132.347 132.136 132.15 132.104 
133.527 133.169 132.912 132.57 132.324 132.069 131.906 131.927 131.944 
133.975 133.619 133.424 133.075 132.861 132.452 132.189 131.899 131.803 
131.827 131.872 134.457 134.088 133.856 133.547 133.336 132.999 132.728 
132.326 132.138 131.905 131.942 131.885 131.891 134.914 134.555 134.255 
133.924 133.673 133.393 133.169 132.842 132.647 132.345 132.326 132.156 
132.205 131.998 131.843 135.278 134.961 134.667 134.32 134.075 133.758 
133.588 133.278 133.12 132.817 132.718 132.53 132.521 132.366 132.249 
131.933 131.617 135.594 135.303 135.061 134.742 134.541 134.221 134.08 
133.763 133.619 133.285 133.116 132.853 132.741 132.597 132.493 132.299 
132.059 131.693 131.367 133.405 133.838 133.484 133.281 134.552 134.045 
133.872 133.462 133.315 135.521 134.88 134.701 134.201 134.106 133.631 
133.549 136.605 135.9 135.67 135.113 135.037 134.531 134.436 133.929 
133.877 137.718 137.011 136.757 136.121 135.999 135.471 135.346 134.817 
134.674 134.24 134.246 138.763 138.148 137.965 137.282 137.128 136.481 
136.302 135.694 135.492 135.001 134.947 134.627 134.724 139.662 139.178 
139.107 138.51 138.405 137.707 137.521 136.764 136.534 135.87 135.776 
135.346 135.43 135.13 135.221 140.481 140.074 140.083 139.6 139.55 
138.953 138.803 138.07 137.855 137.077 136.935 136.299 136.312 135.874 
135.937 135.585 135.595 141.269 140.912 140.958 140.536 140.49 139.987 
139.83 139.244 139.039 138.383 138.21 137.54 137.441 136.849 136.81 
136.336 136.307 135.919 135.893 141.718 142.259 141.822 141.42 142.602 
142.268 141.82 141.409 140.902 142.724 142.483 142.004 141.676 141.11 
140.747 140.178 142.733 142.538 142.082 141.79 141.222 140.87 140.291 
139.962 139.41 142.675 142.516 142.096 141.857 141.336 140.993 140.429 
140.079 139.565 139.224 138.68 142.532 142.41 141.973 141.818 141.338 
141.094 140.558 140.236 139.71 139.389 138.876 138.508 137.939 142.279 
142.205 141.748 141.637 141.17 141.025 140.535 140.311 139.787 139.507 
138.981 138.671 138.127 137.763 137.226 141.95 141.917 141.502 141.406 
140.964 140.839 140.388 140.229 139.753 139.534 139.037 138.763 138.255 
137.929 137.421 137.082 136.638 141.657 141.619 141.277 141.192 140.804 
140.671 140.251 140.094 139.657 139.476 139.025 138.805 138.344 138.068 
137.601 137.28 136.845 136.541 136.184 141.442 141.036 141.181 141.054 
140.574 140.743 140.58 140.745 140.58 140.01 140.225 140.046 140.232 
140.031 140.213 140.017 139.381 139.606 139.418 139.643 139.43 139.631 
139.405 139.608 139.405 138.792 138.959 138.716 138.95 138.724 138.978 
138.735 138.96 138.722 138.964 138.765 138.279 138.389 138.073 138.233 
137.971 138.229 137.997 138.249 137.987 138.235 138.007 138.296 138.095 
137.738 137.872 137.55 137.639 137.375 137.547 137.391 137.583 137.38 
137.531 137.29 137.518 137.319 137.607 137.39 137.122 137.302 137.024 
137.137 136.904 137.053 136.984 137.15 137.074 137.112 136.894 136.921 
136.698 136.869 136.679 136.912 136.687 136.519 136.694 136.447 136.596 
136.37 136.565 136.499 136.769 136.765 136.904 136.72 136.673 136.379 
136.379 136.15 136.279 136.086 136.261 136.062 135.695 135.726 135.535 
135.191 135.819 135.589 135.254 135.047 134.717 136.066 135.735 135.356 
135.105 134.765 134.583 134.267 136.403 136.042 135.561 135.206 134.766 
134.575 134.239 134.112 133.781 136.441 136.263 135.736 135.395 134.851 
134.577 134.187 134.039 133.709 133.578 133.247 136.143 136.089 135.605 
135.43 134.912 134.674 134.276 134.063 133.742 133.536 133.214 133.056 
132.813 135.968 135.807 135.378 135.229 134.798 134.656 134.289 134.147 
133.817 133.625 133.276 133.071 132.777 132.677 132.5 136.042 135.789 
135.405 135.155 134.783 134.575 134.21 134.067 133.686 133.579 133.18 
133.07 132.704 132.616 132.328 132.312 132.065 136.148 135.918 135.578 
135.318 135 134.714 134.363 134.067 133.632 133.394 132.944 132.837 
132.466 132.443 132.133 132.106 131.794 131.769 131.437 144.631 144.678 
144.727 144.82 144.696 144.734 144.83 144.867 144.904 144.859 144.847 
144.941 144.886 144.916 144.897 144.832 144.933 145.062 145.205 145.097 
145.079 144.953 144.88 144.777 144.564 144.566 144.965 145.149 145.26 
145.191 145.119 144.999 144.886 144.698 144.479 144.119 143.874 144.384 
144.55 144.916 144.82 144.984 144.81 144.897 144.731 144.644 144.324 
144.018 143.575 143.158 143.612 143.747 144.175 144.117 144.396 144.209 
144.459 144.304 144.489 144.249 144.171 143.756 143.466 143.024 142.51 
142.885 142.983 143.391 143.398 143.696 143.559 143.792 143.637 143.898 
143.733 143.898 143.604 143.541 143.134 142.907 142.502 141.94 142.239 
142.287 142.656 142.682 143.016 142.94 143.185 143.043 143.261 143.111 
143.321 143.129 143.247 142.962 142.913 142.544 142.36 141.971 144.539 
144.754 144.568 144.311 144.841 144.738 144.474 144.233 143.868 144.738 
144.74 144.467 144.304 143.886 143.69 143.323 144.382 144.501 144.228 
144.192 143.74 143.598 143.17 143.092 142.763 143.816 143.993 143.713 
143.829 143.41 143.358 142.882 142.837 142.477 142.481 142.14 143.217 
143.357 143.064 143.243 142.905 142.956 142.499 142.478 142.075 142.119 
141.796 141.813 141.45 142.7 142.785 142.505 142.645 142.387 142.468 
142.092 142.072 141.654 141.679 141.351 141.425 141.111 141.119 140.766 
142.217 142.299 142.034 142.156 141.945 142.037 141.745 141.718 141.321 
141.277 140.919 140.969 140.68 140.748 140.44 140.45 140.12 141.7 
141.804 141.527 141.675 141.464 141.612 141.361 141.402 141.036 140.982 
140.586 140.568 140.244 140.305 140.02 140.086 139.782 139.807 139.498 
144.331 144.051 144.1 143.887 143.639 143.744 143.522 143.616 143.486 
143.185 143.324 143.139 143.232 143.09 143.25 143.216 142.679 142.87 
142.701 142.831 142.672 142.839 142.772 142.99 142.919 142.053 142.309 
142.125 142.326 142.13 142.347 142.232 142.491 142.387 142.598 142.389 
141.359 141.634 141.468 141.702 141.512 141.739 141.592 141.867 141.741 
142.002 141.8 141.976 141.708 140.69 140.952 140.834 141.075 140.937 
141.141 140.987 141.211 141.071 141.326 141.16 141.373 141.159 141.317 
141.101 140.056 140.31 140.215 140.477 140.373 140.593 140.423 140.614 
140.438 140.671 140.532 140.766 140.614 140.794 140.625 140.774 140.603 
139.443 139.688 139.59 139.863 139.769 140.017 139.842 140.029 139.813 
140.031 139.895 140.163 140.061 140.279 140.127 140.294 140.118 140.278 
140.097 133.603 134.087 133.873 134.029 134.768 134.473 134.69 134.46 
134.776 135.562 135.261 135.538 135.262 135.659 135.402 135.821 136.244 
136.044 136.332 136.127 136.533 136.34 136.8 136.537 136.944 136.769 
136.65 136.945 136.827 137.174 137.085 137.507 137.415 137.837 137.628 
137.996 137.314 137.174 137.508 137.399 137.753 137.646 138.023 137.974 
138.41 138.365 138.767 138.608 138.944 137.964 137.786 138.14 138.003 
138.406 138.266 138.673 138.538 138.99 138.912 139.377 139.278 139.643 
139.469 139.771 138.609 138.46 138.803 138.661 139.042 138.924 139.339 
139.228 139.682 139.579 140.05 139.926 140.318 140.133 140.426 140.237 
140.535 139.141 139.057 139.389 139.284 139.611 139.51 139.858 139.805 
140.209 140.197 140.63 140.585 140.951 140.806 141.068 140.872 141.119 
140.97 141.273 
POINT_DATA 1002
SCALARS Distance double
LOOKUP_TABLE default
141.305 141.685 141.821 141.443 142.005 140.902 141.522 142.041 140.961 
140.395 141.447 141.85 140.932 140.362 139.783 141.377 141.725 140.932 
140.338 139.739 139.181 141.468 141.899 141.057 140.487 139.804 139.218 
138.681 141.587 142.192 141.077 140.614 140.01 139.322 138.731 138.184 
141.658 142.323 141.001 140.516 140.094 139.487 138.743 138.101 137.571 
141.658 142.169 141.082 140.524 140.03 139.518 138.824 138.034 137.393 
136.918 141.457 141.776 141.13 140.699 140.058 139.37 138.769 138.108 
137.379 136.776 136.351 142.184 142.327 142.765 142.827 143.401 142.507 
143.281 144.093 142.895 142.48 143.769 144.674 143.207 142.84 142.23 
144.207 144.836 143.616 143.228 142.683 142.155 144.396 144.683 144.029 
143.673 143.172 142.675 142.447 144.436 144.609 144.271 144.03 143.563 
143.077 142.907 142.779 144.471 144.629 144.387 144.28 143.903 143.352 
143.09 143.061 142.77 144.4 144.51 144.385 144.438 144.263 143.707 
143.179 143.001 142.844 142.387 144.132 144.155 143.713 143.946 143.429 
144.356 143.752 143.215 144.294 144.495 143.317 142.796 143.893 144.254 
144.119 142.606 142.123 143.109 143.505 143.565 143.358 141.876 141.444 
142.357 142.741 142.837 142.775 142.831 141.251 140.91 141.716 142.231 
142.442 142.323 142.319 142.58 140.697 140.437 141.02 141.543 142.001 
142.033 141.881 141.949 142.198 140.167 139.92 140.361 140.687 141.148 
141.42 141.406 141.364 141.451 141.626 141.097 140.903 140.386 140.822 
140.258 139.672 140.777 140.273 139.706 139.033 140.674 140.107 139.678 
139.076 138.404 140.496 139.829 139.3 138.779 138.182 137.584 140.203 
139.656 139 138.276 137.684 137.195 136.646 139.914 139.463 138.886 
138.064 137.292 136.798 136.341 135.777 139.723 139.224 138.667 137.963 
137.19 136.567 136.062 135.524 135.004 139.51 139.006 138.418 137.777 
137.135 136.503 135.862 135.24 134.71 134.331 140.876 140.118 140.657 
139.217 139.768 140.117 138.491 138.742 139.044 139.212 137.844 138.056 
138.122 138.168 138.446 136.926 137.335 137.559 137.51 137.638 137.952 
135.911 136.289 136.745 136.916 136.988 137.206 137.345 135.082 135.324 
135.739 136.034 136.14 136.316 136.523 136.633 134.431 134.619 134.924 
135.198 135.307 135.412 135.639 135.88 136.096 133.799 133.949 133.247 
133.403 132.606 134.171 132.838 132.136 133.591 134.425 132.573 132.06 
133.047 133.832 134.624 132.51 131.98 132.751 133.337 134.186 134.786 
132.153 131.504 132.421 132.848 133.801 134.569 135.009 131.589 130.94 
131.959 132.253 133.121 134.23 134.863 135.281 131.31 130.771 131.735 
131.966 132.487 133.535 134.507 135.077 135.544 131.46 131.068 131.858 
132.146 132.465 133.109 133.972 134.705 135.27 135.805 133.885 133.303 
133.468 132.821 133.173 132.603 132.487 133.031 131.968 131.8 132.437 
133.04 131.713 131.131 131.335 132.541 133.121 131.924 131.124 130.774 
131.299 132.567 133.183 132.064 131.447 130.808 130.719 131.131 132.62 
133.255 132.029 131.46 130.888 130.532 130.49 130.648 132.819 133.375 
132.214 131.524 130.854 130.431 130.235 130.149 130.308 133.038 133.513 
132.537 131.895 131.138 130.545 130.246 130.08 130.093 130.462 139.318 
138.866 138.648 138.229 138.083 138.342 137.659 137.518 137.735 137.714 
136.883 136.722 137.046 137.08 137.071 135.898 135.85 136.059 136.258 
136.377 136.441 135.097 135.142 135.125 135.258 135.443 135.58 135.685 
134.495 134.538 134.48 134.462 134.478 134.554 134.661 134.878 133.9 
133.976 133.869 133.823 133.729 133.678 133.733 133.91 134.259 139.935 
139.305 139.955 139.382 139.964 138.66 139.384 139.81 138.763 138.094 
139.138 139.606 138.683 138.086 137.436 138.985 139.616 138.468 137.929 
137.299 136.602 139.07 139.658 138.49 137.875 137.169 136.478 135.796 
139.03 139.51 138.548 137.978 137.194 136.391 135.728 135.108 138.828 
139.321 138.384 137.929 137.241 136.377 135.648 135.058 134.485 138.672 
139.205 138.183 137.758 137.212 136.42 135.63 135.018 134.468 133.944 