# vtk DataFile Version 4.0
vtk output
ASCII
DATASET POLYDATA
POINTS 1002 float
-79.6522 -105.032 58.4219 -79.7451 -105.037 59.3059 -80.4144 -105.081 58.8079 
-80.2976 -105.029 57.9906 -81.1475 -105.032 58.3119 -79.499 -105.004 57.6658 
-81.0108 -104.942 57.5282 -81.774 -104.95 57.8368 -80.0844 -104.989 57.1861 
-79.1973 -105.031 56.8102 -81.6849 -104.94 56.9271 -82.4228 -104.964 57.2875 
-80.7835 -104.969 56.5267 -79.7445 -105.08 56.0928 -78.8395 -105.064 55.7447 
-82.4179 -105.074 56.1622 -83.2589 -105.076 56.5906 -81.4965 -105.028 55.7558 
-80.4361 -105.074 55.3444 -79.4068 -105.046 55.0523 -78.6195 -104.767 54.9775 
-83.213 -105.125 55.4226 -83.9525 -105.021 55.9403 -82.181 -105.031 55.1235 
-81.0955 -104.885 54.8859 -80.0768 -104.769 54.6736 -79.2161 -104.474 54.6597 
-78.5305 -104.074 54.7249 -83.7366 -104.79 55.0128 -84.1465 -104.534 55.6132 
-82.7965 -104.764 54.7779 -81.6304 -104.485 54.7564 -80.6516 -104.239 54.5644 
-79.8352 -104.024 54.397 -79.1043 -103.719 54.4067 -78.4586 -103.481 54.3293 
-83.8105 -104.056 54.979 -84.071 -103.77 55.5386 -83.1486 -104.155 54.673 
-82.0928 -103.959 54.6651 -81.1404 -103.734 54.4173 -80.3883 -103.684 53.9036 
-79.6329 -103.572 53.6652 -78.9408 -103.35 53.6364 -78.3661 -103.203 53.4927 
-83.7157 -103.274 55.0177 -84.1072 -103.117 55.4109 -83.1794 -103.398 54.6418 
-82.3822 -103.38 54.4383 -81.594 -103.34 54.0992 -80.946 -103.515 53.361 
-80.1773 -103.672 52.7631 -79.3422 -103.486 52.6795 -78.7068 -103.163 52.7326 
-78.2294 -102.98 52.6454 -83.736 -102.71 54.8756 -84.2932 -102.701 55.1005 
-83.1415 -102.769 54.533 -82.5036 -102.866 54.1361 -81.9149 -102.995 53.6869 
-81.4198 -103.277 53.0034 -80.7618 -103.619 52.2717 -79.8455 -103.606 51.9828 
-79.0117 -103.206 52.0774 -78.4612 -102.83 52.136 -78.0407 -102.691 52.0405 
-80.2531 -105.039 59.9954 -81.0266 -105.067 59.398 -80.7537 -104.96 60.6747 
-81.545 -105.001 60.0051 -81.1263 -104.876 61.2065 -81.748 -105.032 58.7806 
-81.9976 -104.967 60.5641 -81.5887 -104.909 61.6508 -82.3082 -105.016 59.3281 
-82.3769 -104.951 58.2484 -82.582 -104.984 61.1142 -82.2508 -104.905 62.0768 
-82.9708 -105.086 59.9798 -83.1415 -104.996 58.7622 -83.1899 -104.956 57.7043 
-83.054 -104.772 61.5416 -82.6647 -104.546 62.3031 -83.5937 -105.105 60.6716 
-83.9689 -105.132 59.4295 -84.0623 -104.994 58.1808 -84.0282 -104.995 57.0715 
-83.1038 -104.24 61.7044 -82.7154 -104 62.3625 -83.7755 -104.717 61.1113 
-84.3892 -104.997 60.1037 -84.6371 -104.921 58.7476 -84.5601 -104.802 57.5645 
-84.3525 -104.713 56.5425 -83.1516 -103.774 61.8702 -82.9179 -103.659 62.6153 
-83.7363 -104.086 61.2515 -84.3922 -104.416 60.5062 -84.7391 -104.483 59.3274 
-84.7701 -104.368 58.0526 -84.5688 -104.217 57.0543 -84.2996 -104.02 56.2322 
-83.536 -103.536 62.2482 -83.4078 -103.48 63.075 -83.9451 -103.615 61.4003 
-84.4835 -103.796 60.6802 -84.7846 -103.934 59.8006 -84.8906 -103.881 58.6019 
-84.8763 -103.7 57.463 -84.6634 -103.499 56.6232 -84.3825 -103.315 55.962 
-83.9525 -103.291 62.6047 -83.8321 -103.208 63.4038 -84.242 -103.274 61.6212 
-84.6887 -103.326 60.8207 -84.9913 -103.494 60.1475 -85.1219 -103.558 59.1793 
-85.242 -103.393 57.9653 -85.2149 -103.155 56.9372 -84.972 -102.995 56.1853 
-84.6564 -102.875 55.5823 -84.0862 -102.825 62.9946 -84.2584 -102.841 62.0013 
-84.1504 -102.195 62.2327 -84.3649 -102.184 61.2806 -84.2686 -101.474 61.5197 
-84.6216 -102.82 61.0608 -84.5922 -101.48 60.8055 -84.5738 -100.849 61.0404 
-84.8127 -102.213 60.6095 -85.0597 -102.948 60.43 -85.0052 -100.784 60.3546 
-84.7589 -100.267 60.4808 -85.1577 -101.428 60.1523 -85.352 -102.305 59.9636 
-85.3562 -103.12 59.6651 -85.0792 -100.158 59.6482 -84.6085 -99.6501 59.7221 
-85.4195 -100.661 59.4356 -85.614 -101.364 59.1687 -85.6717 -102.337 58.8939 
-85.5396 -103.07 58.4712 -84.7193 -99.6409 58.8751 -84.3819 -99.1017 58.9203 
-85.1079 -100.213 58.7162 -85.3955 -100.751 58.3981 -85.5476 -101.461 58.092 
-85.6434 -102.306 57.7353 -85.5825 -102.862 57.282 -84.4612 -99.0736 58.1342 
-84.2687 -98.6564 58.1521 -84.6831 -99.7113 58.0588 -84.8902 -100.45 57.8192 
-85.0152 -101.058 57.5708 -85.1787 -101.674 57.2785 -85.435 -102.306 56.7903 
-85.4146 -102.722 56.3531 -84.4586 -98.4107 57.453 -84.1842 -98.2 57.5223 
-84.6638 -98.8381 57.3134 -84.7746 -99.6699 57.0498 -84.7735 -100.555 56.8718 
-84.7705 -101.183 56.7724 -84.9969 -101.751 56.3948 -85.2691 -102.296 55.8429 
-85.1381 -102.647 55.5695 -84.4563 -97.7997 56.9197 -84.0628 -97.6895 57.0807 
-84.7771 -97.9891 56.6464 -84.9199 -98.5878 56.2381 -84.8596 -99.5506 55.9554 
-84.7196 -100.402 55.9423 -84.7461 -101.024 55.8076 -84.9818 -101.638 55.3362 
-85.0709 -102.177 54.9548 -84.7729 -102.496 54.9508 -84.0822 -102.301 54.5961 
-84.5328 -102.004 54.3817 -83.6919 -101.775 54.1292 -84.7598 -101.52 54.4013 
-84.0641 -101.337 53.9601 -83.2772 -101.23 53.7038 -84.6749 -100.873 54.7923 
-84.2812 -100.809 54.017 -83.6269 -100.761 53.5648 -83.0257 -100.758 53.1735 
-84.5358 -100.209 55.1414 -84.2666 -100.197 54.3463 -83.9727 -100.302 53.5155 
-83.4792 -100.313 52.9351 -82.747 -100.263 52.6344 -84.6114 -99.4288 55.1786 
-84.1845 -99.4498 54.6008 -84.0823 -99.5712 53.6661 -83.9703 -99.7098 52.709 
-83.2004 -99.7453 52.4372 -82.1215 -99.6947 52.3838 -84.8179 -98.4774 55.3044 
-84.3038 -98.5836 54.6997 -84.0216 -98.6069 53.911 -84.0851 -98.65 52.7707 
-83.5636 -98.9027 52.2891 -82.3598 -99.0909 52.4317 -81.4059 -99.1171 52.1412 
-84.8497 -97.7299 55.7388 -84.4873 -97.8279 54.9321 -84.0292 -97.8809 54.1937 
-83.8851 -97.7342 53.1782 -83.5329 -97.8725 52.4214 -82.5314 -98.2639 52.4085 
-81.4919 -98.4741 52.2871 -81.0495 -98.5363 51.4887 -84.5825 -97.3998 56.205 
-84.3972 -97.3305 55.3256 -83.9412 -97.4581 54.5108 -83.5678 -97.4252 53.7305 
-83.2172 -97.3755 52.928 -82.5397 -97.543 52.463 -81.6866 -97.7453 52.2224 
-81.1086 -97.8637 51.6405 -80.9568 -97.9988 50.7449 -84.1576 -97.2626 56.5306 
-84.0648 -97.0127 55.7248 -83.661 -97.0607 54.837 -83.1619 -97.2186 54.1704 
-82.7697 -97.2817 53.5661 -82.3683 -97.2206 52.8307 -81.857 -97.1304 52.1836 
-81.3312 -97.165 51.6462 -80.95 -97.348 51.0263 -80.7847 -97.5849 50.3755 
-83.3734 -102.267 54.3929 -83.0117 -101.844 53.8448 -82.7275 -102.391 53.952 
-82.7876 -101.438 53.2602 -82.5367 -102.157 53.2269 -82.2117 -102.643 53.3548 
-82.5154 -100.92 52.691 -82.3713 -101.782 52.5869 -82.0797 -102.462 52.564 
-81.7541 -102.913 52.7459 -81.9353 -100.278 52.2791 -81.8423 -101.079 52.1496 
-81.6441 -101.845 52.0761 -81.3992 -102.506 52.1077 -81.1575 -103.179 52.1408 
-81.3247 -99.6723 51.8687 -81.2154 -100.355 51.7367 -80.9546 -100.985 51.743 
-80.705 -101.573 51.7818 -80.5596 -102.407 51.7823 -80.276 -103.247 51.7589 
-81.094 -99.1112 51.11 -81.0197 -99.7932 51.0091 -80.604 -100.375 51.2232 
-80.1325 -100.774 51.4169 -79.9169 -101.37 51.5075 -79.6995 -102.245 51.5947 
-79.3219 -102.936 51.7345 -81.0931 -98.5707 50.2674 -81.1117 -99.2685 50.0915 
-80.639 -99.9124 50.425 -79.8953 -100.321 50.885 -79.4584 -100.734 51.0962 
-79.2523 -101.385 51.2325 -78.9242 -102.064 51.4717 -78.6041 -102.542 51.765 
-80.9458 -98.1072 49.8595 -81.0422 -98.7734 49.5302 -80.6522 -99.4441 49.6938 
-79.7986 -99.917 50.238 -79.1142 -100.331 50.6436 -78.8496 -100.933 50.7422 
-78.615 -101.576 50.8819 -78.2985 -102.05 51.2264 -78.1079 -102.399 51.6309 
-80.481 -97.5077 50.0294 -80.6386 -98.1061 49.5642 -79.9933 -97.3167 49.7941 
-79.9708 -98.0736 49.4848 -79.3249 -97.0916 49.548 -80.491 -98.8581 49.3582 
-79.0224 -98.0174 49.457 -78.4576 -97.1267 49.5069 -79.5448 -98.9059 49.3951 
-79.7661 -99.4685 49.6266 -77.9261 -97.9242 49.5158 -77.5234 -97.3656 49.7071 
-78.494 -98.8279 49.4705 -78.8128 -99.4963 49.6545 -78.9088 -99.9195 50.127 
-76.8478 -97.8298 49.5506 -76.7014 -97.5536 49.8906 -77.3642 -98.6326 49.4817 
-77.9742 -99.5614 49.6157 -78.2583 -100.154 49.9093 -78.4744 -100.582 50.3035 
-75.9768 -97.9955 49.6131 -76.0024 -97.7746 50.1668 -76.203 -98.6247 49.3838 
-76.8898 -99.6607 49.4557 -77.5638 -100.541 49.5605 -77.9248 -101.089 49.7613 
-78.2453 -101.394 50.2368 -75.4092 -98.3842 50.0031 -75.4218 -98.0481 50.6681 
-75.4301 -98.9099 49.5121 -75.8232 -99.7477 49.4344 -76.5564 -100.662 49.4411 
-77.1651 -101.404 49.4076 -77.5565 -101.849 49.7294 -77.9318 -101.962 50.474 
-74.9904 -98.6406 50.6033 -74.922 -98.2037 51.1508 -75.0863 -99.1397 50.0379 
-75.3438 -99.7111 49.8275 -75.8487 -100.363 49.8551 -76.3996 -101.126 49.7509 
-76.8176 -101.855 49.7658 -77.2279 -102.225 50.2676 -77.6909 -102.282 51.0227 
-74.4955 -98.7171 51.0822 -74.4029 -98.2503 51.4438 -74.708 -99.1926 50.6456 
-75.0913 -99.6078 50.4264 -75.5881 -100.009 50.5152 -76.0137 -100.603 50.5357 
-76.2783 -101.431 50.3985 -76.571 -102.13 50.5227 -77.0506 -102.437 51.0141 
-77.5938 -102.538 51.5811 -80.5494 -97.1033 50.6443 -80.0455 -96.9718 50.3434 
-80.306 -96.7046 51.0164 -79.7086 -96.5612 50.6278 -80.098 -96.3772 51.5243 
-79.5185 -96.5706 49.8664 -79.5125 -96.2463 51.1148 -79.9366 -95.9054 52.0916 
-79.2172 -96.0832 49.9787 -78.9119 -96.2997 49.4913 -79.3175 -95.7622 51.836 
-79.7047 -95.1651 52.4656 -79.0033 -95.898 50.6667 -78.6188 -95.9934 49.8216 
-78.1243 -96.6598 49.694 -78.9826 -95.0933 52.3755 -79.3044 -94.5435 52.6716 
-78.7126 -95.7197 51.7118 -78.2984 -96.0408 50.8142 -77.8215 -96.5242 50.309 
-77.3116 -97.1802 50.1254 -78.5701 -94.6538 52.7185 -78.8757 -94.3999 53.1418 
-78.3745 -95.4294 52.418 -77.9623 -96.0609 51.8145 -77.4247 -96.3437 51.1043 
-76.9857 -96.8315 50.6645 -76.5397 -97.3779 50.4151 -78.2262 -94.5845 53.3307 
-78.5605 -94.485 54.0393 -78.0706 -95.1678 52.9252 -77.7169 -95.9199 52.4705 
-77.0929 -96.1517 51.758 -76.5344 -96.2942 51.1331 -76.1544 -96.8796 50.8742 
-75.7991 -97.5302 50.8006 -78.0001 -94.6608 54.2418 -78.3258 -94.5025 55.021 
-77.8344 -95.0399 53.6424 -77.5208 -95.6759 53.1451 -76.9038 -96.0463 52.5026 
-76.232 -96.0854 51.7925 -75.7624 -96.4455 51.3589 -75.4642 -97.1346 51.2692 
-75.2004 -97.7282 51.2638 -77.879 -94.7889 55.087 -78.1434 -94.5355 55.7544 
-77.7037 -95.0971 54.4388 -77.372 -95.5314 53.8931 -76.7744 -95.9387 53.3586 
[...]
CELL_DATA 2000
SCALARS Distance double
LOOKUP_TABLE default
143.528 143.712 143.45 143.109 143.854 143.618 143.26 143.013 142.653 
143.988 143.749 143.395 143.142 142.75 142.509 142.108 144.206 143.919 
143.56 143.275 142.867 142.596 142.168 141.921 141.492 144.406 144.154 
143.75 143.443 142.984 142.694 142.226 141.971 141.509 141.277 140.834 
144.288 144.227 143.796 143.57 143.029 142.75 142.197 141.963 141.453 
141.254 140.782 140.593 140.166 143.794 143.907 143.504 143.454 142.894 
142.694 142.084 141.865 141.327 141.149 140.68 140.512 140.083 139.926 
139.545 143.22 143.332 142.957 143.015 142.508 142.438 141.87 141.716 
141.225 141.054 140.648 140.452 140.053 139.851 139.46 139.31 138.961 
142.804 142.817 142.435 142.462 142.017 142.006 141.544 141.479 141.089 
140.989 140.669 140.499 140.142 139.891 139.472 139.243 138.848 138.717 
138.39 143.855 144.401 144.111 144.047 144.854 144.632 144.575 144.279 
144.181 145.286 145.072 145.067 144.793 144.7 144.384 144.295 145.814 
145.571 145.64 145.351 145.329 144.951 144.886 144.547 144.526 146.118 
146.04 146.144 145.988 146.054 145.684 145.628 145.208 145.153 144.811 
144.743 145.937 146.068 146.151 146.305 146.413 146.319 146.214 145.893 
145.68 145.36 145.135 144.86 144.584 145.742 145.785 145.842 146.077 
146.197 146.379 146.264 146.193 145.842 145.65 145.246 145.051 144.641 
144.449 144.04 145.921 145.771 145.784 145.812 145.905 146.055 146.021 
146.047 145.759 145.625 145.218 145.032 144.618 144.422 144.029 143.839 
143.481 146.173 146.029 145.933 145.839 145.81 145.848 145.848 145.869 
145.732 145.595 145.31 145.067 144.739 144.476 144.161 143.91 143.626 
143.387 143.113 146.137 145.662 145.933 145.874 144.939 145.324 145.396 
145.675 145.706 144.354 144.658 144.808 145.162 145.356 145.622 145.725 
143.88 144.174 144.298 144.629 144.852 145.226 145.414 145.648 145.633 
143.198 143.625 143.701 144.081 144.172 144.613 144.754 145.181 145.195 
145.413 145.227 142.342 142.823 142.914 143.364 143.394 143.822 143.851 
144.342 144.376 144.801 144.693 144.901 144.655 141.546 141.961 142.044 
142.515 142.593 143.021 143.046 143.447 143.471 143.908 143.912 144.271 
144.143 144.319 144.089 140.861 141.201 141.208 141.636 141.69 142.177 
142.233 142.673 142.682 143.078 143.082 143.479 143.455 143.761 143.625 
143.776 143.565 140.238 140.534 140.485 140.819 140.79 141.232 141.257 
141.769 141.784 142.255 142.22 142.651 142.613 143.02 142.95 143.249 
143.085 143.249 143.036 142.662 142.662 142.452 141.964 142.482 142.358 
141.835 141.651 141.134 142.135 142.075 141.572 141.456 140.946 140.809 
140.368 141.733 141.686 141.208 141.155 140.719 140.627 140.215 140.093 
139.684 141.266 141.25 140.747 140.752 140.323 140.343 139.962 139.926 
139.506 139.386 138.902 140.758 140.754 140.254 140.263 139.79 139.845 
139.404 139.501 139.067 139.108 138.607 138.522 137.982 140.361 140.305 
139.871 139.824 139.383 139.34 138.862 138.872 138.413 138.511 138.064 
138.12 137.608 137.555 137.047 140.109 140.014 139.611 139.523 139.117 
139.024 138.59 138.472 138.029 137.96 137.555 137.562 137.139 137.13 
136.657 136.627 136.216 139.883 139.802 139.383 139.286 138.842 138.761 
138.337 138.259 137.862 137.75 137.347 137.222 136.798 136.709 136.277 
136.234 135.844 135.856 135.568 142.5 141.801 142.127 142.048 141.034 
141.388 141.325 141.658 141.601 140.326 140.667 140.685 140.988 140.963 
141.242 141.197 139.609 139.976 140.02 140.387 140.409 140.681 140.652 
140.889 140.847 138.76 139.169 139.127 139.611 139.587 140.018 139.945 
140.308 140.252 140.554 140.477 137.846 138.245 138.145 138.619 138.531 
139.015 138.869 139.368 139.259 139.781 139.703 140.098 139.933 136.974 
137.347 137.293 137.692 137.641 138.006 137.858 138.237 138.101 138.625 
138.572 139.13 139.018 139.426 139.217 136.211 136.549 136.565 136.935 
136.955 137.261 137.155 137.387 137.237 137.573 137.53 138.006 137.982 
138.436 138.323 138.694 138.556 135.605 135.888 135.942 136.282 136.336 
136.639 136.557 136.767 136.6 136.839 136.769 137.125 137.143 137.524 
137.505 137.849 137.797 138.132 138.098 135.306 134.917 135.302 135.656 
134.382 134.886 135.301 135.686 136.026 133.798 134.319 134.781 135.259 
135.573 135.956 136.183 133.305 133.723 134.137 134.674 135.016 135.437 
135.649 136.012 136.22 132.891 133.17 133.42 133.97 134.39 134.899 
135.231 135.56 135.839 136.136 136.447 132.639 132.737 132.841 133.245 
133.689 134.284 134.799 135.236 135.619 135.892 136.234 136.491 136.832 
132.651 132.611 132.7 132.832 133.212 133.665 134.241 134.78 135.256 
135.658 136 136.302 136.605 136.878 137.17 132.737 132.728 132.854 
132.867 133.16 133.373 133.852 134.267 134.754 135.204 135.588 135.981 
136.3 136.622 136.912 137.187 137.47 132.682 132.781 132.92 133.002 
133.237 133.382 133.749 134.006 134.439 134.772 135.183 135.549 135.924 
136.282 136.622 136.93 137.237 137.502 137.794 135.084 134.684 134.788 
134.625 134.404 134.387 134.057 134.191 133.98 134.226 134.151 133.714 
133.637 133.277 133.486 133.368 133.921 133.966 133.6 133.422 133.025 
132.957 132.845 133.047 133.06 133.397 133.579 133.418 133.394 133.13 
132.939 132.813 132.788 132.857 132.928 132.894 133.003 133.087 133.08 
133.229 133.188 133.112 132.934 132.826 132.743 132.8 132.773 132.797 
132.696 133.022 132.888 132.883 132.992 133.093 133.14 132.979 132.848 
132.541 132.544 132.401 132.573 132.534 132.633 132.616 133.287 133.059 
132.996 132.953 133.05 133.082 133.01 132.861 132.527 132.339 132.104 
132.163 132.18 132.379 132.455 132.593 132.637 133.573 133.368 133.308 
133.164 133.201 133.13 133.102 132.951 132.737 132.463 132.254 132.082 
132.096 132.135 132.261 132.382 132.444 132.561 132.563 139.602 138.976 
139.23 139.091 138.331 138.572 138.387 138.651 138.5 137.616 137.891 
137.649 137.904 137.712 138.043 137.961 136.732 137.068 136.811 137.117 
136.895 137.235 137.169 137.564 137.543 135.926 136.164 135.915 136.224 
136.017 136.382 136.287 136.735 136.724 137.137 137.053 135.421 135.518 
135.263 135.422 135.218 135.504 135.372 135.791 135.717 136.203 136.11 
136.548 136.418 134.925 135.074 134.793 134.885 134.607 134.782 134.615 
134.921 134.84 135.218 135.153 135.559 135.489 135.91 135.858 134.279 
134.492 134.191 134.343 133.979 134.151 133.932 134.222 134.207 134.52 
134.563 134.818 134.841 135.106 135.129 135.46 135.489 133.771 133.873 
133.593 133.698 133.354 133.483 133.266 133.542 133.589 133.965 134.115 
134.4 134.466 134.652 134.665 134.877 134.913 135.194 135.262 139.78 
139.85 139.588 139.157 140.005 139.674 139.21 138.954 138.532 140.214 
139.872 139.376 139.044 138.582 138.326 137.85 140.298 140.046 139.573 
139.245 138.734 138.402 137.873 137.577 137.006 140.282 140.07 139.635 
139.389 138.896 138.57 138.016 137.651 137.082 136.733 136.221 140.323 
140.077 139.641 139.41 138.948 138.68 138.161 137.823 137.275 136.898 
136.389 136.06 135.668 140.354 140.125 139.673 139.435 138.969 138.714 
138.223 137.939 137.422 137.095 136.549 136.22 135.718 135.495 135.099 
140.318 140.113 139.657 139.446 138.987 138.748 138.273 138.004 137.522 
137.224 136.698 136.349 135.776 135.473 134.974 134.822 134.434 140.296 
140.075 139.628 139.414 138.977 138.76 138.316 138.067 137.619 137.343 
136.889 136.541 136.03 135.613 135.112 134.776 134.409 134.22 133.963 
140.155 139.707 139.779 139.472 139.213 139.305 138.993 139.088 138.807 
138.687 138.782 138.463 138.581 138.28 138.41 138.136 138.165 138.234 
137.877 138.01 137.691 137.842 137.55 137.714 137.445 137.624 137.679 
137.27 137.399 137.057 137.215 136.917 137.101 136.844 137.025 136.744 
137.051 137.095 136.663 136.782 136.432 136.578 136.264 136.445 136.198 
136.414 136.151 136.301 135.935 136.541 136.537 136.118 136.2 135.879 
135.991 135.668 135.794 135.516 135.739 135.522 135.719 135.395 135.46 
135.056 136.132 136.091 135.69 135.721 135.433 135.51 135.209 135.254 
134.926 135.062 134.859 135.097 134.912 135.013 134.693 134.669 134.359 
135.743 135.713 135.304 135.322 135.02 135.101 134.822 134.854 134.509 
134.536 134.284 134.472 134.382 134.584 134.435 134.442 134.179 134.12 
133.912 135.35 134.558 134.939 134.923 133.79 134.142 134.173 134.573 
134.652 133.23 133.463 133.483 133.842 133.955 134.365 134.454 132.832 
133.014 133.004 133.24 133.3 133.655 133.737 134.125 134.148 132.405 
132.637 132.66 132.844 132.847 133.067 133.112 133.427 133.509 133.842 
133.951 132.04 132.239 132.356 132.544 132.601 132.72 132.757 132.931 
133.066 133.33 133.552 133.84 134.084 131.959 132.016 132.183 132.324 
132.47 132.559 132.63 132.709 132.834 133.018 133.257 133.526 133.776 
134.045 134.194 132.139 132.076 132.192 132.242 132.356 132.443 132.492 
132.59 132.666 132.832 133.003 133.245 133.429 133.691 133.778 134.012 
133.99 132.415 132.302 132.334 132.287 132.276 132.295 132.241 132.351 
132.378 132.595 132.745 132.988 133.131 133.331 133.373 133.559 133.532 
133.729 133.71 135.499 135.474 135.222 134.692 135.55 135.224 134.69 
134.409 133.923 135.807 135.394 134.882 134.503 134.023 133.724 133.358 
136.162 135.723 135.237 134.809 134.343 133.936 133.504 133.226 132.915 
136.536 136.093 135.606 135.19 134.734 134.316 133.828 133.424 132.965 
132.735 132.42 136.953 136.492 135.975 135.532 135.057 134.675 134.212 
133.784 133.279 132.865 132.451 132.235 132.022 137.334 136.921 136.404 
135.918 135.403 134.985 134.565 134.174 133.769 133.302 132.911 132.473 
132.227 131.991 131.953 137.567 137.252 136.793 136.357 135.862 135.394 
134.989 134.58 134.268 133.849 133.548 133.076 132.82 132.408 132.306 
132.086 132.155 137.731 137.455 137.072 136.725 136.314 135.887 135.511 
135.081 134.786 134.383 134.121 133.705 133.45 133.036 132.86 132.541 
132.517 132.351 132.448 136.004 136.785 136.26 136.007 137.692 137.103 
136.871 136.3 136.093 138.768 138.121 137.926 137.266 137.082 136.48 
136.35 139.833 139.249 139.081 138.405 138.207 137.546 137.387 136.793 
136.689 140.665 140.223 140.077 139.518 139.306 138.671 138.451 137.829 
137.663 137.117 137.034 141.358 140.966 140.887 140.44 140.334 139.759 
139.567 138.894 138.677 138.068 137.947 137.458 137.422 142.107 141.694 
141.698 141.284 141.337 140.835 140.79 140.097 139.9 139.153 138.971 
138.373 138.296 137.833 137.777 142.865 142.485 142.528 142.155 142.253 
141.85 141.87 141.311 141.154 140.435 140.206 139.49 139.322 138.726 
138.604 138.119 137.991 143.51 143.197 143.226 142.937 142.999 142.689 
142.651 142.236 142.044 141.52 141.282 140.687 140.472 139.824 139.617 
138.994 138.804 138.286 138.138 143.817 144.108 143.819 143.541 144.333 
144.087 143.844 143.588 143.335 144.508 144.284 144.027 143.833 143.536 
143.294 142.921 144.6 144.396 144.064 143.92 143.544 143.355 142.886 
142.694 142.233 144.557 144.383 143.95 143.836 143.42 143.273 142.793 
142.595 142.146 141.976 141.548 144.372 144.245 143.758 143.638 143.195 
143.092 142.658 142.506 142.099 141.937 141.562 141.344 140.863 144.074 
144.003 143.535 143.417 142.944 142.842 142.393 142.311 141.892 141.831 
141.434 141.328 140.842 140.596 139.998 143.755 143.701 143.282 143.186 
142.728 142.604 142.127 142.018 141.563 141.519 141.115 141.091 140.642 
140.501 139.934 139.678 139.107 143.517 143.434 143.064 142.964 142.566 
142.425 141.99 141.816 141.392 141.25 140.902 140.811 140.483 140.338 
139.907 139.644 139.135 138.854 138.403 143.312 142.893 143.018 142.853 
142.45 142.595 142.409 142.542 142.355 141.915 142.114 141.942 142.093 
141.882 142.011 141.787 141.297 141.533 141.399 141.609 141.453 141.575 
141.361 141.444 141.224 140.634 140.882 140.747 141.028 140.935 141.151 
141.012 141.1 140.902 140.943 140.763 139.975 140.202 140.025 140.322 
140.206 140.539 140.419 140.676 140.5 140.637 140.421 140.507 140.317 
139.372 139.562 139.353 139.59 139.421 139.739 139.579 139.926 139.726 
140.042 139.804 140.045 139.768 139.955 139.689 138.807 138.983 138.761 
138.942 138.735 138.976 138.798 139.082 138.871 139.168 138.919 139.238 
138.961 139.25 138.934 139.187 138.895 138.258 138.431 138.208 138.362 
138.118 138.31 138.108 138.355 138.158 138.39 138.14 138.371 138.104 
138.375 138.108 138.378 138.111 138.376 138.164 137.743 137.631 137.474 
137.08 137.583 137.373 136.928 136.792 136.374 137.588 137.334 136.859 
136.664 136.231 136.078 135.642 137.659 137.374 136.876 136.616 136.15 
135.96 135.525 135.36 134.934 137.691 137.442 136.93 136.649 136.145 
135.906 135.452 135.26 134.826 134.665 134.255 137.654 137.433 136.939 
136.683 136.201 135.943 135.504 135.251 134.814 134.58 134.148 133.985 
133.595 137.698 137.435 136.991 136.715 136.288 136.029 135.642 135.375 
134.968 134.659 134.218 133.942 133.552 133.37 133.048 137.824 137.558 
137.159 136.854 136.45 136.16 135.778 135.52 135.13 134.846 134.418 
134.099 133.707 133.436 133.149 132.944 132.732 137.898 137.687 137.319 
137.056 136.667 136.365 135.962 135.666 135.262 134.985 134.573 134.291 
133.9 133.635 133.34 133.125 132.94 132.753 132.634 146.222 145.975 
146.132 146.08 145.838 145.921 145.98 145.983 145.872 146.079 146.024 
146.176 146.05 145.981 145.802 145.656 146.236 146.328 146.547 146.451 
146.383 146.04 145.765 145.56 145.446 145.847 146.19 146.402 146.666 
146.683 146.496 146.159 145.77 145.541 145.421 145.453 145.271 145.587 
145.726 146.196 146.351 146.574 146.412 146.184 145.916 145.662 145.655 
145.567 145.603 144.849 145.05 145.124 145.483 145.675 146.073 146.126 
146.243 146.047 145.948 145.782 145.744 145.673 145.62 145.412 144.408 
144.634 144.657 144.945 145.061 145.431 145.513 145.81 145.68 145.8 
145.522 145.602 145.339 145.448 145.164 145.18 144.804 143.855 144.119 
144.101 144.413 144.44 144.799 144.802 145.146 145.028 145.265 145.012 
145.147 144.848 144.959 144.667 144.764 144.451 144.475 144.13 146.233 
146.045 146.107 145.879 145.758 145.833 145.59 145.575 145.201 145.584 
145.615 145.406 145.306 144.954 144.864 144.523 145.492 145.534 145.452 
145.291 144.968 144.731 144.393 144.275 143.984 145.445 145.459 145.404 
145.355 145.064 144.837 144.427 144.22 143.876 143.758 143.411 145.401 
145.357 145.11 145.144 144.822 144.792 144.352 144.213 143.766 143.637 
143.239 143.132 142.741 145.143 145.149 144.71 144.715 144.307 144.381 
143.996 143.997 143.542 143.45 142.993 142.912 142.513 142.449 142.092 
144.608 144.715 144.273 144.262 143.82 143.86 143.528 143.59 143.208 
143.159 142.679 142.605 142.182 142.171 141.829 141.814 141.483 143.995 
144.143 143.808 143.831 143.435 143.435 143.105 143.158 142.824 142.813 
142.352 142.267 141.806 141.794 141.454 141.499 141.195 141.194 140.858 
146.156 145.797 145.948 145.658 145.152 145.444 145.231 145.295 144.915 
144.486 144.778 144.661 144.822 144.542 144.571 144.292 143.898 144.152 
144.037 144.254 144.044 144.172 143.917 144.009 143.777 143.271 143.531 
143.362 143.614 143.406 143.62 143.368 143.538 143.249 143.396 143.071 
142.603 142.853 142.67 142.918 142.719 142.955 142.732 142.932 142.653 
142.799 142.457 142.583 142.228 141.981 142.201 142.034 142.253 142.067 
142.285 142.085 142.297 142.072 142.228 141.938 142.021 141.695 141.777 
141.476 141.374 141.594 141.42 141.641 141.442 141.65 141.421 141.639 
141.42 141.641 141.4 141.54 141.232 141.305 140.996 141.085 140.815 
140.733 140.96 140.765 141.005 140.799 141.016 140.768 140.966 140.725 
140.96 140.745 140.962 140.683 140.813 140.478 140.588 140.291 140.43 
140.18 136.145 136.572 136.556 136.94 137.024 137.015 137.461 137.403 
137.837 137.556 137.525 137.997 137.942 138.394 138.347 138.849 138.114 
138.09 138.554 138.491 138.897 138.855 139.322 139.363 139.866 138.609 
138.613 139.071 139.037 139.402 139.325 139.704 139.742 140.226 140.308 
140.718 139.067 139.058 139.492 139.501 139.886 139.822 140.158 140.117 
140.551 140.621 141.091 141.105 141.445 139.56 139.509 139.89 139.882 
140.27 140.265 140.644 140.601 141.011 141.003 141.482 141.5 141.931 
141.862 142.189 140.059 140.004 140.354 140.29 140.638 140.625 141.039 
141.063 141.515 141.507 141.951 141.935 142.365 142.343 142.712 142.627 
142.926 140.506 140.482 140.835 140.763 141.078 141.017 141.405 141.44 
141.926 141.977 142.415 142.397 142.754 142.737 143.089 143.085 143.408 
143.334 143.586 
POINT_DATA 1002
SCALARS Distance double
LOOKUP_TABLE default
143.185 143.601 143.8 143.367 143.972 142.775 143.517 144.074 142.898 
142.287 143.657 144.234 143.013 142.344 141.694 143.87 144.518 143.157 
142.435 141.727 141.056 144.077 144.625 143.305 142.492 141.752 141.048 
140.398 143.98 144.261 143.331 142.454 141.646 140.964 140.334 139.769 
143.48 143.64 143.052 142.3 141.498 140.839 140.239 139.676 139.191 
142.878 143.144 142.512 141.961 141.35 140.828 140.281 139.641 139.065 
138.629 142.431 142.837 141.996 141.545 141.128 140.791 140.392 139.755 
139.023 138.458 138.083 144.167 144.37 144.668 144.861 145.037 144.498 
145.321 145.505 145.023 144.58 145.889 146.051 145.713 145.252 144.829 
146.182 146.123 146.364 146.09 145.544 145.088 145.901 145.789 146.373 
146.507 146.048 145.45 144.867 145.667 145.77 145.961 146.261 146.028 
145.454 144.836 144.219 145.877 146.118 145.809 145.946 145.857 145.396 
144.807 144.211 143.659 146.094 146.309 145.832 145.791 145.807 145.534 
145.001 144.411 143.862 143.359 146.01 145.697 145.281 144.995 144.544 
145.497 144.436 144.084 144.994 145.579 144.004 143.553 144.458 145.106 
145.559 143.32 142.721 143.782 144.277 144.88 145.149 142.43 141.875 
142.992 143.408 143.871 144.378 144.555 141.58 141.184 142.124 142.665 
143.065 143.478 143.882 143.994 140.841 140.56 141.204 141.743 142.291 
142.691 143.077 143.408 143.475 140.201 139.955 140.414 140.753 141.277 
141.785 142.186 142.577 142.866 142.915 142.234 142.206 141.452 142.004 
141.295 140.657 141.645 141.069 140.476 139.971 141.228 140.753 140.336 
139.832 139.251 140.739 140.275 139.941 139.611 139.076 138.381 140.247 
139.777 139.319 138.954 138.639 138.109 137.455 139.917 139.45 138.924 
138.344 137.942 137.615 137.102 136.585 139.713 139.204 138.699 138.149 
137.595 137.13 136.674 136.196 135.868 139.494 138.942 138.382 137.931 
137.506 136.941 136.325 135.833 135.504 135.333 141.718 140.995 141.262 
140.351 140.709 140.919 139.606 140.103 140.416 140.623 138.65 139.124 
139.535 139.885 140.249 137.704 138.082 138.388 138.685 139.209 139.653 
136.883 137.293 137.55 137.638 137.981 138.528 138.873 136.183 136.632 
136.942 136.974 137.101 137.509 137.908 138.188 135.614 136.031 136.345 
136.387 136.442 136.766 137.156 137.453 137.753 134.971 135.324 134.459 
134.877 133.812 135.705 134.27 133.314 135.198 135.819 133.587 133.018 
134.557 135.296 135.833 132.909 132.75 133.767 134.847 135.551 136.133 
132.556 132.615 133.062 134.242 135.312 135.995 136.575 132.665 132.676 
132.882 133.695 134.788 135.669 136.337 136.904 132.844 132.693 133.054 
133.543 134.32 135.157 135.939 136.627 137.206 132.806 132.549 133.11 
133.549 134.156 134.842 135.553 136.282 136.959 137.548 134.949 134.445 
134.66 134.058 134.496 133.669 133.901 134.282 133.184 132.978 133.717 
133.766 133.183 132.708 132.851 133.254 133.172 133.284 132.928 132.806 
132.917 132.835 133.003 133.153 133.129 132.747 132.679 132.725 132.827 
133.237 132.989 133.141 132.669 132.209 132.317 132.56 133.115 133.51 
133.046 133.118 132.774 132.14 131.964 132.261 132.544 133.479 133.729 
133.332 133.228 132.962 132.478 132.146 132.181 132.342 132.448 139.36 
138.837 138.732 138.148 138.115 138.176 137.41 137.325 137.389 137.571 
136.471 136.4 136.552 136.746 137.191 135.623 135.757 135.651 135.849 
136.268 136.715 135.174 135.332 134.993 135.012 135.257 135.627 135.991 
134.717 134.728 134.49 134.341 134.494 134.771 135.062 135.416 134.035 
134.076 133.825 133.625 133.832 134.298 134.623 134.84 135.131 140.026 
139.379 140.145 139.5 140.372 138.752 139.745 140.528 138.883 138.112 
139.868 140.499 139.108 138.213 137.294 139.844 140.503 139.193 138.389 
137.446 136.506 139.886 140.58 139.194 138.458 137.637 136.743 135.917 
139.91 140.573 139.225 138.49 137.723 136.907 135.999 135.237 139.857 
140.525 139.206 138.531 137.8 137.043 136.144 135.185 134.501 139.846 