# vtk DataFile Version 4.0
vtk output
ASCII
DATASET POLYDATA
POINTS 1002 float
-78.2077 -99.9973 60.8194 -78.3705 -100.568 61.2516 -78.928 -100.284 61.0082 
-78.7749 -99.7844 60.4623 -79.471 -100.046 60.703 -78.0482 -99.5982 60.1464 
-79.3918 -99.5786 60.163 -80.0774 -99.8582 60.427 -78.6119 -99.3481 59.8472 
-77.9509 -99.2495 59.3956 -80.0808 -99.3455 59.8924 -80.6967 -99.6853 60.0902 
-79.3329 -99.0753 59.5811 -78.538 -98.8337 59.2163 -77.967 -98.6901 58.7367 
-80.6627 -99.1663 59.3928 -81.1775 -99.653 59.5042 -80.0561 -98.8527 59.1148 
-79.2851 -98.5412 58.8375 -78.548 -98.1492 58.5861 -78.0054 -97.9616 58.1694 
-81.0684 -99.2018 58.6529 -81.5541 -99.7875 58.7807 -80.5403 -98.752 58.4171 
-79.8917 -98.4741 58.1588 -79.1837 -97.9329 58.1253 -78.5295 -97.4435 57.9965 
-77.9539 -97.465 57.5156 -81.4597 -99.3292 57.9787 -81.944 -99.8455 58.1585 
-80.9642 -98.7225 57.8205 -80.3043 -98.4057 57.5535 -79.6774 -97.9736 57.4646 
-79.0904 -97.2583 57.5454 -78.4424 -96.9851 57.2704 -77.8257 -97.262 56.6716 
-81.8496 -99.375 57.4406 -82.3477 -99.7733 57.6428 -81.4997 -98.6952 57.3794 
-80.8667 -98.1876 57.2051 -80.1259 -97.8817 56.9245 -79.6015 -97.3386 56.83 
-79.0022 -96.8107 56.7256 -78.2755 -96.7756 56.3229 -77.6638 -96.9928 55.8409 
-82.1769 -99.4042 56.9361 -82.7527 -99.7257 57.1727 -81.9395 -98.7497 56.8781 
-81.5407 -98.0561 56.804 -80.7393 -97.6464 56.4923 -80.0625 -97.3615 56.1261 
-79.5329 -96.9944 55.9052 -78.8 -96.7166 55.695 -78.0661 -96.6287 55.4313 
-77.5193 -96.5878 55.215 -82.5117 -99.4447 56.4827 -83.1779 -99.7238 56.7549 
-82.2054 -98.8824 56.3497 -81.9966 -98.166 56.258 -81.3772 -97.5794 56.0081 
-80.5824 -97.2675 55.605 -79.9996 -97.1095 55.232 -79.352 -96.9272 54.9721 
-78.5767 -96.6959 54.813 -77.9496 -96.4699 54.7396 -77.4584 -96.2771 54.7045 
-78.8808 -101.027 61.446 -79.3977 -100.653 61.2959 -79.3148 -101.404 61.722 
-79.8162 -101.036 61.6144 -79.6888 -101.672 62.1101 -79.9672 -100.387 61.0249 
-80.2924 -101.46 61.9034 -80.1652 -101.88 62.5499 -80.503 -100.82 61.3165 
-80.6483 -100.218 60.6795 -80.9159 -101.821 62.1554 -80.8488 -102.055 62.9454 
-81.1052 -101.321 61.5094 -81.2747 -100.647 60.8643 -81.2751 -100.097 60.2025 
-81.6299 -102.019 62.4046 -81.5929 -102.305 63.1826 -81.7289 -101.692 61.645 
-81.8693 -101.074 60.9747 -81.8861 -100.466 60.2954 -81.7453 -100.103 59.57 
-82.2214 -102.277 62.5519 -82.1176 -102.787 63.1703 -82.33 -101.915 61.7598 
-82.4428 -101.437 61.0162 -82.4834 -100.819 60.3647 -82.4217 -100.367 59.7128 
-82.2142 -100.122 58.9468 -82.5291 -102.776 62.4347 -82.3354 -103.401 62.8842 
-82.7883 -102.245 61.7712 -83.0182 -101.782 61.0202 -83.0969 -101.263 60.3471 
-83.1215 -100.7 59.7778 -83.0616 -100.248 59.1582 -82.7553 -99.9905 58.3924 
-82.687 -103.341 62.067 -82.4306 -103.933 62.4134 -83.0916 -102.729 61.6166 
-83.4948 -102.179 61.018 -83.657 -101.707 60.3414 -83.688 -101.208 59.7034 
-83.769 -100.585 59.1477 -83.6908 -100.064 58.5602 -83.2746 -99.846 57.8593 
-82.9218 -103.815 61.6682 -82.6065 -104.352 61.9549 -83.4024 -103.211 61.3883 
-83.8924 -102.615 60.9873 -84.1061 -102.089 60.3937 -84.0911 -101.64 59.657 
-84.1449 -101.093 58.9691 -84.2646 -100.414 58.4595 -84.1578 -99.9489 57.975 
-83.7212 -99.8146 57.3706 -83.1658 -104.443 61.4821 -83.663 -103.821 61.2738 
-83.9376 -104.503 61.2477 -84.4469 -103.815 60.9509 -84.5144 -104.497 60.8073 
-84.2151 -103.182 60.982 -84.7957 -103.813 60.1481 -84.6949 -104.414 59.6955 
-84.7663 -103.175 60.372 -84.4953 -102.569 60.4474 -84.8378 -103.717 58.8395 
-84.7977 -104.228 58.3553 -84.8602 -103.126 59.2337 -84.7583 -102.505 59.5081 
-84.4528 -102.004 59.6386 -85.04 -103.442 57.7345 -84.9434 -103.914 57.4112 
-85.0282 -102.899 58.0512 -85.0261 -102.341 58.3086 -84.8064 -101.848 58.544 
-84.439 -101.479 58.7538 -85.2375 -103.104 56.9715 -84.8655 -103.534 56.7056 
-85.502 -102.61 57.2522 -85.7441 -102.12 57.4432 -85.6235 -101.658 57.5906 
-85.0505 -101.236 57.8225 -84.5768 -100.825 58.14 -85.1247 -102.826 56.232 
-84.6008 -103.183 56.0197 -85.7641 -102.441 56.4918 -86.473 -102.002 56.7608 
-86.7315 -101.524 56.9651 -86.0782 -101.025 57.1922 -85.1888 -100.566 57.4892 
-84.6578 -100.19 57.7814 -84.8962 -102.618 55.5569 -84.4147 -102.934 55.4086 
-85.6022 -102.334 55.706 -86.5328 -101.955 55.948 -87.2489 -101.438 56.258 
-86.9889 -100.872 56.5922 -85.9749 -100.391 56.9238 -85.1062 -100.072 57.1832 
-84.4616 -99.8952 57.3267 -84.7552 -102.497 54.9662 -84.3422 -102.818 54.8231 
-85.2993 -102.227 55.0825 -86.0241 -101.887 55.2526 -86.7829 -101.372 55.5319 
-87.0067 -100.78 55.8767 -86.4144 -100.292 56.2102 -85.5406 -99.9968 56.4747 
-84.7725 -99.8619 56.6394 -83.983 -99.7967 56.7154 -83.1595 -99.5377 56.1666 
-83.9838 -99.6383 56.0363 -83.1569 -99.1936 55.6047 -84.7848 -99.7453 55.869 
-83.8683 -99.3719 55.3482 -83.0882 -98.888 55.0118 -85.4601 -99.9372 55.6831 
-84.4768 -99.6257 55.068 -83.6012 -99.2056 54.6116 -82.9289 -98.7636 54.2055 
-85.9932 -100.273 55.4872 -84.8811 -99.9294 54.8698 -84.0481 -99.5218 54.1797 
-83.3529 -99.1227 53.6766 -82.6932 -98.5932 53.2574 -86.1204 -100.79 55.2251 
-85.1148 -100.306 54.7026 -84.4576 -99.7718 53.8119 -83.9402 -99.2667 53.084 
-83.126 -98.901 52.772 -82.3389 -98.2117 52.4949 -85.7911 -101.388 54.905 
-85.1563 -100.832 54.4309 -84.7843 -100.155 53.4869 -84.6112 -99.4046 52.5323 
-83.8394 -98.9845 52.2499 -82.6641 -98.6254 52.1988 -81.9607 -97.8119 51.8079 
-85.3375 -101.872 54.6207 -85.0535 -101.394 54.0859 -84.8648 -100.74 53.2224 
-84.9198 -99.9088 52.2235 -84.423 -99.2664 51.8377 -83.1538 -98.9572 51.9209 
-82.0892 -98.447 51.6155 -81.7613 -97.5803 50.9236 -84.9147 -102.228 54.4051 
-84.8418 -101.866 53.7687 -84.6813 -101.319 53.0369 -84.6699 -100.613 52.2455 
-84.366 -99.9373 51.784 -83.3446 -99.4736 51.7615 -82.2435 -99.0305 51.5168 
-81.7527 -98.3538 50.7909 -81.6887 -97.583 50.0929 -84.4971 -102.573 54.2324 
-84.5081 -102.291 53.5386 -84.3417 -101.832 52.9008 -84.1708 -101.223 52.3829 
-83.868 -100.641 52.0114 -83.0955 -100.149 51.8214 -82.1757 -99.6395 51.513 
-81.7068 -99.034 50.817 -81.6253 -98.3929 50.0578 -81.5191 -97.8152 49.6387 
-82.5602 -99.102 55.9418 -82.6059 -98.6905 55.4001 -82.2776 -98.4739 55.7699 
-82.5556 -98.3776 54.6977 -82.2167 -98.0793 55.0927 -81.887 -97.7893 55.5173 
-82.4079 -98.0917 53.7409 -82.0809 -97.6588 54.2402 -81.6764 -97.3885 54.7226 
-81.1597 -97.2456 55.1734 -82.1814 -97.6302 52.8141 -81.9743 -97.1417 53.2903 
-81.5923 -96.8915 53.8844 -81.0718 -96.8454 54.4187 -80.4936 -96.9863 54.8027 
-81.931 -97.1182 52.028 -81.8364 -96.6633 52.4448 -81.5082 -96.4763 52.9993 
-81.0407 -96.363 53.5809 -80.4671 -96.5118 54.0429 -79.8564 -96.8532 54.4262 
-81.7956 -96.8025 51.0962 -81.682 -96.3705 51.562 -81.2301 -96.2803 52.1331 
-80.6888 -96.0013 52.638 -80.229 -95.7705 53.1164 -79.6731 -96.1565 53.5995 
-79.0617 -96.6386 54.1516 -81.7197 -96.7814 50.1638 -81.5656 -96.2684 50.5746 
-80.9766 -96.167 51.2215 -80.2012 -95.8541 51.8132 -79.7353 -95.195 52.274 
-79.4347 -95.1905 52.7576 -78.9449 -95.9179 53.3645 -78.3765 -96.4054 54.0722 
-81.4738 -97.0506 49.645 -81.3257 -96.4026 49.8527 -80.8253 -96.1163 50.3478 
-80.0018 -95.8569 51.0433 -79.3899 -95.1756 51.6921 -79.187 -94.7303 52.1869 
-78.9329 -95.2211 52.6887 -78.4035 -95.961 53.36 -77.8436 -96.2276 54.1048 
-81.0308 -97.753 49.499 -80.8549 -96.9665 49.5391 -80.2367 -97.6984 49.4562 
-80.0285 -96.8982 49.3919 -79.5158 -97.5275 49.1913 -80.5911 -96.338 49.6678 
-79.2482 -96.8036 49.0646 -78.8917 -97.404 48.8608 -79.7153 -96.3131 49.4324 
-79.9948 -96.0062 50.155 -78.2849 -96.7727 48.87 -77.9216 -97.4756 48.7147 
-78.6785 -96.3509 49.2258 -79.1058 -96.0471 50.0172 -79.2931 -95.5889 50.9955 
-77.0487 -96.8378 48.8525 -76.6805 -97.6576 48.6568 -77.4163 -96.3678 49.195 
-77.9505 -96.2215 49.8926 -78.5564 -95.8115 50.9446 -78.947 -95.0771 51.7517 
-76.0229 -97.1324 48.8825 -75.7661 -97.9843 48.7718 -76.4054 -96.4965 49.2613 
-76.8265 -96.2531 49.8043 -77.4504 -96.1166 50.6814 -78.204 -95.6762 51.6334 
-78.7297 -95.1955 52.2437 -75.4465 -97.7212 49.1645 -75.3475 -98.5221 49.2037 
-75.8227 -97.0284 49.5051 -76.2144 -96.5005 49.9737 -76.4995 -96.1659 50.541 
-76.9807 -96.0004 51.3434 -77.6946 -95.8732 52.1571 -78.2216 -95.8008 52.8063 
-75.1331 -98.3761 49.7106 -75.1226 -99.114 49.7299 -75.3414 -97.7048 49.9812 
-75.7242 -97.1284 50.4081 -75.9759 -96.5477 50.8146 -76.0757 -96.1015 51.354 
-76.4162 -95.9953 52.1084 -77.0473 -96.0388 52.906 -77.5744 -96.0846 53.5877 
-74.8814 -98.9153 50.2465 -74.8379 -99.5765 50.1284 -74.9047 -98.209 50.4763 
-75.0801 -97.6375 50.8028 -75.3861 -97.1591 51.1433 -75.5968 -96.623 51.5938 
-75.7057 -96.1992 52.2557 -76.0132 -96.0345 53.0316 -76.5696 -96.0033 53.7589 
-77.0966 -96.0763 54.3164 -81.382 -98.4706 49.528 -80.7947 -98.4807 49.3638 
-81.246 -99.1044 49.3765 -80.6867 -99.1241 49.0205 -81.0289 -99.7092 49.2402 
-79.9877 -98.355 49.1982 -80.544 -99.7798 48.7205 -80.6034 -100.305 49.3151 
-79.9341 -98.9546 48.7626 -79.3122 -98.1139 48.9232 -80.1386 -100.537 48.786 
-80.0556 -100.882 49.5755 -79.7713 -99.7732 48.5724 -79.0937 -98.8242 48.7277 
-78.5545 -98.1113 48.7475 -79.6113 -101.267 49.0545 -79.6609 -101.502 49.7778 
-79.3353 -100.797 48.7287 -78.6554 -99.8884 48.7737 -77.9868 -99.029 48.7547 
-77.3952 -98.3554 48.6514 -79.2235 -101.954 49.2502 -79.4098 -102.232 49.8633 
-78.878 -101.646 48.9348 -78.1842 -101.027 48.85 -77.4165 -100.165 48.7528 
-76.8549 -99.3711 48.6812 -76.2931 -98.6241 48.6924 -78.873 -102.662 49.4548 
-79.0589 -102.92 50.012 -78.5095 -102.292 49.166 -77.8437 -101.832 48.9574 
-77.0745 -101.228 48.6897 -76.5564 -100.509 48.666 -76.1597 -99.7313 48.93 
-75.6974 -99.0128 49.0974 -78.423 -103.229 49.8218 -78.6283 -103.382 50.3201 
-78.0714 -102.872 49.5392 -77.477 -102.409 49.2762 -76.7716 -101.979 48.8507 
-76.2894 -101.539 48.6437 -76.0249 -100.922 49.001 -75.7092 -100.17 49.4528 
-75.3605 -99.5365 49.607 -77.9965 -103.558 50.2679 -78.3181 -103.681 50.6666 
-77.5696 -103.322 49.9704 -77.0109 -102.961 49.6634 -76.3916 -102.576 49.2284 
[...]
CELL_DATA 2000
SCALARS Distance double
LOOKUP_TABLE default
140.223 140.229 139.999 139.549 140.284 140.028 139.58 139.332 138.899 
140.38 140.119 139.674 139.392 138.921 138.677 138.244 140.408 140.182 
139.728 139.48 138.992 138.715 138.208 137.981 137.527 140.395 140.164 
139.679 139.469 138.986 138.756 138.236 137.964 137.444 137.234 136.81 
140.414 140.162 139.666 139.415 138.929 138.712 138.232 137.986 137.461 
137.192 136.708 136.537 136.176 140.42 140.19 139.728 139.455 138.967 
138.692 138.21 137.967 137.482 137.222 136.717 136.473 136.034 135.909 
135.566 140.417 140.196 139.772 139.535 139.079 138.783 138.269 137.971 
137.474 137.228 136.766 136.514 136.059 135.823 135.424 135.292 134.952 
140.461 140.216 139.801 139.579 139.162 138.9 138.399 138.064 137.53 
137.239 136.8 136.573 136.177 135.915 135.513 135.257 134.907 134.733 
134.435 140.681 141.338 140.898 140.67 141.95 141.538 141.319 140.89 
140.706 142.57 142.171 142.008 141.568 141.398 140.964 140.804 143.235 
142.84 142.734 142.301 142.146 141.682 141.5 141.055 140.857 143.908 
143.52 143.412 143.022 142.857 142.415 142.19 141.739 141.519 141.082 
140.864 144.543 144.161 144.004 143.644 143.464 143.068 142.826 142.39 
142.153 141.733 141.527 141.095 140.878 145.055 144.722 144.521 144.185 
144.003 143.641 143.436 143.016 142.8 142.373 142.183 141.757 141.551 
141.104 140.869 145.386 145.135 144.939 144.659 144.502 144.182 144.022 
143.637 143.448 143.031 142.837 142.416 142.21 141.771 141.541 141.087 
140.859 145.63 145.422 145.29 145.059 144.966 144.689 144.563 144.215 
144.015 143.633 143.395 143.016 142.772 142.387 142.155 141.748 141.534 
141.099 140.903 145.758 146.032 145.736 145.477 146.311 146.053 145.758 
145.478 145.198 146.178 146.161 145.838 145.693 145.34 145.126 144.767 
145.645 145.788 145.454 145.52 145.119 145.083 144.648 144.546 144.141 
145.098 145.22 144.91 145.001 144.642 144.693 144.29 144.279 143.874 
143.838 143.474 144.589 144.735 144.515 144.568 144.356 144.339 144.104 
144.003 143.684 143.566 143.227 143.171 142.849 143.984 144.213 144.102 
144.258 144.214 144.259 144.21 144.071 143.848 143.561 143.207 142.991 
142.664 142.578 142.269 143.405 143.624 143.579 143.828 143.864 144.095 
144.124 144.195 144.013 143.805 143.385 143.074 142.658 142.465 142.143 
142.034 141.707 142.983 143.137 143.101 143.324 143.335 143.626 143.612 
143.881 143.692 143.754 143.314 143.153 142.645 142.461 142.062 141.937 
141.589 141.468 141.1 140.764 141.264 140.807 140.357 141.748 141.298 
140.835 140.35 139.863 142.274 141.777 141.296 140.804 140.279 139.824 
139.347 142.831 142.3 141.736 141.228 140.656 140.199 139.679 139.282 
138.784 143.182 142.761 142.121 141.627 140.989 140.526 139.955 139.565 
139.057 138.673 138.107 143.198 142.957 142.365 141.95 141.314 140.847 
140.26 139.832 139.327 138.942 138.425 137.975 137.365 143.035 142.912 
142.455 142.15 141.6 141.179 140.638 140.186 139.7 139.268 138.795 
138.338 137.784 137.261 136.676 142.866 142.789 142.447 142.237 141.777 
141.446 140.956 140.569 140.102 139.684 139.209 138.752 138.223 137.712 
137.151 136.637 136.164 142.763 142.683 142.405 142.247 141.852 141.592 
141.135 140.829 140.38 140.04 139.564 139.152 138.613 138.141 137.596 
137.116 136.663 136.225 135.909 140.362 139.939 139.988 139.671 139.461 
139.53 139.21 139.303 139.015 138.957 139.032 138.681 138.79 138.453 
138.585 138.231 138.363 138.47 138.048 138.183 137.781 137.942 137.549 
137.707 137.341 137.625 137.769 137.289 137.46 137.035 137.221 136.855 
137.022 136.707 136.868 136.618 136.842 136.97 136.499 136.674 136.293 
136.483 136.153 136.339 136.049 136.249 136.014 136.222 136.008 136.163 
136.225 135.799 135.944 135.621 135.794 135.435 135.604 135.2 135.46 
135.145 135.499 135.27 135.571 135.338 135.707 135.667 135.274 135.343 
135.046 135.178 134.793 134.878 134.345 134.498 134.076 134.463 134.279 
134.731 134.601 134.906 134.731 135.509 135.367 134.985 134.932 134.619 
134.663 134.313 134.312 133.823 133.772 133.355 133.505 133.407 133.794 
133.854 134.208 134.167 134.384 134.262 135.347 134.887 135 134.78 
134.298 134.471 134.242 134.438 134.329 133.675 133.841 133.619 133.847 
133.721 134.008 133.947 133.073 133.213 132.962 133.202 133.11 133.401 
133.34 133.6 133.478 132.455 132.577 132.27 132.515 132.443 132.798 
132.859 133.109 133.067 133.175 133.104 132.051 132.027 131.766 131.887 
131.82 132.131 132.263 132.636 132.775 132.956 133.01 133.051 133.203 
132.146 131.894 131.761 131.658 131.676 131.718 131.817 132.051 132.215 
132.566 132.744 133.008 133.193 133.348 133.612 132.59 132.238 132.133 
131.908 131.971 131.843 131.92 131.852 131.905 132.033 132.177 132.537 
132.762 133.154 133.369 133.672 133.872 133.022 132.729 132.559 132.314 
132.261 132.143 132.165 132.071 132.076 131.978 132.029 132.1 132.291 
132.593 132.842 133.226 133.432 133.775 133.949 135.653 135.988 135.636 
135.216 136.274 135.947 135.497 135.118 134.617 136.525 136.221 135.767 
135.37 134.845 134.471 133.986 136.772 136.498 136.118 135.692 135.178 
134.728 134.253 133.885 133.435 137.045 136.784 136.523 136.132 135.685 
135.157 134.652 134.197 133.745 133.35 132.867 137.403 137.109 136.894 
136.569 136.212 135.719 135.199 134.66 134.178 133.718 133.288 132.832 
132.445 137.797 137.499 137.26 136.948 136.621 136.21 135.735 135.218 
134.76 134.259 133.935 133.424 133.167 132.644 132.503 138.086 137.851 
137.596 137.302 136.955 136.585 136.142 135.704 135.301 134.874 134.638 
134.201 134.053 133.531 133.416 132.911 132.906 138.269 138.075 137.819 
137.576 137.226 136.898 136.473 136.087 135.706 135.359 135.127 134.833 
134.674 134.332 134.151 133.757 133.62 133.274 133.251 142.664 142.357 
142.449 142.27 141.924 142.066 141.849 141.962 141.702 141.412 141.563 
141.331 141.475 141.189 141.302 140.994 140.902 141.008 140.724 140.895 
140.606 140.755 140.444 140.57 140.261 140.379 140.462 140.082 140.238 
139.917 140.114 139.795 139.975 139.637 139.796 139.44 139.788 139.9 
139.51 139.609 139.246 139.398 139.054 139.254 138.884 139.087 138.682 
138.876 138.462 139.206 139.327 139.026 139.097 138.74 138.79 138.412 
138.523 138.156 138.317 137.936 138.098 137.702 137.871 137.478 138.776 
138.847 138.616 138.673 138.358 138.355 137.965 137.972 137.618 137.691 
137.39 137.474 137.172 137.238 136.921 136.992 136.656 138.491 138.521 
138.31 138.333 138.056 138.023 137.668 137.613 137.285 137.283 137.032 
137.067 136.835 136.856 136.6 136.599 136.314 136.301 135.992 142.85 
143.164 142.856 142.579 143.638 143.222 142.855 142.52 142.156 144.133 
143.706 143.253 142.818 142.376 142.048 141.665 144.413 144.109 143.65 
143.221 142.745 142.335 141.959 141.617 141.257 144.389 144.23 143.813 
143.537 143.092 142.728 142.355 141.995 141.646 141.25 140.812 144.226 
144.102 143.706 143.576 143.17 142.963 142.55 142.305 141.89 141.591 
141.083 140.701 140.155 144.103 143.939 143.538 143.428 143.051 142.924 
142.481 142.314 141.826 141.646 141.115 140.85 140.271 139.957 139.469 
144.033 143.856 143.466 143.312 142.97 142.82 142.42 142.208 141.732 
141.517 141.059 140.837 140.378 140.077 139.631 139.336 139.001 143.948 
143.811 143.462 143.294 142.976 142.806 142.466 142.23 141.816 141.53 
141.139 140.884 140.558 140.275 139.93 139.587 139.248 138.958 138.703 
143.777 143.391 143.514 143.337 142.9 143.089 142.926 143.05 142.857 
142.319 142.542 142.39 142.585 142.403 142.551 142.33 141.741 141.952 
141.788 142.003 141.817 142.022 141.802 141.961 141.684 141.111 141.35 
141.143 141.37 141.135 141.366 141.131 141.36 141.125 141.288 141.03 
140.389 140.655 140.419 140.669 140.388 140.626 140.344 140.617 140.404 
140.682 140.504 140.688 140.472 139.7 139.935 139.721 139.94 139.676 
139.874 139.587 139.819 139.587 139.899 139.746 140.073 139.902 140.117 
139.858 139.12 139.32 139.162 139.329 139.112 139.24 138.991 139.14 
138.916 139.131 138.946 139.25 139.086 139.412 139.201 139.433 139.167 
138.626 138.809 138.695 138.849 138.655 138.751 138.504 138.616 138.412 
138.562 138.377 138.545 138.353 138.59 138.419 138.704 138.536 138.767 
138.594 138.338 137.874 138.22 138.395 137.185 137.643 137.788 138.194 
138.301 136.412 136.861 136.989 137.458 137.574 138.012 138.119 135.788 
136.15 136.294 136.684 136.864 137.285 137.497 137.894 138.075 135.07 
135.514 135.658 136.077 136.302 136.7 136.983 137.359 137.603 137.922 
138.074 134.156 134.642 134.763 135.334 135.575 136.124 136.404 136.865 
137.086 137.448 137.567 137.874 137.984 133.585 133.827 133.98 134.43 
134.73 135.304 135.618 136.169 136.386 136.841 136.964 137.328 137.441 
137.79 137.987 133.505 133.553 133.757 133.942 134.296 134.636 135.001 
135.41 135.677 136.102 136.313 136.72 136.936 137.293 137.539 137.884 
138.147 133.423 133.541 133.715 133.882 134.182 134.411 134.723 134.974 
135.218 135.513 135.768 136.143 136.468 136.854 137.187 137.514 137.797 
138.085 138.301 138.217 137.936 137.964 137.738 137.643 137.647 137.328 
137.39 137.069 137.237 137.271 136.875 136.927 136.549 136.628 136.296 
136.745 136.779 136.361 136.423 136.033 136.107 135.797 135.906 135.661 
136.286 136.266 135.843 135.903 135.559 135.627 135.329 135.425 135.168 
135.294 134.978 135.888 135.826 135.384 135.42 135.099 135.177 134.857 
134.941 134.612 134.743 134.399 134.507 134.113 135.588 135.479 135.062 
135.028 134.698 134.732 134.376 134.422 134.029 134.134 133.812 133.945 
133.683 133.743 133.543 135.455 135.297 134.954 134.829 134.525 134.428 
134.079 133.992 133.609 133.599 133.334 133.441 133.333 133.441 133.392 
133.435 133.428 135.426 135.265 134.989 134.838 134.586 134.4 134.081 
133.857 133.5 133.338 133.086 133.092 133.013 133.147 133.149 133.286 
133.272 133.37 133.329 138.47 138.984 138.547 138.267 139.709 139.189 
138.857 138.371 138.036 140.387 139.919 139.544 139.002 138.564 138.084 
137.657 141.029 140.562 140.203 139.655 139.158 138.609 138.134 137.662 
137.208 141.799 141.261 140.939 140.348 139.886 139.246 138.77 138.207 
137.796 137.269 136.825 142.545 142.026 141.666 141.116 140.683 140.044 
139.554 138.921 138.487 137.925 137.492 136.918 136.442 143.12 142.65 
142.193 141.728 141.257 140.762 140.243 139.673 139.133 138.581 138.081 
137.554 137.056 136.516 136.072 143.583 143.151 142.662 142.173 141.66 
141.209 140.706 140.234 139.683 139.152 138.606 138.089 137.613 137.107 
136.685 136.19 135.865 143.898 143.576 143.151 142.669 142.157 141.636 
141.141 140.661 140.185 139.678 139.197 138.657 138.241 137.715 137.373 
136.849 136.537 136.049 135.8 143.873 143.602 143.605 143.205 143.184 
143.259 142.86 142.803 142.238 142.66 142.743 142.321 142.363 141.826 
141.757 141.181 142.248 142.233 141.801 141.806 141.324 141.302 140.781 
140.728 140.212 141.987 141.916 141.523 141.422 140.987 140.884 140.434 
140.352 139.885 139.797 139.289 141.663 141.645 141.265 141.214 140.801 
140.675 140.227 140.088 139.651 139.529 139.063 138.912 138.405 141.226 
141.229 140.782 140.836 140.411 140.427 139.951 139.877 139.383 139.295 
138.83 138.721 138.229 138.065 137.559 140.795 140.757 140.252 140.274 
139.822 139.905 139.458 139.488 138.985 138.955 138.456 138.419 137.926 
137.845 137.321 137.199 136.701 140.41 140.352 139.863 139.8 139.356 
139.356 138.969 138.988 138.583 138.551 138.104 138.039 137.569 137.492 
136.989 136.899 136.405 136.329 135.917 140.049 139.376 139.653 139.524 
138.75 139.009 138.903 139.142 139.036 138.12 138.404 138.333 138.572 
138.479 138.704 138.637 137.398 137.728 137.645 137.965 137.877 138.151 
138.056 138.318 138.245 136.669 136.964 136.795 137.146 136.993 137.404 
137.306 137.684 137.581 137.882 137.773 136.066 136.285 136.055 136.27 
135.997 136.369 136.245 136.771 136.722 137.155 137.019 137.337 137.198 
135.483 135.716 135.511 135.631 135.304 135.455 135.264 135.682 135.705 
136.219 136.169 136.536 136.351 136.694 136.563 134.831 135.088 134.916 
135.106 134.838 134.916 134.692 134.89 134.903 135.3 135.367 135.721 
135.612 135.875 135.717 136.062 135.995 134.248 134.425 134.233 134.467 
134.28 134.46 134.286 134.44 134.392 134.658 134.73 135.042 135.041 
135.258 135.159 135.356 135.295 135.589 135.587 135.311 135.076 135.094 
134.934 134.928 134.905 134.74 134.75 134.554 134.745 134.73 134.463 
134.495 134.23 134.279 133.993 134.441 134.457 134.08 134.101 133.723 
133.821 133.497 133.62 133.35 134.163 134.14 133.784 133.709 133.271 
133.264 132.914 133.049 132.842 133.02 132.917 134 133.924 133.641 
133.524 133.16 132.981 132.616 132.556 132.356 132.506 132.495 132.727 
132.817 133.868 133.762 133.437 133.392 133.11 132.994 132.688 132.488 
132.238 132.165 132.125 132.303 132.459 132.741 132.939 133.811 133.633 
133.252 133.162 132.859 132.852 132.608 132.559 132.345 132.223 132.117 
132.091 132.187 132.378 132.607 132.887 133.082 133.924 133.679 133.36 
133.111 132.799 132.637 132.378 132.356 132.197 132.235 132.165 132.168 
132.173 132.218 132.328 132.526 132.703 132.979 133.127 145.82 145.619 
145.845 146.072 145.273 145.586 145.755 146.016 146.143 144.711 145.108 
145.206 145.541 145.551 145.893 145.944 144.022 144.442 144.524 144.89 
144.876 145.202 145.221 145.621 145.724 143.321 143.72 143.812 144.195 
144.256 144.571 144.65 144.975 145.13 145.479 145.579 142.689 143.046 
143.145 143.512 143.614 143.975 144.103 144.464 144.618 144.959 145.032 
145.303 145.238 142.121 142.461 142.571 142.898 142.979 143.329 143.415 
143.829 143.929 144.358 144.377 144.711 144.598 144.854 144.723 141.512 
141.883 141.975 142.323 142.37 142.7 142.716 143.082 143.098 143.531 
143.535 143.952 143.893 144.206 144.122 144.383 144.356 140.813 141.204 
141.244 141.643 141.663 142.042 142.038 142.383 142.349 142.698 142.667 
143.07 143.077 143.484 143.507 143.832 143.853 144.116 144.134 146.015 
146.235 146.202 146.35 146.391 146.425 146.51 146.467 146.493 146.335 
146.532 146.708 146.652 146.576 146.459 146.276 146.111 146.399 146.649 
146.762 146.72 146.59 146.351 146.154 145.892 145.835 146.122 146.276 
146.514 146.452 146.545 146.327 146.263 146.029 145.856 145.697 145.465 
145.785 145.913 146.116 146.031 146.128 145.906 146.012 145.808 145.889 
145.725 145.707 145.599 145.007 145.364 145.637 145.865 145.97 145.932 
145.801 145.679 145.481 145.505 145.328 145.468 145.292 145.441 145.276 
144.637 144.947 145.295 145.629 145.923 146.037 146.075 145.878 145.679 
145.405 145.143 145.042 144.813 144.923 144.736 144.94 144.749 144.363 
144.625 144.89 145.25 145.508 145.848 145.925 146.039 145.835 145.672 
145.287 145.032 144.663 144.546 144.311 144.391 144.245 144.399 144.231 
145.993 146.395 146.226 146.287 146.593 146.613 146.75 146.594 146.596 
146.329 146.612 146.827 146.945 146.937 146.745 146.476 145.797 146.111 
146.296 146.729 146.788 146.878 146.568 146.359 145.918 145.532 145.595 
145.636 146.023 146.154 146.487 146.301 146.292 145.876 145.711 145.317 
145.547 145.49 145.435 145.517 145.612 145.863 145.846 145.951 145.664 
145.598 145.23 145.114 144.748 145.364 145.477 145.425 145.439 145.42 
145.51 145.514 145.6 145.444 145.404 145.089 144.981 144.605 144.487 
144.099 144.849 145.128 145.076 145.26 145.142 145.288 145.193 145.329 
145.21 145.239 144.995 144.886 144.529 144.355 143.964 143.825 143.49 
144.261 144.53 144.439 144.706 144.547 144.798 144.641 144.89 144.761 
144.945 144.756 144.777 144.458 144.319 143.927 143.745 143.398 143.282 
143.042 138.716 139.252 139.03 139.221 139.875 139.626 139.834 139.651 
139.934 140.589 140.309 140.512 140.285 140.533 140.363 140.608 141.309 
141.053 141.27 141.009 141.246 140.996 141.237 141.017 141.264 141.915 
141.722 141.952 141.756 142.03 141.781 142.055 141.76 142.052 141.775 
142.077 142.481 142.289 142.509 142.364 142.662 142.523 142.844 142.625 
142.935 142.657 142.968 142.665 142.906 143.062 142.867 143.077 142.91 
143.215 143.11 143.496 143.368 143.738 143.525 143.843 143.565 143.805 
143.448 143.557 143.546 143.408 143.583 143.448 143.722 143.655 144.086 
144.031 144.51 144.344 144.731 144.444 144.688 144.327 144.424 144.011 
144.007 143.935 143.828 143.969 143.863 144.059 144.053 144.423 144.523 
145.019 145.06 145.491 145.327 145.557 145.205 145.234 144.814 144.728 
144.335 144.234 
POINT_DATA 1002
SCALARS Distance double
LOOKUP_TABLE default
139.767 140.449 140.453 139.778 140.457 139.104 139.85 140.548 139.114 
138.481 139.96 140.634 139.213 138.439 137.812 139.954 140.638 139.27 
138.494 137.692 137.077 139.902 140.647 139.183 138.508 137.707 136.934 
136.421 139.938 140.656 139.159 138.445 137.743 136.935 136.257 135.853 
139.976 140.629 139.269 138.473 137.714 136.989 136.228 135.62 135.227 
139.983 140.641 139.36 138.609 137.727 136.984 136.328 135.622 135.03 
134.6 140.024 140.72 139.395 138.732 137.856 137.009 136.408 135.798 
135.121 134.57 134.137 141.143 141.1 141.771 141.743 142.337 141.115 
142.434 142.94 141.847 141.232 143.147 143.617 142.623 141.969 141.301 
143.796 144.314 143.296 142.655 141.949 141.308 144.375 144.943 143.843 
143.255 142.569 141.943 141.332 144.85 145.375 144.34 143.828 143.226 
142.608 141.999 141.325 145.182 145.604 144.788 144.38 143.859 143.261 
142.642 141.991 141.308 145.481 145.806 145.209 144.902 144.408 143.779 
143.144 142.531 141.946 141.351 145.987 145.741 146.37 146.051 146.513 
145.484 145.92 146.103 145.545 144.993 145.345 145.491 145.099 144.714 
144.238 144.827 144.979 144.561 144.269 143.888 143.499 144.402 144.386 
144.318 144.191 143.853 143.312 142.872 143.851 143.715 144.056 144.272 
144.171 143.522 142.791 142.331 143.308 143.193 143.58 143.959 144.145 
143.724 142.911 142.274 141.826 142.912 142.844 143.086 143.341 143.539 
143.392 142.825 142.199 141.713 141.23 140.344 140.849 139.877 141.334 
140.323 139.389 141.799 140.754 139.761 138.892 142.278 141.132 140.083 
139.194 138.267 142.615 141.473 140.363 139.421 138.558 137.496 142.717 
141.764 140.706 139.714 138.848 137.872 136.728 142.681 141.97 141.069 
140.141 139.245 138.296 137.185 136.115 142.601 142.06 141.302 140.499 
139.667 138.718 137.656 136.612 135.767 142.536 142.08 141.416 140.687 
139.954 139.074 138.05 137.082 136.296 135.666 139.595 139.117 138.918 
138.591 138.336 138.106 137.929 137.624 137.384 137.159 137.112 136.827 
136.655 136.525 136.437 136.302 136.083 135.969 135.837 135.785 135.821 
135.647 135.448 135.332 135.007 134.758 134.893 135.097 135.241 134.936 
134.754 134.296 133.731 133.739 134.205 134.502 135.095 134.621 134.301 
133.887 133.289 133.045 133.439 133.919 134.081 135.28 134.627 134.754 
134.033 134.109 134.068 133.384 133.533 133.443 133.656 132.724 132.965 
132.781 133.108 133.259 132.045 132.359 132.043 132.509 132.965 132.98 
131.68 132.117 131.576 131.845 132.439 132.926 133.127 131.887 132.435 
131.72 131.735 131.871 132.337 132.973 133.481 132.395 132.941 132.12 
132.076 131.952 131.893 132.305 133.011 133.618 132.852 133.273 132.431 
132.234 132.188 132.091 132.104 132.467 133.052 133.629 136.014 135.614 
136.335 135.891 136.596 134.987 136.176 136.805 135.233 134.316 136.514 
137 135.666 134.634 133.808 136.839 137.299 136.218 135.174 134.151 
133.279 137.191 137.722 136.653 135.769 134.659 133.727 132.86 137.587 
138.083 137.003 136.209 135.229 134.393 133.688 132.956 137.884 138.293 
137.318 136.545 135.675 135.002 134.522 133.95 133.342 138.049 138.466 
137.526 136.834 136.044 135.402 134.977 134.525 133.98 133.54 142.615 
142.197 142.261 141.741 141.771 141.611 141.178 141.287 141.075 140.881 
140.561 140.858 140.434 140.309 140.142 139.967 140.312 139.72 139.6 
139.476 139.294 139.422 139.629 139.143 138.876 138.687 138.491 138.262 
138.93 139.059 138.726 138.353 138.007 137.775 137.542 137.302 138.555 
138.717 138.364 137.985 137.557 137.292 137.106 136.87 136.593 143.091 
142.862 143.54 143.266 144.11 142.437 143.742 144.548 142.753 141.939 
144.038 144.654 143.169 142.313 141.626 144 144.516 143.404 142.704 
142.049 141.266 143.794 144.369 143.327 142.783 142.163 141.458 140.524 
143.656 144.285 143.165 142.665 141.997 141.319 140.569 139.72 143.627 
144.187 143.115 142.632 141.964 141.236 140.624 139.944 139.23 143.619 