# vtk DataFile Version 4.0
vtk output
ASCII
DATASET POLYDATA
POINTS 1002 float
-80.2736 -105.4 51.0161 -80.507 -105.681 51.694 -80.8909 -105.338 51.4225 
-80.7892 -105.185 50.563 -81.3694 -105.099 51.0002 -80.0001 -105.115 50.2497 
-81.3865 -105.091 50.0284 -81.9369 -105.019 50.4795 -80.584 -104.997 49.6749 
-79.8135 -104.913 49.3494 -81.9123 -104.893 49.6483 -82.3751 -104.688 50.0812 
-81.1007 -104.76 49.2511 -80.3085 -104.623 48.8998 -79.6415 -104.551 48.5386 
-82.1525 -104.226 49.4521 -82.5461 -103.899 49.7846 -81.4577 -104.226 49.0549 
-80.6723 -104.087 48.6582 -79.9865 -104.042 48.2703 -79.2679 -103.945 47.9294 
-82.1883 -103.347 49.1038 -82.7074 -103.146 49.3202 -81.6592 -103.521 48.7283 
-81.0733 -103.575 48.2673 -80.3892 -103.593 47.8817 -79.5887 -103.563 47.5461 
-78.7261 -103.423 47.273 -82.3977 -102.767 48.5166 -83.0623 -102.73 48.7262 
-81.8885 -102.977 48.0991 -81.5156 -103.269 47.5181 -80.9434 -103.407 47.1197 
-80.0832 -103.358 46.8947 -79.1243 -103.227 46.6756 -78.2698 -103.103 46.4571 
-82.7783 -102.384 48.0036 -83.385 -102.347 48.2782 -82.2811 -102.567 47.5052 
-81.959 -102.95 46.8035 -81.3986 -103.183 46.3528 -80.5013 -103.093 46.2185 
-79.5597 -102.921 46.0776 -78.7202 -102.86 45.8416 -78.0185 -102.861 45.5999 
-83.0092 -101.889 47.6918 -83.494 -101.785 48.0118 -82.5779 -102.068 47.166 
-82.2951 -102.416 46.4291 -81.7287 -102.673 45.9319 -80.7357 -102.598 45.8144 
-79.8076 -102.428 45.6904 -79.113 -102.436 45.3942 -78.488 -102.578 45.0449 
-77.9001 -102.695 44.7591 -83.085 -101.307 47.4385 -83.5155 -101.179 47.7737 
-82.6418 -101.479 46.9602 -82.3466 -101.761 46.2876 -81.8916 -101.999 45.7633 
-80.9771 -101.998 45.587 -80.0358 -101.923 45.422 -79.4348 -102.021 45.0605 
-78.9402 -102.248 44.6389 -78.3788 -102.46 44.2643 -77.8036 -102.591 43.9956 
-80.8304 -105.592 52.3497 -81.1421 -105.169 52.1054 -81.0611 -105.398 53.1394 
-81.3567 -104.994 52.8131 -81.403 -105.367 53.815 -81.5734 -104.888 51.6467 
-81.7927 -104.978 53.3804 -81.8388 -105.423 54.3588 -81.7849 -104.646 52.2613 
-82.0937 -104.69 51.0476 -82.2613 -104.903 53.9234 -82.0626 -105.184 54.963 
-82.2165 -104.468 52.8094 -82.2322 -104.241 51.6342 -82.485 -104.185 50.5721 
-82.4015 -104.519 54.4929 -82.082 -104.657 55.5079 -82.5917 -104.22 53.3463 
-82.5948 -103.912 52.2035 -82.643 -103.691 51.1577 -82.802 -103.472 50.1582 
-82.4774 -104.025 54.9279 -82.1991 -104.167 55.7819 -82.7705 -103.83 53.8331 
-83.0355 -103.654 52.6551 -83.1165 -103.445 51.6928 -83.1885 -103.204 50.6937 
-83.2526 -102.984 49.5781 -82.8154 -103.692 55.2251 -82.4379 -103.803 55.8969 
-83.133 -103.502 54.321 -83.4929 -103.366 53.1048 -83.7442 -103.255 52.0357 
-83.7572 -103.035 51.1777 -83.7434 -102.812 50.0782 -83.6742 -102.622 48.9764 
-83.2033 -103.459 55.4277 -82.6582 -103.439 55.9946 -83.682 -103.341 54.778 
-84.026 -103.16 53.7354 -84.2746 -103.025 52.4765 -84.3176 -102.832 51.4753 
-84.1663 -102.55 50.5576 -84.0164 -102.313 49.4797 -83.8284 -102.081 48.5771 
-83.4217 -103.101 55.5018 -82.8372 -102.98 56.0472 -84.0536 -103.117 55.0133 
-84.4505 -102.979 54.2966 -84.5946 -102.796 53.1522 -84.6435 -102.606 51.8904 
-84.548 -102.317 50.8629 -84.2914 -101.968 49.9492 -84.0367 -101.668 49.0551 
-83.806 -101.412 48.3227 -83.327 -102.469 55.6354 -84.0151 -102.565 55.1346 
-83.8503 -101.725 55.2113 -84.5201 -101.7 54.7465 -84.3183 -100.831 54.8863 
-84.5938 -102.551 54.6432 -84.7942 -100.724 54.3158 -84.4839 -100.117 54.4335 
-84.8318 -101.641 54.1684 -84.7476 -102.407 53.8423 -84.6907 -100.053 53.5368 
-84.1823 -99.7429 53.5243 -84.819 -100.681 53.4654 -84.7301 -101.533 53.1873 
-84.7136 -102.233 52.5632 -84.2561 -99.6674 52.4082 -83.6759 -99.4673 52.4398 
-84.6318 -99.9771 52.3979 -84.7037 -100.57 52.2261 -84.7489 -101.388 51.7403 
-84.7567 -102.005 51.1883 -83.7776 -99.2454 51.4463 -83.2815 -99.0759 51.64 
-84.3144 -99.4214 51.3106 -84.6626 -99.7213 51.1193 -84.8479 -100.371 50.7615 
-84.8621 -101.142 50.3729 -84.613 -101.636 50.1373 -83.3938 -98.7687 50.7864 
-82.9703 -98.6383 51.0482 -83.9808 -98.8697 50.5561 -84.5046 -99.0263 50.2512 
-84.8008 -99.4305 49.898 -84.8379 -100.13 49.629 -84.5863 -100.773 49.4805 
-84.2423 -101.224 49.3197 -83.0428 -98.3664 50.1765 -82.6555 -98.2508 50.4512 
-83.6576 -98.3817 49.9781 -84.3017 -98.4368 49.6653 -84.6655 -98.6749 49.2667 
-84.6688 -99.2089 49.003 -84.4386 -99.8808 48.8908 -84.148 -100.436 48.7604 
-83.9404 -100.916 48.5462 -82.7028 -98.0134 49.5986 -82.3624 -97.8868 49.8844 
-83.2971 -97.986 49.4458 -84.0284 -97.9298 49.2024 -84.5439 -98.0107 48.7963 
-84.597 -98.388 48.4504 -84.3466 -99.0514 48.2732 -84.0964 -99.7335 48.13 
-83.9204 -100.267 47.9641 -83.7388 -100.729 47.8382 -83.3559 -100.722 47.2354 
-83.7031 -100.304 47.1861 -83.2028 -100.295 46.6409 -83.9248 -99.8066 47.237 
-83.583 -99.8482 46.5651 -82.8667 -99.7561 46.2127 -84.0829 -99.077 47.4222 
-83.7708 -99.1891 46.6318 -83.0828 -99.168 46.2297 -82.2222 -99.0721 45.9109 
-84.3585 -98.1942 47.6638 -83.9601 -98.2204 46.8745 -83.2264 -98.3579 46.3519 
-82.2692 -98.3748 46.0104 -81.5781 -98.4124 45.3969 -84.5311 -97.5783 47.996 
-84.1984 -97.3296 47.2085 -83.4652 -97.4484 46.5694 -82.4635 -97.6706 46.1142 
-81.6394 -97.716 45.5253 -81.256 -97.7585 44.677 -84.1961 -97.4311 48.4701 
-84.0584 -96.999 47.6714 -83.4796 -96.8862 46.8759 -82.5863 -97.0905 46.2362 
-81.7563 -97.2292 45.635 -81.2509 -97.1243 44.8824 -80.9619 -97.065 44.1404 
-83.446 -97.5291 48.8632 -83.4256 -97.0837 48.2137 -83.0513 -96.7879 47.3523 
-82.3397 -96.6933 46.486 -81.5761 -96.7456 45.8103 -81.0446 -96.7399 45.1412 
-80.7006 -96.6019 44.4624 -80.3518 -96.5794 43.9613 -82.7094 -97.6197 49.0381 
-82.6631 -97.1809 48.5701 -82.4459 -96.805 47.8661 -82.0024 -96.4278 46.8997 
-81.3684 -96.1124 46.11 -80.7509 -96.0953 45.5273 -80.3198 -96.228 44.8954 
-79.9868 -96.2788 44.3376 -79.6324 -96.3673 43.9765 -82.2371 -97.5755 49.2106 
-82.0774 -97.1531 48.7266 -81.8617 -96.7413 48.187 -81.6454 -96.2787 47.3145 
-81.3498 -95.6604 46.4375 -80.8252 -95.2855 45.9117 -80.2147 -95.4715 45.4267 
-79.7485 -95.8292 44.8018 -79.414 -96.0216 44.2911 -79.1104 -96.1634 43.9622 
-82.8247 -100.849 46.8489 -82.5447 -100.374 46.2787 -82.329 -101.047 46.3059 
-82.1296 -99.7922 45.8481 -81.9209 -100.522 45.7803 -81.8909 -101.269 45.7337 
-81.6138 -99.2102 45.2928 -81.4797 -99.9482 45.2678 -81.2817 -100.638 45.305 
-81.1686 -101.342 45.4116 -81.2703 -98.6631 44.4819 -81.1541 -99.4877 44.5138 
-80.8031 -100.057 44.7334 -80.5163 -100.695 44.9274 -80.2892 -101.378 45.144 
-81.043 -97.9383 43.8199 -80.9551 -98.9726 43.754 -80.5154 -99.5982 44.0595 
-80.079 -100.149 44.3287 -79.9153 -100.969 44.4239 -79.7135 -101.632 44.6726 
-80.5212 -97.1986 43.5858 -80.5722 -98.2277 43.3448 -80.2428 -99.0668 43.512 
-79.7006 -99.6271 43.831 -79.5161 -100.487 43.8509 -79.5197 -101.448 43.8552 
-79.2876 -101.984 44.1762 -79.7349 -96.7837 43.6176 -79.8557 -97.5545 43.2438 
-79.7844 -98.4236 43.1348 -79.3752 -99.1134 43.3349 -79.0529 -99.9136 43.4234 
-79.0699 -100.961 43.3319 -79.0168 -101.801 43.4265 -78.7195 -102.227 43.7857 
-79.0743 -96.5685 43.6571 -79.1096 -97.1382 43.2399 -79.1658 -97.8365 42.9265 
-79.0273 -98.5795 42.9074 -78.733 -99.4219 42.9771 -78.5886 -100.399 42.9429 
-78.5383 -101.316 42.9556 -78.3488 -101.976 43.1398 -78.065 -102.372 43.4909 
-78.6678 -96.0801 43.6756 -78.5509 -96.6395 43.3009 -78.1019 -95.9938 43.2812 
-77.9254 -96.6211 42.8697 -77.2455 -96.0427 42.9502 -78.5251 -97.2266 42.8775 
-77.0142 -96.676 42.6446 -76.2348 -96.3189 42.8706 -77.808 -97.2262 42.6526 
-78.514 -97.9074 42.7102 -75.9818 -97.0264 42.7104 -75.4201 -96.7474 43.0117 
-76.7711 -97.455 42.709 -77.6497 -98.1172 42.7448 -78.3506 -98.8588 42.731 
-75.1424 -97.596 42.9009 -74.766 -97.228 43.2811 -75.664 -98.0333 42.7728 
-76.452 -98.6174 42.8483 -77.4013 -99.3596 42.749 -78.1271 -99.964 42.6886 
-74.4099 -98.1242 43.1765 -74.0734 -97.7214 43.6188 -74.7838 -98.609 42.7842 
-75.3088 -99.1445 42.7126 -76.1562 -99.8126 42.7598 -77.1638 -100.461 42.6616 
-77.9585 -100.915 42.6841 -73.6954 -98.5107 43.4922 -73.497 -98.1821 43.9279 
-73.9976 -98.9596 43.0017 -74.4563 -99.4722 42.6667 -75.0807 -100.052 42.6773 
-75.9566 -100.709 42.7506 -76.9408 -101.259 42.7142 -77.7514 -101.657 42.8056 
-73.1817 -98.8173 43.7976 -73.1487 -98.5787 44.2635 -73.2908 -99.2125 43.3503 
-73.6934 -99.7451 42.9677 -74.3013 -100.295 42.8032 -74.966 -100.886 42.8528 
-75.7999 -101.486 42.8667 -76.7309 -101.936 42.8519 -77.5087 -102.219 43.0442 
-72.8786 -99.1185 44.2378 -72.8509 -98.9171 44.761 -72.8494 -99.4943 43.7388 
-73.0498 -100.062 43.3714 -73.603 -100.642 43.1537 -74.2429 -101.163 43.0696 
-74.8853 -101.691 43.056 -75.7043 -102.144 43.0556 -76.59 -102.416 43.164 
-77.3033 -102.546 43.4929 -78.9318 -95.6634 44.0094 -78.4484 -95.3923 43.6342 
-78.7288 -95.0139 43.965 -78.03 -94.7283 43.5278 -78.3242 -94.5421 44.0494 
-77.6609 -95.3058 43.3259 -77.3561 -94.4111 43.6929 -77.7198 -94.4264 44.5773 
-76.9969 -94.8264 43.4444 -76.6 -95.6045 43.2423 -76.6325 -94.3732 44.4032 
-77.1484 -94.4744 45.486 -76.2695 -94.6202 43.8627 -75.9998 -95.3691 43.6714 
-75.6988 -96.1129 43.3249 -76.1009 -94.451 45.3816 -76.7326 -94.5073 46.3983 
-75.6764 -94.5106 44.6381 -75.5569 -95.1611 44.2328 -75.3892 -95.9827 43.8231 
-75.0675 -96.5641 43.4513 -75.8334 -94.6429 46.2698 -76.3809 -94.4794 47.229 
-75.3554 -94.6568 45.4802 -75.198 -95.0159 44.9507 -75.0971 -95.7978 44.3942 
-74.7407 -96.4214 43.9081 -74.3461 -96.9872 43.7076 -75.7413 -94.8293 47.1039 
-76.0942 -94.5078 47.9872 -75.3433 -95.0725 46.2514 -75.0107 -95.258 45.7034 
-74.7189 -95.7312 45.1564 -74.2889 -96.2653 44.5561 -73.855 -96.7767 44.2145 
-73.6328 -97.4785 44.0799 -75.6899 -95.0577 47.8209 -75.946 -94.844 48.4833 
-75.4121 -95.431 47.0123 -75.0088 -95.6896 46.4272 -74.4668 -95.9395 45.9465 
-73.8784 -96.2202 45.3621 -73.421 -96.5672 44.8948 -73.2376 -97.2196 44.6458 
-73.2198 -98.004 44.4569 -75.5979 -95.509 48.2634 -75.8819 -95.4781 48.7112 
-75.336 -95.7438 47.6484 -74.9536 -95.9926 47.1163 -74.3443 -96.1974 46.6695 
[...]
CELL_DATA 2000
SCALARS Distance double
LOOKUP_TABLE default
141.316 141.243 141.111 140.748 141.278 141.11 140.779 140.548 140.153 
141.269 141.172 140.804 140.579 140.127 139.931 139.51 140.89 140.995 
140.586 140.491 139.94 139.8 139.296 139.201 138.723 140.24 140.411 
140.024 140.093 139.587 139.528 139.032 138.939 138.475 138.354 137.846 
139.764 139.787 139.445 139.51 139.178 139.186 138.836 138.74 138.34 
138.167 137.697 137.497 137.008 139.505 139.44 139.107 139.089 138.853 
138.877 138.636 138.587 138.201 138.051 137.547 137.367 136.864 136.705 
136.283 139.169 139.172 138.818 138.818 138.554 138.607 138.35 138.354 
137.919 137.816 137.247 137.129 136.607 136.522 136.117 136.036 135.719 
138.699 138.761 138.399 138.452 138.132 138.233 137.925 137.988 137.533 
137.46 136.889 136.779 136.301 136.246 135.919 135.874 135.615 135.541 
135.299 141.63 141.93 141.673 141.491 142.248 141.939 141.728 141.537 
141.456 142.702 142.313 142.018 141.741 141.593 141.5 141.419 143.065 
142.765 142.412 142.053 141.743 141.56 141.379 141.331 141.075 143.076 
142.969 142.633 142.376 141.986 141.712 141.405 141.254 141.001 140.87 
140.513 142.911 142.87 142.589 142.459 142.143 141.927 141.638 141.39 
141.151 140.913 140.673 140.404 140.107 142.846 142.782 142.614 142.462 
142.27 142.08 141.909 141.682 141.494 141.212 140.989 140.688 140.441 
140.13 139.851 142.83 142.822 142.807 142.663 142.581 142.34 142.218 
141.977 141.812 141.555 141.291 141.007 140.683 140.418 140.083 139.828 
139.479 142.695 142.8 142.866 142.881 142.865 142.708 142.553 142.303 
142.065 141.815 141.504 141.237 140.842 140.572 140.158 139.934 139.541 
139.341 138.969 142.545 142.275 142.557 142.772 141.827 142.211 142.48 
142.76 142.837 141.242 141.662 141.864 142.298 142.397 142.656 142.528 
140.507 140.96 141.037 141.52 141.556 141.999 141.916 142.186 141.973 
139.622 140.1 140.104 140.588 140.549 141.035 140.975 141.414 141.288 
141.576 141.358 138.736 139.165 139.142 139.604 139.539 140.001 139.938 
140.426 140.37 140.792 140.633 140.91 140.662 137.956 138.31 138.269 
138.672 138.621 139.028 138.957 139.406 139.36 139.836 139.728 140.102 
139.874 140.156 139.922 137.25 137.561 137.508 137.862 137.831 138.187 
138.125 138.489 138.417 138.84 138.755 139.167 139 139.332 139.128 
139.436 139.279 136.587 136.872 136.817 137.141 137.12 137.456 137.407 
137.72 137.625 137.959 137.867 138.241 138.149 138.496 138.377 138.677 
138.559 138.853 138.743 138.362 138.209 138.122 137.775 138.006 137.956 
137.629 137.534 137.124 137.715 137.692 137.325 137.312 136.875 136.782 
136.248 137.408 137.348 136.911 136.912 136.445 136.421 135.853 135.773 
135.195 137.19 137.064 136.588 136.495 136.011 135.96 135.439 135.355 
134.787 134.707 134.206 137.007 136.884 136.415 136.245 135.737 135.596 
135.099 134.993 134.488 134.366 133.852 133.772 133.325 136.742 136.678 
136.238 136.098 135.582 135.391 134.831 134.681 134.139 134.052 133.533 
133.454 132.959 132.91 132.495 136.436 136.383 135.96 135.88 135.388 
135.231 134.633 134.425 133.78 133.644 133.071 133.046 132.565 132.557 
132.143 132.131 131.806 136.193 136.097 135.663 135.578 135.098 134.987 
134.42 134.223 133.562 133.327 132.703 132.581 132.117 132.125 131.777 
131.804 131.504 131.519 131.274 138.326 137.692 138.004 138.014 137.011 
137.339 137.309 137.673 137.738 136.165 136.586 136.535 136.931 136.958 
137.401 137.488 135.185 135.68 135.673 136.107 136.085 136.54 136.552 
137.056 137.039 134.245 134.737 134.816 135.257 135.241 135.634 135.589 
136.051 136.02 136.504 136.427 133.363 133.85 133.984 134.459 134.49 
134.832 134.761 135.125 135.141 135.574 135.621 135.989 135.973 132.507 
132.96 133.078 133.615 133.697 134.098 134.018 134.34 134.339 134.776 
134.937 135.348 135.45 135.707 135.707 131.798 132.135 132.194 132.684 
132.787 133.263 133.241 133.595 133.559 133.981 134.134 134.652 134.836 
135.223 135.255 135.482 135.435 131.269 131.506 131.509 131.86 131.928 
132.366 132.416 132.815 132.837 133.226 133.348 133.834 134.032 134.516 
134.61 134.961 134.927 135.174 135.113 130.973 130.53 130.905 131.203 
129.983 130.426 130.768 131.17 131.544 129.459 129.866 130.235 130.694 
131.109 131.557 131.992 129.175 129.428 129.796 130.196 130.688 131.142 
131.66 132.062 132.508 129.162 129.284 129.624 129.883 130.385 130.788 
131.388 131.805 132.35 132.65 133.101 129.237 129.33 129.624 129.797 
130.195 130.524 131.062 131.522 132.1 132.511 133 133.291 133.736 
129.304 129.378 129.606 129.759 130.051 130.315 130.723 131.142 131.663 
132.161 132.67 133.098 133.527 133.874 134.263 129.432 129.431 129.588 
129.689 129.942 130.152 130.525 130.832 131.306 131.717 132.236 132.69 
133.157 133.566 133.951 134.301 134.614 129.66 129.588 129.704 129.706 
129.949 130.085 130.484 130.714 131.188 131.472 131.963 132.315 132.795 
133.183 133.599 133.959 134.29 134.595 134.846 130.764 130.194 130.408 
130.242 129.549 129.733 129.52 129.815 129.659 129.081 129.098 128.835 
129.072 128.97 129.262 129.18 128.923 128.744 128.422 128.497 128.46 
128.697 128.745 128.936 128.962 128.986 128.702 128.323 128.223 128.185 
128.349 128.507 128.667 128.756 128.861 128.952 129.143 128.862 128.521 
128.267 128.179 128.197 128.373 128.519 128.635 128.712 128.748 128.883 
129 129.337 129.112 128.937 128.627 128.551 128.357 128.459 128.457 
128.544 128.576 128.56 128.654 128.726 128.936 129.099 129.627 129.415 
129.389 129.136 129.124 128.849 128.857 128.662 128.642 128.527 128.456 
128.458 128.506 128.68 128.895 129.103 129.309 130.056 129.807 129.806 
129.599 129.6 129.378 129.32 129.074 128.943 128.706 128.559 128.425 
128.432 128.512 128.746 128.955 129.243 129.39 129.585 135.958 135.378 
135.565 135.365 134.7 134.907 134.634 134.905 134.723 133.938 134.161 
133.826 134.093 133.841 134.201 134.008 133.167 133.384 133.046 133.264 
132.961 133.272 133.036 133.413 133.164 132.444 132.648 132.341 132.522 
132.195 132.416 132.145 132.455 132.214 132.547 132.32 131.712 131.922 
131.612 131.828 131.501 131.687 131.392 131.629 131.417 131.693 131.528 
131.822 131.74 130.977 131.145 130.804 131.061 130.781 131.005 130.735 
130.935 130.732 130.977 130.855 131.13 131.079 131.395 131.423 130.437 
130.463 130.112 130.285 130.065 130.304 130.106 130.313 130.1 130.319 
130.153 130.445 130.37 130.729 130.748 131.126 131.181 130.203 130.088 
129.76 129.758 129.546 129.68 129.502 129.689 129.455 129.659 129.411 
129.686 129.535 129.927 129.923 130.385 130.471 130.888 130.967 136.219 
136.446 136.124 135.676 136.607 136.321 135.876 135.553 135.049 136.707 
136.446 136.012 135.729 135.24 134.883 134.311 136.798 136.54 136.12 
135.853 135.384 135.054 134.477 134.091 133.5 136.858 136.613 136.17 
135.935 135.472 135.187 134.633 134.252 133.647 133.281 132.744 136.89 
136.636 136.152 135.932 135.468 135.243 134.745 134.419 133.857 133.465 
132.922 132.567 132.058 136.999 136.691 136.225 135.942 135.52 135.267 
134.849 134.552 134.065 133.697 133.184 132.802 132.3 131.911 131.396 
137.217 136.877 136.465 136.121 135.759 135.441 135.09 134.749 134.308 
133.921 133.415 133.047 132.568 132.202 131.733 131.316 130.871 137.44 
137.13 136.733 136.407 136.043 135.738 135.394 135.064 134.63 134.214 
133.675 133.263 132.763 132.435 132.023 131.686 131.305 130.907 130.587 
137.392 136.971 137.03 136.68 136.446 136.542 136.228 136.307 135.995 
136.002 136.043 135.732 135.821 135.543 135.638 135.342 135.621 135.647 
135.313 135.357 135.039 135.135 134.812 134.924 134.543 135.147 135.215 
134.851 134.924 134.544 134.615 134.207 134.308 133.865 133.987 133.535 
134.637 134.683 134.274 134.374 133.966 134.063 133.61 133.683 133.199 
133.28 132.827 132.959 132.599 134.164 134.173 133.715 133.769 133.329 
133.425 132.977 133.065 132.601 132.662 132.24 132.324 132.006 132.148 
131.899 133.68 133.689 133.21 133.227 132.752 132.8 132.35 132.431 
132.014 132.096 131.726 131.809 131.523 131.635 131.407 131.528 131.271 
133.229 133.212 132.754 132.742 132.279 132.272 131.83 131.86 131.485 
131.558 131.25 131.337 131.086 131.189 130.981 131.086 130.858 130.922 
130.636 132.874 132.237 132.49 132.387 131.68 131.894 131.764 132.004 
131.907 131.15 131.384 131.259 131.425 131.271 131.514 131.443 130.545 
130.849 130.764 130.941 130.76 130.925 130.819 131.095 131.106 129.937 
130.23 130.184 130.414 130.257 130.427 130.309 130.536 130.544 130.838 
130.91 129.589 129.711 129.658 129.838 129.704 129.892 129.781 130.028 
130.032 130.321 130.39 130.685 130.775 129.59 129.521 129.395 129.41 
129.235 129.348 129.228 129.472 129.488 129.801 129.888 130.187 130.281 
130.573 130.677 129.704 129.582 129.362 129.244 128.973 128.949 128.783 
128.949 128.987 129.283 129.427 129.719 129.845 130.107 130.197 130.474 
130.551 129.701 129.63 129.368 129.221 128.887 128.757 128.536 128.586 
128.616 128.852 129.032 129.311 129.468 129.709 129.784 130.009 130.032 
130.297 130.319 133.1 133.33 132.937 132.459 133.639 133.19 132.609 
132.27 131.833 133.882 133.469 132.813 132.401 131.827 131.599 131.211 
134.015 133.661 133.055 132.62 131.984 131.603 131.085 130.922 130.556 
134.176 133.804 133.29 132.895 132.352 131.875 131.301 130.892 130.426 
130.253 129.949 134.503 134.058 133.559 133.163 132.702 132.285 131.776 
131.269 130.757 130.323 129.984 129.783 129.649 134.953 134.484 133.991 
133.512 133.036 132.622 132.182 131.753 131.325 130.836 130.503 130.085 
129.952 129.717 129.726 135.378 134.965 134.524 134.02 133.539 133.035 
132.608 132.169 131.843 131.427 131.185 130.75 130.591 130.21 130.149 
129.9 129.886 135.703 135.361 134.958 134.534 134.086 133.596 133.178 
132.695 132.382 131.969 131.772 131.404 131.24 130.862 130.686 130.354 
130.206 129.987 129.875 133.58 134.434 133.934 133.845 135.389 134.831 
134.752 134.267 134.199 136.524 135.851 135.722 135.181 135.105 134.609 
134.461 137.841 137.09 136.905 136.21 136.073 135.509 135.36 134.808 
134.584 139.067 138.423 138.244 137.478 137.272 136.562 136.391 135.753 
135.558 134.94 134.743 139.961 139.522 139.409 138.775 138.566 137.83 
137.607 136.879 136.663 135.98 135.785 135.166 135.044 140.618 140.3 
140.261 139.809 139.685 139.076 138.863 138.131 137.845 137.106 136.833 
136.195 136.018 135.486 135.415 141.224 140.938 140.949 140.59 140.542 
140.089 139.953 139.336 139.053 138.294 137.943 137.222 136.962 136.397 
136.274 135.823 135.776 141.836 141.569 141.609 141.274 141.227 140.854 
140.736 140.288 140.056 139.437 139.09 138.355 138.034 137.363 137.176 
136.652 136.57 136.144 136.088 142.212 142.684 142.314 141.977 142.957 
142.692 142.294 141.949 141.533 142.952 142.825 142.395 142.129 141.639 
141.388 140.963 142.719 142.713 142.323 142.133 141.603 141.376 140.903 
140.742 140.282 142.323 142.398 142.078 142.009 141.512 141.297 140.775 
140.609 140.145 139.978 139.405 141.965 141.983 141.686 141.706 141.287 
141.162 140.624 140.453 139.959 139.817 139.299 139.053 138.417 141.84 
141.725 141.408 141.351 140.994 140.91 140.441 140.28 139.777 139.627 
139.15 138.964 138.42 138.12 137.55 141.781 141.662 141.303 141.165 
140.8 140.687 140.312 140.15 139.713 139.501 139.044 138.843 138.375 
138.139 137.641 137.353 136.897 141.552 141.524 141.127 141.026 140.601 
140.514 140.156 140.067 139.705 139.514 139.076 138.819 138.36 138.118 
137.672 137.432 137.002 136.755 136.373 141.249 140.595 140.892 140.798 
139.958 140.201 140.068 140.368 140.272 139.358 139.585 139.413 139.653 
139.567 139.886 139.856 138.599 138.926 138.733 138.993 138.837 139.171 
139.144 139.511 139.449 137.667 138.051 137.842 138.197 137.968 138.347 
138.226 138.69 138.622 139.014 138.833 136.797 137.108 136.889 137.239 
137.02 137.393 137.223 137.677 137.59 138.07 137.942 138.311 138.096 
136.108 136.32 136.099 136.357 136.169 136.48 136.341 136.711 136.632 
137.056 136.985 137.39 137.252 137.589 137.407 135.577 135.72 135.5 
135.667 135.466 135.709 135.582 135.903 135.829 136.189 136.112 136.484 
136.37 136.734 136.587 136.923 136.758 135.155 135.255 135.035 135.137 
134.909 135.07 134.915 135.184 135.107 135.431 135.335 135.657 135.51 
135.852 135.702 136.073 135.94 136.289 136.15 135.73 135.473 135.401 
134.97 135.197 135.101 134.656 134.597 134.138 135.023 134.861 134.408 
134.3 133.88 133.776 133.307 134.913 134.749 134.31 134.131 133.714 
133.571 133.153 132.992 132.551 134.727 134.63 134.219 134.063 133.612 
133.441 132.994 132.849 132.436 132.299 131.933 134.547 134.436 134.051 
133.931 133.481 133.318 132.826 132.673 132.231 132.14 131.781 131.712 
131.388 134.561 134.353 133.993 133.8 133.392 133.192 132.734 132.531 
132.077 131.93 131.533 131.475 131.128 131.11 130.786 134.717 134.472 
134.131 133.859 133.467 133.192 132.764 132.506 132.071 131.844 131.407 
131.242 130.83 130.774 130.44 130.471 130.223 134.867 134.65 134.324 
134.052 133.658 133.345 132.899 132.594 132.137 131.873 131.414 131.175 
130.718 130.538 130.168 130.126 129.906 129.972 129.843 142.659 142.828 
142.762 142.816 142.957 142.931 143.04 142.99 143.125 143.108 143.091 
143.252 143.227 143.42 143.368 143.528 143.283 143.274 143.401 143.397 
143.571 143.619 143.846 143.808 143.939 143.294 143.405 143.495 143.501 
143.566 143.641 143.8 143.957 144.123 144.143 144.137 142.964 143.255 
143.379 143.507 143.518 143.571 143.589 143.743 143.831 144.054 144.059 
144.121 143.908 142.486 142.813 142.946 143.22 143.235 143.405 143.354 
143.484 143.472 143.664 143.68 143.852 143.721 143.716 143.387 142.118 
142.366 142.448 142.701 142.68 142.941 142.889 143.132 143.107 143.316 
143.338 143.509 143.484 143.525 143.325 143.194 142.857 141.782 142.014 
142.041 142.227 142.145 142.346 142.28 142.563 142.588 142.889 142.946 
143.185 143.198 143.326 143.213 143.172 142.908 142.725 142.398 142.517 
142.738 142.542 142.378 143.036 142.824 142.706 142.455 142.203 143.336 
143.087 142.905 142.737 142.504 142.221 141.814 143.661 143.336 142.985 
142.803 142.523 142.393 142.02 141.724 141.242 143.895 143.622 143.168 
142.855 142.453 142.304 141.958 141.805 141.362 141.096 140.633 143.732 
143.703 143.305 143.043 142.571 142.294 141.885 141.699 141.277 141.094 
140.616 140.422 139.97 143.184 143.336 143.017 143.016 142.587 142.404 
141.923 141.681 141.198 140.98 140.49 140.31 139.844 139.698 139.271 
142.589 142.724 142.409 142.552 142.182 142.219 141.752 141.64 141.117 
140.917 140.406 140.198 139.741 139.567 139.166 139.017 138.641 142.121 
142.18 141.847 141.941 141.584 141.682 141.262 141.295 140.825 140.759 
140.281 140.128 139.673 139.494 139.085 138.931 138.563 138.423 138.071 
142.401 142.136 142.185 142.047 141.862 141.872 141.622 141.749 141.593 
141.43 141.495 141.191 141.307 141.113 141.273 141.087 140.876 140.974 
140.657 140.808 140.601 140.789 140.588 140.726 140.428 140.341 140.438 
140.114 140.236 139.985 140.198 139.976 140.177 139.867 139.979 139.58 
139.759 139.92 139.614 139.711 139.385 139.537 139.262 139.487 139.211 
139.39 139.045 139.123 138.736 139.078 139.294 139.015 139.174 138.831 
138.944 138.608 138.774 138.513 138.725 138.473 138.615 138.299 138.341 
137.987 138.42 138.602 138.314 138.51 138.195 138.357 138.028 138.166 
137.88 138.061 137.83 138.03 137.773 137.9 137.576 137.621 137.279 
137.848 137.979 137.657 137.81 137.492 137.68 137.387 137.573 137.298 
137.468 137.212 137.394 137.146 137.325 137.048 137.171 136.855 136.918 
136.604 133.656 134.124 134.083 134.507 134.625 134.593 135.047 135.002 
135.487 135.091 135.088 135.592 135.583 136.124 136.073 136.648 135.567 
135.557 136.081 136.12 136.711 136.724 137.339 137.314 137.94 136.014 
136.027 136.547 136.612 137.215 137.276 137.87 137.92 138.508 138.553 
139.098 136.396 136.433 136.961 137.062 137.673 137.761 138.31 138.357 
138.845 138.946 139.432 139.538 139.946 136.846 136.836 137.369 137.456 
138.076 138.192 138.737 138.767 139.177 139.208 139.619 139.742 140.162 
140.259 140.592 137.366 137.338 137.836 137.877 138.449 138.561 139.108 
139.168 139.585 139.564 139.935 139.959 140.372 140.452 140.836 140.878 
141.19 137.778 137.811 138.245 138.298 138.771 138.88 139.374 139.489 
139.941 139.976 140.382 140.361 140.771 140.758 141.151 141.149 141.487 
141.485 141.785 
POINT_DATA 1002
SCALARS Distance double
LOOKUP_TABLE default
140.972 141.557 141.422 140.942 141.366 140.331 141.024 141.446 140.372 
139.757 141.047 141.315 140.343 139.666 139.107 140.625 140.73 140.085 
139.392 138.832 138.232 139.879 140.111 139.568 139.109 138.595 137.999 
137.308 139.373 139.809 139.085 138.884 138.518 137.909 137.186 136.532 
139.14 139.566 138.811 138.667 138.361 137.727 137.007 136.4 135.919 
138.809 139.131 138.506 138.346 138.037 137.361 136.654 136.16 135.791 
135.449 138.344 138.623 138.044 137.849 137.581 136.983 136.322 135.926 
135.671 135.385 135.066 141.912 141.687 142.191 141.941 142.614 141.56 
142.388 143.106 141.727 141.497 142.803 143.288 142.046 141.459 141.183 
142.819 143.124 142.28 141.635 141.123 140.699 142.669 142.942 142.282 
141.869 141.413 140.92 140.403 142.737 142.86 142.438 142.093 141.767 
141.305 140.743 140.179 142.871 142.762 142.815 142.492 142.074 141.596 
140.974 140.333 139.739 142.769 142.556 142.96 142.822 142.347 141.777 
141.141 140.412 139.73 139.154 142.313 142.59 141.924 142.121 141.439 
142.731 141.428 140.859 142.044 142.417 140.596 140.068 141.09 141.538 
141.797 139.639 139.162 140.08 140.48 140.912 141.158 138.696 138.35 
139.094 139.447 139.891 140.311 140.432 137.885 137.634 138.226 138.544 
138.884 139.309 139.565 139.626 137.166 136.951 137.475 137.792 138.04 
138.329 138.63 138.807 138.953 136.501 136.309 136.785 137.101 137.329 
137.508 137.766 138.052 138.272 138.453 138.012 137.902 137.41 137.695 
137.291 136.673 137.33 136.952 136.384 135.689 136.951 136.455 135.929 
135.246 134.651 136.734 136.081 135.497 134.891 134.226 133.742 136.591 
135.921 135.21 134.591 133.983 133.348 132.885 136.342 135.783 135.043 
134.242 133.585 133.033 132.498 132.105 136.023 135.515 134.867 133.99 
133.107 132.521 132.142 131.791 131.522 135.768 135.197 134.581 133.812 
132.885 132.117 131.714 131.478 131.245 131.056 137.656 136.951 137.322 
136.135 136.52 137.034 135.217 135.668 136.068 136.554 134.345 134.888 
135.169 135.533 135.975 133.463 134.145 134.44 134.675 135.217 135.672 
132.534 133.237 133.71 133.904 134.439 135.156 135.525 131.769 132.282 
132.842 133.172 133.603 134.362 134.989 135.251 131.229 131.53 131.975 
132.434 132.906 133.538 134.198 134.642 134.889 130.635 130.851 130.104 
130.325 129.522 131.129 129.753 129.105 130.63 131.57 129.429 128.994 
130.208 131.226 132.184 129.43 129.064 130.016 130.934 132.007 132.862 
129.497 129.151 129.946 130.627 131.63 132.667 133.475 129.488 129.274 
129.836 130.374 131.17 132.189 133.156 133.951 129.533 129.491 129.744 
130.248 130.954 131.794 132.726 133.592 134.312 129.74 129.75 129.841 
130.263 130.942 131.669 132.427 133.233 133.975 134.585 130.601 129.989 
129.992 129.219 129.435 129.352 128.641 129.169 128.646 128.915 128.424 
129.178 128.206 128.532 128.79 128.506 129.278 128.042 128.31 128.68 
128.8 128.804 129.35 128.255 128.242 128.568 128.659 128.786 129.185 
129.479 128.826 128.575 128.563 128.504 128.52 128.874 129.583 129.82 
129.401 129.148 128.85 128.516 128.351 128.649 129.164 130.021 130.328 
129.816 129.586 129.228 128.754 128.409 128.537 129.052 129.515 135.798 
135.129 135.207 134.385 134.51 134.39 133.59 133.714 133.504 133.632 
132.849 132.938 132.699 132.68 132.797 132.157 132.24 132.018 131.869 
131.889 131.959 131.37 131.526 131.31 131.177 131.131 131.233 131.392 
130.541 130.865 130.504 130.53 130.5 130.568 130.766 131.08 129.983 
130.463 129.812 129.88 129.911 129.89 130.003 130.344 130.82 136.552 
136.023 136.763 136.176 136.881 135.43 136.28 136.961 135.582 134.71 
136.382 137.053 135.7 134.871 133.851 136.405 137.117 135.726 134.992 
134.036 133.055 136.387 137.169 135.667 135.015 134.232 133.306 132.408 
136.518 137.311 135.772 135.122 134.411 133.556 132.694 131.799 136.802 
137.538 136.075 135.431 134.717 133.797 132.895 132.117 131.286 137.052 
137.732 136.346 135.709 135.044 134.129 133.099 132.297 131.657 130.972 