# vtk DataFile Version 4.0
vtk output
ASCII
DATASET POLYDATA
POINTS 1002 float
-78.5475 -102.068 55.0633 -78.6677 -102.209 55.9641 -78.3199 -101.959 55.8458 
-78.0656 -101.882 54.7593 -77.5872 -101.977 55.3996 -78.3309 -101.947 53.9671 
-77.4229 -101.814 54.3363 -76.7261 -102.074 54.7898 -77.8937 -101.739 53.6891 
-78.156 -101.886 52.885 -76.8234 -101.628 53.9893 -76.1412 -101.9 54.3653 
-77.5178 -101.402 53.541 -77.8788 -101.454 52.8456 -78.1468 -101.559 52.1098 
-76.3421 -101.22 53.7589 -75.8384 -101.338 54.1819 -77.0268 -100.979 53.3636 
-77.5753 -100.879 52.7973 -77.8947 -100.915 52.0964 -78.2252 -100.901 51.4538 
-75.9777 -100.654 53.4763 -75.6381 -100.573 53.941 -76.3984 -100.635 52.9762 
-76.9056 -100.531 52.3758 -77.4455 -100.418 51.7736 -77.8894 -100.374 51.1426 
-78.2477 -100.418 50.515 -75.6675 -100.063 53.0289 -75.3148 -100 53.482 
-75.9343 -100.229 52.474 -76.1818 -100.354 51.7445 -76.7195 -100.255 51.1542 
-77.4053 -100.074 50.676 -77.9006 -100.07 50.0797 -78.2213 -100.214 49.4575 
-75.0726 -99.7636 52.4343 -74.6599 -99.8504 52.9207 -75.4501 -99.8055 51.9045 
-75.6716 -99.9955 51.1816 -76.0628 -100.072 50.5548 -76.7513 -99.9112 50.1683 
-77.3883 -99.8017 49.6781 -77.8222 -99.8879 49.0568 -78.178 -100.004 48.5425 
-74.208 -99.7823 51.7978 -73.9179 -99.8304 52.4021 -74.612 -99.7073 51.2107 
-74.9976 -99.7032 50.5768 -75.4493 -99.7627 50.0011 -76.0659 -99.7231 49.615 
-76.6504 -99.6357 49.1681 -77.126 -99.6859 48.5335 -77.6081 -99.7877 47.9996 
-78.1012 -99.7959 47.7004 -73.5831 -99.6848 51.2735 -73.5126 -99.537 51.9836 
-73.7984 -99.7481 50.5597 -74.1846 -99.6702 49.9465 -74.7494 -99.5565 49.4734 
-75.4226 -99.4996 49.0976 -75.9659 -99.4894 48.6409 -76.3408 -99.5683 47.9957 
-76.8064 -99.6979 47.3901 -77.4212 -99.7239 47.0655 -78.0192 -99.6311 46.9537 
-78.5695 -102.05 56.8035 -78.0886 -101.923 56.6697 -78.2857 -102.002 57.6109 
-77.6633 -101.97 57.4794 -77.7306 -102.297 58.3237 -77.1654 -102.073 56.1297 
-77.132 -102.155 58.271 -77.0952 -102.719 59.0527 -76.8155 -102.034 57.0005 
-76.2945 -102.191 55.4437 -76.6191 -102.355 59.0408 -76.6145 -102.813 59.8602 
-76.5453 -101.932 57.9507 -76.162 -101.992 56.4261 -75.8299 -101.916 55.0487 
-76.1273 -102.43 59.7386 -76.2972 -102.571 60.5846 -76.0959 -102.004 58.738 
-75.9967 -101.77 57.4445 -75.7673 -101.637 56.0802 -75.6138 -101.187 54.8915 
-75.718 -102.325 60.3337 -76.125 -102.231 61.0748 -75.4732 -102.179 59.3466 
-75.4992 -101.83 58.1101 -75.6044 -101.386 56.9484 -75.5753 -100.865 55.8105 
-75.4287 -100.365 54.5693 -75.5117 -101.959 60.774 -76.0771 -101.773 61.3338 
-75.0569 -102.044 59.9376 -75.0118 -101.84 58.6309 -75.2732 -101.25 57.3832 
-75.4862 -100.562 56.4454 -75.347 -100.143 55.3145 -74.9762 -99.965 54.011 
-75.4331 -101.33 60.9785 -76.0139 -101.14 61.4151 -74.9706 -101.464 60.3753 
-74.8914 -101.416 59.2106 -75.0392 -100.977 57.7882 -75.1826 -100.319 56.7492 
-75.1085 -99.9485 55.838 -74.7062 -99.9287 54.6383 -74.2311 -99.9227 53.4202 
-75.347 -100.603 60.964 -75.8574 -100.451 61.3622 -75.0108 -100.705 60.4713 
-74.9947 -100.722 59.5583 -74.9917 -100.527 58.2645 -74.8041 -100.117 57.1151 
-74.5814 -99.8253 56.205 -74.2996 -99.8331 55.1489 -73.9319 -99.859 53.9666 
-73.651 -99.7151 52.9111 -75.3795 -99.8746 60.9445 -75.072 -99.961 60.4458 
-75.1651 -99.3216 60.3205 -75.113 -99.3335 59.5517 -75.246 -98.7962 59.4015 
-75.0723 -99.998 59.6711 -74.9576 -98.6774 58.5234 -75.1248 -98.1809 58.419 
-74.954 -99.3367 58.5969 -75.0004 -99.9902 58.5998 -74.3206 -97.9371 57.8267 
-74.6502 -97.5175 57.6726 -74.1828 -98.6734 57.8402 -74.2959 -99.439 57.7995 
-74.5108 -99.8913 57.5573 -73.8508 -97.3029 57.2847 -74.2802 -97.011 56.9915 
-73.5017 -97.9564 57.4122 -73.4494 -98.8777 57.3596 -73.6233 -99.5313 57.097 
-74.0012 -99.751 56.6235 -73.8034 -96.8523 56.3919 -74.1483 -96.608 56.1346 
-73.4927 -97.3224 56.5525 -73.387 -98.1128 56.565 -73.4013 -98.9262 56.3898 
-73.4475 -99.4494 55.9603 -73.7593 -99.7013 55.4829 -73.7001 -96.3353 55.3674 
-74.0017 -96.078 55.3184 -73.4859 -96.7482 55.3011 -73.464 -97.3438 55.1878 
-73.565 -97.9976 55.0884 -73.5321 -98.6211 54.8518 -73.4533 -99.1781 54.4933 
-73.6003 -99.6087 54.2034 -73.4316 -95.6518 54.65 -73.7584 -95.4048 54.7687 
-73.2042 -96.0894 54.3654 -73.1264 -96.6763 54.0475 -73.2147 -97.2209 53.868 
-73.366 -97.6837 53.7131 -73.4473 -98.1825 53.4677 -73.4651 -98.7591 53.2581 
-73.5033 -99.3231 53.1032 -73.1992 -94.9759 54.1862 -73.5184 -94.7633 54.3815 
-72.9836 -95.4038 53.8234 -72.849 -96.0177 53.4322 -72.7624 -96.6234 53.1892 
-72.8139 -97.0916 53.0021 -73.0897 -97.45 52.723 -73.4204 -97.8196 52.4729 
-73.5471 -98.3551 52.3307 -73.4929 -99.013 52.1788 -73.4401 -99.0771 51.1648 
-73.5619 -98.3066 51.3883 -73.446 -98.4942 50.3533 -73.4958 -97.6669 51.5504 
-73.4082 -97.709 50.5755 -73.3244 -97.8449 49.6822 -73.0402 -97.3461 51.7447 
-72.9932 -97.2819 50.7149 -72.9278 -97.249 49.8277 -73.1199 -97.2632 49.0717 
-72.5444 -97.0368 52.1075 -72.3803 -97.0066 50.9438 -72.3455 -96.9217 49.9475 
-72.6443 -96.8193 49.1912 -73.082 -96.8621 48.3734 -72.4479 -96.5116 52.4587 
-72.0976 -96.4076 51.3585 -71.9127 -96.3899 50.2095 -72.2871 -96.38 49.4377 
-72.8987 -96.3339 48.6663 -73.2163 -96.4139 47.7369 -72.6384 -95.8827 52.6761 
-72.2696 -95.6537 51.723 -71.841 -95.5232 50.6047 -72.0589 -95.6573 49.7515 
-72.8114 -95.7577 49.0671 -73.2636 -95.7103 48.1922 -73.3825 -95.7423 47.2997 
-72.7974 -95.2413 52.9846 -72.542 -95.0658 52.019 -72.0573 -94.8271 50.9937 
-71.9823 -94.8266 50.088 -72.6401 -95.0516 49.3365 -73.258 -95.1306 48.5583 
-73.4727 -95.0843 47.7144 -73.6618 -95.1224 46.9655 -72.9232 -94.6898 53.4372 
-72.7283 -94.5777 52.461 -72.3909 -94.4428 51.44 -72.1834 -94.2982 50.5056 
-72.5613 -94.3556 49.6181 -73.1628 -94.5215 48.7767 -73.5247 -94.6085 48.0228 
-73.7931 -94.656 47.3247 -74.1376 -94.7338 46.6919 -73.1605 -94.3593 53.8115 
-72.9515 -94.1803 52.965 -72.7734 -94.1386 51.9747 -72.6339 -94.0519 51.0092 
-72.8056 -93.9577 50.0505 -73.234 -93.9911 49.1102 -73.6094 -94.1244 48.326 
-73.9487 -94.2595 47.6909 -74.3331 -94.3511 47.086 -74.6892 -94.4206 46.5138 
-73.408 -99.3933 50.3266 -73.4536 -98.8058 49.5699 -73.5962 -99.5184 49.5973 
-73.556 -97.985 49.0678 -73.801 -98.8227 49.0502 -74.119 -99.3551 49.1406 
-73.5159 -97.3819 48.4148 -74.0514 -97.9419 48.6517 -74.4631 -98.585 48.7534 
-74.8731 -99.1543 48.8047 -73.392 -97.0992 47.5412 -73.9345 -97.5298 47.8357 
-74.6403 -97.8469 48.2326 -75.1632 -98.4666 48.3031 -75.5179 -99.1388 48.3137 
-73.4192 -96.5858 46.9194 -73.7597 -97.343 46.9237 -74.4666 -97.616 47.3054 
-75.2267 -97.8939 47.633 -75.6394 -98.6111 47.633 -75.8718 -99.2868 47.6312 
-73.7097 -95.7818 46.6076 -73.9594 -96.6999 46.4428 -74.4663 -97.3792 46.5112 
-75.1696 -97.6374 46.7973 -75.7522 -98.0608 47.0645 -75.995 -98.851 47.0148 
-76.2492 -99.4771 46.9819 -74.1935 -95.1478 46.3531 -74.4267 -95.841 46.2151 
-74.8157 -96.6985 46.1468 -75.2915 -97.3192 46.1017 -75.8396 -97.6621 46.3486 
-76.2769 -98.2015 46.6394 -76.5342 -98.9873 46.5782 -76.8874 -99.5434 46.5933 
-74.7248 -94.7532 46.1344 -74.9264 -95.2384 46.0014 -75.2884 -95.9444 46.0094 
-75.635 -96.7456 45.8054 -75.9789 -97.3186 45.6281 -76.4483 -97.6814 45.9375 
-76.8937 -98.2361 46.2893 -77.2275 -98.9595 46.315 -77.5967 -99.4477 46.4564 
-75.2308 -94.2383 46.1467 -75.366 -94.6913 45.8455 -75.8841 -94.086 45.9211 
-76.24 -94.7002 45.7273 -76.8292 -94.0711 45.8314 -75.7374 -95.2791 45.8735 
-77.3171 -94.7255 45.6447 -77.8408 -94.0631 45.6943 -76.7571 -95.3673 45.8372 
-76.1463 -96.0249 45.857 -78.136 -94.5751 45.4233 -78.5259 -93.8806 45.4807 
-77.6966 -95.3266 45.6555 -77.0497 -96.1105 45.6351 -76.3685 -96.82 45.3962 
-78.6854 -94.3321 45.2 -79.0921 -93.7204 45.4354 -78.3067 -95.1153 45.2469 
-77.8123 -96.0678 45.2743 -77.1507 -96.8821 45.0276 -76.6598 -97.3505 45.1948 
-79.449 -94.3145 45.2007 -79.8146 -93.7758 45.6064 -79.0468 -95.0086 44.8961 
-78.5912 -95.9739 44.905 -78.0327 -96.8843 44.9091 -77.5022 -97.3896 45.0631 
-77.1747 -97.7231 45.6743 -80.3353 -94.4855 45.3431 -80.541 -93.8793 45.7473 
-80.0539 -95.1334 44.862 -79.6088 -95.9492 44.7696 -79.0606 -96.8206 45.0221 
-78.4859 -97.4344 45.2909 -78.0098 -97.8262 45.6515 -77.6371 -98.3332 46.0643 
-81.0399 -94.6208 45.4573 -81.1423 -93.9406 45.7919 -80.8687 -95.3091 45.0664 
-80.4933 -95.9882 44.9608 -79.9912 -96.6997 45.2328 -79.454 -97.4082 45.5328 
-78.8904 -97.9927 45.7171 -78.3968 -98.4939 45.9388 -77.988 -99.0083 46.1936 
-81.5252 -94.7349 45.6345 -81.5778 -94.0929 45.9622 -81.3751 -95.4313 45.3604 
-81.0304 -96.069 45.3232 -80.5932 -96.6541 45.5152 -80.2065 -97.3427 45.6683 
-79.7687 -98.11 45.6901 -79.229 -98.7179 45.8072 -78.739 -99.1102 46.1277 
-78.3498 -99.4034 46.5321 -75.0566 -94.0056 46.7411 -75.6294 -93.7095 46.402 
-75.4831 -93.6089 46.9495 -76.1248 -93.3149 46.6494 -75.9641 -93.2994 47.1493 
-76.3643 -93.5215 46.2689 -76.6485 -93.0117 46.9272 -76.3696 -92.8018 47.5803 
-76.9861 -93.1824 46.6632 -77.3865 -93.5129 46.2594 -76.9767 -92.3611 47.4595 
-76.5405 -92.0534 48.2146 -77.5198 -92.8057 46.9969 -77.9623 -93.0537 46.6869 
-78.306 -93.4055 46.0548 -77.0945 -91.6072 48.0965 -76.7222 -91.6378 48.733 
-77.7398 -92.0598 47.3714 -78.2691 -92.4048 46.8403 -78.6403 -92.6381 46.2862 
-78.9155 -93.1399 45.7222 -77.3729 -91.4085 48.6483 -77.2109 -91.7014 49.2183 
-77.9029 -91.533 47.8419 -78.4132 -91.7252 47.0077 -78.8105 -91.8001 46.3141 
-79.2522 -92.2521 45.802 -79.5735 -93.0549 45.6463 -77.8862 -91.4762 49.3464 
-77.7798 -91.7834 49.8761 -78.3234 -91.5066 48.5274 -78.8085 -91.5746 47.5637 
-79.1763 -91.3926 46.69 -79.6742 -91.492 45.991 -80.1299 -92.2395 45.7052 
-80.3299 -93.1438 45.7889 -78.3758 -91.4093 50.167 -78.1789 -91.8148 50.5129 
-78.8469 -91.4244 49.4641 -79.4017 -91.632 48.5 -79.8101 -91.52 47.5563 
-80.2707 -91.2782 46.6887 -80.7656 -91.5829 46.0308 -80.9518 -92.3816 45.8482 
-80.9744 -93.206 45.9 -78.7907 -91.4631 50.7606 -78.5041 -92.0098 50.9205 
-79.2946 -91.2782 50.3117 -79.887 -91.4631 49.5156 -80.3581 -91.592 48.5888 
[...]
CELL_DATA 2000
SCALARS Distance double
LOOKUP_TABLE default
139.28 138.772 138.929 138.682 138.174 138.372 138.148 138.302 138.078 
137.552 137.763 137.583 137.77 137.576 137.729 137.532 136.909 137.137 
136.945 137.179 136.983 137.192 136.959 137.146 136.901 136.193 136.458 
136.232 136.492 136.249 136.506 136.245 136.489 136.216 136.442 136.19 
135.417 135.699 135.479 135.747 135.489 135.732 135.467 135.723 135.492 
135.74 135.531 135.756 135.573 134.666 134.918 134.691 134.97 134.718 
134.968 134.711 134.968 134.769 135.037 134.87 135.116 134.952 135.185 
135.036 133.99 134.19 133.926 134.175 133.91 134.174 133.924 134.211 
134.023 134.325 134.157 134.434 134.251 134.523 134.359 134.64 134.51 
133.376 133.54 133.262 133.449 133.183 133.395 133.167 133.431 133.277 
133.582 133.445 133.719 133.537 133.792 133.624 133.92 133.813 134.121 
134.039 139.51 139.669 139.428 139.04 139.823 139.573 139.183 138.892 
138.427 140.033 139.739 139.326 139.02 138.549 138.247 137.783 140.231 
139.944 139.5 139.176 138.707 138.385 137.915 137.615 137.155 140.295 
140.082 139.635 139.34 138.863 138.554 138.086 137.768 137.266 136.953 
136.443 140.225 140.082 139.664 139.428 138.941 138.671 138.184 137.908 
137.388 137.064 136.489 136.18 135.649 140.038 139.963 139.564 139.406 
138.921 138.691 138.155 137.918 137.378 137.124 136.553 136.242 135.671 
135.387 134.903 139.669 139.683 139.272 139.228 138.761 138.612 138.047 
137.82 137.219 137.014 136.456 136.248 135.707 135.441 134.931 134.677 
134.24 139.124 139.203 138.781 138.836 138.406 138.376 137.852 137.672 
137.048 136.822 136.24 136.079 135.582 135.417 134.93 134.709 134.236 
134.021 133.608 138.638 137.812 138.246 138.31 137.034 137.432 137.484 
137.928 137.969 136.147 136.583 136.545 137.047 137.049 137.527 137.44 
135.092 135.548 135.412 135.973 135.934 136.508 136.415 136.87 136.657 
134.14 134.488 134.347 134.816 134.819 135.376 135.379 135.844 135.702 
136.061 135.87 133.37 133.644 133.513 133.868 133.878 134.36 134.434 
134.895 134.84 135.181 135.025 135.355 135.228 132.575 132.874 132.67 
133.035 132.924 133.412 133.386 133.925 133.839 134.291 134.103 134.494 
134.323 134.725 134.592 131.712 132.007 131.732 132.096 131.892 132.356 
132.225 132.768 132.633 133.165 132.97 133.456 133.264 133.74 133.6 
134.049 133.914 130.908 131.142 130.869 131.163 130.977 131.343 131.232 
131.65 131.554 131.993 131.873 132.318 132.196 132.657 132.567 133.035 
132.961 133.391 133.299 132.877 132.498 132.506 132.135 132.081 132.086 
131.675 131.716 131.342 131.69 131.664 131.225 131.231 130.803 130.872 
130.519 131.351 131.289 130.817 130.779 130.315 130.333 129.961 130.078 
129.829 131.051 130.968 130.452 130.363 129.841 129.831 129.467 129.579 
129.375 129.508 129.335 130.764 130.68 130.158 130.012 129.415 129.333 
128.934 129.077 128.943 129.129 128.99 129.062 128.839 130.51 130.407 
129.93 129.764 129.177 128.973 128.504 128.547 128.416 128.669 128.613 
128.748 128.539 128.558 128.338 130.377 130.203 129.771 129.601 129.125 
128.867 128.414 128.255 128.055 128.174 128.153 128.34 128.233 128.298 
128.131 128.153 128.069 130.414 130.156 129.752 129.541 129.183 128.938 
128.6 128.335 128.113 127.992 127.935 127.977 127.956 128.025 127.976 
128.017 127.993 128.023 128.04 132.943 132.24 132.677 132.832 131.495 
131.974 132.162 132.583 132.747 130.723 131.228 131.48 131.933 132.14 
132.532 132.739 130.034 130.486 130.776 131.263 131.542 131.965 132.217 
132.599 132.873 129.478 129.856 130.115 130.582 130.886 131.358 131.653 
132.09 132.371 132.772 133.04 128.929 129.295 129.529 129.97 130.271 
130.72 131.029 131.491 131.796 132.24 132.496 132.895 133.119 128.42 
128.729 128.972 129.405 129.751 130.176 130.5 130.905 131.23 131.659 
131.968 132.36 132.613 132.972 133.223 128.149 128.314 128.547 128.895 
129.277 129.699 130.065 130.441 130.753 131.138 131.47 131.871 132.192 
132.542 132.834 133.156 133.45 128.099 128.162 128.355 128.574 128.939 
129.293 129.699 130.049 130.364 130.693 130.985 131.377 131.714 132.127 
132.459 132.815 133.119 133.431 133.712 128.123 128.278 128.241 128.409 
128.671 128.537 128.794 128.702 129.013 129.233 129.075 129.376 129.228 
129.548 129.425 129.756 129.584 129.566 129.838 129.806 130.088 129.979 
130.207 130.108 130.367 129.748 129.76 129.986 130.082 130.362 130.401 
130.6 130.516 130.694 130.643 130.933 130.146 130.005 130.243 130.212 
130.555 130.61 130.947 130.899 131.137 131.016 131.301 131.269 131.658 
130.75 130.569 130.857 130.671 131.048 130.962 131.418 131.348 131.727 
131.564 131.874 131.733 132.105 132.063 132.451 131.269 131.183 131.512 
131.367 131.715 131.581 131.988 131.91 132.319 132.205 132.536 132.368 
132.683 132.562 132.91 132.841 133.153 131.703 131.66 132.012 131.951 
132.279 132.189 132.507 132.44 132.789 132.746 133.096 132.999 133.305 
133.158 133.448 133.322 133.604 133.504 133.75 128.078 128.067 128.074 
128.157 128.154 128.097 128.167 128.219 128.474 128.274 128.236 128.351 
128.338 128.588 128.672 129.027 128.194 128.287 128.445 128.546 128.788 
128.843 129.086 129.186 129.411 128.053 128.117 128.254 128.489 128.682 
128.88 128.979 129.131 129.229 129.408 129.569 128.307 128.12 128.22 
128.289 128.448 128.606 128.633 128.808 128.847 129.116 129.329 129.603 
129.922 128.902 128.578 128.667 128.496 128.689 128.572 128.656 128.559 
128.639 128.751 129.052 129.36 129.789 130.077 130.481 129.474 129.187 
129.264 129.069 129.304 129.096 129.281 128.958 129.081 128.859 129.151 
129.231 129.686 129.935 130.359 130.617 130.972 129.977 129.714 129.787 
129.623 129.858 129.734 129.97 129.725 129.86 129.538 129.715 129.55 
129.878 129.934 130.312 130.488 130.84 131.066 131.406 130.35 130.113 
130.027 129.686 130.054 129.88 129.539 129.431 129.139 130.134 129.923 
129.596 129.386 129.073 128.934 128.64 130.153 130.002 129.673 129.478 
129.149 128.954 128.652 128.477 128.216 130.085 129.955 129.617 129.485 
129.173 129.032 128.77 128.584 128.336 128.142 127.982 130.143 129.925 
129.587 129.408 129.128 129.024 128.86 128.746 128.586 128.361 128.174 
127.99 127.921 130.278 130.051 129.694 129.448 129.111 128.97 128.799 
128.793 128.721 128.628 128.479 128.25 128.108 127.963 127.948 130.249 
130.117 129.729 129.534 129.094 128.918 128.589 128.611 128.495 128.612 
128.52 128.48 128.32 128.176 128.085 128.002 128.005 130.111 130.001 
129.627 129.487 129.049 128.852 128.434 128.347 128.153 128.278 128.256 
128.38 128.306 128.286 128.172 128.115 128.067 128.041 128.045 130.796 
131.399 130.897 130.537 131.985 131.496 131.122 130.666 130.415 132.601 
132.1 131.74 131.252 130.969 130.589 130.438 133.314 132.794 132.477 
131.924 131.621 131.154 130.949 130.613 130.459 134.028 133.557 133.296 
132.736 132.432 131.87 131.605 131.152 130.953 130.597 130.421 134.629 
134.234 134 133.534 133.237 132.695 132.392 131.864 131.624 131.167 
130.994 130.604 130.486 135.148 134.774 134.524 134.145 133.862 133.42 
133.118 132.631 132.376 131.897 131.709 131.264 131.125 130.737 130.621 
135.666 135.271 135.003 134.629 134.379 133.99 133.738 133.307 133.068 
132.623 132.419 131.983 131.796 131.383 131.189 130.815 130.604 136.199 
135.802 135.551 135.147 134.933 134.539 134.35 133.938 133.736 133.297 
133.076 132.643 132.418 132.006 131.771 131.367 131.115 130.726 130.48 
136.412 136.567 136.263 135.799 136.688 136.423 135.969 135.649 135.188 
136.702 136.494 136.057 135.797 135.338 135.048 134.605 136.721 136.492 
136.057 135.831 135.389 135.155 134.705 134.444 133.988 136.82 136.561 
136.13 135.856 135.412 135.171 134.716 134.483 133.993 133.759 133.286 
136.892 136.667 136.252 135.975 135.516 135.227 134.743 134.472 133.954 
133.708 133.198 133.011 132.576 136.925 136.715 136.311 136.072 135.613 
135.334 134.824 134.521 133.989 133.692 133.177 132.929 132.472 132.306 
131.914 136.98 136.762 136.362 136.121 135.666 135.397 134.881 134.587 
134.054 133.758 133.261 132.977 132.516 132.259 131.82 131.64 131.245 
137.002 136.815 136.416 136.182 135.719 135.445 134.921 134.625 134.08 
133.802 133.306 133.061 132.611 132.351 131.884 131.61 131.148 130.963 
130.587 136.848 136.337 136.5 136.255 135.682 135.899 135.633 135.827 
135.526 134.961 135.177 134.877 135.116 134.805 135.021 134.69 134.258 
134.445 134.128 134.344 134.025 134.247 133.912 134.138 133.823 133.571 
133.734 133.398 133.605 133.271 133.475 133.118 133.332 133.016 133.281 
133.041 132.907 133.023 132.618 132.829 132.462 132.697 132.316 132.532 
132.19 132.46 132.232 132.549 132.363 132.325 132.361 131.885 132.026 
131.633 131.858 131.515 131.738 131.429 131.665 131.438 131.735 131.551 
131.862 131.643 131.88 131.83 131.346 131.365 130.97 131.096 130.805 
130.998 130.784 130.992 130.82 131.03 130.845 131.068 130.839 131.103 
130.882 131.618 131.491 131.053 130.958 130.57 130.562 130.25 130.366 
130.16 130.385 130.262 130.49 130.332 130.477 130.239 130.378 130.16 
130.4 130.29 137.102 137.337 137.018 136.602 137.66 137.264 136.817 
136.473 135.992 138.053 137.611 137.108 136.71 136.212 135.838 135.311 
138.325 137.949 137.399 137 136.463 136.073 135.537 135.15 134.613 
138.471 138.139 137.629 137.265 136.747 136.345 135.816 135.398 134.865 
134.467 133.948 138.723 138.335 137.902 137.528 137.114 136.697 136.23 
135.751 135.235 134.766 134.261 133.84 133.347 139.01 138.656 138.227 
137.86 137.483 137.111 136.7 136.235 135.719 135.197 134.666 134.198 
133.716 133.284 132.808 139.034 138.845 138.39 138.126 137.689 137.413 
136.986 136.646 136.128 135.667 135.086 134.608 134.093 133.669 133.215 
132.786 132.353 138.824 138.739 138.324 138.163 137.718 137.508 137.058 
136.812 136.327 135.983 135.433 134.997 134.468 134.042 133.604 133.201 
132.812 132.393 132.047 137.434 138.039 137.728 137.714 138.665 138.367 
138.404 138.062 138.081 139.27 138.982 139.052 138.772 138.862 138.513 
138.533 139.968 139.613 139.671 139.398 139.544 139.288 139.366 138.961 
138.857 140.775 140.404 140.453 140.075 140.215 139.957 140.106 139.772 
139.711 139.201 139.002 141.287 141.14 141.199 140.882 140.938 140.649 
140.775 140.49 140.496 140.051 139.894 139.355 139.212 141.264 141.356 
141.386 141.376 141.353 141.231 141.214 141.046 140.987 140.722 140.566 
140.184 140.015 139.583 139.448 141.109 141.156 141.139 141.276 141.283 
141.369 141.309 141.274 141.1 140.98 140.734 140.585 140.349 140.161 
139.94 139.66 139.411 141.273 141.117 141.108 141.084 141.176 141.238 
141.305 141.29 141.17 141.015 140.733 140.571 140.292 140.219 139.993 
139.903 139.649 139.438 139.146 141.517 142.022 141.592 141.339 142.504 
142.141 141.839 141.468 141.329 142.553 142.433 142.139 141.908 141.69 
141.482 141.396 142.278 142.282 142.022 141.999 141.83 141.752 141.584 
141.435 141.225 141.94 141.994 141.802 141.826 141.768 141.794 141.694 
141.561 141.233 141.045 140.708 141.43 141.641 141.544 141.651 141.625 
141.717 141.67 141.62 141.302 141.048 140.588 140.435 140.182 140.786 
141.084 141.059 141.308 141.24 141.451 141.333 141.46 141.195 141.087 
140.653 140.409 140.062 139.988 139.873 140.241 140.489 140.471 140.742 
140.64 140.89 140.699 140.932 140.722 140.857 140.602 140.505 140.192 
139.992 139.751 139.706 139.573 139.777 139.986 139.918 140.155 140.038 
140.253 140.062 140.26 140.096 140.326 140.248 140.388 140.243 140.142 
139.86 139.667 139.384 139.335 139.119 139.457 138.884 139.308 139.56 
138.279 138.704 138.98 139.412 139.653 137.734 138.132 138.411 138.835 
139.103 139.49 139.684 137.126 137.573 137.848 138.288 138.575 138.967 
139.205 139.536 139.751 136.423 136.899 137.165 137.667 137.939 138.406 
138.673 139.08 139.363 139.703 139.97 135.786 136.201 136.447 136.935 
137.187 137.69 137.931 138.446 138.743 139.252 139.547 139.925 140.057 
135.248 135.609 135.827 136.249 136.499 136.949 137.179 137.659 137.92 
138.489 138.775 139.323 139.448 139.804 139.707 134.741 135.083 135.283 
135.666 135.912 136.323 136.568 136.974 137.215 137.682 137.944 138.468 
138.623 139.055 139.003 139.299 139.168 134.277 134.59 134.79 135.141 
135.386 135.774 136.03 136.412 136.637 137.033 137.257 137.702 137.881 
138.279 138.305 138.598 138.536 138.811 138.811 138.598 138.249 138.31 
138.12 137.994 137.999 137.733 137.792 137.551 137.603 137.689 137.368 
137.406 137.077 137.162 136.88 137.024 137.19 136.87 136.961 136.586 
136.664 136.319 136.449 136.143 136.448 136.611 136.344 136.436 136.106 
136.165 135.826 135.903 135.565 135.675 135.308 135.879 136.073 135.874 
135.981 135.711 135.743 135.42 135.445 135.089 135.133 134.739 134.804 
134.399 135.236 135.474 135.295 135.501 135.252 135.355 134.99 135.024 
134.602 134.643 134.22 134.273 133.866 133.927 133.558 134.614 134.815 
134.607 134.849 134.601 134.798 134.43 134.52 134.059 134.107 133.673 
133.745 133.371 133.439 133.086 133.143 132.8 134.093 134.23 133.989 
134.164 133.906 134.101 133.791 133.923 133.534 133.581 133.185 133.229 
132.9 132.97 132.667 132.714 132.389 132.417 132.083 139.463 140.002 
139.875 140.067 140.357 140.336 140.559 140.418 140.564 140.548 140.606 
140.88 140.856 141.115 140.964 141.201 140.649 140.761 141.06 141.122 
141.45 141.467 141.803 141.688 141.905 140.61 140.816 141.131 141.264 
141.56 141.684 141.984 142.087 142.276 142.209 142.161 140.386 140.676 
141.016 141.265 141.574 141.736 141.979 142.103 142.262 142.331 142.323 
142.22 142.059 140.118 140.387 140.706 141.045 141.433 141.712 142.034 
142.139 142.347 142.345 142.466 142.374 142.368 142.156 142.075 139.936 
140.135 140.397 140.699 141.085 141.48 141.884 142.159 142.423 142.506 
142.677 142.638 142.718 142.54 142.463 142.211 142.066 139.796 139.98 
140.216 140.433 140.755 141.104 141.481 141.866 142.114 142.396 142.506 
142.703 142.746 142.799 142.676 142.519 142.228 142.027 141.746 139.189 
139.795 139.329 138.949 140.288 139.87 139.533 139.079 138.711 140.901 
140.387 140.07 139.634 139.332 138.864 138.493 141.592 141.075 140.704 
140.212 139.922 139.478 139.131 138.614 138.165 141.869 141.604 141.179 
140.796 140.423 140.04 139.669 139.204 138.721 138.199 137.733 141.797 
141.666 141.278 141.056 140.648 140.398 140.007 139.66 139.183 138.709 
138.23 137.777 137.444 141.847 141.666 141.397 141.139 140.809 140.54 
140.207 139.925 139.535 139.14 138.702 138.267 137.929 137.559 137.324 
141.887 141.804 141.632 141.405 141.151 140.812 140.51 140.174 139.858 
139.501 139.129 138.725 138.369 138.008 137.734 137.42 137.157 141.634 
141.737 141.614 141.593 141.367 141.153 140.808 140.504 140.153 139.842 
139.488 139.132 138.757 138.399 138.072 137.769 137.484 137.187 136.884 
138.679 138.443 138.313 137.839 138.21 138.071 137.605 137.503 137.077 
137.967 137.836 137.361 137.268 136.858 136.77 136.29 137.636 137.559 
137.069 137.002 136.585 136.535 136.08 135.923 135.325 137.267 137.204 
136.739 136.682 136.257 136.227 135.785 135.688 135.131 134.924 134.344 
137.046 136.913 136.481 136.37 135.941 135.885 135.444 135.373 134.851 
134.706 134.155 134 133.522 136.955 136.792 136.357 136.178 135.721 
135.594 135.145 135.051 134.558 134.43 133.91 133.781 133.311 133.208 
132.757 136.789 136.683 136.235 136.072 135.591 135.419 134.957 134.808 
134.344 134.187 133.698 133.549 133.089 132.98 132.541 132.422 131.945 
136.508 136.443 135.998 135.896 135.441 135.299 134.861 134.691 134.253 
134.054 133.586 133.386 132.921 132.773 132.338 132.216 131.765 131.614 
131.146 137.364 137.364 137.561 137.942 137.316 137.537 137.953 138.162 
138.557 137.279 137.494 137.915 138.154 138.6 138.794 139.189 137.219 
137.452 137.867 138.115 138.575 138.822 139.284 139.458 139.893 137.135 
137.373 137.796 138.057 138.507 138.778 139.226 139.487 139.938 140.171 
140.617 137.102 137.305 137.72 137.972 138.421 138.695 139.1 139.36 
139.73 140.047 140.443 140.779 141.085 137.074 137.28 137.654 137.89 
138.319 138.597 139.013 139.241 139.574 139.802 140.154 140.478 140.809 
141.079 141.189 136.968 137.211 137.559 137.796 138.185 138.472 138.904 
139.167 139.546 139.725 140.091 140.293 140.692 140.884 141.138 141.173 
141.201 136.828 137.08 137.433 137.67 138.024 138.302 138.709 139.023 
139.428 139.688 140.059 140.283 140.681 140.888 141.23 141.287 141.447 
141.325 141.39 
POINT_DATA 1002
SCALARS Distance double
LOOKUP_TABLE default
139.07 139.597 139.173 138.545 138.601 138.433 137.971 137.954 137.928 
137.875 137.366 137.336 137.413 137.387 137.336 136.709 136.684 136.76 
136.776 136.716 136.652 135.981 135.916 136.007 135.983 135.976 135.958 
135.962 135.2 135.136 135.256 135.207 135.213 135.289 135.348 135.411 
134.419 134.444 134.456 134.444 134.485 134.611 134.712 134.797 134.902 
133.71 133.82 133.653 133.624 133.706 133.88 133.983 134.061 134.222 
134.406 133.093 133.218 132.987 132.912 132.966 133.163 133.295 133.334 
133.481 133.738 133.976 139.763 139.349 139.898 139.476 140.098 138.729 
139.644 140.359 138.86 138.062 139.83 140.506 139.028 138.238 137.447 
139.912 140.467 139.164 138.401 137.622 136.73 139.869 140.339 139.211 
138.451 137.703 136.842 135.897 139.682 140.095 139.141 138.413 137.603 
136.83 135.988 135.132 139.274 139.64 138.861 138.285 137.445 136.612 
135.927 135.207 134.458 138.696 139.037 138.375 137.984 137.291 136.41 
135.699 135.12 134.464 133.787 138.182 137.86 137.396 137.043 136.664 
137.551 136.044 135.734 136.549 137.048 134.865 134.678 135.328 135.927 
136.271 133.92 133.822 134.257 134.875 135.335 135.503 133.192 133.098 
133.429 133.95 134.478 134.708 134.865 132.334 132.295 132.487 132.861 
133.351 133.692 133.913 134.193 131.394 131.447 131.468 131.722 132.095 
132.454 132.766 133.116 133.492 130.586 130.691 130.627 130.839 131.135 
131.431 131.735 132.09 132.498 132.895 132.521 132.104 131.782 131.658 
131.265 130.98 131.246 130.773 130.373 130.206 130.887 130.319 129.854 
129.657 129.627 130.588 129.883 129.322 129.227 129.243 129.136 130.319 
129.568 128.796 128.685 128.919 128.811 128.573 130.064 129.407 128.557 
128.161 128.405 128.517 128.291 128.153 129.918 129.333 128.638 128.049 
127.958 128.099 128.086 128.016 128.04 129.965 129.373 128.844 128.319 
127.973 127.878 127.893 127.95 128.015 128.065 132.42 131.723 132.343 
130.983 131.735 132.342 130.271 131.074 131.819 132.49 129.672 130.404 
131.181 131.961 132.664 129.08 129.837 130.576 131.331 132.096 132.729 
128.537 129.3 130.116 130.81 131.551 132.257 132.855 128.255 128.85 
129.682 130.398 131.053 131.805 132.513 133.134 128.193 128.618 129.349 
130.068 130.628 131.275 132.064 132.8 133.424 128.114 128.417 128.305 
128.892 128.819 129.073 129.516 129.366 129.721 129.852 129.817 129.57 
130.182 130.365 130.406 129.894 129.781 130.249 130.658 130.781 130.897 
130.341 130.318 130.495 130.925 131.26 131.372 131.636 131.051 130.883 
131.18 131.47 131.861 132.06 132.191 132.489 131.616 131.31 131.871 
132.096 132.4 132.696 132.853 133.007 133.235 132.055 131.744 132.367 
132.602 132.825 133.143 133.449 133.615 133.725 133.853 128.057 128.053 
128.093 128.148 128.223 128.302 128.339 128.262 128.567 128.898 128.262 
128.062 128.735 129.065 129.298 128.031 128.069 128.471 128.842 129.033 
129.359 128.263 128.589 128.369 128.507 128.551 128.959 129.671 128.882 
129.237 128.858 128.843 128.621 128.746 129.453 130.245 129.443 129.742 
129.469 129.589 129.412 129.212 129.497 130.109 130.724 129.959 130.231 
129.961 130.147 130.178 129.993 129.943 130.197 130.632 131.165 130.396 
129.72 130.224 129.697 130.243 129.202 129.831 130.329 129.262 128.758 
129.849 130.281 129.342 128.844 128.358 129.736 130.239 129.267 128.913 
128.554 128.1 129.803 130.388 129.225 128.895 128.774 128.432 127.995 
129.964 130.485 129.317 128.793 128.712 128.681 128.326 128.004 129.902 
130.359 129.322 128.645 128.329 128.446 128.435 128.201 128.053 131.301 
130.993 131.902 131.593 132.461 130.781 132.246 133.097 131.382 130.745 
133.04 133.807 132.145 131.338 130.767 133.826 134.453 133.024 132.127 
131.352 130.743 134.424 135.012 133.752 132.935 132.115 131.408 130.833 
134.888 135.543 134.262 133.574 132.845 132.17 131.552 130.992 135.383 
136.073 134.74 134.137 133.504 132.857 132.232 131.606 130.969 135.952 