# vtk DataFile Version 4.0
vtk output
ASCII
DATASET POLYDATA
POINTS 1002 float
-76.2534 -103.142 53.7501 -76.2637 -103.375 54.36 -76.7836 -103.261 54.0692 
-76.829 -102.915 53.4846 -77.3865 -102.995 53.8666 -76.2541 -102.677 53.1234 
-77.4191 -102.709 53.139 -77.9286 -102.859 53.4053 -76.8743 -102.483 52.7982 
-76.1215 -102.207 52.3248 -77.8934 -102.723 52.4542 -78.4222 -102.995 52.6015 
-77.4305 -102.417 52.2814 -76.7413 -102.06 51.9554 -75.8765 -101.87 51.5155 
-78.3627 -102.754 51.6818 -78.9957 -102.99 51.9602 -77.8569 -102.394 51.5225 
-77.3044 -101.927 51.4103 -76.5076 -101.625 51.1613 -75.7191 -101.424 50.9219 
-78.999 -102.476 51.2263 -79.6375 -102.582 51.6063 -78.3258 -102.261 50.8664 
-77.7442 -101.762 50.7588 -77.101 -101.316 50.6849 -76.3474 -101.089 50.5118 
-75.6381 -100.757 50.3992 -79.6972 -102.142 50.7368 -80.2615 -102.312 50.9671 
-78.9492 -102.078 50.3616 -78.195 -101.727 50.1612 -77.5541 -101.158 50.1609 
-76.8772 -100.79 50.0714 -76.1539 -100.497 49.934 -75.4275 -100.135 49.8075 
-80.2534 -102.134 49.9271 -80.8122 -102.477 50.0318 -79.5364 -101.948 49.727 
-78.7445 -101.714 49.5586 -78.0448 -101.193 49.5773 -77.351 -100.677 49.5873 
-76.5783 -100.325 49.4886 -75.8466 -99.9831 49.3555 -75.1265 -99.7613 49.1286 
-80.6178 -102.18 49.2776 -81.1891 -102.55 49.414 -79.9417 -101.8 49.1524 
-79.2367 -101.483 49.044 -78.6004 -101.039 49.0456 -77.9434 -100.526 49.0451 
-77.0975 -100.181 48.9381 -76.2655 -99.9236 48.7895 -75.5948 -99.6988 48.5804 
-74.9132 -99.6425 48.2631 -80.8383 -101.851 49.0784 -81.3369 -102.127 49.3116 
-80.2521 -101.462 48.8638 -79.6311 -101.102 48.7202 -79.0357 -100.694 48.7253 
-78.4622 -100.2 48.703 -77.6993 -99.8789 48.4667 -76.7851 -99.8063 48.1425 
-76.0533 -99.7555 47.863 -75.4706 -99.6815 47.5852 -74.7963 -99.6775 47.2974 
-76.7045 -103.475 54.8563 -77.3259 -103.467 54.6088 -77.395 -103.782 55.4736 
-77.9817 -104.053 55.2476 -78.049 -104.431 56.0416 -77.9161 -103.277 54.3866 
-78.3553 -104.807 55.7916 -78.341 -104.907 56.4461 -78.3656 -103.864 54.9308 
-78.4326 -103.176 53.7589 -78.4951 -104.874 56.2048 -78.5771 -104.631 56.8282 
-78.5357 -104.196 55.4089 -78.857 -103.535 54.1433 -79.026 -103.311 52.8482 
-78.9994 -104.165 56.6233 -79.144 -103.91 57.3305 -78.9031 -103.856 55.8354 
-79.2703 -103.522 54.6033 -79.6495 -103.502 53.2091 -79.6648 -103.198 52.2604 
-79.8074 -103.504 57.0638 -79.7404 -103.355 57.8328 -79.7795 -103.487 56.2079 
-80.0056 -103.412 55.074 -80.3383 -103.5 53.7451 -80.33 -103.335 52.6436 
-80.2277 -102.767 51.8144 -80.4005 -103.179 57.4713 -80.1134 -103.063 58.2044 
-80.6066 -103.407 56.5689 -80.8047 -103.543 55.4602 -81.0175 -103.531 54.3017 
-80.9653 -103.333 53.2119 -80.7914 -102.963 52.1096 -80.8106 -102.659 50.977 
-80.815 -102.954 57.863 -80.4732 -102.861 58.5071 -81.0895 -103.213 57.0027 
-81.2503 -103.451 55.8707 -81.4066 -103.416 54.7397 -81.4274 -103.131 53.7788 
-81.2907 -102.868 52.6751 -81.2983 -102.806 51.289 -81.3661 -102.791 50.0818 
-81.2352 -102.711 58.2161 -80.9106 -102.63 58.7903 -81.4426 -102.842 57.427 
-81.4751 -102.979 56.3313 -81.547 -102.972 55.1338 -81.6888 -102.76 54.1482 
-81.6799 -102.527 53.2176 -81.6481 -102.508 51.9468 -81.7259 -102.625 50.5722 
-81.6601 -102.549 49.6761 -81.4729 -102.375 58.6358 -81.6992 -102.427 57.8949 
-81.6656 -101.969 58.0816 -81.7589 -101.926 57.1127 -81.5006 -101.394 57.0926 
-81.6869 -102.425 56.8688 -81.7289 -101.269 56.1595 -81.4934 -100.754 56.1623 
-81.7637 -101.853 56.0227 -81.6513 -102.411 55.6325 -81.9675 -100.498 55.4757 
-81.7091 -100.136 55.4754 -82.0514 -101.194 55.2899 -82.0114 -101.902 54.8702 
-81.8753 -102.365 54.4524 -82.0531 -99.8112 54.7408 -81.6433 -99.6198 54.6575 
-82.3494 -100.344 54.6476 -82.4992 -101.296 54.204 -82.3981 -101.96 53.7241 
-82.0541 -102.225 53.4694 -81.7333 -99.459 53.7253 -81.3376 -99.1708 53.7909 
-82.2148 -99.6967 53.6763 -82.6136 -100.4 53.4197 -82.687 -101.303 52.9987 
-82.3667 -101.782 52.6771 -81.9633 -102.087 52.3825 -81.5159 -99.0749 52.9325 
-81.2142 -98.5838 53.2145 -81.9852 -99.344 52.7051 -82.4399 -99.677 52.5174 
-82.5981 -100.37 52.2928 -82.3596 -101.035 52.0056 -82.0443 -101.499 51.6216 
-81.8923 -102.073 51.0897 -81.5948 -98.3055 52.5068 -81.2741 -97.8498 52.8077 
-82.0191 -98.6763 52.1892 -82.3849 -98.9829 51.9035 -82.4861 -99.504 51.6999 
-82.2559 -100.187 51.5006 -81.9359 -100.729 51.1696 -81.8253 -101.289 50.6632 
-81.8229 -102.008 50.0905 -81.6654 -97.4374 52.1564 -81.3074 -97.1548 52.3824 
-82.0547 -97.7341 51.9205 -82.338 -98.0504 51.6169 -82.3938 -98.5463 51.2942 
-82.2166 -99.2863 51.0335 -81.913 -99.9731 50.7846 -81.6865 -100.464 50.4577 
-81.6217 -101.017 50.0409 -81.5551 -101.666 49.6139 -81.1084 -101.218 49.1908 
-81.3081 -100.688 49.4603 -81.0229 -100.25 48.6164 -81.4567 -100.182 49.7474 
-81.2266 -99.83 48.778 -81.0666 -99.6263 47.519 -81.6768 -99.725 49.997 
-81.4357 -99.4333 49.0512 -81.1613 -99.314 47.867 -80.8065 -99.3342 46.9023 
-81.9277 -99.0598 50.2364 -81.6952 -98.8082 49.3284 -81.2863 -98.7743 48.4146 
-80.7169 -98.9615 47.6715 -80.1237 -98.953 47.3421 -82.074 -98.2258 50.5675 
-81.8136 -97.9971 49.6315 -81.5021 -97.8965 48.7746 -80.8171 -98.1301 48.2326 
-80.0548 -98.3322 47.9976 -79.4874 -98.1354 47.7955 -82.1048 -97.5779 51.0234 
-81.7211 -97.3973 50.1261 -81.5434 -97.1998 49.0856 -81.1228 -97.0926 48.3535 
-80.3033 -97.2669 48.0695 -79.5859 -97.2919 47.8806 -79.1028 -97.0769 47.4829 
-82.0099 -97.181 51.4287 -81.583 -96.9992 50.7137 -81.3407 -96.8367 49.631 
-81.2507 -96.4047 48.5535 -80.6907 -96.2089 48.0037 -79.8499 -96.3182 47.7787 
-79.222 -96.2986 47.4193 -78.7962 -96.2042 46.9362 -81.7725 -96.8902 51.6606 
-81.4869 -96.5843 51.1226 -81.1494 -96.3861 50.2516 -81.1217 -95.9118 49.0584 
-80.9053 -95.4681 48.2099 -80.132 -95.4822 47.931 -79.3275 -95.6028 47.6313 
-78.8547 -95.5562 47.0981 -78.5586 -95.518 46.6043 -81.4605 -96.6494 51.8365 
-81.392 -96.1908 51.3721 -81.1186 -95.8193 50.7619 -80.9828 -95.3721 49.7154 
-80.9114 -94.9348 48.6437 -80.3744 -94.8343 48.1734 -79.498 -94.9374 47.9715 
-78.8856 -94.9105 47.4846 -78.6299 -94.8106 46.8599 -78.4408 -94.8109 46.3865 
-80.687 -100.937 48.7449 -80.7403 -100.112 47.8267 -80.1727 -100.675 48.3569 
-80.6997 -99.647 46.7344 -80.144 -100.066 47.4637 -79.499 -100.406 48.3103 
-80.1891 -99.2904 46.604 -79.8311 -99.6324 46.7661 -79.2127 -99.857 47.7554 
-78.7938 -99.9519 48.4571 -79.4987 -98.6709 47.2067 -79.3397 -99.1037 46.7406 
-78.8431 -99.3691 47.1901 -78.3749 -99.3973 47.9518 -78.0876 -99.524 48.2518 
-79.0126 -97.7522 47.2777 -78.9843 -98.4115 46.7464 -78.7304 -98.8707 46.5691 
-78.1628 -99.046 47.0422 -77.6232 -99.198 47.444 -77.2068 -99.513 47.6678 
-78.6504 -96.8267 46.7957 -78.6245 -97.5983 46.4238 -78.6047 -98.2914 45.9733 
-78.1703 -98.73 46.026 -77.3913 -99.079 46.4136 -76.765 -99.4704 46.6933 
-76.3764 -99.7212 47.1285 -78.3634 -96.0709 46.4101 -78.2001 -96.76 46.1709 
-78.1347 -97.4971 45.7734 -77.8611 -98.1398 45.5495 -77.1667 -98.7109 45.734 
-76.452 -99.2935 45.9847 -76.0485 -99.7069 46.2334 -75.7816 -99.7823 46.787 
-78.2012 -95.3646 46.1836 -77.8907 -95.9714 46.0435 -77.5984 -96.6088 45.8593 
-77.2442 -97.2784 45.6536 -76.6817 -97.956 45.6303 -76.073 -98.635 45.7664 
-75.6844 -99.2591 45.8628 -75.4465 -99.6403 46.0517 -75.1542 -99.72 46.5638 
-78.1503 -94.4043 46.0354 -77.7577 -95.0283 45.8627 -77.4979 -94.0857 45.7383 
-76.9629 -94.7622 45.6062 -76.4889 -94.0064 45.6392 -77.2717 -95.6631 45.829 
-75.9143 -94.78 45.6435 -75.5069 -94.1984 45.836 -76.318 -95.5073 45.7455 
-76.7123 -96.3389 45.8291 -74.9189 -94.9529 45.8817 -74.6697 -94.3712 46.064 
-75.2132 -95.6516 45.779 -75.5873 -96.3328 45.7735 -76.0871 -97.0859 45.7446 
-73.9728 -94.9269 45.8898 -73.747 -94.3141 46.1058 -74.194 -95.7498 45.6276 
-74.525 -96.4897 45.3946 -74.9913 -97.0646 45.4961 -75.5379 -97.7811 45.7062 
-73.0783 -94.87 45.8816 -72.9202 -94.3353 46.2795 -73.2938 -95.6514 45.4409 
-73.6353 -96.4378 44.9526 -74.1199 -97.0046 44.9397 -74.6412 -97.5784 45.4398 
-75.18 -98.4359 45.7749 -72.475 -95.0925 46.2988 -72.4171 -94.6425 46.782 
-72.621 -95.6892 45.7936 -72.9123 -96.3009 45.2209 -73.3637 -96.8439 44.9443 
-73.8297 -97.4139 45.2659 -74.3149 -98.2064 45.6959 -74.9036 -99.0818 45.8469 
-72.0538 -95.3635 46.883 -71.9992 -94.9556 47.3395 -72.1463 -95.8418 46.4324 
-72.3233 -96.2999 45.9993 -72.6788 -96.7825 45.6929 -73.0863 -97.4022 45.6793 
-73.4288 -98.1697 45.8323 -73.9102 -98.96 45.91 -74.5705 -99.5189 46.0735 
-71.5725 -95.4306 47.3188 -71.4909 -95.0633 47.7477 -71.649 -95.8558 46.8554 
-71.7141 -96.3079 46.4623 -71.939 -96.8405 46.2491 -72.3758 -97.5185 46.1914 
-72.7663 -98.2542 46.174 -73.0753 -98.9289 46.1378 -73.5574 -99.4405 46.2209 
-74.2057 -99.6752 46.6223 -78.4811 -93.9958 46.4445 -78.0974 -93.5927 46.1405 
-78.4219 -93.2993 46.6391 -77.8162 -93.1611 46.5761 -78.1453 -93.0184 47.1873 
-77.2082 -93.4231 46.0315 -77.3003 -93.1029 47.3642 -77.6875 -92.807 48.0892 
-76.7672 -93.166 46.694 -76.1083 -93.501 46.0951 -76.809 -92.576 48.1838 
-77.343 -92.0808 48.8305 -76.3585 -92.9264 47.4071 -75.8267 -93.2084 46.7431 
-75.2527 -93.7813 46.2629 -76.6069 -91.5079 48.7036 -77.2226 -91.4257 49.1081 
-76.1585 -92.1412 47.9624 -75.7257 -92.8182 47.2967 -75.1051 -93.4798 46.8214 
-74.4123 -93.9784 46.4084 -76.5433 -91.2478 49.0436 -77.0764 -91.7306 49.3379 
-76.0808 -91.5641 48.5104 -75.6516 -92.3862 47.8863 -74.9831 -93.2012 47.4638 
-74.1581 -93.7163 47.0353 -73.4468 -93.9577 46.558 -76.389 -92.0732 49.4995 
-76.8032 -92.5504 49.8639 -75.9282 -92.0407 49.1247 -75.4334 -92.4722 48.6164 
-74.7536 -93.0274 48.1681 -73.9373 -93.4705 47.7901 -73.2558 -93.7559 47.3184 
-72.7697 -94.0851 46.9285 -76.1782 -92.8571 50.1507 -76.5205 -93.0862 50.5585 
-75.7061 -92.8242 49.7912 -75.1251 -92.9271 49.3527 -74.4351 -93.0285 48.8431 
-73.7071 -93.216 48.4213 -73.1413 -93.559 48.0698 -72.7303 -93.9716 47.7291 
-72.3412 -94.4441 47.4811 -75.9646 -93.1125 50.9042 -76.2715 -93.2991 51.2353 
-75.4763 -93.0934 50.5683 -74.8295 -93.1074 50.162 -74.1341 -93.0212 49.6116 
[...]
CELL_DATA 2000
SCALARS Distance double
LOOKUP_TABLE default
138.381 138.445 138.258 137.895 138.487 138.307 137.95 137.725 137.272 
138.523 138.334 137.99 137.785 137.35 137.061 136.564 138.573 138.362 
137.974 137.791 137.355 137.119 136.611 136.345 135.87 138.572 138.383 
137.943 137.744 137.27 137.063 136.552 136.337 135.84 135.639 135.168 
138.516 138.347 137.941 137.726 137.26 137.003 136.499 136.256 135.769 
135.569 135.097 134.897 134.403 138.531 138.32 137.942 137.732 137.303 
137.046 136.562 136.272 135.784 135.525 135.053 134.826 134.346 134.123 
133.65 138.586 138.365 137.927 137.716 137.256 137.054 136.57 136.336 
135.829 135.568 135.062 134.807 134.32 134.086 133.636 133.424 133.032 
138.456 138.326 137.814 137.637 137.116 136.947 136.451 136.277 135.773 
135.56 135.034 134.797 134.291 134.069 133.638 133.439 133.085 132.891 
132.583 138.689 139.362 138.939 138.817 140.346 139.789 139.62 139.071 
138.878 141.248 140.816 140.59 139.951 139.626 139.103 138.9 141.595 
141.46 141.186 140.748 140.315 139.833 139.554 139.145 138.979 141.591 
141.557 141.297 141.059 140.663 140.357 140.113 139.792 139.625 139.22 
139.003 141.679 141.576 141.442 141.197 140.998 140.702 140.614 140.331 
140.238 139.851 139.607 139.164 138.901 141.86 141.755 141.761 141.551 
141.536 141.229 141.226 140.907 140.833 140.446 140.197 139.746 139.467 
139.068 138.893 142.046 141.968 142.026 141.923 141.937 141.76 141.676 
141.449 141.253 140.955 140.642 140.271 139.969 139.618 139.441 139.116 
138.976 142.24 142.174 142.206 142.136 142.063 141.967 141.751 141.637 
141.332 141.175 140.82 140.584 140.247 140.003 139.771 139.56 139.375 
139.115 138.856 142.33 142.196 142.309 142.252 141.546 141.938 141.888 
142.088 141.97 140.678 141.135 141.152 141.514 141.414 141.669 141.546 
139.978 140.341 140.438 140.794 140.83 141.089 141.03 141.232 141.132 
139.297 139.676 139.741 140.141 140.269 140.604 140.653 140.82 140.728 
140.837 140.682 138.499 138.914 138.917 139.366 139.446 139.949 140.034 
140.403 140.301 140.459 140.237 140.351 140.151 137.748 138.123 138.152 
138.532 138.568 139.033 139.094 139.591 139.516 139.857 139.608 139.831 
139.613 139.82 139.684 137.075 137.429 137.479 137.827 137.847 138.209 
138.22 138.641 138.6 138.979 138.797 139.085 138.878 139.184 139.079 
139.372 139.274 136.412 136.757 136.772 137.139 137.114 137.473 137.405 
137.79 137.721 138.111 137.997 138.304 138.132 138.417 138.288 138.644 
138.557 138.893 138.736 138.247 138.062 137.909 137.343 137.839 137.699 
137.184 136.981 136.448 137.697 137.533 137.066 136.857 136.367 136.161 
135.74 137.508 137.381 136.882 136.732 136.238 136.081 135.663 135.528 
135.175 137.196 137.096 136.538 136.452 135.913 135.849 135.382 135.352 
134.953 134.911 134.484 136.907 136.766 136.216 136.087 135.557 135.47 
134.963 134.939 134.466 134.51 134.023 134.039 133.488 136.663 136.524 
136.013 135.845 135.346 135.187 134.667 134.53 133.994 133.953 133.446 
133.472 132.948 132.947 132.418 136.365 136.282 135.797 135.667 135.161 
135.007 134.455 134.273 133.689 133.547 133.029 132.969 132.508 132.461 
132 131.957 131.541 136.042 135.981 135.533 135.434 134.938 134.796 
134.234 134.046 133.459 133.283 132.771 132.659 132.222 132.131 131.692 
131.608 131.188 131.164 130.819 138.089 137.198 137.606 137.461 136.31 
136.697 136.604 136.96 136.792 135.599 135.882 135.801 136.136 136.022 
136.323 136.151 135.027 135.24 135.105 135.384 135.262 135.565 135.392 
135.677 135.473 134.364 134.644 134.457 134.706 134.529 134.806 134.604 
134.886 134.646 134.948 134.721 133.415 133.847 133.693 134.023 133.848 
134.106 133.898 134.119 133.871 134.116 133.886 134.189 133.996 132.359 
132.816 132.724 133.169 133.07 133.418 133.254 133.476 133.249 133.423 
133.218 133.436 133.29 133.547 133.411 131.487 131.844 131.771 132.195 
132.138 132.568 132.451 132.789 132.585 132.824 132.627 132.848 132.726 
132.95 132.852 133.055 132.928 130.787 131.079 130.991 131.327 131.243 
131.631 131.511 131.901 131.714 132.061 131.863 132.19 132.057 132.373 
132.276 132.531 132.404 132.597 132.446 130.372 129.727 130.227 130.555 
129.004 129.528 129.876 130.403 130.754 128.454 128.85 129.193 129.695 
130.056 130.588 130.957 128.116 128.407 128.698 129.089 129.421 129.885 
130.227 130.766 131.134 127.648 128.004 128.199 128.602 128.847 129.275 
129.547 130.035 130.375 130.935 131.317 127.145 127.444 127.608 128.007 
128.206 128.643 128.86 129.336 129.634 130.185 130.593 131.165 131.578 
127.045 127.118 127.337 127.528 127.773 128.052 128.304 128.675 128.991 
129.473 129.896 130.465 130.936 131.477 131.859 127.212 127.208 127.412 
127.468 127.703 127.818 128.089 128.296 128.657 128.981 129.427 129.861 
130.337 130.843 131.263 131.738 132.027 127.241 127.314 127.413 127.514 
127.635 127.768 127.956 128.163 128.499 128.786 129.227 129.544 129.978 
130.337 130.725 131.144 131.461 131.869 132.094 130.129 129.601 129.739 
129.482 129.281 129.284 128.999 129.058 128.78 129.171 129.098 128.799 
128.698 128.384 128.406 128.235 128.869 128.922 128.604 128.555 128.214 
128.145 127.944 128.013 127.94 128.349 128.423 128.094 128.222 127.957 
127.999 127.815 127.83 127.701 127.743 127.563 128.246 128.02 127.751 
127.751 127.669 127.748 127.711 127.737 127.617 127.567 127.331 127.286 
127.072 128.747 128.284 128.103 127.796 127.815 127.687 127.735 127.679 
127.596 127.508 127.292 127.166 126.978 126.929 126.929 129.343 128.941 
128.782 128.408 128.346 128.059 127.97 127.773 127.594 127.473 127.28 
127.187 127.072 126.989 127.004 126.993 127.112 129.711 129.447 129.247 
128.984 128.784 128.52 128.24 127.977 127.648 127.462 127.245 127.184 
127.14 127.12 127.153 127.12 127.157 127.16 127.187 135.743 135.141 
135.376 135.229 134.498 134.748 134.572 134.816 134.625 133.788 134.063 
133.869 134.128 133.883 134.136 133.886 133.005 133.289 133.07 133.375 
133.133 133.383 133.099 133.35 133.11 132.229 132.471 132.203 132.518 
132.3 132.609 132.364 132.604 132.362 132.616 132.453 131.552 131.73 
131.431 131.663 131.405 131.727 131.489 131.817 131.555 131.86 131.65 
131.989 131.869 130.952 131.099 130.773 130.929 130.582 130.827 130.531 
130.871 130.593 130.949 130.682 131.077 130.905 131.359 131.272 130.408 
130.519 130.146 130.254 129.803 129.976 129.606 129.917 129.694 130.03 
129.836 130.132 129.97 130.347 130.289 130.761 130.76 129.983 130.028 
129.653 129.658 129.155 129.192 128.747 128.988 128.816 129.212 129.19 
129.479 129.407 129.602 129.55 129.86 129.908 130.337 130.419 135.945 
136.102 135.799 135.362 136.29 135.971 135.487 135.181 134.709 136.412 
136.131 135.613 135.29 134.768 134.494 134.007 136.462 136.21 135.702 
135.388 134.851 134.554 134.061 133.787 133.283 136.549 136.277 135.804 
135.481 134.957 134.641 134.145 133.862 133.363 133.058 132.537 136.662 
136.398 135.942 135.62 135.099 134.759 134.236 133.939 133.43 133.138 
132.608 132.313 131.826 136.703 136.482 136.028 135.752 135.234 134.903 
134.356 134.03 133.507 133.204 132.689 132.385 131.89 131.626 131.206 
136.675 136.482 136.039 135.806 135.323 135.028 134.502 134.162 133.638 
133.31 132.818 132.5 132.024 131.718 131.285 131.036 130.671 136.613 
136.438 136.016 135.81 135.376 135.122 134.652 134.327 133.81 133.461 
132.953 132.638 132.169 131.873 131.438 131.155 130.774 130.539 130.23 
136.422 135.896 136.057 135.825 135.313 135.495 135.281 135.45 135.206 
134.754 134.906 134.687 134.881 134.653 134.809 134.507 134.24 134.366 
134.101 134.271 134.009 134.197 133.867 134.022 133.648 133.634 133.812 
133.487 133.651 133.302 133.49 133.1 133.289 132.883 133.088 132.741 
132.889 133.107 132.729 132.932 132.514 132.72 132.3 132.491 132.083 
132.286 131.959 132.209 131.952 132.174 132.332 131.918 132.097 131.665 
131.878 131.501 131.715 131.379 131.555 131.265 131.465 131.24 131.477 
131.258 131.565 131.65 131.225 131.335 130.93 131.081 130.76 130.966 
130.717 130.915 130.672 130.845 130.615 130.81 130.604 130.816 130.615 
130.997 131.049 130.619 130.709 130.352 130.464 130.186 130.332 130.111 
130.29 130.065 130.249 130.004 130.198 129.982 130.194 130.022 130.231 
130.081 130.529 129.7 130.099 130.137 128.976 129.311 129.378 129.805 
129.93 128.312 128.626 128.694 129.112 129.298 129.69 129.835 127.595 
127.937 128.001 128.444 128.65 129.086 129.256 129.613 129.745 126.961 
127.24 127.343 127.762 127.997 128.441 128.62 129 129.102 129.49 
129.631 126.673 126.784 126.943 127.223 127.493 127.848 128.036 128.364 
128.436 128.795 128.905 129.354 129.544 126.732 126.716 126.894 127.01 
127.245 127.448 127.587 127.82 127.87 128.158 128.267 128.656 128.882 
129.321 129.566 126.928 126.881 127.033 127.062 127.204 127.27 127.303 
127.417 127.441 127.659 127.823 128.143 128.439 128.789 129.096 129.434 
129.678 127.105 127.064 127.142 127.158 127.206 127.222 127.189 127.204 
127.216 127.34 127.555 127.819 128.176 128.476 128.804 129.074 129.316 
129.582 129.776 130.691 130.763 130.429 129.867 130.883 130.559 130.017 
129.659 129.158 130.93 130.678 130.219 129.882 129.364 128.997 128.502 
131.016 130.734 130.316 130.053 129.553 129.202 128.613 128.281 127.748 
131.326 130.927 130.499 130.17 129.669 129.314 128.694 128.344 127.75 
127.487 127.054 131.722 131.308 130.869 130.458 129.947 129.485 128.875 
128.437 127.906 127.569 127.188 126.937 126.732 132.017 131.656 131.196 
130.824 130.31 129.842 129.256 128.75 128.295 127.888 127.628 127.265 
127.084 126.802 126.759 132.256 131.906 131.435 131.086 130.588 130.184 
129.645 129.185 128.764 128.38 128.166 127.821 127.649 127.275 127.129 
126.895 126.915 132.507 132.158 131.714 131.341 130.89 130.486 130.025 
129.589 129.193 128.828 128.58 128.301 128.089 127.782 127.545 127.266 
127.155 127.038 127.092 131.264 132.157 131.586 131.347 133.075 132.499 
132.25 131.67 131.41 134.012 133.422 133.161 132.565 132.268 131.693 
131.417 134.937 134.352 134.084 133.483 133.225 132.607 132.348 131.733 
131.528 135.867 135.297 135.078 134.449 134.246 133.623 133.445 132.788 
132.605 131.959 131.846 136.842 136.307 136.206 135.548 135.377 134.703 
134.528 133.893 133.719 133.088 132.924 132.328 132.222 137.75 137.315 
137.291 136.718 136.564 135.882 135.644 134.963 134.727 134.118 133.923 
133.36 133.196 132.654 132.515 138.508 138.167 138.148 137.707 137.557 
136.988 136.726 136.065 135.771 135.114 134.873 134.292 134.115 133.582 
133.421 132.897 132.748 139.169 138.871 138.871 138.49 138.368 137.876 
137.645 137.064 136.78 136.149 135.868 135.25 135.017 134.463 134.275 
133.767 133.598 133.104 132.961 139.54 140.017 139.624 139.253 140.373 
140.063 139.665 139.248 138.745 140.443 140.276 139.887 139.587 139.032 
138.607 137.999 140.285 140.181 139.767 139.641 139.105 138.797 138.131 
137.758 137.121 140.016 139.938 139.46 139.393 138.881 138.72 138.071 
137.791 137.117 136.82 136.199 139.582 139.598 139.121 139.06 138.553 
138.441 137.849 137.64 136.978 136.736 136.114 135.874 135.31 139.06 
139.127 138.719 138.696 138.214 138.13 137.6 137.43 136.824 136.582 
135.973 135.747 135.207 135.009 134.528 138.672 138.685 138.342 138.308 
137.864 137.792 137.301 137.192 136.658 136.46 135.883 135.639 135.106 
134.9 134.445 134.271 133.849 138.442 138.403 138.081 138.007 137.585 
137.476 136.997 136.895 136.405 136.277 135.758 135.562 135.042 134.831 
134.375 134.195 133.791 133.62 133.226 138.243 137.726 137.95 137.828 
137.038 137.322 137.159 137.44 137.273 136.316 136.579 136.404 136.7 
136.527 136.818 136.652 135.654 135.882 135.706 135.965 135.798 136.064 
135.885 136.182 136.037 134.944 135.199 134.978 135.258 135.05 135.332 
135.112 135.399 135.206 135.547 135.396 134.146 134.415 134.135 134.443 
134.187 134.515 134.265 134.581 134.349 134.687 134.513 134.88 134.722 
133.4 133.614 133.344 133.595 133.363 133.647 133.435 133.724 133.509 
133.818 133.639 133.996 133.862 134.221 134.085 132.799 132.941 132.701 
132.889 132.703 132.925 132.755 132.979 132.776 133.015 132.816 133.13 
132.992 133.366 133.26 133.62 133.506 132.338 132.414 132.158 132.304 
132.103 132.313 132.126 132.345 132.113 132.319 132.073 132.33 132.159 
132.506 132.408 132.789 132.697 133.055 132.945 132.505 132.253 132.171 
131.728 131.97 131.906 131.476 131.38 130.915 131.71 131.619 131.217 
131.137 130.69 130.563 130.077 131.591 131.4 130.976 130.883 130.479 
130.365 129.894 129.734 129.286 131.624 131.348 130.859 130.678 130.259 
130.151 129.699 129.556 129.089 128.98 128.639 131.675 131.405 130.906 
130.636 130.186 129.99 129.527 129.342 128.82 128.71 128.294 128.332 
128.061 131.697 131.456 131.016 130.736 130.328 130.048 129.622 129.297 
128.769 128.476 128.003 127.931 127.651 127.742 127.533 131.793 131.534 
131.156 130.879 130.524 130.253 129.893 129.541 129.075 128.628 128.168 
127.835 127.582 127.469 127.371 127.344 127.245 132.019 131.73 131.397 
131.082 130.728 130.446 130.085 129.802 129.378 129.004 128.565 128.177 
127.904 127.642 127.56 127.402 127.376 127.245 127.209 142.224 142.069 
142.182 142.3 141.905 142.037 142.204 142.355 142.487 141.687 141.808 
141.861 142.124 142.221 142.433 142.334 141.512 141.505 141.323 141.558 
141.532 141.932 141.893 142.083 141.82 141.429 141.314 140.948 140.966 
140.872 141.204 141.366 141.655 141.679 141.654 141.468 141.075 141.122 
140.743 140.685 140.615 140.784 141.143 141.393 141.711 141.708 141.697 
141.482 141.287 140.251 140.547 140.295 140.443 140.44 140.668 141.029 
141.333 141.679 141.806 141.804 141.698 141.434 141.239 140.907 139.352 
139.685 139.588 139.902 139.973 140.363 140.62 141.057 141.241 141.558 
141.468 141.587 141.286 141.239 140.862 140.725 140.345 138.721 138.96 
138.95 139.246 139.342 139.756 139.929 140.404 140.474 140.874 140.762 
141.038 140.823 140.952 140.669 140.626 140.283 140.14 139.79 142.293 
142.336 142.286 142.218 142.467 142.37 142.204 142.103 141.843 142.29 
142.368 142.116 142.049 141.705 141.601 141.214 141.717 141.935 141.682 
141.785 141.414 141.401 141 140.917 140.499 141.251 141.334 141.082 
141.212 140.897 140.996 140.65 140.666 140.282 140.198 139.779 141.031 
141.008 140.727 140.717 140.403 140.453 140.139 140.236 139.906 139.936 
139.543 139.47 139.057 140.685 140.76 140.474 140.462 140.106 140.056 
139.67 139.702 139.351 139.458 139.101 139.157 138.764 138.738 138.36 
140.132 140.29 140.011 140.119 139.773 139.77 139.346 139.295 138.876 
138.9 138.538 138.632 138.286 138.362 138.013 138.036 137.701 139.567 
139.704 139.416 139.565 139.248 139.348 138.975 138.975 138.569 138.52 
138.143 138.137 137.811 137.867 137.562 137.633 137.328 137.373 137.067 
142.331 142.18 142.286 142.172 141.738 141.959 141.77 141.877 141.509 
141.09 141.372 141.151 141.327 140.95 141.024 140.605 140.38 140.674 
140.489 140.684 140.367 140.456 140.111 140.186 139.896 139.651 139.951 
139.805 140.049 139.809 139.931 139.63 139.722 139.449 139.549 139.252 
138.931 139.215 139.064 139.353 139.145 139.357 139.052 139.203 138.876 
139.03 138.694 138.816 138.447 138.263 138.514 138.35 138.615 138.407 
138.648 138.352 138.545 138.205 138.385 138.049 138.203 137.859 137.98 
137.658 137.631 137.869 137.706 137.935 137.731 137.937 137.67 137.843 
137.551 137.72 137.454 137.603 137.332 137.433 137.145 137.249 136.985 
137.01 137.246 137.086 137.309 137.119 137.313 137.076 137.227 136.964 
137.114 136.884 137.054 136.835 136.963 136.7 136.782 136.502 136.603 
136.347 131.433 131.965 131.885 132.288 132.522 132.398 132.776 132.747 
133.191 133.183 132.973 133.305 133.232 133.713 133.703 134.176 133.91 
133.677 133.974 133.812 134.282 134.257 134.803 134.733 135.154 134.538 
134.386 134.714 134.535 134.967 134.876 135.404 135.356 135.803 135.671 
136.024 135.061 134.971 135.361 135.255 135.693 135.584 136.05 135.961 
136.374 136.264 136.608 136.5 136.878 135.603 135.503 135.898 135.845 
136.289 136.243 136.682 136.599 136.98 136.845 137.172 137.045 137.401 
137.342 137.741 136.174 136.063 136.415 136.349 136.736 136.728 137.13 
137.13 137.507 137.439 137.772 137.64 137.974 137.862 138.227 138.165 
138.516 136.699 136.612 136.935 136.849 137.171 137.123 137.459 137.474 
137.831 137.864 138.225 138.2 138.544 138.45 138.782 138.67 138.988 
138.896 139.186 
POINT_DATA 1002
SCALARS Distance double
LOOKUP_TABLE default
138.076 138.491 138.578 138.122 138.636 137.49 138.164 138.66 137.564 
136.763 138.179 138.732 137.629 136.858 136.072 138.177 138.811 137.567 
136.87 136.108 135.43 138.163 138.744 137.491 136.754 136.035 135.379 
134.695 138.136 138.669 137.525 136.764 135.981 135.293 134.619 133.897 
138.157 138.769 137.536 136.85 136.073 135.301 134.567 133.853 133.201 
138.17 138.821 137.455 136.777 136.085 135.331 134.555 133.839 133.218 
132.679 137.986 138.561 137.285 136.61 135.968 135.266 134.507 133.815 
133.261 132.778 132.294 139 139.239 139.848 140.282 140.909 139.339 
141.256 141.58 140.232 139.31 141.545 141.659 140.757 139.959 139.397 
141.47 141.647 140.878 140.358 140.025 139.455 141.614 141.778 141.246 
140.874 140.616 140.076 139.294 141.875 141.927 141.796 141.571 141.237 
140.65 139.869 139.242 142.105 142.107 142.101 141.917 141.543 140.981 
140.297 139.745 139.338 142.311 142.304 142.204 141.885 141.453 141.003 
140.476 139.971 139.601 139.187 142.377 142.242 141.971 141.603 141.067 
141.821 140.736 140.234 141.12 141.303 140.054 139.646 140.527 140.848 
140.941 139.327 138.919 139.844 140.44 140.675 140.569 138.496 138.084 
138.929 139.567 140.097 140.134 140.01 137.79 137.371 138.172 138.607 
139.112 139.342 139.35 139.483 137.126 136.728 137.521 137.849 138.205 
138.485 138.565 138.72 139.035 136.419 136.092 136.771 137.051 137.317 
137.643 137.865 137.967 138.179 138.459 137.721 137.548 136.762 137.371 
136.634 135.95 137.261 136.568 135.901 135.371 137.018 136.37 135.777 
135.313 134.842 136.629 135.969 135.402 134.969 134.58 134.031 136.355 
135.666 135.04 134.448 133.983 133.508 132.925 136.168 135.517 134.857 
134.105 133.431 132.926 132.41 131.918 135.907 135.318 134.65 133.859 
133.106 132.55 132.048 131.542 131.164 135.617 135.076 134.42 133.633 
132.887 132.321 131.795 131.234 130.787 130.507 137.112 136.219 136.483 
135.478 135.708 135.877 134.871 134.966 135.113 135.187 134.221 134.282 
134.342 134.358 134.392 133.29 133.569 133.695 133.657 133.598 133.67 
132.234 132.651 132.991 133.077 133.016 133.043 133.16 131.38 131.701 
132.064 132.299 132.38 132.487 132.65 132.748 130.693 130.9 131.129 
131.341 131.505 131.705 131.981 132.196 132.268 129.916 130.073 129.193 
129.32 128.502 130.236 128.729 128.134 129.533 130.402 128.36 127.854 
129.008 129.724 130.558 127.798 127.295 128.44 129.096 129.825 130.743 
127.242 126.9 127.787 128.395 129.09 129.987 131.049 127.214 127.023 
127.559 127.977 128.542 129.343 130.36 131.4 127.39 127.224 127.634 
127.92 128.371 129.059 129.881 130.771 131.618 127.33 127.171 127.52 
127.751 128.199 128.93 129.694 130.361 131.044 131.723 129.965 129.338 
129.5 129.015 129.33 128.646 128.95 129.236 128.436 128.073 128.583 
128.79 128.281 127.928 127.834 127.898 128.36 127.805 127.789 127.731 
127.541 127.804 128.575 127.553 127.653 127.693 127.431 127.024 128.473 
129.196 128.035 127.86 127.695 127.403 127.045 126.866 129.157 129.678 
128.719 128.287 127.766 127.322 127.116 127.056 127.091 129.507 129.948 
129.078 128.556 127.881 127.299 127.116 127.191 127.213 127.167 135.52 
134.993 134.91 134.343 134.242 134.38 133.605 133.518 133.662 133.608 
132.746 132.752 132.86 132.88 132.811 131.915 132.019 131.95 132.091 
132.125 132.152 131.255 131.383 131.125 131.141 131.236 131.305 131.493 
130.658 130.816 130.408 130.215 130.238 130.307 130.434 130.789 130.085 
130.323 129.696 129.306 129.299 129.547 129.657 129.819 130.261 136.223 
135.656 136.427 135.83 136.615 134.977 135.948 136.676 135.063 134.264 
136.006 136.705 135.153 134.338 133.582 136.122 136.82 135.286 134.433 
133.667 132.842 136.252 136.915 135.453 134.558 133.719 132.906 132.078 
136.281 136.914 135.552 134.699 133.814 132.99 132.173 131.419 136.252 
136.861 135.585 134.834 133.976 133.126 132.337 131.563 130.875 136.203 
136.776 135.594 134.949 134.173 133.281 132.451 131.722 131.029 130.421 