# vtk DataFile Version 4.0
vtk output
ASCII
DATASET POLYDATA
POINTS 1002 float
-81.3252 -105.058 58.5615 -81.2792 -105.108 59.5055 -81.7574 -105.12 59.0913 
-81.9171 -104.917 58.2346 -82.4207 -104.995 58.6355 -81.4073 -104.75 57.8748 
-82.6749 -104.684 57.9185 -83.3023 -104.986 58.1388 -82.0633 -104.491 57.6758 
-81.4875 -104.304 57.3633 -83.5363 -104.65 57.5981 -84.1553 -105.127 57.7158 
-82.7678 -104.21 57.4684 -82.0882 -104.074 57.1413 -81.4568 -103.83 56.7393 
-84.2087 -104.648 57.3059 -84.5949 -104.81 57.5003 -83.4512 -104.073 57.1834 
-82.6823 -103.773 56.8745 -82.014 -103.646 56.4035 -81.3573 -103.301 56.0097 
-84.5672 -104.163 56.9985 -84.8601 -103.967 57.3349 -83.985 -103.92 56.7469 
-83.2832 -103.495 56.4829 -82.6397 -103.291 56.0786 -81.9827 -103.151 55.6046 
-81.3286 -102.937 55.2186 -85.0556 -103.555 56.5524 -85.5355 -103.476 56.9751 
-84.4862 -103.616 56.1577 -83.8776 -103.394 55.8671 -83.2917 -103.019 55.6554 
-82.6614 -102.863 55.2611 -81.9599 -102.892 54.7161 -81.3005 -102.846 54.2619 
-85.8672 -103.415 56.0327 -86.4277 -103.517 56.4842 -85.1884 -103.403 55.6113 
-84.5423 -103.391 55.2231 -83.9286 -103.101 55.0182 -83.2844 -102.75 54.8059 
-82.5812 -102.732 54.3011 -81.8501 -102.826 53.7148 -81.1821 -102.716 53.3095 
-86.5517 -103.398 55.6137 -86.9733 -103.42 56.067 -85.8897 -103.28 55.2655 
-85.2079 -103.227 54.885 -84.5599 -103.142 54.4948 -83.8748 -102.873 54.1766 
-83.1838 -102.676 53.7875 -82.4744 -102.689 53.2852 -81.7434 -102.643 52.8621 
-81.0847 -102.446 52.591 -86.8521 -103.034 55.3597 -87.1283 -102.928 55.8007 
-86.2969 -102.972 55.0634 -85.645 -102.837 54.7859 -85.0442 -102.789 54.3522 
-84.4295 -102.773 53.7779 -83.7913 -102.678 53.2389 -83.1474 -102.582 52.8273 
-82.4332 -102.506 52.5145 -81.7131 -102.369 52.2697 -81.1036 -102.206 52.0713 
-81.5013 -105.09 60.2824 -82.0241 -105.067 59.8262 -81.7923 -105.119 60.9998 
-82.3534 -104.986 60.5455 -82.1553 -105.299 61.548 -82.761 -104.998 59.2392 
-82.7252 -105.038 61.091 -82.4497 -105.467 62.0238 -83.12 -104.917 59.8982 
-83.6882 -105.115 58.5749 -83.0875 -105.137 61.5889 -82.6945 -105.372 62.6268 
-83.4868 -104.898 60.4837 -83.9426 -104.932 59.2114 -84.3719 -105.07 58.1033 
-83.4396 -105.082 62.2158 -83.0625 -105.156 63.2644 -83.7718 -104.866 61.0209 
-84.1017 -104.634 59.8797 -84.3666 -104.534 58.7771 -84.6241 -104.359 57.9462 
-83.7457 -104.899 62.7944 -83.4301 -104.961 63.6418 -83.8945 -104.616 61.5274 
-84.1419 -104.276 60.3758 -84.427 -104.025 59.4373 -84.7158 -103.832 58.5914 
-85.1321 -103.63 57.7985 -83.9467 -104.597 63.1259 -83.59 -104.574 63.7293 
-83.9987 -104.247 61.958 -84.1387 -103.81 60.7295 -84.5835 -103.626 59.8309 
-85.1012 -103.593 59.1266 -85.6137 -103.549 58.3605 -86.1195 -103.526 57.4305 
-84.0803 -104.121 63.2478 -83.6522 -103.972 63.7132 -84.2296 -103.915 62.2818 
-84.3308 -103.478 61.1147 -84.7773 -103.278 60.1479 -85.4775 -103.377 59.4377 
-86.0882 -103.471 58.7964 -86.5549 -103.498 57.9747 -86.8815 -103.502 56.9696 
-84.2069 -103.58 63.2364 -83.7972 -103.41 63.6979 -84.4685 -103.564 62.4182 
-84.6565 -103.312 61.4441 -85.0452 -103.101 60.5589 -85.689 -103.118 59.7795 
-86.2937 -103.181 59.0943 -86.6916 -103.169 58.4121 -86.9619 -103.142 57.5439 
-87.1302 -103.082 56.581 -84.2466 -103.043 63.3423 -84.5205 -103.103 62.5567 
-84.509 -102.555 62.6268 -84.6774 -102.47 61.6672 -84.6128 -101.87 61.7861 
-84.7866 -103.037 61.657 -84.9654 -101.733 61.0078 -84.9675 -101.23 61.246 
-85.1604 -102.408 60.989 -85.2305 -102.917 60.9276 -85.7519 -101.183 60.8465 
-85.711 -100.742 61.042 -85.8754 -101.779 60.706 -85.9717 -102.447 60.6029 
-85.8674 -102.875 60.2531 -86.6267 -100.663 60.7824 -86.3887 -100.101 60.8045 
-86.7269 -101.301 60.5957 -86.7683 -101.933 60.379 -86.6342 -102.453 59.9853 
-86.4283 -102.83 59.4601 -87.0263 -99.8769 60.3421 -86.6506 -99.404 60.3062 
-87.0784 -100.65 60.0951 -87.1105 -101.377 59.8297 -87.1441 -101.919 59.5447 
-86.957 -102.312 59.0916 -86.7608 -102.707 58.6822 -86.9987 -99.2578 59.5963 
-86.5173 -99.0655 59.6012 -87.0749 -99.854 59.2611 -87.0134 -100.607 58.9091 
-87.256 -101.277 58.7822 -87.4138 -101.812 58.5729 -87.1703 -102.182 58.2025 
-86.9684 -102.608 57.8617 -86.726 -99.0799 58.7998 -86.1942 -98.9729 58.8451 
-87.0618 -99.4098 58.5171 -87.0958 -99.9203 58.1613 -87.2978 -100.504 58.0483 
-87.7149 -101.215 57.9667 -87.7089 -101.794 57.6474 -87.3255 -102.114 57.255 
-87.1312 -102.533 56.9048 -86.4101 -98.9485 58.0886 -85.9563 -98.7807 58.1867 
-86.9543 -99.1933 57.9131 -87.3052 -99.5234 57.6939 -87.5172 -99.8732 57.5874 
-87.8356 -100.452 57.4584 -88.0096 -101.227 57.0899 -87.7438 -101.72 56.65 
-87.3646 -101.973 56.315 -87.2016 -102.394 56.0356 -87.0426 -102.348 55.3582 
-87.2262 -101.828 55.5425 -86.8652 -101.727 55.051 -87.4961 -101.499 55.7171 
-87.1585 -101.257 55.1625 -86.6131 -101.192 54.7677 -87.824 -101.139 55.9716 
-87.4381 -100.854 55.1545 -86.9815 -100.687 54.7819 -86.3054 -100.718 54.345 
-87.9624 -100.425 56.4554 -87.6633 -100.297 55.2562 -87.2779 -100.139 54.6387 
-86.6886 -100.156 54.2936 -85.9193 -100.239 53.7505 -87.8431 -99.7261 56.92 
-87.7242 -99.6355 55.72 -87.3938 -99.6074 54.7319 -86.91 -99.5993 54.2924 
-86.1663 -99.6559 53.7499 -85.4681 -99.682 53.1527 -87.6132 -99.3447 57.1049 
-87.5948 -99.1415 56.2027 -87.2211 -99.188 55.2094 -86.7519 -99.2369 54.6509 
-86.1755 -99.0962 54.0522 -85.5805 -99.0054 53.2102 -85.0992 -98.9726 52.6815 
-87.2273 -99.0148 57.2067 -87.3608 -98.6764 56.4504 -87.0132 -98.6686 55.6534 
-86.3854 -98.9177 55.132 -85.8824 -98.7654 54.5774 -85.5582 -98.3686 53.5669 
-85.247 -98.2277 52.6617 -84.8052 -98.2318 52.3025 -86.6606 -98.701 57.3755 
-87.0177 -98.2253 56.6772 -86.994 -97.9961 55.986 -86.3549 -98.3082 55.4407 
-85.6555 -98.4657 54.9111 -85.399 -98.0351 53.9692 -85.3143 -97.6406 52.8597 
-84.9891 -97.6007 52.2018 -84.4083 -97.6453 52.0123 -86.1418 -98.512 57.5526 
-86.5632 -98.0256 56.9545 -86.8724 -97.5977 56.3542 -86.5386 -97.6639 55.7324 
-85.7384 -97.9621 55.0727 -85.2467 -97.8005 54.2026 -85.187 -97.3376 53.1488 
-85.0262 -97.1323 52.3241 -84.5437 -97.157 51.954 -83.9212 -97.1887 51.8594 
-86.616 -102.417 55.0011 -86.2661 -101.768 54.7049 -85.9659 -102.339 54.7356 
-85.9034 -101.234 54.3285 -85.5632 -101.702 54.3526 -85.3429 -102.224 54.3987 
-85.5776 -100.731 53.8 -85.2408 -101.186 53.8348 -85.0291 -101.69 53.8549 
-84.8257 -102.295 53.7652 -85.2497 -100.167 53.2146 -84.9947 -100.645 53.2328 
-84.7943 -101.256 53.1692 -84.6309 -101.92 53.0222 -84.3023 -102.448 52.9511 
-84.9022 -99.5039 52.7578 -84.6966 -99.9994 52.7102 -84.5117 -100.677 52.5104 
-84.3747 -101.463 52.3324 -84.1495 -102.084 52.2442 -83.709 -102.433 52.3938 
-84.529 -98.7505 52.4242 -84.28 -99.2868 52.3697 -84.0762 -99.9511 52.0805 
-83.9041 -100.718 51.8952 -83.7073 -101.412 51.9012 -83.4115 -101.947 51.9589 
-82.9689 -102.297 52.1573 -84.0646 -98.0538 52.113 -83.7461 -98.5782 52.0938 
-83.5203 -99.2428 51.8542 -83.3251 -99.918 51.6902 -83.05 -100.514 51.7795 
-82.7621 -101.146 51.8378 -82.5141 -101.762 51.8238 -82.1698 -102.164 51.9674 
-83.557 -97.5173 51.8733 -83.1896 -97.9791 51.8232 -82.934 -98.6188 51.6443 
-82.7745 -99.2712 51.5019 -82.5125 -99.7581 51.5784 -82.1524 -100.274 51.6612 
-81.9378 -101.002 51.5655 -81.808 -101.677 51.537 -81.5182 -102.047 51.7437 
-83.2623 -96.9162 51.7777 -82.8436 -97.3574 51.664 -82.7163 -96.6936 51.6136 
-82.2823 -97.2885 51.2927 -82.2284 -96.5914 51.1893 -82.4826 -97.9417 51.4377 
-81.9046 -97.1709 50.6017 -81.7385 -96.5628 50.55 -82.0076 -97.8878 50.8385 
-82.3019 -98.6207 51.194 -81.6138 -97.0058 49.8791 -81.2941 -96.657 50.2387 
-81.7791 -97.6991 49.9568 -81.9048 -98.5379 50.476 -82.1474 -99.1877 51.1267 
-81.1064 -97.0841 49.7367 -80.7437 -96.918 50.437 -81.415 -97.655 49.3194 
-81.5998 -98.5262 49.6057 -81.7 -99.159 50.4088 -81.8205 -99.6305 51.1962 
-80.2975 -97.3628 49.9789 -80.051 -97.1395 50.5911 -80.5577 -97.8832 49.3085 
-80.8959 -98.7372 49.192 -81.2265 -99.3182 49.7822 -81.4073 -99.6742 50.5593 
-81.5545 -100.264 51.1626 -79.6607 -97.5719 50.2187 -79.5003 -97.2853 50.6656 
-79.7292 -98.0379 49.6126 -79.9232 -98.8492 49.2893 -80.382 -99.4514 49.6509 
-80.9194 -99.7427 50.2873 -81.2563 -100.31 50.7369 -81.4748 -101.084 51.1244 
-79.3187 -97.7977 50.7124 -79.0942 -97.5478 51.0628 -79.4164 -98.1076 50.2338 
-79.4496 -98.75 49.786 -79.6183 -99.4114 49.8376 -80.0737 -99.7672 50.3396 
-80.6485 -100.288 50.726 -81.04 -101.093 50.9572 -81.2665 -101.709 51.3104 
-78.8598 -98.1264 51.4045 -78.5886 -97.8943 51.6325 -79.132 -98.3357 51.1199 
-79.3132 -98.7788 50.708 -79.3539 -99.4183 50.4282 -79.4054 -99.91 50.5439 
-79.7095 -100.402 50.8119 -80.1859 -101.127 50.9911 -80.5679 -101.734 51.2441 
-80.8323 -102.019 51.6482 -83.8247 -96.6684 51.8441 -83.2681 -96.223 51.7699 
-83.7515 -95.9451 51.8651 -83.3263 -95.3263 51.6757 -83.7695 -95.1294 51.944 
-82.7882 -95.8541 51.5678 -83.3339 -94.6087 51.6551 -83.7822 -94.5704 52.3618 
-82.7621 -94.9218 51.3924 -82.1483 -95.7607 51.1259 -83.0848 -94.4199 52.1696 
-83.5006 -94.3893 53.1934 -82.496 -94.4218 51.4222 -81.8837 -94.9259 51.0835 
-81.4523 -95.9539 50.7186 -82.5299 -94.4839 53.0977 -82.8756 -94.4659 53.8644 
-81.9597 -94.4684 52.0296 -81.4601 -94.496 51.3332 -81.1194 -95.289 51.0291 
-80.923 -96.3413 50.7807 -81.9349 -94.5471 53.7279 -82.2444 -94.8396 54.0147 
-81.3152 -94.5293 52.8813 -80.8734 -94.4363 51.9482 -80.7249 -94.7875 51.4325 
-80.552 -95.7775 51.2136 -80.3159 -96.6546 50.9742 -81.504 -94.8258 53.9696 
-81.8259 -95.4462 54.0628 -80.7917 -94.5128 53.5108 -80.227 -94.3905 52.7059 
-80.157 -94.5704 51.9699 -80.0925 -95.2324 51.5133 -79.8232 -96.0576 51.2182 
-79.6155 -96.7484 50.9262 -81.1778 -95.3482 54.2325 -81.5255 -95.9762 54.3892 
-80.4641 -94.7977 53.9621 -79.7895 -94.4827 53.4244 -79.637 -94.5817 52.7057 
-79.6468 -95.0866 52.0078 -79.3865 -95.6631 51.5185 -79.1377 -96.2394 51.2388 
-79.095 -96.9193 51.081 -80.8754 -95.862 54.6273 -81.2251 -96.2697 54.915 
-80.2798 -95.3911 54.3557 -79.6642 -94.9816 53.9928 -79.4252 -94.8935 53.464 
[...]
CELL_DATA 2000
SCALARS Distance double
LOOKUP_TABLE default
144.49 144.592 144.392 144.074 144.768 144.503 144.186 143.957 143.613 
145.121 144.759 144.383 144.075 143.715 143.481 143.084 145.332 145.103 
144.647 144.288 143.819 143.554 143.135 142.898 142.425 145.055 145.087 
144.659 144.447 143.886 143.617 143.13 142.913 142.464 142.213 141.758 
144.744 144.722 144.412 144.317 143.853 143.634 143.144 142.908 142.479 
142.252 141.85 141.607 141.23 144.892 144.64 144.379 144.173 143.863 
143.639 143.261 142.985 142.58 142.309 141.93 141.697 141.335 141.111 
140.741 145.122 144.898 144.58 144.313 143.992 143.749 143.422 143.159 
142.773 142.47 142.068 141.798 141.435 141.204 140.84 140.601 140.221 
144.976 144.949 144.581 144.437 144.02 143.843 143.445 143.267 142.867 
142.636 142.217 141.952 141.572 141.324 140.978 140.725 140.375 140.11 
139.783 144.764 145.205 144.937 144.863 145.693 145.375 145.287 145.042 
145.036 146.199 145.861 145.723 145.467 145.482 145.297 145.39 146.628 
146.34 146.186 145.907 145.855 145.687 145.721 145.61 145.569 146.985 
146.749 146.608 146.333 146.17 145.972 145.822 145.739 145.565 145.506 
145.236 147.265 147.094 146.878 146.628 146.315 146.133 145.842 145.73 
145.484 145.402 145.205 145.099 144.939 147.307 147.28 146.981 146.751 
146.28 146.096 145.76 145.689 145.543 145.45 145.423 145.26 145.308 
145.093 145.148 147.058 147.176 146.937 146.769 146.296 146.038 145.709 
145.615 145.595 145.593 145.709 145.632 145.739 145.578 145.633 145.418 
145.386 146.715 146.871 146.746 146.693 146.36 146.131 145.857 145.693 
145.687 145.683 145.812 145.84 145.892 145.868 145.797 145.724 145.558 
145.435 145.199 146.558 146.193 146.461 146.494 145.526 145.904 145.934 
146.254 146.173 144.905 145.196 145.315 145.675 145.783 145.96 145.873 
144.756 144.835 145.064 145.253 145.559 145.729 145.873 145.84 145.819 
144.757 144.886 145.153 145.252 145.561 145.679 145.885 145.91 145.932 
145.875 145.873 144.371 144.721 144.885 145.188 145.317 145.591 145.672 
145.848 145.799 145.858 145.766 145.839 145.83 143.743 144.132 144.176 
144.579 144.549 144.984 144.986 145.4 145.392 145.614 145.5 145.594 
145.501 145.665 145.656 143.148 143.477 143.517 143.827 143.804 144.122 
144.153 144.582 144.736 145.131 145.191 145.337 145.216 145.286 145.19 
145.396 145.372 142.588 142.894 142.971 143.265 143.335 143.563 143.637 
143.909 144.086 144.486 144.669 144.979 144.929 145.019 144.819 144.919 
144.802 145.049 144.999 144.653 144.481 144.382 144.033 144.511 144.29 
143.934 143.776 143.405 144.582 144.365 143.91 143.7 143.288 143.152 
142.75 144.338 144.301 143.779 143.605 143.093 142.985 142.562 142.463 
142.015 143.868 143.936 143.499 143.378 142.853 142.741 142.303 142.232 
141.782 141.663 141.163 143.469 143.522 143.187 143.096 142.623 142.5 
142.074 141.989 141.537 141.401 140.857 140.738 140.229 143.102 143.163 
142.815 142.787 142.32 142.247 141.812 141.761 141.311 141.172 140.59 
140.412 139.846 139.783 139.332 142.679 142.741 142.367 142.381 141.939 
141.906 141.485 141.463 141.045 140.944 140.39 140.176 139.581 139.43 
138.964 138.929 138.542 142.297 142.311 141.978 141.973 141.627 141.58 
141.23 141.168 140.787 140.686 140.184 139.99 139.408 139.214 138.72 
138.622 138.24 138.195 137.84 144.648 143.98 144.324 144.285 143.288 
143.606 143.531 143.866 143.746 142.605 142.889 142.747 143.071 142.957 
143.296 143.172 141.864 142.167 142 142.296 142.17 142.506 142.427 
142.753 142.626 141.031 141.381 141.226 141.542 141.431 141.763 141.714 
142.042 141.966 142.224 142.046 140.153 140.53 140.395 140.741 140.627 
141 140.959 141.342 141.297 141.594 141.458 141.652 141.443 139.28 
139.655 139.525 139.888 139.744 140.136 140.048 140.498 140.438 140.856 
140.736 141.041 140.85 141.057 140.841 138.45 138.785 138.627 138.992 
138.836 139.224 139.099 139.531 139.424 139.882 139.752 140.188 140.028 
140.384 140.195 140.444 140.231 137.715 137.978 137.787 138.102 137.951 
138.319 138.216 138.608 138.496 138.881 138.731 139.144 139.016 139.464 
139.369 139.744 139.609 139.848 139.665 137.283 136.687 137.082 137.322 
136.154 136.517 136.743 137.153 137.466 135.606 135.978 136.197 136.598 
136.906 137.363 137.744 135.131 135.42 135.624 136.03 136.339 136.814 
137.186 137.66 138.02 134.903 135.029 135.178 135.485 135.812 136.26 
136.648 137.099 137.432 137.879 138.206 134.751 134.841 134.897 135.108 
135.396 135.792 136.209 136.616 136.969 137.333 137.662 138.087 138.485 
134.577 134.667 134.699 134.838 135.038 135.385 135.77 136.198 136.577 
136.941 137.302 137.659 138.08 138.481 138.917 134.595 134.606 134.734 
134.736 134.925 135.088 135.426 135.761 136.139 136.527 136.912 137.322 
137.753 138.155 138.565 138.926 139.243 134.762 134.765 134.969 134.926 
135.161 135.157 135.486 135.591 135.956 136.169 136.546 136.901 137.331 
137.774 138.172 138.561 138.83 139.151 139.334 137.135 136.65 136.766 
136.52 136.084 136.215 135.961 136.149 135.953 135.668 135.663 135.34 
135.508 135.302 135.559 135.388 135.573 135.393 134.977 134.93 134.637 
134.841 134.735 135.024 134.954 135.581 135.393 134.949 134.713 134.296 
134.267 134.142 134.405 134.508 134.767 134.819 135.516 135.371 134.943 
134.709 134.216 134.039 133.789 133.921 134.025 134.349 134.505 134.716 
134.71 135.569 135.338 134.905 134.655 134.144 133.939 133.599 133.628 
133.603 133.869 133.962 134.275 134.284 134.508 134.459 135.83 135.503 
135.068 134.701 134.209 133.901 133.583 133.486 133.444 133.533 133.58 
133.744 133.759 133.987 134.032 134.281 134.387 136.128 135.813 135.426 
135.008 134.592 134.159 133.911 133.642 133.669 133.568 133.692 133.615 
133.69 133.671 133.793 133.927 134.14 134.352 134.557 142.025 141.564 
141.762 141.702 141.034 141.286 141.229 141.446 141.377 140.279 140.628 
140.545 140.894 140.818 141.085 140.985 139.453 139.774 139.608 140.029 
139.913 140.354 140.227 140.591 140.454 138.753 138.992 138.796 139.091 
138.917 139.318 139.156 139.624 139.455 139.922 139.752 138.065 138.303 
138.099 138.353 138.15 138.418 138.199 138.536 138.336 138.788 138.635 
139.133 138.983 137.393 137.583 137.301 137.578 137.333 137.65 137.399 
137.679 137.416 137.736 137.565 138.012 137.939 138.412 138.344 136.882 
136.964 136.63 136.776 136.49 136.768 136.556 136.869 136.634 136.901 
136.68 137.024 136.941 137.409 137.414 137.876 137.87 136.469 136.517 
136.194 136.224 135.926 136.046 135.867 136.098 135.957 136.18 135.984 
136.217 136.082 136.461 136.469 136.954 137.004 137.458 137.473 142.153 
142.2 142.012 141.685 142.189 142.041 141.69 141.523 141.149 142.065 
141.975 141.626 141.49 141.091 140.918 140.453 141.905 141.817 141.478 
141.378 140.993 140.842 140.388 140.172 139.676 141.818 141.681 141.335 
141.22 140.846 140.719 140.283 140.103 139.618 139.407 138.946 141.794 
141.628 141.261 141.104 140.716 140.572 140.147 139.986 139.521 139.333 
138.87 138.694 138.263 141.754 141.603 141.217 141.041 140.628 140.459 
140.042 139.874 139.449 139.257 138.826 138.628 138.22 138.032 137.644 
141.645 141.526 141.127 140.969 140.536 140.37 139.955 139.796 139.405 
139.226 138.828 138.621 138.224 138.021 137.655 137.466 137.132 141.477 
141.376 140.963 140.833 140.396 140.257 139.845 139.709 139.331 139.186 
138.806 138.628 138.229 138.031 137.647 137.472 137.138 136.986 136.687 
141.246 140.675 140.87 140.688 140.132 140.271 140.063 140.285 140.123 
139.66 139.743 139.489 139.67 139.507 139.739 139.6 139.129 139.233 
138.91 139.082 138.874 139.119 138.978 139.228 139.095 138.534 138.655 
138.308 138.459 138.201 138.444 138.283 138.572 138.439 138.711 138.568 
138.006 138.114 137.827 137.901 137.628 137.778 137.6 137.861 137.741 
138.03 137.893 138.159 137.998 137.51 137.647 137.423 137.494 137.205 
137.265 137.014 137.199 137.063 137.344 137.228 137.489 137.333 137.576 
137.422 137.001 137.144 136.916 137.057 136.759 136.835 136.497 136.615 
136.402 136.666 136.575 136.856 136.738 136.954 136.811 137.036 136.925 
136.567 136.632 136.354 136.495 136.217 136.34 136.023 136.103 135.851 
136.031 135.958 136.238 136.207 136.425 136.315 136.484 136.367 136.583 
136.496 136.273 135.676 135.953 135.969 135.128 135.352 135.359 135.7 
135.807 134.697 134.844 134.837 135.128 135.233 135.572 135.665 134.347 
134.428 134.353 134.615 134.723 135.05 135.175 135.451 135.556 134.154 
134.142 134.037 134.167 134.271 134.564 134.78 135.063 135.263 135.481 
135.702 134.194 134.119 134.12 134.051 134.158 134.247 134.503 134.742 
135.039 135.277 135.528 135.735 135.96 134.33 134.274 134.337 134.259 
134.326 134.295 134.433 134.552 134.758 135.006 135.193 135.477 135.621 
135.897 136.033 134.45 134.389 134.326 134.33 134.253 134.327 134.284 
134.421 134.396 134.614 134.602 134.934 134.979 135.383 135.5 135.875 
136.039 134.563 134.444 134.226 134.169 133.949 134.029 133.892 134.073 
133.948 134.134 133.979 134.23 134.189 134.607 134.761 135.251 135.5 
135.913 136.154 136.416 136.516 136.268 135.848 136.529 136.339 135.925 
135.681 135.286 136.474 136.29 135.906 135.73 135.388 135.187 134.883 
136.6 136.29 135.891 135.69 135.437 135.311 135.112 134.884 134.617 
136.939 136.546 136.112 135.766 135.505 135.377 135.299 135.16 134.959 
134.645 134.387 137.279 136.926 136.517 136.096 135.772 135.527 135.461 
135.361 135.243 134.981 134.672 134.392 134.235 137.574 137.258 136.922 
136.534 136.23 135.888 135.775 135.592 135.506 135.257 134.948 134.626 
134.365 134.254 134.27 137.908 137.582 137.307 136.965 136.744 136.397 
136.267 135.986 135.86 135.562 135.263 134.898 134.593 134.382 134.358 
134.357 134.479 138.28 137.952 137.702 137.384 137.209 136.912 136.781 
136.483 136.289 135.947 135.626 135.24 134.935 134.653 134.602 134.517 
134.667 134.63 134.721 136.763 137.234 136.961 136.862 137.733 137.416 
137.321 137.04 136.884 138.47 138 137.876 137.514 137.39 137.041 
136.87 139.409 138.852 138.714 138.208 138.101 137.645 137.536 137.109 
137.022 140.345 139.802 139.668 139.139 139.05 138.518 138.42 137.893 
137.805 137.361 137.332 141.299 140.736 140.593 140.069 139.989 139.499 
139.434 138.886 138.764 138.21 138.111 137.677 137.637 142.312 141.737 
141.597 141.017 140.905 140.401 140.35 139.873 139.789 139.228 139.082 
138.519 138.418 137.97 137.928 143.241 142.738 142.625 142.058 141.927 
141.355 141.242 140.742 140.653 140.177 140.04 139.506 139.346 138.821 
138.727 138.283 138.256 144.028 143.602 143.508 143.033 142.924 142.385 
142.237 141.667 141.496 140.983 140.815 140.349 140.165 139.697 139.538 
139.095 139.013 138.618 138.598 144.414 144.82 144.38 143.9 145.2 
144.778 144.296 143.858 143.357 145.481 145.128 144.65 144.241 143.719 
143.274 142.693 145.588 145.333 144.832 144.503 143.937 143.563 142.934 
142.509 141.882 145.493 145.342 144.812 144.557 143.952 143.661 143.026 
142.673 142.016 141.651 141.097 145.227 145.168 144.679 144.474 143.886 
143.62 143.044 142.741 142.14 141.768 141.182 140.876 140.411 144.903 
144.88 144.478 144.335 143.819 143.575 143.057 142.792 142.273 141.923 
141.342 140.973 140.459 140.203 139.799 144.653 144.603 144.249 144.147 
143.7 143.515 143.027 142.813 142.321 142.047 141.487 141.132 140.582 
140.279 139.864 139.64 139.297 144.494 144.41 144.064 143.953 143.545 
143.394 142.948 142.766 142.293 142.064 141.539 141.236 140.705 140.406 
139.991 139.752 139.437 139.207 138.902 144.319 143.876 144.024 143.852 
143.395 143.543 143.337 143.499 143.303 142.841 143.022 142.797 142.966 
142.748 142.924 142.719 142.147 142.378 142.138 142.377 142.16 142.363 
142.126 142.306 142.063 141.475 141.652 141.397 141.652 141.45 141.719 
141.48 141.684 141.38 141.579 141.284 140.973 141.066 140.809 140.962 
140.755 140.988 140.777 141 140.714 140.89 140.579 140.774 140.497 
140.483 140.595 140.33 140.451 140.212 140.364 140.135 140.316 140.071 
140.246 139.992 140.149 139.919 140.072 139.864 139.938 140.059 139.777 
139.936 139.69 139.846 139.596 139.733 139.476 139.633 139.405 139.589 
139.391 139.564 139.372 139.52 139.331 139.503 139.546 139.267 139.377 
139.158 139.312 139.106 139.234 138.992 139.096 138.854 139.006 138.803 
139.004 138.814 139.009 138.808 138.982 138.784 138.406 138.42 138.216 
137.841 138.421 138.228 137.868 137.684 137.371 138.419 138.227 137.87 
137.704 137.395 137.246 136.953 138.502 138.27 137.914 137.706 137.346 
137.201 136.838 136.739 136.373 138.668 138.421 138.09 137.816 137.433 
137.171 136.744 136.557 136.121 136.037 135.631 138.779 138.584 138.267 
138.021 137.665 137.352 136.969 136.623 136.236 135.922 135.562 135.356 
135.046 138.834 138.662 138.352 138.154 137.799 137.557 137.209 136.935 
136.634 136.282 136 135.594 135.356 135.013 134.851 138.974 138.76 
138.496 138.261 137.907 137.643 137.245 137.052 136.729 136.586 136.302 
136.069 135.79 135.483 135.284 134.995 134.896 139.234 138.984 138.764 
138.49 138.167 137.82 137.383 137.071 136.665 136.516 136.184 136.113 
135.78 135.691 135.399 135.3 135.104 134.989 134.851 146.596 146.949 
146.643 146.433 147.252 147.012 146.791 146.518 146.481 147.241 147.201 
147.011 146.841 146.788 146.701 146.878 147.028 147.112 147.032 146.971 
146.923 146.911 147.05 147.103 147.205 146.806 146.969 147.081 147.058 
147.082 147.008 147.066 147.12 147.184 147.216 147.047 146.419 146.738 
146.953 147.132 147.219 147.192 147.144 147.093 147.042 147.079 146.971 
146.907 146.604 145.822 146.21 146.343 146.767 146.837 147.109 147.007 
147.069 146.882 146.906 146.758 146.786 146.586 146.468 146.13 145.243 
145.542 145.559 145.971 146 146.442 146.398 146.69 146.518 146.647 
146.437 146.523 146.305 146.34 146.029 145.937 145.537 144.772 144.984 
144.948 145.224 145.23 145.593 145.614 145.976 145.915 146.164 145.988 
146.132 145.88 145.967 145.64 145.668 145.27 145.231 144.815 146.412 
146.239 146.264 146.215 146.328 146.17 146.099 146.119 146.064 146.764 
146.434 146.239 146.062 145.92 145.902 145.683 147.061 146.845 146.499 
146.222 145.861 145.736 145.436 145.402 145.068 146.814 146.839 146.416 
146.292 145.791 145.636 145.209 145.134 144.777 144.745 144.389 146.286 
146.356 145.915 145.95 145.501 145.466 145.054 144.952 144.563 144.463 
144.072 144.03 143.648 145.805 145.825 145.374 145.393 145.007 145.08 
144.773 144.783 144.424 144.306 143.869 143.736 143.315 143.269 142.922 
145.288 145.363 144.942 144.931 144.53 144.586 144.279 144.393 144.056 
144.078 143.626 143.536 143.074 142.987 142.624 142.604 142.337 144.651 
144.817 144.471 144.521 144.124 144.144 143.767 143.846 143.465 143.561 
143.121 143.165 142.712 142.712 142.331 142.33 142.034 142.061 141.817 
146.428 146.266 146.331 146.192 146.074 146.18 146.03 145.977 145.6 
145.621 145.85 145.681 145.755 145.404 145.301 144.937 144.983 145.255 
145.075 145.273 145.005 145.062 144.768 144.746 144.635 144.343 144.615 
144.469 144.658 144.455 144.604 144.396 144.503 144.357 144.511 144.502 
143.634 143.97 143.888 144.116 143.946 144.097 143.9 144.051 143.871 
144.071 143.951 144.229 144.133 142.906 143.24 143.187 143.499 143.366 
143.585 143.373 143.538 143.326 143.509 143.351 143.594 143.48 143.741 
143.589 142.319 142.571 142.515 142.797 142.692 142.948 142.763 142.969 
142.76 142.952 142.799 143.014 142.914 143.137 143.019 143.21 143.035 
141.813 142.038 141.972 142.196 142.097 142.311 142.16 142.355 142.179 
142.379 142.241 142.469 142.382 142.611 142.509 142.695 142.534 142.683 
142.49 136.836 137.195 137.096 137.296 137.677 137.505 137.687 137.578 
137.832 138.241 138.049 138.275 138.084 138.386 138.243 138.614 138.88 
138.695 139.001 138.772 139.105 138.909 139.306 139.153 139.566 139.519 
139.391 139.744 139.538 139.852 139.647 140.006 139.86 140.264 140.123 
140.51 140.018 139.981 140.333 140.223 140.496 140.33 140.62 140.501 
140.889 140.798 141.222 141.074 141.474 140.448 140.417 140.767 140.719 
140.997 140.884 141.149 141.052 141.432 141.389 141.861 141.785 142.24 
142.077 142.477 140.955 140.867 141.218 141.149 141.472 141.368 141.678 
141.572 141.962 141.92 142.402 142.386 142.866 142.796 143.207 143.051 
143.389 141.475 141.378 141.695 141.622 141.963 141.881 142.25 142.15 
142.569 142.487 142.942 142.9 143.344 143.326 143.729 143.681 144.026 
143.89 144.169 
POINT_DATA 1002
SCALARS Distance double
LOOKUP_TABLE default
144.192 144.586 144.693 144.291 144.793 143.739 144.426 145.088 143.843 
143.258 144.766 145.51 143.959 143.344 142.65 145.036 145.451 144.139 
143.361 142.702 141.924 144.776 144.938 144.166 143.353 142.678 142.015 
141.336 144.453 144.842 144.01 143.385 142.694 142.065 141.471 140.885 
144.629 145.206 144.059 143.523 142.878 142.17 141.556 140.979 140.361 
144.861 145.3 144.252 143.668 143.078 142.363 141.671 141.079 140.464 
139.839 144.685 144.944 144.198 143.61 143.057 142.467 141.822 141.223 
140.635 140.027 139.482 145.016 145.105 145.496 145.527 146.057 145.231 
146 146.541 145.645 145.575 146.482 146.865 146.079 145.845 145.746 
146.904 147.188 146.44 145.994 145.629 145.322 147.191 147.418 146.543 
145.966 145.568 145.257 145.04 147.232 147.273 146.521 145.78 145.536 
145.527 145.487 145.399 147.025 146.877 146.555 145.816 145.532 145.719 
145.884 145.85 145.652 146.712 146.558 146.502 146.024 145.732 145.799 
145.92 145.873 145.671 145.353 146.404 146.268 145.908 145.539 145.133 
145.995 144.916 144.667 145.492 145.864 144.926 144.678 145.354 145.833 
145.927 145.056 144.537 145.479 145.851 145.972 145.901 144.57 144.006 
145.031 145.444 145.723 145.702 145.698 143.821 143.402 144.139 144.479 
145.036 145.418 145.382 145.425 143.209 142.835 143.523 143.752 144.231 
144.942 145.214 145.053 145.094 142.64 142.291 143.066 143.417 143.744 
144.285 144.782 144.793 144.612 144.702 144.315 144.13 143.654 144.129 
143.544 143.019 144.174 143.428 142.893 142.34 143.949 143.215 142.635 
142.158 141.546 143.576 142.972 142.372 141.904 141.286 140.657 143.246 
142.74 142.159 141.692 141.015 140.272 139.759 142.825 142.374 141.845 
141.433 140.808 139.948 139.319 138.919 142.333 141.945 141.5 141.112 
140.591 139.773 139.024 138.551 138.158 141.961 141.641 141.297 140.894 
140.355 139.607 138.845 138.292 137.877 137.485 143.972 143.192 143.429 
142.456 142.592 142.849 141.706 141.839 142.078 142.355 140.891 141.083 
141.373 141.694 141.851 140.043 140.252 140.547 140.96 141.239 141.285 
139.162 139.37 139.612 139.987 140.369 140.6 140.665 138.275 138.446 
138.692 138.995 139.291 139.596 139.889 140.032 137.501 137.587 137.82 
138.137 138.357 138.545 138.908 139.31 139.486 136.864 136.88 136.317 
136.356 135.792 136.993 135.789 135.239 136.448 137.277 135.232 134.924 
135.853 136.717 137.566 134.932 134.855 135.372 136.211 137.016 137.715 
134.739 134.661 135.022 135.796 136.623 137.269 138.002 134.603 134.469 
134.756 135.339 136.175 136.933 137.705 138.534 134.749 134.569 134.851 
135.171 135.768 136.475 137.329 138.226 138.935 134.978 134.74 135.18 
135.452 135.836 136.266 136.899 137.768 138.524 139.033 137.056 136.379 
136.514 135.752 135.988 135.753 135.25 135.767 135.02 135.135 135.163 
135.791 134.52 134.373 134.699 135.229 135.726 134.459 133.91 134.147 
134.68 135.16 135.663 134.443 133.75 133.71 134.222 134.614 135.191 
135.853 134.365 133.626 133.424 133.677 133.99 134.25 135.465 136.173 
134.548 133.714 133.41 133.5 133.566 133.723 134.125 135.802 136.41 
135.012 134.216 133.803 133.797 133.783 133.724 133.933 134.363 141.823 
141.504 141.366 140.99 140.747 141.195 140.148 139.941 140.498 140.764 
139.233 139.185 139.443 139.802 140.116 138.557 138.518 138.599 138.712 
138.956 139.296 137.837 137.843 137.906 137.946 137.939 138.114 138.497 
137.073 137.266 136.994 137.099 137.153 137.156 137.426 137.894 136.556 
136.824 136.263 136.213 136.356 136.395 136.49 136.906 137.441 142.346 
141.868 142.388 141.868 142.313 141.336 141.745 142.14 141.268 140.672 
141.567 142.009 141.124 140.59 139.904 141.467 141.978 140.971 140.444 
139.818 139.134 141.442 141.965 140.876 140.302 139.697 139.049 138.43 
141.402 141.895 140.808 140.201 139.626 139.026 138.406 137.827 141.282 
141.758 140.699 140.103 139.563 139.028 138.433 137.834 137.308 141.088 
141.585 140.521 139.969 139.465 138.968 138.424 137.83 137.278 136.828 