# vtk DataFile Version 4.0
vtk output
ASCII
DATASET POLYDATA
POINTS 1002 float
-76.8342 -94.3558 56.2987 -76.62 -94.4071 55.5675 -76.3312 -94.6682 55.7931 
-76.576 -94.8284 56.3832 -76.144 -95.2088 55.8194 -77.0853 -94.6205 56.8616 
-76.3667 -95.4983 56.3958 -75.8571 -95.7066 56.0352 -76.804 -95.252 56.9002 
-77.3717 -95.2544 57.1717 -75.9547 -95.9016 56.824 -75.3773 -96.0305 56.5967 
-76.4733 -95.8117 57.1441 -77.0172 -95.8115 57.4266 -77.7218 -95.9336 57.5926 
-75.455 -96.1906 57.4854 -74.9837 -96.4083 57.1477 -75.9975 -96.0527 57.799 
-76.6264 -96.1302 58.0091 -77.3562 -96.2993 58.1884 -78.1163 -96.3854 58.4149 
-75.2365 -96.7317 57.8978 -74.7616 -96.8533 57.5823 -75.6414 -96.4558 58.3625 
-76.2426 -96.3435 58.6958 -77.0388 -96.5418 58.8811 -77.8185 -96.6847 59.0823 
-78.4713 -96.6699 59.3036 -75.1454 -97.3018 58.2396 -74.5081 -97.264 58.069 
-75.5222 -97.1011 58.691 -75.9328 -96.778 59.2121 -76.6779 -96.7929 59.494 
-77.5392 -97.0146 59.6384 -78.2411 -97.013 59.8189 -78.7859 -96.9141 60.027 
-74.947 -97.733 58.6946 -74.305 -97.7454 58.4955 -75.3901 -97.5924 59.0948 
-75.6902 -97.2444 59.7058 -76.2486 -97.0511 60.1434 -77.101 -97.2554 60.2503 
-77.9556 -97.4072 60.3257 -78.6026 -97.2739 60.535 -79.076 -97.1629 60.7693 
-74.7938 -98.1582 59.0881 -74.2712 -98.2714 58.7902 -75.2445 -97.9889 59.4899 
-75.56 -97.6952 60.103 -76.0046 -97.4014 60.6923 -76.707 -97.4368 60.9157 
-77.5487 -97.6665 60.9381 -78.3487 -97.6403 61.1135 -78.9103 -97.4524 61.374 
-79.2769 -97.4278 61.5065 -74.74 -98.566 59.4057 -74.2658 -98.6756 59.1003 
-75.2056 -98.4383 59.7559 -75.5731 -98.2673 60.2638 -76.0113 -98.0274 60.8719 
-76.6218 -97.8914 61.2648 -77.3003 -97.976 61.3802 -78.0258 -97.9752 61.5778 
-78.6878 -97.7414 61.9297 -79.1045 -97.591 62.1234 -79.369 -97.7031 62.0433 
-76.2089 -94.5815 55.0618 -75.9337 -94.9012 55.2769 -75.7825 -94.6949 54.5568 
-75.5106 -95.0801 54.8234 -75.3665 -94.8331 53.9824 -75.6877 -95.3696 55.4395 
-75.1352 -95.3529 54.3262 -75.0661 -95.2013 53.384 -75.1945 -95.5248 55.1526 
-75.3068 -95.8012 55.8215 -74.8077 -95.7473 53.8034 -74.8073 -95.6701 52.8916 
-74.7564 -95.7902 54.7392 -74.7859 -95.9959 55.5633 -74.8654 -96.2219 56.3482 
-74.3467 -96.0177 53.3546 -74.3424 -95.9389 52.4165 -74.2539 -96.0135 54.2521 
-74.283 -96.2313 55.0892 -74.4017 -96.508 55.9795 -74.5002 -96.6216 56.8699 
-73.8201 -96.2187 52.8999 -73.7956 -96.1186 51.8962 -73.6764 -96.1906 53.8723 
-73.6474 -96.3529 54.6216 -73.8631 -96.7155 55.485 -73.9629 -96.8314 56.5698 
-74.0956 -96.9072 57.4811 -73.5279 -96.5922 52.425 -73.5083 -96.4763 51.5157 
-73.3602 -96.61 53.516 -73.1272 -96.6054 54.3325 -73.2557 -96.8284 55.071 
-73.4607 -97.0077 56.1397 -73.5138 -97.0468 57.2602 -73.7821 -97.3127 58.0113 
-73.3984 -97.0708 52.0578 -73.45 -97.0059 51.3614 -73.2954 -97.1694 53.0844 
-72.9967 -97.1222 54.0208 -72.8692 -97.095 54.7943 -73.0459 -97.205 55.7213 
-73.2188 -97.3226 56.7895 -73.406 -97.5541 57.6691 -73.7849 -97.9466 58.2831 
-73.1879 -97.5392 51.8363 -73.399 -97.5883 51.3225 -73.1187 -97.6135 52.6597 
-72.9858 -97.626 53.5576 -72.7932 -97.5322 54.4565 -72.7587 -97.5392 55.4307 
-72.9525 -97.6992 56.3821 -73.2617 -97.9393 57.186 -73.583 -98.2487 57.88 
-73.9039 -98.5243 58.5234 -73.0166 -98.1116 51.5491 -72.7839 -98.0387 52.1732 
-72.64 -98.7035 51.9174 -72.553 -98.6174 52.5544 -72.65 -99.3762 52.4606 
-72.8028 -98.0542 52.9391 -72.7228 -99.3572 53.1145 -72.8734 -100.072 53.1011 
-72.7522 -98.6287 53.335 -72.8196 -98.0351 53.8769 -72.7956 -100.207 53.8978 
-72.8111 -100.796 53.7163 -72.8462 -99.4734 54.1452 -72.781 -98.7081 54.5904 
-72.6776 -98.0434 55.0923 -72.5616 -101.032 54.7129 -72.6947 -101.521 54.3558 
-72.7081 -100.36 55.1371 -72.7288 -99.6077 55.5938 -72.5689 -98.875 56.0018 
-72.6528 -98.2189 56.2171 -72.6014 -101.68 55.4806 -72.932 -102.066 55.1256 
-72.6212 -101.035 55.896 -72.7777 -100.307 56.2997 -72.687 -99.6695 56.6727 
-72.6862 -99.0698 56.8903 -73.0062 -98.4674 56.976 -73.0342 -102.063 56.2131 
-73.3089 -102.387 55.8899 -72.8951 -101.525 56.5153 -73.0057 -100.842 56.7709 
-73.0652 -100.213 57.0628 -73.0028 -99.6874 57.3857 -73.171 -99.1707 57.5631 
-73.4606 -98.6809 57.663 -73.5254 -102.237 56.7974 -73.6461 -102.574 56.4914 
-73.3527 -101.85 57.0812 -73.2394 -101.411 57.3548 -73.2655 -100.883 57.6528 
-73.276 -100.285 58.0227 -73.2954 -99.6825 58.3393 -73.4859 -99.1885 58.4379 
-73.7283 -98.8355 58.4437 -74.0122 -102.306 57.2525 -74.0718 -102.655 57.0116 
-73.8856 -101.991 57.5211 -73.5968 -101.803 57.9016 -73.3573 -101.575 58.3526 
-73.336 -101.086 58.7618 -73.3676 -100.361 59.0984 -73.4166 -99.6593 59.2862 
-73.6297 -99.1949 59.2649 -73.9566 -98.9204 59.1587 -74.4945 -98.9305 59.6802 
-74.0818 -99.1905 59.8276 -74.8527 -99.3175 60.2292 -73.7559 -99.5917 59.8968 
-74.5266 -99.6946 60.3054 -75.3332 -99.9175 60.7485 -73.671 -100.263 59.7976 
-74.377 -100.225 60.2047 -75.1815 -100.402 60.7625 -75.6591 -100.549 61.4448 
-73.6425 -101.084 59.6152 -74.3577 -100.884 60.0745 -75.0783 -100.866 60.715 
-75.5038 -101.054 61.5995 -75.7706 -101.08 62.2748 -73.5949 -101.714 59.3516 
-74.2428 -101.548 60.0665 -74.9055 -101.361 60.7968 -75.2262 -101.446 61.8161 
-75.5264 -101.574 62.5849 -75.9676 -101.511 62.9435 -73.8428 -101.94 58.8557 
-74.276 -101.996 59.8892 -74.7432 -101.974 60.896 -74.9603 -102.033 61.9848 
-75.2261 -102.084 62.8605 -75.7621 -102.013 63.2602 -76.2825 -101.871 63.4846 
-74.2884 -101.964 58.2877 -74.6525 -102.131 59.3713 -74.8764 -102.448 60.652 
-74.931 -102.757 61.8831 -75.1073 -102.845 62.8458 -75.607 -102.712 63.4196 
-76.1481 -102.529 63.7607 -76.5187 -102.336 64.0542 -74.5289 -102.128 57.9328 
-74.9913 -102.189 58.8872 -75.1897 -102.603 60.1581 -75.1668 -103.131 61.4641 
-75.2424 -103.409 62.5134 -75.6099 -103.436 63.2676 -76.0729 -103.411 63.8259 
-76.421 -103.299 64.2487 -76.7176 -103.003 64.5092 -74.598 -102.456 57.7464 
-75.1336 -102.368 58.65 -75.4377 -102.625 59.7797 -75.5041 -103.11 60.982 
-75.5773 -103.472 62.0237 -75.8157 -103.697 62.8694 -76.1381 -104.009 63.5939 
-76.4224 -104.263 64.1797 -76.6884 -104.136 64.5509 -77.0235 -103.648 64.6818 
-75.0787 -98.899 59.9514 -75.4671 -99.3937 60.5162 -75.561 -98.8809 60.3062 
-75.7386 -99.9204 61.2269 -75.8692 -99.3875 60.9632 -75.9958 -98.7885 60.8361 
-75.8555 -100.355 62.0862 -75.9836 -99.6884 61.8683 -76.3309 -99.2438 61.5303 
-76.6034 -98.6257 61.3407 -76.0927 -100.847 62.7832 -76.1755 -100.003 62.714 
-76.5222 -99.4929 62.3635 -77.0406 -99.1675 61.8234 -77.2736 -98.5678 61.5553 
-76.4577 -101.351 63.2944 -76.6102 -100.609 63.216 -76.8765 -99.9284 62.9737 
-77.3383 -99.5938 62.3686 -77.7251 -99.1529 61.8979 -77.8885 -98.4804 61.7819 
-76.7093 -101.748 63.8705 -76.9596 -101.177 63.6815 -77.2863 -100.533 63.4182 
-77.6756 -100.032 62.9221 -78.0354 -99.5468 62.4524 -78.2998 -98.8074 62.3396 
-78.5109 -98.1221 62.2861 -76.9084 -102.193 64.3976 -77.1745 -101.548 64.2137 
-77.524 -100.952 63.9594 -77.9228 -100.378 63.5718 -78.2806 -99.8247 63.1667 
-78.5628 -99.082 62.992 -78.804 -98.2838 62.9322 -78.9932 -97.7985 62.6547 
-77.2262 -102.723 64.6289 -77.4981 -101.918 64.514 -77.8016 -101.251 64.3785 
-78.137 -100.636 64.1547 -78.4809 -100.085 63.818 -78.7702 -99.4755 63.5286 
-78.9902 -98.7245 63.3326 -79.1533 -98.1242 63.0406 -79.2675 -97.8473 62.5731 
-77.6064 -103.478 64.6177 -77.9163 -102.544 64.5364 -78.4033 -103.117 64.4682 
-78.8483 -102.28 64.4189 -79.4151 -102.791 64.4674 -78.2604 -101.726 64.4882 
-79.9869 -102.005 64.5131 -80.5776 -102.565 64.5762 -79.2753 -101.47 64.4959 
-78.5675 -101.003 64.4585 -81.1024 -101.752 64.5891 -81.5213 -102.374 64.368 
-80.4604 -101.162 64.6267 -79.5994 -100.754 64.4709 -78.8583 -100.401 64.2356 
-81.8161 -101.611 64.1487 -82.097 -102.239 63.7231 -81.4476 -100.927 64.525 
-80.7291 -100.536 64.3876 -79.8031 -100.308 64.0384 -79.1162 -99.9256 63.8234 
-82.3282 -101.51 63.4375 -82.7209 -102.091 63.1716 -82.0404 -100.842 63.949 
-81.5695 -100.368 64.1008 -80.7483 -100.198 63.7373 -79.8767 -99.9335 63.4649 
-79.2918 -99.3336 63.4407 -83.0459 -101.241 63.0888 -83.4762 -101.794 62.9425 
-82.6506 -100.699 63.3855 -82.1768 -100.22 63.6342 -81.4939 -99.9114 63.5209 
-80.663 -99.7365 63.2 -79.8987 -99.3528 63.0267 -79.3995 -98.6921 63.0555 
-83.7402 -100.886 62.9128 -83.9942 -101.431 62.628 -83.3988 -100.428 63.1104 
-82.8548 -100.063 63.1969 -82.1493 -99.6795 63.1983 -81.4164 -99.3684 63.0828 
-80.6578 -99.1735 62.7974 -79.9482 -98.8361 62.5687 -79.4873 -98.3016 62.5713 
-84.1024 -100.671 62.4249 -84.2014 -101.166 62.0206 -83.925 -100.231 62.7183 
-83.4601 -99.9433 62.755 -82.7311 -99.6715 62.6654 -82.0201 -99.3026 62.6641 
-81.4002 -99.0047 62.5774 -80.7201 -98.8189 62.2832 -80.0598 -98.524 62.0844 
-79.6166 -98.0863 62.0898 -77.235 -104.5 64.6061 -77.8979 -104.119 64.5164 
-77.6345 -105.006 64.2981 -78.3249 -104.372 64.27 -78.1302 -104.959 63.7939 
-78.7368 -103.579 64.4709 -78.7754 -104.187 63.8494 -78.4857 -104.5 63.3093 
-79.158 -103.766 64.3392 -79.8236 -103.238 64.5597 -79.1483 -103.804 63.3373 
-78.7178 -103.905 62.9168 -79.6028 -103.679 63.8351 -80.2402 -103.457 64.3212 
-80.9924 -103.003 64.5139 -79.5857 -103.509 62.7192 -79.0872 -103.5 62.2676 
-80.0846 -103.48 63.0212 -80.5862 -103.371 63.4308 -81.2523 -103.09 63.9585 
-81.8251 -102.732 64.0494 -80.1111 -103.478 61.8167 -79.5658 -103.499 61.1852 
-80.6453 -103.372 62.1768 -80.9481 -103.157 62.2873 -81.3525 -102.869 62.7538 
-82.0145 -102.729 63.3718 -82.5062 -102.587 63.4247 -80.5193 -103.601 60.7187 
-79.9504 -103.643 60.0836 -81.1076 -103.436 61.3427 -81.3931 -103.102 61.5297 
-81.5617 -102.701 61.6122 -82.1581 -102.595 62.2357 -82.9447 -102.719 62.8921 
-83.3555 -102.493 63.0154 -80.7944 -103.588 59.7831 -80.2367 -103.564 59.3463 
-81.384 -103.534 60.4366 -81.8085 -103.3 60.9723 -82.0285 -102.879 61.0885 
-82.4708 -102.645 61.2995 -83.2839 -102.774 61.9583 -83.8972 -102.752 62.5057 
-84.0285 -102.216 62.6404 -81.036 -103.383 59.1562 -80.4893 -103.289 58.9027 
-81.585 -103.507 59.5733 -82.1191 -103.552 60.1739 -82.5648 -103.326 60.6321 
[...]
CELL_DATA 2000
SCALARS Distance double
LOOKUP_TABLE default
132.851 133.059 133.056 133.338 133.369 133.346 133.632 133.627 133.989 
133.606 133.638 133.934 133.951 134.293 134.336 134.768 133.835 133.849 
134.14 134.193 134.541 134.623 135.052 135.154 135.637 134.203 134.159 
134.465 134.432 134.787 134.844 135.309 135.435 135.943 136.043 136.5 
134.618 134.601 134.958 134.866 135.195 135.15 135.585 135.688 136.224 
136.353 136.825 136.872 137.244 135.01 135.021 135.408 135.363 135.66 
135.584 135.917 135.963 136.443 136.601 137.105 137.199 137.59 137.588 
137.918 135.442 135.422 135.795 135.77 136.076 136.013 136.313 136.293 
136.703 136.807 137.309 137.449 137.898 137.945 138.288 138.263 138.568 
135.878 135.848 136.197 136.163 136.502 136.44 136.791 136.727 137.139 
137.135 137.61 137.681 138.15 138.227 138.603 138.617 138.896 138.871 
139.115 132.614 132.291 132.56 132.801 131.944 132.245 132.508 132.796 
133.078 131.696 131.947 132.239 132.5 132.771 133.061 133.321 131.607 
131.785 132.052 132.255 132.514 132.769 133.039 133.302 133.572 131.438 
131.664 131.826 132.035 132.229 132.504 132.782 133.062 133.341 133.589 
133.895 131.114 131.387 131.518 131.731 131.854 132.143 132.409 132.773 
133.064 133.352 133.602 133.898 134.223 130.944 131.122 131.376 131.5 
131.659 131.8 132.041 132.361 132.695 133.033 133.298 133.579 133.866 
134.215 134.599 131.071 131.124 131.46 131.535 131.78 131.78 131.982 
132.102 132.423 132.696 133.049 133.311 133.649 133.923 134.334 134.662 
135.092 131.345 131.314 131.571 131.665 131.924 131.964 132.146 132.163 
132.414 132.555 132.937 133.157 133.58 133.808 134.252 134.505 134.951 
135.211 135.59 131.561 131.866 131.669 131.711 132.381 132.038 132.042 
131.912 132.031 133.204 132.715 132.664 132.335 132.416 132.242 132.317 
134.077 133.625 133.611 133.139 133.188 132.794 132.874 132.571 132.651 
134.842 134.473 134.537 134.127 134.196 133.729 133.785 133.325 133.406 
133.036 133.181 135.637 135.26 135.334 134.98 135.056 134.682 134.72 
134.291 134.331 133.908 134.023 133.667 133.845 136.438 136.082 136.13 
135.76 135.802 135.451 135.489 135.132 135.171 134.8 134.89 134.536 
134.69 134.355 134.534 137.085 136.813 136.851 136.524 136.557 136.205 
136.271 135.905 135.992 135.616 135.707 135.352 135.467 135.158 135.302 
135.013 135.178 137.606 137.376 137.417 137.164 137.222 136.942 137.052 
136.733 136.868 136.492 136.588 136.179 136.232 135.875 135.949 135.685 
135.808 135.59 135.742 136.113 136.157 136.309 136.72 136.305 136.389 
136.821 137 137.534 136.649 136.647 137.088 137.178 137.754 137.931 
138.505 137.074 137.082 137.525 137.533 138.063 138.194 138.798 138.933 
139.422 137.37 137.48 137.94 137.977 138.439 138.517 139.061 139.211 
139.734 139.811 140.202 137.499 137.682 138.165 138.313 138.801 138.89 
139.413 139.506 140.039 140.118 140.563 140.569 140.909 137.584 137.751 
138.225 138.457 139.02 139.217 139.805 139.913 140.473 140.507 140.996 
140.974 141.378 141.306 141.636 137.725 137.834 138.271 138.495 139.075 
139.369 140.003 140.243 140.811 140.933 141.42 141.45 141.902 141.852 
142.261 142.116 142.443 137.919 137.998 138.407 138.571 139.114 139.394 
140.006 140.322 140.87 141.119 141.575 141.754 142.216 142.334 142.812 
142.788 143.179 142.978 143.233 136.205 136.848 136.529 136.551 137.662 
137.256 137.292 136.906 136.89 138.558 138.112 138.113 137.699 137.698 
137.275 137.237 139.389 138.953 138.868 138.475 138.466 138.103 138.111 
137.668 137.634 140.159 139.736 139.617 139.186 139.143 138.816 138.878 
138.537 138.554 138.094 138.075 140.88 140.497 140.438 139.981 139.933 
139.525 139.589 139.269 139.34 138.967 138.955 138.524 138.527 141.566 
141.207 141.193 140.807 140.781 140.364 140.378 140.01 140.055 139.705 
139.693 139.317 139.278 138.92 138.918 142.287 141.891 141.845 141.506 
141.477 141.138 141.108 140.764 140.741 140.4 140.351 139.993 139.911 
139.573 139.514 139.217 139.181 143.002 142.592 142.474 142.123 142.058 
141.751 141.701 141.397 141.346 141.035 140.972 140.629 140.528 140.168 
140.062 139.746 139.678 139.409 139.367 143.29 143.446 143.165 142.759 
143.676 143.356 143.004 142.688 142.338 144.116 143.709 143.376 142.991 
142.645 142.307 141.978 144.551 144.201 143.858 143.441 143.07 142.659 
142.293 141.95 141.622 144.667 144.495 144.167 143.88 143.497 143.105 
142.696 142.295 141.915 141.586 141.248 144.621 144.481 144.178 144.036 
143.694 143.442 143.025 142.671 142.235 141.88 141.469 141.166 140.789 
144.688 144.475 144.169 144.012 143.712 143.536 143.154 142.895 142.445 
142.138 141.677 141.363 140.924 140.653 140.286 144.723 144.564 144.257 
144.074 143.781 143.577 143.218 142.972 142.55 142.282 141.846 141.548 
141.112 140.802 140.413 140.168 139.875 144.535 144.509 144.231 144.139 
143.845 143.67 143.303 143.055 142.643 142.383 141.994 141.725 141.348 
141.033 140.665 140.354 140.047 139.813 139.574 143.713 144.281 143.957 
143.815 144.532 144.395 144.277 144.021 143.972 144.393 144.474 144.454 
144.393 144.437 144.272 144.384 144.02 144.233 144.316 144.456 144.618 
144.66 144.841 144.73 144.812 143.659 143.897 144.06 144.266 144.44 
144.652 144.834 144.981 145.064 145.006 144.917 143.428 143.653 143.896 
144.065 144.17 144.339 144.391 144.673 144.779 145.023 145.061 145.013 
144.904 143.261 143.496 143.788 143.963 144.071 144.11 144.041 144.153 
144.239 144.583 144.866 145.101 145.247 145.098 145.027 143.063 143.315 
143.604 143.844 144.048 144.101 144.106 144.008 144.07 144.189 144.581 
144.914 145.319 145.417 145.47 145.229 145.048 142.825 143.075 143.344 
143.622 143.916 144.103 144.302 144.253 144.382 144.296 144.6 144.765 
145.186 145.406 145.55 145.515 145.309 145.082 144.784 138.142 138.702 
138.499 138.685 139.305 139.127 139.376 139.137 139.402 139.869 139.739 
140.043 139.859 140.152 139.934 140.258 140.423 140.293 140.615 140.496 
140.821 140.661 140.963 140.778 141.074 140.987 140.846 141.139 141.038 
141.398 141.3 141.641 141.463 141.743 141.539 141.791 141.479 141.376 
141.627 141.531 141.884 141.852 142.288 142.175 142.544 142.29 142.593 
142.299 142.545 141.873 141.817 142.054 141.968 142.254 142.266 142.71 
142.765 143.235 143.128 143.503 143.222 143.511 143.128 143.277 142.223 
142.188 142.434 142.357 142.581 142.564 142.897 143.03 143.464 143.614 
143.997 143.993 144.256 144.054 144.162 143.768 143.694 142.555 142.528 
142.787 142.727 142.951 142.881 143.125 143.156 143.465 143.638 143.955 
144.164 144.388 144.485 144.547 144.427 144.297 143.958 143.698 137.925 
137.658 138 138.42 137.356 137.696 138.131 138.512 138.973 137.238 
137.462 137.888 138.218 138.69 139.064 139.527 137.264 137.432 137.82 
138.053 138.505 138.812 139.299 139.64 140.113 137.13 137.381 137.713 
137.984 138.394 138.682 139.15 139.46 139.95 140.262 140.713 136.905 
137.141 137.43 137.751 138.147 138.519 138.982 139.326 139.781 140.096 
140.52 140.826 141.203 136.911 137.009 137.292 137.478 137.861 138.208 
138.704 139.106 139.568 139.899 140.267 140.574 140.918 141.242 141.574 
137.057 137.132 137.415 137.477 137.801 137.999 138.451 138.808 139.291 
139.649 140.024 140.31 140.631 140.933 141.284 141.602 141.936 137.061 
137.23 137.486 137.596 137.846 137.99 138.334 138.597 139.024 139.361 
139.763 140.067 140.418 140.694 141.064 141.353 141.732 141.997 142.31 
137.073 137.165 137.256 137.499 137.333 137.35 137.621 137.68 137.917 
137.753 137.637 137.934 137.902 138.229 138.185 138.458 138.34 138.182 
138.532 138.401 138.78 138.64 138.962 138.824 139.127 138.912 138.803 
139.208 139.095 139.511 139.327 139.642 139.418 139.69 139.537 139.835 
139.442 139.38 139.822 139.759 140.193 140.059 140.368 140.137 140.373 
140.15 140.42 140.258 140.536 139.94 139.922 140.395 140.357 140.791 
140.69 141.001 140.813 141.046 140.837 141.103 140.909 141.199 140.987 
141.239 140.373 140.399 140.885 140.9 141.351 141.281 141.61 141.431 
141.669 141.471 141.733 141.574 141.866 141.684 141.93 141.697 141.9 
140.738 140.781 141.232 141.311 141.779 141.805 142.19 142.065 142.326 
142.109 142.347 142.169 142.44 142.295 142.529 142.346 142.511 142.299 
142.444 141.05 141.613 141.393 141.532 142.205 141.982 142.177 141.948 
142.117 142.89 142.631 142.853 142.624 142.823 142.546 142.593 143.641 
143.353 143.515 143.275 143.436 143.213 143.257 142.914 142.772 144.277 
144.052 144.113 143.864 143.932 143.743 143.797 143.533 143.43 143.012 
142.804 144.573 144.523 144.559 144.374 144.406 144.213 144.311 144.084 
144.09 143.7 143.537 143.059 142.873 144.575 144.667 144.797 144.739 
144.828 144.679 144.801 144.626 144.702 144.394 144.273 143.806 143.568 
143.112 142.913 144.566 144.684 144.964 144.985 145.155 145.055 145.1 
144.994 144.984 144.868 144.738 144.451 144.164 143.747 143.454 143.075 
142.857 144.643 144.768 145.134 145.212 145.421 145.343 145.251 145.108 
144.878 144.86 144.668 144.662 144.425 144.214 143.905 143.562 143.295 
142.969 142.769 140.896 140.839 141.078 141.452 140.648 140.993 141.399 
141.62 142.004 140.287 140.738 141.219 141.536 141.941 142.189 142.649 
139.867 140.344 140.882 141.306 141.762 142.08 142.55 142.871 143.401 
139.463 139.914 140.453 140.944 141.448 141.842 142.296 142.686 143.218 
143.612 144.077 139.138 139.513 140.016 140.505 141.046 141.498 141.948 
142.352 142.82 143.296 143.765 144.152 144.402 138.987 139.255 139.712 
140.099 140.629 141.087 141.566 141.975 142.385 142.826 143.237 143.7 
143.972 144.287 144.366 138.916 139.159 139.56 139.846 140.281 140.678 
141.134 141.564 141.954 142.366 142.709 143.14 143.416 143.785 143.92 
144.186 144.277 138.728 139.032 139.373 139.657 139.976 140.314 140.671 
141.094 141.458 141.889 142.197 142.606 142.866 143.245 143.442 143.747 
143.889 144.153 144.317 140.475 139.701 140.203 140.385 138.853 139.351 
139.503 140.034 140.143 138.108 138.513 138.595 139.087 139.171 139.697 
139.75 137.396 137.792 137.818 138.215 138.257 138.722 138.792 139.294 
139.354 136.533 137.014 137.028 137.437 137.409 137.831 137.877 138.373 
138.47 138.949 139.01 135.576 136.083 136.116 136.58 136.515 136.936 
136.898 137.417 137.509 138.067 138.174 138.639 138.717 134.677 135.133 
135.168 135.644 135.613 136.021 135.945 136.401 136.452 137.04 137.197 
137.772 137.919 138.399 138.553 133.893 134.268 134.274 134.718 134.726 
135.146 135.118 135.51 135.546 136.032 136.202 136.779 136.996 137.561 
137.767 138.279 138.47 133.238 133.531 133.504 133.872 133.886 134.296 
134.33 134.733 134.808 135.229 135.394 135.882 136.111 136.649 136.878 
137.431 137.632 138.158 138.3 132.88 132.435 132.808 133.139 132.173 
132.448 132.808 133.127 133.506 132.158 132.324 132.685 132.895 133.262 
133.555 133.969 132.083 132.296 132.612 132.835 133.193 133.41 133.818 
134.084 134.52 131.8 132.061 132.352 132.689 133.104 133.384 133.819 
134.035 134.488 134.706 135.159 131.729 131.824 132.167 132.434 132.957 
133.289 133.819 134.069 134.534 134.736 135.192 135.396 135.859 132.066 
132.006 132.407 132.473 133.022 133.239 133.814 134.062 134.549 134.771 
135.214 135.432 135.889 136.113 136.594 132.464 132.441 132.83 132.856 
133.33 133.43 133.916 134.083 134.538 134.755 135.201 135.437 135.891 
136.125 136.597 136.842 137.327 132.709 132.75 133.086 133.19 133.592 
133.706 134.091 134.2 134.58 134.75 135.195 135.428 135.904 136.131 
136.586 136.818 137.274 137.538 137.985 132.912 133.388 133.167 133.3 
134.038 133.725 133.851 133.648 133.836 134.844 134.461 134.564 134.267 
134.425 134.197 134.338 135.736 135.329 135.433 135.052 135.173 134.843 
134.966 134.689 134.822 136.585 136.227 136.346 135.958 136.07 135.666 
135.786 135.416 135.579 135.261 135.464 137.312 137.025 137.173 136.853 
136.985 136.59 136.702 136.302 136.465 136.111 136.318 135.989 136.194 
137.981 137.719 137.907 137.649 137.839 137.496 137.619 137.221 137.349 
136.993 137.163 136.841 137.008 136.691 136.855 138.631 138.389 138.592 
138.373 138.603 138.328 138.486 138.121 138.232 137.858 137.988 137.648 
137.788 137.47 137.624 137.327 137.513 139.182 139.001 139.192 139.024 
139.246 139.044 139.21 138.927 139.033 138.703 138.808 138.467 138.579 
138.241 138.379 138.08 138.271 138.001 138.209 138.668 138.725 138.914 
139.316 138.815 138.97 139.382 139.538 139.914 139.017 139.114 139.52 
139.632 140.035 140.161 140.58 139.239 139.335 139.738 139.825 140.23 
140.328 140.765 140.891 141.346 139.426 139.528 139.913 140.027 140.429 
140.544 140.966 141.088 141.525 141.657 142.077 139.586 139.696 140.061 
140.176 140.574 140.712 141.129 141.267 141.68 141.815 142.22 142.35 
142.73 139.632 139.806 140.173 140.317 140.707 140.849 141.261 141.403 
141.816 141.955 142.371 142.5 142.895 142.994 143.327 139.556 139.775 
140.134 140.357 140.737 140.942 141.327 141.504 141.894 142.064 142.487 
142.654 143.076 143.187 143.532 143.572 143.829 139.484 139.669 139.993 
140.239 140.604 140.878 141.254 141.497 141.86 142.081 142.473 142.709 
143.125 143.325 143.677 143.773 144.033 144.05 144.273 131.322 130.9 
131.119 131.26 130.718 130.725 130.786 131.102 131.318 130.931 130.712 
130.714 130.781 131.011 131.233 131.365 131.236 131.002 130.923 130.855 
131.006 131.095 131.233 131.28 131.283 131.302 131.158 130.962 130.962 
130.991 131.103 131.138 131.177 131.083 131.141 131.177 131.366 131.15 
130.904 130.86 130.868 131 131.056 131.082 130.926 130.888 130.801 
131.033 131.273 131.689 131.361 131.157 130.916 130.939 130.935 131.133 
131.122 131.126 130.904 130.793 130.729 130.913 131.226 131.643 132.12 
131.818 131.673 131.34 131.292 131.132 131.306 131.31 131.5 131.327 
131.336 131.024 131.131 131.084 131.471 131.717 132.157 132.504 132.278 
132.198 131.894 131.785 131.516 131.519 131.469 131.655 131.681 131.849 
131.676 131.772 131.539 131.774 131.753 132.14 132.297 132.665 131.612 
131.686 131.835 132.218 131.688 131.898 132.293 132.464 132.781 131.502 
131.74 132.009 132.352 132.664 132.923 133.191 131.336 131.471 131.62 
131.92 132.246 132.647 133.032 133.317 133.643 131.445 131.462 131.713 
131.736 132.125 132.335 132.857 133.153 133.608 133.814 134.14 131.745 
131.773 132.207 132.13 132.581 132.552 133.075 133.169 133.631 133.774 
134.099 134.259 134.545 132.087 132.141 132.589 132.628 133.043 133.073 
133.491 133.521 133.862 133.878 134.122 134.2 134.481 134.666 135.05 
132.472 132.475 132.831 132.89 133.23 133.344 133.694 133.81 134.097 
134.119 134.32 134.308 134.575 134.67 135.095 135.289 135.777 132.897 
132.844 133.147 133.13 133.452 133.494 133.85 133.936 134.264 134.309 
134.567 134.557 134.845 134.875 135.284 135.408 135.886 136.061 136.492 
131.708 132.241 131.955 132.005 132.831 132.537 132.57 132.325 132.529 
133.304 133.086 133.164 132.941 133.149 132.983 133.324 133.767 133.554 
133.658 133.486 133.703 133.59 133.889 133.79 134.121 134.274 134.071 
134.19 133.989 134.209 134.096 134.393 134.3 134.586 134.507 134.831 
134.75 134.597 134.785 134.581 134.827 134.656 134.971 134.822 135.119 
134.976 135.286 135.22 135.609 135.305 135.126 135.383 135.194 135.476 
135.313 135.64 135.469 135.752 135.551 135.807 135.685 136.023 136.012 
136.397 136.019 135.787 136.036 135.811 136.055 135.908 136.212 136.106 
136.374 136.19 136.369 136.187 136.415 136.375 136.703 136.736 137.05 
136.697 136.507 136.698 136.46 136.597 136.418 136.628 136.569 136.835 
136.746 136.924 136.731 136.876 136.743 137 137 137.318 137.334 
137.599 140.361 139.941 139.971 139.584 139.514 139.541 139.155 139.167 
138.786 139.085 139.138 138.82 138.809 138.467 138.431 138.093 138.617 
138.728 138.483 138.521 138.209 138.165 137.787 137.75 137.369 138.077 
138.245 138.006 138.132 137.801 137.84 137.394 137.385 136.898 136.92 
136.466 137.52 137.686 137.424 137.576 137.192 137.291 136.811 136.875 
136.37 136.402 135.911 135.953 135.512 137.098 137.169 136.897 136.985 
136.582 136.636 136.155 136.231 135.789 135.864 135.432 135.446 135.008 
135.031 134.639 136.88 136.83 136.508 136.504 136.095 136.083 135.622 
135.64 135.24 135.314 134.949 134.992 134.581 134.583 134.181 134.214 
133.876 136.735 136.633 136.216 136.14 135.686 135.644 135.212 135.201 
134.844 134.866 134.544 134.553 134.186 134.172 133.794 133.801 133.476 
133.518 133.242 
POINT_DATA 1002
SCALARS Distance double
LOOKUP_TABLE default
133.075 132.683 132.797 133.297 133.085 133.643 133.657 133.366 133.943 
134.383 133.891 133.563 134.255 134.682 135.239 134.096 133.846 134.436 
134.934 135.542 136.131 134.537 134.226 134.764 135.164 135.831 136.458 
136.913 135.04 134.589 135.299 135.522 136.07 136.772 137.245 137.575 
135.435 135.006 135.75 135.933 136.297 136.963 137.581 137.944 138.237 
135.825 135.493 136.125 136.356 136.651 137.163 137.803 138.31 138.61 
138.858 136.226 135.916 136.54 136.841 137.177 137.591 138.078 138.568 
138.931 139.147 139.339 132.362 132.521 131.992 132.222 131.619 132.783 
132.001 131.47 132.497 133.035 131.887 131.464 132.271 132.775 133.309 
131.642 131.208 131.951 132.468 133.103 133.613 131.311 130.826 131.603 
132.011 132.749 133.341 133.855 131.231 130.777 131.588 131.788 132.325 
133.012 133.543 134.202 131.365 131.073 131.787 131.966 132.193 132.754 
133.382 134.025 134.777 131.505 131.458 131.846 132.141 132.332 132.72 
133.339 134.02 134.713 135.362 131.721 131.783 132.096 132.235 132.813 
132.108 133.097 133.703 132.662 132.479 134.078 134.451 133.661 133.242 
132.904 134.892 135.184 134.644 134.286 133.831 133.486 135.705 136.025 
135.407 135.119 134.756 134.408 134.177 136.518 136.773 136.17 135.83 
135.521 135.238 135.026 134.868 137.148 137.336 136.887 136.616 136.367 
136.09 135.795 135.58 135.458 137.646 137.836 137.457 137.324 137.218 
137.022 136.653 136.25 136.018 135.95 136.474 136.503 137.185 136.647 
137.314 138.103 137.045 137.572 138.376 139.038 137.549 137.983 138.634 
139.385 139.844 137.871 138.401 138.935 139.614 140.206 140.556 137.957 
138.669 139.336 139.97 140.535 140.947 141.224 137.973 138.747 139.646 
140.435 141.016 141.439 141.747 141.938 138.074 138.766 139.714 140.649 
141.349 141.896 142.372 142.664 142.726 138.274 138.874 139.702 140.605 
141.359 142.019 142.735 143.329 143.544 143.43 136.886 137.698 137.291 
138.534 138.108 137.694 139.287 138.784 138.507 138.134 140.076 139.488 
139.158 138.972 138.558 140.861 140.379 139.932 139.678 139.372 138.937 
141.538 141.181 140.783 140.42 140.067 139.643 139.256 142.199 141.8 
141.452 141.09 140.715 140.272 139.821 139.465 142.852 142.373 142.003 
141.651 141.3 140.902 140.412 139.954 139.617 143.591 143.054 143.696 
143.321 144.015 142.638 143.794 144.543 143.017 142.282 144.269 144.842 
143.515 142.681 141.918 144.376 144.787 143.858 143.12 142.288 141.542 
144.282 144.795 143.878 143.349 142.606 141.811 141.054 144.351 144.919 
143.877 143.384 142.732 141.998 141.223 140.494 144.426 144.828 143.997 
143.47 142.801 142.117 141.425 140.688 140.056 144.275 144.503 143.994 
143.543 142.896 142.232 141.633 140.987 140.32 139.766 144.121 144.161 
144.562 144.463 144.572 144.207 144.389 144.221 144.511 144.596 144.093 
143.748 144.47 144.875 145.054 143.853 143.378 144.237 144.615 145.016 
145.123 143.732 143.177 144.106 144.169 144.392 144.931 145.131 143.581 
143.029 144.054 144.056 143.901 144.428 145.242 145.37 143.335 142.826 
143.899 144.195 144.069 144.242 145.075 145.642 145.4 143.065 142.587 
143.635 144.216 144.498 144.58 144.98 145.504 145.506 145.021 138.316 
138.909 138.884 139.59 139.444 139.631 140.183 139.983 140.356 140.47 
140.715 140.573 140.949 141.158 141.261 141.252 141.136 141.453 141.795 
141.971 141.997 141.742 141.561 141.892 142.311 142.761 142.901 142.881 
142.15 141.909 142.274 142.598 143.223 143.722 143.886 143.767 142.506 
142.255 142.649 142.822 143.271 143.897 144.374 144.51 144.209 137.625 
138.063 137.288 137.741 137.042 138.594 137.604 137.071 138.323 139.157 
137.624 137.099 138.235 138.961 139.783 137.421 136.871 138.096 138.855 
139.639 140.431 137.132 136.715 137.739 138.608 139.487 140.22 140.912 
137.181 136.838 137.566 138.28 139.225 139.994 140.59 141.254 137.38 
136.955 137.687 138.154 138.921 139.729 140.349 140.955 141.645 137.356 