# vtk DataFile Version 4.0
vtk output
ASCII
DATASET POLYDATA
POINTS 1002 float
-77.8115 -96.6531 54.543 -77.8404 -97.1541 55.0753 -78.4059 -96.9802 54.8645 
-78.2991 -96.5994 54.1167 -78.6975 -97.038 54.2445 -77.7053 -96.2999 53.7364 
-78.4309 -96.7683 53.2927 -78.7183 -97.3005 53.2619 -78.0758 -96.251 53.2073 
-77.6152 -95.7688 52.9692 -78.4252 -96.9843 52.2767 -78.8344 -97.4705 52.3648 
-78.1331 -96.3425 52.3695 -77.9431 -95.5578 52.4603 -77.5087 -94.9466 52.3505 
-78.7343 -96.9401 51.4849 -79.1905 -97.413 51.7083 -78.2352 -96.4077 51.4283 
-78.062 -95.5364 51.6532 -77.8728 -94.6821 51.7916 -77.2735 -94.2425 51.701 
-79.216 -96.7667 50.8473 -79.5097 -97.3706 50.9711 -78.6357 -96.2892 50.6637 
-78.2062 -95.6499 50.7116 -78.0663 -94.7236 50.9295 -77.6678 -94.1021 51.0039 
-76.9536 -93.8973 50.9163 -79.5363 -96.7836 50.1219 -79.7892 -97.3945 50.1949 
-79.0868 -96.1477 50.0382 -78.4963 -95.6926 49.9329 -78.1773 -94.9699 49.9962 
-77.902 -94.1554 50.0944 -77.3274 -93.8009 50.0612 -76.6201 -93.6751 49.9131 
-79.8995 -96.7979 49.5168 -80.263 -97.2322 49.6899 -79.5392 -96.0665 49.5011 
-78.9923 -95.5163 49.4109 -78.4859 -95.0466 49.3022 -78.1038 -94.284 49.2801 
-77.6192 -93.6855 49.2099 -76.9854 -93.491 49.0604 -76.3004 -93.3361 48.8978 
-80.4465 -96.534 49.1631 -80.8466 -96.8685 49.379 -80.1069 -95.8939 49.102 
-79.6731 -95.1983 49.033 -79.1411 -94.7442 48.8605 -78.5847 -94.2281 48.7217 
-77.9954 -93.5797 48.623 -77.3982 -93.1949 48.4858 -76.7727 -93.0267 48.3659 
-76.0906 -92.8455 48.3107 -80.9482 -96.1448 48.8474 -81.2922 -96.5424 49.0199 
-80.6219 -95.6335 48.737 -80.2562 -94.9752 48.639 -79.7952 -94.4074 48.4688 
-79.218 -93.9777 48.2957 -78.54 -93.4548 48.202 -77.8996 -92.9308 48.1356 
-77.3378 -92.6098 48.0832 -76.7244 -92.4249 48.0826 -76.036 -92.3024 48.1181 
-78.1442 -97.6947 55.3172 -78.6374 -97.5509 55.0561 -78.3599 -98.3367 55.5125 
-78.7435 -98.3372 55.0871 -78.6357 -98.9452 55.8081 -78.8587 -97.667 54.3138 
-78.9439 -99.1083 55.1314 -78.9926 -99.4671 56.1262 -78.9683 -98.5136 54.2424 
-78.9438 -97.9236 53.3325 -79.3334 -99.5924 55.2463 -79.2682 -99.9609 56.1893 
-79.2929 -99.2063 54.2649 -79.2142 -98.6542 53.3734 -79.1575 -98.0384 52.5388 
-79.8491 -99.8819 55.3679 -79.5191 -100.499 56.0335 -79.9252 -99.4518 54.5583 
-79.7457 -99.0975 53.5657 -79.5389 -98.6071 52.6325 -79.4688 -97.9781 51.8057 
-80.3825 -100.354 55.4976 -79.8158 -101.09 55.9153 -80.651 -99.6664 54.975 
-80.4633 -99.2238 53.9592 -80.1748 -98.894 52.774 -79.968 -98.383 51.8431 
-79.8322 -97.8452 51.0022 -80.656 -101.034 55.5099 -79.9811 -101.629 55.7841 
-81.0897 -100.31 55.135 -80.9692 -99.6078 54.1784 -80.7449 -99.1504 52.8878 
-80.7114 -98.6417 51.941 -80.5967 -98.027 51.2262 -80.3714 -97.6034 50.4101 
-80.5982 -101.598 55.2261 -80.0039 -102.018 55.4705 -81.0835 -101.083 54.8447 
-81.0961 -100.348 53.962 -80.9403 -99.7002 52.7552 -81.0927 -99.1364 51.9 
-81.317 -98.3813 51.4212 -81.2334 -97.7069 50.7951 -80.9891 -97.2917 50.0071 
-80.4969 -101.935 54.7284 -80.0495 -102.282 55.0179 -80.9234 -101.597 54.2925 
-81.0908 -101.007 53.5173 -81.0715 -100.319 52.5261 -81.1805 -99.7739 51.759 
-81.4685 -99.1054 51.3273 -81.6675 -98.2658 50.8679 -81.6231 -97.586 50.2078 
-81.4509 -97.0702 49.5392 -80.3943 -102.276 54.3063 -80.8131 -102.007 53.8466 
-80.7783 -102.375 53.4644 -81.2465 -102.123 52.8513 -81.1932 -102.572 52.5138 
-81.1505 -101.585 53.1848 -81.7463 -102.217 51.9316 -81.5826 -102.658 51.5114 
-81.7182 -101.542 52.254 -81.4032 -100.904 52.4232 -81.9653 -102.021 51.0996 
-81.7874 -102.434 50.5544 -82.2876 -101.476 51.5489 -82.1832 -100.849 51.7921 
-81.5709 -100.314 51.7597 -81.7874 -101.546 50.2375 -81.7884 -102.138 49.527 
-82.2201 -101.2 50.7314 -82.6589 -100.825 51.0843 -82.2503 -100.325 51.185 
-81.6183 -99.7837 51.1759 -81.6442 -101.284 49.0821 -81.7792 -102.055 48.2763 
-81.7885 -100.837 49.6882 -82.4141 -100.63 50.0254 -82.5197 -100.199 50.2072 
-81.951 -99.6526 50.2904 -81.679 -99.0007 50.5423 -81.7316 -101.271 47.7571 
-81.7531 -101.942 47.1912 -81.7044 -100.652 48.4328 -82.1156 -100.346 48.8825 
-82.5033 -99.8904 49.1698 -82.2269 -99.3083 49.3064 -81.8383 -98.8051 49.4805 
-81.7883 -98.1684 49.8881 -81.7125 -101.052 46.8643 -81.5347 -101.517 46.6572 
-81.8486 -100.44 47.3249 -82.1641 -100.048 47.7412 -82.5523 -99.5696 48.1529 
-82.5238 -98.9015 48.5374 -82.1434 -98.4502 48.7197 -81.9138 -98.0377 48.9361 
-81.7897 -97.4629 49.302 -81.4385 -100.562 46.4676 -81.1786 -100.93 46.407 
-81.7632 -100.034 46.702 -82.1877 -99.6677 46.8722 -82.5938 -99.2719 47.0672 
-82.6891 -98.5951 47.5255 -82.4074 -98.0392 47.9896 -82.0716 -97.7349 48.2358 
-81.8706 -97.2957 48.4859 -81.6522 -96.7902 48.8019 -81.3559 -96.0373 48.4327 
-81.6208 -96.3841 48.0881 -81.3057 -95.5818 47.7053 -81.8359 -96.8964 47.7325 
-81.5445 -95.9714 47.2731 -81.289 -95.126 46.9337 -82.1185 -97.2583 47.3874 
-81.7998 -96.4254 46.8449 -81.5528 -95.5021 46.4971 -81.3932 -94.4768 46.2413 
-82.4772 -97.6415 46.8808 -82.1219 -96.7635 46.3564 -81.7621 -95.9545 46.0744 
-81.4705 -94.973 45.8357 -81.2799 -93.8698 45.5873 -82.631 -98.3674 46.3567 
-82.3671 -97.3267 45.8344 -81.931 -96.4045 45.66 -81.3574 -95.6383 45.5048 
-80.9247 -94.6877 45.2272 -80.618 -93.7737 45.0666 -82.353 -98.9993 46.2361 
-82.2395 -98.1746 45.608 -81.8766 -97.1366 45.3382 -81.2218 -96.2854 45.2529 
-80.4937 -95.5827 45.0214 -80.0729 -94.7132 44.8283 -79.711 -93.9671 44.7706 
-81.8259 -99.3102 46.3152 -81.7871 -98.739 45.6656 -81.5371 -97.9607 45.1274 
-81.0198 -97.0192 44.9623 -80.2721 -96.3099 44.8675 -79.6753 -95.5637 44.705 
-79.3833 -94.6538 44.5668 -79.0659 -93.9399 44.3696 -81.3581 -99.7051 46.1845 
-81.3642 -99.0646 45.5594 -81.2538 -98.4772 44.8235 -80.8696 -97.6617 44.4983 
-80.2332 -96.9138 44.5384 -79.548 -96.2717 44.5413 -79.1256 -95.3562 44.3813 
-78.9448 -94.3888 44.0726 -78.7484 -93.7278 43.6745 -81.0398 -100.204 45.9909 
-81.0956 -99.529 45.2729 -81.1737 -98.9277 44.4149 -80.9345 -98.1753 43.9507 
-80.3477 -97.3899 44.0214 -79.6187 -96.8099 44.1919 -78.9889 -96.0827 44.1525 
-78.6632 -95.051 43.8639 -78.5757 -94.1564 43.4031 -78.5058 -93.6115 42.9645 
-81.0329 -95.528 48.2838 -80.9712 -95.03 47.5333 -80.6647 -94.9974 48.1431 
-80.9987 -94.4284 46.768 -80.5323 -94.5045 47.3764 -80.2139 -94.4014 47.9839 
-81.1382 -93.6017 46.0738 -80.4992 -93.8578 46.6523 -79.9447 -93.9771 47.2634 
-79.6518 -93.8704 47.8309 -80.8433 -93.1328 45.4421 -80.4527 -93.142 45.9872 
-79.7156 -93.4293 46.6144 -79.2517 -93.4192 47.2146 -78.9749 -93.3413 47.7509 
-79.895 -93.3028 44.9946 -79.844 -92.8856 45.3806 -79.437 -92.818 45.9686 
-78.9438 -92.77 46.6037 -78.6321 -92.6487 47.1927 -78.3232 -92.6979 47.7292 
-78.9537 -93.4908 44.559 -78.8616 -92.9638 44.824 -78.8445 -92.4422 45.32 
-78.7044 -92.0381 45.9703 -78.4385 -91.7888 46.5648 -78.1601 -91.8182 47.1737 
-77.7898 -92.1491 47.7361 -78.5419 -93.3587 43.8553 -78.2781 -92.8804 44.1152 
-78.2691 -92.2522 44.5858 -78.3491 -91.6494 45.3176 -78.1884 -91.2154 45.9691 
-77.9141 -91.074 46.5078 -77.6288 -91.3272 47.189 -77.2143 -91.8577 47.7865 
-78.4396 -93.1953 43.0713 -78.1928 -92.677 43.3194 -78.0458 -92.079 43.7421 
-78.0107 -91.5867 44.5086 -77.7799 -91.226 45.3729 -77.4173 -90.9436 45.9276 
-77.1798 -90.9078 46.4704 -76.9318 -91.2392 47.2419 -76.5086 -91.7788 47.8545 
-78.2119 -93.3837 42.4584 -78.1556 -92.8033 42.6372 -77.6858 -93.2005 42.2551 
-77.5583 -92.4506 42.547 -76.8022 -93.007 42.3414 -77.9537 -92.0966 42.9505 
-76.4878 -92.231 42.6578 -75.6763 -92.832 42.5091 -77.2564 -91.7412 42.8354 
-77.7286 -91.6038 43.5129 -75.2362 -92.1274 42.7387 -74.5444 -92.6775 42.5811 
-76.0425 -91.648 42.8372 -76.7936 -91.4981 43.4502 -77.3324 -91.4367 44.5044 
-74.1633 -92.0641 42.806 -73.6153 -92.6063 42.6393 -74.8368 -91.6213 42.9341 
-75.6125 -91.4402 43.5293 -76.2505 -91.4522 44.5554 -76.8063 -91.2467 45.3932 
-73.4182 -92.1872 43.083 -73.0405 -92.8053 42.9548 -73.892 -91.6925 43.2489 
-74.6471 -91.3497 43.8103 -75.4045 -91.2549 44.6991 -75.9325 -91.2339 45.3995 
-76.5114 -91.0187 45.904 -72.9878 -92.5963 43.6623 -72.6475 -93.1967 43.5186 
-73.2348 -92.0217 43.8196 -73.7526 -91.5292 44.2601 -74.6058 -91.1824 44.9526 
-75.3241 -91.1294 45.498 -75.8165 -91.1518 45.964 -76.3705 -91.0971 46.6053 
-72.5876 -93.0389 44.3109 -72.1221 -93.4785 44.0522 -72.8445 -92.4911 44.4915 
-73.0672 -91.9585 44.7777 -73.6067 -91.4833 45.2596 -74.3938 -91.2466 45.7105 
-75.0581 -91.3156 46.1598 -75.5612 -91.4108 46.8174 -76.0538 -91.4989 47.4764 
-72.0103 -93.2951 44.796 -71.4809 -93.5825 44.4561 -72.4402 -92.8649 45.0343 
-72.6852 -92.3938 45.2615 -72.8969 -91.928 45.6231 -73.3363 -91.5387 46.0518 
-74.0001 -91.4517 46.5101 -74.6311 -91.6217 47.1036 -75.1316 -91.7922 47.6893 
-75.5903 -91.9813 48.0166 -78.1346 -93.9179 42.7035 -77.7124 -93.7582 42.2643 
-77.5666 -94.3396 42.7144 -77.0594 -94.157 42.3047 -77.1112 -94.9291 42.7444 
-77.0513 -93.6322 42.051 -76.5695 -94.8246 42.3029 -76.8271 -95.8054 42.4667 
-76.4023 -94.0138 41.9863 -76.1285 -93.4615 42.0603 -76.1626 -95.8955 42.0624 
-76.388 -96.6509 42.2047 -75.8758 -94.7721 42.0208 -75.4998 -93.8838 41.9081 
-75.0125 -93.3028 42.1626 -75.5428 -96.696 42.0152 -75.6933 -96.9958 42.5116 
-75.2425 -95.886 42.0222 -74.8036 -94.7119 42.002 -74.288 -93.8327 41.9097 
-73.8574 -93.2015 42.2003 -74.8109 -96.8909 42.4811 -75.0278 -97.2116 43.0528 
-74.4342 -96.5713 42.1276 -73.9386 -95.7417 42.0385 -73.4813 -94.6764 41.8882 
-73.1377 -93.864 41.9371 -73.01 -93.2597 42.3864 -74.2205 -97.2535 42.9213 
-74.5427 -97.8518 43.2083 -73.7423 -96.9021 42.4357 -73.1506 -96.4572 42.0171 
-72.7639 -95.6051 41.8821 -72.585 -94.666 42.0315 -72.4853 -93.9763 42.399 
-72.5294 -93.5126 42.9154 -73.7778 -98.0854 42.9655 -74.1752 -98.6593 43.1153 
-73.2965 -97.5556 42.6777 -72.6924 -97.0963 42.1966 -72.294 -96.444 41.9632 
-72.2326 -95.5314 42.2873 -72.16 -94.6756 42.7581 -72.0197 -94.0865 43.0748 
-72.0195 -93.7257 43.4719 -73.4365 -98.8386 42.9684 -73.897 -99.1824 43.2192 
-73.0062 -98.3576 42.8219 -72.5165 -97.8242 42.564 -72.0905 -97.2242 42.3294 
[...]
CELL_DATA 2000
SCALARS Distance double
LOOKUP_TABLE default
134.972 135.022 134.8 134.353 134.902 134.767 134.323 134.131 133.65 
134.704 134.579 134.122 134.001 133.509 133.351 132.819 134.571 134.393 
133.903 133.757 133.26 133.134 132.614 132.457 131.916 134.473 134.284 
133.775 133.572 133.063 132.897 132.399 132.242 131.741 131.571 131.092 
134.373 134.191 133.7 133.473 132.961 132.754 132.265 132.076 131.582 
131.404 130.929 130.787 130.341 134.33 134.132 133.68 133.429 132.931 
132.69 132.218 132 131.505 131.277 130.763 130.593 130.125 130.015 
129.556 134.315 134.127 133.705 133.455 132.97 132.697 132.224 131.986 
131.514 131.251 130.72 130.461 129.963 129.797 129.368 129.238 128.814 
134.243 134.09 133.673 133.477 133.004 132.747 132.255 132.005 131.534 
131.281 130.774 130.477 129.96 129.706 129.279 129.107 128.74 128.579 
128.23 135.388 136.033 135.632 135.438 136.702 136.269 136.045 135.615 
135.333 137.403 136.946 136.698 136.229 135.937 135.471 135.166 138.022 
137.615 137.362 136.902 136.614 136.119 135.82 135.333 135.05 138.539 
138.182 137.969 137.556 137.297 136.815 136.507 136.008 135.695 135.223 
134.933 139.109 138.753 138.631 138.204 137.98 137.486 137.17 136.673 
136.325 135.846 135.514 135.073 134.794 139.651 139.384 139.338 138.94 
138.702 138.169 137.794 137.289 136.94 136.473 136.153 135.673 135.387 
134.949 134.725 139.938 139.831 139.787 139.561 139.28 138.819 138.337 
137.845 137.467 137.067 136.81 136.364 136.101 135.603 135.355 134.914 
134.706 140.006 139.972 139.892 139.815 139.547 139.238 138.756 138.316 
137.917 137.559 137.341 136.993 136.77 136.325 136.046 135.574 135.312 
134.885 134.647 139.991 139.917 139.919 139.854 139.9 139.858 139.703 
139.697 139.468 139.886 139.857 139.677 139.565 139.248 139.157 138.754 
139.622 139.728 139.584 139.561 139.299 139.098 138.712 138.46 138.062 
139.044 139.238 139.045 139.284 139.13 139.167 138.839 138.586 138.144 
137.873 137.51 138.453 138.561 138.265 138.554 138.43 138.766 138.521 
138.556 138.039 137.88 137.371 137.272 136.881 137.988 138.024 137.686 
137.819 137.66 137.983 137.834 138.036 137.596 137.564 137.007 136.974 
136.538 136.544 136.155 137.465 137.569 137.237 137.318 137.105 137.316 
137.19 137.386 137.079 137.087 136.617 136.57 136.159 136.161 135.809 
135.797 135.426 136.798 136.985 136.673 136.822 136.581 136.783 136.619 
136.815 136.546 136.613 136.198 136.194 135.789 135.802 135.444 135.449 
135.084 135.072 134.72 134.322 134.648 134.239 133.752 135.014 134.584 
134.06 133.637 133.135 135.343 134.925 134.396 133.96 133.427 133.025 
132.519 135.695 135.245 134.694 134.262 133.728 133.328 132.8 132.393 
131.845 136.066 135.631 135.069 134.582 134.037 133.614 133.093 132.678 
132.11 131.683 131.136 136.232 135.949 135.449 135.005 134.442 133.961 
133.414 132.969 132.409 131.964 131.406 131.004 130.534 136.188 136.003 
135.562 135.291 134.753 134.348 133.752 133.299 132.724 132.279 131.732 
131.304 130.805 130.437 129.996 136.199 135.954 135.511 135.304 134.821 
134.54 133.966 133.582 133.001 132.596 132.073 131.654 131.139 130.719 
130.218 129.864 129.413 136.305 136.017 135.563 135.302 134.879 134.606 
134.127 133.767 133.234 132.852 132.361 131.988 131.495 131.065 130.517 
130.09 129.58 129.257 128.858 134.033 133.453 133.652 133.445 132.826 
133.03 132.814 133.031 132.787 132.183 132.38 132.132 132.362 132.114 
132.322 132.047 131.48 131.692 131.411 131.654 131.393 131.622 131.349 
131.566 131.303 130.776 130.957 130.662 130.904 130.637 130.882 130.593 
130.83 130.543 130.799 130.523 130.18 130.29 129.958 130.148 129.848 
130.095 129.773 130.026 129.692 129.971 129.676 129.972 129.706 129.63 
129.717 129.312 129.443 129.062 129.277 128.914 129.163 128.788 129.064 
128.749 129.082 128.861 129.19 129.016 129.059 129.144 128.702 128.783 
128.351 128.5 128.141 128.34 127.992 128.191 127.868 128.149 127.952 
128.331 128.226 128.582 128.478 128.562 128.608 128.204 128.213 127.793 
127.851 127.533 127.674 127.423 127.542 127.259 127.385 127.169 127.455 
127.386 127.778 127.744 128.088 128.002 128.236 127.693 127.934 127.856 
127.089 127.346 127.211 127.48 127.408 126.37 126.659 126.5 126.796 
126.736 127.079 127.146 125.603 125.889 125.712 126.034 126.008 126.414 
126.547 126.936 127.071 124.937 125.15 124.991 125.266 125.264 125.684 
125.876 126.333 126.501 126.851 126.919 124.633 124.654 124.554 124.678 
124.714 125.026 125.254 125.685 125.918 126.278 126.386 126.677 126.801 
124.775 124.626 124.571 124.478 124.52 124.632 124.848 125.159 125.439 
125.768 125.976 126.234 126.434 126.709 127.008 124.998 124.902 124.88 
124.698 124.688 124.602 124.714 124.847 125.077 125.358 125.624 125.913 
126.187 126.449 126.763 127.046 127.39 124.99 125.05 125.075 125.001 
124.975 124.843 124.851 124.807 124.91 125.047 125.267 125.564 125.87 
126.204 126.521 126.817 127.108 127.396 127.664 128.308 128.236 128.106 
127.793 128.253 128.035 127.687 127.575 127.219 128.503 128.128 127.68 
127.458 127.076 126.949 126.531 128.882 128.478 127.988 127.565 127.08 
126.813 126.384 126.228 125.781 129.031 128.802 128.369 127.959 127.394 
126.938 126.383 126.095 125.638 125.479 125.088 128.957 128.815 128.425 
128.208 127.663 127.259 126.603 126.183 125.643 125.385 125.049 124.91 
124.739 129.052 128.783 128.392 128.176 127.699 127.403 126.814 126.419 
125.89 125.534 125.225 124.997 124.903 124.783 124.827 129.388 129.023 
128.653 128.291 127.882 127.506 127.065 126.669 126.292 125.909 125.659 
125.332 125.197 124.996 124.967 124.917 124.962 129.728 129.401 129.072 
128.691 128.343 127.897 127.549 127.092 126.828 126.424 126.239 125.858 
125.648 125.314 125.101 124.954 124.842 124.898 124.875 136.175 135.696 
135.794 135.471 135.16 135.342 135.109 135.14 134.81 134.508 134.797 
134.665 134.796 134.479 134.463 134.054 133.742 134.08 133.965 134.261 
133.978 134.067 133.592 133.595 133.134 132.954 133.255 133.052 133.423 
133.14 133.398 132.926 133.032 132.531 132.631 132.24 132.168 132.421 
132.109 132.439 132.109 132.438 132.005 132.234 131.75 131.942 131.527 
131.725 131.354 131.382 131.598 131.213 131.471 131.094 131.402 131.02 
131.294 130.872 131.099 130.674 130.911 130.497 130.742 130.335 130.673 
130.827 130.42 130.59 130.192 130.437 130.117 130.392 130.078 130.284 
129.897 130.061 129.639 129.839 129.444 129.695 129.368 130.102 130.191 
129.804 129.879 129.492 129.635 129.369 129.606 129.411 129.608 129.308 
129.392 128.989 129.073 128.711 128.882 128.625 128.859 128.672 136.543 
136.734 136.44 135.973 136.696 136.505 136.027 135.789 135.329 136.635 
136.442 135.996 135.773 135.289 135.083 134.625 136.643 136.433 135.988 
135.745 135.262 135.03 134.556 134.357 133.902 136.618 136.442 135.981 
135.738 135.218 134.986 134.507 134.31 133.863 133.653 133.193 136.571 
136.401 135.977 135.732 135.208 134.937 134.428 134.231 133.786 133.616 
133.158 132.944 132.452 136.559 136.374 135.979 135.752 135.277 134.978 
134.453 134.175 133.696 133.505 133.051 132.874 132.387 132.178 131.679 
136.51 136.344 135.917 135.736 135.275 135.042 134.526 134.236 133.715 
133.454 132.985 132.774 132.314 132.104 131.633 131.417 130.965 136.389 
136.246 135.798 135.635 135.171 134.992 134.498 134.264 133.737 133.478 
132.992 132.76 132.325 132.09 131.651 131.404 130.976 130.754 130.372 
136.173 135.665 135.803 135.571 135.169 135.299 135.045 135.18 134.943 
134.57 134.766 134.509 134.658 134.37 134.52 134.254 133.822 134.071 
133.8 134.042 133.718 133.897 133.552 133.759 133.476 133.057 133.279 
132.973 133.245 132.924 133.156 132.792 133.01 132.712 132.971 132.747 
132.29 132.504 132.163 132.41 132.091 132.333 132.008 132.235 131.968 
132.227 132.04 132.3 132.11 131.524 131.719 131.356 131.586 131.246 
131.504 131.2 131.461 131.218 131.497 131.313 131.596 131.402 131.656 
131.431 130.876 131.003 130.635 130.793 130.439 130.662 130.376 130.656 
130.44 130.74 130.553 130.847 130.638 130.911 130.678 130.946 130.737 
130.311 130.414 130.051 130.144 129.796 129.933 129.67 129.89 129.719 
129.989 129.839 130.102 129.916 130.159 129.955 130.202 130.025 130.292 
130.15 129.849 128.983 129.49 129.589 128.071 128.594 128.753 129.241 
129.355 127.274 127.72 127.912 128.423 128.636 129.08 129.258 126.702 
127.025 127.195 127.637 127.902 128.39 128.655 129.079 129.32 126.25 
126.531 126.66 127.001 127.215 127.674 127.97 128.463 128.748 129.181 
129.43 125.642 125.997 126.081 126.463 126.63 127.04 127.31 127.781 
128.103 128.578 128.853 129.272 129.496 124.962 125.273 125.329 125.784 
126.014 126.478 126.776 127.197 127.52 127.955 128.27 128.693 128.943 
129.327 129.544 124.634 124.709 124.778 125.087 125.401 125.873 126.259 
126.698 127 127.402 127.678 128.112 128.388 128.797 129.041 129.404 
129.638 124.746 124.637 124.709 124.775 125.054 125.371 125.751 126.168 
126.445 126.839 127.037 127.475 127.722 128.202 128.474 128.904 129.155 
129.525 129.769 129.834 129.504 129.428 128.935 129.23 129.095 128.584 
128.5 128.025 129.024 128.865 128.371 128.225 127.753 127.636 127.238 
128.735 128.631 128.135 128.034 127.539 127.403 126.942 126.892 126.607 
128.444 128.314 127.808 127.733 127.193 127.1 126.538 126.516 126.151 
126.291 126.105 128.381 128.131 127.661 127.467 126.955 126.756 126.173 
126.049 125.637 125.761 125.592 125.796 125.587 128.44 128.155 127.689 
127.444 127.002 126.707 126.199 125.865 125.439 125.334 125.181 125.315 
125.214 125.281 125.026 128.431 128.162 127.629 127.441 127.026 126.833 
126.425 126.088 125.657 125.342 125.093 125.036 124.973 125.017 124.914 
124.855 124.715 128.423 128.113 127.554 127.338 126.95 126.826 126.535 
126.329 125.98 125.646 125.315 125.077 124.932 124.886 124.864 124.849 
124.838 124.763 124.79 130.307 130.956 130.441 130.044 131.719 131.149 
130.8 130.21 129.805 132.661 131.99 131.647 131.028 130.654 130.022 
129.606 133.736 132.994 132.574 131.898 131.514 130.89 130.455 129.804 
129.326 134.779 134.071 133.607 132.852 132.389 131.727 131.281 130.634 
130.124 129.467 129.006 135.678 135.057 134.643 133.902 133.419 132.661 
132.186 131.468 130.971 130.274 129.812 129.201 128.889 136.457 135.9 
135.505 134.87 134.423 133.713 133.247 132.478 131.985 131.195 130.741 
130.055 129.749 129.193 128.97 137.098 136.617 136.186 135.632 135.155 
134.581 134.133 133.51 133.051 132.295 131.817 131.053 130.704 130.086 
129.859 129.3 129.038 137.514 137.149 136.709 136.227 135.705 135.187 
134.722 134.242 133.855 133.288 132.849 132.134 131.703 131.037 130.748 
130.188 129.943 129.353 129.055 137.526 137.208 137.189 136.737 136.843 
136.826 136.373 136.303 135.753 136.562 136.493 136.077 135.974 135.475 
135.324 134.81 136.343 136.251 135.874 135.769 135.363 135.172 134.706 
134.496 134.02 136.102 136.011 135.602 135.557 135.181 135.091 134.63 
134.436 133.883 133.677 133.073 135.857 135.749 135.279 135.223 134.776 
134.778 134.262 134.204 133.552 133.425 132.736 132.59 131.935 135.603 
135.499 135.012 134.9 134.392 134.323 133.761 133.698 133.035 132.947 
132.273 132.189 131.6 131.492 130.97 135.316 135.229 134.751 134.638 
134.137 134.003 133.46 133.288 132.683 132.494 131.907 131.774 131.283 
131.194 130.75 130.635 130.167 135.038 134.945 134.48 134.374 133.907 
133.784 133.303 133.114 132.581 132.323 131.786 131.559 131.102 130.959 
130.543 130.423 129.953 129.812 129.29 134.751 134.13 134.356 134.178 
133.455 133.714 133.529 133.767 133.603 132.648 132.985 132.81 133.095 
132.918 133.188 133.011 131.734 132.104 131.927 132.295 132.108 132.446 
132.244 132.539 132.298 130.91 131.208 131.016 131.365 131.18 131.555 
131.346 131.697 131.456 131.761 131.507 130.177 130.44 130.242 130.521 
130.344 130.654 130.457 130.774 130.542 130.872 130.653 130.982 130.803 
129.374 129.668 129.447 129.758 129.575 129.882 129.694 129.958 129.721 
129.987 129.761 130.096 129.93 130.308 130.19 128.591 128.832 128.572 
128.893 128.688 129.06 128.872 129.199 128.97 129.227 128.984 129.251 
129.043 129.386 129.223 129.649 129.531 128.004 128.129 127.857 128.058 
127.832 128.141 127.94 128.3 128.09 128.433 128.232 128.526 128.326 
128.576 128.358 128.662 128.482 128.925 128.824 128.275 127.942 127.837 
127.425 127.91 127.675 127.272 127.128 126.868 127.922 127.724 127.348 
127.132 126.82 126.7 126.493 127.727 127.616 127.191 127.121 126.758 
126.674 126.351 126.289 125.984 127.481 127.319 126.776 126.758 126.369 
126.439 126.123 126.12 125.772 125.698 125.364 127.377 127.129 126.562 
126.372 125.95 125.965 125.746 125.834 125.618 125.56 125.28 125.158 
124.964 127.387 127.133 126.681 126.358 125.927 125.709 125.466 125.488 
125.4 125.442 125.302 125.198 125.044 124.932 124.878 127.489 127.246 
126.92 126.609 126.233 125.873 125.532 125.343 125.19 125.225 125.171 
125.205 125.13 125.072 125.023 124.941 124.916 127.662 127.42 127.133 
126.876 126.554 126.222 125.854 125.524 125.244 125.099 124.986 125.023 
124.991 125.064 125.055 125.073 125.066 124.991 124.94 140.144 140.049 
140.221 140.491 139.77 140.06 140.373 140.631 140.854 139.296 139.69 
140.043 140.435 140.701 140.862 140.773 138.782 139.183 139.505 139.971 
140.202 140.541 140.469 140.541 140.312 138.241 138.644 138.841 139.3 
139.394 139.83 139.722 140.023 139.833 140.05 140.01 137.563 137.995 
138.067 138.511 138.478 138.902 138.753 139.138 138.974 139.368 139.318 
139.743 139.755 136.818 137.222 137.237 137.65 137.596 137.98 137.859 
138.208 138.074 138.454 138.376 138.845 138.801 139.286 139.163 136.115 
136.467 136.46 136.826 136.787 137.144 137.07 137.401 137.298 137.621 
137.515 137.889 137.807 138.25 138.168 138.597 138.462 135.439 135.765 
135.735 136.078 136.033 136.376 136.304 136.641 136.547 136.873 136.76 
137.079 136.974 137.328 137.266 137.663 137.622 137.992 137.914 140.221 
140.613 140.42 140.421 140.876 140.775 140.698 140.538 140.365 140.651 
140.761 140.546 140.584 140.313 140.254 139.933 140.275 140.38 140.182 
140.237 139.957 139.994 139.668 139.666 139.36 140.227 140.23 140.246 
140.093 139.985 139.793 139.567 139.404 139.106 139.064 138.811 140.096 
140.3 140.437 140.381 140.369 140.127 139.973 139.604 139.274 138.937 
138.582 138.497 138.25 139.48 139.943 140.042 140.331 140.235 140.33 
140.093 139.978 139.573 139.237 138.726 138.407 138.025 137.954 137.742 
138.73 139.182 139.274 139.671 139.569 139.844 139.568 139.722 139.319 
139.284 138.756 138.533 138.024 137.835 137.513 137.492 137.292 138.145 
138.491 138.601 138.932 138.922 139.162 138.98 139.112 138.79 138.843 
138.429 138.376 137.907 137.778 137.368 137.293 137.005 137.026 136.783 
140.09 140.217 140.086 139.984 140.136 140.105 139.932 139.943 139.918 
139.762 139.854 139.604 139.714 139.65 139.844 139.855 139.315 139.449 
139.201 139.264 139.119 139.396 139.475 139.741 139.666 138.874 139.081 
138.956 138.942 138.728 138.843 138.893 139.248 139.344 139.495 139.258 
138.33 138.639 138.624 138.733 138.523 138.533 138.416 138.661 138.75 
139.077 139.03 139.059 138.736 137.778 138.07 138.05 138.295 138.122 
138.242 138.017 138.182 138.085 138.407 138.369 138.663 138.495 138.539 
138.218 137.292 137.528 137.452 137.683 137.516 137.711 137.506 137.693 
137.517 137.744 137.604 137.906 137.777 138.072 137.869 137.973 137.639 
136.764 137.006 136.895 137.105 136.934 137.115 136.936 137.132 136.985 
137.182 137.016 137.211 137.04 137.304 137.154 137.425 137.197 137.307 
136.947 130.591 131.168 130.986 131.218 131.843 131.615 131.893 131.677 
131.985 132.646 132.395 132.736 132.461 132.838 132.577 132.982 133.431 
133.234 133.634 133.387 133.787 133.512 133.944 133.675 134.097 134.167 
133.999 134.425 134.257 134.662 134.439 134.827 134.607 135.014 134.772 
135.121 134.876 134.722 135.139 135.01 135.448 135.268 135.675 135.458 
135.876 135.652 136.038 135.748 136.028 135.469 135.372 135.767 135.688 
136.142 136.03 136.494 136.319 136.795 136.57 137.017 136.708 137.034 
136.643 136.851 135.961 135.895 136.27 136.24 136.673 136.655 137.112 
137.062 137.524 137.432 137.867 137.676 137.984 137.65 137.816 137.407 
137.495 136.432 136.358 136.689 136.668 137.059 137.095 137.534 137.57 
137.996 138 138.38 138.339 138.617 138.453 138.576 138.272 138.287 
137.918 137.886 
POINT_DATA 1002
SCALARS Distance double
LOOKUP_TABLE default
134.542 135.131 135.246 134.613 135.207 133.906 134.483 135.018 133.875 
133.17 134.238 134.859 133.645 133.01 132.278 134.082 134.773 133.388 
132.75 132.084 131.385 133.998 134.65 133.246 132.555 131.894 131.246 
130.648 133.927 134.542 133.175 132.462 131.781 131.074 130.47 129.909 
133.929 134.519 133.185 132.434 131.758 130.978 130.238 129.669 129.094 
133.935 134.492 133.253 132.472 131.768 131.017 130.167 129.486 128.951 
128.399 133.843 134.395 133.243 132.519 131.776 131.06 130.247 129.467 
128.884 128.387 127.906 135.788 135.862 136.449 136.497 137.161 135.776 
137.182 137.866 136.417 135.622 137.798 138.403 137.109 136.319 135.521 
138.349 138.869 137.764 137.018 136.186 135.378 139.044 139.415 138.5 
137.677 136.816 135.974 135.192 139.694 139.846 139.277 138.331 137.375 
136.632 135.855 135.115 139.955 140.016 139.714 138.851 137.833 137.195 
136.607 135.842 135.109 139.946 140.056 139.778 139.151 138.268 137.651 
137.18 136.526 135.771 135.056 139.972 139.84 139.941 139.796 139.966 
139.477 139.812 139.883 139.425 138.844 139.492 139.492 139.45 139.026 
138.269 138.731 138.91 138.912 139.028 138.464 137.699 138.045 138.406 
138.02 138.36 138.177 137.477 136.939 137.625 137.935 137.392 137.572 
137.574 137.039 136.508 136.169 137.148 137.314 136.939 136.986 137.014 
136.651 136.163 135.807 135.453 136.493 136.589 136.38 136.425 136.449 
136.177 135.77 135.436 135.089 134.71 133.862 134.146 133.248 134.516 
133.518 132.641 134.825 133.847 132.917 132.001 135.141 134.116 133.221 
132.261 131.274 135.577 134.491 133.505 132.554 131.515 130.621 135.824 
134.948 133.889 132.85 131.825 130.879 130.104 135.76 135.103 134.208 
133.159 132.163 131.209 130.329 129.556 135.724 135.05 134.311 133.38 
132.467 131.59 130.619 129.706 128.976 135.834 135.133 134.457 133.612 
132.711 131.907 130.987 129.946 129.09 128.508 133.251 132.591 132.601 
131.91 131.896 131.848 131.166 131.159 131.124 131.076 130.433 130.389 
130.365 130.291 130.263 129.818 129.623 129.533 129.424 129.361 129.405 
129.23 128.888 128.677 128.533 128.407 128.48 128.698 128.646 128.231 
127.937 127.81 127.635 127.562 127.817 128.165 128.203 127.763 127.387 
127.277 127.183 126.96 126.987 127.355 127.713 127.998 127.603 127.48 
126.956 126.835 127.076 126.188 126.09 126.358 126.775 125.391 125.33 
125.558 126.111 126.757 124.732 124.751 124.851 125.387 126.134 126.616 
124.479 124.671 124.452 124.843 125.537 126.085 126.459 124.73 124.926 
124.506 124.604 125.1 125.683 126.16 126.684 125.051 125.019 124.86 
124.7 124.84 125.293 125.898 126.505 127.103 125.081 124.872 125.095 
124.971 124.883 125.01 125.502 126.213 126.847 127.375 128.419 127.904 
128.388 127.816 128.556 127.344 128.012 128.941 127.214 126.67 128.484 
129.222 127.471 126.557 125.926 128.701 129.173 127.925 126.79 125.806 
125.184 128.574 129.127 128.001 127.066 125.956 125.168 124.796 128.651 
129.379 127.953 127.143 126.237 125.48 125.03 124.885 129.039 129.747 
128.272 127.424 126.629 126.013 125.488 125.075 124.942 129.417 130.02 
128.762 127.997 127.225 126.631 126.075 125.382 124.848 124.737 136.101 
135.446 135.541 135.042 134.9 134.842 134.452 134.174 134.505 134.093 
133.616 133.437 133.828 133.604 133.081 132.712 132.714 132.828 132.765 
132.412 132.102 131.839 131.952 131.777 131.724 131.527 131.312 131.167 
131.003 131.193 130.798 130.707 130.632 130.457 130.253 130.073 130.286 
130.539 129.971 129.808 129.84 129.763 129.473 129.191 129.069 136.941 
136.279 136.983 136.253 136.854 135.549 136.219 136.832 135.518 134.803 
136.248 136.85 135.499 134.771 134.096 136.229 136.775 135.466 134.689 
134.065 133.429 136.199 136.74 135.504 134.656 133.94 133.355 132.691 
136.183 136.754 135.555 134.775 133.93 133.222 132.578 131.894 136.097 
136.681 135.472 134.799 134.005 133.213 132.523 131.841 131.165 135.961 
136.526 135.337 134.706 133.989 133.219 132.547 131.906 131.206 130.558 