# vtk DataFile Version 4.0
vtk output
ASCII
DATASET POLYDATA
POINTS 1002 float
-79.5599 -101.28 54.9598 -79.7537 -101.778 55.3812 -80.0932 -101.396 55.3414 
-79.8845 -100.956 54.7198 -80.3885 -100.892 55.2033 -79.2743 -100.787 54.3031 
-80.2538 -100.627 54.2702 -80.8366 -100.6 54.7566 -79.6199 -100.623 53.7596 
-79.0198 -100.37 53.3989 -80.8327 -100.462 53.6185 -81.5522 -100.645 54.0051 
-80.0498 -100.34 53.201 -79.3992 -100.273 52.7692 -78.8549 -100.02 52.4409 
-81.5791 -100.444 52.892 -82.2045 -100.515 53.3208 -80.6948 -100.075 52.6442 
-79.8853 -99.9555 52.2899 -79.2604 -99.9402 51.8268 -78.6218 -99.7761 51.4113 
-82.1198 -100.176 52.3304 -82.4886 -99.911 52.9163 -81.4307 -99.9948 51.9746 
-80.5906 -99.7417 51.6837 -79.8203 -99.7695 51.174 -79.0568 -99.7484 50.6737 
-78.2652 -99.6114 50.2815 -82.3397 -99.5622 51.9664 -82.6592 -99.2908 52.5583 
-81.9221 -99.7943 51.3318 -81.2829 -99.7665 50.8679 -80.5203 -99.7154 50.3665 
-79.6683 -99.6736 49.8702 -78.7712 -99.5143 49.5826 -77.9851 -99.3718 49.3305 
-82.5022 -98.9776 51.6269 -82.937 -98.9329 52.1081 -82.1837 -99.2819 50.8801 
-81.7361 -99.5724 50.1984 -81.0645 -99.5996 49.7186 -80.2488 -99.4579 49.3066 
-79.3731 -99.2514 49.0538 -78.5569 -99.0689 48.9112 -77.865 -98.9777 48.6988 
-82.6853 -98.5525 51.29 -83.184 -98.5978 51.691 -82.3864 -98.7055 50.606 
-82.0658 -99.0264 49.8431 -81.4509 -99.1491 49.3838 -80.6276 -98.9844 49.1317 
-79.8159 -98.7707 48.8718 -79.0995 -98.621 48.6412 -78.4407 -98.5366 48.424 
-77.7909 -98.4972 48.2129 -82.8109 -98.1117 51.0402 -83.3015 -98.1178 51.3896 
-82.5103 -98.1774 50.4808 -82.2787 -98.3903 49.7479 -81.7742 -98.5113 49.2311 
-80.9554 -98.3594 49.0455 -80.1222 -98.1682 48.8387 -79.4729 -98.1134 48.4817 
-78.9291 -98.0982 48.1326 -78.3365 -98.0667 47.8766 -77.6769 -98.0391 47.7356 
-80.1332 -102.018 55.7826 -80.4785 -101.521 55.7789 -80.5877 -102.147 56.3448 
-80.9075 -101.588 56.321 -81.0814 -102.122 57.1156 -80.7472 -100.88 55.7298 
-81.3147 -101.568 57.0136 -81.4052 -101.937 57.9235 -81.1276 -100.901 56.2684 
-81.2724 -100.611 55.2854 -81.5898 -101.351 57.7358 -81.6071 -101.622 58.5851 
-81.5336 -100.88 56.8545 -81.7068 -100.558 55.8101 -82.0404 -100.566 54.5386 
-81.9034 -100.975 58.304 -81.9638 -101.331 59.1006 -81.9592 -100.673 57.4098 
-82.167 -100.428 56.3306 -82.4086 -100.259 55.1263 -82.5297 -100.126 53.9296 
-82.4291 -100.769 58.6632 -82.4233 -101.179 59.483 -82.5038 -100.444 57.766 
-82.678 -100.266 56.7686 -82.7998 -100.054 55.6636 -82.8093 -99.7685 54.4945 
-82.7734 -99.5226 53.4329 -83.0544 -100.74 58.9776 -82.8331 -100.933 59.777 
-83.1835 -100.458 57.9917 -83.2806 -100.203 57.0318 -83.3157 -99.9708 56.1022 
-83.265 -99.6936 54.9877 -83.2464 -99.4409 53.802 -83.1775 -99.2108 52.8461 
-83.6137 -100.494 59.3607 -83.1987 -100.417 60.0074 -83.8391 -100.454 58.3575 
-83.9077 -100.227 57.2844 -83.9031 -99.8863 56.4061 -83.8031 -99.5676 55.4627 
-83.7542 -99.344 54.2706 -83.783 -99.1726 53.1412 -83.6002 -98.9295 52.3091 
-83.9477 -99.9837 59.6089 -83.4446 -99.8378 60.0563 -84.2462 -100.112 58.7753 
-84.3484 -100.056 57.6758 -84.3994 -99.7518 56.6862 -84.2979 -99.3552 55.8145 
-84.0715 -99.0371 54.7955 -84.039 -98.8301 53.6766 -84.0657 -98.6563 52.6871 
-83.7908 -98.4206 51.9325 -83.8031 -99.4292 59.6406 -84.2247 -99.5186 59.101 
-83.855 -99.0046 58.9463 -84.1285 -98.9466 58.2853 -83.8225 -98.4181 58.1961 
-84.4138 -99.5704 58.1743 -84.0447 -98.26 57.4456 -83.9742 -97.7008 57.5797 
-84.379 -98.8615 57.3898 -84.6021 -99.4406 57.1014 -84.1496 -97.5516 56.7398 
-84.0735 -97.0191 56.9231 -84.4734 -98.0978 56.6336 -84.8184 -98.6974 56.4364 
-84.7149 -99.1244 56.1118 -84.1068 -96.8884 55.9771 -83.9429 -96.3746 56.1523 
-84.5155 -97.3197 55.8748 -84.9781 -97.884 55.7012 -84.8528 -98.4409 55.3835 
-84.3897 -98.7453 55.1061 -83.951 -96.2362 55.1967 -83.867 -95.6666 55.5111 
-84.2523 -96.5915 54.9866 -84.8516 -96.9592 54.827 -84.8889 -97.6068 54.5303 
-84.3283 -98.0846 54.279 -84.0471 -98.3911 54.0548 -83.9848 -95.4997 54.6476 
-83.8901 -94.9327 55.0503 -84.0366 -95.951 54.2124 -84.5206 -96.1516 53.93 
-84.9012 -96.6329 53.6518 -84.5336 -97.2986 53.4062 -84.0945 -97.7006 53.2792 
-84.0937 -98.1213 53.0354 -84.0417 -94.7056 54.2708 -83.7473 -94.3303 54.5962 
-84.0759 -95.2286 53.7463 -84.3144 -95.5241 53.2904 -84.783 -95.8074 52.9647 
-84.8086 -96.4217 52.6773 -84.3944 -97 52.4986 -84.148 -97.4061 52.3567 
-84.0562 -97.9163 52.128 -83.8336 -94.0738 53.8552 -83.3703 -93.9687 54.0682 
-84.0547 -94.4401 53.4092 -84.2451 -94.8406 52.8869 -84.5807 -95.1327 52.4947 
-84.7279 -95.5738 52.2102 -84.465 -96.1945 51.9616 -84.1288 -96.7153 51.763 
-83.9088 -97.1763 51.5937 -83.6519 -97.6876 51.4583 -83.0301 -97.5331 50.9812 
-83.3287 -97.0322 51.0517 -82.7923 -96.8401 50.6321 -83.5628 -96.4972 51.1795 
-83.0172 -96.2876 50.735 -82.58 -96.1344 50.1821 -83.7963 -95.9287 51.3703 
-83.1866 -95.6967 50.8543 -82.797 -95.6135 50.2527 -82.3065 -95.6176 49.469 
-84.1903 -95.2936 51.5513 -83.4992 -95.0292 50.9069 -83.0385 -95.0187 50.2491 
-82.5406 -95.1726 49.4936 -81.9072 -95.2336 48.7112 -84.4805 -94.7694 51.7238 
-84.0312 -94.4571 50.8549 -83.5035 -94.3806 50.0615 -82.8418 -94.5663 49.4408 
-82.027 -94.694 48.814 -81.4562 -94.637 48.0996 -84.3245 -94.4201 52.0477 
-84.2002 -94.1209 51.0084 -83.8509 -93.9849 49.9677 -83.1792 -93.9751 49.3024 
-82.2223 -93.9817 48.8672 -81.4774 -93.9059 48.2385 -81.1431 -93.8204 47.4718 
-83.9629 -94.068 52.5757 -83.7795 -93.8446 51.5577 -83.5168 -93.789 50.424 
-83.0746 -93.6653 49.5088 -82.346 -93.385 48.9431 -81.6274 -93.1463 48.3443 
-81.224 -93.0457 47.5694 -80.9535 -93.0477 46.919 -83.626 -93.7855 53.082 
-83.2716 -93.6095 52.1829 -82.8818 -93.5773 51.1975 -82.5446 -93.4604 50.2098 
-82.1744 -93.0314 49.3518 -81.7378 -92.5466 48.5715 -81.3697 -92.3438 47.7591 
-81.0556 -92.345 47.0734 -80.6664 -92.3885 46.666 -83.1946 -93.7405 53.3744 
-82.8736 -93.5658 52.5773 -82.4791 -93.4194 51.7674 -82.1556 -93.1981 50.9369 
-81.9468 -92.7418 50.0173 -81.7414 -92.1427 49.0611 -81.4632 -91.7776 48.1654 
-81.11 -91.7457 47.4217 -80.6818 -91.8045 46.9093 -80.2187 -91.8326 46.5861 
-82.627 -97.554 50.5787 -82.4099 -96.8634 50.1277 -82.3584 -97.6718 49.9356 
-82.0729 -96.1779 49.5083 -81.9671 -96.9829 49.4306 -81.9636 -97.8091 49.265 
-81.7085 -95.6911 48.719 -81.465 -96.315 48.8064 -81.3645 -97.0538 48.8366 
-81.2437 -97.7267 48.9078 -81.4168 -95.2286 47.9851 -81.1999 -95.8298 48.0577 
-80.903 -96.4338 48.2229 -80.6653 -96.9865 48.4164 -80.3964 -97.5507 48.6681 
-81.1256 -94.5339 47.3116 -81.0298 -95.2963 47.2796 -80.7309 -95.9646 47.415 
-80.3592 -96.4975 47.6315 -80.0205 -97.0214 47.9102 -79.7179 -97.5767 48.2301 
-80.8103 -93.7403 46.7484 -80.6664 -94.5874 46.6294 -80.4499 -95.3907 46.6405 
-80.1387 -96.0287 46.8093 -79.8086 -96.6297 47.0539 -79.4961 -97.215 47.3566 
-79.208 -97.6864 47.7412 -80.4616 -92.9884 46.4925 -80.2251 -93.8221 46.3321 
-80.0077 -94.7039 46.2023 -79.7863 -95.4394 46.2217 -79.5233 -96.1217 46.4091 
-79.2376 -96.8041 46.6584 -78.9468 -97.3263 46.9763 -78.6492 -97.6949 47.4132 
-80.0407 -92.2872 46.4066 -79.8192 -93.0389 46.2605 -79.607 -93.9634 46.091 
-79.4108 -94.8006 45.9563 -79.1543 -95.5361 45.9855 -78.8355 -96.2721 46.184 
-78.526 -96.8904 46.4577 -78.2399 -97.3073 46.8111 -77.9567 -97.6537 47.2695 
-79.6077 -91.5605 46.297 -79.4351 -92.0775 46.1129 -79.0089 -91.3867 45.8725 
-78.7969 -91.9954 45.7114 -78.3638 -91.3849 45.6426 -79.236 -92.9654 45.9939 
-77.9866 -92.0714 45.5961 -77.5295 -91.5145 45.8263 -78.5112 -92.9678 45.7045 
-79.0211 -93.9737 45.859 -77.0227 -92.2449 45.8615 -76.6065 -91.7171 46.0754 
-77.5228 -93.0536 45.6995 -78.1502 -94.0099 45.6598 -78.7233 -94.8671 45.7438 
-76.1874 -92.4784 46.1115 -75.8712 -91.97 46.3127 -76.5573 -93.2166 45.8876 
-77.0752 -94.0748 45.6756 -77.7068 -94.9431 45.621 -78.3131 -95.6905 45.8212 
-75.5926 -92.7663 46.4072 -75.3792 -92.2683 46.8659 -75.8518 -93.443 46.0348 
-76.2382 -94.1719 45.8447 -76.7204 -94.9492 45.7823 -77.2817 -95.7593 45.8564 
-77.9192 -96.4192 46.1119 -75.0919 -93.1111 46.9416 -74.9012 -92.6436 47.4914 
-75.2749 -93.6987 46.3806 -75.6237 -94.3191 46.1384 -76.0615 -94.956 46.1673 
-76.4748 -95.7122 46.1946 -76.974 -96.4391 46.2659 -77.6164 -96.9498 46.4788 
-74.5356 -93.4793 47.4275 -74.2887 -93.0638 47.8012 -74.7373 -93.9553 46.976 
-75.0464 -94.5046 46.6895 -75.4901 -95.0889 46.6455 -75.9052 -95.742 46.6212 
-76.2697 -96.434 46.5802 -76.7451 -96.9811 46.6765 -77.3611 -97.3526 46.9177 
-73.9354 -93.7789 47.728 -73.6583 -93.4166 47.9495 -74.2309 -94.1689 47.5268 
-74.5468 -94.6731 47.3557 -74.9224 -95.2859 47.2092 -75.3382 -95.9013 47.0404 
-75.721 -96.4849 46.9174 -76.0888 -97.0068 46.9768 -76.5553 -97.4171 47.1769 
-77.1282 -97.7469 47.4271 -79.9777 -91.3965 46.7277 -79.3283 -91.1799 46.3662 
-79.7426 -91.0903 47.0567 -79.0693 -90.9393 46.7926 -79.5591 -90.7874 47.6459 
-78.7194 -91.0555 46.0637 -78.7879 -90.5855 47.5656 -79.296 -90.4688 48.3431 
-78.3723 -90.7812 46.8123 -78.0153 -91.0421 46.1445 -78.4053 -90.2538 48.245 
-78.8911 -90.3925 48.9341 -77.9164 -90.3651 47.6981 -77.5436 -90.6812 47.042 
-77.0998 -91.1502 46.3362 -78.0166 -90.3326 48.7373 -78.505 -90.5939 49.5697 
-77.4462 -90.1751 48.1803 -77.0259 -90.3187 47.7582 -76.6118 -90.8213 46.9733 
-76.1705 -91.3958 46.3459 -77.6977 -90.5889 49.5431 -78.1922 -90.7697 50.4214 
-77.0555 -90.3955 48.6961 -76.5784 -90.3069 48.2516 -76.2027 -90.6086 47.6943 
-75.7629 -91.1678 46.9223 -75.4967 -91.6802 46.6999 -77.3746 -90.6898 50.6058 
-77.8679 -90.9013 51.2113 -76.7084 -90.5798 49.748 -76.1631 -90.5488 49.0574 
-75.8354 -90.6675 48.5827 -75.4242 -91.026 47.8934 -75.0778 -91.4617 47.4069 
-74.9914 -91.9674 47.4451 -77.0394 -90.8473 51.3817 -77.5376 -91.1388 51.758 
-76.4232 -90.6776 50.8222 -75.8382 -90.7356 50.1184 -75.4672 -90.8866 49.5294 
-75.0911 -91.0641 48.8902 -74.6466 -91.3207 48.2234 -74.442 -91.7275 47.9554 
-74.4062 -92.3513 47.9317 -76.747 -91.159 51.8825 -77.251 -91.3821 52.28 
-76.2235 -90.9476 51.4928 -75.6844 -90.9387 50.9708 -75.2183 -91.0865 50.3848 
[...]
CELL_DATA 2000
SCALARS Distance double
LOOKUP_TABLE default
139.42 139.256 139.16 138.722 139.063 138.962 138.563 138.419 137.942 
139.06 138.84 138.426 138.25 137.809 137.645 137.184 139.168 138.927 
138.452 138.17 137.697 137.511 137.089 136.927 136.486 139.009 138.955 
138.511 138.248 137.736 137.466 137.039 136.848 136.437 136.238 135.775 
138.562 138.638 138.302 138.228 137.784 137.555 137.112 136.866 136.447 
136.209 135.75 135.515 135.053 138.168 138.182 137.877 137.921 137.588 
137.525 137.113 136.93 136.464 136.228 135.734 135.494 135.016 134.811 
134.399 137.894 137.84 137.491 137.515 137.222 137.251 136.893 136.819 
136.331 136.16 135.613 135.424 134.917 134.749 134.319 134.174 133.803 
137.575 137.542 137.159 137.162 136.854 136.891 136.557 136.53 136.055 
135.93 135.367 135.221 134.706 134.592 134.168 134.062 133.688 133.574 
133.223 139.814 140.348 139.942 139.644 140.899 140.463 140.109 139.696 
139.409 141.381 140.988 140.593 140.149 139.849 139.522 139.396 141.659 
141.377 141.007 140.615 140.289 139.967 139.836 139.592 139.497 141.83 
141.577 141.26 140.971 140.675 140.385 140.179 139.952 139.765 139.554 
139.279 142.107 141.797 141.509 141.226 141 140.739 140.523 140.252 
139.981 139.721 139.4 139.169 138.823 142.43 142.16 141.933 141.592 
141.403 141.095 140.919 140.609 140.354 139.997 139.699 139.362 139.093 
138.784 138.51 142.577 142.482 142.37 142.091 141.907 141.561 141.355 
141.022 140.768 140.411 140.111 139.757 139.5 139.173 138.934 138.58 
138.292 142.459 142.548 142.511 142.427 142.239 141.998 141.72 141.423 
141.101 140.779 140.403 140.092 139.735 139.498 139.197 138.961 138.634 
138.319 137.954 142.296 141.905 142.241 142.367 141.212 141.67 141.805 
142.166 142.121 140.457 140.872 140.975 141.451 141.499 141.809 141.649 
139.773 140.124 140.188 140.624 140.744 141.143 141.101 141.296 141.045 
139.004 139.396 139.413 139.854 139.958 140.412 140.402 140.691 140.442 
140.601 140.281 138.177 138.569 138.526 138.979 138.994 139.532 139.497 
139.913 139.644 139.884 139.539 139.777 139.542 137.453 137.784 137.713 
138.063 137.993 138.47 138.438 138.926 138.757 139.059 138.76 139.001 
138.803 139.107 138.999 136.781 137.104 137.038 137.316 137.212 137.539 
137.496 137.918 137.879 138.229 138.065 138.294 138.108 138.377 138.275 
138.593 138.464 136.083 136.415 136.347 136.647 136.54 136.827 136.747 
137.09 137.048 137.415 137.313 137.612 137.427 137.695 137.524 137.836 
137.69 138 137.804 137.325 137.202 137.033 136.559 137.047 136.871 
136.376 136.233 135.764 136.915 136.705 136.163 136.01 135.533 135.43 
134.973 136.784 136.571 135.972 135.774 135.268 135.181 134.76 134.656 
134.198 136.59 136.428 135.857 135.614 135.077 134.929 134.506 134.424 
133.967 133.845 133.33 136.337 136.221 135.722 135.521 134.991 134.791 
134.313 134.176 133.675 133.548 132.969 132.874 132.327 136.1 135.976 
135.482 135.344 134.829 134.678 134.155 133.991 133.417 133.237 132.61 
132.468 131.888 131.843 131.377 135.897 135.756 135.247 135.097 134.587 
134.456 133.945 133.795 133.211 132.997 132.348 132.14 131.553 131.443 
130.986 130.965 130.589 135.675 135.556 135.078 134.909 134.422 134.25 
133.768 133.594 133.062 132.829 132.217 131.95 131.367 131.179 130.724 
130.641 130.272 130.241 129.891 137.205 136.482 136.836 136.823 135.702 
136.095 136.119 136.494 136.521 134.869 135.263 135.249 135.712 135.742 
136.177 136.176 134.058 134.41 134.325 134.769 134.754 135.264 135.234 
135.711 135.616 133.233 133.607 133.527 133.892 133.847 134.265 134.218 
134.677 134.583 135.045 134.921 132.293 132.742 132.714 133.125 133.094 
133.451 133.391 133.741 133.669 134.052 133.984 134.391 134.322 131.358 
131.79 131.775 132.25 132.238 132.671 132.612 132.975 132.907 133.251 
133.22 133.569 133.549 133.895 133.855 130.55 130.907 130.872 131.308 
131.31 131.765 131.743 132.157 132.12 132.507 132.497 132.866 132.855 
133.189 133.146 133.466 133.404 129.813 130.124 130.056 130.447 130.458 
130.885 130.91 131.314 131.317 131.709 131.716 132.116 132.11 132.48 
132.423 132.755 132.675 133.004 132.937 129.359 128.714 129.2 129.587 
128.145 128.582 129.016 129.535 130.014 127.71 128.067 128.48 128.992 
129.525 130.028 130.497 127.366 127.671 128.021 128.474 128.978 129.517 
130.019 130.495 130.912 127.122 127.363 127.69 128.044 128.472 128.953 
129.435 129.962 130.418 130.891 131.303 127.095 127.213 127.53 127.767 
128.154 128.505 128.944 129.394 129.863 130.361 130.818 131.287 131.694 
127.26 127.292 127.558 127.678 128.028 128.267 128.691 129.016 129.478 
129.875 130.344 130.789 131.217 131.653 132.013 127.395 127.456 127.679 
127.748 128.047 128.207 128.618 128.863 129.321 129.611 130.061 130.396 
130.815 131.191 131.565 131.952 132.282 127.393 127.512 127.736 127.84 
128.124 128.261 128.649 128.846 129.286 129.516 129.934 130.189 130.576 
130.867 131.233 131.556 131.906 132.246 132.572 129.175 128.821 128.813 
128.511 128.646 128.536 128.2 128.183 127.949 128.522 128.395 128.05 
127.965 127.697 127.698 127.537 128.382 128.236 127.852 127.792 127.498 
127.489 127.261 127.309 127.178 128.407 128.141 127.703 127.561 127.237 
127.234 126.99 127.027 126.837 126.94 126.888 128.641 128.289 127.84 
127.521 127.165 127.023 126.816 126.785 126.63 126.646 126.596 126.735 
126.85 128.893 128.57 128.142 127.765 127.387 127.107 126.914 126.764 
126.66 126.557 126.502 126.525 126.629 126.815 127.027 129.096 128.807 
128.417 128.075 127.718 127.408 127.207 126.993 126.882 126.699 126.575 
126.481 126.464 126.589 126.737 126.989 127.16 129.308 129.023 128.683 
128.367 128.067 127.76 127.563 127.32 127.179 126.956 126.77 126.573 
126.43 126.415 126.456 126.652 126.799 127.055 127.171 135.382 134.751 
134.994 134.809 134.038 134.318 134.135 134.383 134.165 133.273 133.543 
133.331 133.643 133.435 133.709 133.484 132.596 132.789 132.528 132.799 
132.582 132.906 132.68 132.985 132.736 131.979 132.153 131.874 132.055 
131.805 132.06 131.833 132.129 131.862 132.164 131.877 131.303 131.504 
131.211 131.408 131.12 131.335 131.078 131.32 131.053 131.299 131.012 
131.289 131.045 130.668 130.818 130.502 130.695 130.387 130.616 130.336 
130.583 130.318 130.547 130.28 130.5 130.277 130.546 130.414 130.153 
130.242 129.932 130.042 129.743 129.896 129.61 129.821 129.564 129.814 
129.58 129.817 129.605 129.846 129.703 130.002 129.943 129.674 129.759 
129.467 129.55 129.265 129.348 129.047 129.157 128.869 129.065 128.846 
129.111 128.932 129.19 129.03 129.303 129.204 129.546 129.525 135.596 
135.705 135.423 134.966 135.875 135.552 135.078 134.774 134.279 136.05 
135.735 135.242 134.909 134.399 134.073 133.562 136.119 135.855 135.351 
135.053 134.528 134.208 133.687 133.367 132.884 136.159 135.889 135.394 
135.12 134.6 134.306 133.76 133.461 132.941 132.684 132.222 136.261 
135.961 135.48 135.184 134.693 134.384 133.838 133.509 132.949 132.68 
132.191 131.99 131.546 136.349 136.068 135.571 135.283 134.794 134.501 
133.979 133.626 133.055 132.708 132.204 131.957 131.547 131.337 130.943 
136.384 136.128 135.61 135.333 134.816 134.564 134.065 133.773 133.232 
132.867 132.338 132.023 131.603 131.374 131.008 130.787 130.423 136.393 
136.157 135.651 135.36 134.828 134.561 134.077 133.833 133.352 133.043 
132.517 132.177 131.695 131.435 131.037 130.839 130.469 130.273 129.918 
136.237 135.731 135.836 135.486 135.127 135.261 134.888 135.008 134.642 
134.428 134.572 134.173 134.354 134.004 134.171 133.874 133.756 133.837 
133.401 133.593 133.278 133.508 133.235 133.434 133.155 133.268 133.253 
132.832 132.9 132.604 132.791 132.543 132.758 132.46 132.659 132.33 
132.89 132.876 132.518 132.489 132.181 132.228 131.949 132.076 131.749 
131.917 131.565 131.779 131.484 132.445 132.498 132.147 132.181 131.827 
131.856 131.495 131.541 131.156 131.236 130.857 131.018 130.731 130.983 
130.796 131.938 131.996 131.586 131.684 131.284 131.393 130.994 131.068 
130.655 130.697 130.308 130.387 130.091 130.273 130.091 130.361 130.232 
131.464 131.47 131.01 131.067 130.664 130.782 130.435 130.537 130.176 
130.219 129.856 129.902 129.611 129.72 129.52 129.709 129.572 129.825 
129.707 131.067 130.267 130.621 130.558 129.489 129.828 129.796 130.172 
130.22 128.757 129.099 129.149 129.507 129.611 129.949 130.045 128.146 
128.445 128.559 128.92 129.056 129.389 129.447 129.766 129.794 127.803 
127.985 128.087 128.363 128.426 128.757 128.736 129.092 129.059 129.443 
129.461 127.574 127.721 127.725 127.91 127.826 128.067 127.953 128.29 
128.263 128.676 128.753 129.155 129.258 127.257 127.4 127.269 127.448 
127.254 127.448 127.298 127.563 127.585 127.948 128.117 128.508 128.693 
129.041 129.195 127.037 127.049 126.851 126.927 126.723 126.871 126.785 
127.019 127.115 127.417 127.621 127.958 128.165 128.51 128.689 129.026 
129.215 127.098 126.956 126.773 126.656 126.485 126.476 126.462 126.623 
126.789 127.047 127.253 127.525 127.695 127.999 128.173 128.52 128.73 
129.088 129.327 131.251 131.298 131.018 130.48 131.375 131.082 130.57 
130.247 129.696 131.551 131.205 130.74 130.398 129.849 129.47 128.92 
131.84 131.443 130.988 130.631 130.13 129.691 129.065 128.674 128.212 
132.152 131.758 131.283 130.909 130.417 129.994 129.365 128.874 128.288 
128.017 127.77 132.417 132.056 131.577 131.197 130.689 130.282 129.697 
129.201 128.595 128.173 127.806 127.674 127.561 132.635 132.304 131.838 
131.472 130.986 130.583 130.073 129.593 129.068 128.565 128.149 127.813 
127.603 127.483 127.354 132.843 132.524 132.095 131.739 131.314 130.926 
130.504 130.053 129.621 129.115 128.72 128.257 127.974 127.657 127.495 
127.311 127.203 133.093 132.773 132.398 132.039 131.669 131.299 130.941 
130.534 130.157 129.695 129.323 128.854 128.547 128.13 127.925 127.607 
127.51 127.288 127.265 131.735 132.413 131.983 131.778 133.131 132.672 
132.513 132.05 131.862 134.045 133.478 133.369 132.863 132.756 132.218 
132.077 135.147 134.499 134.385 133.821 133.775 133.215 133.11 132.509 
132.38 136.273 135.641 135.511 134.903 134.823 134.26 134.136 133.547 
133.357 132.791 132.644 137.285 136.735 136.628 136.035 135.915 135.311 
135.125 134.514 134.265 133.697 133.49 133.003 132.872 138.187 137.714 
137.65 137.114 137.002 136.396 136.184 135.516 135.234 134.594 134.362 
133.827 133.681 133.213 133.089 139.045 138.625 138.627 138.126 138.039 
137.453 137.24 136.577 136.283 135.608 135.339 134.734 134.541 134.022 
133.868 133.402 133.267 139.845 139.49 139.544 139.102 139.035 138.473 
138.25 137.604 137.296 136.638 136.336 135.713 135.444 134.877 134.643 
134.152 133.976 133.557 133.453 140.273 140.712 140.357 139.984 140.887 
140.66 140.284 139.962 139.456 140.897 140.701 140.286 140.096 139.585 
139.266 138.623 140.844 140.66 140.189 140.011 139.519 139.283 138.662 
138.321 137.641 140.592 140.534 140.06 139.898 139.4 139.199 138.638 
138.337 137.678 137.324 136.677 140.18 140.202 139.789 139.704 139.196 
139.054 138.516 138.3 137.669 137.348 136.665 136.348 135.739 139.908 
139.854 139.497 139.411 138.94 138.81 138.289 138.136 137.553 137.301 
136.614 136.299 135.64 135.396 134.868 139.794 139.682 139.323 139.194 
138.761 138.594 138.101 137.925 137.396 137.177 136.569 136.259 135.628 
135.324 134.806 134.594 134.194 139.612 139.544 139.146 139.038 138.596 
138.449 137.959 137.778 137.256 137.049 136.5 136.24 135.691 135.389 
134.918 134.638 134.27 134.038 133.717 139.315 138.602 138.935 138.835 
137.786 138.143 138.033 138.392 138.261 137.003 137.308 137.154 137.523 
137.396 137.776 137.621 136.287 136.546 136.345 136.649 136.474 136.852 
136.696 137.085 136.901 135.558 135.82 135.609 135.873 135.652 135.948 
135.738 136.107 135.925 136.329 136.136 134.838 135.081 134.884 135.148 
134.946 135.185 134.943 135.201 134.999 135.354 135.215 135.592 135.408 
134.203 134.399 134.203 134.444 134.274 134.511 134.293 134.487 134.256 
134.512 134.388 134.736 134.644 134.938 134.75 133.624 133.799 133.587 
133.795 133.619 133.856 133.667 133.866 133.623 133.82 133.636 133.949 
133.87 134.217 134.101 134.339 134.139 133.047 133.219 132.995 133.188 
132.995 133.218 133.045 133.256 133.039 133.206 132.97 133.202 133.058 
133.413 133.32 133.66 133.503 133.744 133.554 133.157 133.052 132.896 
132.457 132.848 132.738 132.28 132.155 131.726 132.616 132.499 132.063 
131.954 131.527 131.424 131.009 132.563 132.352 131.939 131.766 131.342 
131.212 130.776 130.676 130.232 132.636 132.396 131.978 131.731 131.281 
131.064 130.595 130.436 129.973 129.868 129.421 132.636 132.445 132.009 
131.781 131.307 131.053 130.568 130.327 129.87 129.675 129.254 129.105 
128.7 132.585 132.401 131.964 131.763 131.298 131.069 130.61 130.363 
129.943 129.692 129.301 129.058 128.676 128.467 128.109 132.583 132.367 
131.942 131.723 131.288 131.064 130.644 130.419 130.032 129.804 129.425 
129.174 128.789 128.534 128.181 127.965 127.683 132.642 132.403 131.992 
131.747 131.338 131.098 130.702 130.473 130.092 129.876 129.488 129.266 
128.866 128.641 128.287 128.082 127.814 127.632 127.434 142.374 142.593 
142.479 142.419 142.644 142.712 142.817 142.638 142.595 142.449 142.716 
143.01 143.043 143.097 142.828 142.645 142.13 142.439 142.749 143.053 
143.222 143.234 143.085 142.765 142.485 141.869 142.088 142.222 142.575 
142.746 143.09 143.098 143.082 142.854 142.577 142.389 141.559 141.767 
141.723 141.96 142.002 142.435 142.593 142.913 142.878 142.836 142.636 
142.466 142.293 141.064 141.332 141.218 141.403 141.314 141.676 141.838 
142.322 142.456 142.693 142.544 142.529 142.251 142.184 141.866 140.487 
140.767 140.665 140.849 140.722 141.002 141.092 141.566 141.729 142.136 
142.049 142.22 141.925 141.97 141.627 141.589 141.194 139.932 140.199 
140.129 140.316 140.207 140.429 140.457 140.84 140.952 141.368 141.317 
141.592 141.355 141.517 141.245 141.309 141.003 140.925 140.55 142.159 
142.192 142.038 141.791 142.305 142.121 141.9 141.724 141.466 142.277 
142.17 141.918 141.831 141.606 141.416 141.086 142.128 142.04 141.736 
141.721 141.458 141.429 141.087 140.933 140.505 142.139 141.969 141.667 
141.522 141.186 141.138 140.759 140.736 140.294 140.217 139.758 142.128 
142.051 141.762 141.548 141.123 140.907 140.447 140.348 139.918 139.886 
139.456 139.404 138.968 141.7 141.853 141.531 141.517 141.017 140.837 
140.264 140.09 139.61 139.536 139.136 139.087 138.682 138.615 138.215 
140.982 141.212 140.863 141.029 140.548 140.549 139.959 139.852 139.302 
139.232 138.787 138.764 138.356 138.323 137.928 137.887 137.532 140.299 
140.462 140.122 140.294 139.904 139.992 139.502 139.468 138.923 138.863 
138.362 138.355 137.913 137.937 137.538 137.562 137.213 137.224 136.906 
142.092 141.655 141.835 141.701 141.229 141.351 141.168 141.338 141.083 
140.795 140.888 140.636 140.793 140.589 140.709 140.423 140.274 140.41 
140.12 140.252 140.039 140.219 140.009 140.093 139.775 139.622 139.85 
139.594 139.729 139.45 139.629 139.387 139.587 139.279 139.383 138.989 
138.861 139.162 138.963 139.167 138.868 139.016 138.691 138.882 138.555 
138.75 138.382 138.517 138.141 138.105 138.398 138.222 138.486 138.226 
138.403 138.07 138.21 137.881 138.035 137.718 137.87 137.558 137.694 
137.399 137.434 137.679 137.501 137.751 137.518 137.729 137.43 137.594 
137.294 137.442 137.165 137.288 137.005 137.122 136.844 136.985 136.716 
136.814 137.034 136.839 137.062 136.827 137.034 136.749 136.935 136.645 
136.841 136.585 136.762 136.491 136.61 136.31 136.426 136.145 136.294 
136.027 131.864 132.3 132.232 132.534 132.772 132.685 132.998 132.915 
133.253 133.256 133.19 133.563 133.458 133.873 133.752 134.197 133.75 
133.724 134.192 134.098 134.573 134.454 134.954 134.818 135.314 134.302 
134.281 134.808 134.746 135.2 135.122 135.588 135.539 136.038 135.949 
136.414 134.909 134.863 135.349 135.315 135.708 135.656 136.041 136.051 
136.54 136.575 137.072 136.999 137.407 135.512 135.438 135.828 135.785 
136.135 136.093 136.457 136.458 136.951 137.024 137.585 137.598 138.049 
137.931 138.281 136.072 135.987 136.326 136.242 136.582 136.518 136.913 
136.895 137.399 137.455 138.034 138.092 138.585 138.529 138.88 138.75 
139.076 136.559 136.498 136.836 136.749 137.102 137.02 137.432 137.389 
137.876 137.905 138.45 138.522 139.03 139.034 139.418 139.32 139.634 
139.519 139.844 
POINT_DATA 1002
SCALARS Distance double
LOOKUP_TABLE default
139.029 139.665 139.566 138.886 139.317 138.253 138.685 139.19 138.12 
137.455 138.648 139.345 137.948 137.36 136.739 138.792 139.371 137.918 
137.228 136.682 136.039 138.705 138.953 138.037 137.255 136.637 135.995 
135.294 138.259 138.476 137.943 137.376 136.708 136 135.259 134.61 
137.811 138.218 137.564 137.258 136.708 135.978 135.225 134.566 134.023 
137.493 137.972 137.171 136.933 136.49 135.794 135.069 134.458 133.935 
133.453 137.162 137.59 136.823 136.57 136.169 135.506 134.801 134.251 
133.796 133.335 132.881 140.212 140.048 140.786 140.557 141.357 139.722 
141.052 141.735 140.17 139.657 141.347 141.896 140.623 140.077 139.779 
141.491 142.106 140.945 140.458 140.004 139.516 141.796 142.42 141.243 
140.816 140.298 139.645 139.041 142.266 142.605 141.74 141.229 140.716 
140.052 139.404 138.836 142.577 142.551 142.269 141.715 141.123 140.467 
139.817 139.282 138.687 142.518 142.31 142.439 142.013 141.433 140.75 
139.993 139.397 138.915 138.301 142.061 142.147 141.508 141.357 140.772 
141.914 140.488 140.113 141.082 141.502 139.773 139.433 140.303 140.847 
140.954 138.982 138.599 139.486 140.087 140.274 140.1 138.126 137.808 
138.471 139.026 139.382 139.279 139.239 137.421 137.132 137.593 137.916 
138.374 138.519 138.485 138.687 136.76 136.451 136.936 137.109 137.466 
137.798 137.88 137.961 138.178 136.035 135.764 136.248 136.439 136.696 
136.983 137.159 137.243 137.369 137.523 136.862 136.715 136.1 136.528 
135.885 135.307 136.344 135.617 135.099 134.516 136.211 135.362 134.828 
134.354 133.726 136.091 135.271 134.599 134.093 133.456 132.81 135.876 
135.2 134.503 133.837 133.095 132.357 131.817 135.613 134.957 134.33 
133.633 132.781 131.954 131.356 130.958 135.408 134.722 134.084 133.424 
132.579 131.685 131.021 130.582 130.228 135.227 134.6 133.945 133.277 
132.486 131.587 130.831 130.321 129.914 129.533 136.486 135.7 136.173 
134.784 135.264 135.791 133.933 134.26 134.738 135.173 133.164 133.486 
133.797 134.12 134.456 132.254 132.727 133.071 133.307 133.581 133.916 
131.3 131.772 132.218 132.548 132.869 133.213 133.521 130.464 130.854 
131.306 131.707 132.106 132.517 132.835 133.082 129.68 130.025 130.495 
130.929 131.315 131.727 132.088 132.347 132.596 128.863 129.057 128.223 
128.468 127.746 129.524 127.989 127.398 128.985 130.067 127.627 127.077 
128.45 129.5 130.491 127.387 126.906 128.059 128.912 129.897 130.869 
127.349 127.031 127.858 128.547 129.374 130.321 131.267 127.499 127.252 
127.829 128.398 129.129 129.932 130.781 131.604 127.621 127.315 127.919 
128.395 129.063 129.773 130.478 131.189 131.904 127.604 127.263 127.984 
128.471 129.083 129.712 130.318 130.934 131.576 132.239 129.129 128.448 
128.888 128.274 128.778 127.88 128.136 128.653 127.744 127.47 127.922 
128.574 127.5 127.254 127.062 127.927 128.722 127.261 126.951 126.767 
126.684 128.221 128.983 127.376 126.859 126.639 126.489 126.616 128.509 
129.189 127.701 127.088 126.797 126.548 126.473 126.8 128.725 129.374 
128.019 127.438 127.097 126.756 126.425 126.496 126.916 128.969 129.583 
128.357 127.826 127.426 127.017 126.541 126.326 126.547 126.936 135.157 
134.6 134.497 133.857 133.76 133.949 133.013 133.047 133.124 133.232 
132.309 132.433 132.261 132.363 132.448 131.718 131.788 131.595 131.558 
131.578 131.562 131.006 131.115 130.912 130.854 130.824 130.757 130.719 
130.335 130.555 130.167 130.083 130.071 130.061 130.024 130.089 129.837 
130.067 129.625 129.439 129.311 129.312 129.368 129.425 129.595 135.867 
135.245 136.005 135.408 136.214 134.581 135.583 136.353 134.737 133.88 
135.631 136.375 134.84 134.007 133.174 135.662 136.443 134.89 134.071 
133.204 132.445 135.78 136.563 135.001 134.191 133.254 132.39 131.737 
135.864 136.623 135.07 134.313 133.434 132.48 131.743 131.161 135.9 
136.63 135.067 134.311 133.574 132.689 131.847 131.218 130.648 135.941 