# vtk DataFile Version 4.0
vtk output
ASCII
DATASET POLYDATA
POINTS 1002 float
-78.4152 -93.7075 49.3262 -78.462 -93.7527 48.3012 -79.1263 -93.8039 48.6341 
-79.0498 -93.8923 49.5076 -79.8461 -93.7902 48.9775 -78.4075 -93.7883 50.1346 
-79.6496 -94.1332 49.5676 -80.4657 -93.9204 49.2301 -78.9095 -94.2087 50.0396 
-78.4881 -94.1885 50.6204 -80.2248 -94.6181 49.5999 -80.9071 -94.4847 49.2718 
-79.3953 -94.7782 49.8648 -78.8955 -94.7905 50.4345 -78.6157 -94.9902 50.946 
-80.8155 -95.302 49.6568 -81.3252 -95.2396 49.1736 -80.0576 -95.4459 49.9112 
-79.423 -95.4161 50.3903 -79.0707 -95.4886 51.043 -78.6808 -95.912 51.4016 
-81.4616 -95.7375 49.8077 -81.885 -95.7922 49.196 -80.8487 -95.8573 50.2539 
-80.2164 -95.9312 50.6799 -79.7233 -95.8734 51.3632 -79.227 -96.104 51.9095 
-78.7146 -96.552 52.1721 -82.1668 -96.0041 50.1109 -82.5179 -96.1904 49.4789 
-81.6543 -95.9236 50.7682 -81.0555 -96.131 51.2301 -80.5414 -96.2481 51.7958 
-79.9158 -96.2714 52.4791 -79.2565 -96.5481 52.8829 -78.8195 -96.9027 53.1277 
-82.8213 -96.4047 50.5068 -83.1298 -96.4716 49.9498 -82.4248 -96.2175 51.225 
-81.8349 -96.255 51.8159 -81.2974 -96.5002 52.2845 -80.6985 -96.5512 52.9374 
-79.8952 -96.5887 53.5405 -79.29 -96.9012 53.8029 -78.9506 -97.2545 53.9693 
-83.3825 -96.7188 50.9229 -83.751 -96.5957 50.4679 -83.0489 -96.7372 51.532 
-82.532 -96.6622 52.1921 -81.9417 -96.7094 52.7375 -81.4088 -96.7651 53.3306 
-80.6682 -96.7058 54.0317 -79.8746 -96.8769 54.4467 -79.3876 -97.3328 54.5222 
-79.0153 -97.7316 54.5876 -83.9292 -96.8449 51.3078 -84.3708 -96.7302 50.9045 
-83.5608 -97.0189 51.8048 -83.1139 -97.0567 52.4154 -82.5168 -96.985 53.0444 
-81.9711 -96.9505 53.6587 -81.3915 -96.9003 54.3414 -80.61 -96.96 54.888 
-79.9202 -97.3567 55.0459 -79.4648 -97.8789 55.0179 -79.0059 -98.2218 55.0759 
-78.889 -93.8095 47.4303 -79.6308 -93.7355 47.861 -79.2973 -93.6942 46.6683 
-80.0799 -93.5765 47.1371 -79.7358 -93.3315 46.1758 -80.409 -93.6502 48.342 
-80.5233 -93.3693 46.5555 -80.2742 -92.9021 45.7849 -80.7968 -93.7119 47.5441 
-80.9413 -93.9026 48.605 -81.0255 -93.2442 46.0131 -80.8267 -92.8718 45.1354 
-81.145 -93.864 46.79 -81.2307 -94.1939 47.7154 -81.2672 -94.5736 48.5822 
-81.504 -93.437 45.3544 -81.2291 -93.3403 44.3316 -81.6254 -93.9145 46.2114 
-81.6942 -94.3465 47.0342 -81.7182 -94.6852 47.8844 -81.7467 -95.2725 48.559 
-81.8927 -93.8253 44.6908 -81.5203 -93.8145 43.7751 -82.1643 -93.9962 45.6395 
-82.3919 -94.2477 46.6039 -82.5236 -94.5038 47.5509 -82.4662 -95.0863 48.2367 
-82.4073 -95.8092 48.7619 -82.2999 -94.0594 44.1306 -81.8822 -94.0735 43.4537 
-82.6576 -94.1214 44.9716 -82.9909 -94.2687 46.035 -83.2862 -94.406 47.1979 
-83.3322 -94.8134 48.0794 -83.1644 -95.581 48.6023 -83.0658 -96.1976 49.166 
-82.774 -94.2391 43.6435 -82.3137 -94.3807 43.1864 -83.1251 -94.2282 44.3118 
-83.3885 -94.4239 45.3341 -83.6728 -94.6562 46.5633 -83.8568 -94.9249 47.6259 
-83.8387 -95.4637 48.3425 -83.7653 -96.0673 48.9536 -83.743 -96.4123 49.6902 
-83.1723 -94.6453 43.3097 -82.6466 -94.8721 43.0252 -83.5325 -94.5229 43.8246 
-83.7084 -94.6548 44.7602 -83.8869 -94.973 45.9367 -84.0925 -95.2895 46.9987 
-84.2108 -95.6615 47.8406 -84.3046 -96.1166 48.6095 -84.4158 -96.4413 49.4269 
-84.4457 -96.5923 50.2296 -83.1883 -95.3519 43.1756 -83.7131 -95.1801 43.4767 
-83.5831 -95.9941 43.5277 -84.0629 -95.9258 44.0004 -83.8446 -96.6345 44.1239 
-83.9697 -95.1236 44.2318 -84.3903 -96.5733 44.713 -84.1249 -97.0845 44.8568 
-84.3444 -95.8576 44.9238 -84.1191 -95.2863 45.3706 -84.7914 -97.0534 45.353 
-84.4924 -97.567 45.4998 -84.8136 -96.4443 45.5322 -84.6406 -95.9122 45.9707 
-84.349 -95.5917 46.4544 -85.1169 -97.7183 45.9436 -84.8304 -98.3044 45.9411 
-85.2166 -97.0703 46.1192 -85.2014 -96.5008 46.4965 -84.9577 -96.1598 46.9387 
-84.5444 -95.9467 47.3668 -85.2547 -98.5064 46.6852 -84.9639 -98.9714 46.4908 
-85.4338 -97.9295 46.9719 -85.6051 -97.3044 47.2679 -85.5686 -96.7809 47.6309 
-85.1633 -96.5185 47.9981 -84.7027 -96.3456 48.3075 -85.2291 -99.0051 47.6413 
-84.8792 -99.3312 47.3732 -85.5493 -98.6335 47.9648 -85.9352 -98.1624 48.1506 
-86.1563 -97.5243 48.3877 -85.8747 -97.0318 48.8082 -85.3797 -96.8548 49.136 
-84.9418 -96.6714 49.3029 -85.1428 -99.2785 48.5496 -84.7364 -99.5997 48.276 
-85.5914 -98.9843 48.8082 -86.1723 -98.7199 48.858 -86.6968 -98.2222 48.9148 
-86.6343 -97.5626 49.3468 -86.104 -97.2442 49.8737 -85.6134 -97.1232 50.1227 
-85.1084 -96.8439 50.1964 -85.0704 -99.6076 49.1512 -84.6369 -99.9476 48.8992 
-85.5717 -99.2679 49.3665 -86.2035 -99.055 49.4159 -86.9302 -98.7947 49.4212 
-87.2108 -98.2131 49.7573 -86.7666 -97.7057 50.3272 -86.138 -97.5624 50.6876 
-85.6301 -97.3538 50.8114 -85.0441 -96.9673 50.8755 -84.6307 -97.0414 51.4627 
-85.2379 -97.4534 51.3378 -84.7823 -97.4961 51.981 -85.771 -97.8975 51.2162 
-85.2068 -98.0467 51.7153 -84.7976 -97.9928 52.5863 -86.4103 -98.086 51.1476 
-85.6914 -98.4578 51.5931 -85.0367 -98.5238 52.2425 -84.7034 -98.4284 53.3513 
-87.1575 -98.3998 50.8941 -86.4831 -98.7278 51.7121 -85.5638 -98.8667 52.1888 
-84.9557 -98.8219 53.1192 -84.5891 -98.8615 54.2056 -87.3241 -98.9817 50.4155 
-87.108 -99.2244 51.6401 -86.3308 -99.2903 52.3695 -85.5225 -99.1881 53.1125 
-84.9818 -99.2241 54.2111 -84.3999 -99.4814 54.9404 -86.6954 -99.296 50.0639 
-86.8547 -99.6071 51.1842 -86.5153 -99.7654 52.2321 -85.8978 -99.727 53.0499 
-85.3368 -99.7515 54.1353 -84.7423 -99.9754 55.042 -83.9674 -100.27 55.3899 
-85.9412 -99.4394 49.8833 -86.132 -99.693 50.6675 -85.9843 -99.921 51.7061 
-85.614 -100.113 52.6659 -85.2476 -100.37 53.7702 -84.8237 -100.661 54.8855 
-84.1641 -100.866 55.4622 -83.4203 -100.966 55.7192 -85.3544 -99.774 49.6916 
-85.5456 -99.9592 50.2863 -85.463 -100.113 51.1592 -85.1681 -100.334 52.1543 
-84.9132 -100.772 53.2599 -84.7162 -101.282 54.4986 -84.3153 -101.557 55.4133 
-83.6769 -101.559 55.8479 -83.0516 -101.469 56.1942 -84.8271 -100.157 49.4777 
-85.0295 -100.385 50.0433 -85.1036 -100.572 50.7857 -84.9686 -100.762 51.7094 
-84.7454 -101.12 52.773 -84.6112 -101.644 54.0215 -84.4614 -102.04 55.2 
-84.0631 -102.125 55.9611 -83.4594 -102.02 56.3982 -82.8722 -101.905 56.7996 
-84.1893 -97.107 51.9668 -84.4158 -97.4216 52.7203 -83.7735 -97.2051 52.5838 
-84.513 -97.8343 53.5604 -83.9707 -97.3815 53.5059 -83.2 -97.1998 53.2601 
-84.3568 -98.3801 54.2872 -83.9865 -97.8049 54.3242 -83.2777 -97.4278 54.1679 
-82.5375 -97.1844 53.9217 -83.9994 -99.0598 54.836 -83.659 -98.4928 54.8301 
-83.1908 -97.991 54.8415 -82.5528 -97.6255 54.7486 -81.955 -97.2325 54.5788 
-83.5675 -99.8633 55.3138 -83.1869 -99.3036 55.3129 -82.8817 -98.6989 55.3809 
-82.4514 -98.2916 55.3686 -81.8655 -97.8689 55.2725 -81.2452 -97.33 55.1458 
-83.1144 -100.594 55.7824 -82.8229 -100.116 55.9704 -82.5939 -99.4344 56.1414 
-82.282 -98.8934 56.0812 -81.7114 -98.5967 55.816 -81.0407 -98.1747 55.5865 
-80.4388 -97.6651 55.3904 -82.7352 -101.103 56.3071 -82.5214 -100.727 56.613 
-82.3622 -100.145 56.9307 -82.1287 -99.4819 56.9636 -81.6013 -99.135 56.5988 
-80.8703 -98.9603 56.0864 -80.2551 -98.6008 55.7085 -79.8179 -98.1795 55.4008 
-82.4923 -101.542 56.9123 -82.2245 -101.189 57.158 -82.0242 -100.737 57.4458 
-81.8274 -100.115 57.5991 -81.4527 -99.6176 57.4473 -80.7934 -99.434 56.9491 
-80.1087 -99.255 56.3479 -79.6348 -98.9015 55.873 -79.3035 -98.5337 55.4754 
-82.4012 -102.2 57.4953 -82.0351 -101.851 57.6873 -81.8206 -102.635 58.2437 
-81.4888 -102.337 58.4582 -81.2388 -103.03 59.0268 -81.688 -101.458 57.8431 
-80.9294 -102.833 59.2259 -80.6537 -103.19 59.7473 -81.0271 -101.931 58.3974 
-81.3625 -100.911 57.9215 -80.2288 -103.085 59.821 -79.7968 -103.216 60.0956 
-80.3746 -102.44 58.8924 -80.5912 -101.287 58.2312 -81.0715 -100.273 57.9519 
-79.2196 -103.069 59.9238 -78.7792 -103.297 59.8931 -79.6047 -102.658 59.189 
-79.8727 -101.68 58.4646 -80.2365 -100.571 58.1821 -80.6029 -99.8479 57.7693 
-78.2581 -102.933 59.5171 -78.0318 -103.324 59.3189 -78.6833 -102.524 59.1393 
-79.0791 -101.816 58.5581 -79.3909 -100.825 58.2616 -79.6859 -100.009 57.9725 
-79.9185 -99.5862 57.2348 -77.5512 -102.752 58.8936 -77.4401 -103.161 58.7044 
-77.8816 -102.266 58.7765 -78.2553 -101.69 58.4826 -78.5167 -100.938 58.2053 
-78.7502 -100.095 57.946 -79.0214 -99.5142 57.4181 -79.3264 -99.2385 56.5909 
-76.8465 -102.594 58.351 -76.7514 -102.918 58.2014 -77.1618 -102.093 58.2784 
-77.518 -101.496 58.1804 -77.7547 -100.911 58.0298 -77.969 -100.25 57.7285 
-78.2256 -99.5628 57.3058 -78.5336 -99.122 56.713 -78.9259 -98.8807 56.0194 
-76.1828 -102.499 57.8771 -76.151 -102.729 57.6583 -76.4562 -102.058 57.8301 
-76.8039 -101.41 57.7613 -77.0635 -100.797 57.7021 -77.3562 -100.34 57.4082 
-77.6933 -99.8576 56.9218 -77.9205 -99.323 56.4567 -78.1744 -98.9116 55.9874 
-78.5913 -98.5959 55.4927 -83.0483 -102.405 57.1158 -82.3496 -102.786 57.7329 
-83.034 -102.811 57.2012 -82.0438 -103.266 57.6582 -82.6529 -103.083 56.8992 
-81.5104 -103.206 58.3526 -81.6276 -103.647 57.3167 -82.1629 -103.318 56.3864 
-81.0239 -103.699 58.0655 -80.7952 -103.402 58.9482 -81.3856 -103.896 56.952 
-81.8538 -103.473 55.8662 -80.7501 -104.241 57.6408 -80.3032 -103.96 58.3071 
-80.1264 -103.425 59.3542 -81.1382 -103.802 56.5125 -81.5443 -103.499 55.2418 
-80.6863 -104.486 57.3349 -80.1316 -104.773 57.6664 -79.6491 -104.223 58.3509 
-79.2453 -103.598 59.4034 -80.6739 -103.526 55.7716 -81.1243 -103.527 54.443 
-80.3695 -104.07 56.9069 -80.0122 -104.939 57.3841 -79.4271 -105.119 57.6604 
-78.8742 -104.504 58.3691 -78.4491 -103.835 59.1177 -80.2369 -103.398 54.7605 
-80.7514 -103.543 53.5923 -79.8664 -103.497 56.0042 -79.6385 -104.149 56.9311 
-79.213 -104.898 57.4355 -78.6535 -104.983 57.8292 -78.2724 -104.445 58.2752 
-77.9132 -103.76 58.6294 -79.9193 -103.408 53.6839 -80.3973 -103.469 52.7876 
-79.4879 -103.337 54.6865 -79.2248 -103.408 55.7238 -78.947 -103.823 56.693 
-78.4759 -104.337 57.3972 -78.065 -104.425 57.7069 -77.7635 -103.997 57.8747 
-77.3022 -103.401 58.0994 -79.5753 -103.493 52.7415 -79.9618 -103.399 52.0734 
-79.1926 -103.584 53.392 -78.8898 -103.447 54.1023 -78.6733 -103.243 55.053 
[...]
CELL_DATA 2000
SCALARS Distance double
LOOKUP_TABLE default
130.74 131.302 131.04 131.08 131.855 131.6 131.644 131.387 131.486 
132.502 132.204 132.271 131.967 132.081 131.857 132.099 133.266 132.951 
133.087 132.705 132.833 132.513 132.766 132.576 132.923 134.013 133.739 
133.922 133.585 133.742 133.371 133.588 133.303 133.621 133.43 133.758 
134.757 134.478 134.655 134.374 134.563 134.267 134.492 134.184 134.434 
134.156 134.419 134.212 134.48 135.535 135.251 135.453 135.137 135.342 
135.049 135.305 135.043 135.289 134.988 135.166 134.876 135.076 134.887 
135.138 136.239 136.011 136.252 135.979 136.192 135.871 136.081 135.809 
136.038 135.78 135.93 135.619 135.732 135.479 135.686 135.534 135.782 
136.857 136.656 136.882 136.707 136.918 136.677 136.819 136.545 136.689 
136.454 136.598 136.332 136.426 136.137 136.279 136.081 136.315 136.168 
136.38 130.627 130.574 130.803 131.179 130.448 130.723 131.138 131.364 
131.743 130.327 130.606 131.074 131.33 131.758 131.945 132.356 130.33 
130.551 131.073 131.317 131.793 131.978 132.401 132.593 133.054 130.531 
130.659 131.193 131.387 131.903 132.065 132.505 132.656 133.116 133.323 
133.81 130.841 130.926 131.421 131.561 132.079 132.227 132.706 132.822 
133.296 133.439 133.949 134.113 134.596 131.129 131.209 131.651 131.778 
132.261 132.423 132.931 133.066 133.566 133.68 134.189 134.315 134.81 
134.927 135.373 131.45 131.475 131.863 131.959 132.405 132.581 133.098 
133.287 133.804 133.948 134.444 134.571 135.058 135.17 135.614 135.7 
136.09 131.894 131.838 132.194 132.195 132.611 132.725 133.241 133.438 
133.977 134.154 134.65 134.795 135.283 135.418 135.894 135.978 136.394 
136.42 136.77 132.305 133.077 132.648 132.594 133.927 133.484 133.435 
132.973 132.989 134.742 134.361 134.367 133.884 133.896 133.462 133.6 
135.515 135.172 135.237 134.814 134.85 134.415 134.525 134.144 134.324 
136.361 135.991 136.091 135.682 135.764 135.355 135.477 135.082 135.229 
134.853 135.001 137.2 136.873 137.023 136.612 136.765 136.326 136.503 
136.062 136.231 135.793 135.943 135.527 135.663 137.836 137.639 137.846 
137.557 137.783 137.401 137.618 137.158 137.328 136.842 136.996 136.535 
136.679 136.222 136.319 138.294 138.18 138.408 138.271 138.537 138.338 
138.587 138.249 138.392 137.931 138.03 137.581 137.705 137.263 137.332 
136.843 136.835 138.701 138.604 138.822 138.74 139.005 138.94 139.241 
139.089 139.289 138.932 138.992 138.552 138.609 138.212 138.253 137.814 
137.753 137.262 137.171 137.465 138.06 137.863 138.07 138.598 138.468 
138.654 138.453 138.644 139.022 138.97 139.197 139.012 139.135 138.968 
139.16 139.479 139.451 139.799 139.597 139.734 139.458 139.583 139.452 
139.689 139.773 139.902 140.342 140.267 140.485 140.154 140.24 139.945 
140.166 140.04 140.316 139.625 139.956 140.34 140.597 140.834 140.798 
140.843 140.615 140.744 140.588 140.862 140.715 140.911 139.31 139.629 
139.912 140.293 140.492 140.776 140.824 140.927 141.004 141.048 141.285 
141.254 141.453 141.257 141.318 139.116 139.339 139.606 139.861 140.075 
140.326 140.462 140.677 140.854 141.079 141.406 141.567 141.873 141.789 
141.901 141.625 141.646 138.992 139.189 139.471 139.664 139.933 140.089 
140.334 140.457 140.749 140.931 141.363 141.612 142.069 142.167 142.427 
142.243 142.314 141.992 142.043 137.262 137.854 137.445 137.266 138.463 
138.056 137.86 137.478 137.306 139.059 138.686 138.494 138.074 137.846 
137.46 137.215 139.615 139.277 139.112 138.702 138.438 138.002 137.723 
137.323 137.071 140.163 139.812 139.621 139.259 139.008 138.597 138.325 
137.887 137.633 137.217 136.978 140.688 140.338 140.105 139.738 139.504 
139.135 138.92 138.521 138.288 137.837 137.563 137.12 136.833 141.09 
140.806 140.621 140.27 140.087 139.687 139.515 139.116 138.921 138.491 
138.217 137.739 137.428 136.965 136.7 141.415 141.166 141.052 140.792 
140.692 140.338 140.186 139.763 139.56 139.117 138.859 138.389 138.093 
137.611 137.35 136.903 136.716 141.811 141.529 141.43 141.203 141.131 
140.88 140.734 140.394 140.163 139.754 139.482 139.031 138.738 138.271 
137.991 137.553 137.323 136.933 136.744 142.031 142.286 141.976 141.657 
142.586 142.275 141.915 141.608 141.309 142.822 142.599 142.211 141.839 
141.403 141.181 140.857 142.757 142.756 142.406 142.085 141.516 141.207 
140.761 140.633 140.28 142.279 142.486 142.191 142.112 141.522 141.248 
140.679 140.502 140.099 140.006 139.618 141.606 141.847 141.538 141.675 
141.159 141.085 140.479 140.347 139.847 139.776 139.353 139.288 138.859 
140.903 141.11 140.752 140.939 140.496 140.579 140.038 140.012 139.455 
139.421 138.923 138.925 138.485 138.484 138.083 140.175 140.376 140.008 
140.177 139.768 139.901 139.448 139.502 139 138.978 138.471 138.45 
138.008 138.041 137.682 137.725 137.402 139.483 139.672 139.358 139.493 
139.117 139.224 138.813 138.905 138.49 138.53 138.114 138.076 137.67 
137.624 137.279 137.303 137.024 137.079 136.811 142.37 142.831 142.604 
142.575 142.934 142.916 142.874 142.76 142.783 142.748 142.881 142.876 
142.887 142.858 142.869 142.895 142.52 142.709 142.831 142.864 142.824 
142.807 142.748 142.826 142.754 142.17 142.459 142.676 142.859 142.931 
142.863 142.749 142.651 142.517 142.543 142.338 141.609 141.947 142.081 
142.522 142.702 142.929 142.892 142.78 142.577 142.412 142.202 142.103 
141.803 141.015 141.275 141.233 141.702 141.812 142.371 142.428 142.722 
142.542 142.509 142.216 142.075 141.754 141.582 141.177 140.46 140.662 
140.513 140.824 140.762 141.281 141.28 141.867 141.761 142.141 141.852 
141.959 141.563 141.498 141.043 140.895 140.42 139.923 140.118 139.996 
140.187 140.057 140.32 140.192 140.633 140.524 141.064 140.886 141.293 
140.958 141.12 140.66 140.648 140.161 140.081 139.648 139.03 139.281 
139.258 139.503 139.613 139.534 139.771 139.762 139.999 139.93 139.88 
140.119 140.089 140.381 140.3 140.48 140.013 140.118 140.405 140.456 
140.801 140.756 141.016 140.821 140.967 139.959 140.112 140.464 140.652 
141.029 141.127 141.429 141.363 141.581 141.381 141.594 140.133 140.152 
140.514 140.674 141.076 141.242 141.531 141.619 141.858 141.886 142.155 
142.063 142.289 140.404 140.423 140.735 140.808 141.185 141.292 141.57 
141.642 141.848 141.976 142.272 142.423 142.688 142.645 142.684 140.348 
140.558 140.82 140.979 141.271 141.404 141.663 141.722 141.91 141.965 
142.219 142.398 142.704 142.843 142.937 142.821 142.635 140.013 140.323 
140.575 140.862 141.101 141.35 141.599 141.778 142.012 142.085 142.304 
142.383 142.638 142.78 142.943 142.962 142.868 142.656 142.386 138.772 
138.525 138.781 139.062 138.257 138.563 138.904 139.146 139.444 137.748 
138.183 138.521 138.936 139.264 139.53 139.749 137.096 137.543 137.806 
138.35 138.671 139.171 139.381 139.693 139.768 136.655 136.99 137.278 
137.649 137.957 138.437 138.719 139.164 139.317 139.609 139.701 136.325 
136.695 137.098 137.346 137.65 137.891 138.184 138.533 138.847 139.186 
139.451 139.673 139.913 135.81 136.3 136.69 137.118 137.364 137.647 
137.8 138.096 138.36 138.763 139.119 139.467 139.75 139.973 140.175 
135.225 135.678 135.964 136.485 136.676 137.126 137.191 137.581 137.703 
138.186 138.463 138.993 139.24 139.649 139.74 140.044 140.064 134.779 
135.114 135.367 135.763 135.99 136.381 136.532 136.892 137.037 137.458 
137.693 138.216 138.449 138.943 139.025 139.413 139.386 139.733 139.708 
134.663 134.757 134.889 135.259 134.879 135.047 135.441 135.522 135.856 
134.821 135.108 135.556 135.721 136.045 136.1 136.384 134.621 134.942 
135.38 135.707 136.099 136.272 136.552 136.608 136.901 134.512 134.759 
135.165 135.465 135.872 136.179 136.533 136.733 137.034 137.146 137.518 
134.488 134.722 135.181 135.377 135.758 135.953 136.297 136.57 136.934 
137.198 137.56 137.767 138.176 134.428 134.697 135.206 135.458 135.878 
135.982 136.277 136.397 136.789 137.053 137.517 137.76 138.142 138.351 
138.706 134.369 134.611 135.074 135.401 135.859 136.084 136.423 136.511 
136.93 137.089 137.695 137.859 138.363 138.404 138.716 138.809 139.1 
134.387 134.558 134.943 135.217 135.641 135.956 136.365 136.606 137.09 
137.326 138.004 138.215 138.842 138.826 139.155 139.004 139.2 139.204 
139.464 134.551 134.949 134.845 135.065 135.302 135.233 135.45 135.387 
135.689 135.641 135.593 135.871 135.796 136.116 136.072 136.433 136.104 
136.007 136.375 136.286 136.693 136.598 137.061 136.941 137.356 136.766 
136.593 136.992 136.87 137.321 137.233 137.76 137.684 138.249 138.041 
138.454 137.512 137.324 137.706 137.546 137.938 137.834 138.249 138.263 
138.769 138.832 139.283 139.113 139.291 138.19 138.049 138.431 138.274 
138.625 138.447 138.705 138.61 138.886 139.03 139.371 139.562 139.722 
139.621 139.501 138.774 138.686 139.1 138.986 139.387 139.181 139.442 
139.143 139.28 139.117 139.314 139.424 139.623 139.731 139.718 139.589 
139.439 139.273 139.241 139.695 139.643 140.121 139.979 140.356 140.025 
140.22 139.774 139.9 139.602 139.785 139.697 139.84 139.754 139.779 
139.593 139.614 134.305 134.058 134.378 134.729 133.781 134.128 134.5 
134.78 135.07 133.443 133.836 134.198 134.514 134.793 135.069 135.349 
132.975 133.435 133.818 134.188 134.496 134.786 135.097 135.384 135.773 
132.561 132.962 133.413 133.808 134.221 134.54 134.931 135.199 135.639 
135.926 136.43 132.416 132.685 133.143 133.47 133.942 134.299 134.748 
135.062 135.505 135.814 136.315 136.644 137.168 132.307 132.598 132.986 
133.262 133.655 134.009 134.421 134.803 135.201 135.589 136.048 136.465 
136.986 137.359 137.844 132.012 132.395 132.776 133.076 133.405 133.708 
134.059 134.418 134.803 135.203 135.665 136.122 136.68 137.126 137.654 
137.998 138.432 131.704 132.074 132.534 132.854 133.241 133.492 133.851 
134.115 134.525 134.853 135.359 135.771 136.372 136.824 137.406 137.79 
138.248 138.546 138.92 133.972 133.312 133.642 133.654 132.595 132.917 
132.874 133.282 133.338 131.868 132.183 132.12 132.49 132.523 132.963 
133.012 131.098 131.431 131.38 131.755 131.74 132.138 132.126 132.56 
132.531 130.323 130.604 130.488 130.931 130.873 131.308 131.192 131.612 
131.538 132.021 132.064 129.77 129.874 129.635 129.967 129.871 130.333 
130.213 130.638 130.539 131.018 131.12 131.682 131.909 129.438 129.464 
129.201 129.267 129.108 129.379 129.326 129.698 129.685 130.101 130.224 
130.763 131.022 131.606 131.821 128.97 129.157 128.982 128.999 128.771 
128.814 128.703 128.944 129.01 129.379 129.545 129.973 130.184 130.693 
130.874 131.418 131.521 128.223 128.587 128.524 128.732 128.527 128.549 
128.306 128.418 128.414 128.765 128.991 129.402 129.636 129.989 130.143 
130.519 130.634 131.092 131.214 127.743 127.296 127.716 128.133 127.14 
127.39 127.747 128.07 128.256 127.254 127.365 127.635 127.768 127.869 
128.034 128.063 127.574 127.578 127.868 127.815 127.872 127.794 127.838 
127.941 128.181 128.162 128.016 128.346 128.195 128.314 128.046 128.121 
127.992 128.321 128.406 128.866 128.877 128.661 128.904 128.735 128.878 
128.609 128.703 128.484 128.799 128.766 129.22 129.234 129.593 129.401 
129.236 129.338 129.221 129.312 129.138 129.218 129.051 129.308 129.275 
129.663 129.64 129.909 129.847 130.044 129.759 129.592 129.606 129.515 
129.581 129.495 129.599 129.496 129.731 129.709 130.073 130.059 130.315 
130.187 130.308 130.226 130.441 130.175 129.933 129.906 129.745 129.802 
129.729 129.886 129.844 130.105 130.095 130.448 130.447 130.741 130.624 
130.762 130.574 130.726 130.674 130.989 130.444 130.773 130.435 130.14 
131.222 130.815 130.519 130.182 130.004 131.886 131.38 131.105 130.651 
130.473 130.164 130.119 132.726 132.165 131.888 131.334 131.133 130.726 
130.698 130.4 130.429 133.572 133.047 132.782 132.184 131.94 131.443 
131.378 131.039 131.088 130.776 130.805 134.332 133.878 133.687 133.116 
132.899 132.322 132.201 131.754 131.743 131.416 131.41 131.112 131.049 
135.02 134.622 134.489 134.009 133.854 133.315 133.18 132.643 132.528 
132.075 131.979 131.641 131.527 131.233 131.063 135.654 135.288 135.143 
134.743 134.574 134.166 134.001 133.553 133.351 132.863 132.662 132.232 
132.095 131.729 131.599 131.227 131.078 136.225 135.886 135.714 135.337 
135.128 134.765 134.553 134.197 133.948 133.549 133.296 132.898 132.756 
132.385 132.329 131.91 131.848 131.387 131.351 131.768 132.25 132.206 
132.603 132.705 132.687 133.067 133.026 133.345 133.033 133.036 133.39 
133.437 133.763 133.711 133.967 133.44 133.318 133.577 133.644 134.009 
134.081 134.415 134.353 134.647 134.07 133.815 134.016 133.9 134.268 
134.31 134.777 134.812 135.25 135.147 135.53 134.752 134.517 134.806 
134.558 134.951 134.776 135.271 135.229 135.787 135.774 136.288 136.147 
136.577 135.366 135.202 135.583 135.422 135.885 135.662 136.11 135.894 
136.378 136.313 136.859 136.848 137.332 137.203 137.581 135.948 135.809 
136.16 136.098 136.548 136.495 136.919 136.757 137.12 136.957 137.385 
137.352 137.828 137.82 138.21 138.1 138.384 136.471 136.365 136.65 
136.583 136.932 136.958 137.351 137.364 137.722 137.639 137.991 137.9 
138.307 138.269 138.668 138.617 138.931 138.808 139.046 131.6 131.099 
131.191 130.92 130.709 130.704 130.332 130.456 130.193 130.392 130.341 
129.937 129.934 129.625 129.76 129.565 130.081 130.027 129.676 129.637 
129.393 129.384 129.241 129.287 129.176 129.892 129.77 129.46 129.42 
129.231 129.243 129.155 129.162 129.071 129.039 128.923 129.927 129.712 
129.405 129.274 129 128.997 128.777 128.922 128.722 128.863 128.583 
128.675 128.428 130.086 129.844 129.548 129.324 128.956 128.764 128.312 
128.328 127.938 128.186 127.806 128.061 127.649 127.924 127.665 130.222 
130.009 129.724 129.506 129.16 128.835 128.328 127.998 127.524 127.448 
127.144 127.254 126.988 127.127 126.932 127.195 127.216 130.28 130.104 
129.825 129.658 129.4 129.121 128.761 128.295 127.91 127.47 127.279 
127.029 127 126.849 126.878 126.821 126.989 127.12 127.454 131.821 
131.182 131.675 131.976 130.527 131.052 131.417 131.849 132.136 129.878 
130.407 130.86 131.345 131.689 132.048 132.381 129.322 129.746 130.18 
130.765 131.203 131.641 131.981 132.361 132.788 128.984 129.246 129.556 
130.066 130.555 131.107 131.531 131.967 132.374 132.815 133.269 128.651 
128.96 129.247 129.581 130.032 130.496 131.005 131.488 131.955 132.406 
132.862 133.284 133.659 128.081 128.562 128.976 129.353 129.777 130.122 
130.596 131.015 131.525 131.982 132.458 132.887 133.279 133.629 133.897 
127.646 128.041 128.564 129.018 129.485 129.866 130.281 130.666 131.136 
131.576 132.053 132.478 132.863 133.235 133.52 133.831 134.047 127.788 
127.885 128.411 128.695 129.205 129.541 129.972 130.331 130.784 131.205 
131.685 132.093 132.481 132.826 133.118 133.439 133.696 133.992 134.23 
132.272 132.422 132.572 133.034 132.538 132.696 133.161 133.348 133.835 
132.788 132.856 133.299 133.445 133.912 134.114 134.587 133.256 133.236 
133.685 133.679 134.084 134.171 134.621 134.835 135.333 133.72 133.734 
134.18 134.15 134.512 134.453 134.832 134.913 135.438 135.643 136.196 
133.996 134.071 134.426 134.52 134.865 134.887 135.243 135.248 135.731 
135.839 136.405 136.557 137.049 134.163 134.232 134.496 134.615 134.936 
135.091 135.491 135.621 136.092 136.197 136.694 136.795 137.23 137.333 
137.68 134.328 134.378 134.665 134.714 135.053 135.156 135.576 135.755 
136.233 136.44 136.902 137.051 137.423 137.5 137.793 137.87 138.14 
134.53 134.573 134.933 134.975 135.399 135.428 135.865 135.91 136.33 
136.475 136.906 137.126 137.522 137.67 137.969 138.015 138.264 138.312 
138.563 134.031 133.989 133.822 133.434 133.999 133.801 133.415 133.214 
132.771 134.04 133.819 133.406 133.199 132.747 132.52 132.03 134.107 
133.869 133.434 133.192 132.719 132.481 131.983 131.76 131.266 134.216 
133.949 133.518 133.241 132.758 132.478 132.012 131.756 131.319 131.053 
130.604 134.344 134.06 133.602 133.327 132.853 132.56 132.101 131.833 
131.44 131.182 130.796 130.485 130.099 134.383 134.136 133.639 133.39 
132.932 132.67 132.209 131.933 131.48 131.256 130.833 130.631 130.214 
129.994 129.638 134.328 134.122 133.654 133.418 132.998 132.761 132.343 
132.053 131.558 131.261 130.755 130.551 130.081 129.945 129.496 129.409 
129.022 134.31 134.107 133.731 133.485 133.128 132.877 132.522 132.225 
131.776 131.399 130.887 130.54 130.079 129.823 129.381 129.19 128.729 
128.648 128.232 
POINT_DATA 1002
SCALARS Distance double
LOOKUP_TABLE default
130.769 130.449 131.006 131.347 131.555 131.127 131.899 132.114 131.688 
131.644 132.599 132.795 132.316 132.242 132.413 133.46 133.545 133.202 
132.983 133.073 133.283 134.213 134.283 134.095 133.929 133.854 133.935 
134.057 134.939 135.051 134.817 134.778 134.77 134.679 134.646 134.74 
135.763 135.793 135.659 135.554 135.584 135.517 135.306 135.278 135.398 
136.478 136.448 136.516 136.401 136.29 136.241 136.036 135.856 135.927 
136.021 137.042 137.081 137.126 137.113 136.945 136.833 136.722 136.521 
136.462 136.558 136.561 130.428 130.978 130.319 130.876 130.152 131.563 
130.793 130.039 131.554 132.16 130.822 130.132 131.606 132.221 132.824 
131.025 130.439 131.734 132.37 132.926 133.601 131.315 130.77 131.926 
132.578 133.173 133.792 134.455 131.545 131.073 132.093 132.767 133.45 
134.076 134.699 135.276 131.807 131.472 132.239 132.884 133.645 134.318 
134.939 135.536 136.031 132.235 131.977 132.541 133.054 133.786 134.502 
135.13 135.78 136.368 136.783 132.704 133.007 133.522 133.925 134.335 
133.374 134.823 135.07 134.356 133.96 135.624 135.854 135.266 134.929 
134.686 136.495 136.735 136.156 135.872 135.631 135.372 137.39 137.477 
137.187 136.952 136.686 136.378 136.079 138.054 137.981 138.097 138.066 
137.836 137.463 137.148 136.809 138.509 138.396 138.665 138.852 138.845 
138.496 138.132 137.834 137.354 138.909 138.801 139.049 139.303 139.57 
139.454 139.028 138.669 138.256 137.649 137.664 138.278 138.268 138.87 
138.814 138.852 139.37 139.353 139.241 139.389 139.958 140.07 139.782 
139.73 139.951 140.297 140.775 140.613 140.327 140.443 140.557 140.005 
140.722 141.008 140.909 140.998 141.148 141.031 139.579 140.155 140.602 
140.866 141.241 141.619 141.596 141.33 139.391 139.85 140.223 140.565 
141.133 141.846 142.156 141.951 141.658 139.268 139.754 140.197 140.586 
141.099 141.86 142.503 142.624 142.368 142.104 137.63 138.271 137.679 
138.938 138.274 137.588 139.506 138.895 138.146 137.437 139.981 139.378 
138.752 138.08 137.382 140.477 139.858 139.278 138.733 138.052 137.257 
140.912 140.477 139.929 139.34 138.691 137.91 137.12 141.259 140.989 
140.611 140.02 139.321 138.567 137.804 137.129 141.671 141.363 141.043 
140.551 139.921 139.207 138.443 137.727 137.115 142.32 141.939 142.601 
142.286 142.873 141.523 142.64 142.956 141.709 140.979 142.674 142.642 
141.908 140.934 140.372 142.144 142.052 141.756 140.905 140.202 139.727 
141.345 141.421 141.127 140.596 139.938 139.402 138.93 140.566 140.724 
140.346 140.015 139.505 138.924 138.444 138.082 139.84 139.963 139.618 
139.341 138.988 138.507 137.983 137.598 137.366 139.213 139.274 139.021 
138.712 138.387 138.098 137.738 137.291 136.948 136.759 142.688 142.805 
143.003 142.944 142.859 142.878 142.845 142.544 142.841 142.858 142.742 
142.276 142.908 142.723 142.667 142.361 141.876 142.928 142.959 142.567 
142.323 141.607 141.349 142.278 142.901 142.818 142.351 141.937 140.874 
140.825 141.222 141.936 142.448 142.36 141.939 141.387 140.289 140.267 
140.378 140.687 141.219 141.616 141.58 141.17 140.574 139.802 139.703 
139.898 139.898 139.996 140.36 140.685 140.61 140.201 139.709 139.021 
139.487 139.336 139.781 139.723 140.048 140.138 139.93 140.439 140.658 
140.287 139.823 140.792 141.172 141.22 140.228 139.829 140.88 141.417 
141.699 141.827 140.4 140.173 140.916 141.433 141.745 142.135 142.507 
140.698 140.344 141.109 141.53 141.751 142.052 142.632 142.928 140.634 
140.07 141.131 141.575 141.888 142.095 142.513 142.971 142.914 138.495 
138.829 138.251 138.611 137.91 139.274 138.029 137.307 138.923 139.597 
137.293 136.69 138.098 138.995 139.553 136.988 136.287 137.556 138.219 
138.945 139.454 136.811 135.878 137.497 137.899 138.436 139.162 139.738 
136.211 135.342 137.048 137.549 137.954 138.691 139.504 140.011 135.484 
134.85 136.199 136.783 137.244 137.912 138.786 139.433 139.779 135.011 