# vtk DataFile Version 4.0
vtk output
ASCII
DATASET POLYDATA
POINTS 1002 float
-78.3613 -102.019 50.9077 -78.6357 -101.706 51.7138 -79.0933 -101.922 51.226 
-78.9986 -102.117 50.2738 -79.847 -102.15 50.6434 -78.2199 -102.004 50.1921 
-79.8029 -102.063 49.7499 -80.6789 -102.077 50.2564 -78.9674 -101.864 49.5727 
-78.3153 -101.37 49.6611 -80.4774 -101.594 49.6126 -81.164 -101.483 50.1406 
-79.677 -101.508 49.262 -79.0064 -101.17 49.1361 -78.4738 -100.7 48.9622 
-80.9688 -100.953 49.5132 -81.5101 -100.833 49.838 -80.2439 -100.93 49.136 
-79.5863 -100.846 48.7813 -79.0722 -100.7 48.3235 -78.5364 -100.567 47.7101 
-81.6502 -100.652 48.9495 -82.2114 -100.521 49.19 -80.9738 -100.604 48.5706 
-80.2369 -100.488 48.1646 -79.6665 -100.494 47.6529 -79.1679 -100.517 46.9864 
-78.558 -100.472 46.3966 -82.4193 -100.442 48.2629 -82.9865 -100.261 48.6227 
-81.8476 -100.553 47.6878 -81.1323 -100.409 47.1488 -80.4052 -100.218 46.8048 
-79.8252 -100.129 46.3856 -79.2328 -100.1 45.9045 -78.5439 -100.048 45.5425 
-82.9226 -100.04 47.784 -83.4872 -99.9533 48.1872 -82.3924 -100.241 47.1361 
-81.8247 -100.351 46.408 -81.1459 -100.216 46.0239 -80.495 -99.8971 45.8353 
-79.8779 -99.6675 45.5079 -79.1775 -99.6968 45.0858 -78.4561 -99.7854 44.6837 
-83.3932 -99.784 47.2387 -83.9425 -99.7938 47.6324 -82.7571 -99.7968 46.7647 
-82.1487 -99.9667 46.1472 -81.5853 -100.211 45.6189 -81.0701 -100.153 45.2881 
-80.527 -99.7639 44.9529 -79.8307 -99.5717 44.4952 -79.0613 -99.7267 43.9767 
-78.3796 -99.8627 43.5238 -84.0317 -99.756 46.5896 -84.4851 -99.7156 47.0415 
-83.3325 -99.6021 46.2471 -82.5461 -99.5212 45.8992 -81.8916 -99.8389 45.4256 
-81.4817 -100.292 44.847 -81.1434 -100.258 44.2807 -80.5605 -99.8779 43.7822 
-79.7456 -99.7491 43.3006 -78.9829 -99.8602 42.8496 -78.3854 -99.8657 42.5447 
-79.0395 -101.663 52.3065 -79.6125 -101.924 51.8423 -79.3836 -101.858 52.9298 
-80.2111 -102.044 52.4589 -79.9194 -102.033 53.5566 -80.5415 -102.184 51.2967 
-80.8282 -101.992 53.0605 -80.5736 -101.984 54.2672 -81.1621 -102.11 51.9617 
-81.2991 -101.986 50.9475 -81.1279 -101.628 53.7366 -80.9347 -101.745 54.9988 
-81.4302 -101.692 52.6088 -81.5939 -101.631 51.6565 -81.5392 -101.236 50.6968 
-81.1411 -101.127 54.3761 -81.0315 -101.315 55.5087 -81.4196 -101.056 53.2378 
-81.6872 -101.059 52.3151 -81.8121 -100.887 51.2847 -81.9785 -100.639 50.1215 
-81.3335 -100.675 54.7915 -81.2567 -100.777 55.7614 -81.6052 -100.554 53.7096 
-81.9975 -100.546 52.7915 -82.3309 -100.61 51.8798 -82.6627 -100.59 50.6102 
-82.9333 -100.44 49.4155 -81.7991 -100.342 55.0672 -81.6673 -100.334 55.9331 
-82.0904 -100.28 54.0649 -82.509 -100.197 53.0574 -82.9402 -100.298 52.2352 
-83.3844 -100.536 51.2546 -83.698 -100.521 49.9933 -83.692 -100.218 48.9496 
-82.2706 -100.059 55.2975 -82.0577 -99.9691 56.0545 -82.6153 -100.095 54.4657 
-82.9776 -99.962 53.4314 -83.299 -99.8619 52.4215 -83.713 -100.086 51.6228 
-84.1101 -100.324 50.6781 -84.2075 -100.181 49.5405 -84.0743 -99.9036 48.5164 
-82.5917 -99.694 55.3936 -82.3139 -99.5414 56.0449 -83.0312 -99.8319 54.791 
-83.4147 -99.7762 53.9754 -83.5973 -99.5431 52.8444 -83.8267 -99.5034 51.8195 
-84.2059 -99.7241 51.0209 -84.4314 -99.7992 50.0916 -84.4377 -99.6696 49.0029 
-84.4442 -99.6311 47.9568 -82.6484 -99.1102 55.4926 -83.1746 -99.3248 54.9723 
-83.1332 -98.593 54.9272 -83.8914 -98.8147 54.5489 -83.7569 -98.0009 54.4529 
-83.7705 -99.4713 54.4819 -84.4749 -98.1906 54.0389 -84.2119 -97.4697 53.9579 
-84.4542 -98.965 54.0098 -84.0526 -99.3747 53.5635 -84.6435 -97.6055 53.2608 
-84.268 -97.1508 53.1777 -84.8422 -98.3562 53.245 -84.6382 -98.9748 52.9224 
-84.1496 -99.2026 52.2821 -84.5561 -97.1729 52.1742 -84.1495 -96.8743 52.1398 
-84.9612 -97.6969 52.2393 -85.127 -98.4974 52.1124 -84.8688 -98.9852 51.6277 
-84.4324 -99.227 51.1889 -84.5073 -96.7765 51.099 -84.1627 -96.3903 51.21 
-85.0137 -97.0971 51.2048 -85.4353 -97.7986 51.2864 -85.489 -98.5878 50.9697 
-85.1257 -98.9499 50.4857 -84.6798 -99.2667 50.2549 -84.5288 -96.2762 50.3497 
-84.2816 -95.7896 50.5475 -84.9787 -96.5985 50.3642 -85.4567 -97.0707 50.4685 
-85.6585 -97.8762 50.2738 -85.48 -98.4906 49.7646 -85.074 -98.7807 49.3815 
-84.7038 -99.1865 49.2052 -84.5937 -95.687 49.8277 -84.3489 -95.2427 49.9977 
-84.9205 -96.0769 49.7182 -85.3 -96.4462 49.637 -85.5194 -97.0898 49.4131 
-85.4608 -97.8676 48.9811 -85.242 -98.3526 48.5724 -85.0084 -98.7224 48.3181 
-84.7692 -99.2207 48.1173 -84.6807 -95.0923 49.3184 -84.3171 -94.774 49.4529 
-85.0077 -95.4644 49.1207 -85.2916 -95.8046 48.8317 -85.476 -96.3 48.4655 
-85.4801 -97.1075 48.0851 -85.3503 -97.8688 47.8029 -85.235 -98.3679 47.6123 
-85.1444 -98.8743 47.3778 -84.9226 -99.407 47.1333 -84.7672 -99.6106 46.2538 
-85.1381 -99.1487 46.4501 -84.6614 -99.144 45.7143 -85.2659 -98.5007 46.755 
-84.8722 -98.4832 45.9592 -84.0646 -98.3193 45.421 -85.3698 -97.9108 46.9072 
-85.0483 -97.7819 46.1471 -84.2656 -97.5544 45.5327 -83.482 -97.5144 45.1049 
-85.542 -97.1588 46.9723 -85.3324 -97.144 46.1778 -84.6193 -96.9353 45.5494 
-83.8273 -96.79 45.0639 -83.2138 -96.9175 44.6041 -85.6436 -96.1657 47.2074 
-85.5401 -96.2373 46.2756 -84.9183 -96.3805 45.6266 -84.1866 -96.3431 45.0404 
-83.5705 -96.3151 44.5056 -82.8923 -96.4228 43.9538 -85.5996 -95.4326 47.6528 
-85.5967 -95.27 46.5782 -85.0068 -95.5501 45.8355 -84.3183 -95.8889 45.1325 
-83.8504 -95.9356 44.4184 -83.2004 -95.9244 43.8056 -82.3973 -95.9495 43.2523 
-85.4053 -95.0662 48.167 -85.5429 -94.7247 47.0665 -85.053 -94.7459 46.1331 
-84.3574 -95.0881 45.259 -84.0052 -95.3048 44.369 -83.547 -95.3473 43.6761 
-82.7289 -95.408 43.1452 -82.0385 -95.4138 42.6261 -85.0292 -94.7635 48.5752 
-85.2392 -94.4713 47.6186 -84.938 -94.3385 46.5897 -84.3419 -94.3757 45.5183 
-84.0399 -94.4247 44.4365 -83.7525 -94.4562 43.6501 -83.0145 -94.6063 43.1696 
-82.2606 -94.7831 42.6742 -81.8806 -94.8238 42.0872 -84.5197 -94.4864 48.8098 
-84.6773 -94.269 48.0372 -84.4949 -94.1874 47.099 -84.0368 -94.1139 45.9947 
-83.7913 -93.9291 44.7942 -83.6486 -93.7569 43.839 -83.0417 -93.8043 43.3129 
-82.2399 -94.0323 42.8721 -81.8418 -94.225 42.2486 -81.7486 -94.307 41.5731 
-84.1745 -99.5555 45.8122 -83.888 -98.9931 45.3595 -83.2911 -99.2664 45.5634 
-83.2948 -98.2767 45.0777 -82.9775 -98.7681 45.078 -82.4019 -99.2357 45.2436 
-82.9016 -97.6749 44.621 -82.6156 -98.2889 44.5392 -82.2498 -98.94 44.4877 
-81.8441 -99.7944 44.5795 -82.63 -97.0732 43.9721 -82.3803 -97.7507 43.8795 
-82.1142 -98.4814 43.7286 -81.8846 -99.5157 43.6123 -81.5975 -100.304 43.755 
-82.1534 -96.4298 43.2684 -82.0308 -97.0491 43.2042 -81.8698 -97.7613 43.1231 
-81.7147 -98.7279 43.0345 -81.5615 -99.7502 42.9347 -81.1673 -100.139 43.1421 
-81.7486 -95.8206 42.5728 -81.6092 -96.377 42.4975 -81.5244 -97.0864 42.4167 
-81.3495 -97.8408 42.5101 -81.1432 -98.6861 42.6193 -80.8364 -99.4367 42.5813 
-80.3219 -99.7667 42.7379 -81.6503 -95.2023 41.9222 -81.3978 -95.7489 41.8094 
-81.2633 -96.5696 41.6316 -81.1053 -97.3429 41.6085 -80.7673 -97.8641 41.9657 
-80.3392 -98.42 42.3049 -79.8937 -99.1097 42.3236 -79.4285 -99.6472 42.3911 
-81.6217 -94.6415 41.326 -81.2946 -95.1189 41.2056 -81.0384 -95.9569 41.0594 
-80.9243 -96.9361 40.8718 -80.6436 -97.519 41.0163 -80.094 -97.7589 41.5999 
-79.5474 -98.2036 42.0728 -79.1365 -98.9426 42.1285 -78.7659 -99.5848 42.1538 
-81.493 -94.0937 40.8748 -81.1518 -94.4771 40.6874 -80.8415 -93.9864 40.3562 
-80.2876 -94.4248 40.2758 -79.9106 -93.8891 40.1829 -80.7143 -95.0877 40.6505 
-79.439 -94.3036 40.1705 -79.1155 -93.6685 40.2432 -79.9191 -95.0571 40.3737 
-80.5262 -96.0972 40.5833 -78.7262 -94.1245 40.2356 -78.2766 -93.4675 40.3371 
-79.1087 -94.9277 40.333 -79.7466 -96.0712 40.4514 -80.384 -97.0676 40.5067 
-77.6896 -94.0972 40.3613 -77.0981 -93.438 40.4363 -78.0932 -94.9004 40.3625 
-78.5728 -95.9927 40.4188 -79.3138 -96.993 40.4687 -79.874 -97.4756 40.8233 
-76.5738 -94.1138 40.6011 -76.1414 -93.4687 40.7053 -77.0141 -94.9465 40.5556 
-77.3341 -96.0027 40.4045 -77.8668 -96.9405 40.413 -78.6437 -97.3866 40.8485 
-79.212 -97.654 41.5388 -75.9756 -94.0887 41.0348 -75.7723 -93.5441 41.261 
-76.3705 -94.8487 41.0144 -76.689 -95.8642 40.7719 -76.8959 -96.8507 40.4942 
-77.4166 -97.375 40.856 -78.1902 -97.6344 41.5964 -78.767 -98.1744 42.0202 
-75.6131 -94.2195 41.5532 -75.4972 -93.7435 41.8899 -75.9143 -94.8308 41.5118 
-76.335 -95.6538 41.4311 -76.533 -96.5967 41.0621 -76.6795 -97.3184 41.0533 
-77.2191 -97.7079 41.6457 -77.9422 -98.1902 42.0655 -78.4448 -98.9438 42.067 
-75.0294 -94.4831 41.932 -74.9377 -93.99 42.2814 -75.2095 -95.0434 41.8048 
-75.6202 -95.6916 41.8731 -76.0121 -96.4207 41.7669 -76.1665 -97.1682 41.5897 
-76.41 -97.7772 41.7981 -76.995 -98.2844 42.1274 -77.6319 -98.8974 42.1568 
-78.0686 -99.5209 42.1691 -81.5366 -93.779 41.4935 -81.3186 -93.5057 40.7757 
-81.2333 -93.1383 41.4873 -81.1383 -92.6031 40.8371 -81.0796 -92.431 41.6592 
-80.6852 -93.2729 40.3822 -81.0174 -91.6854 41.1301 -81.0015 -91.9133 42.1877 
-80.5404 -92.1563 40.5527 -79.7146 -93.0457 40.3473 -80.6954 -91.3922 41.7748 
-80.6805 -91.7761 42.9776 -80.2667 -91.3243 40.8514 -79.4058 -91.943 40.4782 
-78.717 -92.8046 40.4028 -80.0556 -91.5744 42.6785 -80.139 -91.7783 43.7428 
-79.6994 -91.3458 41.5297 -78.9028 -91.3808 40.702 -78.0988 -91.9056 40.4488 
-77.569 -92.702 40.4444 -79.3978 -91.5306 43.5905 -79.5911 -91.688 44.4471 
-79.0375 -91.5358 42.5623 -78.3681 -91.4837 41.4906 -77.5544 -91.5216 40.779 
-76.8973 -92.0132 40.6124 -76.4383 -92.783 40.6376 -78.8829 -91.3686 44.4166 
-79.0776 -91.6618 45.1433 -78.5106 -91.4185 43.5561 -77.9443 -91.5525 42.6309 
-77.2617 -91.5213 41.7157 -76.5878 -91.6673 41.1712 -76.093 -92.2349 41.1001 
-75.8538 -92.9316 41.1734 -78.443 -91.4589 45.1954 -78.6267 -91.7743 45.7883 
-78.0479 -91.4081 44.405 -77.4954 -91.512 43.6297 -76.9362 -91.5111 42.8488 
-76.3593 -91.5107 42.0993 -75.8426 -91.8355 41.7573 -75.614 -92.4486 41.8312 
-75.5913 -93.1135 41.9229 -78.0633 -91.6076 45.9661 -78.2932 -91.8635 46.38 
-77.5945 -91.5328 45.2706 -76.9659 -91.5563 44.5151 -76.4144 -91.5089 43.8473 
[...]
CELL_DATA 2000
SCALARS Distance double
LOOKUP_TABLE default
137.576 137.851 137.569 137.298 138.152 137.842 137.475 137.213 136.825 
138.181 138.013 137.563 137.334 136.889 136.643 136.19 137.918 137.875 
137.442 137.297 136.844 136.664 136.238 136.01 135.603 137.77 137.669 
137.359 137.174 136.759 136.573 136.18 136.025 135.654 135.46 135.082 
137.8 137.669 137.429 137.219 136.849 136.573 136.163 135.956 135.583 
135.436 135.055 134.894 134.494 137.748 137.662 137.367 137.267 136.914 
136.707 136.298 136.03 135.631 135.392 135.007 134.817 134.438 134.276 
133.911 137.683 137.555 137.209 137.107 136.749 136.657 136.319 136.167 
135.844 135.576 135.224 134.895 134.536 134.269 133.954 133.758 133.472 
137.745 137.563 137.238 137.011 136.627 136.466 136.154 136.098 135.901 
135.799 135.576 135.269 134.937 134.532 134.195 133.883 133.61 133.395 
133.144 137.791 138.297 138.045 138.113 138.932 138.632 138.729 138.462 
138.51 139.54 139.256 139.313 139.086 139.095 138.786 138.596 139.904 
139.696 139.58 139.481 139.367 139.208 138.915 138.612 138.24 139.956 
139.821 139.523 139.49 139.283 139.258 138.975 138.79 138.439 138.192 
137.971 139.869 139.75 139.445 139.354 139.179 139.14 139.041 138.9 
138.769 138.493 138.381 138.106 138.037 139.86 139.727 139.549 139.387 
139.279 139.163 139.177 139.094 139.174 138.99 139.011 138.678 138.596 
138.23 138.08 139.916 139.824 139.76 139.618 139.547 139.371 139.301 
139.224 139.257 139.291 139.339 139.243 139.117 138.803 138.557 138.2 
137.996 139.858 139.873 139.865 139.844 139.83 139.676 139.533 139.334 
139.193 139.193 139.169 139.281 139.172 139.103 138.814 138.582 138.314 
138.085 137.954 139.696 139.459 139.673 139.827 139.25 139.512 139.787 
139.888 139.913 138.982 139.308 139.616 139.832 139.87 139.849 139.624 
138.521 138.915 139.158 139.532 139.607 139.728 139.505 139.421 139.189 
137.883 138.295 138.444 138.913 139.075 139.394 139.345 139.335 139.139 
139.076 139.056 137.202 137.584 137.696 138.144 138.359 138.821 138.981 
139.186 139.093 139.057 138.919 138.981 138.984 136.575 136.919 137.03 
137.426 137.611 138.097 138.298 138.72 138.707 138.876 138.647 138.726 
138.544 138.74 138.638 136.01 136.33 136.428 136.784 136.896 137.328 
137.44 137.923 137.933 138.295 138.12 138.303 138.092 138.254 138.148 
138.337 138.245 135.466 135.781 135.862 136.189 136.241 136.592 136.609 
137.025 137.033 137.457 137.417 137.718 137.63 137.822 137.787 137.953 
137.962 138.066 138.003 137.872 137.831 137.803 137.529 137.609 137.643 
137.335 137.248 136.717 137.361 137.374 137.031 136.958 136.391 136.236 
135.626 137.035 137.066 136.707 136.659 136.121 135.926 135.319 135.173 
134.703 136.585 136.627 136.229 136.277 135.813 135.705 135.152 134.96 
134.481 134.369 133.968 136.201 136.168 135.735 135.753 135.321 135.332 
134.868 134.796 134.335 134.212 133.773 133.641 133.176 135.922 135.864 
135.459 135.363 134.914 134.854 134.404 134.406 133.977 133.978 133.53 
133.448 132.952 132.812 132.324 135.588 135.595 135.235 135.157 134.707 
134.561 134.051 133.954 133.477 133.497 133.044 133.076 132.574 132.532 
132.023 131.955 131.527 135.183 135.222 134.878 134.883 134.465 134.367 
133.845 133.676 133.136 133.035 132.558 132.547 132.07 132.064 131.564 
131.565 131.132 131.162 130.825 137.713 137.359 137.474 137.181 136.571 
136.933 136.667 136.799 136.472 135.55 136.015 135.863 136.154 135.899 
136.085 135.927 134.676 135.07 135.017 135.345 135.229 135.492 135.458 
135.707 135.737 133.897 134.272 134.222 134.574 134.511 134.838 134.888 
135.244 135.367 135.609 135.551 133.023 133.418 133.311 133.741 133.66 
134.08 134.091 134.572 134.686 135.124 135.083 135.268 134.96 132.159 
132.495 132.356 132.776 132.715 133.169 133.149 133.651 133.676 134.229 
134.179 134.595 134.331 134.512 134.151 131.421 131.685 131.547 131.882 
131.864 132.277 132.314 132.733 132.721 133.162 133.079 133.542 133.365 
133.738 133.491 133.722 133.493 130.782 131.013 130.87 131.141 131.106 
131.495 131.588 131.995 132.037 132.344 132.241 132.534 132.384 132.752 
132.623 132.989 132.866 133.139 133.004 130.4 129.805 130.224 130.464 
129.124 129.574 129.843 130.314 130.686 128.467 128.894 129.198 129.698 
130.183 130.701 131.215 127.865 128.288 128.601 129.085 129.606 130.204 
130.802 131.295 131.71 127.217 127.692 128.007 128.493 128.937 129.566 
130.126 130.764 131.171 131.624 131.848 126.631 127.059 127.424 127.896 
128.297 128.851 129.313 129.958 130.36 130.935 131.188 131.647 131.891 
126.402 126.63 127.047 127.414 127.885 128.297 128.737 129.199 129.602 
130.117 130.475 130.972 131.313 131.773 132.137 126.486 126.572 126.944 
127.19 127.689 128.018 128.487 128.795 129.183 129.528 129.925 130.357 
130.79 131.249 131.673 132.101 132.464 126.533 126.643 126.897 127.111 
127.51 127.841 128.281 128.597 128.956 129.234 129.581 129.926 130.342 
130.772 131.202 131.643 132.009 132.402 132.669 130.193 129.611 129.829 
129.616 128.967 129.179 128.982 129.201 128.94 128.491 128.539 128.244 
128.474 128.233 128.48 128.238 128.329 128.177 127.741 127.76 127.417 
127.66 127.424 127.755 127.561 128.299 128.105 127.641 127.429 126.938 
126.908 126.556 126.828 126.631 127.033 126.862 128.174 128.044 127.627 
127.418 126.918 126.652 126.172 126.106 125.839 126.091 125.987 126.356 
126.283 128.04 127.896 127.509 127.371 126.971 126.728 126.268 125.979 
125.626 125.552 125.463 125.646 125.721 125.989 126.109 128.042 127.838 
127.482 127.297 126.959 126.77 126.393 126.134 125.743 125.525 125.32 
125.332 125.398 125.604 125.808 126.044 126.25 128.126 127.92 127.592 
127.359 127.004 126.788 126.419 126.211 125.812 125.604 125.25 125.184 
125.051 125.253 125.365 125.714 125.901 126.2 126.326 134.848 134.205 
134.521 134.511 133.535 133.85 133.809 134.153 134.101 132.791 133.138 
133.041 133.397 133.287 133.647 133.489 131.89 132.276 132.082 132.5 
132.318 132.748 132.572 132.953 132.769 131.003 131.311 131.015 131.4 
131.16 131.659 131.527 132.01 131.885 132.264 132.155 130.303 130.515 
130.223 130.415 130.148 130.508 130.438 130.959 130.953 131.397 131.299 
131.678 131.603 129.645 129.886 129.687 129.813 129.572 129.716 129.619 
129.981 130.02 130.471 130.41 130.794 130.661 131.092 131.058 128.971 
129.224 129.068 129.29 129.101 129.257 129.104 129.321 129.263 129.599 
129.524 129.883 129.754 130.147 130.11 130.59 130.663 128.428 128.595 
128.415 128.634 128.463 128.708 128.562 128.802 128.668 128.912 128.765 
129.04 128.918 129.271 129.272 129.717 129.843 130.309 130.442 134.953 
134.968 134.75 134.328 134.958 134.761 134.301 134.086 133.648 134.821 
134.693 134.222 134.026 133.529 133.365 132.906 134.61 134.507 134.059 
133.901 133.391 133.215 132.718 132.573 132.073 134.446 134.31 133.883 
133.735 133.267 133.081 132.585 132.399 131.908 131.728 131.236 134.334 
134.18 133.758 133.597 133.156 132.973 132.499 132.296 131.801 131.599 
131.109 130.927 130.481 134.188 134.068 133.667 133.511 133.077 132.883 
132.404 132.202 131.704 131.506 130.994 130.799 130.307 130.171 129.752 
133.98 133.899 133.537 133.425 133.032 132.841 132.366 132.123 131.618 
131.402 130.907 130.697 130.196 130.001 129.551 129.438 129.078 133.774 
133.689 133.348 133.277 132.938 132.804 132.381 132.134 131.633 131.36 
130.876 130.639 130.172 129.939 129.493 129.3 128.942 128.832 128.558 
133.568 133.098 133.252 133.117 132.575 132.744 132.592 132.812 132.704 
132.014 132.172 131.979 132.23 132.098 132.353 132.163 131.499 131.597 
131.327 131.552 131.367 131.664 131.457 131.702 131.419 131.024 131.089 
130.745 130.885 130.622 130.88 130.655 130.935 130.671 130.91 130.639 
130.478 130.586 130.234 130.327 130.013 130.167 129.903 130.133 129.876 
130.133 129.875 130.143 129.913 129.856 130.007 129.706 129.824 129.527 
129.623 129.327 129.454 129.153 129.345 129.065 129.339 129.116 129.423 
129.236 129.275 129.412 129.145 129.288 129.011 129.132 128.831 128.931 
128.585 128.68 128.326 128.519 128.28 128.603 128.476 128.801 128.7 
128.815 128.901 128.629 128.736 128.423 128.554 128.237 128.393 128.071 
128.164 127.783 127.85 127.544 127.78 127.679 128.051 128.041 128.364 
128.332 128.534 128.028 128.282 128.291 127.413 127.683 127.582 127.937 
127.962 126.843 127.044 126.893 127.162 127.146 127.591 127.735 126.443 
126.581 126.502 126.613 126.626 126.89 127.072 127.473 127.653 125.948 
126.164 126.097 126.296 126.332 126.55 126.698 126.957 127.073 127.37 
127.407 125.366 125.53 125.312 125.664 125.628 126.098 126.181 126.565 
126.57 126.821 126.776 127.066 127.135 125.241 125.083 124.78 124.846 
124.731 125.162 125.276 125.826 125.91 126.27 126.275 126.529 126.669 
126.985 127.292 125.676 125.302 125.076 124.712 124.572 124.525 124.672 
124.992 125.282 125.649 125.878 126.143 126.408 126.679 127.058 127.354 
127.731 126.183 125.88 125.723 125.292 125.121 124.764 124.806 124.761 
125.073 125.273 125.659 125.896 126.257 126.503 126.88 127.163 127.521 
127.792 128.069 128.578 128.536 128.401 128.103 128.562 128.354 128.01 
127.894 127.55 128.731 128.411 127.955 127.762 127.366 127.27 126.933 
129.042 128.649 128.127 127.753 127.226 127.033 126.671 126.667 126.439 
129.39 128.999 128.531 128.051 127.504 127.052 126.631 126.442 126.243 
126.243 126.032 129.776 129.376 128.99 128.536 128.124 127.572 127.193 
126.703 126.475 126.204 126.051 125.878 125.631 130.252 129.831 129.49 
129.049 128.731 128.261 127.979 127.463 127.201 126.704 126.472 126.09 
125.91 125.623 125.517 130.719 130.346 130.047 129.612 129.293 128.854 
128.575 128.169 127.907 127.454 127.137 126.652 126.385 126.025 125.954 
125.733 125.831 131.076 130.782 130.525 130.162 129.85 129.417 129.089 
128.686 128.413 128.039 127.753 127.303 126.998 126.564 126.422 126.171 
126.248 126.129 126.277 128.92 129.672 129.146 128.939 130.633 130.05 
129.808 129.223 129.028 131.381 130.965 130.75 130.178 129.92 129.355 
129.209 131.979 131.595 131.454 131.026 130.804 130.271 130.071 129.574 
129.488 132.9 132.32 132.204 131.722 131.619 131.129 130.993 130.468 
130.359 129.877 129.821 133.956 133.373 133.218 132.629 132.545 132.016 
131.971 131.438 131.371 130.818 130.749 130.234 130.203 134.696 134.297 
134.136 133.64 133.502 132.996 132.926 132.43 132.378 131.852 131.775 
131.225 131.155 130.648 130.641 135.252 134.92 134.813 134.428 134.319 
133.889 133.798 133.341 133.261 132.793 132.709 132.216 132.119 131.608 
131.529 131.069 131.053 135.856 135.508 135.451 135.088 135.047 134.663 
134.618 134.183 134.096 133.631 133.532 133.078 132.986 132.52 132.416 
131.937 131.845 131.421 131.381 136.197 136.606 136.2 135.803 137.031 
136.618 136.227 135.817 135.425 137.413 137.031 136.631 136.24 135.845 
135.44 135.017 137.649 137.366 136.972 136.619 136.207 135.824 135.366 
134.964 134.478 137.667 137.503 137.154 136.906 136.495 136.148 135.657 
135.259 134.737 134.359 133.877 137.567 137.432 137.074 136.961 136.586 
136.367 135.879 135.516 134.967 134.586 134.089 133.758 133.32 137.502 
137.323 136.921 136.807 136.469 136.362 135.947 135.684 135.139 134.785 
134.262 133.947 133.492 133.197 132.758 137.486 137.3 136.942 136.741 
136.45 136.291 135.978 135.741 135.264 134.925 134.395 134.086 133.622 
133.344 132.897 132.606 132.173 137.475 137.331 137.074 136.871 136.639 
136.419 136.157 135.876 135.456 135.081 134.561 134.214 133.755 133.471 
133.05 132.753 132.328 132.038 131.671 137.383 137.118 137.197 137.032 
136.639 136.847 136.727 136.834 136.644 135.964 136.23 136.105 136.394 
136.247 136.389 136.123 135.35 135.531 135.337 135.644 135.487 135.8 
135.532 135.712 135.326 134.841 134.966 134.711 134.9 134.679 134.958 
134.693 134.953 134.585 134.778 134.389 134.274 134.434 134.153 134.306 
134.023 134.207 133.918 134.124 133.814 134.015 133.7 133.881 133.594 
133.687 133.831 133.536 133.697 133.39 133.563 133.245 133.416 133.106 
133.298 133.022 133.224 132.96 133.149 132.887 133.23 133.292 132.985 
133.083 132.779 132.924 132.621 132.769 132.447 132.613 132.314 132.532 
132.261 132.487 132.211 132.422 132.16 132.894 132.904 132.586 132.605 
132.303 132.379 132.109 132.207 131.908 131.999 131.678 131.827 131.55 
131.767 131.526 131.745 131.519 131.722 131.523 131.167 131.135 130.982 
130.634 131.091 130.925 130.543 130.405 129.984 131.089 130.87 130.451 
130.289 129.856 129.69 129.228 131.247 130.935 130.509 130.244 129.82 
129.594 129.152 128.953 128.54 131.53 131.19 130.787 130.419 129.997 
129.663 129.242 128.958 128.534 128.316 127.902 131.767 131.487 131.118 
130.758 130.322 129.93 129.489 129.136 128.701 128.384 127.924 127.66 
127.206 131.975 131.709 131.368 131.058 130.633 130.258 129.796 129.42 
128.989 128.624 128.187 127.804 127.364 127.029 126.679 132.274 131.965 
131.64 131.309 130.909 130.544 130.099 129.726 129.323 128.961 128.595 
128.185 127.803 127.365 127.048 126.696 126.515 132.605 132.301 131.974 
131.621 131.215 130.834 130.391 130.021 129.626 129.301 128.977 128.633 
128.295 127.875 127.53 127.14 126.906 126.633 126.514 139.936 140.016 
140.051 140.098 140.024 140.089 140.147 140.121 139.988 140.155 140.177 
140.27 140.175 140.036 139.874 139.583 140.289 140.368 140.508 140.388 
140.248 139.991 139.694 139.448 139.132 140.085 140.334 140.41 140.505 
140.357 140.22 139.92 139.651 139.305 139.032 138.695 139.528 139.864 
139.797 140.094 139.897 140.065 139.801 139.794 139.47 139.25 138.847 
138.564 138.184 138.864 139.175 139.067 139.352 139.143 139.39 139.17 
139.413 139.199 139.263 138.9 138.704 138.254 138.018 137.653 138.241 
138.507 138.428 138.675 138.517 138.699 138.504 138.727 138.579 138.808 
138.565 138.593 138.172 138.03 137.603 137.463 137.12 137.729 137.928 
137.83 138.064 137.922 138.128 137.951 138.145 137.996 138.206 138.024 
138.154 137.826 137.817 137.403 137.331 136.947 136.875 136.531 139.824 
139.997 139.838 139.583 139.838 139.87 139.591 139.464 139.107 139.391 
139.532 139.23 139.258 138.853 138.829 138.453 138.938 139.061 138.791 
138.819 138.419 138.425 138.052 138.104 137.769 138.49 138.634 138.414 
138.448 138.091 138.033 137.662 137.675 137.374 137.415 137.072 137.968 
138.144 137.927 138.053 137.715 137.719 137.306 137.307 136.958 137.012 
136.678 136.696 136.312 137.456 137.605 137.353 137.499 137.14 137.23 
136.783 136.855 136.445 136.547 136.192 136.269 135.898 135.921 135.541 
136.947 137.093 136.799 136.911 136.509 136.593 136.136 136.236 135.836 
135.973 135.65 135.768 135.449 135.501 135.152 135.168 134.822 136.378 
136.549 136.249 136.352 135.941 135.986 135.537 135.603 135.24 135.372 
135.114 135.255 135.014 135.09 134.799 134.808 134.48 134.478 134.167 
139.632 139.337 139.4 139.251 138.935 139.046 138.833 138.975 138.921 
138.409 138.613 138.429 138.538 138.401 138.643 138.645 137.759 138.051 
137.91 138.085 137.898 138.105 138.045 138.344 138.287 137.022 137.356 
137.217 137.48 137.272 137.515 137.38 137.703 137.636 137.922 137.744 
136.259 136.594 136.474 136.763 136.589 136.835 136.665 136.966 136.863 
137.211 137.075 137.322 137.079 135.51 135.838 135.758 136.059 135.946 
136.188 136.036 136.267 136.136 136.431 136.327 136.623 136.459 136.668 
136.447 134.791 135.107 135.04 135.363 135.279 135.562 135.427 135.661 
135.512 135.756 135.654 135.929 135.834 136.068 135.909 136.08 135.888 
134.134 134.414 134.346 134.656 134.579 134.879 134.753 135.019 134.865 
135.125 135.006 135.291 135.209 135.477 135.353 135.552 135.364 135.529 
135.336 129.07 129.561 129.442 129.817 130.168 130.009 130.389 130.315 
130.754 130.826 130.668 131.019 130.899 131.263 131.191 131.488 131.394 
131.305 131.648 131.52 131.827 131.689 131.962 131.832 132.11 131.849 
131.81 132.163 132.09 132.403 132.268 132.573 132.405 132.78 132.614 
133.063 132.329 132.262 132.627 132.566 132.903 132.812 133.139 133.036 
133.427 133.338 133.798 133.688 134.108 132.868 132.781 133.161 133.074 
133.427 133.317 133.622 133.535 133.851 133.845 134.213 134.254 134.603 
134.568 134.815 133.37 133.308 133.688 133.627 133.985 133.872 134.151 
134.011 134.249 134.175 134.455 134.498 134.831 134.896 135.19 135.145 
135.359 133.814 133.769 134.124 134.104 134.451 134.392 134.664 134.536 
134.745 134.598 134.835 134.767 135.106 135.128 135.514 135.513 135.836 
135.727 135.968 
POINT_DATA 1002
SCALARS Distance double
LOOKUP_TABLE default
137.349 137.572 137.81 137.551 138.195 136.995 137.783 138.48 137.093 
136.389 137.779 138.286 137.128 136.448 135.734 137.561 137.907 136.987 
136.418 135.851 135.228 137.542 137.863 136.975 136.316 135.809 135.305 
134.715 137.604 137.937 137.145 136.432 135.746 135.197 134.665 134.103 
137.447 137.863 137.053 136.548 135.917 135.234 134.592 134.06 133.57 
137.358 137.831 136.823 136.373 136.038 135.58 134.861 134.157 133.648 
133.202 137.504 137.903 136.854 136.205 135.885 135.781 135.37 134.582 
133.849 133.337 132.894 137.992 138.336 138.566 138.996 139.237 138.858 
139.539 139.847 139.407 139.024 139.704 140.165 139.499 139.197 138.527 
139.597 140.11 139.271 139.081 138.649 138.144 139.545 139.954 139.197 
139.072 138.973 138.689 138.313 139.684 139.943 139.421 139.223 139.241 
139.313 139.034 138.443 139.848 139.959 139.751 139.473 139.212 139.322 
139.385 138.934 138.296 139.815 139.802 139.935 139.807 139.321 139.048 
139.139 138.993 138.518 138.13 139.474 139.732 139.174 139.633 138.945 
139.998 139.349 138.655 139.868 139.746 138.743 138.167 139.383 139.572 
139.2 137.977 137.508 138.615 139.229 139.237 138.984 137.27 136.83 
137.843 138.622 139.094 138.952 138.823 136.658 136.239 137.165 137.827 
138.445 138.586 138.406 138.406 136.096 135.697 136.53 136.994 137.5 
137.857 137.921 137.951 138.09 135.551 135.152 135.942 136.252 136.583 
137.019 137.378 137.595 137.819 137.98 137.735 137.697 137.156 137.416 
136.894 136.101 137.113 136.566 135.715 135.062 136.71 136.3 135.499 
134.743 134.304 136.156 135.823 135.317 134.64 134.061 133.538 135.77 
135.283 134.857 134.431 133.936 133.324 132.666 135.573 135.037 134.423 
133.932 133.569 133.086 132.448 131.858 135.272 134.862 134.223 133.509 
132.991 132.574 132.063 131.559 131.165 134.846 134.517 134.016 133.296 
132.606 132.078 131.558 131.075 130.763 130.549 137.187 136.457 136.358 
135.486 135.647 135.692 134.662 134.904 135.137 135.546 133.85 134.156 
134.475 135.053 135.505 132.866 133.217 133.609 134.191 134.815 134.931 
131.955 132.247 132.683 133.156 133.683 134.038 134.024 131.242 131.445 
131.901 132.361 132.648 132.905 133.153 133.296 130.633 130.736 131.14 
131.725 132.025 132.051 132.199 132.518 132.784 130.018 130.024 129.375 
129.324 128.675 130.183 128.682 128.045 129.587 130.781 128.136 127.416 
128.986 130.246 131.38 127.526 126.71 128.359 129.468 130.667 131.469 
126.943 126.243 127.805 128.729 129.744 130.672 131.425 126.706 126.257 
127.495 128.358 129.126 129.937 130.82 131.696 126.755 126.446 127.371 
128.202 128.901 129.522 130.316 131.234 132.091 126.729 126.426 127.208 
127.952 128.689 129.279 129.943 130.768 131.607 132.332 130.014 129.457 
129.365 128.718 128.82 128.772 128.081 128.574 127.935 127.996 127.879 
128.536 127.265 127.053 127.225 127.905 128.457 127.144 126.409 126.21 
126.461 127.772 128.295 127.209 126.407 125.704 125.606 125.897 127.623 
128.203 127.135 126.572 125.83 125.348 125.438 125.828 127.689 128.234 
127.136 126.608 126.002 125.402 125.212 125.547 126.05 127.837 128.306 
127.253 126.625 126.027 125.412 124.942 125.002 125.547 126.107 134.547 
134.173 133.895 133.484 133.227 133.771 132.703 132.445 132.936 133.156 
131.681 131.548 131.863 132.155 132.408 130.707 130.755 130.657 130.96 
131.469 131.781 130.084 130.071 129.881 129.907 130.449 130.942 131.176 
129.503 129.362 129.475 129.363 129.589 130.024 130.266 130.544 128.808 
128.745 128.893 128.936 129.014 129.187 129.363 129.634 130.152 135.161 
134.542 135.203 134.539 135.133 133.822 134.409 134.921 133.719 133.048 
134.191 134.719 133.577 132.879 132.229 134.02 134.602 133.439 132.787 
132.089 131.408 133.921 134.481 133.335 132.697 132.014 131.303 130.619 
133.804 134.281 133.279 132.62 131.897 131.204 130.479 129.825 133.613 
134.047 133.196 132.625 131.853 131.107 130.412 129.7 129.129 133.408 