# vtk DataFile Version 4.0
vtk output
ASCII
DATASET POLYDATA
POINTS 1002 float
-79.4626 -97.0339 60.221 -79.7156 -97.6483 60.5402 -80.2561 -97.3696 60.3372 
-80.0899 -96.9093 59.7591 -80.852 -97.1259 59.9902 -79.2982 -96.713 59.5125 
-80.7547 -96.8271 59.1769 -81.4297 -96.871 59.5632 -79.9837 -96.7649 58.7586 
-79.1935 -96.7136 58.3459 -81.2732 -96.5834 58.7355 -81.8998 -96.6652 59.0085 
-80.615 -96.6299 58.1826 -79.8181 -96.6054 57.6878 -79.0127 -96.3703 57.4332 
-81.6653 -96.3109 58.2075 -82.3088 -96.612 58.2202 -81.0779 -96.1662 57.9081 
-80.3842 -96.08 57.4476 -79.5419 -95.8434 57.1961 -78.7212 -95.4559 57.1261 
-82.1071 -96.2055 57.3804 -82.8055 -96.5208 57.4482 -81.5062 -95.8251 57.3542 
-80.9245 -95.4608 57.2223 -80.1202 -95.137 57.0709 -79.2252 -94.8795 56.9214 
-78.4019 -94.7212 56.6858 -82.6063 -96.0762 56.6491 -83.3436 -96.2713 56.8891 
-81.921 -95.7605 56.5325 -81.3952 -95.2584 56.5542 -80.7056 -94.7575 56.5739 
-79.7867 -94.4576 56.4777 -78.908 -94.3714 56.1927 -78.11 -94.3735 55.8643 
-83.044 -95.8672 56.1226 -83.736 -96.1018 56.3245 -82.2774 -95.643 55.9224 
-81.7103 -95.1953 55.8804 -81.1132 -94.6437 55.8914 -80.2711 -94.286 55.8061 
-79.4067 -94.1034 55.6296 -78.6141 -93.9936 55.3999 -77.8344 -93.9195 55.2354 
-83.4069 -95.6993 55.5845 -83.9902 -96.0552 55.7069 -82.65 -95.428 55.4236 
-82.0449 -94.9775 55.3895 -81.4799 -94.3721 55.4204 -80.6665 -94.0105 55.2665 
-79.8348 -93.8742 55.0464 -79.1217 -93.6677 54.9494 -78.3604 -93.4555 54.9099 
-77.5822 -93.3724 54.8682 -83.768 -95.4866 55.1241 -84.2422 -95.9181 55.239 
-83.0753 -95.1715 54.9542 -82.4626 -94.7415 54.8909 -81.9522 -94.0928 54.9811 
-81.1731 -93.6262 54.8851 -80.2591 -93.554 54.536 -79.5685 -93.4707 54.3301 
-78.92 -93.2025 54.3636 -78.1454 -93.0217 54.4196 -77.4087 -93.0515 54.3948 
-80.2996 -98.0388 60.7913 -80.8574 -97.6876 60.634 -80.8221 -98.2887 61.1444 
-81.4265 -97.8778 61.0103 -81.2477 -98.5377 61.4033 -81.4542 -97.2985 60.3847 
-81.9415 -98.1005 61.2691 -81.6652 -98.9181 61.5132 -82.1113 -97.4335 60.7718 
-82.0714 -96.9902 59.9033 -82.4116 -98.4877 61.3018 -82.1561 -99.3162 61.6228 
-82.7323 -97.6773 60.9719 -82.7796 -97.1993 60.1417 -82.5622 -96.9236 59.1014 
-82.9084 -98.9738 61.1645 -82.6902 -99.6922 61.6653 -83.2301 -98.111 60.8614 
-83.3773 -97.523 60.229 -83.2092 -97.2331 59.1944 -82.9765 -96.9372 58.2322 
-83.4485 -99.491 60.9869 -83.1524 -100.139 61.5423 -83.6846 -98.6776 60.5794 
-83.8276 -97.9957 60.0872 -83.7765 -97.5476 59.268 -83.6166 -97.1637 58.3757 
-83.5055 -96.7198 57.5994 -83.8747 -99.982 60.8913 -83.4651 -100.603 61.3742 
-84.1003 -99.2318 60.3981 -84.1985 -98.5563 59.8495 -84.2929 -97.9849 59.1601 
-84.2879 -97.4162 58.4391 -84.1487 -96.9211 57.7333 -83.9831 -96.4939 57.0047 
-84.1006 -100.425 60.7865 -83.6828 -101.021 61.1972 -84.3669 -99.6893 60.2663 
-84.4795 -99.0284 59.6184 -84.6736 -98.4853 58.8965 -84.9099 -97.8506 58.2789 
-84.8272 -97.2712 57.7142 -84.4956 -96.8965 57.0053 -84.2247 -96.519 56.2751 
-84.231 -100.867 60.5298 -83.8922 -101.416 60.9433 -84.5072 -100.13 59.9703 
-84.6995 -99.4196 59.2832 -84.9389 -98.9036 58.5495 -85.3091 -98.3465 57.9767 
-85.4606 -97.7214 57.5848 -85.1191 -97.3313 57.0336 -84.6494 -97.0453 56.2725 
-84.3946 -96.5548 55.6335 -84.29 -101.51 60.3135 -84.5623 -100.822 59.6961 
-84.6304 -101.478 59.4732 -84.9965 -100.692 58.7498 -85.04 -101.253 58.6512 
-84.8752 -100.004 58.9694 -85.6686 -100.56 58.1267 -85.5888 -100.999 57.9326 
-85.5419 -99.9876 58.1216 -85.2253 -99.3787 58.2543 -86.3516 -100.5 57.5758 
-85.9981 -100.83 57.0283 -86.3932 -100.093 57.7264 -86.034 -99.4712 57.6037 
-85.6156 -98.8529 57.6794 -86.6351 -100.42 56.5063 -85.965 -100.673 55.9702 
-87.0036 -100.121 57.0268 -86.8115 -99.4957 57.1627 -86.3709 -98.7362 57.1747 
-85.9437 -98.1599 57.3565 -86.4285 -100.302 55.381 -85.6188 -100.557 55.185 
-87.1073 -100.004 55.7682 -87.2401 -99.3335 56.1813 -86.9962 -98.4654 56.5206 
-86.522 -97.8893 56.8326 -85.8238 -97.6168 56.9924 -85.9121 -100.185 54.7997 
-85.2307 -100.496 54.6366 -86.6518 -99.8681 54.9152 -87.0399 -99.2085 55.1205 
-87.148 -98.28 55.4839 -86.9392 -97.6146 55.9753 -86.1928 -97.4247 56.2801 
-85.2709 -97.3379 56.2786 -85.3285 -99.9749 54.3428 -84.9178 -100.353 53.9742 
-85.8362 -99.6485 54.5705 -86.1946 -99.1219 54.6732 -86.4875 -98.331 54.7588 
-86.6883 -97.5875 55.0159 -86.3525 -97.1899 55.3674 -85.5323 -97.0516 55.5248 
-84.8087 -96.8745 55.5339 -84.9163 -99.6735 53.5668 -84.7157 -100.098 53.1627 
-85.1233 -99.3028 53.9795 -85.271 -98.8685 54.2836 -85.4784 -98.2942 54.3918 
-85.7876 -97.6704 54.4106 -85.8693 -97.1122 54.5448 -85.5309 -96.6707 54.7812 
-85.0336 -96.3518 54.9673 -84.6128 -96.1126 55.0936 -84.3115 -95.283 54.8748 
-84.7096 -95.3786 54.7212 -84.3296 -94.5981 54.4957 -84.9156 -95.745 54.427 
-84.6325 -94.7686 54.1918 -84.1981 -94.1501 53.8769 -85.0195 -96.3515 54.089 
-84.5489 -95.3439 53.7116 -84.3486 -94.501 53.3508 -83.8393 -93.9884 52.9859 
-85.091 -96.9668 53.9025 -84.4841 -96.035 53.3396 -84.13 -95.125 52.8547 
-83.8485 -94.4331 52.4511 -83.1948 -93.9177 52.1018 -85.0082 -97.4967 53.8288 
-84.7075 -96.5694 53.0777 -84.2042 -95.6842 52.4816 -83.6306 -95.0059 52.1286 
-83.1029 -94.4064 51.8049 -82.3814 -93.8409 51.4343 -84.8182 -98.0418 53.655 
-84.7911 -97.1007 52.7388 -84.5758 -96.1926 51.9808 -83.7675 -95.5539 51.7205 
-82.9484 -95.0205 51.6221 -82.3412 -94.3727 51.2493 -81.6823 -93.7707 50.8342 
-84.7469 -98.5935 53.2952 -84.631 -97.774 52.3906 -84.5645 -96.8667 51.5722 
-83.9524 -96.1265 51.211 -83.0062 -95.6301 51.2494 -82.3208 -95.0113 51.0597 
-81.8265 -94.2683 50.5138 -81.2557 -93.6923 50.171 -84.7569 -99.0856 52.8509 
-84.5773 -98.4678 52.0789 -84.3163 -97.6887 51.4799 -83.7751 -96.8054 51.0939 
-83.0041 -96.165 50.9206 -82.3381 -95.6351 50.7719 -81.9023 -94.8953 50.3042 
-81.5228 -94.162 49.7606 -81.0368 -93.6463 49.5905 -84.6809 -99.5452 52.4909 
-84.5814 -99.0596 51.8093 -84.2189 -98.4877 51.4125 -83.5641 -97.6256 51.2146 
-82.8905 -96.7651 50.8784 -82.3743 -96.1928 50.4676 -81.9461 -95.599 50.0797 
-81.5869 -94.845 49.6209 -81.2637 -94.1942 49.27 -80.8588 -93.715 49.2071 
-83.7249 -94.8819 54.6914 -83.6405 -94.2633 54.2578 -82.9995 -94.5591 54.4842 
-83.3712 -93.869 53.6196 -82.8056 -93.9899 54.0396 -82.4092 -94.0455 54.4594 
-82.849 -93.6577 52.6777 -82.306 -93.6287 53.3113 -82.0092 -93.5825 53.86 
-81.7033 -93.4771 54.4179 -82.171 -93.4475 51.7375 -81.7343 -93.2543 52.2328 
-81.3639 -93.2251 52.8242 -81.0985 -93.2028 53.442 -80.7045 -93.2754 54.0233 
-81.4721 -93.2978 51.1083 -81.2914 -92.8316 51.3853 -81.0254 -92.5803 51.7692 
-80.6114 -92.6937 52.33 -80.1978 -92.99 52.9407 -79.8703 -93.2576 53.6144 
-80.8787 -93.2563 50.6154 -80.7447 -92.6679 50.9725 -80.7704 -92.0358 51.2428 
-80.4511 -91.8372 51.7119 -79.8705 -92.2348 52.2418 -79.4899 -92.7607 52.78 
-79.2431 -93.0402 53.5573 -80.5287 -93.2121 50.0693 -80.1507 -92.6731 50.53 
-80.1543 -91.9747 50.8284 -80.0784 -91.4253 51.3326 -79.5586 -91.46 51.9796 
-79.0512 -92.0117 52.3617 -78.7908 -92.5465 52.8296 -78.5089 -92.8139 53.6535 
-80.3884 -93.1863 49.5538 -79.8362 -92.6228 49.9205 -79.574 -92.0393 50.1283 
-79.5099 -91.5523 50.5661 -79.1741 -91.3461 51.4226 -78.6609 -91.5727 52.04 
-78.3362 -92.1066 52.2958 -78.0867 -92.5796 52.8317 -77.7446 -92.8424 53.6848 
-80.3759 -93.5242 49.0241 -79.872 -92.8119 49.2661 -79.7516 -93.3675 48.6953 
-79.3571 -92.5734 48.8123 -79.0447 -93.4482 48.3842 -79.4071 -92.1428 49.3649 
-78.7834 -92.8062 48.5913 -78.3146 -93.8792 48.4149 -79.1196 -92.0245 48.8768 
-79.2121 -91.7504 49.5435 -77.9219 -93.3609 48.7234 -77.5033 -94.3618 48.6283 
-78.5963 -92.4718 48.9372 -78.9644 -91.9936 49.3848 -78.982 -91.6661 50.3591 
-76.8246 -93.7518 48.8008 -76.5839 -94.6341 48.7324 -77.4775 -93.0347 49.146 
-78.3011 -92.625 49.654 -78.5787 -92.2379 50.3906 -78.5027 -91.7563 51.3496 
-75.8659 -94.0431 48.8737 -75.6209 -94.8431 48.8645 -76.2797 -93.418 49.136 
-77.0884 -93.1757 49.7015 -77.847 -92.926 50.3818 -78.0667 -92.4378 51.1181 
-78.0788 -92.0682 51.7989 -75.0662 -94.4679 49.1777 -74.695 -95.1095 49.0687 
-75.4597 -93.8582 49.345 -75.9904 -93.5696 49.7173 -76.7293 -93.4181 50.3008 
-77.36 -93.0747 50.955 -77.6224 -92.7134 51.582 -77.7627 -92.5544 52.2018 
-74.3221 -94.8903 49.5041 -73.9702 -95.4056 49.232 -74.7177 -94.3281 49.7798 
-75.1212 -93.9033 50.0824 -75.6379 -93.6819 50.5225 -76.2949 -93.4726 51.1047 
-76.8576 -93.2485 51.7034 -77.1527 -93.0828 52.3187 -77.3738 -92.9301 53.0142 
-73.7966 -95.2541 49.7734 -73.5579 -95.7561 49.4487 -74.023 -94.69 50.1212 
-74.2524 -94.154 50.4657 -74.6294 -93.8085 50.8867 -75.2133 -93.6592 51.4244 
-75.8633 -93.5849 51.9848 -76.3657 -93.4902 52.5518 -76.6779 -93.3123 53.2082 
-76.9817 -93.1118 53.881 -80.81 -94.2311 48.9699 -80.2406 -94.1627 48.6829 
-80.5329 -94.9139 48.899 -79.892 -94.896 48.4822 -80.2232 -95.6852 48.8754 
-79.504 -94.144 48.2594 -79.6073 -95.7241 48.4249 -80.0035 -96.5826 48.7694 
-79.1973 -94.9108 47.9923 -78.7366 -94.3256 48.0653 -79.4692 -96.7758 48.3665 
-79.8108 -97.5871 48.5402 -79.007 -95.8124 47.9816 -78.464 -95.0963 47.9432 
-78.023 -94.7647 48.3321 -79.2916 -97.85 48.1991 -79.583 -98.4562 48.3598 
-78.7959 -96.9645 48.0026 -78.0791 -96.0174 47.9348 -77.6075 -95.5027 48.2708 
-77.2233 -95.1967 48.6309 -78.9397 -98.6586 48.106 -79.2757 -99.075 48.4525 
-78.4104 -98.0338 47.9376 -77.5494 -97.1164 47.876 -76.9167 -96.3149 48.0546 
-76.6688 -95.8683 48.4696 -76.237 -95.4163 48.7451 -78.494 -99.2962 48.2201 
-78.9038 -99.5726 48.7432 -77.933 -98.8856 47.9118 -77.1079 -98.1395 47.8754 
-76.3855 -97.2386 47.9453 -76.0725 -96.5465 48.2102 -75.7389 -96.0339 48.5993 
-75.1606 -95.5351 48.8569 -78.1072 -99.8418 48.488 -78.5386 -99.9977 49.0695 
-77.5383 -99.61 48.0144 -76.8231 -99.0505 47.9458 -76.1766 -98.2101 48.1048 
-75.7914 -97.424 48.2665 -75.4041 -96.7792 48.508 -74.7805 -96.1924 48.7554 
-74.2138 -95.7218 48.9476 -77.7762 -100.19 48.9208 -78.1806 -100.28 49.4598 
-77.2488 -100.105 48.3647 -76.6152 -99.7741 48.1273 -76.0177 -99.1145 48.273 
[...]
CELL_DATA 2000
SCALARS Distance double
LOOKUP_TABLE default
138.611 138.653 138.399 137.945 138.679 138.457 138.031 137.773 137.355 
138.619 138.457 138.049 137.845 137.403 137.172 136.707 138.482 138.345 
137.915 137.781 137.311 137.138 136.609 136.41 135.852 138.357 138.19 
137.73 137.593 137.114 136.967 136.425 136.24 135.663 135.474 134.921 
138.27 138.077 137.601 137.422 136.95 136.779 136.267 136.06 135.502 
135.289 134.753 134.574 134.093 138.173 137.986 137.498 137.306 136.82 
136.643 136.138 135.933 135.384 135.16 134.623 134.43 133.944 133.787 
133.341 138.056 137.879 137.385 137.192 136.689 136.509 135.99 135.795 
135.231 135.025 134.479 134.301 133.815 133.652 133.198 133.044 132.626 
137.933 137.76 137.273 137.075 136.572 136.379 135.873 135.662 135.109 
134.872 134.321 134.134 133.665 133.523 133.094 132.932 132.518 132.365 
132.015 139.087 139.765 139.327 139.106 140.357 139.975 139.758 139.327 
139.095 140.905 140.546 140.366 139.96 139.722 139.288 139.033 141.476 
141.102 140.944 140.567 140.361 139.922 139.656 139.201 138.924 142.062 
141.678 141.498 141.138 140.951 140.551 140.291 139.834 139.545 139.089 
138.815 142.631 142.261 142.065 141.686 141.488 141.113 140.866 140.444 
140.149 139.707 139.427 138.991 138.726 143.133 142.817 142.63 142.248 
142.019 141.637 141.398 141.002 140.731 140.3 140.018 139.587 139.319 
138.894 138.625 143.523 143.276 143.084 142.753 142.473 142.121 141.853 
141.512 141.274 140.889 140.633 140.193 139.92 139.476 139.201 138.775 
138.501 143.826 143.614 143.396 143.112 142.788 142.479 142.173 141.899 
141.681 141.396 141.199 140.82 140.574 140.113 139.831 139.363 139.081 
138.645 138.372 143.934 143.826 143.752 143.426 143.61 143.558 143.195 
143.136 142.781 143.495 143.417 143.151 142.979 142.653 142.513 142.214 
143.417 143.435 143.357 143.151 142.901 142.575 142.268 142.047 141.788 
143.055 143.302 143.339 143.376 143.181 142.913 142.522 142.203 141.85 
141.656 141.352 142.461 142.803 142.851 143.138 142.966 142.972 142.522 
142.34 141.869 141.698 141.306 141.155 140.756 141.896 142.186 142.198 
142.521 142.357 142.515 142.088 142.091 141.608 141.568 141.135 141.044 
140.592 140.454 139.991 141.33 141.594 141.509 141.823 141.616 141.827 
141.417 141.521 141.062 141.147 140.72 140.747 140.273 140.208 139.704 
139.623 139.181 140.696 140.938 140.734 141.04 140.762 141.024 140.614 
140.796 140.344 140.506 140.072 140.2 139.724 139.769 139.256 139.256 
138.797 138.803 138.429 138.02 138.326 137.923 137.439 138.687 138.216 
137.67 137.297 136.801 139.094 138.57 137.926 137.497 136.956 136.633 
136.135 139.461 138.959 138.274 137.765 137.142 136.763 136.248 135.944 
135.414 139.732 139.283 138.638 138.131 137.473 136.993 136.427 136.061 
135.552 135.209 134.643 139.955 139.525 138.898 138.46 137.836 137.355 
136.757 136.308 135.79 135.4 134.88 134.467 133.908 140.135 139.738 
139.113 138.704 138.117 137.686 137.098 136.649 136.108 135.698 135.195 
134.768 134.226 133.779 133.265 140.222 139.901 139.356 138.966 138.441 
138.001 137.44 136.968 136.407 135.996 135.499 135.109 134.596 134.14 
133.619 133.19 132.77 140.272 140.003 139.572 139.247 138.82 138.404 
137.895 137.371 136.792 136.3 135.796 135.406 134.956 134.536 134.056 
133.595 133.173 132.777 132.47 137.71 137.121 137.295 137.03 136.492 
136.67 136.39 136.577 136.317 135.826 136.015 135.716 135.913 135.641 
135.858 135.606 135.061 135.282 134.929 135.175 134.866 135.134 134.844 
135.1 134.813 134.223 134.435 134.002 134.275 133.894 134.238 133.914 
134.251 133.94 134.246 133.991 133.464 133.603 133.142 133.329 132.901 
133.192 132.849 133.226 132.953 133.33 133.12 133.476 133.336 132.85 
132.92 132.492 132.575 132.157 132.296 131.938 132.199 131.948 132.325 
132.175 132.593 132.497 132.884 132.784 132.385 132.39 131.974 132.006 
131.589 131.657 131.281 131.423 131.141 131.405 131.249 131.642 131.577 
132.013 131.947 132.331 132.227 132.092 132.014 131.574 131.528 131.07 
131.098 130.713 130.827 130.56 130.732 130.574 130.827 130.775 131.131 
131.135 131.515 131.492 131.821 131.761 131.859 131.263 131.455 131.247 
130.683 130.808 130.535 130.781 130.649 130.394 130.343 130.084 130.15 
130.019 130.272 130.307 130.311 130.191 129.979 129.922 129.867 129.898 
129.973 130.13 130.269 130.077 130.034 129.777 129.841 129.859 129.941 
130.066 130.067 130.171 130.215 130.348 129.748 129.711 129.411 129.519 
129.547 129.823 130.026 130.188 130.285 130.266 130.31 130.347 130.52 
129.526 129.47 129.261 129.239 129.256 129.455 129.691 129.986 130.176 
130.313 130.374 130.39 130.499 130.592 130.85 129.395 129.369 129.274 
129.223 129.212 129.267 129.41 129.633 129.848 130.095 130.261 130.404 
130.544 130.623 130.815 130.949 131.21 129.409 129.349 129.298 129.249 
129.181 129.195 129.196 129.355 129.488 129.757 129.969 130.226 130.434 
130.61 130.789 130.915 131.098 131.26 131.482 132.118 132.378 132.034 
131.584 132.672 132.291 131.824 131.461 131.015 133.081 132.622 132.126 
131.709 131.292 130.962 130.681 133.631 133.13 132.654 132.108 131.673 
131.274 131.047 130.785 130.618 134.154 133.727 133.313 132.74 132.232 
131.71 131.395 131.131 130.995 130.745 130.481 134.515 134.191 133.81 
133.358 132.802 132.248 131.731 131.399 131.153 131.013 130.784 130.502 
130.135 134.783 134.491 134.121 133.763 133.254 132.744 132.16 131.7 
131.316 131.101 130.872 130.695 130.372 130.093 129.763 135.03 134.748 
134.408 134.072 133.658 133.198 132.719 132.191 131.811 131.396 131.165 
130.856 130.59 130.283 129.959 129.718 129.507 135.224 134.986 134.681 
134.385 134.041 133.65 133.27 132.798 132.467 132.008 131.772 131.343 
131.092 130.647 130.339 129.957 129.732 129.523 129.471 140.182 139.86 
139.858 139.518 139.412 139.493 139.169 139.196 138.824 138.785 138.945 
138.615 138.759 138.377 138.414 137.901 138.16 138.295 137.954 138.114 
137.729 137.848 137.33 137.346 136.76 137.662 137.76 137.464 137.523 
137.169 137.215 136.766 136.761 136.234 136.217 135.745 137.156 137.307 
137.072 137.132 136.803 136.781 136.369 136.308 135.845 135.776 135.318 
135.305 134.905 136.571 136.765 136.53 136.686 136.346 136.403 135.949 
135.938 135.45 135.418 134.934 134.904 134.438 134.453 134.024 136.009 
136.169 135.904 136.071 135.728 135.845 135.397 135.444 134.945 134.962 
134.469 134.473 133.993 133.989 133.541 133.561 133.172 135.535 135.643 
135.376 135.477 135.165 135.249 134.89 134.921 134.509 134.486 134.035 
134.001 133.547 133.536 133.119 133.129 132.768 132.791 132.485 140.574 
141.122 140.659 140.27 141.575 141.198 140.763 140.297 139.807 141.619 
141.476 141.023 140.687 140.127 139.713 139.158 141.37 141.336 140.925 
140.755 140.199 139.908 139.331 138.995 138.486 141.311 141.151 140.806 
140.614 140.109 139.865 139.316 139.072 138.572 138.322 137.898 141.483 
141.23 140.879 140.616 140.135 139.82 139.27 139.01 138.525 138.331 
137.898 137.717 137.33 141.582 141.361 140.94 140.712 140.229 139.915 
139.339 139.008 138.482 138.259 137.829 137.663 137.265 137.114 136.746 
141.56 141.364 140.917 140.714 140.254 139.997 139.449 139.105 138.523 
138.231 137.751 137.572 137.172 137.031 136.662 136.528 136.193 141.536 
141.339 140.924 140.699 140.27 140.028 139.537 139.215 138.626 138.278 
137.717 137.482 137.035 136.904 136.528 136.427 136.093 135.993 135.701 
141.412 141.02 141.087 140.797 140.556 140.646 140.339 140.422 140.121 
140.056 140.147 139.798 139.901 139.549 139.686 139.344 139.501 139.612 
139.198 139.293 138.846 138.999 138.574 138.781 138.386 138.838 138.991 
138.556 138.652 138.148 138.247 137.759 137.932 137.514 137.76 137.439 
138.089 138.272 137.869 137.999 137.571 137.624 137.183 137.218 136.817 
136.939 136.647 136.9 136.732 137.298 137.501 137.137 137.322 137.011 
137.13 136.83 136.829 136.489 136.441 136.132 136.216 136.041 136.305 
136.231 136.575 136.747 136.427 136.614 136.357 136.57 136.377 136.518 
136.279 136.25 135.925 135.855 135.597 135.7 135.598 135.867 135.83 
136.046 136.141 135.86 135.975 135.715 135.91 135.737 135.992 135.844 
135.991 135.733 135.696 135.382 135.354 135.164 135.307 135.254 135.509 
135.48 135.731 135.111 135.467 135.503 134.33 134.772 134.842 135.217 
135.315 133.59 134.009 134.159 134.551 134.703 135.092 135.32 132.944 
133.343 133.511 133.909 134.105 134.508 134.764 135.187 135.457 132.19 
132.648 132.749 133.214 133.356 133.85 134.073 134.584 134.829 135.279 
135.41 131.354 131.803 131.866 132.354 132.44 132.977 133.149 133.751 
133.98 134.547 134.696 135.108 135.118 130.617 130.975 131.052 131.494 
131.648 132.106 132.315 132.821 133.091 133.648 133.898 134.378 134.516 
134.844 134.92 130.026 130.288 130.359 130.764 131.013 131.454 131.757 
132.159 132.461 132.886 133.201 133.655 133.934 134.314 134.524 134.801 
134.994 129.616 129.775 129.839 130.16 130.435 130.882 131.23 131.663 
131.954 132.349 132.626 133.053 133.365 133.792 134.087 134.438 134.688 
134.966 135.197 135.748 135.547 135.494 135.121 135.21 135.192 134.735 
134.717 134.265 134.793 134.76 134.251 134.244 133.77 133.81 133.455 
134.476 134.351 133.867 133.799 133.373 133.35 133.008 133.073 132.809 
134.294 134.097 133.615 133.509 133.108 133.039 132.646 132.638 132.287 
132.393 132.071 134.087 133.9 133.338 133.249 132.774 132.738 132.226 
132.204 131.708 131.8 131.428 131.593 131.264 133.84 133.656 133.081 
132.95 132.441 132.353 131.809 131.718 131.195 131.208 130.883 131.011 
130.8 130.887 130.62 133.687 133.473 133.001 132.793 132.373 132.152 
131.697 131.442 131.007 130.852 130.628 130.646 130.572 130.596 130.437 
130.372 130.107 133.646 133.423 133.037 132.829 132.493 132.244 131.853 
131.527 131.111 130.846 130.591 130.529 130.438 130.463 130.327 130.276 
130.026 129.922 129.682 136.051 136.501 136.13 135.88 137.171 136.631 
136.33 135.952 135.637 138.124 137.415 137.017 136.473 136.156 135.699 
135.306 139.205 138.469 138.034 137.292 136.885 136.295 135.935 135.404 
135.016 140.162 139.546 139.161 138.385 137.883 137.126 136.696 136.096 
135.765 135.216 134.873 140.876 140.399 140.058 139.436 138.941 138.165 
137.627 136.917 136.533 135.982 135.671 135.111 134.719 141.433 141.01 
140.664 140.189 139.774 139.149 138.634 137.889 137.391 136.746 136.368 
135.844 135.453 134.888 134.44 141.914 141.512 141.149 140.724 140.358 
139.883 139.487 138.863 138.367 137.64 137.129 136.503 136.069 135.543 
135.123 134.585 134.199 142.27 141.931 141.563 141.183 140.817 140.417 
140.077 139.621 139.213 138.582 138.036 137.311 136.787 136.172 135.774 
135.251 134.914 134.4 134.111 142.261 141.954 141.952 141.592 141.616 
141.637 141.316 141.273 140.878 141.255 141.291 140.961 140.965 140.593 
140.548 140.147 140.824 140.895 140.552 140.582 140.207 140.213 139.816 
139.794 139.315 140.347 140.438 140.132 140.175 139.801 139.803 139.373 
139.379 138.864 138.822 138.175 139.93 139.985 139.7 139.756 139.379 
139.382 138.897 138.887 138.335 138.307 137.672 137.581 136.919 139.596 
139.601 139.258 139.302 138.873 138.895 138.35 138.35 137.777 137.772 
137.21 137.137 136.564 136.436 135.907 139.241 139.235 138.811 138.828 
138.353 138.354 137.796 137.77 137.208 137.215 136.734 136.733 136.272 
136.176 135.686 135.545 135.076 138.825 138.818 138.364 138.362 137.908 
137.881 137.396 137.31 136.81 136.734 136.303 136.296 135.906 135.883 
135.432 135.332 134.838 134.722 134.272 138.444 137.755 138.042 137.968 
137.16 137.389 137.294 137.587 137.528 136.518 136.787 136.672 136.949 
136.87 137.155 137.05 135.655 136.024 135.862 136.24 136.131 136.484 
136.357 136.638 136.485 134.712 135.068 134.836 135.261 135.095 135.588 
135.471 135.889 135.742 136.057 135.951 133.897 134.169 133.905 134.216 
133.994 134.448 134.347 134.878 134.793 135.239 135.133 135.53 135.492 
133.158 133.407 133.157 133.383 133.149 133.448 133.348 133.793 133.769 
134.238 134.155 134.604 134.519 135.01 134.974 132.444 132.679 132.446 
132.675 132.457 132.705 132.599 132.943 132.942 133.324 133.269 133.632 
133.521 133.96 133.901 134.423 134.388 131.855 132.024 131.814 132.002 
131.807 132.033 131.923 132.242 132.234 132.591 132.554 132.851 132.741 
133.049 132.985 133.398 133.405 133.872 133.871 133.493 133.062 133.151 
132.918 132.641 132.711 132.498 132.617 132.399 132.344 132.308 131.988 
132.108 131.849 132.022 131.724 132.149 132.049 131.592 131.567 131.162 
131.324 131.013 131.24 130.953 131.871 131.823 131.375 131.244 130.743 
130.686 130.301 130.466 130.273 130.533 130.436 131.567 131.522 131.172 
131.073 130.652 130.453 129.999 129.904 129.635 129.839 129.825 130.162 
130.226 131.447 131.317 131.037 130.937 130.654 130.468 130.076 129.806 
129.411 129.335 129.196 129.481 129.572 129.981 130.056 131.483 131.311 
131.073 130.928 130.721 130.547 130.264 129.979 129.612 129.315 129.068 
129.025 129.049 129.31 129.436 129.774 129.795 131.543 131.38 131.158 
131.023 130.838 130.68 130.457 130.215 129.935 129.618 129.382 129.13 
129.077 129.038 129.142 129.279 129.366 129.544 129.536 143.965 143.655 
143.884 144.061 143.279 143.553 143.756 144.034 144.314 142.817 143.149 
143.348 143.68 143.963 144.318 144.565 142.273 142.658 142.855 143.214 
143.414 143.831 144.065 144.444 144.532 141.655 142.067 142.26 142.663 
142.808 143.201 143.342 143.79 143.932 144.295 144.346 141.034 141.41 
141.544 141.981 142.109 142.533 142.621 143.037 143.121 143.567 143.65 
144.066 144.139 140.473 140.791 140.841 141.218 141.281 141.735 141.813 
142.274 142.322 142.752 142.762 143.214 143.226 143.735 143.752 139.895 
140.221 140.234 140.537 140.524 140.892 140.93 141.397 141.47 141.933 
141.95 142.348 142.315 142.741 142.728 143.231 143.206 139.221 139.592 
139.618 139.934 139.918 140.205 140.212 140.57 140.649 141.083 141.166 
141.57 141.588 141.935 141.928 142.296 142.301 142.709 142.671 144.166 
144.263 144.287 144.435 144.513 144.434 144.52 144.497 144.513 144.72 
144.672 144.649 144.576 144.517 144.478 144.361 144.613 144.68 144.534 
144.551 144.422 144.461 144.379 144.319 144.159 144.47 144.499 144.327 
144.294 144.17 144.28 144.325 144.385 144.324 144.158 143.942 144.463 
144.515 144.503 144.286 144.22 144.136 144.304 144.383 144.469 144.351 
144.096 143.853 143.525 144.213 144.519 144.697 144.629 144.577 144.385 
144.433 144.435 144.517 144.472 144.207 143.949 143.476 143.295 142.954 
143.621 144.107 144.328 144.612 144.537 144.571 144.364 144.418 144.259 
144.355 144.048 143.944 143.428 143.217 142.778 142.697 142.43 142.966 
143.419 143.58 144.004 143.935 144.184 143.895 144.041 143.712 143.876 
143.535 143.612 143.167 143.087 142.643 142.545 142.234 142.201 141.962 
144.158 144.442 144.286 144.135 144.505 144.495 144.392 144.188 143.93 
144.289 144.398 144.321 144.326 144.114 143.922 143.68 143.983 144.07 
143.953 144.096 143.977 143.991 143.774 143.655 143.453 143.731 143.772 
143.586 143.681 143.583 143.736 143.643 143.667 143.431 143.335 143.052 
143.408 143.524 143.355 143.376 143.181 143.293 143.206 143.403 143.268 
143.272 142.938 142.813 142.473 142.935 143.158 143.071 143.151 142.885 
142.894 142.636 142.836 142.736 142.971 142.776 142.738 142.382 142.241 
141.94 142.406 142.653 142.586 142.78 142.542 142.566 142.196 142.257 
142.056 142.335 142.292 142.498 142.309 142.23 141.902 141.752 141.444 
141.883 142.098 141.973 142.213 142.019 142.153 141.838 141.857 141.583 
141.722 141.669 141.96 141.944 142.086 141.861 141.755 141.393 141.232 
140.875 136.242 136.837 136.598 136.779 137.646 137.357 137.634 137.295 
137.558 138.465 138.226 138.565 138.263 138.574 138.209 138.531 139.193 
139.003 139.328 139.13 139.45 139.197 139.498 139.197 139.527 139.845 
139.69 140.01 139.839 140.188 139.998 140.339 140.092 140.403 140.138 
140.432 140.394 140.295 140.644 140.516 140.916 140.76 141.177 140.946 
141.293 140.997 141.271 140.971 141.179 140.88 140.809 141.163 141.099 
141.496 141.442 141.853 141.744 142.079 141.86 142.102 141.809 141.992 
141.662 141.783 141.329 141.278 141.615 141.572 141.938 141.927 142.3 
142.28 142.593 142.501 142.743 142.563 142.76 142.482 142.616 142.247 
142.299 141.69 141.674 141.979 141.971 142.324 142.334 142.733 142.71 
143.068 142.97 143.275 143.139 143.431 143.232 143.446 143.108 143.173 
142.733 142.687 
POINT_DATA 1002
SCALARS Distance double
LOOKUP_TABLE default
138.128 138.84 138.867 138.202 138.891 137.505 138.28 138.867 137.614 
136.948 138.226 138.764 137.642 136.955 136.219 138.045 138.637 137.475 
136.817 136.057 135.281 137.888 138.548 137.259 136.609 135.849 135.085 
134.398 137.795 138.467 137.121 136.47 135.724 134.935 134.242 133.642 
137.698 138.356 137.003 136.338 135.605 134.823 134.114 133.478 132.904 
137.583 138.229 136.876 136.188 135.444 134.646 133.968 133.364 132.752 
132.222 137.47 138.1 136.766 136.075 135.356 134.528 133.79 133.239 
132.682 132.122 131.702 139.554 139.561 140.18 140.184 140.709 139.529 
140.747 141.261 140.17 139.469 141.301 141.867 140.786 140.129 139.371 
141.867 142.454 141.328 140.74 140.005 139.262 142.464 142.979 141.865 
141.271 140.588 139.857 139.164 143.012 143.411 142.416 141.776 141.15 
140.457 139.742 139.051 143.407 143.753 142.834 142.172 141.612 141.061 
140.382 139.636 138.918 143.683 144.043 143.098 142.433 141.916 141.518 
141.019 140.322 139.536 138.788 144.076 143.498 143.905 143.274 143.652 
142.814 143.328 143.509 142.852 142.295 143.472 143.274 143.275 142.579 
141.931 143.164 142.729 143.383 142.888 142.102 141.52 142.519 142.136 
142.872 142.648 142.034 141.473 140.927 141.903 141.651 142.172 142.028 
141.592 141.199 140.734 140.115 141.23 141.11 141.394 141.282 140.944 
140.652 140.31 139.777 139.22 140.475 140.502 140.496 140.397 140.164 
139.925 139.641 139.221 138.772 138.401 137.56 137.807 136.951 138.07 
137.133 136.319 138.42 137.29 136.447 135.64 138.817 137.585 136.552 
135.746 134.856 139.107 137.991 136.842 135.887 135.025 134.051 139.305 
138.283 137.233 136.197 135.289 134.326 133.348 139.511 138.526 137.544 
136.518 135.609 134.689 133.663 132.785 139.696 138.864 137.935 136.843 
135.86 135.029 134.071 133.123 132.403 139.839 139.184 138.414 137.337 
136.198 135.33 134.509 133.591 132.807 132.201 136.855 136.206 136.11 
135.519 135.424 135.389 134.687 134.584 134.589 134.555 133.765 133.557 
133.543 133.611 133.657 132.995 132.667 132.479 132.526 132.723 132.982 
132.418 132.063 131.743 131.593 131.726 132.076 132.434 131.969 131.537 
131.167 130.934 130.897 131.126 131.53 131.88 131.672 131.08 130.592 
130.381 130.367 130.459 130.74 131.136 131.462 131.706 130.989 131.096 
130.341 130.613 130.275 130.077 130.494 129.835 129.949 130.005 130.437 
129.857 129.91 130.062 129.664 130.132 129.667 130.058 130.232 130.221 
129.34 129.773 129.231 129.747 130.278 130.349 130.363 129.298 129.51 
129.148 129.391 129.937 130.317 130.461 130.676 129.302 129.375 129.225 
129.266 129.576 130.034 130.437 130.736 131.036 129.371 129.481 129.222 
129.097 129.227 129.666 130.209 130.658 130.977 131.285 132.447 131.95 
132.737 132.187 133.092 131.338 132.588 133.564 131.604 130.937 133.24 
134.09 132.134 131.283 130.925 133.852 134.521 132.848 131.716 131.189 
130.875 134.201 134.825 133.377 132.183 131.296 130.978 130.501 134.449 
135.076 133.713 132.676 131.623 131.033 130.609 130.008 134.722 135.293 
134.055 133.208 132.275 131.535 130.928 130.234 129.638 134.943 135.436 
134.38 133.689 132.913 132.215 131.567 130.783 130.002 129.559 140.204 
139.532 139.846 139.101 139.291 138.875 138.444 138.62 138.302 137.954 
137.824 138.039 137.596 137.289 136.747 137.419 137.531 137.151 136.761 
136.25 135.707 136.972 136.968 136.827 136.434 135.915 135.371 134.877 
136.357 136.389 136.262 135.949 135.466 134.97 134.463 133.974 135.761 
135.877 135.597 135.326 134.918 134.452 133.988 133.53 133.12 141.016 
140.759 141.592 141.244 141.891 140.285 141.294 141.674 140.534 139.565 
141.045 141.396 140.438 139.628 138.8 141.015 141.524 140.362 139.531 
138.791 138.128 141.151 141.776 140.474 139.57 138.711 138.075 137.494 
141.159 141.815 140.513 139.702 138.745 137.991 137.422 136.882 141.121 
141.747 140.474 139.778 138.867 137.958 137.306 136.792 136.314 141.15 