# vtk DataFile Version 4.0
vtk output
ASCII
DATASET POLYDATA
POINTS 1002 float
-78.1255 -103.19 55.5716 -78.4245 -103.645 55.9592 -78.7873 -103.472 55.5589 
-78.4234 -102.932 55.2081 -78.9972 -103.148 55.1258 -77.7433 -102.662 55.1914 
-78.7212 -102.831 54.472 -79.4063 -102.885 54.4445 -78.0859 -102.645 54.5014 
-77.3978 -102.615 54.2203 -79.307 -102.86 53.4845 -80.1226 -102.778 53.7279 
-78.5205 -102.854 53.3888 -77.755 -102.794 53.1722 -76.9235 -102.806 52.7865 
-79.9397 -102.705 52.8214 -80.6845 -102.61 53.251 -79.0786 -102.844 52.4968 
-78.1547 -102.81 52.2687 -77.1819 -102.649 52.0102 -76.2598 -102.552 51.7949 
-80.246 -102.303 52.4325 -80.959 -102.306 52.7063 -79.4725 -102.399 52.1137 
-78.5591 -102.447 51.8746 -77.5338 -102.256 51.6692 -76.506 -102.06 51.4825 
-75.7107 -102.133 51.2372 -80.506 -102.003 51.816 -81.2141 -101.996 51.9716 
-79.7572 -101.975 51.6359 -78.9425 -102.058 51.4259 -78.0217 -102.041 51.2118 
-76.9925 -101.856 51.0089 -76.0215 -101.829 50.763 -75.3753 -102.123 50.3305 
-80.7761 -101.746 51.2262 -81.3065 -101.557 51.5133 -80.1208 -101.785 50.9713 
-79.3677 -101.894 50.6549 -78.5656 -102.074 50.3029 -77.6677 -102.086 50.0351 
-76.5969 -101.951 49.8695 -75.6631 -101.985 49.6217 -75.0975 -102.254 49.2266 
-80.7293 -101.187 51.0306 -81.1132 -100.895 51.4353 -80.2644 -101.384 50.6229 
-79.6423 -101.595 50.164 -78.922 -101.874 49.6388 -78.1987 -102.075 49.2169 
-77.2689 -102.047 49.0461 -76.1824 -101.912 48.9634 -75.3603 -101.917 48.7773 
-74.8544 -102.078 48.5404 -80.5207 -100.468 50.963 -80.9247 -100.247 51.3656 
-80.1255 -100.673 50.5256 -79.632 -100.929 50.0885 -78.9906 -101.237 49.5893 
-78.3549 -101.48 49.0943 -77.657 -101.576 48.8248 -76.7159 -101.548 48.729 
-75.7969 -101.486 48.5889 -75.1668 -101.504 48.3963 -74.6817 -101.613 48.2505 
-78.8469 -103.732 56.3063 -79.2076 -103.563 55.8168 -79.1314 -103.536 56.8572 
-79.5536 -103.276 56.314 -79.4205 -103.178 57.4196 -79.4929 -103.13 55.3441 
-79.9682 -102.858 56.7916 -79.8557 -102.856 57.7781 -80.0187 -102.864 55.7112 
-80.0655 -102.81 54.7024 -80.4971 -102.593 57.0966 -80.3768 -102.644 58.0223 
-80.5745 -102.588 56.0278 -80.7018 -102.679 54.9928 -80.8269 -102.73 54.1058 
-81.0406 -102.408 57.3899 -80.9186 -102.496 58.3035 -81.1117 -102.303 56.3714 
-81.2044 -102.387 55.3066 -81.3774 -102.562 54.4338 -81.3375 -102.539 53.5959 
-81.5421 -102.157 57.671 -81.4396 -102.29 58.5512 -81.6107 -101.91 56.8001 
-81.5876 -101.803 55.8058 -81.642 -101.956 54.8718 -81.7529 -102.119 53.9376 
-81.6129 -102.118 52.8822 -81.9242 -101.834 57.803 -81.759 -101.931 58.6724 
-82.0948 -101.557 57.0729 -82.0499 -101.272 56.2621 -81.8058 -101.189 55.4132 
-81.7425 -101.293 54.508 -81.8509 -101.467 53.3318 -81.7274 -101.591 52.2144 
-82.1033 -101.419 57.8347 -81.8071 -101.447 58.6814 -82.5137 -101.24 57.1809 
-82.717 -101.004 56.4783 -82.3805 -100.801 55.6987 -81.8464 -100.657 55.006 
-81.7119 -100.663 54.0587 -81.7941 -100.828 52.8511 -81.5929 -100.954 51.9454 
-82.1425 -100.902 57.8593 -81.7498 -100.917 58.633 -82.7721 -100.801 57.2896 
-83.3428 -100.705 56.662 -83.3315 -100.62 55.8173 -82.6702 -100.435 55.1293 
-82.0302 -100.221 54.5315 -81.8362 -100.179 53.5696 -81.7338 -100.271 52.5318 
-81.3939 -100.313 51.843 -81.9772 -100.351 58.094 -82.6433 -100.269 57.5087 
-82.3518 -99.7642 57.6711 -83.0989 -99.7526 57.1589 -82.4946 -99.4097 57.1885 
-83.4848 -100.229 56.9922 -82.9825 -99.5522 56.5351 -82.2601 -99.1784 56.5427 
-83.7843 -99.8502 56.4699 -84.0004 -100.279 56.1383 -82.5315 -99.2353 55.8787 
-82.1003 -98.5831 56.0146 -83.3382 -99.6031 55.7607 -84.0555 -99.8985 55.4838 
-83.7574 -100.241 55.1955 -82.375 -98.4137 55.5089 -82.0907 -97.7713 55.6595 
-82.8128 -99.0024 55.2612 -83.5609 -99.4053 54.9728 -83.83 -99.7647 54.6932 
-83.0218 -100.028 54.5996 -82.2102 -97.675 55.0348 -81.7857 -97.3203 55.163 
-82.5796 -98.1426 54.7408 -83.068 -98.6802 54.4932 -83.5422 -99.2356 54.2607 
-83.2982 -99.6429 54.0299 -82.4222 -99.8631 53.8692 -81.6628 -97.4078 54.2576 
-81.2338 -97.1595 54.4946 -82.1554 -97.6165 53.8672 -82.5968 -97.9869 53.6497 
-82.9415 -98.6498 53.5868 -83.0492 -99.2973 53.3358 -82.6595 -99.6225 53.0312 
-82.055 -99.8375 52.826 -81.072 -97.2011 53.532 -80.7426 -96.9436 53.8234 
-81.5296 -97.3308 53.0883 -82.0234 -97.4938 52.7937 -82.2618 -98.0013 52.7871 
-82.3086 -98.7485 52.6502 -82.3035 -99.2972 52.2652 -82.067 -99.5591 52.0376 
-81.6668 -99.8347 51.9873 -80.6542 -96.8107 53.0026 -80.3285 -96.6292 53.2183 
-81.0221 -96.9296 52.6791 -81.4963 -97.0513 52.3682 -81.7934 -97.3852 52.2356 
-81.7403 -97.9818 52.1108 -81.7083 -98.6341 51.7535 -81.7856 -99.1403 51.4085 
-81.6149 -99.4846 51.3521 -81.2236 -99.8137 51.4163 -80.6633 -99.8858 50.8354 
-81.1242 -99.5768 50.7485 -80.5356 -99.6492 50.0876 -81.4841 -99.1544 50.6935 
-81.0109 -99.332 49.9922 -80.2615 -99.3456 49.4719 -81.4674 -98.4886 50.8657 
-81.217 -98.593 50.0612 -80.5276 -98.7802 49.4743 -79.6576 -98.6944 49.15 
-81.3952 -97.8026 51.2411 -81.1703 -97.6721 50.2754 -80.5927 -97.82 49.6031 
-79.7369 -97.9672 49.1851 -79.0338 -97.9242 48.7951 -81.4934 -97.2813 51.5989 
-81.1605 -97.1421 50.5947 -80.5778 -97.0789 49.7911 -79.7347 -97.2445 49.3359 
-79.05 -97.3963 48.8237 -78.5031 -97.4178 48.3542 -81.3438 -96.8542 51.8864 
-81.0016 -96.8504 51.0179 -80.4161 -96.8067 50.0917 -79.6371 -96.7789 49.5956 
-78.9299 -96.9451 49.0613 -78.4053 -97.0232 48.4364 -77.8093 -96.9666 48.1151 
-80.9071 -96.5408 52.1706 -80.5983 -96.4156 51.4517 -80.0576 -96.4569 50.4724 
-79.4531 -96.3259 49.8177 -78.8551 -96.279 49.3254 -78.2751 -96.4117 48.6405 
-77.7012 -96.389 48.1684 -77.1289 -96.3112 47.941 -80.5235 -96.3787 52.4179 
-80.291 -96.0029 51.7906 -79.8567 -95.8877 50.8686 -79.393 -95.7247 49.9779 
-78.9934 -95.4447 49.3853 -78.4571 -95.4514 48.7722 -77.7712 -95.6103 48.2203 
-77.1658 -95.6121 47.9151 -76.7618 -95.6384 47.574 -80.172 -96.2915 52.5965 
-80.049 -95.8045 52.0411 -79.8381 -95.4364 51.3071 -79.5067 -95.197 50.3357 
-79.1768 -94.8475 49.4902 -78.7551 -94.6161 48.8732 -78.0589 -94.778 48.3607 
-77.2978 -95.0029 47.9859 -76.7933 -95.0561 47.6241 -76.5517 -95.1452 47.1264 
-80.1677 -99.9941 50.4015 -79.9063 -99.6486 49.7428 -79.6591 -100.132 50.0426 
-79.4956 -99.2448 49.2806 -79.2203 -99.699 49.566 -79.0335 -100.389 49.7208 
-78.9082 -98.6029 48.8907 -78.7034 -99.2759 49.0768 -78.4578 -99.8851 49.3014 
-78.3417 -100.629 49.2989 -78.3454 -97.976 48.3954 -78.1002 -98.7692 48.4948 
-77.863 -99.4448 48.6839 -77.6835 -99.9779 48.9332 -77.6731 -100.725 48.9549 
-77.6877 -97.5027 48.0724 -77.4477 -98.2574 48.0657 -77.2283 -98.99 48.1206 
-77.0142 -99.4908 48.3557 -76.8852 -100.021 48.6773 -76.8667 -100.804 48.77 
-76.9706 -96.9557 47.8698 -76.7834 -97.7244 47.7897 -76.6592 -98.454 47.764 
-76.4872 -99.0709 47.8078 -76.2323 -99.6439 48.0055 -76.102 -100.249 48.3229 
-76.0164 -100.9 48.5142 -76.5744 -96.3195 47.428 -76.3583 -97.1445 47.2929 
-76.2454 -97.8681 47.2729 -76.1535 -98.551 47.2987 -75.9018 -99.3419 47.278 
-75.6635 -100.018 47.4376 -75.5554 -100.475 47.8529 -75.3981 -100.947 48.2134 
-76.4622 -95.7596 46.8604 -76.2358 -96.6065 46.6801 -75.9911 -97.351 46.6706 
-75.8124 -97.9944 46.7722 -75.6072 -98.8651 46.7744 -75.396 -99.7668 46.7492 
-75.2738 -100.261 47.033 -75.1306 -100.544 47.5853 -74.8942 -101.003 48.0325 
-76.2367 -95.0613 46.5576 -76.1357 -95.8711 46.3434 -75.6015 -95.0635 46.313 
-75.3489 -96.0691 46.4108 -74.5448 -95.181 46.4794 -75.7983 -96.7846 46.3425 
-74.1681 -96.3115 46.6933 -73.4392 -95.4577 46.5654 -74.8497 -96.9928 46.5409 
-75.3773 -97.4708 46.4532 -73.1799 -96.5634 46.4731 -72.7132 -95.8179 46.5428 
-73.7215 -97.2215 46.4893 -74.3172 -97.7052 46.439 -75.0389 -98.2595 46.4975 
-72.5915 -96.7876 46.32 -72.2977 -96.183 46.9546 -72.9753 -97.4189 45.9838 
-73.3596 -97.9879 46.0517 -74.0307 -98.6524 46.2893 -74.8641 -99.3217 46.4579 
-72.1004 -97.0405 46.8966 -71.9115 -96.5452 47.5804 -72.4574 -97.5964 46.1603 
-72.7848 -98.2014 45.8014 -73.2173 -98.9483 46.0116 -73.997 -99.6396 46.3462 
-74.804 -100.06 46.584 -71.6126 -97.3185 47.5428 -71.4603 -96.8471 47.9006 
-71.9119 -97.8289 47.0367 -72.2721 -98.3949 46.4494 -72.597 -99.1354 46.1485 
-73.0921 -99.8198 46.3035 -73.8916 -100.175 46.6502 -74.666 -100.349 47.0595 
-71.1508 -97.5563 47.8261 -70.9589 -97.0844 48.0718 -71.4219 -98.0852 47.6154 
-71.7504 -98.6191 47.3085 -72.063 -99.2763 46.8766 -72.3555 -99.9628 46.6023 
-72.8483 -100.362 46.7568 -73.6388 -100.522 47.1989 -74.4062 -100.715 47.6567 
-70.6496 -97.7966 48.0805 -70.4516 -97.3449 48.377 -70.9525 -98.3394 47.8594 
-71.2742 -98.86 47.713 -71.5999 -99.3946 47.5567 -71.9238 -99.9945 47.3187 
-72.2429 -100.49 47.2045 -72.7349 -100.783 47.4208 -73.4704 -101.03 47.7834 
-74.1869 -101.329 48.0542 -76.2826 -94.7264 47.151 -75.7471 -94.5108 46.6342 
-75.7842 -94.5017 47.3987 -75.1117 -94.1903 46.8758 -75.3735 -94.2876 47.7636 
-74.9379 -94.3281 46.3715 -74.7041 -93.9871 47.2757 -75.2589 -93.9225 48.162 
-74.3562 -93.9322 46.5685 -73.9089 -94.3988 46.3872 -74.4215 -93.7318 47.9442 
-75.1016 -93.6399 48.8146 -73.9951 -93.823 47.1881 -73.5592 -94.1067 46.6473 
-73.0272 -94.823 46.5318 -74.0175 -93.6166 48.9056 -74.7065 -93.688 49.8177 
-73.5689 -93.7274 48.1984 -73.3328 -94.1603 47.5904 -72.9455 -94.7399 47.1482 
-72.5367 -95.3896 47.0276 -73.823 -93.8217 49.8989 -74.4347 -93.8288 50.7767 
-73.2737 -93.794 49.1324 -73.0073 -94.157 48.6355 -72.8407 -94.8601 48.2126 
-72.567 -95.4002 47.9249 -72.2252 -95.888 47.7555 -73.9286 -94.055 50.7225 
-74.376 -93.8412 51.3878 -73.3987 -94.1344 49.8924 -72.8558 -94.2234 49.3043 
-72.4747 -94.7029 48.9797 -72.2935 -95.3234 48.7243 -72.1025 -95.7833 48.4551 
-71.7808 -96.2603 48.1497 -73.8848 -94.1189 51.3832 -74.2396 -93.8751 51.7859 
-73.4837 -94.3928 50.7055 -72.8433 -94.4522 50.0028 -72.076 -94.4849 49.5427 
-71.6094 -94.8316 49.2611 -71.5122 -95.4216 48.9732 -71.4282 -96.0116 48.616 
-71.2002 -96.543 48.2792 -73.5799 -94.1636 51.9291 -73.9544 -94.0418 52.2055 
-73.234 -94.4353 51.4843 -72.6804 -94.6176 50.8859 -71.8304 -94.5114 50.3228 
[...]
CELL_DATA 2000
SCALARS Distance double
LOOKUP_TABLE default
140.261 140.082 139.989 139.549 139.845 139.772 139.398 139.269 138.872 
139.777 139.621 139.312 139.162 138.806 138.645 138.249 139.798 139.627 
139.291 139.132 138.75 138.575 138.102 137.937 137.427 139.627 139.543 
139.119 139.038 138.596 138.468 137.93 137.74 137.149 137.002 136.506 
139.32 139.266 138.823 138.759 138.327 138.245 137.771 137.585 137.038 
136.794 136.294 136.154 135.818 138.975 138.966 138.582 138.493 138.106 
138.004 137.638 137.487 137.084 136.82 136.367 136.085 135.7 135.573 
135.321 138.455 138.57 138.218 138.239 137.855 137.812 137.443 137.372 
137.021 136.884 136.481 136.228 135.778 135.532 135.163 135.079 134.824 
137.824 137.972 137.616 137.747 137.358 137.446 137.04 137.081 136.679 
136.69 136.28 136.209 135.74 135.564 135.094 134.939 134.581 134.549 
134.285 140.624 140.981 140.73 140.461 141.162 141.003 140.772 140.481 
140.175 141.296 141.145 140.954 140.74 140.513 140.238 140.063 141.504 
141.313 141.15 140.942 140.801 140.586 140.499 140.251 140.135 141.786 
141.567 141.403 141.177 141.025 140.858 140.798 140.654 140.563 140.292 
140.038 142.047 141.842 141.632 141.411 141.161 141.001 140.823 140.788 
140.652 140.572 140.313 140.051 139.693 142.135 142.012 141.763 141.587 
141.286 141.08 140.763 140.666 140.405 140.427 140.154 140.121 139.773 
139.608 139.243 141.963 141.958 141.737 141.666 141.445 141.241 140.935 
140.663 140.313 140.151 139.832 139.812 139.5 139.493 139.147 139.062 
138.679 141.605 141.682 141.527 141.587 141.501 141.43 141.262 140.971 
140.65 140.264 139.906 139.636 139.335 139.219 138.936 138.871 138.543 
138.437 138.065 141.298 140.912 141.165 141.316 140.588 140.862 141.101 
141.301 141.426 140.128 140.509 140.768 141.086 141.251 141.39 141.297 
139.45 139.919 140.126 140.594 140.748 141.086 141.006 141.077 140.721 
138.696 139.155 139.293 139.795 139.919 140.403 140.399 140.663 140.376 
140.362 139.933 137.957 138.375 138.437 138.897 138.963 139.483 139.552 
139.984 139.866 139.994 139.634 139.587 139.258 137.218 137.602 137.574 
137.991 137.96 138.472 138.513 139.073 139.066 139.427 139.188 139.266 
138.915 138.954 138.747 136.488 136.835 136.751 137.106 137.008 137.446 
137.419 137.975 137.97 138.502 138.362 138.686 138.391 138.541 138.266 
138.433 138.295 135.776 136.098 136.001 136.308 136.207 136.552 136.509 
136.938 136.91 137.387 137.298 137.74 137.575 137.902 137.697 137.912 
137.73 137.946 137.824 137.454 137.409 137.256 136.919 137.32 137.213 
136.891 136.75 136.371 137.044 136.993 136.584 136.59 136.163 136.086 
135.565 136.716 136.627 136.109 136.117 135.63 135.671 135.123 135.095 
134.515 136.438 136.333 135.829 135.694 135.181 135.108 134.608 134.581 
134.082 134.043 133.569 136.108 136.064 135.628 135.498 134.984 134.803 
134.292 134.169 133.724 133.663 133.24 133.185 132.753 135.78 135.725 
135.28 135.227 134.7 134.587 134.008 133.893 133.365 133.318 132.846 
132.829 132.346 132.326 131.845 135.556 135.435 134.958 134.859 134.331 
134.227 133.64 133.534 132.948 132.893 132.36 132.359 131.851 131.855 
131.357 131.368 130.931 135.351 135.227 134.746 134.598 134.099 133.931 
133.401 133.215 132.661 132.5 131.974 131.887 131.417 131.382 130.95 
130.922 130.525 130.524 130.196 137.419 136.791 137.093 137.141 136.202 
136.453 136.394 136.78 136.866 135.453 135.804 135.699 136.038 136.047 
136.489 136.575 134.471 134.939 134.886 135.295 135.253 135.665 135.692 
136.159 136.222 133.52 133.951 133.939 134.406 134.385 134.823 134.782 
135.238 135.252 135.769 135.815 132.686 133.069 133.034 133.473 133.472 
133.917 133.869 134.296 134.25 134.751 134.78 135.328 135.324 131.805 
132.218 132.165 132.598 132.596 133.031 133.016 133.41 133.367 133.781 
133.792 134.29 134.324 134.81 134.758 130.929 131.325 131.301 131.728 
131.741 132.176 132.2 132.606 132.623 132.991 133.026 133.413 133.474 
133.887 133.916 134.3 134.279 130.21 130.536 130.563 130.932 130.982 
131.364 131.407 131.807 131.873 132.283 132.376 132.751 132.833 133.169 
133.217 133.551 133.581 133.924 133.962 129.846 129.447 129.849 130.24 
129.044 129.504 129.966 130.301 130.674 128.624 129.12 129.631 130.018 
130.373 130.695 131.046 128.29 128.705 129.185 129.615 129.958 130.33 
130.674 131.068 131.495 128.229 128.431 128.811 129.151 129.49 129.867 
130.257 130.693 131.201 131.607 132.079 128.426 128.461 128.748 128.897 
129.225 129.478 129.91 130.312 130.879 131.332 131.863 132.204 132.582 
128.61 128.654 128.908 128.968 129.285 129.394 129.805 130.067 130.59 
130.999 131.506 131.917 132.303 132.627 132.926 128.639 128.753 129.02 
129.132 129.455 129.548 129.921 130.068 130.497 130.755 131.182 131.524 
131.906 132.275 132.624 132.952 133.273 128.639 128.751 129.038 129.194 
129.531 129.679 130.034 130.182 130.561 130.729 131.107 131.302 131.675 
131.938 132.342 132.66 133.065 133.35 133.697 129.595 129.103 129.226 
129.075 128.723 128.712 128.382 128.622 128.535 128.495 128.374 127.946 
127.965 127.724 128.055 128.068 128.382 128.198 127.811 127.679 127.411 
127.439 127.398 127.697 127.838 128.442 128.161 127.811 127.643 127.496 
127.396 127.415 127.39 127.558 127.707 127.957 128.749 128.378 128.043 
127.756 127.661 127.568 127.709 127.655 127.856 127.784 128.006 128.03 
128.268 129.11 128.806 128.569 128.177 128.015 127.787 127.838 127.853 
128.016 128.073 128.192 128.198 128.292 128.338 128.452 129.31 129.154 
129.029 128.747 128.545 128.205 127.997 127.859 127.769 127.911 127.908 
128.132 128.128 128.282 128.282 128.407 128.451 129.411 129.308 129.213 
129.089 128.918 128.656 128.326 128.007 127.654 127.555 127.399 127.61 
127.65 127.944 128.022 128.206 128.259 128.38 128.456 135.053 134.363 
134.629 134.447 133.663 133.914 133.742 134.009 133.808 133.025 133.225 
133.032 133.297 133.112 133.357 133.117 132.422 132.598 132.342 132.577 
132.35 132.621 132.359 132.61 132.341 131.776 131.968 131.672 131.871 
131.559 131.804 131.495 131.78 131.492 131.801 131.595 131.085 131.288 
131.004 131.197 130.877 131.04 130.701 130.911 130.643 130.94 130.77 
131.115 131.024 130.429 130.6 130.343 130.543 130.296 130.436 130.135 
130.236 129.981 130.178 130.059 130.355 130.301 130.626 130.588 129.915 
130.017 129.792 129.946 129.748 129.897 129.64 129.738 129.463 129.605 
129.446 129.702 129.642 129.946 129.894 130.211 130.177 129.585 129.626 
129.454 129.518 129.329 129.405 129.129 129.215 128.898 129.049 128.812 
129.067 128.933 129.251 129.163 129.502 129.453 129.811 129.831 135.286 
135.408 135.107 134.609 135.572 135.251 134.774 134.432 133.935 135.773 
135.444 134.987 134.639 134.154 133.792 133.319 135.94 135.631 135.154 
134.839 134.346 134.009 133.504 133.176 132.707 136.073 135.78 135.302 
134.985 134.478 134.155 133.623 133.31 132.797 132.523 132.046 136.197 
135.918 135.474 135.151 134.666 134.31 133.785 133.422 132.9 132.589 
132.107 131.839 131.367 136.304 136.042 135.594 135.305 134.829 134.513 
134.01 133.639 133.105 132.73 132.232 131.92 131.457 131.171 130.718 
136.385 136.142 135.68 135.394 134.899 134.622 134.138 133.842 133.317 
132.952 132.402 132.057 131.567 131.278 130.829 130.555 130.164 136.412 
136.213 135.788 135.499 135.014 134.7 134.238 133.952 133.492 133.153 
132.619 132.233 131.709 131.387 130.945 130.676 130.293 130.054 129.765 
136.277 135.909 135.973 135.683 135.564 135.592 135.275 135.302 134.923 
135.253 135.234 134.878 134.891 134.513 134.518 134.147 134.869 134.869 
134.452 134.481 134.112 134.131 133.752 133.763 133.394 134.319 134.376 
133.915 133.992 133.598 133.69 133.301 133.344 132.894 132.934 132.497 
133.778 133.799 133.355 133.413 132.997 133.104 132.697 132.801 132.329 
132.379 131.877 131.956 131.554 133.422 133.367 132.977 132.944 132.554 
132.548 132.132 132.173 131.731 131.782 131.318 131.363 130.957 131.068 
130.782 133.153 133.095 132.744 132.681 132.329 132.235 131.826 131.729 
131.3 131.26 130.859 130.865 130.498 130.546 130.25 130.375 130.155 
132.872 132.834 132.483 132.45 132.09 132.031 131.623 131.512 131.08 
130.965 130.578 130.511 130.177 130.159 129.875 129.919 129.707 129.819 
129.667 132.614 132.032 132.274 132.181 131.27 131.565 131.409 131.783 
131.725 130.479 130.715 130.493 130.891 130.833 131.293 131.249 129.997 
130.051 129.827 130.031 129.981 130.384 130.42 130.825 130.768 129.811 
129.796 129.62 129.596 129.503 129.683 129.732 130.065 130.086 130.383 
130.308 129.538 129.652 129.477 129.46 129.2 129.267 129.141 129.425 
129.414 129.742 129.693 129.963 129.899 129.061 129.267 129.047 129.144 
128.701 128.774 128.382 128.682 128.563 129.011 129.009 129.364 129.34 
129.605 129.6 128.64 128.766 128.555 128.63 128.201 128.175 127.694 
127.828 127.661 128.095 128.232 128.697 128.845 129.132 129.199 129.401 
129.464 128.478 128.457 128.315 128.286 128.047 127.886 127.567 127.401 
127.274 127.399 127.624 128.022 128.371 128.728 128.945 129.129 129.225 
129.359 129.451 132.782 132.962 132.682 132.272 133.235 132.91 132.501 
132.144 131.609 133.507 133.179 132.736 132.384 131.85 131.433 130.857 
133.721 133.403 132.932 132.594 132.08 131.688 131.139 130.726 130.293 
133.978 133.627 133.201 132.825 132.375 131.968 131.471 131.034 130.561 
130.234 129.953 134.344 133.965 133.593 133.18 132.779 132.35 131.901 
131.428 130.91 130.48 130.044 129.844 129.59 134.693 134.362 133.988 
133.598 133.168 132.762 132.311 131.879 131.37 130.873 130.343 129.943 
129.551 129.397 129.14 134.901 134.645 134.266 133.94 133.486 133.103 
132.637 132.25 131.805 131.358 130.886 130.368 129.93 129.513 129.21 
128.991 128.786 135.017 134.791 134.433 134.164 133.758 133.406 132.975 
132.587 132.197 131.801 131.434 130.967 130.584 130.065 129.732 129.293 
129.073 128.784 128.658 133.148 133.829 133.391 133.305 134.706 134.144 
133.992 133.591 133.573 135.673 135.083 134.883 134.354 134.296 133.917 
133.907 136.562 136.058 135.902 135.317 135.212 134.721 134.688 134.254 
134.173 137.382 136.951 136.913 136.369 136.286 135.715 135.638 135.103 
134.993 134.498 134.397 138.259 137.833 137.896 137.407 137.41 136.834 
136.764 136.14 136.001 135.39 135.255 134.757 134.716 139.188 138.776 
138.892 138.438 138.499 137.96 137.919 137.3 137.166 136.492 136.314 
135.688 135.57 135.096 135.055 140.064 139.711 139.864 139.458 139.53 
139.025 138.964 138.397 138.257 137.646 137.451 136.794 136.584 135.987 
135.836 135.378 135.27 140.816 140.541 140.72 140.396 140.476 140.017 
139.913 139.366 139.18 138.638 138.441 137.865 137.624 137 136.755 
136.187 135.999 135.541 135.398 141.221 141.727 141.403 141.177 142.067 
141.86 141.664 141.305 140.928 142.274 142.107 141.877 141.641 141.207 
140.853 140.297 142.339 142.191 141.828 141.681 141.211 140.973 140.401 
140.079 139.509 142.027 142.026 141.533 141.483 141.001 140.876 140.362 
140.124 139.583 139.289 138.763 141.367 141.492 141.048 141.09 140.657 
140.618 140.164 140.032 139.524 139.312 138.766 138.511 137.948 140.82 
140.879 140.594 140.638 140.315 140.292 139.871 139.782 139.283 139.156 
138.618 138.439 137.869 137.633 137.065 140.594 140.54 140.3 140.296 
140.024 139.998 139.601 139.497 139.002 138.877 138.382 138.249 137.744 
137.543 137.009 136.766 136.269 140.434 140.377 140.051 140.03 139.702 
139.701 139.323 139.25 138.79 138.647 138.186 138.046 137.609 137.441 
136.965 136.735 136.246 136.024 135.611 140.157 139.453 139.788 139.739 
138.763 139.063 139.024 139.365 139.351 138.136 138.423 138.369 138.67 
138.657 138.997 138.972 137.341 137.737 137.676 138.022 137.974 138.308 
138.256 138.579 138.472 136.46 136.869 136.819 137.229 137.144 137.544 
137.439 137.817 137.689 138.021 137.878 135.802 136.092 136.062 136.379 
136.281 136.635 136.493 136.897 136.749 137.164 137.028 137.41 137.281 
135.315 135.551 135.52 135.74 135.629 135.851 135.689 135.976 135.816 
136.185 136.051 136.478 136.357 136.777 136.63 134.811 135.061 134.995 
135.219 135.065 135.255 135.057 135.269 135.093 135.353 135.202 135.531 
135.407 135.806 135.683 136.087 135.934 134.254 134.506 134.4 134.64 
134.454 134.656 134.424 134.636 134.441 134.686 134.53 134.786 134.652 
134.945 134.841 135.181 135.088 135.437 135.337 134.967 134.7 134.679 
134.371 134.461 134.413 134.092 134.072 133.728 134.276 134.189 133.851 
133.802 133.449 133.395 132.994 134.129 134.009 133.62 133.549 133.167 
133.115 132.71 132.643 132.234 134.017 133.86 133.441 133.32 132.897 
132.815 132.388 132.335 131.921 131.887 131.483 133.987 133.775 133.367 
133.189 132.778 132.607 132.158 132.021 131.584 131.536 131.136 131.117 
130.685 134.014 133.78 133.347 133.146 132.743 132.554 132.117 131.892 
131.423 131.252 130.841 130.772 130.382 130.314 129.879 133.986 133.787 
133.304 133.099 132.633 132.479 132.043 131.87 131.414 131.192 130.761 
130.581 130.215 130.084 129.713 129.576 129.209 133.885 133.723 133.25 
133.03 132.527 132.336 131.887 131.749 131.342 131.18 130.778 130.581 
130.217 130.03 129.699 129.512 129.188 129.022 128.76 141.799 142.199 
142.113 142.247 142.381 142.439 142.609 142.503 142.461 142.234 142.445 
142.635 142.74 142.775 142.601 142.408 141.918 142.163 142.329 142.59 
142.721 142.801 142.751 142.532 142.381 141.662 141.858 142.061 142.287 
142.485 142.658 142.717 142.73 142.67 142.539 142.496 141.473 141.649 
141.935 142.151 142.477 142.584 142.701 142.661 142.585 142.581 142.521 
142.567 142.524 141.28 141.441 141.661 141.979 142.383 142.664 142.91 
142.839 142.728 142.514 142.349 142.361 142.304 142.421 142.286 141.051 
141.191 141.229 141.54 141.797 142.322 142.648 142.955 142.951 142.794 
142.548 142.317 142.181 142.155 142.073 142.088 141.861 140.71 140.886 
140.827 141.03 141.077 141.534 141.766 142.355 142.491 142.78 142.63 
142.554 142.347 142.203 142.092 141.987 141.829 141.69 141.405 141.601 
142.023 141.691 141.409 142.174 141.993 141.697 141.446 141.121 142.043 
141.95 141.646 141.575 141.264 141.062 140.654 142.013 141.799 141.466 
141.406 141.152 141.081 140.706 140.481 140.024 142.251 141.926 141.555 
141.308 141.035 140.939 140.622 140.461 140.019 139.807 139.405 142.415 
142.213 141.821 141.487 141.074 140.869 140.507 140.356 139.923 139.748 
139.323 139.192 138.841 142.201 142.226 141.842 141.638 141.088 140.858 
140.363 140.217 139.765 139.622 139.165 139.042 138.636 138.567 138.194 
141.701 141.843 141.494 141.468 140.924 140.748 140.172 140.019 139.54 
139.433 138.981 138.857 138.397 138.299 137.881 137.845 137.476 141.154 
141.279 140.959 141.034 140.599 140.515 139.979 139.812 139.312 139.194 
138.76 138.655 138.196 138.062 137.602 137.519 137.144 137.137 136.838 
141.277 141.077 141.034 140.803 140.815 140.807 140.527 140.565 140.4 
140.372 140.473 140.191 140.252 140.011 140.121 139.928 139.776 139.952 
139.706 139.843 139.589 139.696 139.427 139.549 139.279 139.213 139.368 
139.147 139.309 139.091 139.234 138.96 139.047 138.727 138.838 138.549 
138.69 138.849 138.608 138.751 138.525 138.703 138.476 138.591 138.273 
138.323 137.997 138.113 137.842 138.071 138.293 138.035 138.191 137.91 
138.1 137.877 138.074 137.804 137.888 137.532 137.591 137.28 137.415 
137.145 137.389 137.635 137.407 137.585 137.297 137.466 137.209 137.43 
137.187 137.364 137.032 137.117 136.756 136.86 136.568 136.718 136.444 
136.773 136.985 136.796 136.972 136.723 136.87 136.606 136.776 136.522 
136.712 136.423 136.566 136.225 136.33 136.007 136.14 135.863 136.016 
135.739 133.202 133.534 133.547 133.93 133.853 133.908 134.382 134.392 
134.852 134.233 134.252 134.741 134.816 135.322 135.348 135.791 134.79 
134.725 135.16 135.157 135.602 135.692 136.13 136.203 136.589 135.33 
135.308 135.718 135.635 135.984 135.953 136.345 136.432 136.863 136.947 
137.352 135.644 135.722 136.126 136.144 136.481 136.404 136.756 136.727 
137.207 137.255 137.765 137.778 138.235 135.87 135.932 136.302 136.418 
136.81 136.855 137.237 137.216 137.697 137.717 138.29 138.29 138.797 
138.73 139.167 136.169 136.159 136.491 136.572 137.002 137.124 137.578 
137.647 138.112 138.185 138.726 138.812 139.333 139.318 139.726 139.642 
140.016 136.53 136.486 136.801 136.817 137.243 137.348 137.84 137.949 
138.409 138.504 138.973 139.123 139.629 139.753 140.187 140.175 140.513 
140.438 140.76 
POINT_DATA 1002
SCALARS Distance double
LOOKUP_TABLE default
139.854 140.507 140.424 139.688 140.134 139.106 139.494 139.907 139.014 
138.5 139.465 139.96 138.982 138.427 137.827 139.46 139.977 138.951 
138.32 137.561 136.896 139.195 139.709 138.705 138.133 137.339 136.55 
136.072 138.896 139.357 138.379 137.898 137.284 136.494 135.841 135.543 
138.647 138.923 138.204 137.736 137.283 136.686 135.924 135.339 135.085 
138.142 138.302 137.867 137.496 137.099 136.684 136.076 135.336 134.815 
134.571 137.473 137.697 137.232 136.975 136.651 136.289 135.867 135.28 
134.668 134.261 134.022 140.942 140.826 141.177 141.007 141.304 140.485 
141.127 141.459 140.731 140.325 141.356 141.698 140.971 140.704 140.471 
141.649 142.012 141.207 140.902 140.79 140.431 141.868 142.262 141.381 
140.897 140.674 140.496 140.016 141.909 142.237 141.516 140.964 140.429 
140.115 139.853 139.452 141.729 141.925 141.576 141.246 140.597 139.913 
139.472 139.178 138.813 141.395 141.496 141.458 141.472 141.071 140.283 
139.524 139.01 138.623 138.196 141.006 141.096 140.636 140.857 140.274 
141.351 140.397 139.714 141.053 141.35 139.647 138.989 140.335 140.858 
140.811 138.83 138.271 139.405 140.018 140.323 139.995 138.025 137.576 
138.457 139.028 139.611 139.665 139.243 137.207 136.872 137.493 137.932 
138.581 139.007 138.892 138.611 136.428 136.166 136.619 136.914 137.412 
137.918 138.161 138.123 138.066 135.7 135.463 135.877 136.125 136.488 
136.832 137.143 137.422 137.548 137.578 137.088 137.102 136.568 136.99 
136.583 135.964 136.566 136.197 135.712 135.021 136.173 135.588 135.105 
134.554 133.969 135.995 135.322 134.633 134.086 133.606 133.131 135.711 
135.178 134.454 133.789 133.296 132.818 132.312 135.338 134.792 134.133 
133.438 132.869 132.373 131.848 131.375 135.091 134.446 133.757 133.032 
132.375 131.836 131.344 130.88 130.539 134.89 134.258 133.592 132.857 
132.096 131.451 130.966 130.542 130.153 129.896 136.718 136.074 136.392 
135.374 135.648 136.101 134.423 134.863 135.248 135.727 133.46 133.933 
134.36 134.739 135.292 132.616 133.027 133.458 133.789 134.223 134.826 
131.728 132.153 132.609 132.982 133.332 133.821 134.326 130.874 131.305 
131.765 132.226 132.662 133.087 133.514 133.907 130.196 130.62 131.024 
131.432 131.962 132.506 132.906 133.233 133.604 129.447 129.904 128.991 
129.617 128.526 130.379 129.22 128.128 130.059 130.683 128.768 127.976 
129.57 130.249 131.091 128.55 128.163 129.118 129.784 130.742 131.771 
128.672 128.446 129.024 129.535 130.412 131.484 132.335 128.845 128.54 
129.21 129.624 130.257 131.102 131.935 132.641 128.874 128.505 129.343 
129.814 130.327 130.909 131.537 132.25 132.983 128.875 128.538 129.368 
129.882 130.407 130.952 131.461 132.029 132.748 133.465 129.444 128.788 
129.079 128.272 128.819 128.089 128.033 128.634 127.534 127.552 127.93 
128.583 127.472 127.231 127.413 127.975 128.77 127.532 127.487 127.529 
127.734 128.392 129.087 127.765 127.69 127.953 128.09 128.197 128.941 
129.302 128.375 127.907 127.92 128.178 128.311 128.372 129.221 129.406 
128.927 128.336 127.751 127.638 127.91 128.166 128.31 129.297 129.532 
129.123 128.709 127.936 127.278 127.284 127.759 128.143 128.327 134.806 
134.192 134.093 133.459 133.437 133.576 132.781 132.859 132.857 132.904 
132.154 132.255 132.093 132.103 132.071 131.499 131.579 131.368 131.219 
131.167 131.238 130.788 130.889 130.728 130.537 130.348 130.417 130.657 
130.124 130.275 130.116 130.046 129.824 129.771 129.991 130.257 129.654 
129.817 129.599 129.532 129.344 129.221 129.346 129.591 129.836 135.589 
134.928 135.707 135.118 135.893 134.276 135.32 136.106 134.523 133.663 
135.467 136.248 134.674 133.843 133.009 135.626 136.347 134.814 133.948 
133.079 132.306 135.782 136.461 135.016 134.169 133.239 132.382 131.634 
135.883 136.568 135.118 134.355 133.508 132.569 131.746 130.992 135.976 
136.613 135.183 134.396 133.664 132.779 131.859 131.098 130.4 136.052 