# vtk DataFile Version 4.0
vtk output
ASCII
DATASET POLYDATA
POINTS 1002 float
-77.6857 -97.2351 54.6515 -77.8998 -97.6486 55.0019 -77.3753 -97.725 54.8114 
-77.0979 -97.321 54.3914 -76.7464 -97.8213 54.587 -77.4228 -97.0014 53.9661 
-76.4802 -97.4037 54.0786 -76.2781 -97.9714 54.2456 -76.8391 -97.0615 53.5871 
-77.1405 -96.8642 52.9637 -76.0498 -97.5878 53.5965 -75.9867 -98.2475 53.7021 
-76.2866 -97.1008 53.1521 -76.5457 -96.852 52.5222 -76.8846 -96.6493 51.9747 
-75.6763 -97.9214 52.9635 -75.4903 -98.4577 53.1856 -75.8476 -97.3201 52.5963 
-75.9723 -96.8533 52.0551 -76.1772 -96.5458 51.5885 -76.6485 -96.3114 51.0734 
-75.0411 -98.0277 52.5229 -74.7284 -98.3554 52.9305 -75.3472 -97.6369 52.0607 
-75.4627 -97.0765 51.5716 -75.4883 -96.4939 51.2032 -75.837 -96.134 50.7476 
-76.3696 -96.0415 49.9789 -74.2057 -97.777 52.3627 -74.03 -98.214 52.7124 
-74.5838 -97.564 51.7982 -74.8947 -97.2607 51.1884 -74.9174 -96.6315 50.8075 
-75.0722 -96.0544 50.4286 -75.5964 -95.8897 49.6735 -76.0437 -95.9233 48.8224 
-73.4635 -97.6582 52.1468 -73.5216 -98.3323 52.3033 -73.6727 -97.2586 51.674 
-74.1096 -97.0927 50.9483 -74.3712 -96.7083 50.4088 -74.4731 -96.1586 50.0188 
-74.8493 -95.8898 49.3356 -75.3878 -95.8609 48.4992 -75.7406 -95.7041 47.998 
-72.9731 -97.8226 51.7373 -73.1329 -98.5203 51.8202 -72.9756 -97.2364 51.4 
-73.2944 -96.9522 50.6919 -73.7003 -96.6788 50.0264 -73.9644 -96.2669 49.5653 
-74.2698 -96.0192 48.9147 -74.7421 -95.9342 48.0968 -75.1795 -95.7072 47.587 
-75.5118 -95.2745 47.4945 -72.6634 -97.9884 51.2664 -72.7973 -98.5709 51.395 
-72.6204 -97.4299 50.9735 -72.8021 -97.0867 50.3345 -73.0955 -96.7971 49.6505 
-73.3807 -96.3798 49.1808 -73.751 -96.0998 48.5917 -74.229 -96.027 47.7633 
-74.6559 -95.8 47.1701 -74.9879 -95.3318 47.0332 -75.3398 -94.8604 47.0876 
-77.8024 -98.2455 55.1607 -77.2453 -98.355 54.9644 -77.6637 -98.8975 55.4875 
-77.137 -99.0641 55.2978 -77.4256 -99.3987 56.1274 -76.6931 -98.4749 54.7249 
-76.9181 -99.6158 55.9307 -77.0657 -99.6862 56.8599 -76.7058 -99.202 55.033 
-76.3594 -98.654 54.3396 -76.571 -99.9582 56.5781 -76.7159 -100.078 57.3175 
-76.515 -99.7923 55.5857 -76.3357 -99.3463 54.6287 -75.9542 -98.8706 53.8544 
-76.3013 -100.423 57.0067 -76.4472 -100.854 57.589 -76.2265 -100.244 56.0978 
-76.0382 -99.9284 55.0735 -75.6654 -99.4138 54.2318 -75.1903 -98.8856 53.5409 
-76.0461 -101.158 57.3911 -76.1345 -101.718 57.9185 -76.041 -100.779 56.498 
-75.8305 -100.458 55.4153 -75.3561 -99.9263 54.5855 -74.8397 -99.3075 53.9779 
-74.4278 -98.7561 53.3195 -75.6621 -101.829 57.7247 -75.7988 -102.279 58.1277 
-75.7343 -101.361 56.8774 -75.6984 -100.991 55.7268 -75.2865 -100.488 54.7984 
-74.6733 -99.8074 54.2565 -74.2212 -99.2457 53.6493 -73.9099 -98.8191 52.8916 
-75.3663 -102.288 57.7806 -75.6145 -102.645 58.0174 -75.3441 -101.804 57.0727 
-75.3693 -101.404 56.0176 -75.1317 -101.008 55.0592 -74.5569 -100.373 54.48 
-73.9979 -99.7195 53.9584 -73.7063 -99.3281 53.158 -73.4801 -99.0016 52.3475 
-75.3062 -102.765 57.5958 -75.5853 -103.112 57.7087 -75.171 -102.208 57.0337 
-75.057 -101.702 56.1517 -74.8041 -101.37 55.3142 -74.3099 -100.899 54.737 
-73.7105 -100.205 54.2706 -73.3256 -99.669 53.5864 -73.1988 -99.3805 52.6799 
-73.0656 -99.0541 51.8964 -75.3917 -103.6 57.3728 -75.2226 -102.988 57.0492 
-75.2157 -104.017 56.9219 -75.0402 -103.093 56.4183 -75.0128 -103.98 56.2828 
-74.9969 -102.222 56.3202 -74.6033 -102.999 55.7686 -74.8444 -103.422 55.415 
-74.5178 -102.301 55.7553 -74.5754 -101.727 55.55 -74.1285 -102.826 54.9857 
-74.6949 -102.818 54.3647 -73.7954 -102.493 55.2792 -73.8474 -101.899 55.1589 
-74.0451 -101.365 54.9524 -73.7751 -102.737 53.9464 -74.3277 -102.652 53.278 
-73.2609 -102.664 54.5032 -73.2452 -102.116 54.5836 -73.388 -101.37 54.4758 
-73.4772 -100.721 54.4262 -73.379 -102.721 52.7572 -73.7745 -102.8 52.2734 
-72.9015 -102.648 53.3472 -72.8646 -102.188 53.6115 -73.0501 -101.401 53.6082 
-72.9852 -100.614 53.7386 -72.9907 -100.024 53.8054 -73.0333 -102.637 51.6003 
-73.3959 -102.829 51.3183 -72.5751 -102.488 52.0967 -72.4517 -102.111 52.5161 
-72.6709 -101.464 52.6314 -72.712 -100.722 52.7795 -72.6022 -100.038 53.0133 
-72.7843 -99.6025 52.9561 -72.8891 -102.458 50.5527 -73.2444 -102.661 50.3608 
-72.4458 -102.304 50.9434 -72.2013 -101.988 51.4411 -72.2608 -101.454 51.7201 
-72.3597 -100.844 51.8238 -72.3495 -100.194 52.0184 -72.4467 -99.617 52.137 
-72.7507 -99.2817 52.0208 -72.7723 -102.336 49.6516 -73.0837 -102.54 49.4662 
-72.4285 -102.174 49.9469 -72.2056 -101.868 50.3721 -72.1274 -101.333 50.7161 
-72.1028 -100.743 50.8336 -72.1035 -100.198 50.9254 -72.1802 -99.642 51.1107 
-72.3697 -99.166 51.2406 -72.6126 -98.8501 51.2931 -72.3677 -98.2253 50.8521 
-72.1444 -98.5613 50.6131 -71.8016 -97.9591 50.1971 -71.9686 -99.0076 50.3309 
-71.4699 -98.3825 49.9071 -71.0837 -97.8347 49.5467 -71.8778 -99.5218 50.0219 
-71.3965 -98.9397 49.5329 -70.7418 -98.2899 49.3668 -70.5221 -97.729 48.9302 
-71.846 -100.01 49.8218 -71.4061 -99.4999 49.171 -70.8235 -98.975 49.0597 
-70.3726 -98.1543 48.7684 -70.4374 -97.6121 47.9991 -71.9296 -100.563 49.7478 
-71.3892 -99.9915 48.9343 -70.8273 -99.7233 48.6976 -70.5107 -99.0436 48.4121 
-70.3741 -98.0807 47.5603 -70.5567 -97.6323 46.6731 -72.0816 -101.236 49.5924 
-71.6016 -100.496 48.7738 -70.875 -100.164 48.3686 -70.4905 -99.9188 48.0402 
-70.3885 -99.1085 47.1092 -70.352 -98.2268 46.0816 -70.6125 -97.7755 45.6031 
-72.1905 -101.827 49.3047 -71.9122 -101.131 48.5923 -71.3937 -100.403 48.0624 
-70.8453 -100.105 47.7223 -70.5279 -99.8234 46.9393 -70.36 -99.1716 45.8391 
-70.4478 -98.455 45.2489 -70.888 -97.8922 45.1422 -72.3453 -102.195 49.0297 
-72.036 -101.819 48.4149 -71.8734 -100.99 47.8036 -71.6178 -100.194 47.3547 
-71.1819 -99.8603 46.8404 -70.7733 -99.657 45.9828 -70.6674 -99.224 45.2577 
-70.9604 -98.5958 44.9988 -71.4435 -97.9605 44.8364 -72.6145 -102.443 48.8084 
-72.1337 -102.354 48.2499 -71.9557 -101.851 47.6455 -71.9961 -100.929 47.0258 
-71.8398 -100.161 46.5429 -71.4541 -99.8321 46.0374 -71.1994 -99.6418 45.4203 
-71.2786 -99.2646 44.9458 -71.5828 -98.6716 44.6383 -71.9074 -98.0451 44.2853 
-72.3101 -97.7036 50.5949 -71.8888 -97.5628 49.7701 -72.477 -97.3446 50.0417 
-71.3417 -97.5399 48.9892 -72.2606 -97.3458 49.0827 -72.7176 -97.0821 49.326 
-70.9943 -97.5348 48.2071 -71.8748 -97.3386 48.3021 -72.4452 -96.9616 48.5102 
-72.8308 -96.6078 48.8369 -71.0332 -97.5487 47.1507 -71.6749 -97.3513 47.4858 
-72.0803 -96.7748 47.7893 -72.4387 -96.2928 48.1051 -73.0943 -96.1317 48.348 
-71.1206 -97.5457 46.0476 -71.7333 -97.3367 46.4921 -72.0164 -96.6966 46.8829 
-72.195 -96.0499 47.2167 -72.8549 -95.8897 47.4131 -73.6843 -95.9902 47.5232 
-71.2307 -97.4739 45.3333 -71.7835 -97.1794 45.5965 -72.1634 -96.6071 45.9134 
-72.2702 -95.9106 46.2301 -72.704 -95.6248 46.4927 -73.5456 -95.6987 46.6631 
-74.2263 -95.7908 46.8358 -71.5895 -97.4172 44.8518 -71.9079 -97.0243 44.8965 
-72.2985 -96.5031 45.085 -72.4912 -95.7826 45.37 -72.6606 -95.2864 45.7026 
-73.2231 -95.184 46.0838 -73.9706 -95.2304 46.3927 -74.548 -95.2786 46.6617 
-72.0098 -97.4514 44.2572 -72.1675 -97.0135 44.2337 -72.4585 -96.5614 44.3843 
-72.7388 -95.8577 44.6789 -72.8154 -95.1126 44.9998 -72.9861 -94.7092 45.4633 
-73.5543 -94.6477 46.0028 -74.2784 -94.7175 46.381 -74.8803 -94.7927 46.6903 
-72.1927 -97.7685 43.5333 -72.3605 -97.1956 43.5267 -72.4393 -97.5126 42.8973 
-72.7119 -96.9247 43.0551 -72.9178 -97.2338 42.5924 -72.5912 -96.7723 43.6945 
-73.2305 -96.5613 42.8284 -73.5578 -96.9631 42.2676 -73.0682 -96.4595 43.475 
-72.9446 -96.2184 44.0688 -73.8353 -96.2297 42.4068 -74.1779 -96.7738 41.8343 
-73.6181 -96.0523 43.2279 -73.4614 -95.8516 43.853 -73.1554 -95.3767 44.3758 
-74.5509 -96.0806 42.0728 -74.9974 -96.6581 41.8075 -74.2258 -95.744 42.7352 
-73.994 -95.5123 43.3887 -73.6193 -95.0366 43.9562 -73.1536 -94.6183 44.6979 
-75.524 -96.0934 42.2509 -76.0781 -96.6142 42.0664 -75.018 -95.6463 42.5553 
-74.644 -95.2562 42.9253 -74.2791 -94.8313 43.422 -73.7831 -94.4288 44.2706 
-73.4589 -94.3313 45.2968 -76.5984 -96.1609 42.4041 -77.0751 -96.6351 42.0496 
-76.023 -95.7 42.6803 -75.4909 -95.1355 42.8256 -75.1129 -94.633 43.1233 
-74.7594 -94.4213 43.8368 -74.3847 -94.381 44.9017 -74.2033 -94.426 45.8735 
-77.5243 -96.1823 42.2189 -77.8131 -96.6837 41.9031 -77.0746 -95.7252 42.5692 
-76.5362 -95.1505 42.7526 -76.0592 -94.5398 43.0188 -75.7191 -94.3518 43.6174 
-75.4467 -94.5495 44.478 -75.1784 -94.6015 45.4619 -74.9706 -94.5546 46.2744 
-78.2258 -96.2088 42.1207 -78.3687 -96.7775 42.0328 -77.9512 -95.6682 42.3745 
-77.5913 -95.1307 42.5857 -77.1702 -94.5737 42.8857 -76.6996 -94.3018 43.5137 
-76.3121 -94.5133 44.3086 -76.0626 -94.7221 45.1413 -75.8165 -94.6038 46.0299 
-75.541 -94.5499 46.7352 -71.9856 -98.568 43.8002 -72.1258 -98.3336 43.041 
-72.0253 -99.1242 43.3326 -72.1819 -98.9694 42.7682 -72.3056 -99.5893 43.193 
-72.4844 -98.1091 42.6077 -72.6934 -99.4995 42.8471 -72.8827 -100.021 43.3589 
-72.8323 -98.7952 42.5776 -73.2229 -97.887 42.4049 -73.4811 -99.9952 43.004 
-73.4407 -100.591 43.4439 -73.557 -99.3426 42.64 -73.7279 -98.5915 42.3685 
-73.935 -97.6928 42.0309 -74.1203 -100.562 43.0779 -73.9267 -101.193 43.4213 
-74.3191 -99.8158 42.6843 -74.3673 -99.1082 42.3264 -74.4131 -98.3924 42.0439 
-74.6227 -97.5078 41.7816 -74.6812 -101.049 43.274 -74.581 -101.66 43.5237 
-74.8958 -100.241 42.9937 -75.019 -99.5049 42.5189 -75.1015 -98.9365 42.1641 
-75.3232 -98.2317 42.0073 -75.6833 -97.3406 41.9236 -75.3652 -101.517 43.4691 
-75.3328 -102.104 43.666 -75.4676 -100.634 43.4387 -75.6047 -99.7922 43.1223 
-75.8455 -99.3263 42.5389 -76.2125 -98.9015 42.1952 -76.5514 -98.1296 42.0514 
-76.8185 -97.263 41.9609 -76.0284 -102.059 43.4858 -75.9108 -102.492 43.8153 
-76.1471 -101.243 43.4962 -76.2258 -100.221 43.5345 -76.4265 -99.5674 43.1046 
-76.8633 -99.3192 42.4877 -77.2722 -98.858 42.1411 -77.4663 -98.0443 41.9436 
-77.6081 -97.2607 41.8303 -76.4768 -102.378 43.6349 -76.2429 -102.578 44.1808 
-76.7576 -101.899 43.3675 -76.9114 -100.99 43.4606 -76.9844 -100.038 43.4339 
[...]
CELL_DATA 2000
SCALARS Distance double
LOOKUP_TABLE default
135.195 134.836 134.883 134.606 134.474 134.492 134.194 134.261 133.971 
134.215 134.155 133.802 133.823 133.497 133.578 133.276 133.973 133.921 
133.525 133.466 133.072 133.081 132.723 132.837 132.539 133.512 133.588 
133.214 133.203 132.777 132.704 132.256 132.265 131.897 132.057 131.767 
132.882 133 132.632 132.771 132.384 132.401 131.914 131.842 131.373 
131.419 131.099 131.286 131.033 132.377 132.375 131.94 132.079 131.711 
131.876 131.449 131.47 130.973 130.949 130.568 130.673 130.444 130.616 
130.392 132.068 131.96 131.472 131.455 131.062 131.178 130.83 130.935 
130.53 130.547 130.171 130.217 129.973 130.096 129.899 130.022 129.781 
131.8 131.692 131.219 131.109 130.715 130.686 130.376 130.403 130.087 
130.108 129.796 129.841 129.608 129.694 129.501 129.582 129.353 129.428 
129.192 135.527 135.993 135.567 135.189 136.523 136.082 135.696 135.229 
134.858 136.964 136.616 136.287 135.808 135.435 134.953 134.63 137.265 
137.001 136.751 136.385 136.037 135.566 135.189 134.735 134.372 137.654 
137.321 137.104 136.798 136.489 136.094 135.664 135.229 134.76 134.357 
133.882 138.211 137.802 137.56 137.194 136.9 136.501 136.06 135.618 
135.099 134.677 134.167 133.776 133.288 138.653 138.323 138.02 137.666 
137.335 136.935 136.497 136.022 135.496 135.016 134.517 134.091 133.657 
133.246 132.842 138.864 138.634 138.29 138.007 137.616 137.3 136.858 
136.456 135.929 135.445 134.909 134.461 134.021 133.643 133.277 132.886 
132.531 139.052 138.821 138.499 138.199 137.777 137.478 137.036 136.733 
136.245 135.844 135.283 134.833 134.318 133.954 133.556 133.257 132.908 
132.572 132.218 139.158 139.172 138.972 138.545 138.959 138.855 138.292 
138.182 137.715 138.355 138.443 137.868 137.822 137.285 137.288 136.909 
137.523 137.738 137.302 137.344 136.855 136.843 136.419 136.482 136.122 
136.737 136.968 136.691 136.811 136.423 136.425 135.967 135.974 135.519 
135.603 135.166 136.068 136.268 136.021 136.213 135.87 135.961 135.491 
135.495 134.964 134.981 134.488 134.588 134.19 135.465 135.618 135.303 
135.505 135.156 135.329 134.899 134.97 134.469 134.459 133.962 133.974 
133.584 133.699 133.43 134.893 135.004 134.655 134.801 134.469 134.622 
134.258 134.363 133.94 133.975 133.521 133.518 133.112 133.166 132.876 
133.025 132.802 134.372 134.451 134.13 134.224 133.93 134.03 133.7 
133.776 133.368 133.428 132.984 133.042 132.619 132.691 132.339 132.47 
132.201 132.385 132.136 131.67 131.731 131.448 130.939 131.87 131.531 
131.003 130.694 130.185 132.111 131.714 131.198 130.825 130.302 129.971 
129.513 132.429 131.98 131.459 131.074 130.626 130.227 129.75 129.367 
128.971 132.836 132.341 131.787 131.354 130.959 130.617 130.247 129.779 
129.287 128.862 128.507 133.257 132.801 132.255 131.736 131.276 130.932 
130.643 130.3 129.871 129.327 128.809 128.414 128.146 133.561 133.218 
132.76 132.253 131.732 131.274 130.911 130.624 130.302 129.893 129.416 
128.877 128.502 128.166 128.068 133.779 133.503 133.156 132.756 132.305 
131.788 131.349 130.929 130.607 130.267 129.933 129.491 129.166 128.716 
128.58 128.269 128.278 134.014 133.741 133.461 133.152 132.828 132.382 
131.982 131.466 131.1 130.66 130.383 129.996 129.777 129.389 129.26 
128.902 128.857 128.544 128.497 131.462 130.754 131.056 130.921 130.04 
130.364 130.316 130.571 130.475 129.386 129.699 129.734 130.026 130.004 
130.198 130.127 128.858 129.127 129.198 129.492 129.491 129.711 129.603 
129.826 129.758 128.443 128.686 128.783 129.026 128.985 129.156 128.976 
129.204 129.099 129.43 129.447 128.11 128.315 128.434 128.66 128.596 
128.677 128.417 128.544 128.423 128.751 128.838 129.203 129.319 127.973 
128.034 128.099 128.294 128.236 128.311 128.024 128.048 127.863 128.111 
128.211 128.61 128.775 129.119 129.214 128.078 127.974 127.915 127.978 
127.903 127.966 127.722 127.705 127.445 127.579 127.562 127.946 128.076 
128.507 128.594 128.958 129.015 128.224 128.072 127.898 127.845 127.738 
127.733 127.572 127.499 127.24 127.204 127.042 127.266 127.314 127.74 
127.863 128.287 128.389 128.754 128.856 128.166 127.892 127.95 127.834 
127.734 127.723 127.655 127.708 127.665 127.719 127.636 127.569 127.598 
127.579 127.593 127.505 127.746 127.621 127.511 127.541 127.523 127.532 
127.381 127.341 127.149 127.96 127.695 127.546 127.487 127.448 127.454 
127.285 127.203 126.936 126.923 126.852 128.524 128.096 127.93 127.645 
127.553 127.414 127.275 127.14 126.932 126.81 126.761 126.817 127.055 
129.193 128.778 128.608 128.188 128.009 127.657 127.489 127.245 127.164 
126.986 127.066 126.962 127.231 127.267 127.648 129.702 129.387 129.22 
128.856 128.633 128.205 127.965 127.6 127.54 127.349 127.548 127.442 
127.756 127.648 127.966 127.93 128.247 130.126 129.833 129.662 129.363 
129.159 128.793 128.565 128.165 128.074 127.815 128.004 127.928 128.26 
128.193 128.46 128.34 128.549 128.493 128.736 128.391 128.655 128.365 
128.082 129.048 128.679 128.426 128.119 127.94 129.676 129.214 129.042 
128.624 128.505 128.128 128.004 130.458 129.976 129.851 129.379 129.29 
128.834 128.704 128.251 128.091 131.228 130.795 130.68 130.218 130.086 
129.631 129.489 129.018 128.852 128.378 128.299 131.97 131.557 131.45 
131.006 130.848 130.39 130.261 129.814 129.742 129.25 129.218 128.74 
128.83 132.758 132.326 132.223 131.761 131.602 131.133 131.034 130.62 
130.662 130.23 130.295 129.774 129.818 129.351 129.461 133.513 133.127 
133.044 132.573 132.416 131.908 131.786 131.381 131.436 131.131 131.246 
130.843 130.846 130.342 130.31 129.896 129.943 134.041 133.794 133.756 
133.392 133.287 132.782 132.633 132.145 132.11 131.805 131.893 131.64 
131.653 131.262 131.167 130.718 130.67 130.308 130.361 134.069 134.016 
133.862 133.528 134.037 133.843 133.491 133.329 132.939 134.039 133.861 
133.454 133.277 132.84 132.663 132.153 133.895 133.795 133.348 133.185 
132.695 132.526 132.001 131.804 131.268 133.693 133.609 133.22 133.06 
132.586 132.384 131.889 131.675 131.177 130.967 130.522 133.689 133.497 
133.176 132.983 132.584 132.347 131.906 131.65 131.215 130.956 130.549 
130.324 129.966 133.905 133.625 133.272 133.016 132.621 132.382 131.954 
131.714 131.283 131.04 130.631 130.399 130.041 129.833 129.515 134.091 
133.852 133.455 133.155 132.704 132.427 131.973 131.738 131.285 131.068 
130.611 130.417 130.001 129.857 129.517 129.383 129.083 134.127 133.975 
133.608 133.327 132.864 132.542 132.08 131.788 131.349 131.081 130.622 
130.369 129.904 129.73 129.336 129.266 128.955 128.906 128.632 134.458 
135.056 134.616 134.381 135.66 135.21 134.946 134.557 134.386 136.33 
135.825 135.54 135.112 134.912 134.575 134.404 137.179 136.594 136.275 
135.726 135.444 135.058 134.832 134.515 134.25 138.025 137.503 137.179 
136.536 136.137 135.594 135.255 134.879 134.578 134.267 133.995 138.635 
138.258 137.978 137.421 136.991 136.349 135.916 135.365 135.044 134.634 
134.427 134.1 133.989 139.149 138.795 138.542 138.102 137.744 137.189 
136.776 136.145 135.8 135.252 135.07 134.657 134.599 134.258 134.238 
139.715 139.333 139.052 138.616 138.29 137.857 137.521 136.994 136.629 
136.066 135.784 135.338 135.185 134.859 134.763 134.482 134.388 140.141 
139.853 139.518 139.101 138.709 138.335 138.009 137.628 137.272 136.799 
136.412 135.96 135.643 135.314 135.073 134.848 134.66 134.482 134.337 
140.155 139.745 139.861 139.512 139.255 139.347 139.047 139.096 138.711 
139.078 138.973 138.674 138.657 138.355 138.36 138.033 139.1 138.939 
138.588 138.428 138.101 138.045 137.729 137.711 137.331 138.909 138.89 
138.513 138.371 137.963 137.853 137.49 137.422 137.019 136.946 136.499 
138.557 138.586 138.21 138.154 137.722 137.671 137.328 137.257 136.874 
136.705 136.234 136.102 135.697 138.312 138.278 137.924 137.826 137.421 
137.372 137.097 137.104 136.828 136.67 136.192 135.925 135.438 135.343 
135.048 138.08 138.076 137.78 137.663 137.31 137.166 136.883 136.864 
136.64 136.597 136.192 135.945 135.403 135.163 134.791 134.772 134.609 
137.695 137.783 137.547 137.549 137.261 137.139 136.793 136.681 136.349 
136.327 135.967 135.874 135.421 135.197 134.805 134.64 134.448 134.437 
134.344 137.344 136.763 137.121 137.237 136.12 136.505 136.628 137 
137.022 135.363 135.777 135.805 136.27 136.279 136.658 136.55 134.489 
134.934 134.878 135.335 135.265 135.744 135.646 136.073 135.984 133.594 
134.044 134.041 134.429 134.354 134.733 134.663 135.097 135.083 135.543 
135.548 132.812 133.212 133.284 133.663 133.659 133.962 133.938 134.261 
134.333 134.722 134.82 135.186 135.151 132.131 132.483 132.525 132.927 
132.946 133.299 133.271 133.608 133.666 134.068 134.216 134.578 134.623 
134.829 134.707 131.431 131.773 131.764 132.163 132.197 132.578 132.56 
132.9 132.88 133.31 133.404 133.909 134.011 134.363 134.327 134.465 
134.371 130.733 131.045 131.035 131.412 131.495 131.881 131.943 132.241 
132.204 132.503 132.497 132.969 133.07 133.607 133.676 134.044 134.02 
134.209 134.192 137.323 137.187 137.062 136.724 137.139 136.965 136.573 
136.457 136.11 136.961 136.867 136.432 136.313 135.905 135.818 135.413 
136.537 136.547 136.073 136.053 135.582 135.553 135.075 135.022 134.525 
136.073 136.071 135.6 135.592 135.095 135.106 134.584 134.582 134.027 
134.024 133.537 135.74 135.682 135.241 135.161 134.661 134.603 134.087 
134.056 133.537 133.509 133.047 133.078 132.735 135.47 135.402 134.958 
134.855 134.333 134.219 133.698 133.625 133.173 133.116 132.734 132.692 
132.385 132.397 132.121 135.194 135.126 134.667 134.566 134.036 133.905 
133.371 133.279 132.838 132.807 132.45 132.434 132.107 132.1 131.777 
131.787 131.455 134.936 134.851 134.402 134.286 133.786 133.637 133.124 
132.988 132.527 132.469 132.069 132.081 131.69 131.733 131.34 131.393 
131.017 131.069 130.733 137.692 138.275 137.832 137.589 138.973 138.467 
138.199 137.763 137.536 139.746 139.21 138.865 138.36 138.067 137.68 
137.377 140.287 139.925 139.532 139.008 138.613 138.177 137.834 137.422 
136.996 140.249 140.198 139.846 139.543 139.118 138.712 138.331 137.889 
137.456 136.975 136.518 139.937 139.949 139.64 139.59 139.231 139.063 
138.705 138.378 137.95 137.471 136.996 136.524 136.137 139.898 139.742 
139.455 139.341 139.037 138.978 138.683 138.577 138.209 137.91 137.445 
137.011 136.584 136.182 135.852 140.087 139.882 139.658 139.387 139.115 
138.88 138.599 138.46 138.158 138.013 137.633 137.365 136.95 136.603 
136.241 135.893 135.578 140.208 140.099 139.965 139.729 139.503 139.161 
138.855 138.528 138.211 137.979 137.663 137.462 137.119 136.875 136.528 
136.241 135.92 135.606 135.307 140.198 140.149 140.143 140.019 139.94 
140.018 139.86 139.866 139.586 139.466 139.639 139.409 139.552 139.263 
139.291 138.902 138.881 139.071 138.819 138.984 138.717 138.854 138.524 
138.543 138.179 138.29 138.503 138.305 138.43 138.196 138.319 138.067 
138.136 137.814 137.838 137.553 137.609 137.891 137.721 137.922 137.685 
137.834 137.576 137.688 137.382 137.441 137.128 137.216 136.983 136.87 
137.152 136.953 137.241 137.006 137.249 136.98 137.158 136.847 136.961 
136.637 136.745 136.483 136.632 136.421 136.205 136.415 136.195 136.451 
136.262 136.529 136.338 136.546 136.294 136.418 136.124 136.23 135.974 
136.118 135.913 136.066 135.853 135.643 135.799 135.585 135.771 135.617 
135.851 135.739 135.958 135.788 135.915 135.655 135.739 135.482 135.61 
135.405 135.563 135.362 135.498 135.266 135.277 134.71 135.069 135.221 
134.093 134.488 134.668 135.042 135.252 133.425 133.849 134.044 134.468 
134.714 135.124 135.377 132.727 133.174 133.362 133.808 134.032 134.514 
134.765 135.218 135.409 131.965 132.443 132.617 133.089 133.255 133.752 
133.94 134.471 134.649 135.135 135.252 131.185 131.637 131.771 132.273 
132.421 132.931 133.081 133.592 133.756 134.282 134.455 134.939 135.084 
130.476 130.853 130.92 131.387 131.535 132.068 132.26 132.764 132.943 
133.424 133.631 134.135 134.366 134.83 135.023 129.824 130.15 130.168 
130.562 130.685 131.192 131.424 131.96 132.178 132.658 132.85 133.342 
133.58 134.099 134.338 134.797 134.978 129.243 129.523 129.548 129.867 
129.975 130.399 130.622 131.14 131.376 131.878 132.055 132.547 132.745 
133.286 133.528 134.06 134.268 134.727 134.878 134.666 134.031 134.278 
134.098 133.274 133.569 133.376 133.659 133.463 132.459 132.745 132.538 
132.873 132.687 132.994 132.804 131.733 131.939 131.68 131.992 131.812 
132.171 132.004 132.329 132.188 131.067 131.248 130.953 131.179 130.972 
131.293 131.136 131.487 131.343 131.718 131.657 130.361 130.571 130.302 
130.503 130.285 130.528 130.36 130.646 130.48 130.825 130.726 131.182 
131.204 129.74 129.904 129.692 129.881 129.682 129.885 129.694 129.926 
129.738 130.006 129.865 130.24 130.236 130.744 130.838 129.307 129.391 
129.216 129.354 129.184 129.323 129.094 129.262 129.036 129.28 129.14 
129.457 129.447 129.851 129.958 130.437 130.564 128.981 129.019 128.831 
128.944 128.782 128.884 128.629 128.7 128.407 128.575 128.431 128.752 
128.795 129.173 129.309 129.689 129.837 130.233 130.351 139.271 139.152 
139.328 139.598 138.984 139.252 139.589 139.759 140.088 138.543 138.987 
139.383 139.717 140.061 140.263 140.544 137.949 138.429 138.843 139.353 
139.698 140.072 140.298 140.568 140.752 137.505 137.856 138.209 138.715 
139.057 139.53 139.706 140.101 140.248 140.63 140.804 137.193 137.47 
137.713 138.1 138.396 138.846 139.063 139.45 139.606 140.01 140.221 
140.632 140.776 136.799 137.121 137.314 137.629 137.859 138.238 138.516 
138.89 139.16 139.489 139.759 140.087 140.289 140.567 140.599 136.3 
136.666 136.885 137.212 137.441 137.772 138.069 138.432 138.779 139.133 
139.466 139.763 140.001 140.2 140.28 140.401 140.377 135.813 136.161 
136.397 136.756 137.019 137.377 137.686 138.046 138.369 138.739 139.038 
139.412 139.649 139.942 140.059 140.199 140.21 140.267 140.26 139.474 
139.745 139.678 139.92 140.205 140.023 140.243 140.206 140.529 140.638 
140.475 140.601 140.551 140.87 140.884 141.116 140.876 140.786 140.737 
140.716 140.835 141.039 141.227 141.29 141.11 141.022 140.972 140.847 
140.701 140.564 140.719 140.765 141.069 140.879 140.857 140.249 141.02 
141.094 141.065 140.867 140.693 140.535 140.521 140.596 140.508 140.488 
140.028 139.812 139.296 140.767 140.979 141.048 141.059 141.013 140.844 
140.877 140.712 140.731 140.453 140.188 139.784 139.473 139.202 139.197 
140.476 140.668 140.773 140.94 140.988 141.05 141.101 141.097 141.116 
140.916 140.692 140.242 139.953 139.589 139.627 139.507 139.802 140.332 
140.438 140.549 140.692 140.766 140.895 140.913 141.057 141.034 141.098 
140.897 140.692 140.35 140.062 139.941 139.871 140.052 140.103 140.278 
139.445 139.932 139.661 139.574 140.466 140.156 140.064 139.754 139.455 
140.901 140.606 140.353 140.122 139.783 139.428 138.843 140.789 140.754 
140.302 140.196 139.746 139.564 138.95 138.584 137.882 139.933 140.22 
139.739 139.856 139.355 139.35 138.771 138.553 137.856 137.551 136.961 
139.088 139.287 138.99 139.155 138.799 138.881 138.444 138.339 137.763 
137.498 136.942 136.71 136.286 139.113 138.91 138.818 138.698 138.561 
138.495 138.263 138.129 137.732 137.472 137.009 136.744 136.355 136.129 
135.758 139.764 139.385 139.314 138.951 138.85 138.58 138.434 138.183 
137.891 137.574 137.163 136.86 136.473 136.234 135.867 135.618 135.214 
140.211 139.999 139.791 139.486 139.227 138.954 138.718 138.468 138.153 
137.827 137.376 137.029 136.569 136.316 135.913 135.702 135.296 135.056 
134.658 137.903 138.313 138.224 138.455 138.546 138.542 138.796 138.797 
139.123 138.749 138.704 138.897 138.991 139.36 139.49 139.877 139.114 
138.984 139.113 139.07 139.37 139.565 139.992 140.174 140.406 139.388 
139.385 139.594 139.452 139.683 139.643 139.964 140.118 140.348 140.454 
140.387 139.386 139.536 139.841 139.903 140.155 140.077 140.241 140.167 
140.277 140.304 140.311 140.288 140.138 139.504 139.53 139.785 139.946 
140.202 140.35 140.473 140.442 140.428 140.337 140.343 140.291 140.305 
140.175 140.129 139.93 139.782 139.894 139.872 140.037 140.207 140.406 
140.525 140.591 140.524 140.531 140.442 140.504 140.42 140.449 140.288 
140.262 140.276 140.167 140.118 139.993 139.997 140.063 140.295 140.469 
140.728 140.732 140.837 140.703 140.756 140.647 140.674 140.561 140.509 
140.371 140.305 
POINT_DATA 1002
SCALARS Distance double
LOOKUP_TABLE default
134.93 135.489 135.168 134.552 134.79 134.337 134.135 134.498 133.896 
133.68 133.833 134.317 133.438 133.158 132.992 133.614 133.988 133.129 
132.65 132.363 132.265 133.162 133.387 132.868 132.335 131.784 131.546 
131.492 132.45 132.81 132.285 132.001 131.408 130.93 130.823 130.786 
131.867 132.456 131.504 131.345 131.003 130.509 130.268 130.243 130.148 
131.557 132.192 130.995 130.688 130.458 130.129 129.876 129.779 129.677 
129.518 131.326 131.881 130.776 130.376 130.065 129.739 129.521 129.432 
129.293 129.09 128.969 135.925 135.609 136.446 136.193 136.932 135.287 
136.725 137.238 135.944 135.075 137.043 137.515 136.488 135.68 134.812 
137.407 138.041 136.864 136.116 135.197 134.273 137.96 138.634 137.314 
136.525 135.541 134.561 133.668 138.377 138.948 137.726 136.967 136 
134.947 134.044 133.259 138.576 139.07 137.918 137.208 136.401 135.388 
134.393 133.628 132.944 138.818 139.27 138.104 137.311 136.591 135.744 
134.719 133.841 133.201 132.581 139.387 138.713 139.418 138.436 139.024 
137.73 137.869 138.172 137.301 136.825 137.173 137.227 136.864 136.403 
136.031 136.507 136.48 136.397 136.011 135.49 135.037 135.82 135.906 
135.738 135.477 134.987 134.418 134.01 135.129 135.362 134.961 134.772 
134.448 133.973 133.496 133.249 134.523 134.796 134.315 134.134 133.87 
133.504 133.087 132.756 132.626 134.034 134.288 133.835 133.642 133.325 
132.912 132.538 132.233 132.031 131.948 131.18 131.216 130.421 131.346 
130.446 129.689 131.565 130.683 129.777 129.072 131.84 130.974 130.222 
129.251 128.591 132.274 131.248 130.655 129.864 128.748 128.186 132.807 
131.686 130.894 130.381 129.371 128.312 127.942 133.207 132.268 131.243 
130.597 129.93 128.95 128.244 128.02 133.469 132.793 131.854 130.95 
130.276 129.595 128.953 128.544 128.271 133.722 133.194 132.498 131.597 
130.756 130.118 129.618 129.21 128.819 128.402 130.662 130.011 130.276 
129.399 129.794 129.943 128.913 129.285 129.397 129.471 128.556 128.883 
128.788 128.746 129.083 128.205 128.544 128.363 128.102 128.425 129.008 
127.958 128.135 128.03 127.682 127.808 128.401 128.919 127.946 127.842 
127.735 127.405 127.249 127.629 128.201 128.664 128 127.75 127.625 
127.358 126.959 126.921 127.393 127.996 128.509 128.096 127.755 127.828 
127.59 127.786 127.622 127.535 127.838 127.583 127.534 127.492 127.91 
127.508 127.481 127.132 127.684 128.288 127.463 127.376 127 126.679 
128.318 128.969 127.79 127.406 127.046 126.752 126.853 129.048 129.565 
128.459 127.778 127.285 127.164 127.285 127.557 129.551 129.991 129.062 
128.38 127.738 127.601 127.88 128.105 128.238 129.957 130.432 129.478 
128.938 128.378 128.109 128.304 128.598 128.68 128.732 128.678 128.323 
128.966 128.748 129.43 128.209 129.463 130.135 128.916 128.39 130.332 
130.908 129.759 129.198 128.526 131.146 131.631 130.563 129.938 129.331 
128.7 131.895 132.386 131.312 130.671 130.174 129.721 129.234 132.699 
133.191 132.078 131.417 131.015 130.797 130.37 129.851 133.49 133.86 
132.943 132.229 131.713 131.581 131.363 130.807 130.273 134.034 134.231 
133.745 133.177 132.495 132.123 131.978 131.618 131.075 130.661 134.197 
133.669 134.184 133.678 134.249 133.127 133.656 134.213 133.028 132.366 
133.517 133.957 132.873 132.186 131.453 133.354 133.769 132.791 132.096 
131.388 130.692 133.37 133.93 132.806 132.156 131.468 130.79 130.164 
133.576 134.21 132.873 132.186 131.52 130.862 130.243 129.718 133.773 
134.293 133.018 132.224 131.51 130.825 130.148 129.612 129.222 134.889 
134.765 135.515 135.351 136.117 134.725 136.01 136.867 135.262 134.751 
136.909 137.763 135.91 135.165 134.582 137.838 138.474 136.793 135.71 
134.892 134.263 138.463 138.969 137.634 136.546 135.494 134.749 134.273 
138.953 139.527 138.211 137.387 136.394 135.514 134.952 134.575 139.52 
140.101 138.686 137.975 137.203 136.291 135.551 135.053 134.664 139.938 