# vtk DataFile Version 4.0
vtk output
ASCII
DATASET POLYDATA
POINTS 1002 float
-79.3872 -104.966 55.1299 -79.7402 -104.783 56.0307 -80.2093 -105.085 55.5687 
-80.0476 -105.23 54.6602 -80.9683 -105.224 55.072 -79.0249 -105.078 54.4347 
-80.9551 -105.108 54.3355 -81.5731 -104.959 54.7446 -79.8122 -104.918 54.1438 
-78.9726 -104.705 54.0337 -81.4776 -104.517 54.2455 -81.7522 -104.285 54.6185 
-80.5974 -104.356 54.0258 -79.6685 -104.217 53.7637 -79.133 -104.051 53.4306 
-81.6687 -103.832 54.0005 -82.1176 -103.659 54.2658 -81.0075 -103.769 53.7719 
-80.2313 -103.718 53.383 -79.6218 -103.746 52.8833 -79.0694 -103.538 52.4425 
-82.2636 -103.484 53.2542 -82.9854 -103.443 53.5493 -81.4889 -103.519 52.9906 
-80.7766 -103.496 52.6517 -80.1492 -103.475 52.2454 -79.4836 -103.294 51.8983 
-78.7718 -102.929 51.6239 -83.0817 -103.31 52.4998 -83.6989 -103.324 52.904 
-82.2919 -103.352 52.133 -81.5144 -103.322 51.8356 -80.8074 -103.107 51.6537 
-80.0338 -102.802 51.4861 -79.2244 -102.5 51.2202 -78.5401 -102.246 50.9001 
-83.5637 -102.975 52.0722 -84.0375 -102.964 52.4521 -82.9243 -102.93 51.7419 
-82.1757 -102.848 51.4532 -81.3941 -102.602 51.2691 -80.5601 -102.266 51.104 
-79.7008 -102.092 50.7319 -78.9651 -102.052 50.2373 -78.3704 -101.968 49.8501 
-83.9108 -102.572 51.632 -84.3621 -102.522 51.9912 -83.3396 -102.477 51.3896 
-82.6402 -102.322 51.1829 -81.851 -102.183 50.8941 -81.0118 -102.033 50.5263 
-80.156 -101.964 50.0424 -79.3773 -102.046 49.4641 -78.7291 -102.068 49.033 
-78.1508 -101.902 48.8447 -84.3225 -102.27 51.0688 -84.7092 -102.179 51.5262 
-83.8006 -102.229 50.7523 -83.1122 -102.071 50.5669 -82.3272 -102.003 50.2668 
-81.532 -102.066 49.7536 -80.7157 -102.069 49.2322 -79.8899 -102.024 48.7918 
-79.1437 -101.992 48.4438 -78.505 -101.848 48.286 -77.9345 -101.578 48.2835 
-80.0909 -104.888 56.69 -80.6197 -104.936 56.2566 -80.346 -104.878 57.3144 
-80.9159 -104.631 56.9411 -80.8242 -104.835 57.8717 -81.212 -104.809 55.8058 
-81.4768 -104.602 57.5149 -81.5537 -105.013 58.4594 -81.3144 -104.276 56.6569 
-81.5053 -104.374 55.5117 -82.1137 -104.854 58.0082 -81.948 -105.057 59.0853 
-81.8 -104.224 57.3266 -81.5483 -103.795 56.4104 -81.7833 -103.769 55.2416 
-82.222 -104.573 58.516 -81.809 -104.518 59.5785 -82.3668 -104.294 57.7553 
-82.1986 -103.726 56.9986 -82.2567 -103.459 55.8672 -82.6627 -103.475 54.6423 
-82.1477 -103.842 59.0437 -81.804 -103.866 59.9092 -82.5929 -103.862 58.2125 
-82.9004 -103.693 57.3241 -83.0892 -103.476 56.2395 -83.3748 -103.467 55.0411 
-83.6564 -103.469 53.8896 -82.5845 -103.491 59.5343 -82.2624 -103.542 60.1939 
-82.9706 -103.477 58.788 -83.3634 -103.453 57.7617 -83.6737 -103.355 56.5662 
-83.8917 -103.314 55.4342 -84.0771 -103.32 54.3447 -84.1484 -103.205 53.3063 
-83.2348 -103.398 59.8759 -82.7559 -103.282 60.3671 -83.6333 -103.415 59.2767 
-83.8975 -103.316 58.2933 -84.0852 -103.115 57.0425 -84.2017 -102.907 55.8996 
-84.3098 -102.811 54.8574 -84.4424 -102.773 53.783 -84.4705 -102.675 52.8008 
-83.5468 -103.043 59.9726 -82.9649 -102.836 60.3309 -84.0338 -103.153 59.5027 
-84.3163 -103.088 58.6669 -84.4775 -102.88 57.5291 -84.5698 -102.591 56.4174 
-84.628 -102.343 55.3773 -84.7601 -102.258 54.2645 -84.8862 -102.266 53.1926 
-84.8541 -102.241 52.3 -83.3729 -102.318 59.9884 -83.9286 -102.464 59.6192 
-83.7538 -101.605 59.6527 -84.1484 -101.666 59.0513 -84.1239 -100.946 59.1668 
-84.3233 -102.498 58.9456 -84.4523 -101.001 58.3086 -84.3764 -100.462 58.4111 
-84.5243 -101.698 58.1939 -84.6298 -102.439 57.9629 -84.8004 -100.432 57.5151 
-84.4613 -99.9215 57.5643 -84.9646 -101.048 57.4945 -85.012 -101.794 57.3233 
-84.9064 -102.33 56.9257 -84.9431 -99.7741 56.7955 -84.5579 -99.2688 56.8872 
-85.3479 -100.335 56.8248 -85.4653 -101.146 56.7329 -85.361 -101.856 56.3625 
-85.0525 -102.136 55.8516 -84.906 -99.2297 56.1675 -84.6964 -98.6767 56.31 
-85.3313 -99.6508 56.076 -85.5919 -100.263 55.9183 -85.5825 -101.144 55.5596 
-85.4567 -101.764 55.0537 -85.1612 -101.979 54.6028 -84.8217 -98.7649 55.453 
-84.7067 -98.1339 55.6102 -85.1162 -99.2304 55.2364 -85.4438 -99.5382 54.9283 
-85.5555 -100.119 54.541 -85.5584 -101.023 54.0895 -85.5215 -101.676 53.6695 
-85.2864 -101.963 53.3836 -84.7144 -98.1759 54.587 -84.574 -97.6305 54.8096 
-84.9129 -98.7468 54.3141 -85.2342 -99.1015 53.9624 -85.5044 -99.3526 53.575 
-85.5692 -99.9891 53.208 -85.5359 -100.94 52.8781 -85.4667 -101.618 52.6145 
-85.2427 -101.954 52.4261 -84.5706 -97.6065 53.761 -84.3685 -97.2608 54.0731 
-84.7257 -98.0904 53.4504 -84.9362 -98.5954 53.1429 -85.2474 -98.9426 52.8123 
-85.4757 -99.2884 52.4813 -85.4416 -99.9752 52.2123 -85.2977 -100.839 52.0122 
-85.1997 -101.484 51.8178 -85.0346 -101.884 51.6282 -84.7372 -101.926 50.7605 
-84.8948 -101.471 50.9282 -84.6319 -101.546 49.9832 -84.9278 -100.804 51.1596 
-84.6979 -100.867 50.1738 -84.3516 -100.982 49.3679 -85.0428 -100.022 51.3347 
-84.7129 -100.063 50.3883 -84.4926 -100.239 49.4683 -83.8481 -100.333 48.9416 
-85.1383 -99.3778 51.5549 -84.7002 -99.4314 50.6066 -84.4783 -99.49 49.6617 
-84.0529 -99.6586 48.9179 -83.1194 -99.6759 48.5851 -84.9627 -98.9495 51.8957 
-84.5033 -99.0086 50.9355 -84.2543 -98.897 49.9285 -83.9946 -98.8565 49.0855 
-83.2488 -98.9692 48.5625 -82.3034 -98.9431 48.2847 -84.7005 -98.4646 52.2326 
-84.2925 -98.4612 51.3153 -84.0636 -98.3002 50.2047 -83.8994 -98.0493 49.2245 
-83.2608 -98.0784 48.6467 -82.3435 -98.2001 48.2927 -81.6623 -98.1718 47.8898 
-84.5781 -97.8753 52.5047 -84.2826 -97.7647 51.624 -84.0858 -97.6029 50.5223 
-83.9683 -97.3268 49.3716 -83.3885 -97.2873 48.6641 -82.4194 -97.4684 48.2634 
-81.7162 -97.5309 47.7843 -81.3587 -97.5233 47.1973 -84.4679 -97.4199 52.8072 
-84.2451 -97.2781 51.9077 -84.01 -97.1147 50.8989 -83.8344 -96.8558 49.762 
-83.3703 -96.7434 48.8941 -82.506 -96.8828 48.3264 -81.7937 -96.9602 47.706 
-81.477 -96.9236 47.0158 -81.2424 -96.9917 46.452 -84.2429 -97.1465 53.1831 
-84.0019 -97.0481 52.2706 -83.6677 -96.9275 51.3076 -83.3349 -96.7117 50.2748 
-82.9237 -96.4923 49.378 -82.3379 -96.4247 48.6522 -81.8299 -96.3953 47.8417 
-81.5833 -96.2973 46.9978 -81.3841 -96.2875 46.3762 -81.0415 -96.4584 46.0084 
-84.3609 -102.027 50.1927 -84.1516 -101.634 49.4568 -83.7192 -101.963 49.862 
-83.5662 -100.958 49.1022 -83.2757 -101.518 49.248 -82.8685 -101.866 49.6163 
-82.7938 -100.173 48.8496 -82.5153 -100.751 49.0175 -82.3694 -101.489 48.9252 
-82.0592 -101.989 49.1005 -82.0939 -99.4638 48.3917 -81.8627 -99.9666 48.578 
-81.8016 -100.755 48.4908 -81.7179 -101.629 48.2849 -81.3045 -102.076 48.5215 
-81.5219 -98.7314 47.8518 -81.3983 -99.3213 47.7938 -81.3694 -100.047 47.7409 
-81.3074 -100.832 47.7573 -80.9899 -101.441 47.92 -80.435 -101.838 48.2519 
-81.147 -98.0258 47.2128 -80.9471 -98.6266 47.1166 -80.8957 -99.411 46.9243 
-80.8318 -100.197 46.9732 -80.5159 -100.637 47.4298 -80.0244 -100.987 47.8808 
-79.5316 -101.548 48.1139 -80.9688 -97.5048 46.4815 -80.6059 -98.0076 46.5659 
-80.3674 -98.6566 46.5255 -80.2834 -99.5746 46.3788 -80.0422 -100.271 46.5565 
-79.5844 -100.451 47.1634 -79.1282 -100.729 47.7003 -78.7648 -101.355 47.973 
-80.7725 -97.0503 45.946 -80.3899 -97.5714 46.0458 -79.9972 -98.0275 46.239 
-79.7825 -98.7561 46.2284 -79.6283 -99.756 46.0162 -79.2913 -100.347 46.1325 
-78.8427 -100.415 46.7737 -78.444 -100.623 47.4777 -78.138 -101.139 47.93 
-80.4743 -96.2473 45.7439 -80.1929 -96.9194 45.6336 -79.8086 -95.9609 45.4675 
-79.5739 -96.7095 45.2916 -79.298 -95.7338 45.1407 -79.8098 -97.4852 45.731 
-78.9624 -96.6457 44.9771 -78.7831 -95.8244 45.1808 -79.1623 -97.4352 45.2781 
-79.4215 -98.0058 45.9287 -78.205 -96.8033 45.0734 -77.9811 -96.0584 45.6319 
-78.3927 -97.5525 44.821 -78.7397 -98.1082 45.3679 -79.1956 -98.8641 45.8557 
-77.3788 -96.8744 45.4649 -77.1218 -96.1374 45.8844 -77.5656 -97.6374 44.8277 
-77.9335 -98.2326 44.9312 -78.4909 -98.9522 45.4234 -78.9764 -99.8698 45.6271 
-76.7028 -96.8996 45.7608 -76.5078 -96.266 45.9729 -76.8181 -97.5876 45.2267 
-77.0894 -98.2522 45.0222 -77.6203 -98.9414 45.3707 -78.2 -99.7735 45.5712 
-78.5852 -100.314 45.9025 -76.1721 -97.1039 46.1228 -76.0619 -96.5528 46.3945 
-76.1593 -97.666 45.7184 -76.238 -98.3344 45.3667 -76.6042 -99.0376 45.5038 
-77.1993 -99.6763 45.8274 -77.7591 -100.125 46.1334 -78.1321 -100.336 46.758 
-75.7111 -97.2784 46.6729 -75.6379 -96.7584 47.0269 -75.6574 -97.8083 46.3029 
-75.5751 -98.4692 45.8466 -75.6931 -99.2221 45.619 -76.148 -99.7859 45.871 
-76.7948 -100.063 46.3848 -77.346 -100.236 47.0011 -77.7505 -100.573 47.5803 
-75.255 -97.2709 47.197 -75.1773 -96.8253 47.5287 -75.297 -97.7922 46.9123 
-75.2559 -98.456 46.5364 -75.2276 -99.2124 46.1206 -75.4429 -99.7977 46.0587 
-75.9747 -100.089 46.4921 -76.5764 -100.267 47.1398 -77.0556 -100.562 47.711 
-77.4846 -101.048 48.0668 -80.9768 -95.7015 45.9819 -80.241 -95.3971 45.7821 
-80.911 -94.9504 46.0318 -80.0521 -94.6822 45.8292 -80.8122 -94.34 46.2313 
-79.5403 -95.0968 45.4232 -79.9082 -94.1244 46.1047 -80.5529 -93.898 46.8161 
-79.3552 -94.4873 45.4473 -79.1104 -95.016 45.1336 -79.7035 -93.6971 46.7734 
-80.2144 -93.7642 47.6261 -79.1673 -93.9884 45.9252 -78.8474 -94.5704 45.3672 
-78.5142 -95.2709 45.4248 -79.4489 -93.6293 47.521 -79.8766 -93.9447 48.3653 
-78.8748 -93.6748 46.7341 -78.445 -94.1767 46.1187 -78.0259 -94.8363 45.7859 
-77.5318 -95.456 45.8319 -79.0753 -93.7143 48.4071 -79.3939 -94.0896 49.1813 
-78.4927 -93.7068 47.5323 -78.0064 -94.0216 46.9931 -77.5594 -94.4327 46.514 
-77.0047 -94.8669 46.0273 -76.6547 -95.4723 45.8873 -78.6211 -93.6414 49.5328 
-78.8851 -94.1128 50.0469 -78.0856 -93.6455 48.6015 -77.5754 -94.0005 47.8191 
-77.2284 -94.2352 47.3645 -76.7059 -94.4144 46.7452 -76.2331 -94.8777 46.2297 
-76.1174 -95.6852 46.2052 -78.355 -93.7296 50.3724 -78.615 -94.2194 50.7014 
-77.8785 -93.5636 49.6987 -77.2632 -93.8116 48.8058 -76.8492 -94.0162 48.1942 
-76.462 -94.1376 47.6856 -75.9832 -94.5166 47.1253 -75.7553 -95.2135 46.8924 
-75.7418 -96.044 46.9599 -78.2645 -94.1084 50.8051 -78.5183 -94.3869 51.2348 
-77.883 -93.9044 50.3124 -77.2259 -93.8882 49.6208 -76.555 -93.8505 48.9954 
[...]
CELL_DATA 2000
SCALARS Distance double
LOOKUP_TABLE default
142.063 142.403 142.053 141.685 142.622 142.391 141.982 141.627 141.218 
142.427 142.441 142.019 141.79 141.259 141.041 140.611 141.994 142.078 
141.704 141.631 141.092 140.948 140.471 140.352 139.907 141.828 141.726 
141.411 141.305 140.885 140.743 140.318 140.19 139.76 139.596 139.079 
141.905 141.709 141.378 141.182 140.824 140.632 140.237 140.064 139.61 
139.434 138.894 138.703 138.145 141.821 141.723 141.335 141.186 140.771 
140.605 140.144 139.968 139.438 139.253 138.681 138.497 137.958 137.796 
137.337 141.564 141.526 141.143 141.049 140.603 140.474 139.982 139.818 
139.283 139.079 138.537 138.324 137.846 137.663 137.268 137.104 136.745 
141.337 141.286 140.955 140.85 140.444 140.291 139.843 139.663 139.214 
138.997 138.55 138.294 137.869 137.633 137.257 137.074 136.72 136.556 
136.195 142.377 142.812 142.608 142.644 143.164 142.936 142.884 142.795 
142.785 143.749 143.335 143.131 142.906 142.769 142.736 142.559 144.421 
144.013 143.719 143.25 142.923 142.666 142.448 142.374 142.158 144.522 
144.449 144.166 143.844 143.455 143.003 142.714 142.416 142.323 142.14 
142.077 144.205 144.263 144.07 144.046 143.805 143.537 143.279 142.909 
142.818 142.53 142.55 142.281 142.228 144.208 144.1 144.075 143.986 
143.953 143.795 143.663 143.416 143.27 143.042 142.953 142.749 142.619 
142.367 142.142 144.46 144.363 144.468 144.288 144.329 144.083 143.978 
143.716 143.504 143.305 143.079 142.955 142.724 142.592 142.323 142.125 
141.841 144.434 144.556 144.651 144.66 144.63 144.479 144.281 144.027 
143.738 143.477 143.184 142.984 142.731 142.595 142.369 142.229 142 
141.811 141.584 144.272 143.929 144.272 144.529 143.417 143.797 144.02 
144.409 144.502 142.904 143.228 143.35 143.762 143.891 144.241 144.172 
142.343 142.693 142.822 143.155 143.319 143.643 143.697 143.876 143.697 
141.675 142.077 142.251 142.645 142.839 143.181 143.299 143.493 143.389 
143.414 143.161 141.047 141.416 141.552 141.983 142.111 142.573 142.643 
143.029 142.954 143.121 142.884 142.899 142.668 140.426 140.794 140.865 
141.255 141.273 141.697 141.653 142.137 142.074 142.506 142.379 142.591 
142.394 142.456 142.293 139.69 140.087 140.103 140.513 140.482 140.852 
140.746 141.122 141.034 141.502 141.482 141.928 141.866 142.122 141.978 
142.088 141.935 138.952 139.301 139.263 139.669 139.627 140.03 139.953 
140.299 140.205 140.565 140.529 140.978 140.976 141.419 141.351 141.655 
141.512 141.682 141.521 141.236 141.146 141.032 140.675 140.873 140.811 
140.367 140.344 139.934 140.471 140.436 139.938 139.93 139.507 139.533 
139.09 140.094 140.039 139.565 139.501 139.06 139.075 138.672 138.661 
138.148 139.793 139.717 139.265 139.169 138.68 138.636 138.177 138.197 
137.696 137.657 137.061 139.479 139.412 138.921 138.85 138.309 138.236 
137.682 137.666 137.119 137.129 136.547 136.518 135.931 139.127 139.056 
138.54 138.472 137.935 137.843 137.275 137.186 136.626 136.575 136.024 
135.987 135.444 135.417 134.929 138.811 138.716 138.235 138.13 137.637 
137.51 136.979 136.835 136.292 136.171 135.646 135.55 135.037 134.969 
134.503 134.491 134.113 138.564 138.459 138.026 137.896 137.431 137.278 
136.759 136.587 136.036 135.884 135.345 135.227 134.708 134.614 134.132 
134.09 133.693 133.727 133.412 141.12 140.614 140.855 140.741 139.924 
140.274 140.178 140.405 140.213 139.034 139.467 139.368 139.729 139.55 
139.807 139.591 138.011 138.469 138.313 138.779 138.65 139.059 138.916 
139.191 138.994 136.929 137.388 137.208 137.675 137.577 138.086 138.056 
138.477 138.365 138.607 138.38 135.843 136.298 136.152 136.602 136.524 
137.031 137.036 137.552 137.494 137.885 137.683 137.936 137.681 134.868 
135.267 135.144 135.574 135.507 136.006 136.012 136.535 136.475 136.918 
136.72 137.093 136.859 137.194 137.005 134.088 134.406 134.299 134.638 
134.557 134.995 135.01 135.527 135.527 135.952 135.792 136.116 135.901 
136.27 136.128 136.529 136.426 133.423 133.713 133.636 133.904 133.81 
134.123 134.103 134.552 134.616 135.075 135.042 135.334 135.161 135.404 
135.262 135.617 135.555 135.964 135.897 133.008 132.396 132.906 133.243 
131.755 132.276 132.675 133.131 133.43 131.312 131.696 132.097 132.554 
132.911 133.33 133.69 131.084 131.346 131.649 132.015 132.372 132.81 
133.231 133.692 134.17 130.814 131.095 131.308 131.599 131.88 132.286 
132.717 133.223 133.73 134.217 134.631 130.524 130.784 131.004 131.246 
131.478 131.821 132.214 132.703 133.207 133.728 134.136 134.552 134.79 
130.469 130.604 130.851 130.991 131.21 131.454 131.803 132.22 132.684 
133.181 133.587 134.02 134.281 134.635 134.864 130.565 130.646 130.866 
130.936 131.127 131.26 131.545 131.843 132.244 132.668 133.06 133.482 
133.783 134.149 134.426 134.787 135.122 130.571 130.682 130.858 130.961 
131.149 131.245 131.49 131.658 131.988 132.276 132.646 133.006 133.353 
133.709 134.036 134.387 134.739 135.113 135.479 132.73 132.1 132.289 
132.057 131.567 131.652 131.34 131.556 131.375 131.206 131.176 130.826 
130.906 130.716 130.969 130.965 131.049 130.893 130.53 130.493 130.301 
130.444 130.462 130.73 130.814 131.131 130.847 130.449 130.288 130.073 
130.121 130.08 130.277 130.283 130.552 130.541 131.286 130.985 130.55 
130.299 130.04 129.974 129.868 129.925 129.795 129.957 129.853 130.168 
130.181 131.367 131.107 130.669 130.413 130.111 129.99 129.845 129.789 
129.597 129.546 129.359 129.505 129.551 129.913 130.121 131.508 131.225 
130.852 130.556 130.237 130.049 129.843 129.762 129.559 129.451 129.246 
129.205 129.231 129.432 129.708 130.035 130.302 131.779 131.481 131.212 
130.867 130.587 130.253 129.973 129.752 129.499 129.388 129.209 129.175 
129.19 129.288 129.531 129.75 130.035 130.26 130.411 138.305 137.699 
137.936 137.761 136.917 137.237 137.042 137.33 137.129 136.043 136.382 
136.182 136.522 136.309 136.629 136.412 135.234 135.529 135.357 135.671 
135.47 135.769 135.535 135.858 135.654 134.48 134.738 134.543 134.867 
134.664 134.954 134.678 134.961 134.709 135.078 134.922 133.776 133.97 
133.679 133.994 133.74 134.086 133.766 134.068 133.736 134.094 133.891 
134.348 134.253 133.159 133.286 132.96 133.158 132.887 133.153 132.858 
133.125 132.803 133.112 132.893 133.313 133.233 133.715 133.689 132.594 
132.701 132.408 132.54 132.306 132.456 132.213 132.35 132.083 132.27 
132.084 132.398 132.341 132.756 132.776 133.227 133.273 132.096 132.171 
131.882 132.01 131.779 131.942 131.709 131.831 131.553 131.669 131.45 
131.678 131.591 131.94 131.946 132.368 132.437 132.891 132.996 138.515 
138.619 138.367 137.92 138.692 138.448 137.99 137.715 137.174 138.744 
138.509 138.058 137.782 137.235 136.903 136.306 138.764 138.551 138.12 
137.861 137.334 136.983 136.371 136.027 135.469 138.746 138.55 138.134 
137.917 137.422 137.097 136.496 136.12 135.545 135.238 134.746 138.727 
138.519 138.088 137.899 137.434 137.173 136.604 136.25 135.674 135.345 
134.857 134.565 134.106 138.709 138.496 138.041 137.841 137.386 137.168 
136.646 136.342 135.769 135.454 134.947 134.68 134.225 133.942 133.485 
138.634 138.456 138.002 137.799 137.344 137.13 136.643 136.376 135.825 
135.521 134.983 134.724 134.25 134.017 133.56 133.309 132.876 138.493 
138.352 137.925 137.753 137.321 137.114 136.65 136.392 135.876 135.576 
135.046 134.757 134.268 134.02 133.57 133.343 132.928 132.711 132.354 
138.263 137.748 137.904 137.708 137.275 137.401 137.201 137.351 137.136 
136.816 136.933 136.699 136.843 136.594 136.737 136.458 136.244 136.401 
136.095 136.277 135.963 136.137 135.801 135.979 135.654 135.561 135.728 
135.352 135.562 135.203 135.423 135.073 135.277 134.942 135.141 134.833 
134.956 135.053 134.678 134.809 134.454 134.638 134.311 134.526 134.213 
134.424 134.114 134.324 134.047 134.506 134.546 134.229 134.264 133.936 
133.994 133.644 133.777 133.421 133.641 133.305 133.566 133.272 133.544 
133.316 134.087 134.139 133.841 133.89 133.577 133.588 133.184 133.182 
132.711 132.817 132.419 132.686 132.421 132.746 132.56 132.858 132.698 
133.625 133.687 133.351 133.453 133.136 133.211 132.819 132.781 132.274 
132.206 131.761 131.867 131.658 131.944 131.882 132.172 132.093 132.321 
132.193 133.234 132.531 132.879 132.934 131.934 132.207 132.239 132.619 
132.719 131.407 131.661 131.661 131.967 132.031 132.405 132.43 130.816 
131.121 131.153 131.439 131.478 131.765 131.736 132.028 131.909 130.322 
130.559 130.63 130.919 130.966 131.239 131.197 131.408 131.28 131.489 
131.409 130.152 130.223 130.243 130.413 130.373 130.637 130.557 130.844 
130.777 131.001 131.007 131.204 131.347 130.183 130.168 130.104 130.108 
129.922 130.017 129.807 130.084 130.037 130.443 130.583 130.922 131.139 
131.367 131.615 130.241 130.197 130.083 130.005 129.751 129.664 129.38 
129.43 129.345 129.677 129.881 130.381 130.684 131.103 131.334 131.62 
131.807 130.345 130.25 130.092 129.968 129.692 129.552 129.294 129.209 
129.139 129.227 129.408 129.73 130.043 130.496 130.759 131.179 131.352 
131.695 131.853 133.337 133.315 133.075 132.624 133.348 133.056 132.585 
132.393 132.027 133.493 133.115 132.611 132.372 131.987 131.835 131.488 
133.829 133.351 132.816 132.454 132.012 131.785 131.362 131.218 130.833 
134.272 133.77 133.248 132.773 132.275 131.876 131.37 131.085 130.642 
130.535 130.281 134.67 134.209 133.701 133.242 132.746 132.254 131.698 
131.213 130.718 130.433 130.186 130.141 130.112 135.002 134.569 134.039 
133.631 133.16 132.734 132.211 131.668 131.126 130.661 130.35 130.16 
130.117 130.114 130.169 135.287 134.888 134.363 133.946 133.485 133.106 
132.661 132.193 131.687 131.163 130.777 130.429 130.301 130.18 130.21 
130.202 130.261 135.519 135.181 134.737 134.318 133.89 133.474 133.079 
132.646 132.23 131.739 131.376 130.937 130.762 130.474 130.466 130.323 
130.393 130.338 130.414 133.799 134.491 134.047 133.825 135.173 134.749 
134.602 134.122 133.903 135.993 135.46 135.331 134.896 134.77 134.257 
134.079 137.114 136.414 136.207 135.657 135.565 135.113 135.026 134.505 
134.397 138.296 137.626 137.41 136.691 136.523 135.946 135.873 135.404 
135.346 134.859 134.793 139.247 138.741 138.633 137.972 137.794 137.063 
136.887 136.273 136.179 135.721 135.686 135.244 135.184 140.08 139.641 
139.616 139.113 139.027 138.369 138.154 137.402 137.164 136.555 136.461 
136.049 136.035 135.611 135.53 140.894 140.491 140.488 140.05 140.021 
139.5 139.347 138.659 138.365 137.622 137.382 136.83 136.764 136.38 
136.336 135.909 135.781 141.576 141.268 141.287 140.909 140.888 140.437 
140.326 139.757 139.515 138.812 138.518 137.832 137.646 137.13 137.042 
136.632 136.511 136.087 135.931 141.907 142.343 141.984 141.672 142.782 
142.421 142.102 141.712 141.305 143.147 142.824 142.47 142.108 141.664 
141.251 140.722 143.24 143.056 142.645 142.381 141.885 141.528 140.94 
140.547 139.909 142.995 142.942 142.495 142.382 141.867 141.634 141.037 
140.699 140.047 139.65 138.963 142.676 142.612 142.18 142.116 141.656 
141.521 140.993 140.742 140.144 139.787 139.131 138.704 138.074 142.451 
142.347 141.949 141.847 141.463 141.337 140.903 140.694 140.166 139.867 
139.248 138.87 138.231 137.861 137.346 142.225 142.142 141.765 141.677 
141.336 141.225 140.845 140.649 140.155 139.881 139.283 138.949 138.298 
137.959 137.383 137.139 136.715 142 141.91 141.552 141.49 141.182 
141.116 140.77 140.61 140.132 139.873 139.295 138.979 138.356 138.01 
137.42 137.132 136.668 136.495 136.135 141.797 141.39 141.491 141.337 
140.998 141.111 140.957 141.081 140.988 140.471 140.681 140.52 140.683 
140.519 140.7 140.547 139.733 140.037 139.821 140.095 139.831 140.092 
139.827 140.101 139.846 138.851 139.193 138.925 139.248 138.942 139.251 
138.944 139.258 138.966 139.28 138.988 137.939 138.27 138.015 138.328 
138.046 138.336 138.055 138.353 138.088 138.387 138.098 138.386 138.07 
137.143 137.397 137.163 137.451 137.186 137.469 137.177 137.473 137.203 
137.52 137.249 137.528 137.212 137.467 137.163 136.522 136.687 136.429 
136.651 136.383 136.631 136.317 136.582 136.275 136.601 136.352 136.683 
136.429 136.679 136.409 136.638 136.43 135.967 136.105 135.823 135.984 
135.726 135.903 135.628 135.794 135.502 135.718 135.498 135.807 135.652 
135.944 135.761 135.976 135.788 136.013 135.891 135.51 135.401 135.245 
134.809 135.351 135.179 134.726 134.513 134.014 135.209 135.09 134.631 
134.439 133.899 133.687 133.17 135.055 134.92 134.49 134.319 133.791 
133.563 133.004 132.823 132.316 135.088 134.861 134.485 134.249 133.793 
133.506 133.005 132.73 132.257 132.025 131.576 135.229 134.982 134.623 
134.352 133.93 133.607 133.164 132.848 132.461 132.145 131.764 131.427 
131.052 135.319 135.098 134.708 134.479 134.027 133.749 133.275 133.013 
132.634 132.398 132.063 131.744 131.377 131.022 130.723 135.402 135.156 
134.734 134.507 134.045 133.794 133.301 133.06 132.638 132.474 132.142 
131.967 131.629 131.358 131.042 130.763 130.576 135.538 135.254 134.821 
134.547 134.115 133.84 133.406 133.117 132.705 132.466 132.119 131.958 
131.66 131.506 131.241 131.049 130.854 130.66 130.553 144.329 144.407 
144.397 144.41 144.299 144.401 144.503 144.522 144.559 144.422 144.409 
144.558 144.55 144.505 144.494 144.334 144.719 144.678 144.762 144.655 
144.486 144.343 144.037 144.038 143.844 144.548 144.773 144.758 144.788 
144.564 144.369 144.017 143.827 143.672 143.688 143.71 143.872 144.264 
144.253 144.522 144.402 144.414 144.201 143.999 143.892 143.756 143.834 
143.773 143.734 143.267 143.562 143.616 143.916 143.937 144.154 144.144 
144.179 144.135 144.05 144.013 143.934 143.807 143.668 143.331 142.838 
143.066 143.107 143.363 143.393 143.668 143.71 143.969 143.972 144.102 
143.97 143.965 143.699 143.62 143.242 143.092 142.673 142.342 142.599 
142.572 142.852 142.815 143.101 143.067 143.402 143.394 143.705 143.602 
143.737 143.465 143.432 143.071 142.961 142.595 142.457 142.128 144.1 
144.254 144.013 143.707 144.484 144.291 144.017 143.674 143.358 144.371 
144.457 144.273 144.026 143.652 143.327 142.996 143.95 144.181 144.108 
144.114 143.735 143.52 143.067 142.869 142.509 143.694 143.778 143.675 
143.774 143.438 143.393 142.904 142.793 142.359 142.273 141.893 143.505 
143.528 143.228 143.29 142.916 142.963 142.528 142.513 142.088 142.045 
141.651 141.585 141.18 143.036 143.145 142.731 142.792 142.364 142.425 
142.032 142.087 141.72 141.736 141.355 141.314 140.898 140.83 140.417 
142.441 142.566 142.232 142.289 141.942 141.955 141.615 141.63 141.294 
141.329 140.972 140.983 140.572 140.529 140.094 140.051 139.662 141.946 
142.042 141.81 141.875 141.638 141.648 141.365 141.319 140.972 140.933 
140.565 140.57 140.186 140.176 139.752 139.713 139.3 139.291 138.942 
144.004 143.513 143.722 143.648 143.124 143.247 143.167 143.359 143.26 
142.786 142.882 142.759 142.921 142.843 142.99 142.822 142.349 142.498 
142.294 142.459 142.29 142.512 142.326 142.489 142.22 141.761 141.981 
141.733 141.898 141.626 141.853 141.638 141.889 141.645 141.813 141.533 
141.06 141.333 141.11 141.291 141.009 141.179 140.971 141.202 141.048 
141.24 141.031 141.156 140.929 140.322 140.616 140.445 140.667 140.437 
140.599 140.395 140.597 140.467 140.686 140.523 140.677 140.443 140.57 
140.321 139.599 139.893 139.756 140.014 139.824 140.025 139.807 140.015 
139.83 140.079 139.888 140.114 139.86 140.035 139.747 139.905 139.613 
138.903 139.19 139.063 139.334 139.158 139.39 139.171 139.387 139.17 
139.404 139.194 139.429 139.191 139.396 139.131 139.307 139.039 139.187 
138.916 133.957 134.38 134.313 134.598 134.808 134.734 135.029 134.962 
135.278 135.324 135.216 135.584 135.471 135.872 135.747 136.175 135.962 
135.822 136.251 136.12 136.596 136.461 136.977 136.816 137.334 136.607 
136.492 136.921 136.82 137.287 137.193 137.688 137.607 138.102 137.99 
138.44 137.128 137.076 137.493 137.453 137.897 137.832 138.27 138.22 
138.672 138.636 139.057 138.973 139.334 137.568 137.537 137.959 137.968 
138.427 138.397 138.831 138.77 139.229 139.181 139.656 139.568 139.976 
139.826 140.177 138.036 137.981 138.406 138.415 138.886 138.89 139.331 
139.302 139.757 139.745 140.241 140.199 140.635 140.5 140.839 140.665 
140.971 138.542 138.471 138.879 138.869 139.328 139.337 139.77 139.76 
140.171 140.196 140.63 140.687 141.076 141.066 141.346 141.254 141.481 
141.371 141.603 
POINT_DATA 1002
SCALARS Distance double
LOOKUP_TABLE default
141.687 142.1 142.403 142.069 142.739 141.301 142.366 142.762 141.511 
140.844 142.196 142.325 141.496 140.771 140.222 141.713 141.945 141.203 
140.578 140.066 139.436 141.521 142.02 141.002 140.451 139.928 139.288 
138.515 141.59 142.109 141.026 140.446 139.816 139.087 138.306 137.613 
141.472 141.882 140.945 140.344 139.644 138.857 138.1 137.47 136.929 
141.225 141.586 140.732 140.134 139.468 138.737 138.018 137.423 136.914 
136.395 141.048 141.377 140.595 140.008 139.389 138.787 138.129 137.463 
136.887 136.359 135.833 142.632 142.792 143.014 143.005 143.473 142.857 
143.528 144.247 142.86 142.592 144.266 144.753 143.362 142.547 142.207 
144.329 144.488 143.905 143.1 142.497 142.269 143.976 144.153 143.907 
143.607 143.133 142.828 142.556 144.173 144.299 144.079 143.875 143.511 
143.169 142.866 142.436 144.618 144.466 144.614 144.298 143.766 143.239 
142.832 142.477 142.058 144.585 144.254 144.751 144.529 144.02 143.43 
142.885 142.477 142.156 141.79 143.98 144.251 143.558 143.583 143.111 
144.228 142.992 142.611 143.478 143.969 142.478 141.94 142.999 143.483 
143.642 141.815 141.27 142.46 143.062 143.354 143.171 141.164 140.71 
141.676 142.199 142.672 142.84 142.645 140.508 140.061 140.925 141.218 
141.543 142.01 142.292 142.249 139.695 139.317 140.108 140.415 140.607 
140.955 141.484 141.826 141.862 138.892 138.649 139.205 139.569 139.877 
140.134 140.498 140.95 141.279 141.397 140.937 140.765 140.324 140.392 
139.945 139.534 139.969 139.457 139.122 138.616 139.651 139.078 138.647 
138.248 137.581 139.368 138.779 138.185 137.699 137.144 136.46 138.993 
138.404 137.746 137.116 136.544 135.953 135.382 138.607 138.021 137.382 
136.699 136.065 135.465 134.917 134.491 138.336 137.763 137.13 136.426 
135.751 135.122 134.527 134.068 133.78 138.151 137.59 136.942 136.207 
135.475 134.811 134.193 133.677 133.334 133.123 140.583 139.915 140.038 
138.953 139.236 139.377 137.837 138.149 138.565 138.808 136.747 137.039 
137.544 138.06 138.227 135.688 136.021 136.512 137.054 137.369 137.452 
134.732 135.014 135.487 136.039 136.333 136.459 136.667 133.996 134.171 
134.487 135.057 135.487 135.559 135.686 136.033 133.366 133.548 133.711 
134.112 134.682 134.959 134.967 135.134 135.499 132.538 132.816 131.836 
132.177 131.253 133.031 131.659 131.025 132.456 133.248 131.358 130.873 
131.932 132.729 133.718 131.058 130.513 131.511 132.2 133.223 134.252 
130.784 130.279 131.174 131.753 132.689 133.71 134.446 130.752 130.378 
131.019 131.439 132.219 133.147 133.907 134.493 130.809 130.51 131.04 
131.324 131.874 132.641 133.394 134.051 134.735 130.729 130.475 131.037 
131.373 131.776 132.314 132.983 133.683 134.376 135.107 132.531 131.798 
131.971 131.188 131.545 131.036 130.797 131.278 130.494 130.619 130.605 
131.267 130.189 130.22 130.547 130.67 131.459 130.074 129.958 130.066 
130.239 130.828 131.572 130.155 129.895 129.754 129.568 129.754 130.923 
131.608 130.26 129.923 129.721 129.319 129.194 129.707 131.145 131.772 
130.489 129.967 129.643 129.316 129.106 129.397 130.021 131.526 132.039 
130.967 130.306 129.649 129.208 129.106 129.362 129.835 130.25 138.115 
137.543 137.441 136.728 136.583 136.857 135.837 135.71 135.982 136.089 
135.042 134.951 135.194 135.236 135.281 134.222 134.269 134.366 134.434 
134.366 134.48 133.42 133.64 133.395 133.46 133.407 133.438 133.756 
132.802 133.04 132.662 132.606 132.51 132.495 132.748 133.197 132.266 
132.477 132.158 132.1 131.936 131.807 131.952 132.324 132.809 138.781 
138.206 138.873 138.268 138.936 137.499 138.325 138.971 137.582 136.628 
138.359 138.963 137.679 136.743 135.746 138.33 138.948 137.714 136.874 
135.873 135.019 138.282 138.954 137.656 136.934 136.006 135.144 134.411 
138.255 138.918 137.587 136.916 136.089 135.213 134.486 133.778 138.196 
138.791 137.555 136.89 136.125 135.264 134.475 133.79 133.113 138.07 