# vtk DataFile Version 4.0
vtk output
ASCII
DATASET POLYDATA
POINTS 1002 float
-79.1218 -104.307 56.5904 -79.0499 -104.475 57.2718 -79.3162 -104.668 56.8156 
-79.3761 -104.568 55.9943 -79.6953 -104.942 56.2179 -79.1821 -104.037 55.8388 
-79.7602 -104.848 55.3505 -80.3915 -105.188 55.6493 -79.534 -104.295 55.2161 
-79.2641 -103.721 55.0695 -80.4732 -104.932 54.9496 -81.3304 -105.17 55.368 
-79.9664 -104.458 54.6825 -79.7399 -103.899 54.5256 -79.2539 -103.505 54.2024 
-81.3716 -104.668 54.8805 -82.065 -104.835 55.2793 -80.6246 -104.315 54.464 
-80.2372 -103.907 54.0753 -79.8282 -103.525 53.6843 -79.1056 -103.334 53.1335 
-82.0343 -104.199 54.7431 -82.4411 -104.311 55.0768 -81.3832 -103.953 54.3424 
-80.8562 -103.698 53.7917 -80.4336 -103.373 53.2338 -79.7718 -103.157 52.6715 
-78.9605 -103.066 52.106 -82.4914 -103.703 54.3527 -82.8319 -103.762 54.7836 
-81.9929 -103.568 53.9183 -81.5161 -103.496 53.3755 -81.0798 -103.218 52.818 
-80.443 -102.9 52.3326 -79.6053 -102.855 51.7777 -78.842 -102.801 51.3144 
-83.0574 -103.338 53.9497 -83.3886 -103.373 54.5107 -82.5482 -103.214 53.3603 
-82.0938 -103.287 52.7656 -81.7166 -103.222 52.2147 -81.12 -102.833 51.8566 
-80.2272 -102.662 51.462 -79.3681 -102.761 50.9154 -78.7211 -102.657 50.5745 
-83.6394 -103.135 53.5918 -83.8516 -103.099 54.1976 -83.157 -102.984 52.9179 
-82.6269 -102.99 52.2926 -82.2617 -103.128 51.666 -81.8176 -102.967 51.1754 
-80.9742 -102.68 50.8638 -79.9877 -102.681 50.4394 -79.2441 -102.732 49.9919 
-78.6951 -102.529 49.8379 -83.9757 -102.853 53.2302 -84.0603 -102.707 53.8499 
-83.6537 -102.796 52.5359 -83.1303 -102.692 51.9728 -82.6775 -102.771 51.4294 
-82.354 -102.877 50.7623 -81.7776 -102.787 50.2203 -80.8342 -102.666 49.8747 
-79.9428 -102.628 49.5398 -79.3199 -102.522 49.3002 -78.786 -102.29 49.2863 
-79.1444 -104.688 57.7453 -79.5803 -104.845 57.3055 -79.3871 -104.887 58.3808 
-80.0351 -104.965 57.9322 -79.7535 -105.059 59.139 -80.2171 -105.069 56.7194 
-80.4618 -104.974 58.6449 -80.0952 -105.1 59.8474 -80.7692 -104.961 57.3697 
-81.0832 -105.173 56.198 -80.7849 -104.864 59.3136 -80.5094 -105.024 60.3862 
-81.0065 -104.627 58.1239 -81.3996 -104.709 56.9273 -81.8554 -104.984 55.9318 
-81.2024 -104.761 59.8646 -81.0601 -104.925 60.8436 -81.1369 -104.368 58.858 
-81.284 -104.106 57.7481 -81.7896 -104.323 56.6297 -82.2597 -104.559 55.7345 
-81.5471 -104.6 60.3308 -81.403 -104.749 61.2836 -81.4051 -104.249 59.4378 
-81.3225 -103.846 58.4775 -81.6098 -103.717 57.3451 -82.1206 -103.88 56.2686 
-82.5602 -103.967 55.4528 -81.5597 -104.244 60.734 -81.4354 -104.399 61.6707 
-81.5573 -103.924 59.8252 -81.6076 -103.644 58.9657 -81.8204 -103.466 57.9642 
-82.1585 -103.326 56.8406 -82.5897 -103.311 55.8808 -83.0503 -103.395 55.1768 
-81.4971 -103.785 61.0799 -81.477 -103.89 61.9887 -81.5752 -103.432 60.1106 
-81.8491 -103.166 59.241 -82.2208 -103.164 58.422 -82.501 -103.092 57.4679 
-82.7564 -102.869 56.4115 -83.1482 -102.852 55.5389 -83.5813 -103.029 54.8822 
-81.6188 -103.335 61.3263 -81.65 -103.324 62.1731 -81.7227 -103.053 60.38 
-82.0879 -102.729 59.4884 -82.5708 -102.733 58.7438 -82.9255 -102.886 58.0414 
-83.1288 -102.782 57.1167 -83.3548 -102.587 56.0458 -83.665 -102.606 55.1784 
-83.9357 -102.714 54.524 -81.8184 -102.847 61.6425 -81.9565 -102.793 60.7898 
-82.0872 -102.317 60.9224 -82.6255 -102.227 60.316 -82.6251 -101.646 60.3648 
-82.3641 -102.526 59.9483 -83.4264 -101.577 60.053 -83.2566 -100.939 60.019 
-83.2351 -102.112 59.6936 -82.8827 -102.403 59.1564 -83.9224 -100.919 59.6765 
-83.5613 -100.436 59.4629 -83.8713 -101.606 59.439 -83.5928 -102.198 58.9266 
-83.2883 -102.589 58.4817 -84.0628 -100.392 58.9554 -83.6143 -100.037 58.6765 
-84.1664 -100.966 58.8639 -84.0328 -101.721 58.4953 -83.8984 -102.364 58.1655 
-83.5914 -102.7 57.7415 -84.2341 -99.8632 58.2533 -83.8039 -99.4459 58.0904 
-84.4569 -100.361 58.1701 -84.4031 -101.028 57.8551 -84.4184 -101.788 57.6005 
-84.3093 -102.361 57.2603 -83.8374 -102.549 56.6464 -84.4712 -99.1702 57.7337 
-84.0808 -98.7081 57.7074 -84.7854 -99.7193 57.6095 -84.751 -100.368 57.2842 
-84.7074 -101.087 56.968 -84.792 -101.776 56.6165 -84.5315 -102.203 56.0422 
-84.0101 -102.385 55.4789 -84.5399 -98.4575 57.1614 -84.2209 -98.0572 57.2529 
-84.8741 -98.9683 56.9921 -84.8923 -99.6196 56.6995 -84.7179 -100.36 56.3479 
-84.7902 -101.085 55.9431 -84.83 -101.624 55.4092 -84.4886 -101.954 54.8967 
-84.108 -102.292 54.6205 -84.4728 -97.8905 56.5003 -84.2268 -97.565 56.6927 
-84.7498 -98.2909 56.2527 -84.8318 -98.8029 55.9692 -84.667 -99.4742 55.6339 
-84.6461 -100.264 55.2068 -84.806 -100.924 54.7274 -84.6923 -101.304 54.3304 
-84.341 -101.656 54.0916 -84.1273 -102.18 53.9599 -84.0751 -102.226 53.1566 
-84.1258 -101.545 53.376 -83.9971 -101.584 52.4781 -84.4023 -101.003 53.5312 
-84.0739 -100.889 52.814 -83.9294 -100.976 51.8893 -84.7789 -100.669 53.6321 
-84.4393 -100.427 52.9251 -84.0284 -100.35 52.2316 -83.9436 -100.428 51.2284 
-84.8286 -100.113 53.911 -84.8562 -99.975 52.8828 -84.388 -99.8281 52.2797 
-84.0376 -99.7191 51.4777 -84.0536 -99.7763 50.3863 -84.6739 -99.2453 54.4117 
-84.9057 -99.1424 53.1399 -84.738 -99.1424 52.2635 -84.2584 -99.0186 51.6188 
-84.1009 -98.8878 50.6499 -84.0566 -98.9622 49.6982 -84.7056 -98.5082 54.8811 
-84.7864 -98.2706 53.6834 -84.7885 -98.2504 52.5735 -84.4335 -98.2916 51.8021 
-84.1011 -98.1856 51.0566 -83.9547 -98.0976 50.1301 -83.6805 -98.1688 49.4689 
-84.7464 -98.0365 55.2506 -84.7725 -97.7501 54.1945 -84.7511 -97.5272 53.0896 
-84.4878 -97.4941 52.1226 -84.1004 -97.5521 51.4186 -83.7718 -97.5615 50.7042 
-83.4455 -97.5611 49.9811 -83.0414 -97.612 49.495 -84.578 -97.6586 55.6132 
-84.6859 -97.3989 54.6617 -84.7071 -97.0737 53.6449 -84.5014 -96.8134 52.5816 
-84.1261 -96.7941 51.7156 -83.7027 -96.9567 51.0689 -83.262 -97.1159 50.4543 
-82.8482 -97.1923 49.9052 -82.4803 -97.2235 49.4725 -84.3242 -97.3243 55.9422 
-84.4335 -97.0698 55.1027 -84.4864 -96.7588 54.197 -84.3524 -96.4349 53.1733 
-84.0439 -96.2598 52.1568 -83.6601 -96.308 51.3433 -83.226 -96.4797 50.7024 
-82.7921 -96.6454 50.1658 -82.4291 -96.7364 49.7316 -82.1217 -96.7658 49.3433 
-83.9683 -102.38 52.3869 -83.8955 -101.757 51.6502 -83.6314 -102.352 51.7299 
-83.844 -101.122 51.0433 -83.5386 -101.719 51.1048 -83.0918 -102.258 51.3194 
-83.8531 -100.547 50.3497 -83.4066 -101.042 50.5481 -82.9337 -101.583 50.7632 
-82.6521 -102.333 50.7492 -83.8501 -99.9005 49.6462 -83.2754 -100.483 49.9477 
-82.6781 -100.886 50.1982 -82.4415 -101.686 50.0987 -82.2752 -102.51 49.9481 
-83.5884 -99.048 49.2873 -83.084 -99.8616 49.4998 -82.4195 -100.309 49.7158 
-82.0842 -100.968 49.6043 -81.9736 -101.942 49.3694 -81.5601 -102.546 49.423 
-83.0123 -98.2048 49.2219 -82.6897 -99.0316 49.2496 -82.1363 -99.6746 49.3634 
-81.7041 -100.235 49.2949 -81.5118 -101.098 49.1624 -81.2244 -101.939 49.1152 
-80.6284 -102.406 49.2131 -82.4113 -97.6111 49.1527 -82.1891 -98.2534 48.9928 
-81.7884 -98.9712 48.989 -81.362 -99.5506 48.9567 -81.0401 -100.198 48.9558 
-80.7746 -100.984 49.0556 -80.4054 -101.679 49.063 -79.8753 -102.199 49.0525 
-81.9887 -97.1299 49.0125 -81.7888 -97.6397 48.7116 -81.4824 -98.3208 48.5906 
-81.1083 -98.9746 48.5695 -80.7058 -99.545 48.5634 -80.3277 -100.156 48.6968 
-80.0281 -100.815 48.8706 -79.7114 -101.464 48.8923 -79.2717 -102.003 48.9516 
-81.7423 -96.393 48.9778 -81.5362 -96.8609 48.5955 -81.2671 -95.9949 48.6299 
-81.0302 -96.5417 48.2557 -80.6519 -95.7773 48.4341 -81.2878 -97.4918 48.3077 
-80.3471 -96.3414 48.0913 -79.8356 -95.8525 48.4054 -80.752 -97.2658 48.0611 
-80.9629 -98.2583 48.2539 -79.3225 -96.3782 48.0043 -78.7868 -96.0238 48.3943 
-79.904 -97.0913 47.9255 -80.3278 -98.1523 48.0595 -80.5236 -98.9956 48.2314 
-78.1426 -96.5235 47.9553 -77.7083 -96.0737 48.3279 -78.6937 -97.0923 47.8232 
-79.3127 -98.0702 47.9346 -79.7304 -99.057 47.9716 -79.9873 -99.6511 48.1957 
-77.2228 -96.6553 48.0362 -76.8243 -96.1007 48.3228 -77.6539 -97.2048 47.9075 
-78.2252 -98.01 48.0276 -78.7628 -99.0308 47.9847 -79.1349 -99.7971 47.9317 
-79.5407 -100.262 48.3491 -76.528 -96.8065 48.2679 -76.1112 -96.2512 48.4809 
-76.9902 -97.3691 48.1782 -77.5138 -97.9786 48.3368 -78.0177 -98.8069 48.4024 
-78.3591 -99.7282 48.1512 -78.7231 -100.404 48.158 -79.2452 -100.897 48.57 
-75.8407 -96.963 48.5963 -75.5029 -96.4823 48.7656 -76.3261 -97.5574 48.5118 
-76.8706 -98.1038 48.5821 -77.3964 -98.6628 48.7386 -77.7376 -99.4717 48.6255 
-77.9657 -100.379 48.3891 -78.3747 -101.042 48.4812 -78.8998 -101.521 48.7577 
-75.202 -97.09 48.9437 -74.9993 -96.7124 49.0945 -75.5859 -97.7065 48.8621 
-76.0316 -98.3522 48.778 -76.5069 -98.8511 48.7795 -76.9411 -99.4296 48.7893 
-77.2129 -100.283 48.662 -77.4804 -101.092 48.6297 -77.9351 -101.587 48.8407 
-78.4336 -101.933 49.0872 -82.0687 -96.0737 49.3756 -81.6707 -95.5792 49.0257 
-82.0788 -95.1342 49.3502 -81.6078 -94.6986 49.0475 -82.0358 -94.2716 49.4957 
-81.0843 -95.2604 48.7628 -81.3963 -94.0198 49.3057 -81.7616 -93.8343 50.0057 
-80.8441 -94.6282 48.8955 -80.3152 -95.2937 48.7071 -80.8453 -93.6721 49.947 
-81.2145 -93.8604 50.6275 -80.3898 -94.0709 49.259 -79.8989 -94.81 48.9298 
-79.3773 -95.5001 48.7734 -80.1188 -93.7019 50.5852 -80.585 -94.1934 51.0478 
-79.7111 -93.6664 49.936 -79.3468 -94.2205 49.2342 -78.8601 -94.9248 48.9169 
-78.2643 -95.541 48.7088 -79.6 -94.083 50.9771 -80.0564 -94.5164 51.5188 
-79.1764 -93.7506 50.5657 -78.8272 -93.9532 49.8065 -78.3231 -94.4061 49.0581 
-77.6699 -94.8729 48.7383 -77.1479 -95.4496 48.555 -79.2787 -94.4535 51.524 
-79.6229 -94.5353 52.3547 -78.8955 -94.243 51.0497 -78.4959 -94.2434 50.5056 
-77.8888 -94.402 49.6489 -77.1055 -94.5149 48.9871 -76.538 -94.8568 48.7333 
-76.2696 -95.5274 48.5915 -78.9058 -94.5241 52.4365 -79.2253 -94.3878 53.314 
-78.5208 -94.5755 51.7359 -78.0952 -94.5733 51.2234 -77.4686 -94.5908 50.5445 
-76.647 -94.5213 49.7908 -76.0563 -94.5975 49.3249 -75.8316 -95.125 49.0711 
-75.6799 -95.8587 48.8606 -78.4717 -94.4751 53.3462 -78.8651 -94.4147 53.9822 
-77.9688 -94.564 52.6435 -77.4733 -94.5563 52.0464 -76.9309 -94.5286 51.4273 
[...]
CELL_DATA 2000
SCALARS Distance double
LOOKUP_TABLE default
141.9 142.026 141.814 141.507 142.256 141.961 141.643 141.401 141.053 
142.61 142.235 141.853 141.556 141.215 140.953 140.577 142.888 142.569 
142.112 141.771 141.365 141.105 140.725 140.458 140.024 142.847 142.705 
142.243 141.968 141.496 141.234 140.813 140.563 140.115 139.843 139.369 
142.589 142.537 142.125 141.972 141.53 141.329 140.901 140.647 140.192 
139.91 139.445 139.177 138.746 142.443 142.33 141.964 141.81 141.435 
141.307 140.958 140.753 140.328 140.021 139.555 139.261 138.849 138.602 
138.239 142.426 142.299 141.961 141.739 141.366 141.215 140.93 140.801 
140.476 140.207 139.768 139.423 138.996 138.716 138.368 138.137 137.823 
142.267 142.256 141.938 141.771 141.365 141.182 140.855 140.755 140.489 
140.339 139.988 139.686 139.267 138.922 138.553 138.279 137.977 137.75 
137.47 142.151 142.619 142.344 142.305 143.207 142.876 142.852 142.556 
142.574 143.766 143.462 143.388 143.109 143.126 142.886 142.944 144.193 
143.933 143.754 143.513 143.395 143.287 143.309 143.205 143.19 144.595 
144.318 144.068 143.763 143.462 143.335 143.211 143.292 143.264 143.265 
143.104 144.909 144.678 144.387 144.053 143.667 143.381 143.11 143.067 
142.976 143.091 142.999 143.011 142.806 144.942 144.824 144.454 144.247 
143.843 143.596 143.287 143.087 142.902 142.833 142.73 142.781 142.701 
142.715 142.611 144.778 144.701 144.279 144.15 143.741 143.64 143.393 
143.286 143.122 142.937 142.767 142.628 142.535 142.557 142.553 142.593 
142.553 144.584 144.51 144.132 143.977 143.616 143.51 143.345 143.328 
143.304 143.204 143.112 142.86 142.716 142.53 142.483 142.483 142.473 
142.503 142.389 144.352 143.879 144.088 143.942 143.496 143.699 143.665 
143.699 143.528 143.234 143.456 143.589 143.595 143.526 143.425 143.348 
142.895 143.218 143.412 143.562 143.585 143.544 143.501 143.407 143.379 
142.374 142.777 142.936 143.249 143.297 143.483 143.494 143.553 143.512 
143.432 143.265 141.817 142.206 142.378 142.704 142.77 143.05 143.121 
143.379 143.418 143.492 143.323 143.175 142.879 141.283 141.655 141.847 
142.18 142.269 142.532 142.59 142.9 142.988 143.248 143.163 143.164 
142.879 142.742 142.532 140.701 141.073 141.194 141.596 141.645 141.985 
141.954 142.296 142.295 142.677 142.624 142.85 142.61 142.639 142.394 
142.425 142.367 140.095 140.427 140.452 140.848 140.827 141.223 141.12 
141.511 141.417 141.859 141.799 142.182 142.007 142.209 141.953 142.109 
141.973 142.201 142.193 141.932 141.642 141.608 141.256 141.538 141.363 
140.968 140.895 140.536 141.545 141.333 140.898 140.708 140.317 140.218 
139.888 141.317 141.238 140.792 140.664 140.219 140.062 139.635 139.56 
139.204 140.896 140.856 140.381 140.396 139.943 139.893 139.392 139.291 
138.811 138.799 138.409 140.586 140.455 139.946 139.912 139.469 139.486 
139.024 138.98 138.478 138.41 137.95 137.96 137.564 140.355 140.217 
139.729 139.589 139.141 139.055 138.616 138.57 138.124 138.076 137.636 
137.577 137.167 137.143 136.767 140.069 139.992 139.564 139.439 139 
138.841 138.363 138.224 137.754 137.7 137.285 137.268 136.878 136.835 
136.465 136.421 136.085 139.771 139.719 139.337 139.258 138.846 138.713 
138.231 138.04 137.527 137.381 136.937 136.895 136.514 136.513 136.145 
136.139 135.794 135.784 135.469 141.972 141.302 141.694 141.672 140.565 
140.969 140.99 141.3 141.16 139.89 140.249 140.255 140.591 140.513 
140.773 140.651 139.228 139.586 139.544 139.854 139.751 140.074 140.006 
140.323 140.261 138.479 138.894 138.855 139.147 138.978 139.272 139.183 
139.593 139.591 139.942 139.819 137.615 138.082 138.078 138.436 138.258 
138.507 138.347 138.73 138.748 139.2 139.157 139.426 139.176 136.742 
137.168 137.148 137.591 137.46 137.768 137.561 137.891 137.838 138.313 
138.323 138.716 138.549 138.741 138.463 136.006 136.316 136.238 136.643 
136.555 136.929 136.755 137.079 136.941 137.37 137.341 137.819 137.734 
138.071 137.867 138.067 137.855 135.387 135.622 135.492 135.797 135.714 
136.066 135.974 136.289 136.164 136.492 136.405 136.826 136.769 137.199 
137.091 137.422 137.27 137.503 137.345 134.982 134.337 134.797 135.071 
133.688 134.143 134.465 134.933 135.271 133.137 133.522 133.853 134.342 
134.739 135.2 135.552 132.616 132.965 133.218 133.721 134.149 134.678 
135.07 135.482 135.779 132.037 132.389 132.559 133.039 133.438 134.043 
134.49 134.987 135.299 135.678 135.977 131.527 131.841 132.054 132.421 
132.806 133.343 133.847 134.388 134.773 135.188 135.489 135.899 136.27 
131.21 131.469 131.792 132.063 132.477 132.854 133.374 133.83 134.29 
134.692 135.041 135.423 135.789 136.226 136.617 131.049 131.264 131.627 
131.896 132.317 132.627 133.088 133.459 133.901 134.277 134.65 135.013 
135.378 135.772 136.151 136.559 136.881 130.977 131.137 131.464 131.74 
132.138 132.446 132.83 133.162 133.525 133.894 134.247 134.628 134.979 
135.365 135.711 136.102 136.405 136.775 137.006 134.791 134.197 134.381 
134.111 133.564 133.74 133.498 133.685 133.456 133.106 133.159 132.928 
133.091 132.93 133.108 132.955 132.87 132.78 132.465 132.56 132.399 
132.605 132.504 132.676 132.509 132.788 132.58 132.145 132.121 131.86 
132.044 131.899 132.153 131.976 132.161 131.916 132.859 132.561 132.115 
131.907 131.611 131.589 131.378 131.505 131.268 131.485 131.23 131.476 
131.284 133.009 132.721 132.366 132.058 131.817 131.577 131.361 131.184 
130.877 130.834 130.552 130.731 130.599 130.904 130.889 133.109 132.902 
132.614 132.367 132.123 131.882 131.62 131.339 130.952 130.667 130.317 
130.244 130.154 130.329 130.422 130.676 130.782 133.17 132.999 132.706 
132.528 132.205 132.047 131.686 131.5 131.059 130.793 130.402 130.21 
130.121 130.138 130.318 130.427 130.617 130.719 130.826 139.495 138.914 
139.165 139.059 138.241 138.537 138.421 138.692 138.558 137.5 137.823 
137.697 137.998 137.84 138.128 137.934 136.709 137.046 136.904 137.232 
137.069 137.376 137.18 137.45 137.234 135.902 136.225 136.049 136.391 
136.221 136.572 136.404 136.705 136.506 136.765 136.615 135.149 135.434 
135.251 135.544 135.351 135.687 135.517 135.883 135.697 136.019 135.846 
136.182 136.124 134.464 134.719 134.573 134.821 134.643 134.881 134.682 
134.982 134.783 135.132 134.941 135.333 135.245 135.699 135.722 133.88 
134.08 133.945 134.184 134.025 134.237 134.02 134.228 133.994 134.25 
134.045 134.387 134.292 134.758 134.806 135.315 135.394 133.441 133.565 
133.405 133.585 133.396 133.598 133.349 133.559 133.296 133.524 133.306 
133.572 133.461 133.84 133.889 134.39 134.522 135.017 135.102 139.645 
139.625 139.459 139.059 139.481 139.373 138.957 138.808 138.368 139.292 
139.19 138.775 138.649 138.201 138.069 137.619 139.175 139.036 138.642 
138.483 138.047 137.89 137.441 137.303 136.847 139.106 138.953 138.562 
138.39 137.958 137.774 137.323 137.147 136.691 136.53 136.069 139.018 
138.873 138.447 138.288 137.829 137.671 137.217 137.053 136.604 136.418 
135.956 135.768 135.316 138.881 138.757 138.324 138.158 137.684 137.514 
137.057 136.919 136.502 136.351 135.916 135.707 135.24 135.037 134.615 
138.684 138.587 138.18 138.041 137.602 137.411 136.96 136.777 136.361 
136.225 135.828 135.669 135.234 135.013 134.577 134.381 134.03 138.481 
138.374 137.971 137.875 137.476 137.343 136.922 136.731 136.287 136.101 
135.681 135.544 135.15 134.998 134.604 134.403 134.047 133.87 133.595 
138.252 137.671 137.863 137.69 137.081 137.249 137.064 137.313 137.195 
136.614 136.701 136.492 136.689 136.568 136.826 136.686 136.209 136.273 
136.005 136.137 135.942 136.177 136.006 136.257 136.049 135.693 135.809 
135.478 135.61 135.32 135.519 135.275 135.527 135.301 135.573 135.39 
135.121 135.243 134.921 135.041 134.74 134.886 134.629 134.817 134.604 
134.835 134.681 134.965 134.861 134.605 134.712 134.45 134.537 134.289 
134.372 134.154 134.264 134.087 134.237 134.106 134.319 134.231 134.49 
134.384 134.097 134.227 133.993 134.109 133.877 133.97 133.749 133.85 
133.652 133.779 133.601 133.779 133.641 133.881 133.766 134.011 133.875 
133.595 133.725 133.496 133.634 133.39 133.518 133.268 133.407 133.177 
133.322 133.081 133.234 133 133.231 133.069 133.365 133.254 133.519 
133.417 133.27 132.805 133.07 133.167 132.34 132.604 132.635 132.934 
133.019 131.751 132.062 132.044 132.353 132.384 132.752 132.874 131.182 
131.419 131.407 131.721 131.785 132.139 132.285 132.652 132.817 131.006 
131.001 130.984 131.153 131.288 131.607 131.806 132.13 132.272 132.592 
132.711 131.182 131.056 130.996 130.929 130.973 131.163 131.315 131.64 
131.709 132.017 132.044 132.418 132.554 131.238 131.241 131.152 131.033 
130.867 130.873 130.816 131.068 131.077 131.394 131.407 131.749 131.898 
132.33 132.615 131.032 131.15 131.049 131.048 130.77 130.708 130.476 
130.578 130.584 130.831 130.991 131.249 131.511 131.818 132.178 132.543 
132.886 130.845 130.894 130.773 130.81 130.545 130.505 130.261 130.294 
130.346 130.534 130.856 131.065 131.456 131.642 132.031 132.259 132.611 
132.873 133.139 133.259 133.143 133.033 132.779 133.147 132.926 132.584 
132.547 132.309 133.329 132.975 132.491 132.322 131.996 132.021 131.74 
133.64 133.229 132.694 132.31 131.867 131.723 131.461 131.454 131.228 
133.94 133.57 133.129 132.663 132.224 131.812 131.542 131.336 131.227 
131.126 131.086 134.251 133.888 133.548 133.159 132.84 132.371 132.094 
131.677 131.528 131.284 131.253 131.155 131.202 134.683 134.27 133.963 
133.604 133.368 132.994 132.737 132.307 132.038 131.676 131.485 131.305 
131.22 131.214 131.191 135.188 134.765 134.465 134.076 133.851 133.503 
133.271 132.88 132.576 132.164 131.873 131.556 131.358 131.201 131.095 
131.091 131.02 135.657 135.271 134.974 134.591 134.357 134.006 133.796 
133.409 133.142 132.7 132.431 132.016 131.831 131.49 131.382 131.143 
131.088 130.968 130.932 133.599 134.211 133.763 133.533 134.899 134.44 
134.226 133.768 133.599 135.566 135.139 134.953 134.5 134.352 133.91 
133.812 136.312 135.868 135.766 135.278 135.161 134.689 134.604 134.169 
134.097 137.223 136.739 136.746 136.217 136.173 135.604 135.533 135.005 
134.933 134.459 134.372 138.239 137.728 137.736 137.239 137.22 136.683 
136.62 136.039 135.953 135.375 135.283 134.754 134.685 139.283 138.756 
138.687 138.178 138.086 137.626 137.544 137.076 136.974 136.432 136.305 
135.734 135.641 135.12 135.1 140.269 139.779 139.692 139.127 138.978 
138.446 138.335 137.893 137.809 137.358 137.217 136.706 136.56 136.065 
136 135.554 135.562 141.121 140.717 140.679 140.145 140.008 139.407 
139.267 138.727 138.64 138.163 138.037 137.542 137.36 136.888 136.769 
136.375 136.353 135.985 135.998 141.558 142.052 141.616 141.141 142.354 
142.021 141.534 141.09 140.491 142.418 142.188 141.71 141.389 140.817 
140.364 139.742 142.373 142.175 141.704 141.468 140.943 140.612 140.031 
139.613 139.051 142.297 142.121 141.675 141.457 140.957 140.68 140.124 
139.806 139.232 138.895 138.357 142.162 142.032 141.63 141.449 140.98 
140.708 140.139 139.833 139.238 138.955 138.386 138.125 137.622 142.032 
141.91 141.551 141.401 140.981 140.741 140.191 139.862 139.26 138.942 
138.4 138.127 137.67 137.426 137.044 141.962 141.834 141.506 141.345 
140.958 140.743 140.257 139.945 139.39 139.034 138.539 138.223 137.843 
137.563 137.251 136.976 136.679 141.894 141.79 141.471 141.315 140.931 
140.734 140.302 140.039 139.56 139.223 138.762 138.435 138.081 137.805 
137.524 137.25 136.963 136.667 136.353 141.745 141.317 141.469 141.299 
140.809 140.966 140.76 140.94 140.728 140.299 140.43 140.189 140.361 
140.151 140.338 140.108 139.739 139.894 139.634 139.797 139.577 139.758 
139.534 139.696 139.41 139.086 139.275 139.001 139.204 138.948 139.157 
138.892 139.087 138.796 138.956 138.646 138.463 138.611 138.322 138.523 
138.249 138.471 138.17 138.383 138.08 138.298 138.04 138.227 137.99 
137.953 138.033 137.718 137.858 137.592 137.781 137.515 137.683 137.4 
137.584 137.365 137.603 137.441 137.641 137.451 137.537 137.567 137.223 
137.295 137.012 137.169 136.955 137.112 136.881 137.001 136.774 136.954 
136.786 137.035 136.871 137.086 136.873 137.196 137.191 136.842 136.845 
136.534 136.63 136.423 136.591 136.412 136.544 136.315 136.424 136.193 
136.375 136.177 136.423 136.222 136.455 136.232 135.796 135.763 135.56 
135.124 135.744 135.532 135.123 134.918 134.534 135.819 135.568 135.191 
134.958 134.593 134.373 133.987 135.975 135.71 135.345 135.077 134.703 
134.452 134.037 133.791 133.333 136.072 135.864 135.499 135.245 134.843 
134.57 134.131 133.849 133.375 133.106 132.646 136.089 135.917 135.578 
135.368 134.967 134.696 134.235 133.943 133.486 133.201 132.773 132.488 
132.088 136.219 135.98 135.689 135.459 135.109 134.827 134.38 134.059 
133.61 133.33 132.952 132.681 132.306 131.998 131.633 136.542 136.229 
135.965 135.663 135.357 135.033 134.64 134.27 133.846 133.507 133.156 
132.882 132.561 132.256 131.887 131.572 131.265 136.91 136.605 136.33 
136.003 135.686 135.342 134.979 134.602 134.22 133.834 133.492 133.154 
132.855 132.536 132.203 131.859 131.518 131.24 131.026 144.792 145.012 
144.953 144.933 145.15 145.144 145.127 144.975 144.777 145.039 145.162 
145.145 145.117 144.953 144.765 144.523 144.669 144.882 144.864 145.004 
144.921 144.898 144.719 144.531 144.299 144.263 144.464 144.464 144.652 
144.656 144.785 144.724 144.68 144.495 144.301 144.027 143.821 144.06 
144.08 144.284 144.322 144.506 144.515 144.604 144.488 144.424 144.175 
143.972 143.615 143.223 143.533 143.527 143.835 143.838 144.121 144.087 
144.297 144.169 144.271 144.042 144.01 143.679 143.486 143.062 142.614 
142.886 142.833 143.163 143.109 143.476 143.386 143.714 143.541 143.786 
143.55 143.704 143.419 143.425 143.052 142.881 142.449 142.147 142.333 
142.253 142.48 142.388 142.686 142.583 142.916 142.76 143.056 142.845 
143.094 142.865 143.036 142.754 142.764 142.395 142.251 141.849 144.674 
144.755 144.657 144.404 144.545 144.566 144.31 144.246 143.885 144.274 
144.285 144.012 144.015 143.65 143.584 143.141 144.057 144.041 143.777 
143.737 143.379 143.289 142.835 142.754 142.323 143.753 143.785 143.517 
143.525 143.206 143.101 142.669 142.494 142.056 141.967 141.622 143.282 
143.365 143.017 143.137 142.821 142.883 142.515 142.406 141.978 141.802 
141.421 141.33 141.007 142.713 142.803 142.39 142.52 142.172 142.354 
142.053 142.152 141.797 141.731 141.326 141.191 140.801 140.709 140.343 
142.134 142.216 141.818 141.9 141.563 141.704 141.449 141.616 141.351 
141.433 141.078 141.038 140.622 140.52 140.102 140.018 139.637 141.579 
141.665 141.308 141.378 141.072 141.174 140.938 141.071 140.831 140.943 
140.618 140.672 140.272 140.263 139.832 139.773 139.355 139.303 138.943 
144.432 144.186 144.198 143.907 143.699 143.842 143.533 143.587 143.355 
143.039 143.296 143.036 143.131 142.857 143.027 142.946 142.307 142.635 
142.508 142.653 142.407 142.517 142.377 142.635 142.601 141.617 141.946 
141.907 142.141 141.971 142.092 141.898 142.074 141.961 142.23 142.121 
140.963 141.281 141.223 141.52 141.371 141.587 141.368 141.557 141.36 
141.588 141.433 141.697 141.561 140.266 140.587 140.492 140.811 140.655 
140.919 140.7 140.933 140.721 140.959 140.791 141.037 140.908 141.168 
141.052 139.553 139.856 139.756 140.071 139.945 140.211 140.027 140.253 
140.062 140.297 140.15 140.406 140.301 140.557 140.457 140.692 140.55 
138.881 139.158 139.067 139.362 139.273 139.541 139.41 139.63 139.471 
139.678 139.534 139.771 139.668 139.943 139.858 140.116 139.991 140.191 
140.01 133.808 134.327 134.167 134.407 134.863 134.715 134.971 134.823 
135.087 135.433 135.282 135.577 135.413 135.675 135.496 135.735 136.031 
135.893 136.224 136.058 136.342 136.122 136.339 136.131 136.406 136.517 
136.454 136.78 136.687 137.007 136.828 137.074 136.806 137.052 136.861 
137.251 136.911 136.877 137.205 137.17 137.529 137.458 137.808 137.602 
137.902 137.62 137.988 137.811 138.293 137.408 137.324 137.718 137.633 
138.051 137.982 138.446 138.343 138.775 138.54 138.923 138.654 139.089 
138.906 139.379 138.005 137.909 138.364 138.256 138.725 138.605 139.101 
139.011 139.51 139.378 139.787 139.567 139.918 139.709 140.091 139.943 
140.339 138.551 138.496 138.94 138.903 139.376 139.306 139.771 139.686 
140.134 140.048 140.421 140.291 140.567 140.413 140.682 140.568 140.888 
140.806 141.14 
POINT_DATA 1002
SCALARS Distance double
LOOKUP_TABLE default
141.629 141.983 142.09 141.726 142.265 141.168 141.894 142.612 141.31 
140.682 142.2 143.018 141.466 140.869 140.183 142.488 143.157 141.648 
140.983 140.323 139.567 142.472 142.914 141.769 141.074 140.385 139.64 
138.902 142.226 142.629 141.677 141.146 140.485 139.707 138.991 138.347 
142.137 142.566 141.531 141.099 140.63 139.871 139.088 138.47 137.901 
142.195 142.52 141.553 141.017 140.676 140.123 139.312 138.592 138.043 
137.525 142.053 142.23 141.566 140.978 140.572 140.22 139.624 138.866 
138.205 137.684 137.203 142.381 142.561 142.918 143.152 143.554 142.846 
143.683 144.063 143.333 143.203 144.056 144.461 143.526 143.329 143.398 
144.441 144.885 143.709 143.154 143.153 143.243 144.71 145.134 144.011 
143.283 142.897 142.88 142.877 144.63 145.064 144.022 143.497 143.084 
142.727 142.587 142.641 144.411 144.859 143.798 143.404 143.28 143.004 
142.573 142.447 142.573 144.263 144.632 143.723 143.33 143.303 143.331 
143.004 142.574 142.432 142.417 144.162 143.842 143.634 143.623 143.233 
143.533 143.515 142.955 143.633 143.415 143.185 142.548 143.539 143.585 
143.506 142.6 141.975 143.025 143.328 143.571 143.462 142.044 141.433 
142.489 142.798 143.24 143.446 143.063 141.49 140.927 142.009 142.311 
142.664 143.061 142.986 142.591 140.804 140.373 141.29 141.638 141.914 
142.308 142.506 142.341 142.253 140.105 139.809 140.45 140.743 140.982 
141.358 141.734 141.784 141.735 141.933 141.634 141.259 140.876 141.095 
140.55 140.184 141.12 140.48 139.922 139.559 140.862 140.394 139.784 
139.201 138.854 140.351 139.933 139.504 138.888 138.346 138.029 140.035 
139.456 139.022 138.548 137.997 137.509 137.155 139.875 139.28 138.688 
138.14 137.684 137.228 136.766 136.382 139.654 139.165 138.558 137.846 
137.278 136.894 136.513 136.116 135.759 139.4 138.957 138.419 137.717 
137.021 136.515 136.134 135.79 135.476 135.171 141.397 140.636 140.938 
139.929 140.2 140.403 139.272 139.433 139.621 139.994 138.556 138.738 
138.763 139.167 139.615 137.661 138.017 138.021 138.26 138.82 139.038 
136.689 137.096 137.269 137.394 137.861 138.29 138.321 135.878 136.147 
136.422 136.576 136.855 137.308 137.605 137.677 135.23 135.367 135.629 
135.871 136.045 136.315 136.684 136.984 137.149 134.545 134.617 133.849 
133.963 133.253 134.817 133.351 132.808 134.246 135.156 132.736 132.305 
133.568 134.633 135.421 132.128 131.682 132.817 133.931 134.908 135.571 
131.716 131.184 132.321 133.284 134.328 135.087 135.811 131.507 130.939 
132.153 132.959 133.881 134.664 135.374 136.184 131.346 130.863 132.03 
132.769 133.538 134.287 135.002 135.758 136.511 131.203 130.866 131.844 
132.542 133.181 133.859 134.598 135.338 136.038 136.666 134.659 133.941 
133.992 133.288 133.413 133.265 132.777 133.128 132.72 132.805 132.436 
133.047 132.185 132.293 132.417 132.259 133.061 131.744 131.656 131.75 
131.763 132.366 133.151 131.722 131.37 131.113 130.943 130.986 132.646 
133.23 132.088 131.644 131.074 130.447 130.267 130.545 132.831 133.269 
132.367 131.917 131.302 130.485 130.021 130.177 130.545 132.9 133.343 
132.39 131.861 131.284 130.596 130.126 130.219 130.559 130.749 139.276 
138.82 138.648 138.144 137.933 138.299 137.394 137.175 137.553 137.668 
136.57 136.382 136.748 136.907 136.966 135.723 135.601 135.854 136.063 
136.243 136.311 134.977 134.868 135.054 135.146 135.344 135.506 135.723 
134.311 134.213 134.433 134.444 134.459 134.548 134.77 135.242 133.717 
133.711 133.81 133.836 133.782 133.744 133.844 134.263 134.915 139.849 
139.253 139.773 139.094 139.578 138.524 138.901 139.399 138.331 137.751 
138.808 139.318 138.22 137.591 136.984 138.735 139.266 138.144 137.511 
136.867 136.223 138.62 139.17 137.988 137.358 136.782 136.166 135.48 
138.484 138.991 137.869 137.197 136.618 136.108 135.476 134.765 138.288 
138.774 137.771 137.168 136.516 135.952 135.427 134.8 134.167 138.061 