# vtk DataFile Version 4.0
vtk output
ASCII
DATASET POLYDATA
POINTS 1002 float
-78.0484 -99.0258 62.1573 -78.157 -99.3758 62.765 -78.6415 -99.2447 62.4801 
-78.5684 -98.8237 61.8303 -79.2312 -99.045 62.1732 -77.9239 -98.4611 61.6177 
-79.1705 -98.4585 61.602 -79.9277 -98.7072 61.9045 -78.4566 -98.0986 61.3735 
-77.8312 -97.7402 61.1587 -79.8544 -97.9596 61.4483 -80.5518 -98.2829 61.603 
-79.0517 -97.6139 61.2397 -78.3665 -97.3027 60.9921 -77.7629 -97.1787 60.5678 
-80.4209 -97.5994 61.0534 -80.9885 -98.0011 61.0801 -79.6689 -97.2856 60.9098 
-78.9509 -96.9413 60.7135 -78.2869 -96.8246 60.2831 -77.6027 -96.9218 59.6501 
-80.7702 -97.561 60.2966 -81.3358 -97.9571 60.3743 -80.0881 -97.3455 60.104 
-79.4533 -96.9995 59.9537 -78.8085 -96.6262 59.7294 -78.0709 -96.6008 59.1854 
-77.3236 -96.656 58.5835 -81.0973 -97.6284 59.5232 -81.6556 -98.0216 59.6651 
-80.4033 -97.438 59.2427 -79.7731 -97.2143 58.9725 -79.1825 -96.7505 58.8315 
-78.4916 -96.3817 58.5815 -77.7664 -96.2432 58.1272 -77.0894 -96.0784 57.7507 
-81.497 -97.5927 58.9065 -81.9353 -98.0528 59.0071 -80.8997 -97.2349 58.7167 
-80.2348 -96.965 58.418 -79.5359 -96.668 58.0937 -78.8165 -96.3563 57.8343 
-78.1642 -96.0183 57.6054 -77.586 -95.6208 57.4089 -76.9778 -95.3175 57.2661 
-81.8623 -97.469 58.3546 -82.2261 -97.9639 58.4589 -81.4214 -96.9765 58.2581 
-80.8756 -96.5262 58.1092 -80.1165 -96.2133 57.7414 -79.2245 -96.1288 57.2309 
-78.4943 -95.9972 56.9007 -78.0013 -95.5019 56.8698 -77.5195 -94.9296 56.9486 
-76.9054 -94.6935 56.9201 -82.1533 -97.3212 57.8727 -82.5612 -97.7654 58.0706 
-81.7284 -96.8646 57.6873 -81.293 -96.4174 57.563 -80.652 -96.0312 57.3172 
-79.7355 -95.869 56.7957 -78.8643 -95.8634 56.273 -78.3075 -95.5647 56.1332 
-77.9205 -94.9265 56.3254 -77.4384 -94.449 56.505 -76.8154 -94.3812 56.4722 
-78.5243 -99.5723 63.2449 -79.0878 -99.4028 63.0017 -78.9335 -99.8142 63.7102 
-79.6559 -99.6102 63.4784 -79.4629 -100.233 64.018 -79.804 -99.2284 62.6485 
-80.3001 -99.9797 63.8162 -80.0112 -100.763 64.226 -80.4094 -99.4531 63.0711 
-80.4764 -98.996 62.2059 -80.8378 -100.423 64.0996 -80.4557 -101.253 64.46 
-80.9597 -99.7885 63.4215 -80.8723 -99.3676 62.4293 -80.9268 -98.7622 61.6361 
-81.236 -100.879 64.2835 -80.8695 -101.76 64.6573 -81.4407 -100.19 63.6729 
-81.2813 -99.8004 62.6168 -81.1773 -99.3497 61.5974 -81.3273 -98.6084 60.9626 
-81.5471 -101.442 64.2439 -81.2389 -102.321 64.6901 -81.8175 -100.66 63.6611 
-81.7938 -100.226 62.691 -81.6203 -99.8512 61.6148 -81.6527 -99.225 60.8579 
-81.7536 -98.5252 60.2942 -81.7195 -102.064 64.0121 -81.3981 -102.784 64.483 
-82.0199 -101.229 63.4254 -82.1646 -100.639 62.5755 -82.1562 -100.219 61.6318 
-82.1231 -99.6688 60.8611 -82.1057 -99.0523 60.2189 -82.0508 -98.5313 59.5921 
-81.7482 -102.567 63.6314 -81.3543 -103.068 64.0568 -82.141 -101.826 63.1115 
-82.3948 -101.089 62.4 -82.5531 -100.531 61.6215 -82.6384 -100.019 60.9188 
-82.5393 -99.5014 60.1903 -82.3695 -99.0362 59.4653 -82.2892 -98.5397 58.8977 
-81.7132 -102.871 63.1596 -81.2882 -103.261 63.5619 -82.2515 -102.311 62.7373 
-82.6791 -101.597 62.216 -82.9415 -100.899 61.6307 -83.1359 -100.336 61.0336 
-83.1045 -99.8941 60.2698 -82.8276 -99.4942 59.3982 -82.6459 -99.0018 58.7615 
-82.6331 -98.3815 58.3981 -81.5398 -103.193 62.8184 -82.1204 -102.737 62.3975 
-81.8993 -103.024 62.0753 -82.6628 -102.595 61.708 -82.3349 -102.852 61.3912 
-82.8351 -102.198 62.0172 -83.2246 -102.596 61.0957 -82.8928 -102.833 60.6754 
-83.4697 -102.164 61.4334 -83.3371 -101.497 61.6216 -83.6982 -102.709 60.2366 
-83.4353 -102.89 59.6911 -83.8781 -102.235 60.7554 -83.9085 -101.458 61.1007 
-83.6165 -100.757 61.1569 -83.9401 -102.615 58.9761 -83.6152 -102.766 58.535 
-84.0316 -102.165 59.5583 -84.0868 -101.384 60.1544 -84.0539 -100.635 60.4641 
-83.6855 -100.199 60.4061 -83.8683 -102.189 57.8289 -83.4246 -102.414 57.6062 
-84.1193 -101.754 58.1794 -84.1346 -101.117 58.7293 -84.1022 -100.445 59.2689 
-83.9109 -100.025 59.4489 -83.406 -99.79 59.3789 -83.5893 -101.666 57.1079 
-83.1635 -102.001 56.9371 -84.083 -101.206 57.276 -84.3161 -100.739 57.5535 
-84.2091 -100.22 58.0089 -83.9721 -99.7151 58.4022 -83.6106 -99.4296 58.5335 
-83.1095 -99.2538 58.5928 -83.265 -101.257 56.5194 -82.9525 -101.649 56.311 
-83.7824 -100.8 56.6774 -84.2854 -100.433 56.8108 -84.4144 -100.052 57.048 
-84.2029 -99.4389 57.443 -83.9054 -98.8672 57.8263 -83.5404 -98.6255 58.0722 
-83.0801 -98.5332 58.2379 -82.9796 -100.966 55.897 -82.7388 -101.359 55.7103 
-83.3694 -100.565 56.0256 -83.8856 -100.242 56.1042 -84.2835 -99.9051 56.2021 
-84.3614 -99.2708 56.4498 -84.2058 -98.4792 56.8979 -83.9465 -98.0084 57.4076 
-83.5547 -97.8979 57.783 -83.0481 -97.8626 57.9702 -82.594 -97.326 57.5554 
-83.1374 -97.4426 57.3982 -82.4129 -97.076 56.8082 -83.6533 -97.5173 57.0034 
-82.9013 -97.3149 56.4905 -82.1404 -96.88 55.9182 -84.0123 -97.6823 56.3731 
-83.3321 -97.4561 55.9065 -82.4986 -97.1807 55.4909 -81.9301 -96.4756 54.9616 
-84.1807 -98.2505 55.7957 -83.6293 -97.5843 55.2944 -82.7897 -97.3266 54.9318 
-82.1667 -96.7408 54.4404 -81.6402 -96.0866 53.8309 -84.0963 -99.1191 55.477 
-83.6885 -98.1236 54.9327 -83.0053 -97.4877 54.5384 -82.3822 -96.9646 53.8881 
-81.8763 -96.3063 53.1537 -81.1207 -96.0024 52.7461 -83.756 -99.7757 55.3615 
-83.4698 -98.9765 54.7488 -82.9938 -98.0825 54.3268 -82.5239 -97.3837 53.5619 
-82.1423 -96.6716 52.5586 -81.4669 -96.1381 52.073 -80.515 -95.9632 52.0218 
-83.3227 -100.14 55.3377 -83.1729 -99.6193 54.6436 -82.8196 -98.8484 54.1179 
-82.4141 -98.0601 53.4145 -82.1826 -97.3179 52.3643 -81.7579 -96.5898 51.6564 
-80.88 -96.1179 51.5271 -80.0111 -95.81 51.3753 -82.9401 -100.461 55.3277 
-82.8962 -99.9978 54.6427 -82.6756 -99.4082 53.9588 -82.2381 -98.6778 53.2814 
-81.9175 -97.98 52.4733 -81.6764 -97.3038 51.7419 -81.0742 -96.6831 51.361 
-80.2552 -96.2124 51.0632 -79.6788 -95.7459 50.5636 -82.6365 -100.83 55.2607 
-82.5766 -100.322 54.6905 -82.4717 -99.8264 53.9445 -82.1324 -99.2226 53.1684 
-81.6839 -98.5483 52.5429 -81.3558 -97.9296 52.0428 -80.9466 -97.3712 51.575 
-80.3321 -96.8775 51.0611 -79.7927 -96.4074 50.4554 -79.4796 -95.8529 49.8668 
-82.0287 -96.9368 57.1939 -81.7717 -96.6923 56.3305 -81.5157 -96.5747 56.8677 
-81.5546 -96.3602 55.3857 -81.1584 -96.4101 55.8539 -80.9477 -96.2684 56.5997 
-81.3163 -95.9675 54.3462 -80.8016 -96.1123 54.7909 -80.3808 -96.2238 55.441 
-80.1216 -95.9859 56.2211 -80.7999 -95.8992 53.2889 -80.3993 -95.8321 53.7646 
-79.9259 -95.8946 54.382 -79.5525 -95.8546 55.1228 -79.223 -95.7593 55.7424 
-80.1419 -95.9264 52.4698 -79.8999 -95.7045 52.8883 -79.6796 -95.4216 53.4716 
-79.3668 -95.3115 54.2514 -78.9613 -95.3389 54.9297 -78.5804 -95.4597 55.485 
-79.6826 -95.6134 51.6733 -79.5055 -95.3313 52.0369 -79.4675 -94.9385 52.5613 
-79.3622 -94.7389 53.3295 -78.9907 -94.7865 54.1544 -78.5009 -94.8839 54.8678 
-78.1533 -94.924 55.5864 -79.4687 -95.2251 50.6436 -79.3195 -94.7519 50.942 
-79.2358 -94.3777 51.4992 -79.1406 -94.2926 52.2468 -78.8606 -94.479 53.0801 
-78.3896 -94.6175 53.956 -77.9734 -94.5584 54.882 -77.6992 -94.4352 55.7925 
-79.3407 -95.1135 49.7504 -79.1898 -94.4289 49.8972 -79.0058 -93.9826 50.4281 
-78.7661 -93.9158 51.2153 -78.4445 -94.1889 52.0064 -78.0403 -94.5085 52.8079 
-77.6598 -94.5882 53.783 -77.3746 -94.4372 54.8825 -77.1123 -94.2993 55.8442 
-79.1841 -95.5404 49.3993 -78.9749 -94.6598 49.3293 -78.5515 -95.2401 49.3857 
-78.2011 -94.4102 49.4404 -77.5305 -95.1541 49.5579 -78.7176 -94.0051 49.6111 
-77.2494 -94.5309 49.7115 -76.6617 -95.3995 49.7003 -77.9101 -93.9683 49.8115 
-78.4014 -93.7547 50.3234 -76.6022 -94.9843 50.019 -76.2401 -95.7811 50.1311 
-77.1163 -94.25 50.1339 -77.6113 -93.8107 50.5567 -78.001 -93.8491 51.1825 
-76.0634 -95.4268 50.5855 -75.7285 -95.9868 50.7618 -76.4302 -94.7216 50.5592 
-76.8682 -94.0497 50.9002 -77.1975 -93.8315 51.3785 -77.561 -94.1707 51.9377 
-75.1508 -95.5578 51.12 -74.788 -96.0483 51.1318 -75.4866 -95.0314 51.0681 
-75.9723 -94.502 51.2851 -76.4191 -94.1048 51.7043 -76.7648 -94.1805 52.1235 
-77.1905 -94.5084 52.7923 -74.0686 -95.603 51.4304 -73.7918 -96.1975 51.3854 
-74.3152 -95.0013 51.4014 -74.7711 -94.6848 51.5585 -75.3812 -94.5548 52.0175 
-75.9274 -94.4771 52.5172 -76.4137 -94.5642 53.073 -76.9095 -94.5865 53.9299 
-73.2429 -95.8643 51.7641 -73.0235 -96.441 51.7578 -73.3852 -95.0908 51.6908 
-73.6415 -94.5541 51.774 -74.1413 -94.5268 52.2739 -74.8052 -94.6104 52.9766 
-75.4825 -94.6069 53.579 -76.0866 -94.5946 54.2465 -76.6265 -94.4574 55.0923 
-72.661 -96.2307 52.1425 -72.3852 -96.6417 52.1109 -72.8509 -95.5552 52.0964 
-72.9776 -94.7678 52.1498 -73.1881 -94.3682 52.6088 -73.6646 -94.3777 53.4092 
-74.3999 -94.4227 54.1163 -75.1529 -94.4728 54.638 -75.7721 -94.5157 55.2401 
-76.3145 -94.4371 55.9291 -79.4186 -96.4475 49.7764 -79.0164 -96.2585 49.5023 
-79.216 -96.9996 49.8869 -78.6492 -96.9598 49.677 -78.8067 -97.3885 50.1664 
-78.1588 -96.1151 49.4998 -78.0798 -97.4538 49.9437 -78.3426 -97.7758 50.5705 
-77.6167 -96.9997 49.4536 -77.008 -96.1617 49.4426 -77.5694 -97.8078 50.4081 
-78.0432 -98.3924 50.8751 -77.0475 -97.4923 49.6144 -76.4933 -97.0508 49.2611 
-76.2354 -96.3411 49.6157 -77.2395 -98.3499 50.8049 -77.7829 -99.1574 50.966 
-76.6817 -97.7089 50.2385 -76.0961 -97.4 49.6114 -75.7696 -96.9951 49.7061 
-75.802 -96.4324 50.287 -76.8589 -99.1364 50.9704 -77.3837 -99.7756 51.1518 
-76.4104 -98.2606 50.8368 -75.9002 -97.6666 50.4481 -75.3481 -97.3635 50.1979 
-75.0938 -96.9235 50.4235 -75.053 -96.4392 50.8101 -76.4282 -99.8334 51.207 
-76.9859 -100.141 51.6389 -76.0083 -99.1498 51.1278 -75.6598 -98.387 51.0994 
-75.1031 -97.9489 50.8423 -74.457 -97.5536 50.6395 -74.1386 -97.0011 50.7228 
-74.0334 -96.5448 51.0218 -76.1474 -100.255 51.684 -76.7013 -100.371 52.2542 
-75.6266 -99.8921 51.3879 -75.2145 -99.2647 51.3825 -74.7755 -98.7427 51.2809 
-74.109 -98.3619 50.9959 -73.4838 -97.8073 50.8507 -73.2355 -97.1879 51.0101 
-73.1686 -96.7506 51.3799 -75.9793 -100.485 52.2819 -76.4613 -100.579 52.8086 
-75.4121 -100.318 51.8241 -74.7959 -99.9373 51.602 -74.2593 -99.4666 51.4891 
[...]
CELL_DATA 2000
SCALARS Distance double
LOOKUP_TABLE default
139.976 140.012 139.785 139.341 140.036 139.798 139.315 139.085 138.595 
140.015 139.795 139.278 139.036 138.526 138.315 137.852 139.9 139.727 
139.227 138.998 138.483 138.253 137.785 137.596 137.168 139.746 139.585 
139.12 138.934 138.452 138.23 137.742 137.528 137.061 136.891 136.425 
139.645 139.457 138.996 138.82 138.359 138.177 137.684 137.471 136.947 
136.751 136.235 136.079 135.566 139.572 139.384 138.922 138.722 138.245 
138.06 137.552 137.358 136.814 136.616 136.077 135.892 135.376 135.206 
134.718 139.466 139.3 138.846 138.655 138.176 137.965 137.44 137.212 
136.656 136.452 135.928 135.752 135.26 135.07 134.599 134.417 134.001 
139.347 139.181 138.722 138.553 138.088 137.902 137.402 137.15 136.593 
136.327 135.8 135.605 135.144 134.976 134.535 134.349 133.943 133.778 
133.448 140.353 140.937 140.567 140.417 141.605 141.19 141.058 140.654 
140.488 142.359 141.913 141.768 141.327 141.151 140.716 140.484 143.093 
142.672 142.503 142.045 141.806 141.352 141.08 140.647 140.35 143.758 
143.357 143.178 142.745 142.466 141.985 141.658 141.207 140.905 140.481 
140.191 144.37 143.973 143.747 143.352 143.072 142.618 142.273 141.794 
141.477 141.039 140.771 140.347 140.089 144.826 144.504 144.21 143.85 
143.535 143.152 142.82 142.394 142.065 141.626 141.335 140.917 140.654 
140.249 139.993 144.997 144.823 144.537 144.245 143.911 143.561 143.24 
142.881 142.59 142.199 141.901 141.475 141.178 140.774 140.506 140.129 
139.873 144.95 144.883 144.681 144.51 144.254 143.947 143.67 143.313 
143.084 142.72 142.487 142.059 141.76 141.306 141.011 140.615 140.366 
140.001 139.76 144.835 144.614 144.699 144.613 144.451 144.526 144.5 
144.502 144.315 144.417 144.462 144.522 144.485 144.344 144.172 143.834 
144.397 144.482 144.541 144.536 144.402 144.247 143.908 143.667 143.275 
144.078 144.312 144.238 144.381 144.134 144.159 143.78 143.683 143.25 
143.083 142.659 143.413 143.744 143.555 143.815 143.467 143.643 143.215 
143.327 142.879 142.898 142.425 142.352 141.882 142.658 142.958 142.756 
143.023 142.733 142.917 142.552 142.674 142.271 142.365 141.931 141.973 
141.519 141.501 141.084 141.977 142.209 142.012 142.259 142.066 142.273 
142.037 142.132 141.792 141.809 141.41 141.439 141.056 141.095 140.742 
140.75 140.427 141.375 141.559 141.346 141.566 141.394 141.646 141.472 
141.656 141.352 141.392 140.964 140.965 140.578 140.64 140.34 140.404 
140.117 140.132 139.829 139.461 139.76 139.408 138.942 139.961 139.668 
139.229 138.855 138.327 140.129 139.811 139.359 139.069 138.559 138.191 
137.6 140.464 140.016 139.48 139.142 138.625 138.332 137.741 137.376 
136.731 140.863 140.403 139.803 139.328 138.752 138.387 137.81 137.456 
136.804 136.444 135.843 141.023 140.719 140.15 139.694 139.083 138.615 
138.032 137.592 136.974 136.54 135.93 135.594 135.098 140.972 140.775 
140.298 139.977 139.413 138.975 138.378 137.904 137.311 136.821 136.24 
135.783 135.27 134.922 134.467 140.938 140.737 140.33 140.088 139.61 
139.256 138.674 138.234 137.641 137.192 136.655 136.192 135.696 135.23 
134.768 134.353 133.906 140.981 140.758 140.37 140.143 139.722 139.431 
138.908 138.506 137.926 137.501 136.993 136.596 136.146 135.709 135.257 
134.781 134.349 133.889 133.501 139.147 138.578 138.73 138.471 137.938 
138.102 137.818 138.035 137.821 137.208 137.411 137.099 137.342 137.118 
137.38 137.147 136.37 136.623 136.293 136.566 136.311 136.62 136.368 
136.633 136.331 135.552 135.791 135.478 135.726 135.44 135.752 135.491 
135.799 135.506 135.773 135.508 134.836 135.041 134.748 134.946 134.637 
134.883 134.623 134.92 134.675 134.953 134.721 135.009 134.84 134.129 
134.323 133.976 134.197 133.843 134.086 133.811 134.102 133.908 134.185 
133.998 134.257 134.092 134.388 134.251 133.463 133.573 133.131 133.341 
132.939 133.22 132.931 133.279 133.12 133.458 133.322 133.587 133.434 
133.681 133.547 133.822 133.701 133.016 132.961 132.469 132.529 132.116 
132.316 132.044 132.377 132.242 132.636 132.545 132.892 132.777 133.054 
132.941 133.186 133.092 133.332 133.244 132.725 132.103 132.274 132.073 
131.506 131.645 131.412 131.669 131.652 131.091 131.122 130.945 131.097 
131.092 131.39 131.582 131.085 130.927 130.795 130.782 130.788 130.947 
131.111 131.448 131.776 131.256 131.088 130.925 130.789 130.729 130.742 
130.818 131.029 131.282 131.693 132.068 131.098 131.12 130.883 130.855 
130.705 130.715 130.714 130.804 130.974 131.242 131.587 132.002 132.364 
130.711 130.777 130.469 130.553 130.327 130.508 130.497 130.693 130.84 
131.031 131.32 131.608 131.972 132.313 132.613 130.511 130.459 130.154 
130.098 129.809 129.955 129.923 130.284 130.461 130.821 131.061 131.369 
131.66 131.975 132.264 132.561 132.795 130.486 130.409 130.205 130.003 
129.738 129.601 129.511 129.687 129.868 130.28 130.552 130.973 131.232 
131.61 131.87 132.209 132.448 132.736 132.946 133.061 133.437 133.022 
132.514 133.709 133.397 132.93 132.462 131.913 133.851 133.604 133.191 
132.829 132.288 131.84 131.402 134.079 133.743 133.306 133.002 132.514 
132.163 131.757 131.445 131.291 134.474 134.036 133.53 133.136 132.656 
132.339 131.985 131.755 131.6 131.449 131.411 134.859 134.441 133.945 
133.472 133.007 132.584 132.241 131.96 131.755 131.626 131.495 131.431 
131.253 135.151 134.798 134.382 133.948 133.555 133.087 132.765 132.342 
132.067 131.762 131.513 131.374 131.159 131.102 130.88 135.418 135.103 
134.756 134.389 134.044 133.645 133.334 132.922 132.614 132.181 131.846 
131.482 131.213 131.028 130.871 130.781 130.663 135.678 135.396 135.089 
134.764 134.424 134.072 133.727 133.389 133.062 132.699 132.362 131.941 
131.634 131.269 131.082 130.869 130.777 130.661 130.586 140.897 140.532 
140.56 140.257 140.09 140.139 139.799 139.888 139.58 139.545 139.632 
139.257 139.374 139.036 139.153 138.773 138.9 139.028 138.66 138.801 
138.478 138.595 138.211 138.272 137.828 138.263 138.382 138.048 138.198 
137.914 138.052 137.707 137.748 137.311 137.33 136.921 137.706 137.806 
137.486 137.61 137.318 137.472 137.123 137.219 136.762 136.813 136.368 
136.457 136.08 137.136 137.266 136.944 137.065 136.738 136.868 136.475 
136.576 136.074 136.165 135.67 135.823 135.419 135.587 135.201 136.534 
136.674 136.352 136.492 136.159 136.284 135.892 135.952 135.457 135.477 
134.988 135.09 134.719 134.895 134.565 134.703 134.326 136.013 136.104 
135.792 135.898 135.573 135.693 135.332 135.405 134.964 134.955 134.508 
134.52 134.199 134.296 134.054 134.147 133.842 133.884 133.519 141.232 
141.595 141.258 140.894 141.857 141.576 141.25 140.905 140.493 142.104 
141.785 141.447 141.194 140.823 140.467 139.977 142.474 142.037 141.576 
141.305 140.928 140.7 140.241 139.874 139.314 142.827 142.393 141.806 
141.425 140.949 140.723 140.293 140.039 139.514 139.156 138.623 142.911 
142.625 142.025 141.64 141.082 140.771 140.32 140.068 139.602 139.302 
138.795 138.474 138.016 142.774 142.606 142.083 141.788 141.234 140.913 
140.429 140.146 139.701 139.408 138.93 138.618 138.14 137.859 137.42 
142.619 142.485 142.059 141.825 141.325 141.029 140.53 140.252 139.8 
139.532 139.072 138.763 138.27 137.959 137.484 137.226 136.802 142.506 
142.388 142.031 141.836 141.392 141.116 140.615 140.326 139.854 139.607 
139.171 138.905 138.43 138.105 137.609 137.299 136.859 136.62 136.261 
142.344 141.904 142.056 141.861 141.354 141.546 141.333 141.497 141.223 
140.779 140.959 140.723 140.905 140.612 140.767 140.436 140.174 140.362 
140.075 140.257 139.928 140.102 139.764 139.943 139.651 139.424 139.663 
139.317 139.541 139.168 139.374 139.028 139.243 138.966 139.194 138.961 
138.612 138.838 138.478 138.717 138.359 138.586 138.255 138.491 138.221 
138.481 138.24 138.492 138.228 137.868 138.047 137.704 137.909 137.602 
137.814 137.522 137.737 137.459 137.707 137.439 137.712 137.426 137.689 
137.396 137.139 137.323 136.976 137.178 136.876 137.096 136.807 137.023 
136.715 136.936 136.628 136.882 136.597 136.868 136.607 136.871 136.645 
136.407 136.593 136.255 136.454 136.14 136.36 136.055 136.282 135.965 
136.182 135.866 136.09 135.823 136.076 135.872 136.133 135.968 136.215 
136.07 135.916 135.222 135.624 135.777 134.557 134.953 135.062 135.485 
135.649 133.743 134.226 134.319 134.759 134.877 135.344 135.531 132.835 
133.343 133.487 133.98 134.127 134.583 134.753 135.233 135.44 132.071 
132.507 132.7 133.171 133.404 133.866 134.083 134.513 134.714 135.161 
135.37 131.439 131.854 132.083 132.493 132.742 133.182 133.43 133.868 
134.08 134.496 134.703 135.13 135.359 130.89 131.274 131.549 131.943 
132.185 132.575 132.792 133.208 133.419 133.852 134.08 134.515 134.774 
135.19 135.452 130.589 130.824 131.081 131.423 131.671 132.039 132.264 
132.627 132.852 133.228 133.492 133.911 134.224 134.652 134.957 135.34 
135.595 130.542 130.636 130.796 131.006 131.199 131.523 131.77 132.142 
132.427 132.773 133.071 133.414 133.744 134.135 134.47 134.863 135.143 
135.492 135.719 135.867 135.582 135.517 135.164 135.357 135.247 134.862 
134.844 134.506 135.168 135.027 134.579 134.525 134.116 134.115 133.683 
134.978 134.82 134.307 134.208 133.706 133.668 133.17 133.186 132.738 
134.8 134.617 134.049 133.897 133.31 133.219 132.665 132.654 132.188 
132.256 131.917 134.665 134.451 133.855 133.636 132.997 132.823 132.228 
132.161 131.668 131.707 131.319 131.461 131.2 134.619 134.363 133.809 
133.515 132.914 132.615 132.046 131.832 131.358 131.262 130.863 130.883 
130.586 130.761 130.616 134.701 134.403 133.927 133.589 133.096 132.714 
132.239 131.87 131.474 131.177 130.86 130.643 130.404 130.328 130.237 
130.35 130.389 134.838 134.547 134.111 133.789 133.358 133.003 132.589 
132.208 131.855 131.491 131.237 130.903 130.734 130.452 130.386 130.247 
130.304 130.334 130.439 136.345 137.099 136.495 136.082 137.954 137.324 
136.917 136.278 135.889 138.852 138.223 137.88 137.203 136.798 136.122 
135.732 139.821 139.172 138.861 138.197 137.821 137.099 136.647 135.956 
135.55 140.76 140.156 139.809 139.162 138.775 138.098 137.628 136.899 
136.411 135.754 135.365 141.497 141.004 140.626 140.035 139.583 138.969 
138.491 137.827 137.31 136.623 136.163 135.563 135.211 142.089 141.645 
141.267 140.741 140.26 139.693 139.21 138.622 138.133 137.484 136.997 
136.363 135.97 135.419 135.128 142.64 142.2 141.813 141.323 140.862 
140.324 139.861 139.314 138.87 138.277 137.817 137.185 136.777 136.196 
135.901 135.385 135.174 143.089 142.694 142.291 141.849 141.419 140.921 
140.486 139.963 139.543 138.997 138.571 137.984 137.584 137.008 136.705 
136.179 135.959 135.47 135.288 143.13 142.855 142.793 142.349 142.577 
142.529 142.132 142.013 141.525 142.318 142.286 141.923 141.817 141.34 
141.166 140.625 141.982 141.996 141.619 141.578 141.083 140.951 140.377 
140.225 139.665 141.546 141.575 141.144 141.174 140.664 140.614 140.026 
139.92 139.34 139.238 138.689 141.1 141.089 140.606 140.631 140.146 
140.15 139.63 139.556 139.021 138.911 138.393 138.274 137.756 140.713 
140.656 140.155 140.116 139.658 139.664 139.244 139.207 138.749 138.636 
138.151 138.018 137.538 137.395 136.92 140.385 140.31 139.83 139.731 
139.281 139.247 138.875 138.867 138.451 138.369 137.855 137.749 137.24 
137.162 136.703 136.604 136.168 140.097 140.026 139.584 139.463 139.014 
138.931 138.553 138.531 138.13 138.058 137.515 137.393 136.818 136.77 
136.295 136.305 135.898 135.861 135.469 139.808 139.16 139.436 139.283 
138.421 138.73 138.585 138.863 138.714 137.68 137.969 137.821 138.128 
138.005 138.313 138.235 136.985 137.241 137.049 137.341 137.194 137.552 
137.458 137.832 137.749 136.239 136.523 136.28 136.551 136.339 136.691 
136.548 136.956 136.799 137.218 137.056 135.378 135.705 135.45 135.741 
135.495 135.822 135.661 136.035 135.869 136.226 136.026 136.438 136.321 
134.522 134.822 134.585 134.886 134.657 134.974 134.827 135.186 135.073 
135.381 135.213 135.5 135.389 135.798 135.819 133.81 134.03 133.82 
134.074 133.893 134.175 134.043 134.378 134.282 134.618 134.484 134.77 
134.646 134.977 134.979 135.412 135.481 133.273 133.412 133.215 133.403 
133.255 133.49 133.38 133.651 133.537 133.834 133.685 134 133.861 
134.222 134.18 134.606 134.649 135.091 135.117 134.742 134.298 134.366 
134.025 133.791 133.865 133.532 133.624 133.279 133.378 133.349 132.953 
133.062 132.747 132.872 132.538 133.198 133.03 132.572 132.525 132.192 
132.305 132.056 132.163 131.862 133.145 132.954 132.528 132.314 131.939 
131.863 131.63 131.709 131.535 131.58 131.32 133.025 132.904 132.511 
132.327 131.895 131.722 131.368 131.352 131.165 131.269 131.122 131.127 
130.875 132.885 132.765 132.358 132.225 131.748 131.603 131.108 131.046 
130.68 130.815 130.642 130.845 130.702 130.728 130.52 132.864 132.682 
132.306 132.101 131.665 131.445 130.967 130.775 130.319 130.287 129.996 
130.217 130.125 130.407 130.353 130.44 130.362 132.961 132.749 132.446 
132.185 131.848 131.533 131.178 130.832 130.465 130.145 129.82 129.704 
129.576 129.776 129.848 130.143 130.235 130.368 130.415 145.116 145.207 
145.259 145.387 145.088 145.296 145.448 145.488 145.534 144.603 144.999 
145.171 145.411 145.427 145.509 145.494 143.912 144.36 144.501 144.915 
144.93 145.201 145.143 145.353 145.381 143.204 143.622 143.728 144.158 
144.204 144.562 144.536 144.846 144.876 145.201 145.289 142.462 142.885 
142.981 143.406 143.485 143.853 143.872 144.197 144.227 144.596 144.683 
145.051 145.091 141.705 142.116 142.207 142.649 142.738 143.149 143.176 
143.531 143.515 143.886 143.894 144.322 144.336 144.737 144.692 141.031 
141.384 141.454 141.866 141.938 142.369 142.394 142.791 142.76 143.129 
143.078 143.471 143.429 143.865 143.821 144.247 144.167 140.434 140.741 
140.763 141.122 141.146 141.55 141.561 141.975 141.971 142.359 142.341 
142.69 142.653 142.998 142.954 143.34 143.289 143.69 143.592 145.142 
145.395 145.292 145.423 145.521 145.482 145.571 145.614 145.837 145.567 
145.57 145.609 145.649 145.76 145.905 145.965 145.603 145.648 145.756 
145.714 145.747 145.753 145.716 145.783 145.582 145.549 145.682 145.847 
145.875 145.931 145.844 145.759 145.624 145.415 145.306 145.014 145.321 
145.54 145.631 145.804 145.823 145.921 145.816 145.741 145.471 145.279 
144.945 144.789 144.488 144.952 145.226 145.272 145.457 145.384 145.577 
145.427 145.568 145.263 145.241 144.807 144.703 144.296 144.237 143.917 
144.461 144.801 144.881 145.077 144.983 145.104 144.908 145.038 144.747 
144.83 144.421 144.42 143.984 143.965 143.603 143.615 143.329 143.852 
144.244 144.322 144.619 144.529 144.696 144.473 144.564 144.269 144.322 
143.977 143.993 143.629 143.622 143.294 143.295 143.024 143.046 142.818 
144.97 145.293 144.991 144.77 145.81 145.457 145.152 144.768 144.537 
146.014 145.926 145.625 145.204 144.771 144.488 144.356 145.572 145.821 
145.588 145.479 144.96 144.673 144.319 144.286 144.261 144.902 145.185 
144.996 145.15 144.732 144.651 144.207 144.162 143.976 144.108 144.008 
144.388 144.578 144.443 144.578 144.347 144.346 144.029 143.971 143.715 
143.765 143.591 143.703 143.442 143.889 144.109 144.05 144.194 144.117 
144.134 143.986 143.881 143.65 143.543 143.297 143.296 143.042 143.076 
142.748 143.321 143.578 143.546 143.798 143.779 143.955 143.874 143.888 
143.651 143.519 143.174 143.059 142.742 142.726 142.442 142.43 142.108 
142.797 143.018 142.957 143.228 143.179 143.479 143.379 143.599 143.333 
143.372 142.947 142.881 142.474 142.45 142.152 142.161 141.884 141.843 
141.528 136.69 137.456 137.194 137.452 138.203 137.974 138.256 137.996 
138.273 138.959 138.729 139.048 138.803 139.103 138.832 139.142 139.751 
139.512 139.844 139.61 139.954 139.691 140.032 139.753 140.112 140.45 
140.266 140.57 140.387 140.728 140.529 140.872 140.638 140.97 140.723 
141.037 141.03 140.888 141.187 141.053 141.386 141.244 141.572 141.4 
141.686 141.491 141.748 141.541 141.758 141.598 141.454 141.774 141.649 
142.005 141.876 142.23 142.068 142.381 142.172 142.445 142.216 142.464 
142.212 142.396 142.125 142.011 142.31 142.217 142.556 142.469 142.825 
142.713 143.066 142.896 143.231 142.989 143.295 142.999 143.245 142.893 
143.026 142.54 142.473 142.729 142.681 142.976 142.945 143.271 143.238 
143.581 143.521 143.863 143.743 144.058 143.852 144.099 143.789 143.921 
143.511 143.521 
POINT_DATA 1002
SCALARS Distance double
LOOKUP_TABLE default
139.576 140.152 140.202 139.579 140.256 138.87 139.56 140.294 138.806 
138.11 139.531 140.221 138.743 138.03 137.418 139.431 140.047 138.721 
137.986 137.341 136.747 139.278 139.913 138.653 137.983 137.258 136.586 
135.943 139.183 139.84 138.53 137.897 137.173 136.413 135.709 135.048 
139.129 139.747 138.453 137.754 137.006 136.264 135.556 134.863 134.242 
139.025 139.626 138.385 137.69 136.876 136.087 135.435 134.791 134.145 
133.615 138.893 139.523 138.249 137.631 136.885 136.02 135.294 134.704 
134.112 133.574 133.155 140.707 140.793 141.312 141.468 142.037 140.916 
142.237 142.806 141.6 140.938 142.974 143.501 142.3 141.52 140.783 
143.598 144.175 142.962 142.136 141.319 140.614 144.148 144.789 143.498 
142.756 141.929 141.185 140.515 144.578 145.111 143.906 143.205 142.5 
141.767 141.053 140.394 144.78 145.099 144.255 143.575 142.941 142.332 
141.605 140.877 140.247 144.77 144.983 144.496 144.013 143.424 142.889 
142.24 141.435 140.721 140.13 144.753 144.576 144.516 144.488 144.35 
144.439 144.551 144.353 144.53 144.066 144.544 144.296 144.53 144.148 
143.513 144.1 143.84 144.073 143.803 143.39 142.848 143.294 143.107 
143.274 143.057 142.789 142.459 141.971 142.473 142.395 142.503 142.423 
142.18 141.847 141.49 141.098 141.76 141.775 141.803 141.893 141.796 
141.401 140.982 140.699 140.432 141.142 141.208 141.136 141.243 141.28 
140.98 140.515 140.239 140.083 139.836 139.025 139.363 138.438 139.56 
138.765 137.78 139.635 138.885 138.031 136.989 139.9 138.908 138.084 
137.109 136.097 140.332 139.178 138.17 137.178 136.128 135.306 140.546 
139.574 138.498 137.43 136.315 135.35 134.639 140.538 139.811 138.854 
137.785 136.721 135.684 134.777 133.985 140.537 139.916 139.103 138.066 
137.073 136.173 135.231 134.297 133.435 140.596 139.977 139.275 138.348 
137.365 136.541 135.725 134.816 133.934 133.133 138.272 137.598 137.584 
136.856 136.846 136.927 136.025 135.999 136.091 136.09 135.254 135.157 
135.167 135.218 135.211 134.565 134.428 134.327 134.376 134.432 134.522 
133.765 133.6 133.504 133.603 133.747 133.818 133.939 132.97 132.659 
132.558 132.732 133.026 133.197 133.288 133.418 132.48 131.958 131.732 
131.844 132.154 132.457 132.681 132.856 133.005 132.561 131.782 131.967 
131.186 131.369 131.268 130.814 131.092 130.838 131.172 130.878 131.287 
130.695 130.833 131.331 131.102 131.382 130.796 130.7 130.923 131.595 
130.88 131.034 130.671 130.653 130.791 131.211 131.956 130.42 130.68 
130.111 130.203 130.639 131.095 131.658 132.305 130.278 130.576 129.765 
129.553 130.015 130.733 131.359 131.966 132.525 130.373 130.51 129.966 
129.485 129.497 130.096 130.832 131.508 132.14 132.68 133.489 133.015 
133.807 133.369 133.951 132.407 133.492 134.112 132.713 131.748 133.627 
134.5 132.801 132.03 131.496 133.981 134.941 132.982 132.187 131.74 
131.567 134.401 135.235 133.455 132.584 131.955 131.574 131.345 134.758 
135.461 133.989 133.222 132.49 131.759 131.207 130.928 135.091 135.704 
134.42 133.725 133.057 132.296 131.484 130.951 130.736 135.395 135.935 
134.781 134.073 133.385 132.746 132.045 131.373 130.924 130.673 140.888 
140.199 140.51 139.71 140.049 139.488 139.137 139.448 138.923 138.698 
138.498 138.754 138.345 138.167 137.771 137.895 138.142 137.752 137.647 
137.307 136.856 137.382 137.597 137.184 137.02 136.704 136.277 135.974 
136.821 136.992 136.631 136.401 136.004 135.514 135.22 135.063 136.211 
136.4 136.024 135.822 135.453 134.914 134.535 134.403 134.23 141.602 
141.286 141.899 141.545 142.129 140.92 141.682 142.502 141.117 140.434 
141.93 142.99 141.119 140.549 139.741 142.259 143.234 141.228 140.503 
139.829 138.973 142.382 143.117 141.435 140.584 139.874 139.105 138.309 
142.318 142.888 141.548 140.721 139.983 139.246 138.44 137.671 142.251 
142.719 141.609 140.819 140.052 139.367 138.605 137.767 137.014 142.194 