# vtk DataFile Version 4.0
vtk output
ASCII
DATASET POLYDATA
POINTS 1002 float
-77.4617 -109.458 56.6349 -77.6246 -109.347 57.5958 -78.2313 -109.635 56.9241 
-78.1341 -109.58 56.0977 -78.6944 -110.168 56.3507 -77.0901 -109.492 55.793 
-78.611 -109.814 55.657 -78.9376 -110.574 55.9517 -77.7973 -109.384 55.3739 
-76.6693 -109.289 55.0579 -78.9128 -109.922 55.2785 -79.4203 -110.506 55.5334 
-78.3409 -109.353 54.966 -77.3731 -109.072 54.6143 -76.385 -108.937 54.2558 
-79.4332 -109.796 54.7704 -80.2424 -110.172 54.934 -78.7599 -109.36 54.4927 
-77.9962 -108.947 54.1417 -77.0482 -108.738 53.7402 -76.0988 -108.676 53.3197 
-80.0229 -109.628 54.1275 -80.7387 -109.856 54.3349 -79.2443 -109.371 53.8313 
-78.4812 -108.973 53.5385 -77.6685 -108.585 53.2219 -76.699 -108.465 52.8043 
-75.6616 -108.451 52.3665 -80.3237 -109.414 53.526 -80.8929 -109.453 53.8047 
-79.6744 -109.307 53.1124 -78.9089 -109.041 52.7584 -78.0986 -108.568 52.5562 
-77.2305 -108.224 52.2906 -76.2084 -108.148 51.8841 -75.2342 -108.034 51.552 
-80.6487 -109.022 52.9404 -81.2905 -108.97 53.1965 -80.0204 -108.983 52.5486 
-79.3372 -108.849 52.1155 -78.4887 -108.51 51.8514 -77.5991 -108.058 51.6998 
-76.6766 -107.797 51.4344 -75.7215 -107.69 51.0993 -74.9334 -107.496 50.9049 
-81.1725 -108.567 52.3565 -81.8505 -108.547 52.5934 -80.422 -108.466 52.1137 
-79.7248 -108.315 51.7962 -78.9389 -108.125 51.4531 -78.0193 -107.828 51.1909 
-77.0966 -107.501 50.9787 -76.1898 -107.305 50.7138 -75.3608 -107.188 50.455 
-74.7043 -107.028 50.3169 -81.5776 -108.131 51.9216 -82.157 -108.136 52.1825 
-80.8095 -107.981 51.7484 -80.0324 -107.744 51.5815 -79.2874 -107.54 51.295 
-78.4704 -107.404 50.8939 -77.5824 -107.218 50.5406 -76.6906 -106.981 50.2849 
-75.8469 -106.821 50.0466 -75.1208 -106.736 49.8366 -74.5222 -106.649 49.7178 
-78.0136 -109.463 58.1094 -78.5772 -110.026 57.3498 -78.4535 -109.686 58.494 
-78.9429 -110.289 57.7083 -78.9674 -109.722 58.6955 -78.9135 -110.792 56.7504 
-79.379 -110.054 57.8476 -79.338 -109.537 58.8003 -79.2944 -110.972 57.0772 
-79.2887 -111.152 56.3071 -79.8484 -109.583 57.8875 -79.7231 -109.407 59.1063 
-79.9156 -110.522 57.1519 -80.0265 -111.247 56.5265 -80.2052 -110.936 55.7235 
-80.5283 -109.388 58.2356 -80.4474 -109.442 59.6777 -80.6325 -109.957 57.2237 
-80.881 -110.902 56.61 -81.1329 -111.123 55.8482 -81.0932 -110.515 55.0169 
-81.2634 -109.446 58.8585 -81.1812 -109.464 60.1979 -81.2981 -109.634 57.6142 
-81.4798 -110.34 56.8228 -81.7094 -110.878 56.0919 -81.6554 -110.6 55.2028 
-81.2942 -109.945 54.4535 -81.6791 -109.368 59.382 -81.5837 -109.28 60.5093 
-81.719 -109.353 58.1319 -81.8228 -109.618 57.1617 -81.962 -110.079 56.4293 
-81.897 -110.093 55.5726 -81.6519 -109.645 54.6809 -81.4468 -109.232 53.9194 
-81.9263 -109.017 59.6859 -81.828 -108.895 60.653 -82.0072 -108.947 58.5527 
-82.1147 -108.883 57.4886 -82.2473 -109.065 56.6446 -82.2107 -109.192 55.8524 
-82.012 -108.992 54.983 -81.9336 -108.754 54.1171 -81.9652 -108.661 53.3042 
-82.2294 -108.554 59.7836 -82.0452 -108.442 60.6142 -82.401 -108.531 58.8443 
-82.538 -108.387 57.8535 -82.6795 -108.365 56.8664 -82.7256 -108.467 55.9477 
-82.5551 -108.407 55.1388 -82.3868 -108.246 54.3695 -82.4065 -108.226 53.5593 
-82.402 -108.254 52.7843 -82.3869 -108.037 59.9166 -82.7563 -108.144 59.1429 
-82.8108 -107.605 59.1731 -83.3221 -107.78 58.5984 -83.242 -107.104 58.5932 
-83.0304 -108.134 58.3584 -83.7735 -107.245 58.133 -83.6334 -106.415 58.0942 
-83.6326 -107.836 57.9296 -83.1919 -108.067 57.3845 -84.0864 -106.392 57.3891 
-83.8224 -105.735 57.3573 -84.0865 -107.244 57.2327 -83.7953 -107.842 56.7269 
-83.2984 -108.11 56.179 -84.1249 -105.684 56.3032 -83.6691 -105.34 56.4022 
-84.3775 -106.34 56.1555 -84.2702 -107.221 55.7903 -83.8399 -107.826 55.3387 
-83.2116 -108.086 55.1403 -83.9397 -105.258 55.3618 -83.4402 -104.945 55.5856 
-84.3967 -105.651 55.1979 -84.5392 -106.35 54.9741 -84.2319 -107.117 54.6588 
-83.6031 -107.593 54.4672 -82.9302 -107.879 54.4287 -83.8471 -104.621 54.8 
-83.3387 -104.304 55.0517 -84.303 -105.022 54.6055 -84.5337 -105.623 54.4355 
-84.421 -106.306 54.1798 -83.911 -106.851 53.9531 -83.236 -107.306 53.8398 
-82.7486 -107.769 53.7127 -83.7388 -103.862 54.3904 -83.1407 -103.707 54.6608 
-84.2175 -104.189 54.0948 -84.39 -104.827 53.833 -84.3555 -105.617 53.5312 
-84.1231 -106.21 53.2381 -83.5523 -106.662 53.1121 -82.9656 -107.215 53.0506 
-82.6619 -107.798 52.9091 -83.3228 -103.418 53.943 -82.7194 -103.346 54.2636 
-83.8834 -103.571 53.5422 -84.0933 -104.04 53.1641 -84.0406 -104.866 52.8079 
-84.0137 -105.664 52.4553 -83.7774 -106.158 52.268 -83.1768 -106.591 52.2995 
-82.6645 -107.165 52.3249 -82.4227 -107.733 52.2422 -81.8897 -107.627 51.7483 
-82.1343 -107.119 51.7924 -81.5279 -106.985 51.3204 -82.532 -106.536 51.7747 
-81.8298 -106.428 51.3002 -81.2651 -106.418 50.669 -83.1612 -106.083 51.6838 
-82.287 -105.912 51.2666 -81.5468 -105.865 50.5974 -80.9511 -105.942 49.8947 
-83.5167 -105.667 51.7582 -82.7141 -105.498 51.355 -81.8476 -105.319 50.6399 
-81.1524 -105.33 49.8415 -80.3669 -105.32 49.4312 -83.4542 -104.965 52.0591 
-82.7289 -104.945 51.6722 -82.0133 -104.75 50.9011 -81.4056 -104.631 49.8624 
-80.6273 -104.608 49.4202 -79.6189 -104.502 49.228 -83.4651 -104.107 52.3755 
-82.6156 -104.223 51.9835 -81.9374 -104.134 51.3122 -81.544 -103.952 50.0619 
-80.9624 -103.858 49.3705 -79.9037 -103.781 49.2722 -78.9041 -103.704 48.8104 
-83.4506 -103.536 52.6878 -82.6563 -103.636 52.128 -81.8908 -103.577 51.602 
-81.4744 -103.368 50.4759 -81.082 -103.211 49.5123 -80.1589 -103.129 49.3087 
-79.0398 -103.059 48.9714 -78.3958 -103.047 48.1636 -83.0544 -103.299 53.0975 
-82.5272 -103.256 52.2926 -81.9114 -103.062 51.6951 -81.4325 -102.756 50.8613 
-81.0519 -102.565 49.895 -80.3234 -102.514 49.4706 -79.2379 -102.494 49.1688 
-78.4552 -102.462 48.4208 -78.2002 -102.469 47.5974 -82.5009 -103.136 53.5446 
-82.1951 -102.899 52.6383 -81.8622 -102.503 51.8243 -81.5031 -102.056 51.0833 
-81.12 -101.816 50.2592 -80.5563 -101.795 49.6744 -79.6377 -101.849 49.3276 
-78.7398 -101.889 48.7005 -78.3102 -101.888 47.8498 -78.1701 -101.896 47.2074 
-81.2586 -107.559 51.4874 -80.9256 -106.961 50.9447 -80.466 -107.355 51.2926 
-80.6585 -106.462 50.1349 -80.1251 -106.803 50.5854 -79.6302 -107.083 51.0551 
-80.1658 -105.901 49.4426 -79.7449 -106.309 49.6811 -79.1964 -106.581 50.173 
-78.8138 -106.925 50.6235 -79.4007 -105.131 49.0837 -79.1641 -105.678 49.0165 
-78.7357 -106.116 49.218 -78.3131 -106.489 49.6338 -77.9773 -106.864 50.0973 
-78.7276 -104.336 48.5645 -78.5981 -104.979 48.3967 -78.3135 -105.543 48.4474 
-77.8606 -106.008 48.7069 -77.4582 -106.374 49.1415 -77.0881 -106.679 49.7196 
-78.3275 -103.657 47.8009 -78.2613 -104.38 47.5414 -78.051 -105.001 47.5666 
-77.5657 -105.436 47.8857 -77.0032 -105.774 48.3172 -76.5762 -106.095 48.8529 
-76.2052 -106.442 49.4854 -78.1356 -103.023 47.2486 -78.0173 -103.772 46.9111 
-77.7909 -104.479 46.7351 -77.3398 -104.921 46.9946 -76.69 -105.2 47.5595 
-76.1335 -105.513 48.1119 -75.7557 -105.905 48.6743 -75.4217 -106.334 49.2835 
-78.004 -102.381 46.9681 -77.7183 -103.072 46.6992 -77.3688 -103.819 46.3591 
-76.9601 -104.371 46.3037 -76.3774 -104.726 46.7787 -75.7555 -105.07 47.4254 
-75.3333 -105.469 47.9685 -75.041 -105.891 48.5262 -74.7566 -106.303 49.1357 
-77.8652 -101.563 46.7743 -77.4219 -102.159 46.6 -77.0336 -101.314 46.3789 
-76.394 -102.031 46.1984 -75.9646 -101.277 46.1853 -76.8898 -102.923 46.3196 
-75.5129 -102.075 46.1776 -75.2331 -101.377 46.6293 -75.9227 -102.814 46.0247 
-76.4483 -103.624 46.0169 -75.0515 -102.158 46.8847 -74.73 -101.384 47.3914 
-75.2815 -102.828 46.3151 -75.5391 -103.471 45.9796 -75.9508 -104.161 46.1559 
-74.4735 -102.092 47.5935 -73.9928 -101.27 47.7749 -74.7325 -102.829 47.0765 
-74.7438 -103.441 46.394 -74.8681 -104.086 46.2379 -75.2871 -104.665 46.7378 
-73.5952 -101.929 47.9265 -73.1761 -101.207 48.1053 -73.9487 -102.67 47.6726 
-73.9828 -103.346 47.0181 -73.9004 -104.039 46.5085 -74.1874 -104.703 46.7229 
-74.7822 -105.157 47.3497 -72.8002 -101.83 48.444 -72.5874 -101.263 48.84 
-73.1226 -102.451 48.2148 -73.346 -103.131 47.798 -73.336 -103.875 47.2105 
-73.4336 -104.606 47.0349 -73.9134 -105.188 47.3994 -74.5302 -105.581 47.953 
-72.2112 -101.848 49.2022 -72.1433 -101.386 49.6593 -72.3822 -102.334 48.8626 
-72.669 -102.956 48.5957 -72.9196 -103.728 48.2439 -73.0707 -104.471 47.9432 
-73.3272 -105.083 47.9338 -73.7858 -105.583 48.1981 -74.299 -105.98 48.6268 
-71.737 -101.936 49.868 -71.7049 -101.513 50.2527 -71.7477 -102.342 49.435 
-71.8506 -102.886 49.0968 -72.1485 -103.655 48.9183 -72.533 -104.426 48.8248 
-72.8424 -105.025 48.7451 -73.145 -105.535 48.7415 -73.5672 -105.993 48.929 
-74.0597 -106.355 49.2958 -78.2213 -101.274 47.2255 -77.7652 -100.884 46.7904 
-78.201 -100.636 47.448 -77.5221 -100.363 47.1958 -78.0329 -100.132 47.9414 
-76.8152 -100.671 46.524 -77.2071 -100.107 47.9419 -77.8025 -99.8268 48.579 
-76.5777 -100.303 47.2296 -75.7962 -100.691 46.685 -76.9849 -99.8298 48.6604 
-77.6909 -99.4953 49.3029 -76.3603 -100.079 48.127 -75.6869 -100.292 47.6107 
-75.0558 -100.727 47.3162 -76.9093 -99.2665 49.3579 -77.6527 -99.1151 50.1513 
-76.1574 -99.5415 48.7719 -75.4804 -99.7986 48.3701 -74.7951 -100.122 48.005 
-74.2902 -100.618 47.7812 -76.851 -98.8745 50.2515 -77.4662 -99.0224 51.0202 
-76.0216 -98.9246 49.4669 -75.2024 -99.1144 48.9049 -74.4318 -99.4663 48.5146 
-73.7952 -99.9471 48.2045 -73.4228 -100.536 48.051 -76.676 -98.9661 51.2416 
-77.1165 -99.2055 51.829 -75.9509 -98.8681 50.4783 -75.0565 -98.8479 49.7346 
-74.213 -99.0056 49.1978 -73.512 -99.4483 48.8791 -73.0611 -100.012 48.7391 
-72.8086 -100.626 48.7333 -76.4206 -99.1254 52.1867 -76.7794 -99.3505 52.6149 
-75.8452 -99.0698 51.5943 -74.9803 -99.0484 50.8846 -74.1279 -98.9947 50.2603 
-73.49 -99.2146 49.8534 -73.0311 -99.7225 49.6787 -72.6975 -100.254 49.6414 
-72.4131 -100.808 49.6391 -76.2012 -99.1113 53.0463 -76.5527 -99.397 53.3569 
-75.7237 -99.0245 52.6176 -74.8981 -99.0827 52.034 -73.9796 -99.0446 51.4401 
[...]
CELL_DATA 2000
SCALARS Distance double
LOOKUP_TABLE default
144.909 145.225 144.864 144.479 145.549 145.175 144.693 144.358 143.892 
145.694 145.391 144.853 144.53 143.99 143.687 143.182 145.699 145.439 
144.902 144.619 144.067 143.76 143.22 142.944 142.456 145.612 145.413 
144.895 144.644 144.112 143.818 143.269 142.977 142.457 142.211 141.722 
145.34 145.264 144.782 144.612 144.094 143.845 143.279 142.996 142.429 
142.181 141.644 141.431 140.907 144.973 144.945 144.514 144.427 143.934 
143.77 143.201 142.958 142.344 142.097 141.51 141.304 140.754 140.57 
140.059 144.691 144.628 144.211 144.124 143.639 143.535 142.99 142.819 
142.21 141.979 141.366 141.144 140.58 140.395 139.887 139.733 139.289 
144.44 144.383 143.946 143.838 143.327 143.215 142.676 142.554 141.987 
141.814 141.228 141.012 140.448 140.239 139.729 139.562 139.121 139.001 
138.626 145.201 145.766 145.508 145.577 146.256 146.085 146.216 145.966 
145.988 146.455 146.427 146.586 146.545 146.643 146.335 146.2 146.54 
146.472 146.605 146.746 146.99 146.927 146.91 146.49 146.244 146.953 
146.643 146.697 146.726 147.076 147.199 147.403 147.177 146.999 146.485 
146.14 147.607 147.209 147.139 146.937 147.163 147.273 147.554 147.562 
147.452 147.114 146.677 146.216 145.765 148.013 147.774 147.571 147.335 
147.259 147.289 147.369 147.524 147.382 147.301 146.809 146.522 145.985 
145.689 145.292 148.053 147.971 147.706 147.545 147.258 147.208 147.043 
147.173 146.973 147.027 146.586 146.448 145.943 145.766 145.411 145.233 
144.977 147.904 147.897 147.671 147.563 147.28 147.136 146.899 146.856 
146.67 146.657 146.362 146.238 145.852 145.695 145.404 145.297 145.099 
144.957 144.728 147.699 147.356 147.56 147.54 147.059 147.292 147.354 
147.397 147.246 146.677 147.015 147.178 147.284 147.17 147.09 146.887 
146.052 146.507 146.681 147.014 146.981 147.032 146.81 146.746 146.573 
145.276 145.736 145.833 146.322 146.352 146.678 146.532 146.613 146.363 
146.386 146.189 144.526 144.927 144.988 145.434 145.506 145.936 145.908 
146.179 145.977 146.08 145.808 145.893 145.681 143.798 144.183 144.244 
144.648 144.735 145.147 145.183 145.514 145.389 145.581 145.337 145.46 
145.249 145.385 145.265 143.07 143.444 143.466 143.881 143.915 144.364 
144.385 144.791 144.707 144.973 144.762 144.933 144.732 144.924 144.822 
145.027 144.969 142.377 142.714 142.685 143.063 143.022 143.459 143.429 
143.906 143.867 144.262 144.128 144.362 144.16 144.358 144.217 144.49 
144.417 144.691 144.592 144.217 144.016 143.914 143.45 143.814 143.685 
143.222 143.089 142.617 143.771 143.566 143.106 142.891 142.398 142.258 
141.805 143.701 143.546 143.071 142.836 142.273 142.05 141.522 141.417 
140.922 143.356 143.322 142.805 142.708 142.092 141.891 141.251 141.104 
140.552 140.474 139.906 142.897 142.862 142.33 142.306 141.721 141.604 
140.941 140.788 140.187 140.098 139.532 139.419 138.796 142.542 142.446 
141.943 141.861 141.334 141.218 140.608 140.448 139.843 139.735 139.178 
139.064 138.453 138.299 137.701 142.255 142.153 141.659 141.545 141.01 
140.881 140.277 140.12 139.506 139.389 138.839 138.737 138.166 137.997 
137.403 137.262 136.797 141.975 141.883 141.377 141.256 140.676 140.545 
139.908 139.77 139.14 139.034 138.488 138.411 137.896 137.754 137.206 
137.025 136.544 136.456 136.121 144.118 143.358 143.723 143.608 142.536 
142.915 142.804 143.132 142.96 141.731 142.103 141.974 142.297 142.098 
142.434 142.262 140.83 141.251 141.09 141.441 141.201 141.535 141.327 
141.717 141.564 139.765 140.241 140.055 140.483 140.243 140.61 140.383 
140.765 140.602 141.01 140.848 138.629 139.11 138.94 139.409 139.235 
139.64 139.444 139.82 139.64 140.039 139.872 140.273 140.089 137.579 
138.009 137.909 138.359 138.284 138.69 138.553 138.902 138.703 139.065 
138.867 139.275 139.104 139.517 139.367 136.74 137.083 137.049 137.445 
137.429 137.818 137.72 138.049 137.846 138.15 137.932 138.287 138.133 
138.542 138.444 138.855 138.775 136.083 136.362 136.318 136.662 136.616 
136.987 136.871 137.215 137.019 137.32 137.114 137.422 137.289 137.645 
137.591 137.98 137.955 138.34 138.31 135.7 135.037 135.554 135.894 
134.266 134.809 135.178 135.745 136.124 133.816 134.148 134.508 134.995 
135.386 135.947 136.324 133.769 133.948 134.286 134.515 134.85 135.234 
135.595 136.123 136.474 133.606 133.92 134.248 134.435 134.646 134.832 
135.067 135.445 135.787 136.288 136.627 133.198 133.598 133.931 134.266 
134.427 134.62 134.71 134.971 135.228 135.666 136.05 136.51 136.864 
132.96 133.202 133.519 133.849 134.092 134.335 134.476 134.658 134.882 
135.192 135.59 136.011 136.438 136.832 137.203 132.998 133.081 133.317 
133.515 133.795 134.043 134.334 134.525 134.834 135.009 135.401 135.672 
136.12 136.466 136.88 137.223 137.586 133.097 133.142 133.286 133.379 
133.565 133.783 134.084 134.387 134.765 135.021 135.398 135.603 135.982 
136.229 136.621 136.928 137.303 137.619 137.959 135.496 135.032 135.12 
134.806 134.669 134.67 134.307 134.356 134.043 134.491 134.406 134.088 
133.988 133.683 133.689 133.58 134.407 134.302 134.037 133.907 133.626 
133.502 133.332 133.403 133.461 134.327 134.193 133.849 133.797 133.471 
133.429 133.132 133.158 132.999 133.23 133.224 134.383 134.131 133.691 
133.542 133.127 133.108 132.735 132.8 132.503 132.676 132.532 132.849 
132.831 134.626 134.297 133.905 133.55 133.141 132.867 132.515 132.402 
132.167 132.203 132.114 132.269 132.323 132.567 132.693 134.89 134.601 
134.299 133.931 133.588 133.152 132.816 132.452 132.267 132.095 132.115 
132.098 132.244 132.314 132.506 132.641 132.826 135.093 134.851 134.574 
134.31 133.996 133.641 133.269 132.879 132.608 132.36 132.343 132.271 
132.415 132.405 132.554 132.585 132.716 132.822 132.949 141.671 140.949 
141.227 141.026 140.15 140.432 140.163 140.479 140.25 139.396 139.638 
139.345 139.589 139.294 139.64 139.429 138.683 138.922 138.67 138.852 
138.543 138.742 138.486 138.828 138.677 137.92 138.189 137.957 138.199 
137.914 138.076 137.77 137.98 137.788 138.143 138.06 137.153 137.393 
137.126 137.421 137.136 137.387 137.038 137.258 136.967 137.286 137.14 
137.559 137.472 136.489 136.652 136.351 136.585 136.292 136.549 136.2 
136.439 136.091 136.399 136.178 136.601 136.478 136.931 136.807 135.925 
136.038 135.724 135.874 135.576 135.761 135.453 135.636 135.324 135.541 
135.312 135.642 135.526 135.94 135.864 136.277 136.195 135.43 135.519 
135.221 135.312 135.006 135.121 134.826 134.975 134.727 134.893 134.707 
134.909 134.798 135.086 135.041 135.405 135.395 135.772 135.785 141.888 
141.964 141.702 141.206 141.992 141.738 141.236 140.966 140.427 142.062 
141.759 141.224 140.955 140.425 140.167 139.648 142.208 141.87 141.318 
140.975 140.444 140.162 139.666 139.41 138.919 142.282 142.012 141.482 
141.126 140.588 140.248 139.758 139.457 138.968 138.687 138.181 142.229 
142.024 141.529 141.258 140.728 140.413 139.889 139.573 139.056 138.752 
138.231 137.943 137.441 142.217 141.98 141.513 141.269 140.775 140.506 
139.974 139.672 139.118 138.818 138.29 138.008 137.518 137.24 136.789 
142.297 142.031 141.585 141.303 140.839 140.555 140.057 139.745 139.206 
138.881 138.366 138.075 137.618 137.343 136.905 136.629 136.215 142.355 
142.126 141.695 141.419 140.957 140.66 140.173 139.855 139.344 139.007 
138.509 138.193 137.747 137.462 137.035 136.753 136.325 136.063 135.684 
142.214 141.744 141.855 141.564 141.197 141.336 141.033 141.151 140.819 
140.591 140.743 140.402 140.553 140.201 140.35 140.002 139.92 140.085 
139.703 139.868 139.48 139.661 139.302 139.494 139.154 139.175 139.352 
138.942 139.129 138.721 138.907 138.529 138.743 138.418 138.637 138.328 
138.414 138.567 138.135 138.335 137.934 138.135 137.74 137.949 137.605 
137.86 137.577 137.826 137.56 137.725 137.821 137.361 137.522 137.108 
137.321 136.93 137.149 136.788 137.035 136.745 137.032 136.786 137.065 
136.824 137.149 137.192 136.716 136.789 136.327 136.485 136.092 136.324 
136.015 136.26 136.009 136.247 136.019 136.272 136.047 136.321 136.104 
136.671 136.685 136.24 136.228 135.749 135.776 135.366 135.523 135.278 
135.537 135.389 135.615 135.438 135.604 135.391 135.581 135.389 135.637 
135.478 136.304 135.677 135.958 135.88 135.078 135.348 135.233 135.483 
135.365 134.433 134.762 134.689 134.889 134.747 134.972 134.947 133.69 
134.115 134.185 134.428 134.362 134.481 134.462 134.703 134.876 132.968 
133.398 133.594 133.955 133.987 134.15 134.111 134.305 134.445 134.776 
135.029 132.51 132.78 132.992 133.376 133.449 133.698 133.577 133.826 
133.831 134.256 134.447 134.89 135.072 132.455 132.485 132.633 132.869 
132.968 133.163 133.025 133.19 133.088 133.481 133.635 134.177 134.394 
134.847 135 132.676 132.551 132.596 132.648 132.732 132.815 132.74 
132.754 132.653 132.822 132.984 133.404 133.733 134.18 134.438 134.805 
135.003 132.908 132.766 132.701 132.656 132.639 132.664 132.588 132.581 
132.48 132.538 132.649 132.926 133.275 133.661 134.009 134.339 134.589 
134.887 135.114 136.415 136.359 136.172 135.779 136.349 136.113 135.689 
135.543 135.171 136.442 136.131 135.679 135.473 135.054 134.898 134.476 
136.696 136.289 135.837 135.538 135.102 134.825 134.306 134.113 133.644 
137.118 136.64 136.194 135.797 135.378 134.983 134.436 134.036 133.459 
133.26 132.876 137.561 137.114 136.687 136.244 135.823 135.354 134.817 
134.294 133.705 133.27 132.847 132.653 132.475 137.889 137.525 137.128 
136.737 136.313 135.842 135.298 134.742 134.174 133.659 133.276 132.899 
132.748 132.519 132.524 138.161 137.821 137.431 137.102 136.691 136.292 
135.78 135.256 134.714 134.188 133.833 133.435 133.315 133.005 133.004 
132.752 132.809 138.47 138.112 137.711 137.37 136.963 136.614 136.18 
135.744 135.291 134.784 134.426 134.001 133.83 133.541 133.488 133.261 
133.245 133.045 133.054 136.867 137.684 137.124 136.86 138.687 138.055 
137.807 137.171 136.906 139.791 139.142 138.947 138.244 137.982 137.28 
137.033 140.926 140.288 140.131 139.44 139.214 138.46 138.202 137.478 
137.293 141.948 141.402 141.265 140.632 140.438 139.711 139.471 138.716 
138.507 137.808 137.689 142.725 142.328 142.264 141.748 141.63 140.953 
140.735 139.98 139.749 139.032 138.844 138.2 138.076 143.388 143.06 
143.114 142.716 142.737 142.167 142.028 141.273 141.018 140.25 140.007 
139.319 139.11 138.511 138.36 144.118 143.786 143.906 143.563 143.662 
143.233 143.193 142.557 142.326 141.542 141.254 140.488 140.239 139.549 
139.347 138.757 138.625 144.87 144.555 144.656 144.338 144.4 144.067 
144.042 143.596 143.415 142.781 142.49 141.748 141.464 140.722 140.484 
139.798 139.619 139.035 138.93 145.301 145.78 145.387 145.056 146.135 
145.779 145.405 145.076 144.738 146.408 146.063 145.634 145.333 144.957 
144.691 144.329 146.586 146.278 145.814 145.515 145.089 144.832 144.429 
144.191 143.723 146.586 146.371 145.872 145.623 145.133 144.898 144.426 
144.214 143.722 143.469 142.87 146.333 146.261 145.741 145.567 145.006 
144.821 144.281 144.121 143.603 143.417 142.846 142.553 141.89 145.838 
145.905 145.441 145.349 144.777 144.608 144.047 143.905 143.401 143.26 
142.734 142.508 141.89 141.565 140.902 145.291 145.389 145.027 145.012 
144.515 144.372 143.846 143.69 143.232 143.085 142.613 142.403 141.834 
141.548 140.922 140.601 140.003 144.918 144.933 144.631 144.628 144.22 
144.122 143.65 143.517 143.088 142.959 142.522 142.323 141.783 141.504 
140.912 140.615 140.056 139.765 139.275 144.711 144.249 144.436 144.342 
143.655 143.891 143.738 144.002 143.884 142.952 143.219 143.035 143.317 
143.158 143.461 143.325 142.232 142.491 142.29 142.567 142.387 142.695 
142.568 142.895 142.791 141.49 141.756 141.529 141.805 141.593 141.897 
141.734 142.096 141.979 142.348 142.209 140.672 140.964 140.708 141.008 
140.767 141.076 140.855 141.207 141.021 141.431 141.243 141.652 141.425 
139.846 140.122 139.867 140.161 139.923 140.23 139.996 140.312 140.081 
140.437 140.217 140.613 140.387 140.791 140.556 139.108 139.339 139.104 
139.355 139.132 139.405 139.18 139.464 139.226 139.526 139.297 139.631 
139.426 139.786 139.589 139.955 139.752 138.469 138.663 138.439 138.649 
138.424 138.656 138.419 138.67 138.419 138.691 138.449 138.754 138.544 
138.881 138.699 139.047 138.869 139.208 139.022 138.532 138.36 138.209 
137.746 138.17 138.009 137.5 137.387 136.947 138.01 137.819 137.302 
137.145 136.683 136.597 136.18 137.914 137.686 137.181 136.989 136.552 
136.403 135.995 135.858 135.405 137.886 137.623 137.101 136.887 136.437 
136.293 135.876 135.727 135.265 135.079 134.607 137.917 137.634 137.104 
136.834 136.339 136.156 135.687 135.551 135.046 134.908 134.431 134.315 
133.964 137.967 137.697 137.21 136.899 136.429 136.139 135.689 135.42 
134.924 134.685 134.214 134.097 133.79 133.772 133.585 138.013 137.766 
137.324 137.038 136.617 136.319 135.947 135.606 135.202 134.789 134.357 
134.021 133.73 133.615 133.492 133.48 133.367 138.061 137.828 137.411 
137.153 136.739 136.49 136.126 135.881 135.533 135.194 134.803 134.38 
134.038 133.724 133.551 133.433 133.354 133.299 133.186 148.053 148.194 
148.187 148.267 148.123 148.222 148.219 148.272 148.26 147.734 148.011 
147.981 148.089 147.983 148.101 148.005 147.151 147.533 147.641 147.811 
147.73 147.793 147.7 147.793 147.686 146.746 147.047 147.36 147.572 
147.699 147.688 147.682 147.631 147.611 147.572 147.472 146.553 146.776 
147.14 147.423 147.751 147.815 147.936 147.814 147.825 147.672 147.593 
147.432 147.236 146.236 146.505 146.751 147.163 147.508 147.814 147.98 
148.039 148.002 147.911 147.748 147.584 147.311 147.124 146.781 145.718 
146.017 146.147 146.611 146.879 147.364 147.509 147.82 147.726 147.849 
147.594 147.585 147.236 147.127 146.733 146.573 146.168 145.19 145.449 
145.536 145.935 146.139 146.618 146.746 147.151 147.064 147.327 147.065 
147.208 146.859 146.897 146.518 146.463 146.081 145.946 145.559 147.922 
148.207 147.996 147.739 148.31 148.261 148.08 147.768 147.378 148.104 
148.25 148.151 148.029 147.647 147.308 146.831 147.711 147.918 147.84 
147.927 147.61 147.452 146.964 146.682 146.218 147.373 147.498 147.371 
147.506 147.255 147.272 146.876 146.726 146.266 146.04 145.602 147.059 
147.156 146.97 147.059 146.798 146.858 146.517 146.518 146.109 146.007 
145.552 145.374 144.926 146.566 146.733 146.49 146.631 146.318 146.395 
146.003 146.065 145.652 145.695 145.253 145.213 144.748 144.639 144.206 
145.918 146.109 145.798 146.013 145.657 145.822 145.392 145.495 145.062 
145.156 144.751 144.805 144.383 144.366 143.944 143.892 143.509 145.287 
145.424 145.063 145.246 144.878 145.073 144.679 144.833 144.443 144.567 
144.222 144.311 143.963 143.981 143.6 143.58 143.214 143.195 142.864 
147.695 147.414 147.444 147.244 146.999 147.064 146.783 146.934 146.812 
146.516 146.612 146.325 146.431 146.246 146.477 146.386 145.988 146.137 
145.92 146.011 145.8 145.929 145.788 146.014 145.849 145.379 145.587 
145.385 145.57 145.344 145.483 145.262 145.438 145.248 145.434 145.175 
144.706 144.931 144.685 144.932 144.679 144.907 144.632 144.848 144.603 
144.827 144.581 144.744 144.443 144.032 144.245 143.988 144.202 143.951 
144.181 143.934 144.157 143.916 144.146 143.909 144.121 143.846 144.006 
143.704 143.379 143.588 143.347 143.533 143.295 143.499 143.302 143.507 
143.31 143.495 143.269 143.453 143.199 143.381 143.105 143.268 142.989 
142.758 142.959 142.727 142.906 142.661 142.864 142.669 142.904 142.722 
142.923 142.68 142.84 142.56 142.735 142.47 142.658 142.406 142.573 
142.317 137.039 137.566 137.471 137.858 138.174 138.058 138.476 138.372 
138.829 138.866 138.723 139.159 139.028 139.487 139.391 139.898 139.591 
139.435 139.849 139.717 140.165 140.065 140.58 140.508 141.038 140.284 
140.131 140.484 140.358 140.756 140.695 141.201 141.184 141.721 141.646 
142.08 140.93 140.788 141.123 140.972 141.328 141.238 141.698 141.721 
142.238 142.254 142.65 142.55 142.816 141.524 141.409 141.779 141.636 
142.018 141.862 142.273 142.198 142.645 142.662 143.034 143.006 143.246 
143.155 143.393 142.055 141.974 142.357 142.277 142.69 142.575 142.966 
142.82 143.181 143.08 143.418 143.355 143.635 143.554 143.819 143.749 
144.076 142.519 142.471 142.835 142.801 143.201 143.169 143.551 143.463 
143.786 143.65 143.961 143.83 144.158 144.025 144.351 144.226 144.569 
144.488 144.845 
POINT_DATA 1002
SCALARS Distance double
LOOKUP_TABLE default
144.565 144.944 145.221 144.808 145.647 144.067 145.071 145.93 144.203 
143.409 145.171 145.981 144.316 143.452 142.687 145.167 145.951 144.37 
143.515 142.697 141.985 145.123 145.764 144.395 143.572 142.722 141.954 
141.228 144.906 145.352 144.318 143.569 142.697 141.869 141.112 140.384 
144.578 144.989 144.059 143.426 142.609 141.728 140.934 140.217 139.577 
144.318 144.768 143.737 143.123 142.423 141.599 140.772 140.036 139.408 
138.884 144.064 144.488 143.459 142.788 142.118 141.421 140.666 139.908 
139.244 138.712 138.282 145.441 145.865 145.995 146.397 146.377 146.387 
146.511 146.48 146.853 146.689 146.429 146.713 146.879 147.242 146.801 
146.79 147.36 146.874 147.478 147.493 146.705 147.481 147.985 147.15 
147.468 147.717 147.147 146.181 147.859 148.196 147.376 147.252 147.39 
147.041 146.239 145.536 147.859 148.106 147.402 146.998 146.88 146.652 
146.067 145.525 145.175 147.727 147.88 147.43 147.011 146.691 146.441 
145.996 145.496 145.194 144.93 147.491 147.464 147.115 147.3 146.762 
147.3 146.983 146.288 147.253 146.961 146.253 145.615 146.809 146.884 
146.589 145.343 144.871 145.906 146.345 146.371 146.131 144.569 144.14 
145.055 145.559 145.823 145.74 145.554 143.842 143.415 144.323 144.828 
145.163 145.183 145.088 145.106 143.077 142.72 143.48 143.944 144.385 
144.575 144.53 144.578 144.785 142.346 142.065 142.633 142.954 143.391 
143.828 143.984 143.968 144.107 144.36 143.803 143.58 142.968 143.369 
142.719 142.166 143.364 142.587 141.891 141.361 143.291 142.559 141.674 
141.002 140.403 142.85 142.275 141.443 140.637 140.019 139.298 142.347 
141.795 141.095 140.287 139.638 138.94 138.152 142.039 141.444 140.765 
139.965 139.28 138.616 137.806 137.147 141.788 141.153 140.435 139.632 
138.924 138.315 137.57 136.835 136.408 141.516 140.829 140.048 139.243 
138.546 137.994 137.38 136.671 136.126 135.829 143.303 142.476 142.636 
141.667 141.78 141.88 140.727 140.878 140.948 141.153 139.594 139.846 
140.006 140.197 140.458 138.438 138.788 139.07 139.259 139.464 139.695 
137.439 137.854 138.212 138.379 138.472 138.667 138.95 136.665 137.044 
137.39 137.559 137.602 137.723 138.011 138.371 136.014 136.277 136.527 
136.697 136.802 136.942 137.202 137.56 137.936 135.258 135.391 134.462 
134.576 133.763 135.568 134.108 133.58 134.843 135.748 134.157 133.571 
134.596 135.113 135.925 134.035 133.213 134.555 134.791 135.298 136.14 
133.547 132.835 134.212 134.516 134.825 135.563 136.45 133.224 132.823 
133.788 134.279 134.636 135.188 136.02 136.846 133.196 132.978 133.533 
134.064 134.663 135.206 135.81 136.533 137.263 133.254 133.06 133.408 
133.754 134.436 135.198 135.793 136.345 136.988 137.659 135.402 134.7 
134.995 134.315 134.699 133.907 134.208 134.569 133.744 133.401 134.133 
134.522 133.771 133.366 133.233 133.927 134.533 133.49 133.153 132.879 
132.889 133.936 134.682 133.211 132.683 132.37 132.263 132.445 134.275 
134.923 133.505 132.709 132.155 131.979 132.102 132.424 134.608 135.14 
134.016 133.246 132.496 132.154 132.215 132.418 132.68 134.807 135.335 
134.309 133.665 132.899 132.433 132.447 132.585 132.659 132.81 141.433 
140.734 140.68 139.882 139.89 139.875 139.144 139.156 139.012 138.998 
138.469 138.428 138.401 138.217 138.244 137.674 137.66 137.73 137.614 
137.481 137.64 136.847 136.953 136.86 136.821 136.682 136.738 137.044 
136.158 136.357 136.05 135.967 135.815 135.777 136.02 136.371 135.6 
135.818 135.415 135.266 135.127 135.032 135.129 135.431 135.79 142.167 
141.506 142.219 141.49 142.268 140.712 141.519 142.4 140.665 139.9 
141.694 142.532 140.743 139.924 139.176 141.81 142.506 140.943 140.078 
139.273 138.457 141.757 142.427 141.022 140.22 139.371 138.526 137.711 
141.756 142.468 141.028 140.276 139.426 138.558 137.787 137.058 141.872 
142.553 141.128 140.364 139.533 138.659 137.882 137.185 136.473 141.956 