# vtk DataFile Version 4.0
vtk output
ASCII
DATASET POLYDATA
POINTS 1002 float
-80.8812 -105.624 58.89 -80.8757 -105.83 59.4454 -81.4733 -105.744 59.1819 
-81.5311 -105.416 58.6552 -82.2579 -105.75 58.9201 -80.8802 -105.176 58.4124 
-82.3094 -105.342 58.3905 -83.0209 -105.703 58.7343 -81.5309 -105.016 58.1137 
-80.8528 -104.971 57.7052 -82.9499 -105.238 58.1244 -83.5667 -105.392 58.5278 
-82.2506 -104.978 57.7563 -81.4982 -104.968 57.2908 -80.8417 -105.097 56.638 
-83.4751 -104.998 57.7169 -84.1643 -105.083 58.0804 -82.8269 -104.915 57.3161 
-82.1922 -104.928 56.8457 -81.5079 -105.043 56.2345 -80.8974 -104.931 55.6743 
-84.2784 -104.948 57.0868 -84.9204 -105.042 57.4555 -83.4972 -104.885 56.696 
-82.7936 -104.936 56.2163 -82.1283 -104.959 55.7097 -81.5064 -104.791 55.3416 
-80.9371 -104.356 55.2009 -85.1181 -105.053 56.4333 -85.4038 -104.847 56.938 
-84.4535 -105.032 56.0205 -83.5542 -105.079 55.5116 -82.6792 -105.103 54.9591 
-81.9576 -104.865 54.7178 -81.4015 -104.396 54.7933 -80.8469 -103.879 54.9076 
-85.4898 -104.795 55.9529 -85.5446 -104.253 56.6082 -85.1637 -105.045 55.4741 
-84.3941 -105.112 55.0605 -83.394 -105.168 54.4845 -82.4871 -104.994 54.1263 
-81.8078 -104.541 54.2183 -81.2685 -104.033 54.387 -80.7012 -103.624 54.3838 
-85.6072 -104.197 55.674 -85.7338 -103.667 56.3542 -85.3925 -104.641 55.1245 
-84.8634 -104.782 54.8429 -84.0656 -104.801 54.4776 -83.2287 -104.718 54.0378 
-82.4633 -104.384 53.9286 -81.7974 -103.983 53.9747 -81.2148 -103.693 53.8518 
-80.6524 -103.491 53.6276 -85.8616 -103.679 55.5309 -86.1296 -103.377 56.091 
-85.5291 -104.042 54.9955 -85.0183 -104.19 54.7396 -84.4049 -104.165 54.5692 
-83.8378 -104.133 54.1946 -83.237 -103.969 53.8798 -82.5117 -103.689 53.7483 
-81.8077 -103.539 53.4997 -81.2329 -103.513 53.126 -80.724 -103.479 52.8403 
-81.2254 -105.748 59.9865 -81.9229 -105.833 59.6366 -81.6629 -105.705 60.5954 
-82.3701 -105.759 60.164 -82.1287 -105.695 61.1876 -82.752 -105.922 59.3427 
-82.5988 -105.415 60.6874 -82.4103 -105.481 61.7404 -83.0118 -105.675 59.8058 
-83.4454 -105.75 59.1715 -82.6316 -104.992 61.2162 -82.5582 -105.181 62.255 
-83.0026 -105.151 60.2666 -83.6268 -105.433 59.5817 -84.0421 -105.356 58.9222 
-82.9716 -104.911 61.7546 -82.9607 -105.106 62.72 -83.2598 -104.899 60.8043 
-83.8982 -105.146 60.0446 -84.4707 -105.239 59.2966 -84.7626 -105.123 58.4105 
-83.676 -104.976 62.1976 -83.5884 -105.022 63.0919 -83.9725 -104.945 61.3075 
-84.5551 -105.089 60.6166 -85.0112 -105.125 59.8094 -85.2072 -104.964 58.8094 
-85.311 -104.854 57.8444 -84.1645 -104.692 62.4558 -84.0273 -104.647 63.279 
-84.4285 -104.704 61.5703 -84.9848 -104.836 60.9885 -85.3985 -104.842 60.3367 
-85.4686 -104.554 59.2965 -85.4655 -104.283 58.2715 -85.4971 -104.207 57.4452 
-84.307 -104.167 62.56 -84.1979 -104.14 63.2695 -84.4242 -104.13 61.6865 
-84.8591 -104.218 61.0759 -85.3557 -104.295 60.5897 -85.55 -104.084 59.7178 
-85.6051 -103.766 58.646 -85.6663 -103.601 57.8244 -85.6956 -103.578 57.1307 
-84.4112 -103.699 62.5831 -84.2967 -103.665 63.167 -84.4548 -103.631 61.8169 
-84.773 -103.632 61.1651 -85.3338 -103.728 60.6884 -85.7307 -103.698 60.0257 
-85.9215 -103.54 59.056 -86.0779 -103.437 58.1358 -86.1447 -103.373 57.4288 
-86.1299 -103.33 56.7691 -84.5559 -103.238 62.734 -84.6564 -103.268 62.0856 
-84.8135 -102.771 62.1946 -85.0912 -102.856 61.5803 -85.033 -102.265 61.5516 
-84.9294 -103.249 61.4278 -85.6405 -102.327 61.0937 -85.4665 -101.647 61.0481 
-85.7763 -102.92 61.0832 -85.5774 -103.31 60.8891 -86.3433 -101.603 60.8283 
-86.281 -100.977 60.8624 -86.5061 -102.418 60.737 -86.5787 -103.034 60.5708 
-86.1937 -103.388 60.3104 -87.0003 -100.955 60.5878 -86.7609 -100.571 60.506 
-86.8975 -101.762 60.361 -86.9506 -102.602 60.1071 -86.9344 -103.116 59.8842 
-86.4737 -103.384 59.4926 -87.0079 -100.66 59.8141 -86.4202 -100.509 59.6113 
-87.0913 -101.234 59.6375 -86.942 -102.062 59.3419 -87.0494 -102.689 59.2738 
-87.0777 -103.152 59.0464 -86.6599 -103.412 58.529 -86.5534 -100.536 58.7501 
-85.9809 -100.443 58.6612 -87.0401 -100.87 58.6267 -87.1869 -101.551 58.3584 
-87.2447 -102.135 58.3717 -87.3977 -102.637 58.4192 -87.3047 -103.208 58.0478 
-86.7867 -103.434 57.6116 -86.3707 -100.289 58.0293 -85.9607 -100.159 58.0751 
-86.9031 -100.49 57.9112 -87.3747 -101.035 57.6873 -87.6456 -101.642 57.6168 
-87.7685 -102.054 57.6585 -87.7254 -102.627 57.3991 -87.374 -103.208 56.9862 
-86.7515 -103.348 56.812 -86.4553 -99.9121 57.6474 -86.0233 -99.7786 57.7056 
-86.9018 -100.045 57.573 -87.3024 -100.471 57.4296 -87.6141 -101.165 57.3009 
-87.8214 -101.692 57.1777 -87.8721 -102.104 56.8312 -87.6885 -102.686 56.3549 
-87.2528 -103.139 56.129 -86.6679 -103.263 56.1386 -86.4047 -103.31 55.5505 
-86.9504 -103.119 55.5576 -86.5033 -103.075 55.1412 -87.3996 -102.788 55.5564 
-86.9684 -102.754 55.1305 -86.2632 -102.575 54.8013 -87.6099 -102.258 55.875 
-87.2343 -102.269 55.2001 -86.6229 -102.138 54.801 -85.8604 -102.03 54.3586 
-87.5522 -101.795 56.442 -87.2339 -101.745 55.5409 -86.8379 -101.543 54.9188 
-86.1598 -101.517 54.4115 -85.6257 -101.701 53.7904 -87.3778 -101.281 56.836 
-87.0697 -101.251 55.9216 -86.9281 -100.96 55.0564 -86.4722 -100.837 54.5098 
-85.8483 -101.092 53.904 -85.5244 -101.358 53.2018 -87.2789 -100.48 57.015 
-87.032 -100.526 56.1393 -86.9688 -100.392 55.0744 -86.7631 -100.226 54.4428 
-86.139 -100.373 53.9848 -85.6178 -100.632 53.323 -85.2959 -100.734 52.7207 
-87.1539 -99.8032 57.1592 -87.1219 -99.7032 56.3723 -87.0255 -99.7146 55.2422 
-86.8488 -99.717 54.4042 -86.3259 -99.7777 53.9846 -85.7204 -99.9198 53.4556 
-85.3137 -100.002 52.823 -84.9027 -100.06 52.441 -86.78 -99.5564 57.2512 
-86.9247 -99.2461 56.6317 -86.9011 -99.137 55.6952 -86.6871 -99.2185 54.7527 
-86.2133 -99.2984 54.1434 -85.6785 -99.3187 53.6486 -85.2896 -99.3488 53.026 
-84.9371 -99.4234 52.5115 -84.4849 -99.5716 52.2833 -86.1998 -99.4965 57.2771 
-86.3065 -99.1685 56.7531 -86.3878 -98.902 56.089 -86.325 -98.8362 55.2988 
-85.9642 -98.8733 54.53 -85.5074 -98.8188 53.9008 -85.1924 -98.7528 53.31 
-84.9199 -98.8139 52.7261 -84.5559 -98.9754 52.3101 -84.1244 -99.1741 52.1062 
-85.9562 -103.47 55.1019 -85.8034 -103.006 54.8353 -85.3154 -103.543 54.7664 
-85.4727 -102.412 54.4711 -84.9814 -102.857 54.5716 -84.623 -103.478 54.5971 
-85.3223 -102.08 53.8348 -84.8356 -102.406 54.0218 -84.396 -102.898 54.1754 
-84.1502 -103.506 54.2471 -85.36 -101.905 53.1135 -84.9572 -102.305 53.1794 
-84.44 -102.737 53.3142 -84.0836 -103.199 53.4843 -83.7709 -103.567 53.7295 
-85.1778 -101.412 52.5783 -84.8865 -102.028 52.485 -84.4208 -102.554 52.4906 
-83.9631 -103.052 52.582 -83.5753 -103.337 52.8943 -83.1121 -103.444 53.3899 
-84.6973 -100.694 52.3419 -84.4008 -101.416 52.1737 -84.0601 -102.039 52.0612 
-83.6723 -102.596 52.0698 -83.2018 -103.096 52.1642 -82.7287 -103.305 52.5144 
-82.2794 -103.361 53.0524 -84.2005 -100.112 52.2653 -83.8396 -100.792 52.12 
-83.5434 -101.458 51.9006 -83.3167 -102.017 51.8328 -82.9276 -102.622 51.8034 
-82.3939 -103.166 51.7778 -81.966 -103.398 52.0494 -81.6197 -103.454 52.5779 
-83.8385 -99.6604 52.1166 -83.4715 -100.233 52.0319 -83.1496 -100.865 51.7753 
-82.9644 -101.475 51.5813 -82.7252 -102.099 51.5173 -82.2705 -102.77 51.3718 
-81.8106 -103.281 51.3204 -81.4802 -103.501 51.6491 -81.137 -103.529 52.2252 
-83.6178 -99.0175 51.861 -83.2923 -99.5253 51.811 -82.9994 -98.851 51.5969 
-82.6681 -99.3121 51.4139 -82.1604 -98.8607 51.4837 -82.9384 -100.053 51.6057 
-81.8918 -99.2168 51.1887 -81.1886 -98.9908 51.4947 -82.377 -99.7547 51.1406 
-82.663 -100.677 51.3192 -81.0361 -99.2255 51.1345 -80.3303 -98.8741 51.3299 
-81.6828 -99.6422 50.9765 -82.0795 -100.481 50.9716 -82.425 -101.434 51.1836 
-80.0993 -99.1309 50.989 -79.6369 -98.6069 51.0452 -80.7527 -99.7481 51.0031 
-81.2681 -100.539 50.9766 -81.6721 -101.43 50.9429 -82.0553 -102.208 51.0873 
-79.1443 -99.072 50.9078 -79.0231 -98.6112 51.069 -79.5459 -99.8184 50.9198 
-80.144 -100.731 51.0287 -80.6968 -101.486 50.999 -81.2294 -102.159 50.9033 
-81.6254 -102.837 50.9774 -78.4393 -99.1932 51.1898 -78.4 -98.7786 51.4042 
-78.5339 -99.8296 50.9617 -78.9553 -100.77 50.9153 -79.5698 -101.543 51.0019 
-80.236 -102.049 51.0193 -80.8756 -102.663 51.0036 -81.2812 -103.263 51.163 
-77.9339 -99.3291 51.6048 -77.7077 -98.8362 51.6874 -78.0268 -99.8769 51.324 
-78.2325 -100.677 51.0165 -78.6498 -101.502 50.9448 -79.2038 -102.058 51.0692 
-79.8851 -102.556 51.2118 -80.5273 -103.117 51.365 -80.9206 -103.473 51.6711 
-77.3911 -99.4083 51.8251 -77.0521 -98.861 51.8156 -77.6353 -99.9647 51.692 
-77.8467 -100.637 51.4094 -78.121 -101.394 51.1942 -78.4599 -102.05 51.1792 
-78.9277 -102.59 51.3035 -79.5435 -103.067 51.5213 -80.1005 -103.381 51.8367 
-80.4657 -103.478 52.2782 -84.0407 -98.5738 52.0231 -83.4838 -98.3198 51.7618 
-83.8992 -97.8827 52.0554 -83.2651 -97.6067 51.8298 -83.6498 -97.3305 52.1857 
-82.7333 -98.2268 51.6696 -82.9279 -97.1353 51.9656 -83.227 -97.0284 52.417 
-82.4442 -97.6267 51.8588 -81.7113 -98.4447 51.7946 -82.4313 -96.8214 52.1976 
-82.7068 -96.7246 52.8726 -82.1338 -97.1403 51.9289 -81.3975 -97.8462 51.9481 
-80.6399 -98.5538 51.7708 -81.9104 -96.3676 52.7351 -82.2482 -96.3808 53.4687 
-81.7221 -96.6202 52.1169 -81.1608 -97.1294 51.8302 -80.3208 -97.7539 51.7094 
-79.8564 -98.253 51.4047 -81.5438 -96.0847 53.3867 -81.8802 -96.3177 53.9787 
-81.3257 -96.1543 52.7175 -80.8479 -96.5241 52.0461 -80.0443 -96.9931 51.625 
-79.5245 -97.4951 51.3973 -79.3391 -98.0627 51.1736 -81.3029 -96.3223 53.8919 
-81.5903 -96.5134 54.485 -81.0457 -96.2138 53.355 -80.5564 -96.3535 52.748 
-79.7608 -96.7 52.1122 -79.161 -97.0543 51.6895 -78.9559 -97.5435 51.4461 
-78.7558 -98.1917 51.3396 -81.0672 -96.7033 54.4407 -81.37 -96.6643 55.1413 
-80.7331 -96.648 53.8435 -80.2385 -96.5838 53.4121 -79.5543 -96.7899 52.9399 
-78.9373 -97.0802 52.4092 -78.5338 -97.284 51.9495 -78.2158 -97.6677 51.6451 
-77.9228 -98.2575 51.5821 -80.768 -96.8263 55.1666 -81.1294 -96.6889 55.8334 
-80.3067 -96.8808 54.4561 -79.7516 -96.7582 53.9707 -79.2254 -96.8277 53.6449 
[...]
CELL_DATA 2000
SCALARS Distance double
LOOKUP_TABLE default
144.789 144.995 144.704 144.353 145.307 144.948 144.527 144.223 143.861 
145.477 145.209 144.759 144.437 144.048 143.777 143.473 145.447 145.259 
144.843 144.612 144.225 143.984 143.659 143.419 143.087 145.54 145.286 
144.93 144.675 144.334 144.116 143.785 143.57 143.213 142.969 142.562 
145.675 145.501 145.223 144.905 144.594 144.278 143.952 143.677 143.309 
143.06 142.668 142.413 142.012 145.448 145.533 145.346 145.211 144.91 
144.612 144.246 143.902 143.503 143.185 142.789 142.522 142.147 141.892 
141.52 145.001 145.17 145.044 145.135 144.869 144.78 144.384 144.148 
143.7 143.399 142.961 142.669 142.273 142.018 141.653 141.41 141.065 
144.75 144.789 144.665 144.751 144.516 144.544 144.168 144.096 143.66 
143.499 143.064 142.826 142.403 142.142 141.758 141.524 141.196 140.98 
140.708 145.031 145.471 145.252 145.301 145.928 145.71 145.795 145.604 
145.658 146.204 146.046 146.017 145.984 146.05 145.915 145.833 146.289 
146.135 145.963 146.004 146.052 146.13 146.13 145.968 145.8 146.56 
146.261 146.123 145.981 146.095 146.125 146.293 146.22 146.206 145.949 
145.848 147.043 146.713 146.668 146.377 146.562 146.422 146.674 146.515 
146.556 146.321 146.198 145.983 145.848 147.276 147.135 147.005 146.869 
146.917 146.9 147.015 146.928 146.799 146.585 146.268 146.116 145.813 
145.76 145.502 147.128 147.136 146.865 146.876 146.705 146.882 146.828 
146.978 146.736 146.644 146.203 146.04 145.658 145.583 145.311 145.283 
145.059 146.846 146.879 146.604 146.582 146.35 146.463 146.405 146.594 
146.496 146.489 146.214 146.02 145.759 145.56 145.412 145.238 145.127 
144.976 144.88 146.627 146.255 146.45 146.393 145.871 146.107 146.133 
146.225 146.205 145.491 145.773 146.005 146.128 146.232 146.216 146.305 
145.273 145.492 145.831 146.061 146.336 146.384 146.468 146.405 146.407 
145.152 145.351 145.585 145.846 146.098 146.359 146.489 146.551 146.466 
146.386 146.199 144.726 145.078 145.177 145.484 145.558 145.911 146.008 
146.325 146.335 146.413 146.247 146.112 145.866 144.027 144.437 144.51 
144.898 144.943 145.296 145.365 145.724 145.825 146.119 146.127 146.177 
145.996 145.82 145.564 143.456 143.752 143.846 144.194 144.331 144.692 
144.858 145.177 145.318 145.605 145.687 145.915 145.856 145.886 145.649 
145.503 145.239 143.061 143.292 143.386 143.644 143.793 144.132 144.35 
144.714 144.889 145.173 145.223 145.45 145.412 145.59 145.452 145.48 
145.244 145.149 144.94 144.834 145.069 144.867 144.663 145.175 145.028 
144.754 144.591 144.23 145.106 145.008 144.672 144.566 144.162 143.99 
143.501 144.961 144.882 144.504 144.393 143.949 143.825 143.334 143.182 
142.753 144.649 144.671 144.255 144.167 143.669 143.563 143.067 142.961 
142.529 142.473 142.157 144.113 144.238 143.821 143.816 143.3 143.241 
142.751 142.683 142.252 142.203 141.834 141.845 141.503 143.585 143.688 
143.335 143.344 142.885 142.846 142.399 142.363 141.952 141.909 141.502 
141.477 141.079 141.094 140.706 143.195 143.246 142.942 142.929 142.532 
142.48 142.07 142.029 141.627 141.587 141.162 141.121 140.691 140.674 
140.283 140.299 139.965 142.849 142.889 142.569 142.571 142.188 142.162 
141.772 141.733 141.332 141.269 140.829 140.763 140.324 140.293 139.907 
139.912 139.588 139.624 139.351 144.695 144.491 144.557 144.488 144.021 
144.21 144.039 144.252 144.194 143.296 143.576 143.36 143.635 143.485 
143.832 143.778 142.647 142.871 142.715 142.924 142.791 143.077 143.028 
143.383 143.336 142.153 142.363 142.297 142.426 142.343 142.498 142.473 
142.717 142.699 142.964 142.853 141.507 141.845 141.789 142.031 141.923 
142.107 142.016 142.227 142.15 142.378 142.236 142.446 142.234 140.687 
141.078 140.994 141.367 141.231 141.545 141.391 141.679 141.53 141.791 
141.603 141.82 141.595 141.799 141.585 139.949 140.264 140.186 140.525 
140.424 140.758 140.646 140.965 140.851 141.129 140.982 141.195 141.015 
141.197 141.027 141.21 141.056 139.345 139.602 139.526 139.795 139.705 
139.996 139.921 140.237 140.183 140.479 140.4 140.626 140.51 140.686 
140.576 140.735 140.629 140.767 140.634 138.989 138.446 138.869 139.15 
137.849 138.272 138.547 139.001 139.288 137.308 137.666 137.88 138.338 
138.651 139.146 139.489 136.76 137.13 137.319 137.711 138.024 138.506 
138.924 139.411 139.789 136.085 136.518 136.77 137.2 137.542 137.974 
138.398 138.865 139.291 139.728 140.043 135.526 135.85 136.109 136.596 
136.996 137.511 137.92 138.375 138.751 139.2 139.536 139.943 140.185 
135.303 135.455 135.642 135.973 136.349 136.886 137.32 137.839 138.176 
138.633 138.955 139.409 139.719 140.088 140.304 135.171 135.335 135.52 
135.675 135.975 136.319 136.747 137.212 137.593 138.038 138.372 138.831 
139.19 139.624 139.911 140.222 140.389 134.93 135.185 135.446 135.617 
135.895 136.097 136.47 136.776 137.176 137.528 137.892 138.29 138.657 
139.097 139.417 139.797 139.985 140.267 140.375 138.761 138.202 138.389 
138.193 137.649 137.795 137.594 137.806 137.636 137.198 137.267 137.054 
137.235 137.119 137.309 137.163 136.81 136.835 136.581 136.73 136.591 
136.799 136.652 136.827 136.601 136.455 136.432 136.114 136.238 136.011 
136.215 135.975 136.203 135.93 136.152 135.879 136.284 136.14 135.806 
135.804 135.541 135.626 135.32 135.465 135.176 135.412 135.227 135.472 
135.354 136.391 136.137 135.866 135.679 135.463 135.328 135.071 134.978 
134.727 134.78 134.676 134.887 134.898 135.12 135.14 136.639 136.381 
136.159 135.898 135.687 135.44 135.229 134.994 134.807 134.632 134.512 
134.504 134.462 134.645 134.635 134.908 134.907 136.836 136.642 136.393 
136.169 135.862 135.642 135.363 135.197 135.038 134.881 134.749 134.554 
134.358 134.274 134.098 134.276 134.203 134.562 134.572 142.546 141.882 
142.218 142.201 141.233 141.516 141.481 141.83 141.814 140.694 140.919 
140.86 141.14 141.133 141.458 141.442 140.048 140.339 140.231 140.528 
140.465 140.79 140.743 141.07 140.999 139.286 139.594 139.438 139.784 
139.648 140.032 139.914 140.3 140.175 140.547 140.44 138.642 138.87 
138.723 138.983 138.835 139.154 139.027 139.403 139.288 139.673 139.575 
139.969 139.919 138.058 138.27 138.119 138.343 138.193 138.426 138.296 
138.578 138.495 138.828 138.778 139.139 139.125 139.511 139.528 137.493 
137.669 137.456 137.692 137.484 137.761 137.575 137.878 137.75 138.084 
138.017 138.377 138.359 138.746 138.776 139.173 139.227 137.079 137.161 
136.916 137.034 136.767 136.98 136.75 137.068 136.917 137.295 137.211 
137.598 137.559 137.959 137.98 138.409 138.486 138.906 138.995 142.602 
142.506 142.374 141.982 142.405 142.274 141.891 141.73 141.347 142.274 
142.154 141.767 141.634 141.266 141.139 140.801 142.098 141.991 141.589 
141.483 141.114 141.029 140.679 140.578 140.18 141.921 141.808 141.418 
141.305 140.944 140.859 140.511 140.417 140.014 139.879 139.438 141.791 
141.662 141.297 141.166 140.818 140.709 140.365 140.252 139.865 139.721 
139.304 139.156 138.775 141.682 141.556 141.193 141.063 140.698 140.583 
140.215 140.106 139.716 139.588 139.187 139.047 138.668 138.543 138.198 
141.554 141.444 141.074 140.949 140.561 140.44 140.048 139.938 139.546 
139.433 139.044 138.925 138.551 138.433 138.084 137.973 137.657 141.414 
141.313 140.95 140.822 140.428 140.292 139.905 139.782 139.42 139.294 
138.931 138.793 138.422 138.298 137.948 137.852 137.553 137.468 137.222 
141.229 140.794 140.933 140.755 140.302 140.452 140.232 140.397 140.199 
139.754 139.899 139.628 139.812 139.598 139.82 139.662 139.212 139.321 
139.003 139.166 138.953 139.202 139.085 139.324 139.205 138.71 138.797 
138.469 138.567 138.335 138.558 138.463 138.742 138.642 138.866 138.718 
138.225 138.321 138.023 138.085 137.82 137.972 137.821 138.089 137.961 
138.235 138.057 138.316 138.158 137.783 137.866 137.579 137.64 137.343 
137.461 137.255 137.464 137.295 137.524 137.328 137.587 137.431 137.743 
137.658 137.429 137.471 137.153 137.177 136.829 136.934 136.725 136.928 
136.812 136.971 136.803 136.931 136.789 137.031 136.997 137.312 137.302 
137.122 137.145 136.802 136.768 136.363 136.399 136.174 136.395 136.384 
136.598 136.525 136.571 136.397 136.487 136.425 136.693 136.734 137.029 
137.034 136.859 136.298 136.569 136.49 135.706 135.948 135.819 136.089 
135.996 135.244 135.373 135.229 135.434 135.402 135.694 135.835 135.068 
135.015 134.863 134.949 135.005 135.253 135.542 135.832 136.161 135.088 
134.941 134.738 134.713 134.765 134.971 135.283 135.607 135.928 136.192 
136.342 134.871 134.852 134.575 134.608 134.606 134.789 134.992 135.281 
135.452 135.775 135.828 136.131 136.14 134.34 134.41 134.111 134.295 
134.326 134.605 134.796 135 135.058 135.22 135.217 135.501 135.606 
135.943 136.137 134.056 133.947 133.72 133.814 133.93 134.259 134.573 
134.832 134.965 134.987 134.992 135.059 135.256 135.519 135.879 136.161 
136.491 134.327 134.011 133.897 133.715 133.844 133.965 134.303 134.583 
134.833 134.956 135.029 135.043 135.218 135.363 135.73 135.983 136.339 
136.565 136.813 136.898 136.775 136.68 136.37 136.749 136.565 136.23 
136.13 135.816 136.914 136.613 136.218 136.019 135.717 135.614 135.376 
137.233 136.862 136.451 136.107 135.746 135.554 135.374 135.299 135.22 
137.649 137.244 136.865 136.442 136.051 135.698 135.471 135.34 135.358 
135.314 135.308 138.063 137.679 137.318 136.908 136.563 136.128 135.849 
135.545 135.497 135.442 135.497 135.407 135.206 138.364 138.042 137.692 
137.353 137.07 136.69 136.431 136.025 135.834 135.61 135.558 135.5 
135.345 135.141 134.736 138.636 138.319 138.013 137.707 137.477 137.179 
136.975 136.607 136.344 135.977 135.745 135.549 135.377 135.232 134.976 
134.685 134.398 139.014 138.662 138.405 138.072 137.875 137.585 137.416 
137.104 136.857 136.465 136.151 135.798 135.568 135.343 135.211 134.99 
134.886 134.585 134.56 137.174 137.58 137.281 137.1 138.13 137.767 
137.647 137.278 137.137 138.894 138.428 138.326 137.908 137.8 137.398 
137.311 139.871 139.315 139.2 138.676 138.548 138.09 137.992 137.615 
137.588 140.872 140.361 140.277 139.672 139.513 138.914 138.773 138.309 
138.29 137.946 137.995 141.62 141.269 141.23 140.75 140.614 139.983 
139.794 139.184 139.119 138.688 138.752 138.403 138.441 142.199 141.893 
141.846 141.534 141.472 141.033 140.907 140.3 140.176 139.605 139.593 
139.171 139.187 138.805 138.75 142.897 142.502 142.438 142.088 142.083 
141.779 141.816 141.383 141.335 140.735 140.636 140.065 139.999 139.543 
139.478 139.067 138.997 143.692 143.282 143.241 142.792 142.789 142.43 
142.534 142.224 142.289 141.833 141.728 141.132 140.964 140.403 140.292 
139.824 139.769 139.354 139.344 144.101 144.575 144.154 143.704 144.975 
144.621 144.222 143.727 143.261 145.23 144.965 144.593 144.204 143.762 
143.315 142.947 145.318 145.13 144.719 144.448 143.974 143.677 143.274 
142.992 142.644 145.238 145.123 144.706 144.491 143.98 143.735 143.266 
143.103 142.714 142.538 142.078 145.048 144.978 144.619 144.463 144.026 
143.759 143.28 143.033 142.614 142.459 142.04 141.835 141.317 144.897 
144.808 144.498 144.379 144.035 143.838 143.427 143.136 142.696 142.422 
142.025 141.798 141.378 141.103 140.638 144.842 144.733 144.447 144.3 
143.957 143.81 143.436 143.249 142.82 142.558 142.127 141.867 141.484 
141.222 140.832 140.523 140.122 144.783 144.701 144.42 144.275 143.899 
143.727 143.331 143.186 142.789 142.61 142.178 141.956 141.551 141.339 
140.981 140.737 140.372 140.067 139.704 144.634 144.177 144.373 144.242 
143.666 143.851 143.705 143.899 143.702 143.25 143.359 143.182 143.343 
143.15 143.315 143.116 142.817 142.927 142.684 142.83 142.619 142.778 
142.572 142.745 142.563 142.256 142.394 142.077 142.257 141.994 142.21 
141.975 142.178 141.945 142.157 141.952 141.71 141.806 141.488 141.621 
141.365 141.558 141.34 141.541 141.295 141.497 141.268 141.51 141.331 
141.232 141.302 141.032 141.121 140.955 141.066 140.94 141.02 140.816 
140.891 140.661 140.836 140.677 140.929 140.791 140.79 140.847 140.588 
140.703 140.586 140.749 140.695 140.774 140.594 140.556 140.278 140.309 
140.107 140.301 140.17 140.409 140.235 140.462 140.46 140.191 140.263 
140.105 140.313 140.242 140.46 140.275 140.33 139.978 139.965 139.651 
139.763 139.579 139.793 139.622 139.825 139.6 139.172 139.216 138.991 
138.575 139.207 139.015 138.623 138.408 138.041 139.268 139.009 138.616 
138.423 138.054 137.886 137.552 139.549 139.153 138.688 138.41 138.011 
137.848 137.477 137.348 136.965 139.842 139.468 138.931 138.546 138.088 
137.83 137.447 137.257 136.843 136.681 136.26 139.867 139.652 139.152 
138.805 138.333 137.999 137.63 137.335 136.963 136.662 136.256 136.016 
135.677 139.806 139.639 139.277 139.006 138.615 138.288 137.945 137.62 
137.301 136.939 136.586 136.204 135.873 135.587 135.346 139.95 139.723 
139.497 139.218 138.928 138.596 138.266 137.942 137.618 137.302 136.967 
136.613 136.282 135.924 135.646 135.354 135.116 140.255 140.012 139.85 
139.562 139.318 138.962 138.62 138.257 137.895 137.581 137.224 136.927 
136.572 136.281 135.976 135.699 135.446 135.155 134.9 146.901 147.197 
147.004 146.778 147.31 147.238 146.981 146.714 146.349 147.08 147.205 
146.993 146.84 146.497 146.273 146.064 146.73 146.92 146.85 146.798 
146.59 146.442 146.366 146.213 146.234 146.57 146.712 146.789 146.737 
146.638 146.542 146.565 146.537 146.639 146.489 146.412 146.388 146.599 
146.703 146.752 146.66 146.597 146.541 146.605 146.65 146.713 146.579 
146.428 146.062 145.927 146.228 146.246 146.51 146.418 146.519 146.363 
146.448 146.351 146.489 146.314 146.34 145.97 145.842 145.411 145.399 
145.637 145.577 145.885 145.818 146.086 145.97 146.146 146.009 146.129 
145.953 145.999 145.723 145.667 145.329 145.202 144.87 145.002 145.151 
145.074 145.261 145.193 145.442 145.386 145.645 145.567 145.755 145.621 
145.699 145.496 145.475 145.219 145.13 144.839 144.708 144.39 146.692 
146.513 146.53 146.276 146.133 146.233 146.036 146.061 145.813 145.902 
145.895 145.777 145.818 145.635 145.605 145.339 145.995 145.812 145.64 
145.612 145.442 145.424 145.14 145.085 144.761 146.079 145.918 145.59 
145.495 145.218 145.193 144.855 144.82 144.436 144.432 144.105 145.766 
145.8 145.426 145.378 145.019 144.954 144.571 144.496 144.088 144.062 
143.721 143.768 143.493 145.185 145.32 145.01 145.081 144.763 144.749 
144.39 144.277 143.872 143.757 143.401 143.39 143.114 143.17 142.907 
144.65 144.755 144.461 144.58 144.291 144.402 144.1 144.102 143.721 
143.604 143.198 143.109 142.773 142.788 142.508 142.571 142.301 144.161 
144.258 143.925 144.022 143.69 143.84 143.551 143.699 143.369 143.388 
142.957 142.883 142.456 142.434 142.1 142.159 141.894 141.972 141.731 
146.579 146.234 146.375 146.229 145.777 145.984 145.87 145.974 145.765 
145.291 145.521 145.43 145.571 145.363 145.451 145.275 144.744 145.02 
144.963 145.144 144.976 145.053 144.878 145.01 145.007 144.125 144.435 
144.396 144.648 144.511 144.659 144.48 144.622 144.578 144.831 144.897 
143.512 143.807 143.753 144.032 143.901 144.128 143.945 144.15 144.029 
144.315 144.286 144.615 144.518 142.91 143.192 143.116 143.382 143.255 
143.496 143.348 143.571 143.444 143.698 143.612 143.914 143.804 144.079 
143.876 142.301 142.575 142.492 142.75 142.632 142.872 142.752 142.987 
142.894 143.128 143.048 143.279 143.185 143.408 143.283 143.476 143.331 
141.733 141.975 141.897 142.14 142.035 142.268 142.15 142.393 142.294 
142.559 142.476 142.731 142.635 142.859 142.748 142.95 142.838 143.026 
142.921 137.318 137.621 137.533 137.688 137.982 137.862 138.042 137.956 
138.212 138.468 138.308 138.553 138.406 138.724 138.616 139 139.017 
138.871 139.187 139.029 139.419 139.261 139.684 139.532 139.981 139.529 
139.42 139.738 139.651 140.055 139.981 140.41 140.271 140.661 140.524 
140.926 140.022 139.906 140.159 140.101 140.447 140.487 140.907 140.905 
141.244 141.14 141.426 141.349 141.647 140.521 140.386 140.593 140.483 
140.772 140.794 141.219 141.292 141.67 141.626 141.877 141.782 142.039 
141.982 142.261 140.991 140.868 141.078 140.939 141.217 141.16 141.593 
141.631 142.092 142.059 142.375 142.238 142.502 142.398 142.725 142.645 
142.978 141.42 141.32 141.553 141.435 141.717 141.638 142.044 142.056 
142.542 142.54 142.936 142.804 143.089 142.923 143.235 143.141 143.499 
143.416 143.745 
POINT_DATA 1002
SCALARS Distance double
LOOKUP_TABLE default
144.487 144.859 145.022 144.604 145.36 143.968 144.882 145.682 144.097 
143.521 145.063 145.686 144.333 143.716 143.183 145.028 145.628 144.44 
143.904 143.361 142.717 145.205 145.788 144.558 144.006 143.448 142.831 
142.137 145.513 145.727 144.954 144.274 143.579 142.902 142.273 141.626 
145.36 145.257 145.167 144.611 143.857 143.075 142.391 141.778 141.156 
144.895 144.853 144.878 144.564 143.976 143.267 142.543 141.887 141.296 
140.743 144.621 144.779 144.481 144.19 143.749 143.255 142.67 141.998 
141.391 140.902 140.479 145.215 145.522 145.677 145.934 146.175 145.932 
146.03 146.41 146.089 146.132 145.965 146.495 145.896 146.173 146.089 
146.324 146.864 146.083 146.31 146.401 146.131 146.954 147.315 146.728 
146.878 146.836 146.433 146.032 147.138 147.378 146.926 147.097 147.073 
146.488 145.885 145.523 146.893 147.113 146.567 146.624 146.765 146.373 
145.749 145.342 145.07 146.633 146.792 146.287 146.199 146.393 146.331 
145.939 145.59 145.305 145.008 146.457 146.261 146.05 146.011 145.552 
146.129 145.758 145.164 146.247 146.324 145.557 145.101 146.181 146.584 
146.5 145.398 144.957 145.801 146.312 146.571 146.329 144.881 144.343 
145.255 145.62 146.094 146.342 146.071 144.09 143.649 144.562 145.015 
145.461 145.922 146.119 145.799 143.519 143.202 143.93 144.502 145.058 
145.435 145.707 145.744 145.405 143.155 142.827 143.486 143.965 144.583 
145.026 145.208 145.321 145.292 145.035 144.687 144.879 144.424 144.914 
144.47 143.798 144.789 144.314 143.703 143.004 144.649 144.075 143.458 
142.84 142.417 144.339 143.777 143.156 142.587 142.162 141.893 143.793 
143.333 142.79 142.309 141.861 141.481 141.135 143.306 142.907 142.417 
141.991 141.557 141.09 140.666 140.318 142.946 142.574 142.117 141.679 
141.214 140.716 140.267 139.915 139.662 142.566 142.194 141.797 141.404 
140.914 140.359 139.897 139.556 139.294 139.099 144.365 143.843 143.912 
143.087 143.151 143.394 142.522 142.536 142.686 143.005 142.151 142.221 
142.274 142.46 142.634 141.493 141.724 141.827 141.949 142.043 142.034 
140.608 140.883 141.086 141.261 141.381 141.386 141.366 139.868 140.084 
140.304 140.548 140.746 140.82 140.841 140.877 139.276 139.433 139.6 
139.858 140.144 140.312 140.399 140.489 140.524 138.593 138.74 138.006 
138.07 137.472 138.831 137.458 136.995 138.113 139.01 136.94 136.346 
137.562 138.397 139.366 136.269 135.642 137.102 137.965 138.834 139.675 
135.641 135.297 136.419 137.469 138.328 139.092 139.843 135.428 135.185 
135.86 136.771 137.721 138.48 139.292 140.023 135.393 134.937 135.74 
136.328 137.144 137.914 138.721 139.557 140.155 135.225 134.63 135.72 
136.226 136.857 137.526 138.235 139.016 139.68 140.122 138.593 137.981 
138.033 137.371 137.543 137.431 136.887 137.163 136.904 137.025 136.456 
136.811 136.401 136.471 136.463 136.03 136.525 135.859 135.776 135.679 
135.65 135.865 136.461 135.524 135.243 134.941 134.909 135.124 136.087 
136.626 135.647 135.22 134.752 134.491 134.63 134.941 136.432 136.862 
135.96 135.454 135.015 134.656 134.391 134.366 134.6 136.632 137.016 
136.116 135.512 135.126 134.976 134.617 134.067 133.862 134.149 142.246 
141.844 141.556 141.148 140.995 141.452 140.614 140.474 140.82 141.127 
139.93 139.742 140.15 140.424 140.68 139.113 139.006 139.273 139.522 
139.797 140.048 138.494 138.427 138.563 138.67 138.892 139.175 139.502 
137.89 137.857 137.972 138.046 138.174 138.419 138.742 139.133 137.262 
137.36 137.216 137.266 137.416 137.661 137.972 138.364 138.832 142.734 
142.144 142.639 142.039 142.539 141.49 141.886 142.397 141.375 140.934 
141.692 142.205 141.19 140.778 140.326 141.529 142.031 141.035 140.609 
140.146 139.571 141.425 141.916 140.937 140.483 140.003 139.448 138.895 
141.328 141.803 140.827 140.33 139.832 139.315 138.8 138.309 141.203 
141.658 140.692 140.163 139.653 139.155 138.663 138.191 137.754 141.079 
141.506 140.57 140.022 139.531 139.076 138.565 138.042 137.613 137.292 