# vtk DataFile Version 4.0
vtk output
ASCII
DATASET POLYDATA
POINTS 1002 float
-79.7044 -102.675 56.9699 -79.8097 -102.877 57.618 -80.2423 -102.793 57.2222 
-80.1827 -102.631 56.4679 -80.6503 -102.847 56.6696 -79.3309 -102.79 55.9364 
-80.5872 -102.756 55.7791 -81.0078 -103.061 55.9077 -79.8507 -102.759 55.362 
-78.9037 -102.882 54.854 -80.9395 -102.993 54.9837 -81.471 -103.239 55.1611 
-80.3298 -102.809 54.7355 -79.4984 -102.64 54.4348 -78.704 -102.512 54.1561 
-81.438 -103.033 54.3593 -82.1655 -103.256 54.625 -80.7919 -102.863 54.1128 
-80.1108 -102.45 54.0164 -79.3485 -102.1 53.8638 -78.5773 -102.08 53.4923 
-82.0781 -102.857 53.908 -82.8553 -103.172 54.133 -81.3258 -102.695 53.611 
-80.6591 -102.4 53.4406 -79.9546 -101.97 53.3328 -79.1061 -101.899 52.9651 
-78.2213 -102.043 52.4412 -82.6339 -102.755 53.3468 -83.3302 -103.001 53.5418 
-81.8822 -102.508 53.1214 -81.1695 -102.337 52.8345 -80.433 -102.13 52.5476 
-79.5454 -102.009 52.1981 -78.6003 -102.012 51.7956 -77.8102 -101.882 51.5485 
-83.1196 -102.755 52.676 -83.7356 -102.773 52.9703 -82.4357 -102.569 52.4817 
-81.7156 -102.308 52.2785 -80.9262 -102.147 51.9338 -79.9882 -102.071 51.5314 
-79.0086 -101.911 51.261 -78.2072 -101.609 51.1599 -77.5974 -101.278 51.1706 
-83.6336 -102.66 52.1335 -84.1632 -102.543 52.5278 -83.0189 -102.638 51.8491 
-82.2969 -102.327 51.7258 -81.4749 -101.934 51.5774 -80.5421 -101.733 51.252 
-79.5653 -101.556 50.988 -78.7319 -101.21 50.9338 -78.0758 -100.873 50.9129 
-77.4654 -100.72 50.8281 -84.0639 -102.368 51.8218 -84.4935 -102.27 52.2158 
-83.5247 -102.416 51.4701 -82.8106 -102.18 51.2925 -81.9533 -101.665 51.2718 
-81.0514 -101.239 51.136 -80.1587 -101.032 50.8671 -79.344 -100.809 50.7195 
-78.6408 -100.553 50.6461 -77.9633 -100.449 50.4669 -77.2637 -100.498 50.2298 
-79.9743 -103.212 57.8053 -80.4452 -103.203 57.3838 -80.2326 -103.498 58.0642 
-80.871 -103.58 57.6147 -80.8874 -103.547 58.6176 -80.9351 -103.329 56.789 
-81.6415 -103.603 58.078 -81.6725 -103.518 59.2545 -81.5129 -103.668 56.9659 
-81.4449 -103.478 56.021 -82.266 -103.367 58.5585 -82.1293 -103.494 59.6886 
-82.2197 -103.437 57.3242 -82.1207 -103.605 56.2018 -82.1266 -103.546 55.3387 
-82.5519 -103.143 58.9327 -82.4299 -103.242 60.0109 -82.5844 -102.921 57.723 
-82.6587 -103.123 56.5342 -82.8162 -103.541 55.5616 -82.9371 -103.561 54.8159 
-82.9457 -102.966 59.2997 -82.9072 -102.819 60.2704 -82.8643 -102.729 58.1087 
-82.9434 -102.614 56.9154 -83.242 -103.06 55.888 -83.5308 -103.501 55.0547 
-83.5612 -103.386 54.2926 -83.533 -102.773 59.5921 -83.4378 -102.538 60.3689 
-83.4753 -102.781 58.5091 -83.5014 -102.626 57.3012 -83.709 -102.729 56.2293 
-83.9676 -103.076 55.3812 -84.0968 -103.186 54.5866 -83.9836 -102.977 53.7575 
-83.9999 -102.545 59.7279 -83.8262 -102.385 60.3811 -84.1037 -102.656 58.8221 
-84.2714 -102.694 57.7028 -84.467 -102.725 56.577 -84.5561 -102.784 55.6857 
-84.5888 -102.798 54.9415 -84.5602 -102.719 54.1236 -84.3903 -102.608 53.2745 
-84.2664 -102.25 59.7794 -84.0836 -102.139 60.42 -84.4265 -102.32 58.9692 
-84.6903 -102.419 58.003 -85.0008 -102.537 56.9405 -85.1064 -102.548 55.981 
-85.0422 -102.449 55.2269 -85.0139 -102.395 54.4872 -84.9444 -102.398 53.654 
-84.7415 -102.363 52.8572 -84.4077 -101.795 60.049 -84.5396 -101.887 59.2208 
-84.6692 -101.331 59.4736 -84.7161 -101.442 58.4958 -84.8233 -100.835 58.7583 
-84.6953 -101.945 58.2823 -84.8549 -100.898 57.7085 -84.8722 -100.257 57.9649 
-84.8336 -101.479 57.4937 -85.0013 -102.04 57.291 -85.1235 -100.214 56.8851 
-84.8564 -99.6956 57.0108 -85.2008 -100.824 56.7258 -85.1933 -101.433 56.5541 
-85.2738 -102.069 56.2988 -85.3253 -99.7185 56.0342 -84.7446 -99.362 56.0563 
-85.9632 -100.142 56.0377 -85.9202 -100.659 55.8892 -85.5338 -101.277 55.6633 
-85.3111 -101.953 55.4342 -85.1627 -99.4887 55.3773 -84.6605 -99.0131 55.445 
-86.3053 -99.8005 55.4638 -86.9102 -100.125 55.3332 -86.3623 -100.552 55.0537 
-85.6351 -101.211 54.8384 -85.3008 -101.919 54.6705 -85.0053 -98.9986 54.9694 
-84.804 -98.3382 55.0949 -85.8843 -99.4969 54.9971 -86.9223 -99.8792 54.8495 
-86.9724 -100.199 54.5145 -86.1864 -100.672 54.2512 -85.5862 -101.41 54.0535 
-85.2952 -102.052 53.8495 -85.144 -98.1521 54.5832 -85.0017 -97.5699 54.7234 
-85.4926 -98.7695 54.5096 -86.1255 -99.3755 54.3354 -86.5014 -99.8736 54.0307 
-86.2142 -100.283 53.7716 -85.7051 -100.882 53.533 -85.3922 -101.612 53.2459 
-85.1292 -102.113 53.0104 -85.2253 -97.3986 54.1377 -84.9526 -97.0261 54.3022 
-85.4121 -97.8922 53.964 -85.5714 -98.5132 53.7492 -85.6844 -99.186 53.5141 
-85.6388 -99.7509 53.3345 -85.4532 -100.275 53.1282 -85.2638 -100.932 52.7982 
-85.0888 -101.568 52.4884 -84.8439 -101.992 52.3145 -84.4339 -101.875 51.7746 
-84.6987 -101.444 51.8609 -84.2025 -101.231 51.4787 -84.9063 -100.9 52.0188 
-84.4616 -100.733 51.5002 -83.779 -100.488 51.2298 -85.0425 -100.25 52.3305 
-84.7344 -100.19 51.5491 -84.0909 -100.025 51.1338 -83.2589 -99.7998 50.8163 
-85.0867 -99.6015 52.6397 -84.8793 -99.5364 51.7634 -84.416 -99.4742 51.0763 
-83.5288 -99.2976 50.7293 -82.7924 -99.1786 50.2828 -85.1497 -98.9316 52.788 
-84.8963 -98.7656 51.9963 -84.5665 -98.7102 51.2107 -83.7776 -98.6238 50.7442 
-82.9516 -98.5358 50.3967 -82.4416 -98.5594 49.8605 -85.2945 -98.2099 52.9191 
-85.0166 -97.9885 52.111 -84.6562 -97.875 51.3754 -83.9178 -97.8155 50.8706 
-83.1002 -97.7793 50.5287 -82.5826 -97.8199 50.0503 -82.1423 -97.8733 49.4584 
-85.3482 -97.5846 53.1713 -85.1249 -97.3687 52.2891 -84.7833 -97.2142 51.5128 
-84.0818 -97.1217 51.0093 -83.2073 -97.077 50.6651 -82.6607 -97.085 50.1651 
-82.2991 -97.146 49.531 -81.7892 -97.1914 48.9817 -85.1798 -97.1319 53.4802 
-84.954 -96.923 52.6448 -84.6908 -96.7235 51.7919 -84.1895 -96.5853 51.2199 
-83.3434 -96.5402 50.9033 -82.6623 -96.504 50.4019 -82.3107 -96.4909 49.668 
-81.8908 -96.5614 49.0649 -81.3394 -96.6728 48.6883 -84.8642 -96.8029 53.7522 
-84.6296 -96.5611 53.0521 -84.4141 -96.275 52.2092 -84.117 -96.0667 51.529 
-83.4335 -96.0548 51.2142 -82.6609 -96.0737 50.8323 -82.2514 -95.9902 50.0527 
-81.9329 -95.9639 49.2921 -81.4007 -96.101 48.8968 -80.8493 -96.2951 48.6987 
-83.9701 -101.895 51.4334 -83.599 -101.133 51.2132 -83.3041 -101.786 51.1369 
-83.0796 -100.35 50.891 -82.8265 -100.938 50.8852 -82.4258 -101.391 50.9948 
-82.6874 -99.761 50.234 -82.4644 -100.311 50.2994 -81.9915 -100.679 50.5464 
-81.4875 -100.901 50.8978 -82.363 -99.2246 49.5908 -82.2753 -99.8772 49.4649 
-81.8338 -100.326 49.6867 -81.1509 -100.471 50.1798 -80.6122 -100.619 50.6328 
-81.9141 -98.5178 49.2311 -81.7911 -99.202 49.0006 -81.5563 -99.819 48.981 
-80.9556 -100.176 49.2932 -80.2963 -100.306 49.8274 -79.8088 -100.472 50.3581 
-81.4653 -97.7138 48.8606 -81.1305 -98.3013 48.7848 -80.8783 -98.9299 48.7715 
-80.5105 -99.4865 48.8448 -79.954 -99.898 49.1048 -79.4557 -100.161 49.6054 
-79.0548 -100.331 50.1941 -81.1133 -97.0782 48.4864 -80.779 -97.5498 48.4153 
-80.3806 -98.1402 48.5155 -79.9862 -98.7372 48.6297 -79.5243 -99.2578 48.7187 
-79.0283 -99.7413 48.9619 -78.6261 -100.102 49.4243 -78.2899 -100.284 49.9771 
-80.738 -96.6636 48.3979 -80.6057 -97.049 48.1397 -80.2538 -97.6054 48.1185 
-79.7316 -98.2685 48.2465 -79.1981 -98.7929 48.3563 -78.6801 -99.2089 48.534 
-78.2011 -99.6803 48.8453 -77.8087 -100.1 49.2324 -77.4988 -100.344 49.6989 
-80.2724 -96.1381 48.637 -80.2551 -96.5015 48.2481 -79.698 -95.8019 48.4194 
-79.5747 -96.158 48.0759 -79.0628 -95.3314 48.0638 -80.0966 -96.9526 47.9614 
-78.6113 -95.7399 47.9627 -78.3867 -95.0622 47.9849 -79.114 -96.7121 47.9111 
-79.5615 -97.6681 47.9201 -77.733 -95.5812 48.1096 -77.6767 -95.0844 48.372 
-77.9032 -96.406 47.9817 -78.403 -97.535 47.8604 -78.8983 -98.3798 47.9719 
-77.054 -95.6093 48.4336 -76.85 -95.0559 48.7698 -77.101 -96.2823 48.1512 
-77.354 -97.2266 47.9742 -77.8968 -98.1715 47.9374 -78.3612 -98.7708 48.1693 
-76.3091 -95.5453 48.7022 -76.1119 -94.9821 49.0028 -76.4687 -96.2312 48.3574 
-76.6933 -97.0135 48.1961 -77.1379 -97.7783 48.2542 -77.5888 -98.4559 48.3998 
-77.8754 -99.1047 48.5714 -75.6872 -95.5684 49.1189 -75.7292 -95.1674 49.4924 
-75.7095 -96.139 48.6896 -75.9169 -96.8822 48.4453 -76.3984 -97.5605 48.5908 
-76.911 -98.1392 48.8574 -77.1618 -98.864 48.9042 -77.3735 -99.6381 48.9133 
-75.3833 -95.7823 49.8686 -75.5092 -95.4772 50.2775 -75.2214 -96.1594 49.3506 
-75.195 -96.7663 48.9029 -75.5215 -97.4667 48.838 -76.0979 -98.047 49.0884 
-76.4683 -98.6993 49.1936 -76.6104 -99.5328 49.083 -76.9364 -100.153 49.1968 
-75.1262 -95.9164 50.6166 -75.1507 -95.5804 50.9283 -75.0181 -96.2428 50.1558 
-74.902 -96.7127 49.6375 -74.9775 -97.3575 49.3282 -75.3776 -97.9887 49.3289 
-75.8163 -98.6017 49.3806 -75.9988 -99.3739 49.2916 -76.1862 -100.105 49.3038 
-76.6612 -100.448 49.6689 -80.729 -95.715 48.872 -80.0565 -95.4303 48.7628 
-80.8588 -94.8899 48.8058 -80.1057 -94.5075 48.582 -81.0936 -94.0669 48.6398 
-79.4308 -94.9928 48.3882 -80.1562 -93.8435 48.5629 -81.0057 -93.684 48.9745 
-79.3701 -94.1741 48.2987 -78.8968 -94.6146 48.0326 -79.8538 -93.7648 49.2523 
-80.5445 -93.7246 49.9282 -79.2164 -93.7644 48.7049 -78.7722 -94.0219 48.3274 
-78.2907 -94.5506 48.2432 -79.4183 -93.8138 50.2155 -80.0775 -93.7559 50.8279 
-78.8837 -93.6555 49.5581 -78.4759 -93.6024 49.0098 -77.9686 -93.9935 48.7669 
-77.3697 -94.5657 48.7668 -79.2215 -93.5744 50.8775 -79.8027 -93.6375 51.421 
-78.6926 -93.3809 50.2724 -78.1828 -93.1903 49.6829 -77.5156 -93.3655 49.28 
-76.8366 -93.8712 49.0907 -76.4004 -94.4352 49.0186 -79.2331 -93.2633 51.5354 
-79.704 -93.4904 52.0904 -78.7172 -93.0389 50.9344 -78.1066 -92.896 50.3496 
-77.2956 -92.9597 49.8749 -76.4927 -93.2739 49.5205 -76.056 -93.8101 49.3163 
-75.9031 -94.4964 49.3269 -79.2745 -93.101 52.4221 -79.7129 -93.3863 52.9176 
-78.7403 -92.8803 51.8604 -78.1073 -92.8785 51.277 -77.3546 -93.0336 50.7742 
-76.5837 -93.1948 50.3685 -76.0724 -93.492 50.0597 -75.8727 -94.1059 49.9522 
-75.7352 -94.8655 50.0733 -79.2514 -93.101 53.2475 -79.7144 -93.383 53.6435 
-78.6564 -92.8688 52.8017 -78.003 -92.9164 52.284 -77.4032 -93.2222 51.7594 
[...]
CELL_DATA 2000
SCALARS Distance double
LOOKUP_TABLE default
141.236 141.272 141.093 140.75 141.322 141.137 140.792 140.585 140.194 
141.395 141.192 140.85 140.637 140.228 139.993 139.562 141.522 141.271 
140.916 140.699 140.287 140.029 139.56 139.327 138.897 141.663 141.386 
140.961 140.743 140.324 140.085 139.61 139.342 138.884 138.671 138.264 
141.702 141.472 140.997 140.763 140.328 140.108 139.666 139.408 138.944 
138.688 138.249 138.037 137.612 141.643 141.471 141.062 140.818 140.4 
140.143 139.724 139.468 139.015 138.75 138.266 138.021 137.541 137.343 
136.897 141.582 141.447 141.136 140.924 140.544 140.264 139.813 139.53 
139.038 138.78 138.259 138.01 137.487 137.263 136.789 136.62 136.221 
141.494 141.408 141.124 140.987 140.608 140.378 139.865 139.58 139.003 
138.744 138.184 137.957 137.437 137.215 136.752 136.549 136.16 136 
135.67 141.528 141.975 141.694 141.581 142.538 142.206 142.127 141.783 
141.659 143.187 142.829 142.755 142.384 142.257 141.876 141.743 143.681 
143.396 143.22 142.936 142.779 142.471 142.346 141.999 141.903 143.914 
143.714 143.398 143.189 142.936 142.81 142.718 142.563 142.53 142.217 
142.113 144.064 143.89 143.592 143.3 142.978 142.824 142.742 142.762 
142.829 142.753 142.698 142.372 142.152 144.246 144.106 143.965 143.626 
143.383 143.028 142.942 142.81 142.919 142.917 142.947 142.804 142.602 
142.278 141.999 144.39 144.316 144.26 144.049 143.918 143.591 143.514 
143.219 143.251 143.082 143.104 142.97 142.841 142.617 142.372 142.079 
141.858 144.417 144.401 144.308 144.241 144.112 144 143.896 143.736 
143.64 143.448 143.321 143.146 142.991 142.82 142.633 142.409 142.202 
141.944 141.753 144.345 144.031 144.21 144.189 143.543 143.796 143.784 
143.997 143.987 142.922 143.24 143.222 143.513 143.548 143.809 143.83 
142.212 142.585 142.618 142.937 142.976 143.297 143.365 143.637 143.607 
141.537 141.92 142.116 142.44 142.572 142.788 142.822 143.078 143.078 
143.335 143.241 140.962 141.336 141.672 142.07 142.392 142.569 142.618 
142.654 142.591 142.76 142.738 142.963 142.888 140.411 140.787 141.087 
141.598 141.975 142.37 142.476 142.546 142.39 142.399 142.319 142.489 
142.495 142.67 142.585 139.831 140.196 140.359 140.874 141.105 141.695 
141.784 142.169 141.984 142.135 141.916 142.091 142.028 142.262 142.208 
142.356 142.198 139.239 139.575 139.634 140.054 140.117 140.654 140.663 
141.203 141.066 141.462 141.232 141.535 141.376 141.694 141.604 141.883 
141.75 141.916 141.73 141.42 141.365 141.221 140.81 141.187 141.081 
140.637 140.51 140.022 140.945 140.846 140.412 140.308 139.83 139.671 
139.126 140.704 140.576 140.118 140.052 139.59 139.471 138.918 138.732 
138.169 140.417 140.285 139.737 139.698 139.208 139.165 138.604 138.476 
137.877 137.756 137.258 140.044 139.936 139.345 139.28 138.757 138.724 
138.165 138.087 137.489 137.407 136.893 136.865 136.432 139.642 139.56 
139.019 138.913 138.402 138.312 137.783 137.67 137.102 137 136.488 
136.463 136.031 136.028 135.591 139.264 139.208 138.723 138.616 138.11 
138.001 137.496 137.368 136.843 136.69 136.184 136.083 135.643 135.615 
135.203 135.181 134.775 138.908 138.873 138.42 138.325 137.809 137.701 
137.192 137.095 136.611 136.487 136.01 135.858 135.404 135.288 134.879 
134.821 134.452 134.428 134.112 141.296 140.721 141.008 140.921 139.912 
140.311 140.224 140.549 140.372 138.973 139.407 139.285 139.703 139.507 
139.852 139.575 138.052 138.462 138.365 138.753 138.576 138.912 138.642 
138.96 138.673 137.208 137.589 137.555 137.92 137.822 138.089 137.855 
138.072 137.799 138.081 137.852 136.366 136.749 136.67 137.096 137.007 
137.367 137.159 137.38 137.091 137.293 137.055 137.331 137.143 135.479 
135.85 135.67 136.108 135.947 136.42 136.218 136.596 136.316 136.59 
136.333 136.595 136.406 136.678 136.508 134.673 134.967 134.784 135.115 
134.961 135.355 135.216 135.606 135.414 135.746 135.533 135.846 135.677 
135.975 135.826 136.088 135.942 134.053 134.267 134.145 134.367 134.279 
134.541 134.487 134.769 134.676 134.931 134.78 135.05 134.912 135.227 
135.113 135.414 135.292 135.557 135.446 133.707 133.173 133.583 133.808 
132.433 132.971 133.271 133.697 133.946 131.639 132.147 132.471 133.055 
133.397 133.862 134.141 131.15 131.442 131.67 132.189 132.57 133.193 
133.561 134.045 134.298 130.856 131.075 131.224 131.528 131.836 132.358 
132.78 133.361 133.69 134.144 134.37 130.478 130.742 130.901 131.166 
131.408 131.775 132.158 132.642 133.038 133.506 133.806 134.216 134.488 
130.315 130.42 130.584 130.802 131.02 131.361 131.7 132.13 132.527 
132.951 133.299 133.686 133.996 134.388 134.698 130.567 130.478 130.603 
130.605 130.776 130.973 131.28 131.665 132.063 132.495 132.86 133.241 
133.552 133.921 134.23 134.615 134.908 130.818 130.776 130.853 130.77 
130.875 130.88 131.124 131.326 131.713 132.065 132.465 132.83 133.162 
133.504 133.81 134.168 134.474 134.829 135.101 133.536 133.021 133.18 
132.94 132.446 132.575 132.262 132.469 132.163 132.063 132.028 131.665 
131.77 131.488 131.674 131.434 132.036 131.817 131.443 131.325 131.062 
131.118 130.986 131.116 131.029 132.141 131.901 131.506 131.266 130.923 
130.835 130.649 130.743 130.65 130.805 130.708 132.151 131.962 131.527 
131.312 130.852 130.703 130.328 130.362 130.112 130.306 130.136 130.383 
130.267 132.19 131.957 131.538 131.297 130.848 130.619 130.192 130.051 
129.717 129.745 129.57 129.767 129.765 130.018 130.124 132.395 132.09 
131.726 131.407 131.06 130.743 130.451 130.13 129.904 129.631 129.543 
129.453 129.586 129.701 129.988 130.158 130.439 132.681 132.366 132.021 
131.685 131.372 131.066 130.869 130.572 130.475 130.128 130.108 129.794 
129.921 129.802 130.078 130.149 130.429 130.55 130.72 138.588 137.95 
138.217 138.083 137.305 137.548 137.36 137.628 137.449 136.663 136.894 
136.678 136.901 136.683 136.963 136.815 136.017 136.243 136.041 136.246 
136.02 136.234 136.063 136.363 136.257 135.38 135.593 135.382 135.605 
135.374 135.584 135.368 135.632 135.491 135.815 135.692 134.706 134.928 
134.672 134.912 134.642 134.881 134.602 134.879 134.666 135.014 134.865 
135.219 135.082 134.017 134.216 133.934 134.167 133.88 134.114 133.805 
134.055 133.786 134.121 133.948 134.345 134.227 134.609 134.521 133.451 
133.563 133.273 133.445 133.184 133.385 133.127 133.313 133.047 133.271 
133.075 133.418 133.326 133.738 133.7 134.101 134.09 133.021 133.069 
132.758 132.849 132.587 132.749 132.546 132.721 132.506 132.646 132.416 
132.622 132.488 132.849 132.843 133.282 133.331 133.738 133.784 138.728 
138.741 138.527 138.121 138.825 138.559 138.143 137.92 137.506 138.98 
138.678 138.232 137.963 137.537 137.303 136.871 139.094 138.827 138.362 
138.069 137.607 137.344 136.899 136.66 136.226 139.103 138.887 138.414 
138.156 137.666 137.41 136.957 136.709 136.277 136.033 135.611 139.081 
138.868 138.398 138.16 137.673 137.437 136.988 136.765 136.34 136.1 
135.655 135.41 134.956 139.093 138.868 138.423 138.167 137.709 137.453 
137.014 136.786 136.362 136.138 135.683 135.439 134.962 134.724 134.274 
139.112 138.903 138.49 138.236 137.797 137.526 137.082 136.826 136.385 
136.149 135.699 135.456 134.998 134.748 134.323 134.087 133.718 139.097 
138.923 138.53 138.307 137.869 137.613 137.144 136.883 136.409 136.166 
135.709 135.478 135.047 134.81 134.417 134.181 133.834 133.607 133.292 
138.947 138.511 138.624 138.381 138.033 138.152 137.881 137.997 137.708 
137.5 137.641 137.332 137.453 137.12 137.259 136.951 136.832 137.029 
136.702 136.863 136.492 136.628 136.278 136.461 136.18 136.086 136.274 
135.921 136.151 135.783 135.963 135.579 135.758 135.454 135.692 135.464 
135.445 135.531 135.116 135.318 134.96 135.196 134.829 135.033 134.71 
134.952 134.733 135.007 134.821 134.926 134.942 134.479 134.566 134.2 
134.392 134.093 134.295 134.009 134.22 134.004 134.275 134.123 134.395 
134.228 134.439 134.45 133.996 134.008 133.634 133.739 133.503 133.666 
133.468 133.61 133.398 133.581 133.413 133.684 133.549 133.82 133.663 
133.996 134 133.592 133.576 133.206 133.252 133.015 133.161 133.011 
133.155 132.945 133.047 132.799 132.983 132.804 133.1 132.97 133.262 
133.118 133.665 133.109 133.34 133.263 132.595 132.796 132.69 132.926 
132.885 132.026 132.268 132.138 132.359 132.307 132.597 132.681 131.307 
131.638 131.513 131.771 131.67 131.985 132.067 132.473 132.655 130.534 
130.893 130.848 131.136 131.032 131.309 131.315 131.757 131.923 132.415 
132.561 130.01 130.244 130.348 130.592 130.636 130.788 130.782 131.032 
131.133 131.582 131.743 132.23 132.367 129.971 129.987 130.187 130.313 
130.52 130.599 130.699 130.73 130.804 130.958 131.104 131.441 131.652 
132.091 132.344 130.308 130.175 130.307 130.303 130.445 130.536 130.639 
130.722 130.78 130.83 130.906 131.027 131.21 131.498 131.798 132.206 
132.536 130.652 130.517 130.465 130.388 130.282 130.343 130.257 130.462 
130.44 130.674 130.689 130.872 130.955 131.172 131.393 131.73 132.045 
132.443 132.733 133.804 133.866 133.632 133.263 133.954 133.713 133.322 
133.107 132.752 133.989 133.783 133.383 133.164 132.76 132.563 132.165 
134.039 133.811 133.428 133.206 132.772 132.545 132.072 131.889 131.418 
134.279 133.946 133.539 133.25 132.797 132.541 132.055 131.813 131.3 
131.088 130.619 134.644 134.276 133.82 133.417 132.886 132.555 132.088 
131.844 131.407 131.105 130.636 130.361 130.042 134.92 134.623 134.194 
133.759 133.182 132.713 132.204 131.909 131.569 131.311 130.943 130.569 
130.235 129.983 129.934 135.099 134.852 134.507 134.146 133.658 133.13 
132.594 132.138 131.775 131.501 131.226 130.926 130.637 130.32 130.227 
130.094 130.264 135.294 135.038 134.741 134.457 134.092 133.654 133.181 
132.65 132.219 131.802 131.508 131.207 130.98 130.71 130.605 130.439 
130.544 130.503 130.681 134.207 134.902 134.449 134.28 135.714 135.212 
135.047 134.568 134.395 136.603 136.082 135.945 135.412 135.21 134.672 
134.437 137.504 136.99 136.873 136.349 136.177 135.572 135.291 134.695 
134.476 138.384 137.879 137.74 137.248 137.127 136.58 136.366 135.683 
135.427 134.815 134.713 139.252 138.769 138.631 138.107 137.988 137.5 
137.391 136.805 136.592 135.898 135.699 135.125 135.06 140.055 139.652 
139.597 139.06 138.938 138.39 138.29 137.779 137.637 137.038 136.795 
136.151 135.936 135.418 135.3 140.716 140.422 140.45 140.028 139.953 
139.401 139.258 138.695 138.543 137.996 137.79 137.189 136.927 136.319 
136.099 135.598 135.465 141.27 141.031 141.071 140.784 140.749 140.34 
140.203 139.672 139.475 138.907 138.7 138.129 137.904 137.303 137.069 
136.474 136.287 135.78 135.669 141.613 142.059 141.672 141.37 142.457 
142.064 141.672 141.366 141.032 142.665 142.364 141.91 141.611 141.232 
140.959 140.538 142.567 142.429 141.994 141.775 141.371 141.125 140.694 
140.379 139.846 142.289 142.238 141.854 141.747 141.346 141.188 140.737 
140.488 139.943 139.615 139.036 142.05 141.986 141.616 141.534 141.122 
141.041 140.575 140.43 139.879 139.642 139.057 138.78 138.218 141.858 
141.794 141.414 141.3 140.862 140.767 140.308 140.199 139.675 139.502 
138.941 138.735 138.186 137.947 137.398 141.624 141.59 141.208 141.097 
140.648 140.528 140.098 139.974 139.51 139.32 138.789 138.584 138.061 
137.87 137.356 137.123 136.607 141.359 141.335 140.967 140.874 140.441 
140.326 139.924 139.816 139.411 139.229 138.73 138.48 137.954 137.742 
137.265 137.07 136.607 136.377 135.946 141.115 140.585 140.807 140.683 
140.007 140.233 140.079 140.307 140.158 139.384 139.628 139.471 139.696 
139.547 139.781 139.662 138.725 138.978 138.81 139.058 138.885 139.148 
139.007 139.287 139.144 138.064 138.299 138.082 138.34 138.111 138.407 
138.204 138.541 138.347 138.67 138.439 137.392 137.618 137.356 137.585 
137.322 137.59 137.367 137.685 137.482 137.807 137.576 137.884 137.65 
136.702 136.928 136.679 136.881 136.632 136.844 136.647 136.902 136.741 
137.003 136.813 137.062 136.855 137.136 136.963 136.051 136.256 136.047 
136.245 136.035 136.221 136.031 136.246 136.08 136.32 136.134 136.365 
136.155 136.397 136.209 136.494 136.333 135.49 135.649 135.447 135.641 
135.451 135.648 135.45 135.647 135.428 135.647 135.408 135.656 135.421 
135.689 135.487 135.764 135.594 135.877 135.72 135.329 135.192 135.084 
134.752 135.036 134.911 134.531 134.48 134.103 134.903 134.72 134.262 
134.196 133.787 133.744 133.259 134.89 134.619 134.108 133.933 133.497 
133.416 132.959 132.845 132.336 134.978 134.678 134.191 133.891 133.456 
133.236 132.82 132.624 132.161 131.987 131.576 135.041 134.788 134.338 
134.04 133.615 133.33 132.938 132.647 132.228 131.938 131.538 131.35 
131.055 135.039 134.827 134.379 134.142 133.701 133.471 133.063 132.815 
132.404 132.107 131.718 131.439 131.159 130.962 130.781 135.048 134.83 
134.398 134.159 133.723 133.501 133.085 132.877 132.453 132.228 131.821 
131.608 131.317 131.147 131.002 130.834 130.763 135.129 134.89 134.508 
134.235 133.844 133.571 133.195 132.931 132.533 132.264 131.844 131.627 
131.293 131.196 131.023 130.999 130.935 130.867 130.827 144.421 144.341 
144.355 144.247 144.192 144.213 144.086 144.106 144.026 144.122 144.11 
144.006 143.962 143.925 143.969 144.048 144.095 144.129 144.124 144.014 
143.992 143.947 144.06 144.117 144.22 143.831 144.045 144.118 144.162 
144.166 144.105 144.148 144.147 144.205 144.222 144.102 143.221 143.58 
143.62 143.944 143.973 144.15 144.15 144.208 144.187 144.184 144.048 
143.949 143.615 142.543 142.868 142.865 143.258 143.29 143.681 143.707 
143.999 143.987 144.116 144 143.933 143.644 143.424 143.012 142.029 
142.264 142.283 142.559 142.592 142.931 142.969 143.354 143.385 143.726 
143.67 143.813 143.568 143.465 143.065 142.831 142.407 141.609 141.829 
141.868 142.087 142.112 142.342 142.344 142.633 142.642 143.009 142.984 
143.305 143.123 143.242 142.878 142.803 142.378 142.215 141.837 144.371 
144.226 144.283 144.131 144.029 144.088 143.961 143.946 143.672 144.04 
143.964 143.808 143.746 143.486 143.427 143.117 144.171 144.059 143.83 
143.655 143.334 143.228 142.922 142.871 142.562 143.975 144.045 143.765 
143.662 143.262 143.11 142.746 142.666 142.341 142.289 141.932 143.372 
143.579 143.262 143.379 142.973 142.959 142.568 142.507 142.161 142.076 
141.707 141.616 141.238 142.7 142.869 142.529 142.715 142.361 142.502 
142.162 142.241 141.925 141.906 141.548 141.434 141.048 140.942 140.603 
142.119 142.232 141.907 142.035 141.743 141.882 141.614 141.753 141.489 
141.583 141.261 141.246 140.856 140.772 140.405 140.342 140.043 141.611 
141.701 141.414 141.508 141.258 141.365 141.137 141.247 141.001 141.104 
140.801 140.864 140.492 140.499 140.118 140.108 139.782 139.781 139.506 
144.324 144.073 144.179 144.021 143.594 143.81 143.681 143.786 143.542 
143.027 143.259 143.13 143.337 143.144 143.245 142.929 142.476 142.695 
142.538 142.741 142.565 142.761 142.505 142.572 142.192 141.851 142.121 
141.952 142.15 141.938 142.149 141.946 142.106 141.792 141.812 141.449 
141.153 141.45 141.307 141.539 141.309 141.51 141.3 141.525 141.314 
141.421 141.106 141.113 140.828 140.516 140.77 140.652 140.892 140.699 
140.884 140.66 140.876 140.701 140.914 140.689 140.772 140.469 140.516 
140.274 139.964 140.176 140.048 140.269 140.104 140.294 140.089 140.27 
140.083 140.299 140.106 140.282 140.004 140.107 139.808 139.928 139.7 
139.44 139.635 139.482 139.681 139.502 139.703 139.507 139.704 139.512 
139.711 139.51 139.689 139.427 139.566 139.266 139.405 139.147 139.323 
139.118 134.338 134.827 134.729 135.051 135.366 135.278 135.626 135.497 
135.85 135.894 135.831 136.222 136.105 136.454 136.329 136.714 136.477 
136.371 136.757 136.67 137.018 136.918 137.284 137.205 137.609 137.156 
136.99 137.321 137.194 137.508 137.418 137.762 137.727 138.135 138.096 
138.496 137.79 137.645 137.936 137.778 138.064 137.921 138.248 138.179 
138.589 138.58 139.005 138.959 139.331 138.304 138.203 138.486 138.364 
138.661 138.519 138.864 138.737 139.151 139.073 139.501 139.442 139.811 
139.746 140.071 138.77 138.682 138.979 138.883 139.21 139.111 139.486 
139.382 139.791 139.687 140.081 139.972 140.304 140.201 140.488 140.422 
140.7 139.201 139.137 139.444 139.373 139.722 139.654 140.043 139.975 
140.36 140.28 140.618 140.522 140.795 140.685 140.92 140.825 141.069 
141.009 141.264 
POINT_DATA 1002
SCALARS Distance double
LOOKUP_TABLE default
140.918 141.384 141.407 140.955 141.455 140.379 141.002 141.512 140.423 
139.782 141.063 141.613 140.487 139.777 139.128 141.137 141.818 140.55 
139.824 139.078 138.485 141.206 141.968 140.543 139.881 139.125 138.451 
137.858 141.242 141.898 140.543 139.9 139.219 138.492 137.807 137.173 
141.275 141.758 140.67 139.987 139.286 138.542 137.766 137.051 136.467 
141.308 141.681 140.828 140.135 139.317 138.511 137.723 136.973 136.344 
135.854 141.238 141.565 140.826 140.171 139.289 138.404 137.638 136.951 
136.333 135.804 135.355 141.794 141.882 142.25 142.487 142.878 142.012 
143.125 143.56 142.654 142.106 143.505 143.98 143.033 142.654 142.279 
143.66 144.104 143.031 142.746 142.758 142.556 143.909 144.183 143.21 
142.696 142.785 142.948 142.593 144.229 144.329 143.76 143.181 142.952 
143.022 142.873 142.344 144.393 144.45 144.162 143.836 143.527 143.275 
143.018 142.635 142.138 144.361 144.442 144.172 144.005 143.849 143.545 
143.146 142.809 142.456 142.015 144.234 144.035 143.825 143.531 143.276 
143.786 142.914 142.579 143.224 143.637 142.265 141.795 142.676 143.031 
143.428 141.703 141.116 142.383 142.66 142.776 143.033 141.188 140.582 
142.127 142.668 142.528 142.473 142.71 140.593 140.06 141.48 142.318 
142.444 142.2 142.286 142.491 139.936 139.5 140.548 141.287 141.747 
141.763 141.788 142.011 142.123 139.289 138.929 139.679 140.126 140.576 
140.877 141.057 141.285 141.518 141.611 141.086 140.966 140.379 140.76 
140.185 139.504 140.495 139.98 139.325 138.551 140.178 139.683 139.108 
138.322 137.634 139.8 139.235 138.707 137.998 137.312 136.829 139.432 
138.805 138.233 137.557 136.912 136.455 136.014 139.123 138.504 137.898 
137.219 136.53 136.022 135.616 135.143 138.824 138.223 137.603 136.987 
136.323 135.699 135.208 134.786 134.397 138.508 137.928 137.278 136.695 
136.153 135.554 134.959 134.469 134.102 133.837 140.701 139.853 140.121 
138.865 139.136 139.266 137.971 138.258 138.334 138.326 137.161 137.534 
137.676 137.557 137.514 136.257 136.594 136.893 136.909 136.81 136.841 
135.279 135.475 135.774 135.987 136.053 136.136 136.242 134.479 134.593 
134.818 135.058 135.198 135.349 135.548 135.689 133.926 134.031 134.215 
134.431 134.539 134.604 134.785 135.008 135.18 133.357 133.467 132.695 
132.753 131.85 133.595 131.84 131.227 132.82 133.78 131.26 130.964 
131.911 132.981 133.926 131.001 130.606 131.414 132.185 133.178 133.969 
130.62 130.209 131.085 131.727 132.564 133.373 134.076 130.433 130.306 
130.702 131.274 132.101 132.917 133.609 134.303 130.696 130.702 130.683 
130.945 131.621 132.468 133.198 133.852 134.537 130.932 130.822 130.932 
131.013 131.414 132.105 132.824 133.464 134.116 134.771 133.414 132.768 
132.882 132.075 132.382 131.945 131.628 132.182 131.292 131.227 131.644 
132.284 131.058 130.836 130.897 131.778 132.365 131.099 130.613 130.5 
130.556 131.744 132.344 131.06 130.398 129.975 129.865 129.988 131.785 
132.442 131.087 130.398 129.781 129.397 129.449 129.859 132.043 132.7 
131.35 130.745 130.214 129.719 129.513 129.797 130.311 132.357 132.987 
131.664 131.105 130.76 130.454 130.152 130.098 130.34 130.639 138.33 
137.814 137.708 137.124 137.084 137.142 136.475 136.431 136.438 136.471 
135.824 135.798 135.827 135.795 135.923 135.16 135.183 135.165 135.132 
135.179 135.371 134.443 134.492 134.414 134.349 134.329 134.492 134.733 
133.713 133.845 133.647 133.581 133.488 133.543 133.812 134.137 133.133 
133.376 132.975 132.93 132.872 132.784 132.901 133.266 133.699 138.926 
138.326 138.974 138.378 139.124 137.727 138.534 139.284 137.786 137.099 
138.664 139.336 137.888 137.148 136.45 138.661 139.313 137.917 137.195 
136.53 135.852 138.631 139.3 137.903 137.199 136.571 135.919 135.195 
138.672 139.307 137.967 137.257 136.588 135.926 135.206 134.486 138.73 
139.3 138.068 137.355 136.634 135.934 135.237 134.553 133.933 138.738 
139.253 138.123 137.415 136.662 135.932 135.263 134.641 134.059 133.513 