# vtk DataFile Version 4.0
vtk output
ASCII
DATASET POLYDATA
POINTS 1002 float
-76.6581 -101.228 58.2075 -76.8217 -101.856 58.6581 -76.2209 -101.604 58.6246 
-76.0564 -100.846 58.2506 -75.5477 -101.225 58.6012 -76.5683 -100.525 57.8199 
-75.447 -100.52 58.1508 -74.8274 -100.906 58.4036 -75.9754 -100.218 57.736 
-76.5619 -100.121 57.1642 -74.7779 -100.378 57.8139 -74.0906 -100.691 58.1033 
-75.4018 -100.065 57.423 -75.9668 -99.8943 56.8842 -76.5462 -99.8686 56.2278 
-73.9742 -100.263 57.4088 -73.3527 -100.52 57.763 -74.6726 -100.02 56.9481 
-75.3434 -99.6788 56.4979 -75.923 -99.5171 55.9302 -76.488 -99.4384 55.2864 
-73.1921 -100.112 56.9187 -72.7361 -100.511 57.1834 -73.7821 -99.8767 56.4567 
-74.4965 -99.511 56.0334 -75.2276 -99.2031 55.5732 -75.8487 -99.1523 54.9152 
-76.458 -99.1245 54.2554 -72.6751 -100.145 56.2169 -72.3074 -100.668 56.4212 
-73.1201 -99.7453 55.8779 -73.6556 -99.3776 55.4763 -74.3696 -99.1038 55.0074 
-75.1466 -99.0251 54.3802 -75.8303 -99.0156 53.6961 -76.4301 -98.9582 53.1459 
-72.2497 -100.268 55.5104 -71.8681 -100.707 55.8059 -72.7212 -99.8385 55.1881 
-73.1768 -99.3974 54.812 -73.6746 -99.1171 54.2806 -74.3619 -99.0129 53.6565 
-75.1571 -98.8419 53.117 -75.8241 -98.6168 52.7093 -76.3311 -98.5014 52.3478 
-71.6725 -100.193 55.0034 -71.3204 -100.536 55.3797 -72.1865 -99.933 54.5621 
-72.7513 -99.5818 54.1173 -73.2398 -99.1968 53.5752 -73.7311 -98.9509 52.9758 
-74.4293 -98.6507 52.5739 -75.2018 -98.2115 52.3875 -75.7858 -97.93 52.1812 
-76.2324 -97.913 51.8459 -71.0874 -100.006 54.5955 -70.8177 -100.368 54.9478 
-71.534 -99.8385 54.0874 -72.116 -99.6767 53.5388 -72.7142 -99.3126 52.9991 
-73.2145 -98.8714 52.4947 -73.7657 -98.4681 52.1743 -74.5132 -98.0168 52.0693 
-75.235 -97.6402 51.9558 -75.7658 -97.5292 51.6729 -76.232 -97.6058 51.2915 
-76.6003 -102.183 59.2001 -75.8803 -101.964 59.1027 -76.2163 -102.358 59.8331 
-75.3831 -102.196 59.6787 -75.7372 -102.552 60.4543 -75.0481 -101.647 58.9503 
-74.93 -102.544 60.2126 -75.3916 -103.072 60.845 -74.5048 -102.075 59.3717 
-74.2369 -101.39 58.6415 -74.6453 -103.15 60.5055 -75.1619 -103.848 60.9128 
-74.1505 -102.585 59.8253 -73.7883 -102.01 58.9306 -73.542 -101.206 58.3027 
-74.2843 -103.75 60.6383 -74.79 -104.473 60.9878 -73.7986 -103.042 60.2213 
-73.5118 -102.58 59.3244 -73.2408 -101.978 58.4163 -72.9292 -101.143 57.8377 
-73.8029 -104.236 60.8226 -74.2602 -104.887 61.2912 -73.2269 -103.455 60.4931 
-73.0137 -102.953 59.7351 -73.003 -102.635 58.5905 -72.7585 -102.021 57.7227 
-72.4383 -101.247 57.118 -73.4496 -104.756 60.9433 -73.7683 -105.273 61.527 
-72.8243 -104.068 60.5213 -72.4204 -103.464 59.9079 -72.5051 -103.101 58.8455 
-72.5509 -102.682 57.7605 -72.2915 -102.021 57.0186 -72.0115 -101.309 56.4304 
-73.1571 -105.257 60.8833 -73.3751 -105.647 61.4829 -72.7016 -104.762 60.3408 
-72.2145 -104.212 59.7685 -72.0387 -103.673 58.9898 -72.0552 -103.118 58.0593 
-71.959 -102.511 57.2017 -71.736 -101.859 56.5184 -71.4965 -101.171 55.9454 
-72.7191 -105.635 60.8102 -73.0199 -105.976 61.3218 -72.404 -105.283 60.2398 
-72.1132 -104.875 59.6293 -71.8581 -104.305 59.0144 -71.5771 -103.566 58.3894 
-71.3506 -102.836 57.6373 -71.2632 -102.235 56.7845 -71.1623 -101.64 56.0472 
-70.9695 -100.971 55.4796 -72.3229 -106.077 60.9819 -71.8478 -105.735 60.5075 
-71.4377 -106.17 60.7803 -70.9186 -105.919 60.2822 -70.8138 -106.28 60.3533 
-71.6255 -105.443 59.8687 -70.4201 -106.137 59.7322 -70.6985 -106.356 59.4028 
-70.9233 -105.618 59.5239 -71.6012 -104.959 59.1736 -70.4576 -106.125 58.6219 
-70.8272 -106.275 58.1212 -70.6132 -105.629 58.7995 -71.0543 -104.847 58.7385 
-71.3272 -104.119 58.6058 -70.6028 -105.794 57.2024 -70.9173 -106.012 56.8059 
-70.6097 -105.31 57.5066 -70.7074 -104.563 57.7931 -70.6778 -103.77 58.0296 
-70.8238 -103.188 57.9776 -70.5111 -105.468 55.8271 -70.8508 -105.738 55.5132 
-70.4616 -104.928 56.0615 -70.5121 -104.266 56.3257 -70.3903 -103.554 56.7435 
-70.3204 -102.918 57.0456 -70.6651 -102.497 57.0036 -70.2304 -105.328 54.5905 
-70.5861 -105.569 54.2692 -70.1078 -104.788 54.8589 -70.1689 -104.142 55.0134 
-70.2564 -103.494 55.2311 -70.317 -102.846 55.5597 -70.4561 -102.326 55.8199 
-70.7661 -101.953 55.9692 -69.9717 -105.184 53.4262 -70.2978 -105.4 53.1562 
-69.8642 -104.688 53.7521 -69.8624 -104.071 53.9814 -69.9195 -103.443 54.1086 
-70.1218 -102.752 54.2794 -70.3553 -102.152 54.5308 -70.5061 -101.721 54.8664 
-70.6827 -101.326 55.2339 -69.852 -104.951 52.3368 -70.1838 -105.177 52.2076 
-69.7832 -104.437 52.5768 -69.7824 -103.838 52.8541 -69.6553 -103.294 53.0901 
-69.6087 -102.634 53.3207 -69.8133 -101.933 53.5643 -70.0706 -101.458 53.8584 
-70.2638 -101.086 54.2758 -70.4894 -100.678 54.701 -70.56 -100.069 54.2051 
-70.1842 -100.436 53.8458 -70.4446 -99.9566 53.2643 -69.807 -100.829 53.3862 
-69.9449 -100.314 52.8358 -70.3385 -99.8722 52.2355 -69.4307 -101.196 53.0154 
-69.4072 -100.641 52.4339 -69.7383 -100.128 51.8044 -70.1457 -99.6334 51.231 
-69.1801 -101.833 52.6721 -69.0455 -101.158 52.1104 -69.3354 -100.507 51.5017 
-69.6723 -99.8776 50.8414 -70.1751 -99.4488 50.2703 -69.2604 -102.604 52.2421 
-68.9772 -102.035 51.6511 -69.2262 -101.363 51.213 -69.6032 -100.508 50.5817 
-69.9469 -99.8632 49.8899 -70.6797 -99.5647 49.4686 -69.5679 -103.118 51.8447 
-69.1638 -102.69 51.0918 -69.1579 -102.322 50.7535 -69.5922 -101.533 50.2945 
-69.9436 -100.615 49.5462 -70.4717 -100.072 49.0555 -71.3872 -99.7948 48.9628 
-69.7124 -103.657 51.5542 -69.4032 -103.091 50.6684 -69.1558 -102.818 50.2534 
-69.4293 -102.308 49.9348 -69.8602 -101.411 49.2513 -70.2959 -100.651 48.6572 
-71.0902 -100.239 48.5551 -72.027 -99.9119 48.5876 -69.7209 -104.391 51.3698 
-69.5309 -103.848 50.4252 -69.3027 -103.436 49.8377 -69.4347 -102.898 49.5298 
-69.8567 -102.06 49.0326 -70.2544 -101.231 48.4475 -70.8837 -100.691 48.2302 
-71.8068 -100.334 48.2478 -72.5781 -99.9381 48.0907 -69.9416 -104.912 51.3171 
-69.7192 -104.713 50.355 -69.513 -104.479 49.5695 -69.5991 -103.901 49.1125 
-70.025 -102.94 48.7647 -70.4497 -101.996 48.3652 -70.9165 -101.322 48.0955 
-71.6725 -100.839 47.9978 -72.4878 -100.415 47.8385 -73.0068 -99.953 47.4885 
-70.9099 -99.7658 53.7649 -70.8781 -99.6581 52.7927 -71.4004 -99.6347 53.1828 
-70.8131 -99.4714 51.7973 -71.3786 -99.3731 52.2643 -71.9974 -99.3784 52.6038 
-70.7451 -99.2014 50.7788 -71.3699 -98.9714 51.3554 -71.927 -98.8447 51.8068 
-72.5877 -98.8333 52.1436 -71.0644 -99.1545 49.842 -71.5046 -98.699 50.3585 
-71.9007 -98.2809 50.9819 -72.4392 -98.1377 51.5093 -73.1325 -98.2609 51.8667 
-71.7578 -99.3326 49.2494 -72.0046 -98.7503 49.5426 -72.1118 -98.0667 50.0226 
-72.3883 -97.6209 50.6681 -73.0527 -97.6465 51.2632 -73.8453 -97.8491 51.7141 
-72.3828 -99.4441 48.8297 -72.6263 -98.8747 49.0312 -72.6738 -98.1738 49.2842 
-72.7049 -97.4957 49.6918 -73.1215 -97.2853 50.2431 -73.9155 -97.4756 50.8803 
-74.6836 -97.5788 51.5001 -72.784 -99.4131 48.1964 -72.9949 -98.8308 48.3613 
-73.2191 -98.2629 48.6353 -73.3436 -97.6291 48.9643 -73.5074 -97.1388 49.2912 
-74.0288 -97.1828 49.731 -74.7761 -97.4375 50.4031 -75.3787 -97.4752 51.144 
-73.0654 -99.364 47.416 -73.1296 -98.691 47.4239 -73.4133 -98.1543 47.6884 
-73.8092 -97.7399 48.1739 -74.0388 -97.2196 48.6254 -74.2842 -96.8915 48.9469 
-74.8407 -97.0953 49.3538 -75.495 -97.4107 50.0133 -75.9494 -97.5009 50.751 
-73.3307 -99.6213 46.8212 -73.2755 -98.8514 46.6236 -73.6288 -99.3086 46.2926 
-73.5948 -98.4076 46.0609 -74.1967 -99.1615 46.0045 -73.3684 -98.0856 46.6099 
-74.2823 -98.2106 45.8225 -75.005 -99.1589 45.773 -73.8433 -97.6458 46.0643 
-73.8498 -97.6688 47.0184 -75.2689 -98.1605 45.7453 -75.8116 -99.1254 45.6036 
-74.7203 -97.4424 45.8377 -74.4805 -97.3417 46.5167 -74.3778 -97.3713 47.7096 
-76.3342 -98.0752 45.77 -76.6558 -99.068 45.6363 -75.8769 -97.2936 45.8208 
-75.4157 -97.0944 46.2128 -75.035 -97.0499 47.2842 -74.6632 -96.8674 48.3261 
-77.339 -98.1341 45.8543 -77.5532 -99.1709 45.7905 -76.9736 -97.2362 45.945 
-76.5077 -96.899 46.1678 -75.9801 -96.8098 46.984 -75.4737 -96.61 48.0765 
-75.0876 -96.6894 48.7702 -78.1207 -98.5319 46.0047 -78.2494 -99.4551 46.0438 
-77.8162 -97.5714 46.147 -77.4396 -96.9811 46.3917 -77.0407 -96.7692 46.9704 
-76.5996 -96.5939 47.937 -76.1591 -96.6467 48.7243 -75.7806 -97.0677 49.2662 
-78.6083 -99.0852 46.3472 -78.6998 -99.8006 46.4575 -78.4031 -98.2379 46.4762 
-78.1683 -97.4563 46.7645 -77.9514 -96.976 47.2058 -77.692 -96.7516 47.9494 
-77.3374 -96.7666 48.7526 -76.8642 -97.0883 49.3337 -76.3535 -97.4235 49.9469 
-78.9755 -99.5613 46.8424 -79.1135 -100.137 46.9364 -78.8079 -98.8914 46.9629 
-78.7031 -98.1301 47.2257 -78.6528 -97.4347 47.5318 -78.5207 -97.0042 48.0358 
-78.2541 -96.9054 48.7784 -77.8381 -97.1014 49.453 -77.2569 -97.4055 49.999 
-76.6617 -97.5737 50.6207 -73.099 -100.314 47.1498 -73.4556 -100.073 46.5719 
-73.0414 -100.753 46.7653 -73.4552 -100.583 46.2629 -72.9955 -101.33 46.4334 
-73.9419 -99.9458 46.1919 -73.5846 -101.267 45.9976 -73.2406 -102.045 46.3637 
-74.1853 -100.605 45.8815 -74.7468 -99.9619 45.8497 -74.0069 -102.087 46.0164 
-73.6096 -102.815 46.4459 -74.482 -101.408 45.5495 -75.1145 -100.67 45.3691 
-75.53 -99.9596 45.4392 -74.4256 -102.791 46.2237 -73.8311 -103.595 46.4156 
-74.8485 -102.225 45.6098 -75.3253 -101.486 45.0479 -75.7971 -100.624 45.0208 
-76.1568 -99.9038 45.3291 -74.7946 -103.449 46.3703 -74.1701 -104.338 46.4062 
-75.2223 -102.827 46.008 -75.5824 -102.318 45.3219 -76.0452 -101.473 45.0289 
-76.457 -100.639 45.2643 -76.9445 -99.9426 45.59 -75.342 -104.249 46.4442 
-74.7915 -104.904 46.6529 -75.7387 -103.505 46.3126 -76.0652 -103.019 45.8732 
-76.5547 -102.413 45.4606 -76.987 -101.561 45.4936 -77.3076 -100.786 45.7589 
-77.7735 -100.091 45.9426 -75.904 -104.936 46.6403 -75.392 -105.175 47.1693 
-76.322 -104.353 46.4174 -76.6875 -103.775 46.2008 -77.2082 -103.234 45.9062 
-77.6803 -102.512 45.8049 -77.8412 -101.69 45.9813 -78.0056 -100.927 46.2263 
-78.3711 -100.284 46.3663 -76.2742 -105.184 47.1743 -75.7925 -105.169 47.8959 
[...]
CELL_DATA 2000
SCALARS Distance double
LOOKUP_TABLE default
138.998 138.409 138.557 138.248 137.754 137.94 137.654 137.813 137.58 
137.089 137.299 137.062 137.23 136.998 137.188 137.001 136.411 136.64 
136.42 136.632 136.383 136.581 136.338 136.569 136.338 135.752 135.944 
135.682 135.93 135.651 135.892 135.607 135.856 135.606 135.858 135.637 
135.234 135.324 135.024 135.19 134.895 135.108 134.828 135.086 134.863 
135.135 134.949 135.201 135.028 134.796 134.857 134.557 134.635 134.349 
134.444 134.173 134.344 134.139 134.4 134.23 134.507 134.314 134.583 
134.377 134.256 134.372 134.068 134.192 133.924 134.004 133.723 133.798 
133.544 133.714 133.513 133.768 133.561 133.83 133.604 133.881 133.675 
133.665 133.78 133.47 133.642 133.396 133.554 133.287 133.376 133.07 
133.163 132.896 133.075 132.872 133.104 132.927 133.158 133.005 133.245 
133.137 139.357 139.626 139.274 138.768 139.785 139.477 138.97 138.612 
138.067 140.035 139.654 139.164 138.788 138.241 137.877 137.354 140.452 
139.994 139.509 139.061 138.546 138.102 137.568 137.183 136.69 140.81 
140.393 139.857 139.432 138.925 138.487 137.979 137.503 136.985 136.556 
136.086 141.023 140.654 140.061 139.681 139.135 138.803 138.332 137.946 
137.451 136.965 136.463 136.012 135.588 141.203 140.853 140.292 139.869 
139.308 138.954 138.507 138.217 137.791 137.412 136.916 136.453 135.966 
135.552 135.137 141.33 141.045 140.565 140.163 139.648 139.217 138.765 
138.41 138 137.671 137.2 136.825 136.307 135.912 135.414 135.054 
134.597 141.354 141.136 140.702 140.416 139.964 139.598 139.152 138.751 
138.286 137.891 137.375 137.013 136.479 136.148 135.634 135.295 134.798 
134.46 134.005 141.209 140.745 140.833 140.544 140.309 140.369 140.089 
140.176 139.882 139.93 139.982 139.716 139.764 139.483 139.514 139.149 
139.464 139.587 139.305 139.382 139.026 139.077 138.642 138.683 138.221 
138.8 139.001 138.636 138.818 138.351 138.482 137.919 138.027 137.467 
137.62 137.169 138.03 138.23 137.778 137.983 137.462 137.649 137.065 
137.205 136.623 136.777 136.313 136.552 136.224 137.275 137.444 136.989 
137.123 136.62 136.754 136.245 136.369 135.874 135.988 135.565 135.736 
135.423 135.672 135.413 136.553 136.71 136.295 136.406 135.943 136.023 
135.55 135.638 135.18 135.292 134.877 135.036 134.692 134.909 134.618 
134.873 134.597 135.898 136.02 135.611 135.729 135.279 135.382 134.905 
134.993 134.498 134.597 134.125 134.293 133.903 134.144 133.826 134.085 
133.798 134.056 133.802 133.333 133.302 133.09 132.709 133.282 133.044 
132.603 132.479 132.152 133.3 132.997 132.488 132.331 131.935 131.878 
131.533 133.518 133.084 132.564 132.27 131.881 131.702 131.349 131.236 
130.945 133.927 133.419 132.941 132.519 132.219 131.874 131.609 131.264 
131.002 130.796 130.722 134.334 133.851 133.355 132.952 132.672 132.36 
132.165 131.76 131.484 131.073 130.924 130.78 130.904 134.706 134.238 
133.703 133.303 132.953 132.725 132.528 132.28 131.982 131.592 131.288 
131.032 131.018 131.035 131.216 135.102 134.647 134.18 133.704 133.361 
133.011 132.825 132.57 132.346 132.005 131.692 131.364 131.237 131.148 
131.288 131.34 131.477 135.477 135.09 134.757 134.302 134.065 133.601 
133.464 133.039 132.905 132.467 132.272 131.836 131.722 131.45 131.549 
131.477 131.649 131.597 131.628 133.256 132.658 132.963 133.062 132.146 
132.423 132.501 132.835 132.997 131.557 131.897 131.961 132.288 132.394 
132.769 132.901 130.957 131.272 131.341 131.69 131.734 132.111 132.179 
132.593 132.674 130.737 130.823 130.884 131.087 131.091 131.391 131.397 
131.809 131.892 132.343 132.472 130.973 130.863 130.907 130.842 130.783 
130.83 130.763 131.031 131.121 131.57 131.784 132.235 132.456 131.283 
131.171 131.174 131.02 130.902 130.73 130.566 130.551 130.571 130.873 
131.147 131.608 131.924 132.321 132.561 131.417 131.348 131.226 131.165 
131 130.891 130.705 130.551 130.451 130.485 130.659 131.018 131.385 
131.829 132.137 132.471 132.685 131.419 131.328 131.036 131.004 130.745 
130.801 130.659 130.671 130.565 130.498 130.49 130.617 130.864 131.272 
131.64 132.059 132.34 132.631 132.843 131.326 130.954 130.997 130.798 
130.787 130.61 130.293 130.439 130.417 130.999 130.58 130.142 130.032 
130.009 130.248 130.433 131.413 130.921 130.448 130.088 129.991 130.022 
130.251 130.422 130.541 131.874 131.397 130.981 130.524 130.343 130.17 
130.304 130.353 130.489 130.505 130.521 132.458 131.951 131.597 131.104 
130.894 130.591 130.628 130.515 130.629 130.554 130.657 130.607 130.823 
133.175 132.652 132.351 131.804 131.603 131.187 131.206 130.951 131.104 
130.896 131.101 130.936 131.253 131.189 131.597 133.898 133.422 133.203 
132.655 132.489 131.985 131.99 131.627 131.805 131.537 131.808 131.58 
131.922 131.759 132.136 132.038 132.362 134.58 134.156 134.013 133.535 
133.422 132.924 132.901 132.471 132.581 132.278 132.508 132.307 132.603 
132.446 132.738 132.592 132.831 132.699 132.89 131.54 131.769 131.544 
131.288 132.015 131.798 131.694 131.409 131.252 132.498 132.155 132.127 
131.883 131.919 131.573 131.527 133.276 132.827 132.8 132.443 132.505 
132.225 132.264 131.912 131.876 134.063 133.666 133.648 133.232 133.215 
132.845 132.834 132.534 132.534 132.229 132.244 134.8 134.432 134.446 
134.059 134.052 133.624 133.593 133.173 133.198 132.86 132.972 132.661 
132.799 135.647 135.245 135.311 134.879 134.949 134.508 134.59 134.103 
134.196 133.711 133.86 133.46 133.652 133.302 133.485 136.47 136.143 
136.257 135.827 135.929 135.482 135.642 135.191 135.36 134.852 134.974 
134.467 134.586 134.172 134.32 133.983 134.149 137.054 136.872 137.001 
136.714 136.805 136.45 136.576 136.214 136.363 135.96 136.039 135.56 
135.579 135.111 135.176 134.799 134.94 134.627 134.799 135.535 135.473 
135.325 134.934 135.438 135.318 135.053 134.817 134.404 135.525 135.34 
135.147 134.981 134.677 134.336 133.861 135.881 135.555 135.304 135.081 
134.791 134.554 134.104 133.753 133.222 136.236 135.955 135.621 135.295 
134.897 134.615 134.175 133.902 133.399 133.07 132.558 136.257 136.142 
135.804 135.563 135.104 134.764 134.29 133.984 133.574 133.263 132.843 
132.467 132.066 136.232 136.082 135.776 135.612 135.209 134.94 134.472 
134.162 133.755 133.474 133.128 132.808 132.472 132.106 131.861 136.504 
136.207 135.927 135.645 135.294 135.02 134.613 134.332 133.909 133.642 
133.237 133.004 132.65 132.437 132.176 131.965 131.826 136.918 136.605 
136.34 135.957 135.592 135.21 134.82 134.496 134.107 133.8 133.366 
133.07 132.651 132.464 132.17 132.095 131.91 131.851 131.706 135.963 
136.613 136.123 135.843 137.395 136.837 136.504 136.001 135.751 138.21 
137.666 137.363 136.76 136.456 135.95 135.822 138.97 138.465 138.217 
137.659 137.385 136.785 136.611 136.154 136.183 139.718 139.217 138.978 
138.482 138.261 137.722 137.525 137.015 136.926 136.551 136.53 140.424 
139.964 139.734 139.249 139.043 138.551 138.346 137.86 137.667 137.244 
137.068 136.729 136.55 141.014 140.633 140.443 140.004 139.808 139.333 
139.12 138.626 138.394 137.922 137.687 137.257 137.042 136.674 136.532 
141.537 141.202 141.044 140.666 140.49 140.071 139.871 139.395 139.164 
138.656 138.428 137.931 137.736 137.278 137.16 136.783 136.779 142.039 
141.734 141.599 141.245 141.08 140.703 140.53 140.116 139.917 139.44 
139.223 138.718 138.526 138.041 137.902 137.48 137.432 137.108 137.146 
142.277 142.508 142.225 141.853 142.717 142.443 142.051 141.744 141.326 
142.946 142.653 142.276 141.948 141.515 141.2 140.78 143.268 142.926 
142.562 142.205 141.773 141.412 140.958 140.641 140.192 143.549 143.247 
142.83 142.488 142.01 141.652 141.135 140.802 140.293 139.999 139.508 
143.505 143.385 142.907 142.654 142.085 141.783 141.187 140.896 140.331 
140.06 139.542 139.284 138.806 143.156 143.181 142.75 142.597 142.01 
141.751 141.145 140.884 140.35 140.088 139.597 139.321 138.859 138.603 
138.184 142.816 142.835 142.517 142.407 141.91 141.667 141.145 140.884 
140.476 140.205 139.824 139.479 139.048 138.704 138.303 138.039 137.708 
142.655 142.6 142.334 142.232 141.846 141.635 141.217 140.972 140.665 
140.431 140.161 139.826 139.434 139.002 138.567 138.212 137.886 137.646 
137.407 142.519 142.046 142.251 142.122 141.482 141.727 141.636 141.825 
141.651 140.907 141.186 141.148 141.353 141.223 141.332 141.11 140.115 
140.526 140.466 140.809 140.688 140.898 140.718 140.821 140.622 139.073 
139.559 139.426 139.921 139.747 140.172 139.976 140.313 140.139 140.344 
140.117 138.051 138.472 138.297 138.765 138.562 139.048 138.839 139.342 
139.181 139.64 139.431 139.703 139.355 137.103 137.484 137.291 137.683 
137.499 137.91 137.755 138.198 138.094 138.572 138.448 138.848 138.585 
138.82 138.465 136.157 136.531 136.331 136.711 136.559 136.955 136.884 
137.274 137.244 137.62 137.57 137.919 137.788 138.054 137.843 138.017 
137.793 135.288 135.612 135.436 135.782 135.662 136.06 136.042 136.47 
136.486 136.87 136.826 137.15 137.048 137.339 137.221 137.458 137.33 
137.491 137.344 142.726 142.978 142.652 142.239 143.101 142.821 142.284 
142.028 141.589 142.851 142.743 142.17 141.991 141.5 141.355 140.968 
142.336 142.333 141.826 141.771 141.331 141.239 140.819 140.694 140.221 
141.863 141.853 141.418 141.393 141.007 141 140.59 140.501 139.962 
139.808 139.216 141.427 141.46 141.061 141.028 140.599 140.602 140.156 
140.152 139.592 139.491 138.864 138.743 138.18 140.909 141.013 140.645 
140.66 140.186 140.157 139.636 139.632 139.07 139.035 138.42 138.35 
137.774 137.725 137.216 140.4 140.496 140.161 140.207 139.751 139.716 
139.174 139.124 138.573 138.523 137.95 137.882 137.308 137.271 136.749 
136.744 136.257 139.999 140.048 139.74 139.757 139.337 139.286 138.768 
138.692 138.169 138.1 137.578 137.477 136.926 136.825 136.298 136.26 
135.792 135.794 135.37 142.944 143.304 143.197 143.304 143.715 143.587 
143.796 143.62 143.574 144.162 144.006 144.14 144.058 144.07 143.761 
143.397 144.319 144.291 144.238 144.244 144.167 144.075 143.738 143.369 
142.827 144.247 144.25 144.091 144.108 143.872 143.925 143.595 143.5 
143.025 142.721 142.24 144.536 144.324 144.207 143.971 143.67 143.554 
143.225 143.212 142.862 142.77 142.362 142.135 141.725 145.081 144.852 
144.817 144.383 144.113 143.636 143.287 142.992 142.704 142.587 142.297 
142.164 141.789 141.577 141.175 145.186 145.24 145.209 145.016 144.785 
144.315 143.922 143.37 142.979 142.607 142.312 142.118 141.811 141.615 
141.239 141.012 140.65 144.834 145.03 144.937 145.063 144.847 144.763 
144.392 144.02 143.523 143.034 142.583 142.232 141.894 141.666 141.337 
141.105 140.76 140.532 140.233 144.643 144.36 144.498 144.595 144.063 
144.108 144.008 144.358 144.483 143.666 143.708 143.458 143.713 143.771 
144.192 144.184 143.13 143.241 142.975 143.149 143.109 143.475 143.478 
143.766 143.477 142.493 142.68 142.44 142.624 142.502 142.813 142.752 
143.051 142.805 142.943 142.537 141.783 142.026 141.782 142.008 141.822 
142.132 142.011 142.32 142.093 142.279 141.943 142.063 141.771 141.051 
141.307 141.082 141.314 141.112 141.394 141.25 141.557 141.368 141.595 
141.321 141.484 141.223 141.391 141.184 140.349 140.594 140.4 140.632 
140.452 140.7 140.551 140.819 140.651 140.893 140.662 140.863 140.619 
140.816 140.605 140.805 140.613 139.658 139.903 139.71 139.961 139.789 
140.048 139.888 140.143 139.963 140.203 139.988 140.205 139.975 140.187 
139.982 140.202 140.032 140.242 140.09 139.184 138.465 138.96 139.24 
137.821 138.271 138.575 139.049 139.347 137.252 137.68 137.96 138.406 
138.7 139.167 139.449 136.59 137.072 137.328 137.788 138.038 138.503 
138.77 139.248 139.507 135.875 136.348 136.602 137.099 137.358 137.835 
138.099 138.568 138.835 139.296 139.537 135.26 135.671 135.91 136.368 
136.648 137.14 137.441 137.922 138.208 138.653 138.901 139.325 139.545 
134.625 135.064 135.285 135.72 135.966 136.436 136.724 137.237 137.535 
138.025 138.283 138.715 138.945 139.351 139.576 133.921 134.375 134.596 
135.067 135.295 135.76 136.009 136.504 136.792 137.31 137.603 138.086 
138.359 138.786 139.046 139.429 139.665 133.354 133.709 133.929 134.362 
134.613 135.075 135.35 135.819 136.128 136.606 136.938 137.416 137.748 
138.208 138.522 138.933 139.205 139.552 139.767 139.716 139.149 139.445 
139.421 138.439 138.795 138.723 139.053 138.952 137.639 138.015 137.911 
138.264 138.113 138.471 138.338 136.829 137.198 137.095 137.432 137.266 
137.594 137.444 137.83 137.737 135.996 136.366 136.248 136.607 136.421 
136.743 136.552 136.925 136.81 137.236 137.146 135.151 135.489 135.301 
135.69 135.452 135.824 135.564 135.97 135.793 136.259 136.136 136.597 
136.477 134.38 134.644 134.408 134.727 134.463 134.799 134.51 134.903 
134.695 135.177 135.054 135.546 135.436 135.906 135.827 133.728 133.928 
133.718 133.935 133.708 133.917 133.653 133.91 133.701 134.092 133.991 
134.47 134.408 134.882 134.837 135.312 135.315 133.197 133.351 133.175 
133.343 133.146 133.294 133.043 133.193 132.954 133.204 133.062 133.457 
133.406 133.879 133.872 134.356 134.384 134.867 134.92 141.755 141.734 
141.942 142.312 141.661 141.907 142.296 142.492 142.887 141.541 141.829 
142.252 142.473 142.872 143.09 143.559 141.319 141.681 142.105 142.388 
142.749 143.012 143.419 143.748 144.27 140.909 141.358 141.754 142.139 
142.451 142.778 143.105 143.483 143.937 144.396 144.882 140.474 140.889 
141.295 141.712 142.053 142.407 142.747 143.118 143.598 144.039 144.558 
144.943 145.223 140.224 140.532 140.964 141.312 141.738 142.062 142.481 
142.811 143.345 143.761 144.35 144.706 145.037 145.17 145.128 140.049 
140.338 140.742 141.06 141.497 141.827 142.265 142.595 143.064 143.484 
143.987 144.437 144.743 144.986 144.949 144.958 144.77 139.761 140.101 
140.444 140.795 141.156 141.541 141.911 142.306 142.644 143.073 143.371 
143.866 144.049 144.476 144.447 144.677 144.545 144.629 144.589 141.898 
142.47 142.244 142.382 143.048 142.812 142.958 142.754 142.899 143.777 
143.47 143.598 143.322 143.45 143.23 143.273 144.636 144.332 144.502 
144.076 144.144 143.793 143.836 143.535 143.434 145.304 145.184 145.44 
145.063 145.054 144.561 144.485 144.11 144.03 143.653 143.426 145.435 
145.576 145.789 145.772 145.715 145.373 145.092 144.697 144.465 144.173 
143.947 143.577 143.242 145.086 145.34 145.383 145.69 145.656 145.697 
145.397 145.134 144.742 144.469 144.16 143.93 143.602 143.285 142.92 
144.703 144.849 144.811 145.091 145.137 145.394 145.338 145.3 145.04 
144.746 144.415 144.102 143.79 143.521 143.209 142.926 142.638 144.649 
144.622 144.636 144.679 144.759 144.938 145.064 145.206 145.215 145.086 
144.884 144.506 144.197 143.794 143.512 143.197 142.971 142.695 142.497 
141.564 142.063 141.591 141.148 142.604 142.141 141.678 141.158 140.695 
142.948 142.611 142.14 141.67 141.124 140.669 140.232 143.005 142.781 
142.289 141.984 141.408 141.017 140.477 140.146 139.721 142.913 142.712 
142.189 141.99 141.468 141.191 140.651 140.328 139.842 139.566 139.108 
142.753 142.575 142.061 141.877 141.437 141.227 140.769 140.47 139.967 
139.663 139.172 138.893 138.385 142.524 142.399 141.947 141.786 141.396 
141.229 140.825 140.574 140.064 139.756 139.211 138.931 138.402 138.135 
137.611 142.311 142.203 141.819 141.687 141.316 141.185 140.782 140.589 
140.075 139.801 139.23 138.947 138.399 138.133 137.611 137.357 136.863 
142.191 142.063 141.714 141.579 141.214 141.083 140.675 140.505 140.008 
139.772 139.234 138.966 138.446 138.162 137.656 137.37 136.887 136.634 
136.201 142.865 142.978 142.971 143.158 143.398 143.239 143.415 143.341 
143.616 143.871 143.789 144.053 143.838 144.081 143.934 144.189 143.927 
144.129 144.435 144.441 144.594 144.449 144.491 144.378 144.38 143.584 
143.941 144.204 144.495 144.551 144.643 144.45 144.442 144.229 144.28 
144.216 143.244 143.54 143.801 144.108 144.237 144.389 144.239 144.208 
143.974 144.003 144.009 144.172 144.414 143.021 143.256 143.541 143.791 
144.091 144.23 144.383 144.24 144.217 143.982 144.074 144.072 144.402 
144.582 144.932 142.796 143.035 143.289 143.56 143.899 144.18 144.547 
144.61 144.805 144.555 144.627 144.381 144.546 144.569 144.793 144.976 
145.072 142.552 142.788 143.009 143.271 143.548 143.905 144.272 144.632 
144.934 145.044 145.122 144.955 144.905 144.742 144.722 144.75 144.744 
144.882 144.801 
POINT_DATA 1002
SCALARS Distance double
LOOKUP_TABLE default
138.684 139.417 138.892 138.096 138.241 137.964 137.485 137.536 137.381 
137.397 136.877 136.855 136.825 136.788 136.821 136.188 136.191 136.197 
136.13 136.099 136.095 135.452 135.613 135.406 135.352 135.341 135.381 
135.437 134.908 135.183 134.713 134.568 134.566 134.684 134.785 134.863 
134.481 134.725 134.284 134.052 133.902 133.953 134.055 134.103 134.164 
133.911 134.134 133.813 133.678 133.441 133.291 133.297 133.333 133.375 
133.486 133.296 133.567 133.203 133.174 133.012 132.76 132.64 132.682 
132.766 132.875 133.049 139.761 139.17 139.947 139.315 140.095 138.426 
139.554 140.456 138.626 137.672 139.971 140.93 139.004 138.01 137.023 
140.278 141.224 139.323 138.449 137.478 136.455 140.462 141.382 139.445 
138.638 137.911 136.964 135.97 140.714 141.513 139.7 138.781 138.103 
137.361 136.425 135.505 140.909 141.568 140.074 139.17 138.347 137.551 
136.691 135.806 134.931 140.933 141.56 140.266 139.553 138.736 137.776 
136.799 135.949 135.148 134.314 141.134 140.434 140.669 140.006 140.255 
139.83 139.685 139.851 139.459 139.16 139.227 139.318 139.005 138.614 
138.152 138.461 138.624 138.224 137.828 137.316 136.933 137.608 137.861 
137.267 136.899 136.471 136.082 135.926 136.864 137.103 136.496 136.098 
135.739 135.415 135.201 135.143 136.165 136.392 135.858 135.476 135.078 
134.726 134.495 134.384 134.329 135.504 135.798 135.166 134.815 134.426 
133.99 133.661 133.553 133.542 133.526 132.906 132.839 132.383 132.753 
132.218 131.856 132.687 132.025 131.563 131.182 132.904 132.101 131.521 
130.966 130.689 133.365 132.555 132.003 131.307 130.737 130.743 133.763 
132.938 132.524 131.973 131.177 130.862 131.109 134.139 133.209 132.715 
132.346 131.63 131.061 131.135 131.406 134.637 133.766 133.111 132.651 
132.044 131.404 131.249 131.482 131.546 135.132 134.504 133.927 133.357 
132.71 132.063 131.699 131.702 131.766 131.576 132.687 132.202 132.617 
131.636 132.047 132.518 131.002 131.388 131.77 132.252 130.781 130.873 
131.016 131.408 132.018 131.068 130.875 130.604 130.671 131.286 132.049 
131.337 131.118 130.715 130.381 130.665 131.491 132.235 131.302 131.042 
130.842 130.562 130.412 130.902 131.764 132.414 131.138 130.671 130.523 
130.613 130.522 130.538 131.154 132.003 132.606 131.267 130.587 131.011 
130.234 131.117 130.06 130.39 131.491 129.805 130.165 130.886 131.866 
130.071 130.099 130.491 131.442 132.318 130.618 130.343 130.473 130.505 
132.096 132.964 131.254 130.813 130.731 130.687 130.779 132.896 133.665 
132.062 131.495 131.311 131.274 131.345 131.636 133.705 134.323 133.008 
132.399 132.078 132.029 132.124 132.298 132.477 134.441 134.977 133.893 
133.367 132.939 132.729 132.769 132.916 133.003 133.016 131.778 131.588 
131.942 131.865 132.239 131.63 132.363 132.893 132.155 131.974 133.226 
133.71 132.814 132.549 132.273 134.063 134.417 133.658 133.175 132.781 
132.55 134.818 135.167 134.458 134.041 133.564 133.25 133.118 135.754 
136.023 135.363 135.027 134.705 134.32 134.013 133.826 136.654 136.735 
136.366 136.058 135.843 135.533 135.069 134.677 134.459 137.229 137.201 
137.123 136.927 136.743 136.506 136.079 135.59 135.263 135.098 135.678 
135.167 135.577 135.213 135.527 134.781 135.282 135.768 134.95 134.303 
135.617 136.259 135.014 134.41 133.602 135.992 136.459 135.256 134.422 
133.696 132.902 135.978 136.337 135.442 134.615 133.836 133.193 132.437 
135.932 136.43 135.419 134.766 134.036 133.396 132.796 132.184 136.263 
136.822 135.588 134.878 134.197 133.496 132.822 132.333 132.012 136.415 
136.277 137.149 137.086 137.952 136.152 137.96 138.719 137.044 136.173 
138.719 139.474 137.973 137.139 136.524 139.46 140.22 138.756 138.055 
137.384 136.874 140.212 140.842 139.531 138.843 138.144 137.476 136.856 
140.849 141.355 140.27 139.625 138.893 138.147 137.439 136.831 141.404 
141.853 140.882 140.32 139.669 138.93 138.208 137.563 137.088 141.946 