# vtk DataFile Version 4.0
vtk output
ASCII
DATASET POLYDATA
POINTS 1002 float
-77.8451 -97.2915 57.8575 -77.834 -97.4566 58.7401 -78.3749 -97.4885 58.3817 
-78.4765 -97.1324 57.5953 -78.9327 -97.4259 58.0637 -77.9008 -96.7295 57.2649 
-79.163 -96.8587 57.4458 -79.6618 -97.228 57.8243 -78.608 -96.4732 57.1063 
-77.9729 -96.1063 56.8242 -79.9127 -96.6276 57.2172 -80.4564 -97.0243 57.5157 
-79.3206 -96.2815 56.8762 -78.6798 -96.021 56.4949 -78.0212 -95.808 56.0224 
-80.5383 -96.6343 56.7013 -81.0366 -96.998 56.9715 -79.9571 -96.3075 56.3539 
-79.3363 -96.0637 55.9267 -78.7207 -95.7921 55.5021 -78.0877 -95.4382 55.1325 
-81.0063 -96.7783 56.0057 -81.4548 -97.118 56.2667 -80.4879 -96.4599 55.6426 
-79.9191 -96.1389 55.249 -79.3759 -95.7192 54.9578 -78.8165 -95.2053 54.7935 
-78.1735 -94.7111 54.6607 -81.5561 -96.8178 55.3463 -81.9588 -97.2003 55.6234 
-81.0672 -96.479 54.9905 -80.5416 -96.0831 54.6854 -80.0234 -95.5496 54.5447 
-79.4781 -94.9805 54.4988 -78.8649 -94.4688 54.4111 -78.2055 -94.0777 54.2252 
-82.2076 -96.7487 54.7885 -82.5613 -97.1626 55.1265 -81.7171 -96.4073 54.4136 
-81.2095 -95.9822 54.1709 -80.7249 -95.3865 54.1303 -80.1311 -94.8649 54.0953 
-79.4343 -94.4931 53.9376 -78.7837 -94.1154 53.7241 -78.1967 -93.7937 53.4944 
-82.7635 -96.69 54.3237 -83.1156 -97.0806 54.7146 -82.2661 -96.3997 53.8931 
-81.7699 -96.034 53.6274 -81.3443 -95.413 53.5988 -80.7879 -94.8581 53.531 
-80.0034 -94.6264 53.2635 -79.2486 -94.4042 52.9889 -78.6882 -94.034 52.818 
-78.2033 -93.731 52.6615 -83.1485 -96.7025 53.9231 -83.5261 -97.0653 54.3312 
-82.6782 -96.4103 53.4551 -82.2484 -96.0963 53.1409 -81.8728 -95.5461 53.0835 
-81.3648 -94.9346 53.0097 -80.6048 -94.6606 52.6848 -79.7795 -94.5636 52.319 
-79.1351 -94.3046 52.1218 -78.6671 -93.9746 52.0045 -78.2213 -93.7685 51.8416 
-78.1732 -97.5391 59.3691 -78.65 -97.675 58.944 -78.4696 -97.8846 59.6803 
-78.9301 -98.0598 59.1964 -78.7627 -98.5306 59.7919 -79.2233 -97.7457 58.5056 
-79.2855 -98.6467 59.2989 -79.0944 -99.1303 60.1296 -79.5963 -98.1516 58.7473 
-80.07 -97.6141 58.1964 -79.7315 -99.1776 59.6055 -79.4427 -99.5348 60.5401 
-80.0715 -98.6366 58.9626 -80.5416 -97.9825 58.5453 -80.9367 -97.3799 57.8595 
-80.2336 -99.5607 59.9916 -79.8113 -99.9868 60.6436 -80.5952 -99.101 59.3176 
-80.9912 -98.4331 58.8495 -81.4005 -97.7295 58.1732 -81.5151 -97.3249 57.1988 
-80.7337 -99.9945 60.2889 -80.2263 -100.61 60.6567 -81.0833 -99.4941 59.6943 
-81.3038 -98.9975 59.0062 -81.6777 -98.3057 58.2233 -81.9382 -97.749 57.2819 
-81.9139 -97.4985 56.3776 -81.1181 -100.638 60.4956 -80.5947 -101.263 60.714 
-81.4466 -99.9719 59.9422 -81.5119 -99.5207 59.0308 -81.7339 -99.0522 58.0248 
-82.1498 -98.4396 57.1621 -82.3049 -98.0076 56.4254 -82.3687 -97.6522 55.7598 
-81.2874 -101.335 60.4276 -80.7955 -101.762 60.5873 -81.6195 -100.661 59.8811 
-81.7236 -100.041 58.9504 -81.8753 -99.627 57.9074 -82.3064 -99.1558 57.1104 
-82.6256 -98.6295 56.5334 -82.7297 -98.1605 55.9395 -82.9304 -97.6229 55.3206 
-81.2823 -101.824 60.0454 -80.8563 -102.07 60.256 -81.6159 -101.334 59.4739 
-81.8921 -100.659 58.6842 -82.2165 -100.063 57.9265 -82.6873 -99.6038 57.3381 
-83.0505 -99.1452 56.8258 -83.1382 -98.6457 56.199 -83.2578 -98.0835 55.5057 
-83.4804 -97.5092 54.8951 -81.1383 -102.184 59.6885 -81.4624 -101.873 59.099 
-81.3892 -102.221 58.8283 -81.7568 -101.798 58.0681 -81.7618 -102.176 57.9349 
-81.8625 -101.351 58.3623 -82.3447 -101.764 57.3966 -82.3248 -102.175 57.1925 
-82.4301 -101.296 57.6411 -82.4547 -100.652 57.8875 -83.0784 -101.978 56.89 
-82.948 -102.35 56.4888 -83.1873 -101.401 57.3115 -83.3188 -100.634 57.6595 
-83.1511 -99.9912 57.6441 -83.6429 -102.269 56.1625 -83.4333 -102.579 55.6907 
-83.7321 -101.66 56.6452 -83.8926 -100.79 57.1507 -83.9555 -99.9769 57.388 
-83.6059 -99.4885 57.1934 -83.9116 -102.308 55.2069 -83.7417 -102.653 54.7228 
-83.9602 -101.687 55.6215 -84.0302 -100.929 55.9958 -84.1353 -100.141 56.3008 
-84.0448 -99.4713 56.4356 -83.6398 -99.0123 56.3721 -84.0048 -102.142 54.0759 
-83.9361 -102.554 53.6284 -84.0156 -101.446 54.5435 -84.1235 -100.806 54.9081 
-84.1957 -100.26 55.0974 -84.1415 -99.5703 55.2103 -83.9639 -98.8835 55.3582 
-83.643 -98.4136 55.4826 -84.0373 -101.943 52.9524 -83.9898 -102.35 52.6526 
-84.0329 -101.235 53.3945 -84.2635 -100.619 53.9 -84.5101 -100.227 54.26 
-84.4614 -99.6387 54.3999 -84.2829 -98.8198 54.4857 -84.1041 -98.1772 54.6465 
-83.8349 -97.794 54.813 -83.9932 -101.712 52.0967 -83.8588 -102.069 51.9498 
-84.0592 -101.101 52.3618 -84.3403 -100.53 52.7847 -84.7581 -100.163 53.2549 
-84.8884 -99.6354 53.6171 -84.7008 -98.8038 53.8401 -84.4754 -98.0833 54.0049 
-84.2379 -97.6543 54.1614 -83.9102 -97.3447 54.2802 -83.5749 -96.9238 53.6666 
-83.9959 -97.2637 53.5892 -83.5967 -96.7377 52.8295 -84.3974 -97.5748 53.4342 
-84.0493 -97.1261 52.6609 -83.8325 -96.2624 51.9845 -84.727 -97.96 53.1791 
-84.5104 -97.405 52.3935 -84.1896 -96.7144 51.7424 -83.952 -95.7225 51.4032 
-84.9619 -98.7057 52.8319 -84.7892 -97.7601 52.0195 -84.5025 -97.0413 51.4359 
-84.0591 -96.2797 51.0948 -83.546 -95.588 50.8372 -84.986 -99.5775 52.4483 
-84.7825 -98.5611 51.6633 -84.5002 -97.5104 51.134 -84.2051 -96.7134 50.6958 
-83.6695 -96.1138 50.2246 -83.1134 -95.7051 49.8463 -84.6911 -100.111 52.0711 
-84.6355 -99.4509 51.3988 -84.266 -98.3932 50.9244 -84.1336 -97.304 50.3677 
-84.0136 -96.5267 49.5582 -83.5373 -96.0579 48.9768 -82.976 -95.6934 48.8193 
-84.2885 -100.514 51.7413 -84.4567 -99.9945 51.1429 -84.2079 -99.2691 50.6535 
-83.9619 -98.1927 50.0991 -84.093 -97.1196 49.2054 -83.9866 -96.4339 48.4022 
-83.3349 -96.0369 48.2031 -82.5941 -95.6367 48.2918 -84.0026 -101.05 51.5351 
-84.1783 -100.417 50.9319 -84.2177 -99.8485 50.3011 -83.9562 -99.0591 49.7213 
-83.8521 -97.9601 49.0848 -83.8878 -97.0156 48.4197 -83.4452 -96.5003 48.0882 
-82.5861 -96.1427 48.0966 -81.8517 -95.6925 48.0324 -83.7609 -101.523 51.4475 
-83.7693 -100.863 50.8687 -83.9199 -100.27 50.1437 -83.8789 -99.686 49.4411 
-83.5903 -98.8126 48.9741 -83.3663 -97.775 48.6744 -83.071 -97.0606 48.414 
-82.4374 -96.6925 48.2004 -81.7105 -96.3254 47.9776 -81.2155 -95.8306 47.645 
-83.1458 -96.4994 53.1545 -83.3957 -96.0135 52.3458 -82.8301 -96.0466 52.7385 
-83.8319 -95.2752 51.7194 -83.3475 -95.2765 52.1431 -82.5607 -95.5288 52.6197 
-83.7027 -94.9631 51.2384 -83.6133 -94.6398 51.6275 -82.9076 -94.7855 52.1246 
-82.0214 -94.9637 52.5871 -83.0562 -95.2207 50.4748 -83.0922 -94.7386 50.9096 
-82.6879 -94.5356 51.3853 -81.904 -94.5602 51.8948 -81.1781 -94.6188 52.2789 
-82.7014 -95.3532 49.4382 -82.512 -94.9786 49.9276 -82.1575 -94.6599 50.3853 
-81.594 -94.4556 50.9531 -80.9539 -94.391 51.4593 -80.3222 -94.4846 51.8387 
-82.4536 -95.1977 48.6014 -82.2509 -94.8001 48.952 -81.8483 -94.4889 49.3861 
-81.3838 -94.2537 49.9595 -80.9038 -94.0792 50.5794 -80.2729 -94.094 51.0955 
-79.6137 -94.2639 51.5533 -81.8652 -95.102 48.0294 -81.8327 -94.5561 48.0911 
-81.5132 -94.1682 48.4051 -81.0514 -93.9696 48.9767 -80.6778 -93.8228 49.6036 
-80.2116 -93.7269 50.1974 -79.5843 -93.8365 50.768 -79.0372 -94.0008 51.3556 
-81.2212 -95.1704 47.5082 -81.2623 -94.5219 47.3489 -81.0607 -94.0308 47.4365 
-80.5747 -93.8323 47.9171 -80.1127 -93.808 48.5445 -79.7538 -93.714 49.1276 
-79.3353 -93.6596 49.7344 -78.8933 -93.7767 50.4051 -78.5306 -93.8566 51.1209 
-80.8015 -95.5789 47.0218 -80.7762 -94.8332 46.8292 -80.3731 -95.3282 46.4888 
-80.2418 -94.5198 46.3384 -79.6166 -95.0896 46.183 -80.6969 -94.1448 46.6752 
-79.423 -94.1906 46.0349 -78.7189 -94.8164 45.7598 -80.05 -93.7621 46.273 
-80.3017 -93.7406 46.8824 -78.5266 -93.868 45.5872 -78.0405 -94.5826 45.1746 
-79.227 -93.326 46.0023 -79.5681 -93.4175 46.5291 -79.6774 -93.7481 47.4421 
-77.7036 -93.7495 45.2007 -77.3526 -94.5238 44.9433 -78.2496 -93.0721 45.678 
-78.755 -93.0063 46.2867 -78.9017 -93.511 47.1014 -79.1538 -93.8034 48.0847 
-76.8148 -93.8851 45.2528 -76.4606 -94.5904 45.1584 -77.2101 -93.255 45.5854 
-77.7305 -92.8856 46.193 -78.1471 -93.038 47.0548 -78.3829 -93.483 47.905 
-78.7933 -93.6789 48.755 -75.9963 -94.0804 45.5755 -75.7027 -94.709 45.5219 
-76.3294 -93.6322 45.8391 -76.73 -93.2352 46.3662 -77.259 -92.8702 47.2383 
-77.7228 -92.9303 48.098 -78.0751 -93.3737 48.7226 -78.4919 -93.6723 49.4785 
-75.4591 -94.286 46.0319 -75.2783 -94.9329 46.024 -75.7441 -93.8788 46.2642 
-76.069 -93.6279 46.7284 -76.4751 -93.2043 47.4651 -76.975 -92.8221 48.2819 
-77.419 -93.0171 48.8659 -77.8032 -93.5214 49.4343 -78.1991 -93.7831 50.2636 
-75.1226 -94.5961 46.6863 -75.0445 -95.2608 46.7165 -75.3036 -94.0864 46.8303 
-75.5871 -93.8151 47.1929 -75.9141 -93.5707 47.7367 -76.2809 -93.2185 48.3526 
-76.6721 -93.0968 48.9006 -77.0569 -93.3842 49.4568 -77.4694 -93.6889 50.2229 
-77.8858 -93.7612 51.1028 -81.0469 -96.3613 47.3428 -80.6907 -96.1815 46.67 
-80.9689 -96.9243 46.9921 -80.5284 -96.8119 46.3895 -80.6793 -97.3997 46.8951 
-80.1015 -95.9521 46.2788 -79.998 -97.2993 46.5039 -80.0262 -97.6996 47.2115 
-79.7343 -96.5329 46.1617 -79.1762 -95.647 46.0257 -79.2167 -97.5821 46.9156 
-79.347 -97.9768 47.5716 -79.1542 -97.0329 46.2662 -78.8403 -96.1396 45.8993 
-78.3863 -95.3361 45.5019 -78.7251 -97.9753 47.0666 -79.0005 -98.569 47.5487 
-78.5694 -97.557 46.3766 -78.3976 -96.8363 45.8487 -78.1179 -95.9359 45.4331 
-77.7615 -95.2221 45.0264 -78.6422 -98.8286 46.801 -78.8695 -99.453 47.2928 
-78.3145 -98.2789 46.2968 -77.9168 -97.7253 45.8276 -77.5973 -96.8671 45.5362 
-77.3005 -95.9953 45.2641 -76.8987 -95.2768 45.0657 -78.5579 -99.8241 46.5902 
-78.6617 -100.165 47.2597 -78.2241 -99.2209 46.1946 -77.627 -98.5638 45.9333 
-77.1152 -97.7757 45.7619 -76.7931 -96.8337 45.6773 -76.425 -96.0257 45.5205 
-76.0029 -95.3402 45.401 -78.2343 -100.382 46.8226 -78.2984 -100.485 47.58 
-77.9295 -100.009 46.3162 -77.3088 -99.3468 46.1251 -76.7704 -98.5161 46.0632 
-76.5079 -97.5441 46.0793 -76.2075 -96.666 46.0479 -75.7705 -96.0362 45.8847 
-75.431 -95.4777 45.8196 -77.7734 -100.528 47.3614 -77.8731 -100.654 48.0001 
-77.4431 -100.359 46.7362 -76.8015 -99.9621 46.3523 -76.2722 -99.2873 46.238 
[...]
CELL_DATA 2000
SCALARS Distance double
LOOKUP_TABLE default
136.761 136.912 136.645 136.22 137.064 136.783 136.364 136.067 135.622 
137.244 136.947 136.528 136.226 135.804 135.498 135.079 137.391 137.12 
136.696 136.401 135.981 135.686 135.267 134.966 134.529 137.467 137.234 
136.82 136.553 136.119 135.841 135.401 135.121 134.665 134.373 133.899 
137.54 137.306 136.91 136.656 136.225 135.956 135.504 135.228 134.769 
134.487 134.02 133.725 133.265 137.655 137.405 137.011 136.75 136.33 
136.059 135.622 135.337 134.893 134.602 134.158 133.859 133.417 133.118 
132.706 137.771 137.523 137.124 136.862 136.456 136.186 135.772 135.48 
135.05 134.747 134.313 134.014 133.586 133.287 132.884 132.602 132.257 
137.864 137.623 137.216 136.965 136.57 136.323 135.94 135.66 135.243 
134.925 134.482 134.173 133.746 133.457 133.061 132.787 132.442 132.195 
131.913 137.095 137.625 137.329 137.262 138.209 137.866 137.809 137.501 
137.431 138.903 138.488 138.408 138.073 138.045 137.711 137.641 139.626 
139.211 139.115 138.727 138.705 138.358 138.311 137.928 137.802 140.276 
139.923 139.866 139.473 139.433 139.052 138.986 138.591 138.44 138.034 
137.856 140.932 140.592 140.583 140.21 140.144 139.759 139.629 139.236 
139.043 138.642 138.443 138.063 137.908 141.643 141.311 141.291 140.903 
140.764 140.377 140.167 139.802 139.582 139.216 139.024 138.652 138.508 
138.144 138.026 142.199 141.982 141.917 141.558 141.317 140.911 140.63 
140.273 140.078 139.751 139.624 139.263 139.147 138.765 138.651 138.276 
138.153 142.436 142.367 142.266 142.032 141.746 141.389 141.094 140.741 
140.605 140.299 140.268 139.92 139.841 139.429 139.29 138.893 138.752 
138.386 138.245 142.475 142.328 142.382 142.241 142.102 142.132 141.952 
142.007 141.745 142.063 141.982 141.862 141.802 141.64 141.528 141.233 
142.263 142.128 142.127 141.941 141.897 141.657 141.49 141.178 140.902 
142.459 142.404 142.413 142.271 142.183 141.996 141.822 141.556 141.281 
140.939 140.611 142.394 142.469 142.351 142.349 142.086 142.062 141.738 
141.684 141.311 141.173 140.75 140.53 140.108 142.058 142.195 141.938 
142.019 141.666 141.735 141.376 141.403 141.004 140.964 140.512 140.435 
139.983 139.876 139.468 141.593 141.724 141.399 141.477 141.144 141.253 
141.026 141.081 140.808 140.703 140.304 140.152 139.746 139.654 139.303 
139.225 138.905 141.086 141.214 140.893 140.948 140.651 140.769 140.642 
140.79 140.647 140.61 140.26 140.059 139.648 139.486 139.163 139.072 
138.792 138.702 138.408 138.131 138.543 138.176 137.785 138.926 138.585 
138.232 137.799 137.329 139.369 138.97 138.614 138.217 137.761 137.306 
136.802 139.943 139.463 139.008 138.558 138.08 137.68 137.164 136.741 
136.235 140.361 140.007 139.49 138.97 138.387 137.946 137.42 137.038 
136.503 136.123 135.643 140.379 140.241 139.819 139.422 138.811 138.295 
137.71 137.275 136.754 136.363 135.865 135.524 135.114 140.326 140.181 
139.876 139.651 139.182 138.739 138.148 137.635 137.092 136.646 136.176 
135.786 135.371 135.04 134.667 140.499 140.229 139.915 139.707 139.36 
139.06 138.566 138.098 137.528 137.036 136.543 136.13 135.72 135.351 
134.961 134.608 134.205 140.695 140.429 140.033 139.789 139.419 139.198 
138.786 138.455 137.924 137.467 136.919 136.488 136.037 135.683 135.286 
134.933 134.526 134.151 133.747 137.783 137.38 137.423 137.096 136.898 
136.963 136.636 136.727 136.451 136.392 136.465 136.158 136.263 136.017 
136.114 135.85 135.874 135.97 135.678 135.792 135.542 135.661 135.377 
135.469 135.142 135.34 135.459 135.178 135.301 135.014 135.14 134.809 
134.927 134.56 134.683 134.341 134.834 134.942 134.659 134.777 134.452 
134.566 134.202 134.318 133.944 134.067 133.725 133.877 133.59 134.338 
134.43 134.089 134.211 133.828 133.953 133.558 133.694 133.329 133.463 
133.131 133.27 132.985 133.154 132.913 133.804 133.878 133.445 133.563 
133.106 133.25 132.814 132.999 132.632 132.827 132.497 132.667 132.37 
132.549 132.314 132.51 132.313 133.318 133.323 132.845 132.894 132.407 
132.501 132.054 132.223 131.872 132.097 131.793 131.999 131.707 131.908 
131.683 131.91 131.751 131.958 131.806 132.96 132.285 132.538 132.419 
131.592 131.84 131.645 131.971 131.911 130.773 131.076 130.857 131.179 
131.07 131.476 131.525 129.911 130.193 129.967 130.329 130.232 130.652 
130.711 131.179 131.356 129.236 129.386 129.124 129.422 129.345 129.793 
129.901 130.401 130.595 131.083 131.296 128.786 128.833 128.574 128.714 
128.628 128.961 129.096 129.588 129.821 130.329 130.548 131.027 131.233 
128.498 128.484 128.306 128.348 128.305 128.446 128.56 128.878 129.118 
129.568 129.838 130.309 130.571 131.015 131.264 128.451 128.33 128.225 
128.214 128.255 128.306 128.427 128.541 128.724 128.983 129.251 129.654 
129.977 130.421 130.736 131.135 131.394 128.688 128.449 128.344 128.24 
128.291 128.317 128.454 128.513 128.655 128.751 128.942 129.182 129.479 
129.87 130.21 130.632 130.917 131.281 131.485 133.188 133.404 133.052 
132.57 133.614 133.297 132.808 132.432 131.899 133.663 133.454 132.972 
132.642 132.05 131.682 131.072 133.579 133.419 132.976 132.738 132.158 
131.8 131.167 130.807 130.226 133.645 133.373 132.98 132.742 132.276 
131.93 131.364 130.958 130.422 130.049 129.583 134.04 133.625 133.274 
132.901 132.538 132.151 131.696 131.254 130.766 130.34 129.897 129.513 
129.118 134.534 134.15 133.841 133.381 133.019 132.55 132.132 131.665 
131.21 130.754 130.317 129.887 129.49 129.105 128.785 134.813 134.586 
134.298 133.937 133.526 133.067 132.598 132.132 131.682 131.228 130.813 
130.36 129.99 129.551 129.259 128.878 128.711 134.879 134.744 134.451 
134.232 133.8 133.453 132.948 132.551 132.103 131.7 131.317 130.884 
130.544 130.103 129.847 129.442 129.308 128.957 128.936 140.582 140.068 
140.201 139.918 139.514 139.641 139.366 139.51 139.254 139.036 139.105 
138.789 138.923 138.676 138.863 138.616 138.552 138.63 138.273 138.364 
138.082 138.26 138.003 138.171 137.811 137.938 138.085 137.719 137.83 
137.5 137.661 137.357 137.52 137.137 137.259 136.824 137.179 137.394 
137.024 137.203 136.845 137.031 136.676 136.841 136.426 136.558 136.134 
136.278 135.921 136.354 136.592 136.231 136.448 136.076 136.294 135.906 
136.103 135.678 135.836 135.43 135.595 135.271 135.453 135.172 135.641 
135.827 135.529 135.695 135.336 135.5 135.09 135.279 134.875 135.077 
134.732 134.926 134.645 134.825 134.558 134.723 134.43 135.147 135.266 
135.067 135.143 134.838 134.866 134.452 134.513 134.122 134.294 134.024 
134.259 134.057 134.25 134.015 134.144 133.849 133.97 133.662 140.853 
140.94 140.734 140.329 140.986 140.781 140.439 140.195 139.807 141.135 
140.897 140.555 140.303 139.96 139.708 139.347 141.078 141.003 140.611 
140.401 139.961 139.771 139.391 139.219 138.831 140.674 140.741 140.389 
140.333 139.82 139.657 139.161 139.085 138.702 138.621 138.196 140.422 
140.326 140.035 140.03 139.643 139.489 138.975 138.811 138.409 138.377 
138.036 137.937 137.465 140.454 140.209 139.834 139.756 139.466 139.359 
138.949 138.719 138.292 138.146 137.823 137.745 137.344 137.164 136.641 
140.325 140.174 139.684 139.588 139.231 139.188 138.821 138.689 138.25 
138.082 137.687 137.574 137.179 137.028 136.536 136.329 135.856 139.931 
139.901 139.437 139.371 138.972 138.928 138.555 138.492 138.075 137.965 
137.535 137.425 137.01 136.877 136.424 136.234 135.784 135.613 135.278 
139.556 139.016 139.231 139.143 138.48 138.716 138.604 138.815 138.71 
137.768 138.091 137.986 138.262 138.133 138.37 138.259 137.018 137.318 
137.216 137.561 137.456 137.752 137.611 137.881 137.761 136.379 136.615 
136.468 136.769 136.662 137.005 136.88 137.19 137.043 137.344 137.228 
135.699 135.97 135.79 136.051 135.881 136.191 136.057 136.403 136.272 
136.602 136.474 136.799 136.691 134.952 135.239 135.066 135.345 135.158 
135.432 135.279 135.593 135.502 135.834 135.747 136.057 135.939 136.249 
136.114 134.314 134.534 134.372 134.618 134.46 134.72 134.597 134.881 
134.827 135.134 135.1 135.381 135.29 135.539 135.4 135.665 135.524 
133.803 133.979 133.82 133.994 133.835 134.055 133.953 134.234 134.201 
134.511 134.484 134.767 134.677 134.918 134.783 135.014 134.898 135.143 
135.068 133.488 132.974 133.331 133.489 132.352 132.752 132.912 133.291 
133.464 131.75 132.121 132.307 132.698 132.928 133.315 133.583 131.265 
131.591 131.821 132.166 132.457 132.828 133.162 133.531 133.868 130.822 
131.146 131.39 131.738 132.038 132.411 132.739 133.119 133.446 133.826 
134.132 130.427 130.702 130.896 131.261 131.529 131.958 132.247 132.655 
132.901 133.312 133.565 134.006 134.267 130.123 130.324 130.436 130.733 
130.954 131.386 131.684 132.116 132.349 132.725 132.941 133.369 133.653 
134.11 134.383 129.759 129.981 130.033 130.286 130.454 130.824 131.13 
131.558 131.857 132.216 132.478 132.826 133.167 133.565 133.938 134.299 
134.582 129.244 129.521 129.564 129.853 130.002 130.35 130.635 131.045 
131.387 131.771 132.105 132.454 132.849 133.213 133.659 133.985 134.345 
134.58 134.821 133.31 132.777 132.994 132.814 132.239 132.456 132.341 
132.482 132.241 131.844 132.007 131.946 132.063 131.863 131.9 131.64 
131.42 131.622 131.562 131.724 131.528 131.549 131.24 131.293 131.077 
130.941 131.119 131.038 131.281 131.084 131.169 130.771 130.82 130.503 
130.705 130.569 130.833 130.762 130.687 130.786 130.644 130.699 130.311 
130.297 129.906 130.062 129.927 130.23 130.209 131.144 130.893 130.782 
130.648 130.524 130.42 130.135 129.97 129.622 129.571 129.444 129.644 
129.716 129.977 129.994 131.396 131.197 130.96 130.796 130.561 130.422 
130.154 129.97 129.684 129.501 129.346 129.341 129.38 129.555 129.603 
129.781 129.688 131.401 131.273 130.925 130.811 130.449 130.362 130.016 
129.946 129.645 129.567 129.346 129.308 129.203 129.28 129.231 129.379 
129.26 129.391 129.186 133.535 133.779 133.415 132.973 134.221 133.713 
133.168 132.792 132.379 134.81 134.236 133.665 133.106 132.624 132.274 
131.971 135.439 134.869 134.363 133.733 133.261 132.712 132.342 131.952 
131.623 136.16 135.573 135.137 134.496 134.078 133.473 133.094 132.512 
132.081 131.583 131.202 136.935 136.387 136.01 135.348 134.937 134.307 
133.932 133.324 132.877 132.216 131.771 131.255 131.066 137.557 137.144 
136.838 136.252 135.827 135.174 134.752 134.139 133.718 133.065 132.637 
132.005 131.772 131.349 131.368 137.992 137.682 137.418 136.986 136.576 
136.002 135.528 134.932 134.504 133.903 133.519 132.907 132.638 132.136 
132.048 131.703 131.679 138.335 138.055 137.781 137.454 137.064 136.617 
136.138 135.623 135.18 134.658 134.289 133.751 133.452 132.951 132.753 
132.353 132.217 131.888 131.733 138.421 138.267 138.177 137.817 138.047 
137.958 137.545 137.494 137.068 137.874 137.735 137.281 137.18 136.718 
136.657 136.174 137.721 137.587 137.14 136.973 136.508 136.354 135.885 
135.766 135.288 137.425 137.384 136.982 136.872 136.447 136.251 135.785 
135.573 135.099 134.933 134.457 137.035 137.021 136.654 136.657 136.303 
136.203 135.746 135.523 134.991 134.779 134.276 134.121 133.654 136.792 
136.684 136.33 136.314 136.011 135.997 135.584 135.432 134.857 134.639 
134.068 133.918 133.45 133.342 132.942 136.74 136.558 136.194 136.074 
135.756 135.708 135.333 135.223 134.688 134.474 133.892 133.704 133.225 
133.122 132.743 132.672 132.347 136.71 136.543 136.153 135.986 135.606 
135.494 135.117 135.003 134.551 134.347 133.839 133.598 133.147 132.963 
132.596 132.48 132.158 132.096 131.812 136.528 135.972 136.164 135.956 
135.352 135.549 135.341 135.556 135.372 134.79 134.938 134.711 134.917 
134.745 134.985 134.841 134.228 134.377 134.12 134.307 134.126 134.359 
134.212 134.454 134.277 133.587 133.76 133.46 133.672 133.443 133.711 
133.546 133.814 133.626 133.848 133.614 132.95 133.097 132.77 132.96 
132.668 132.94 132.724 133.062 132.886 133.183 132.973 133.181 132.956 
132.403 132.5 132.188 132.311 132.016 132.184 131.934 132.202 132.041 
132.387 132.253 132.542 132.357 132.562 132.387 131.975 132.017 131.727 
131.801 131.55 131.641 131.418 131.542 131.387 131.617 131.54 131.83 
131.72 131.957 131.791 132.015 131.902 131.654 131.654 131.365 131.396 
131.155 131.235 131.048 131.139 130.986 131.11 131.011 131.211 131.12 
131.338 131.19 131.406 131.281 131.554 131.525 131.267 130.947 130.961 
130.747 130.797 130.678 130.342 130.397 130.213 130.749 130.573 130.132 
130.02 129.7 129.837 129.727 130.714 130.543 130.095 129.859 129.394 
129.347 129.139 129.381 129.369 130.724 130.551 130.166 129.88 129.379 
129.129 128.784 128.84 128.806 129.092 129.147 130.762 130.591 130.253 
130.001 129.573 129.237 128.846 128.643 128.5 128.607 128.687 128.941 
129.035 130.854 130.647 130.32 130.097 129.738 129.466 129.128 128.843 
128.628 128.487 128.464 128.557 128.654 128.878 128.997 131.085 130.814 
130.51 130.224 129.881 129.618 129.311 129.093 128.878 128.698 128.579 
128.486 128.461 128.535 128.593 128.832 128.947 131.395 131.115 130.841 
130.507 130.162 129.822 129.479 129.231 128.991 128.856 128.711 128.615 
128.499 128.438 128.366 128.447 128.476 128.737 128.844 142.346 142.114 
142.192 142.02 141.608 141.862 141.811 141.891 141.833 140.943 141.286 
141.374 141.645 141.757 141.864 141.958 140.325 140.652 140.751 141.13 
141.336 141.692 141.871 142.03 142.065 139.72 140.066 140.092 140.45 
140.528 141.035 141.201 141.681 141.698 141.923 141.757 139.001 139.403 
139.4 139.743 139.661 140.088 140.096 140.702 140.721 141.237 141.05 
141.345 141.068 138.249 138.626 138.602 138.974 138.87 139.214 139.118 
139.573 139.55 140.092 139.983 140.426 140.17 140.517 140.254 137.604 
137.885 137.795 138.135 138.032 138.396 138.31 138.688 138.633 139.041 
138.961 139.361 139.193 139.559 139.345 139.692 139.475 137.057 137.271 
137.121 137.364 137.218 137.546 137.472 137.871 137.839 138.223 138.146 
138.476 138.337 138.653 138.502 138.827 138.682 138.982 138.81 142.364 
142.035 142.225 142.329 141.849 141.921 142.035 142.253 142.443 141.99 
141.912 142.05 142.101 142.297 142.421 142.473 142.136 142.133 142.325 
142.32 142.55 142.475 142.453 142.327 142.082 141.906 142.144 142.388 
142.571 142.851 142.833 142.765 142.459 142.062 141.811 141.552 141.323 
141.75 142.023 142.423 142.7 142.942 142.88 142.72 142.21 141.857 
141.405 141.351 141.347 140.555 141.074 141.334 141.857 142.046 142.488 
142.406 142.556 142.081 141.896 141.31 141.172 140.922 141.151 141.224 
139.725 140.243 140.427 141 141.079 141.603 141.452 141.814 141.428 
141.546 141.046 140.994 140.598 140.663 140.509 140.841 140.778 138.972 
139.393 139.478 139.994 140.009 140.522 140.364 140.771 140.462 140.758 
140.422 140.591 140.273 140.33 140.068 140.181 140.012 140.277 140.116 
142.463 142.518 142.513 142.471 142.682 142.682 142.738 142.532 142.36 
142.616 142.804 142.927 142.861 142.72 142.423 142.246 142.081 142.469 
142.583 142.853 142.767 142.699 142.446 142.29 142.241 141.602 141.859 
141.95 142.285 142.279 142.49 142.29 142.314 142.163 142.246 142.323 
141.616 141.669 141.797 141.82 141.831 141.955 141.901 142.025 141.926 
142.04 142.054 142.253 142.314 141.617 141.812 141.961 141.892 141.779 
141.695 141.627 141.709 141.721 141.814 141.805 141.931 141.961 142.144 
142.087 141.111 141.567 141.663 141.861 141.61 141.597 141.345 141.459 
141.463 141.642 141.646 141.715 141.638 141.757 141.698 141.845 141.685 
140.319 140.813 140.85 141.244 140.999 141.167 140.835 141.026 140.961 
141.284 141.333 141.516 141.393 141.445 141.277 141.411 141.28 141.407 
141.187 133.861 134.43 134.151 134.189 135.087 134.784 134.902 134.586 
134.685 135.84 135.514 135.635 135.326 135.473 135.148 135.258 136.544 
136.276 136.41 136.095 136.226 135.914 136.054 135.723 135.844 137.188 
136.95 137.142 136.87 137.034 136.706 136.861 136.521 136.689 136.343 
136.524 137.924 137.645 137.865 137.601 137.819 137.525 137.718 137.382 
137.562 137.21 137.386 137.047 137.232 138.634 138.401 138.619 138.362 
138.58 138.301 138.496 138.207 138.382 138.073 138.213 137.879 137.992 
137.684 137.8 139.156 139.01 139.223 139.065 139.287 139.059 139.239 
138.954 139.121 138.838 139.007 138.69 138.804 138.44 138.512 138.18 
138.247 139.668 139.484 139.667 139.552 139.784 139.676 139.903 139.693 
139.893 139.607 139.84 139.523 139.739 139.336 139.449 138.989 139.033 
138.624 138.648 
POINT_DATA 1002
SCALARS Distance double
LOOKUP_TABLE default
136.38 136.864 137.04 136.516 137.18 135.765 136.654 137.359 135.922 
135.181 136.829 137.547 136.102 135.391 134.666 136.985 137.642 136.274 
135.567 134.845 134.078 137.076 137.683 136.402 135.684 134.954 134.199 
133.422 137.161 137.778 136.493 135.783 135.047 134.309 133.554 132.819 
137.277 137.91 136.598 135.902 135.182 134.451 133.716 132.982 132.319 
137.384 138.021 136.714 136.058 135.358 134.612 133.877 133.166 132.507 
131.946 137.466 138.106 136.798 136.198 135.566 134.805 134.032 133.33 
132.688 132.133 131.66 137.382 137.567 137.927 138.104 138.596 137.757 
138.763 139.351 138.358 138.02 139.521 140.009 139.062 138.697 138.217 
140.24 140.58 139.838 139.4 138.862 138.244 140.957 141.26 140.553 
140.042 139.447 138.822 138.265 141.716 141.955 141.201 140.539 139.922 
139.381 138.87 138.391 142.276 142.368 141.76 140.994 140.36 139.954 
139.539 139.033 138.529 142.459 142.482 142.063 141.417 140.873 140.584 
140.268 139.718 139.119 138.609 142.485 142.203 142.298 141.896 142.114 
141.758 141.938 142.138 141.753 141.411 142.312 142.343 142.133 141.808 
141.252 142.56 142.475 142.369 142.049 141.61 140.983 142.374 142.335 
142.12 141.771 141.397 140.927 140.34 141.878 141.964 141.566 141.315 
141.045 140.571 140.041 139.57 141.333 141.486 140.99 140.88 140.886 
140.496 139.847 139.352 138.988 140.825 140.948 140.524 140.442 140.608 
140.45 139.838 139.261 138.879 138.511 137.778 138.239 137.339 138.639 
137.82 136.829 139.011 138.194 137.271 136.307 139.544 138.472 137.576 
136.646 135.753 140.029 138.898 137.792 136.892 135.971 135.206 140.089 
139.341 138.195 137.143 136.229 135.398 134.741 140.013 139.526 138.682 
137.569 136.568 135.734 134.983 134.279 140.15 139.583 138.973 138.045 
136.974 136.09 135.338 134.563 133.773 140.314 139.635 139.039 138.346 
137.383 136.401 135.622 134.899 134.119 133.349 137.025 136.527 136.358 
136.041 135.907 135.788 135.564 135.431 135.29 135.056 135.063 134.91 
134.701 134.437 134.188 134.558 134.359 134.089 133.817 133.578 133.411 
133.994 133.717 133.411 133.176 132.995 132.822 132.723 133.362 132.979 
132.623 132.411 132.312 132.186 132.103 132.118 132.833 132.341 131.902 
131.638 131.569 131.501 131.438 131.51 131.626 132.698 132.083 132.073 
131.363 131.339 131.491 130.526 130.456 130.684 131.037 129.598 129.679 
129.778 130.236 130.863 128.884 129.147 128.892 129.365 130.104 130.82 
128.471 128.742 128.367 128.629 129.297 130.064 130.762 128.243 128.511 
128.207 128.345 128.712 129.347 130.104 130.847 128.24 128.605 128.193 
128.369 128.57 128.893 129.514 130.314 131.049 128.505 128.957 128.29 
128.39 128.604 128.794 129.142 129.784 130.535 131.17 133.519 132.94 
133.754 133.199 133.889 132.285 133.274 133.827 132.443 131.422 133.159 
133.753 132.497 131.535 130.544 133.209 133.974 132.572 131.761 130.797 
129.926 133.693 134.455 132.923 132.122 131.205 130.299 129.469 134.303 
134.847 133.528 132.607 131.669 130.759 129.897 129.106 134.609 134.985 
133.982 133.068 132.121 131.256 130.425 129.651 129.021 134.639 135.013 
134.107 133.312 132.468 131.724 130.973 130.235 129.656 129.248 140.483 
139.807 139.915 139.202 139.426 139.089 138.687 138.996 138.478 138.463 
138.206 138.456 137.928 137.841 137.705 137.594 137.766 137.358 137.216 
137.015 136.691 136.821 136.952 136.657 136.521 136.294 135.969 135.743 
136.004 136.108 135.867 135.705 135.495 135.246 135.075 134.997 135.37 
135.444 135.214 134.929 134.639 134.492 134.458 134.405 134.274 141.129 
140.59 141.104 140.65 141.206 140.08 140.836 141.364 140.182 139.62 
140.81 141.06 140.188 139.514 139.042 140.355 140.609 140.002 139.271 
138.702 138.366 140.018 140.643 139.734 139.196 138.462 138.066 137.678 
139.969 140.75 139.517 139.15 138.502 137.914 137.493 136.863 139.804 
140.421 139.28 138.899 138.416 137.831 137.318 136.728 136.016 139.478 