# vtk DataFile Version 4.0
vtk output
ASCII
DATASET POLYDATA
POINTS 1002 float
-78.7976 -97.3325 60.4129 -78.8503 -97.652 61.0604 -78.4896 -97.5015 60.8914 
-78.4423 -97.1129 60.2017 -78.0105 -97.3733 60.5811 -78.7747 -97.0837 59.5032 
-77.9117 -96.9459 59.8099 -77.2958 -97.176 60.25 -78.3794 -96.8452 59.2141 
-78.8218 -96.8875 58.4334 -77.1716 -96.848 59.3163 -76.4678 -96.9321 59.9397 
-77.7824 -96.7283 58.7348 -78.3246 -96.6733 58.09 -78.7662 -96.7072 57.2762 
-76.4504 -96.8011 58.7541 -75.7966 -96.7819 59.3994 -77.1193 -96.7066 58.1482 
-77.6762 -96.545 57.6109 -78.1376 -96.5085 56.8703 -78.495 -96.5388 56.0631 
-75.814 -96.7204 58.0815 -75.2761 -96.7415 58.5733 -76.4885 -96.6335 57.5548 
-77.0847 -96.3756 57.0716 -77.5224 -96.2503 56.404 -77.8948 -96.3085 55.6023 
-78.2774 -96.3137 54.9756 -75.1038 -96.5328 57.5001 -74.6763 -96.6791 57.9078 
-75.732 -96.4303 57.0358 -76.418 -96.1814 56.5216 -76.9567 -95.9375 55.9029 
-77.4202 -95.9173 55.2031 -77.8814 -95.9482 54.6177 -78.3083 -95.894 54.1647 
-74.356 -96.3086 57.1446 -73.9976 -96.5652 57.552 -74.9357 -96.1763 56.6433 
-75.6524 -96.0584 56.0009 -76.2472 -95.8092 55.3573 -76.8036 -95.562 54.8354 
-77.4491 -95.4414 54.4048 -77.9949 -95.3661 54.0067 -78.3887 -95.337 53.5701 
-73.7619 -96.197 56.7365 -73.4684 -96.508 57.1396 -74.309 -96.0204 56.2172 
-75.0562 -95.9934 55.5021 -75.6205 -95.8405 54.8201 -76.0338 -95.4119 54.453 
-76.698 -95.0162 54.219 -77.4466 -94.8503 53.8836 -77.9611 -94.8255 53.4735 
-78.3576 -94.8779 53.0604 -73.4039 -96.25 56.1106 -73.1991 -96.5729 56.4975 
-73.8444 -96.0266 55.6377 -74.5851 -95.9748 54.9822 -75.2065 -95.8659 54.3294 
-75.461 -95.378 54.0435 -75.871 -94.7602 53.9717 -76.6541 -94.481 53.6902 
-77.3533 -94.4963 53.2334 -77.821 -94.5685 52.8228 -78.2868 -94.6345 52.5103 
-78.5777 -97.9872 61.4094 -78.0902 -97.95 61.1245 -78.0685 -98.4867 61.6459 
-77.4606 -98.4804 61.3075 -77.4505 -98.9357 62.117 -77.4723 -97.8362 60.7894 
-76.9027 -98.8689 61.7843 -76.9409 -99.2045 62.854 -76.8748 -98.3116 60.9374 
-76.687 -97.4957 60.5871 -76.5527 -99.2213 62.4143 -76.4984 -99.5308 63.3481 
-76.5331 -98.7811 61.2205 -76.2361 -97.947 60.6853 -75.8918 -97.1077 60.3843 
-76.1529 -99.7345 62.7922 -76.0675 -100.091 63.4913 -76.2708 -99.3931 61.6109 
-76.037 -98.6678 60.6883 -75.5675 -97.6629 60.3812 -75.3206 -96.9713 59.738 
-75.6818 -100.24 63.0385 -75.7337 -100.734 63.6827 -75.8128 -99.9441 61.9945 
-75.7803 -99.4227 60.8733 -75.4308 -98.5259 60.1944 -75.0615 -97.6008 59.6635 
-74.8654 -97.0173 58.8012 -75.311 -100.683 63.312 -75.4604 -101.36 63.8837 
-75.3694 -100.258 62.3136 -75.4299 -99.8258 61.1622 -75.2995 -99.157 60.1717 
-74.9681 -98.3337 59.4458 -74.5841 -97.5698 58.8261 -74.2576 -96.9985 58.1844 
-75.0548 -101.236 63.3665 -75.2234 -101.976 63.793 -75.0969 -100.627 62.4437 
-75.159 -100.1 61.3021 -75.1 -99.5066 60.2189 -74.8904 -98.8532 59.303 
-74.4493 -98.1523 58.7158 -73.9357 -97.4658 58.3378 -73.6011 -96.9117 57.8345 
-74.9235 -101.854 63.0898 -75.1045 -102.519 63.4317 -74.9532 -101.163 62.3072 
-74.9757 -100.524 61.2611 -74.8043 -99.9164 60.2445 -74.5893 -99.3426 59.3197 
-74.293 -98.745 58.6417 -73.7759 -98.0472 58.317 -73.3218 -97.38 57.9726 
-73.1692 -96.8942 57.3148 -74.9675 -102.586 62.7577 -74.9104 -101.878 62.1423 
-74.9658 -102.468 61.793 -74.9529 -101.629 60.9707 -74.9614 -102.098 60.5864 
-74.9118 -101.101 61.2231 -74.7754 -101.209 59.788 -74.7416 -101.731 59.3873 
-74.637 -100.79 60.1743 -74.5856 -100.41 60.3083 -74.2724 -101.067 58.8611 
-74.186 -101.697 58.5789 -74.0952 -100.505 59.3064 -73.8663 -100.219 59.5979 
-74.0999 -99.8676 59.5031 -73.6074 -101.305 58.2515 -73.445 -101.926 58.0727 
-73.5734 -100.587 58.5125 -73.3009 -100.103 58.9241 -73.3501 -99.8215 59.0204 
-73.8523 -99.3503 58.7698 -73.0299 -101.493 57.5875 -72.8768 -102.066 57.3537 
-73.1399 -100.822 57.6236 -73.0767 -100.116 57.8767 -73.0327 -99.6317 58.2676 
-73.2473 -99.2361 58.3459 -73.5545 -98.6538 58.2699 -72.7388 -101.373 56.6157 
-72.6947 -101.936 56.309 -72.7514 -100.837 56.6608 -72.7849 -100.167 56.673 
-72.8501 -99.4285 56.9963 -72.9143 -98.8986 57.4129 -72.9926 -98.4269 57.6612 
-73.1129 -97.867 57.8425 -72.7079 -101.098 55.4995 -72.7682 -101.652 55.2212 
-72.5212 -100.651 55.7082 -72.4044 -100.178 55.7749 -72.4785 -99.4399 55.889 
-72.5709 -98.69 56.1924 -72.6248 -98.1753 56.5477 -72.7413 -97.7249 56.8638 
-72.9291 -97.2662 57.138 -72.7149 -100.888 54.4419 -72.8424 -101.407 54.2666 
-72.4113 -100.482 54.7216 -72.151 -100.145 55.0021 -72.143 -99.5647 55.1778 
-72.2319 -98.7544 55.316 -72.307 -98.0993 55.5084 -72.5089 -97.6721 55.7373 
-72.7956 -97.2836 55.988 -73.0168 -96.8971 56.2566 -73.1637 -96.5143 55.5161 
-72.9986 -96.8628 55.2428 -73.0728 -96.4369 54.6149 -72.6819 -97.227 55.0252 
-72.8094 -96.7328 54.3802 -72.9118 -96.2361 53.7427 -72.2595 -97.5748 54.8393 
-72.3655 -97.041 54.1244 -72.5254 -96.4708 53.3833 -72.9266 -96.0321 52.6275 
-72.0506 -98.066 54.6586 -71.9598 -97.3873 53.8143 -72.0913 -96.8093 52.939 
-72.5474 -96.3389 52.1532 -73.2185 -96.0498 51.4829 -72.0134 -98.8669 54.502 
-71.9028 -97.9876 53.5338 -71.917 -97.2661 52.551 -72.3193 -96.8344 51.7989 
-72.9408 -96.4773 51.1721 -73.5054 -96.2035 50.5945 -71.9289 -99.689 54.282 
-71.9103 -98.9136 53.3144 -72.0378 -97.9913 52.3307 -72.3746 -97.4174 51.627 
-72.8591 -97.0681 51.0111 -73.2537 -96.6356 50.3264 -73.6462 -96.2793 49.7545 
-72.0211 -100.181 53.9266 -71.838 -99.768 53.0412 -72.0654 -98.973 52.1924 
-72.4879 -98.1495 51.5329 -72.8377 -97.6783 50.8443 -73.0764 -97.2447 50.024 
-73.3691 -96.7046 49.3653 -73.8923 -96.3264 49.0158 -72.3847 -100.511 53.5969 
-72.015 -100.266 52.7618 -72.0696 -99.8118 52.0469 -72.4909 -99.0246 51.4416 
-72.7553 -98.3385 50.6618 -72.8363 -97.909 49.71 -73.1158 -97.3971 49.0329 
-73.6907 -96.8315 48.7654 -74.4006 -96.4615 48.6278 -72.7129 -100.944 53.4407 
-72.4077 -100.609 52.6319 -72.3071 -100.29 51.9613 -72.5795 -99.7505 51.3819 
-72.7618 -99.069 50.5822 -72.6792 -98.5666 49.5563 -72.8754 -98.1582 48.8531 
-73.552 -97.6069 48.6904 -74.3434 -97.0522 48.6554 -74.9835 -96.6728 48.4154 
-73.3731 -96.1971 55.1038 -73.3304 -96.1153 54.1539 -73.9331 -96.0193 54.559 
-73.3671 -95.935 53.155 -73.9909 -95.9187 53.5566 -74.6937 -95.8929 53.9207 
-73.6372 -95.8371 51.9771 -74.1258 -95.7219 52.5313 -74.6356 -95.5661 53.0522 
-75.0713 -95.4214 53.5702 -73.9409 -95.9268 50.9038 -74.3837 -95.6473 51.4041 
-74.6505 -95.2547 52.083 -74.8828 -94.8476 52.8639 -75.2736 -94.6621 53.542 
-74.0837 -96.0143 50.0359 -74.5554 -95.6496 50.3876 -74.7865 -95.1343 50.9139 
-74.9204 -94.6531 51.7174 -75.3139 -94.3373 52.6157 -75.9457 -94.28 53.2908 
-74.3003 -96.0435 49.2679 -74.7335 -95.6274 49.555 -74.9517 -95.0128 49.8601 
-75.0782 -94.6088 50.3755 -75.5196 -94.5039 51.1884 -76.1888 -94.4225 52.0419 
-76.8007 -94.3761 52.7302 -74.7549 -96.1272 48.6915 -75.1278 -95.7011 48.8553 
-75.2977 -95.0133 49.0294 -75.3529 -94.4934 49.2959 -75.7446 -94.5053 49.8683 
-76.4432 -94.651 50.6703 -77.0035 -94.5997 51.488 -77.403 -94.5067 52.2384 
-75.2525 -96.2746 48.2604 -75.5661 -95.8552 48.2349 -75.744 -95.2385 48.2974 
-75.7905 -94.6188 48.4481 -76.0808 -94.4081 48.8673 -76.7209 -94.5228 49.5665 
-77.2851 -94.5961 50.3429 -77.6019 -94.559 51.145 -77.9085 -94.534 51.9284 
-75.5266 -96.6305 47.8429 -75.7709 -96.1262 47.6193 -75.8108 -96.5589 47.0293 
-76.0547 -95.8634 46.9195 -76.13 -96.4913 46.5439 -76.0069 -95.564 47.5609 
-76.4868 -95.6347 46.5824 -76.872 -96.5409 46.5423 -76.3123 -95.2265 46.9159 
-76.1584 -94.9732 47.6245 -77.4873 -95.6476 46.471 -77.9607 -96.6856 46.5392 
-76.9943 -94.9677 46.5315 -76.7178 -94.7653 47.0736 -76.464 -94.5573 47.9537 
-78.7483 -95.8805 46.3431 -78.8457 -96.7312 46.586 -78.2576 -94.9384 46.3032 
-77.684 -94.4782 46.7815 -77.3684 -94.4032 47.6706 -77.0862 -94.3846 48.6419 
-79.3932 -96.151 46.6429 -79.1473 -96.6984 47.1452 -79.3322 -95.2396 46.4005 
-78.7729 -94.3666 46.7718 -78.2202 -94.0906 47.5823 -77.9576 -94.1667 48.4883 
-77.6708 -94.3588 49.4163 -79.345 -96.4136 47.5203 -79.2244 -96.8502 47.9907 
-79.5471 -95.7168 47.1402 -79.4212 -94.7249 47.2342 -78.9021 -94.1143 47.7543 
-78.5083 -94.0928 48.3943 -78.3141 -94.2424 49.2137 -77.9925 -94.4248 50.1988 
-79.4852 -96.7283 48.3884 -79.6589 -97.2468 48.6168 -79.5277 -96.1241 48.1245 
-79.7022 -95.2574 48.0431 -79.5942 -94.5144 48.2355 -79.2083 -94.3165 48.5806 
-78.9393 -94.3884 49.1792 -78.6958 -94.4394 50.1196 -78.2894 -94.4972 51.1074 
-80.2098 -97.085 48.8759 -80.4562 -97.6908 48.9385 -80.0443 -96.45 48.7804 
-80.1382 -95.6861 48.7049 -80.3096 -94.9494 48.7393 -80.1846 -94.5633 48.9619 
-79.8699 -94.486 49.4774 -79.5815 -94.4762 50.3084 -79.1823 -94.5044 51.2056 
-78.6762 -94.574 51.9326 -75.194 -97.1843 48.3989 -75.5812 -97.2092 47.5995 
-75.3651 -97.8283 48.2963 -75.5664 -97.9445 47.3424 -75.3898 -98.4958 48.0858 
-75.7671 -97.3099 46.705 -75.5621 -98.6627 47.2715 -75.4024 -99.1572 48.0264 
-75.8114 -98.1706 46.5783 -76.3036 -97.4648 46.3941 -75.799 -99.2785 47.5889 
-75.6313 -99.7895 48.2576 -76.1113 -98.8275 46.8425 -76.6969 -98.3631 46.3916 
-77.3156 -97.6117 46.453 -76.2183 -99.8217 48.0934 -75.9482 -100.404 48.5306 
-76.6214 -99.2598 47.4677 -77.2606 -98.8867 46.7309 -77.8349 -98.4219 46.3751 
-78.2816 -97.5863 46.4925 -76.5345 -100.502 48.449 -76.1694 -101.209 48.691 
-77.0006 -99.7359 48.0958 -77.6589 -99.2342 47.4572 -78.2527 -98.9273 46.8059 
-78.5377 -98.2759 46.6653 -78.8016 -97.3452 46.9222 -76.8155 -101.485 48.6432 
-76.4246 -102.14 48.8647 -77.2635 -100.578 48.4519 -77.8028 -99.7863 48.1489 
-78.3736 -99.3562 47.7009 -78.7117 -98.8887 47.403 -78.8497 -98.0416 47.4958 
-79.0307 -97.2398 47.7676 -77.1728 -102.364 48.837 -76.7574 -102.695 49.1508 
-77.6379 -101.652 48.6041 -78.0625 -100.73 48.478 -78.4648 -99.9713 48.3807 
-78.8297 -99.437 48.2435 -79.0586 -98.8199 48.1827 -79.2252 -98.0934 48.2899 
-79.431 -97.5493 48.4643 -77.4423 -102.63 49.1629 -77.018 -102.646 49.5567 
-77.9675 -102.337 48.8027 -78.4472 -101.684 48.6231 -78.7919 -100.852 48.6515 
[...]
CELL_DATA 2000
SCALARS Distance double
LOOKUP_TABLE default
138.271 137.829 137.943 137.699 137.24 137.434 137.182 137.333 137.099 
136.522 136.777 136.544 136.757 136.525 136.717 136.485 135.8 136.06 
135.871 136.101 135.882 136.094 135.847 136.046 135.766 135.103 135.361 
135.191 135.441 135.222 135.433 135.157 135.36 135.067 135.274 134.996 
134.398 134.644 134.436 134.726 134.491 134.737 134.43 134.639 134.336 
134.562 134.315 134.542 134.33 133.733 133.922 133.671 133.94 133.719 
133.98 133.696 133.9 133.594 133.822 133.594 133.862 133.681 133.921 
133.735 133.167 133.283 133.022 133.221 133.045 133.275 133.07 133.23 
132.936 133.096 132.838 133.109 132.935 133.239 133.067 133.323 133.152 
132.733 132.779 132.521 132.648 132.502 132.701 132.571 132.711 132.441 
132.506 132.18 132.353 132.147 132.459 132.329 132.634 132.499 132.761 
132.652 138.528 138.726 138.464 138.093 138.877 138.619 138.23 137.967 
137.509 139.076 138.772 138.346 138.062 137.582 137.292 136.769 139.338 
139.023 138.606 138.233 137.732 137.364 136.818 136.512 136.006 139.589 
139.31 138.978 138.589 138.11 137.626 137.061 136.621 136.083 135.774 
135.31 139.859 139.563 139.259 138.953 138.528 138.074 137.508 136.979 
136.398 135.942 135.43 135.108 134.656 140.191 139.837 139.454 139.171 
138.75 138.413 137.866 137.415 136.8 136.312 135.731 135.305 134.801 
134.474 134.028 140.508 140.142 139.687 139.352 138.888 138.567 138.032 
137.667 137.067 136.651 136.046 135.614 135.059 134.672 134.193 133.876 
133.465 140.738 140.412 139.948 139.588 139.092 138.726 138.181 137.807 
137.235 136.86 136.304 135.906 135.369 134.954 134.457 134.084 133.661 
133.359 133.015 140.686 140.271 140.306 139.895 139.611 139.775 139.353 
139.436 138.993 138.743 138.983 138.55 138.755 138.3 138.454 138.007 
137.966 138.124 137.699 137.885 137.456 137.665 137.249 137.438 137.039 
137.452 137.5 137.11 137.152 136.754 136.872 136.532 136.701 136.369 
136.519 136.16 136.99 137.058 136.67 136.675 136.237 136.274 135.911 
136.051 135.748 135.898 135.545 135.657 135.264 136.4 136.527 136.106 
136.181 135.685 135.736 135.256 135.393 135.002 135.217 134.832 135.009 
134.582 134.725 134.334 135.761 135.877 135.447 135.549 135.08 135.14 
134.642 134.707 134.24 134.399 133.99 134.208 133.815 134.011 133.645 
133.824 133.525 135.188 135.253 134.833 134.911 134.509 134.576 134.168 
134.174 133.73 133.732 133.321 133.421 133.098 133.274 133.011 133.185 
132.949 133.11 132.901 132.556 132.599 132.414 132.086 132.623 132.447 
132.094 131.918 131.545 132.649 132.438 132.037 131.869 131.433 131.285 
130.899 132.863 132.514 132.046 131.779 131.304 131.125 130.722 130.645 
130.417 133.317 132.861 132.371 131.905 131.401 131.066 130.727 130.563 
130.404 130.337 130.278 133.76 133.352 132.898 132.373 131.872 131.366 
131.058 130.755 130.677 130.491 130.424 130.278 130.18 134.063 133.721 
133.31 132.894 132.464 131.967 131.648 131.246 131.122 130.856 130.736 
130.49 130.286 130.121 129.999 134.375 134.007 133.622 133.266 132.936 
132.549 132.273 131.87 131.641 131.294 131.065 130.773 130.526 130.284 
130.139 130.019 130.061 134.766 134.373 134.01 133.627 133.344 133.009 
132.803 132.454 132.207 131.796 131.477 131.093 130.843 130.568 130.499 
130.312 130.41 130.28 130.441 132.45 131.974 132.197 132.222 131.46 
131.721 131.771 132.049 132.203 130.894 131.194 131.292 131.607 131.776 
132.094 132.264 130.474 130.695 130.83 131.127 131.261 131.594 131.679 
132.031 132.068 130.295 130.411 130.521 130.719 130.782 131.028 131.004 
131.322 131.291 131.686 131.734 130.146 130.262 130.298 130.441 130.41 
130.553 130.456 130.662 130.638 130.95 131.074 131.463 131.703 129.999 
130.088 130.109 130.203 130.102 130.166 130.012 130.159 130.183 130.455 
130.685 130.991 131.301 131.624 131.938 130.08 130.038 130.1 130.082 
129.991 129.917 129.728 129.759 129.79 130.066 130.377 130.723 131.071 
131.343 131.623 131.896 132.152 130.375 130.232 130.257 130.167 130.092 
129.934 129.749 129.617 129.602 129.744 130.05 130.406 130.787 131.105 
131.37 131.616 131.833 132.097 132.335 130.534 130.482 130.454 130.32 
130.315 130.285 130.144 130.207 130.069 130.446 130.167 129.939 129.945 
129.834 129.894 129.732 131.035 130.496 130.137 129.858 129.751 129.72 
129.713 129.665 129.666 131.763 131.219 130.828 130.283 130.077 129.823 
129.897 129.818 129.989 129.886 130.128 132.299 131.929 131.644 131.087 
130.778 130.313 130.254 130.092 130.278 130.255 130.519 130.495 130.798 
132.725 132.431 132.273 131.857 131.59 131.069 130.875 130.526 130.603 
130.518 130.773 130.797 131.079 131.103 131.356 133.34 132.947 132.848 
132.469 132.325 131.863 131.716 131.25 131.273 130.975 131.222 131.105 
131.439 131.388 131.683 131.627 131.858 134.187 133.698 133.602 133.147 
133.065 132.623 132.573 132.129 132.172 131.783 131.983 131.72 132.046 
131.882 132.213 132.064 132.323 132.173 132.387 130.763 131.227 130.909 
130.708 131.696 131.357 131.115 130.784 130.588 132.166 131.816 131.636 
131.275 131.186 130.83 130.836 132.787 132.378 132.29 131.899 131.938 
131.587 131.724 131.329 131.477 133.533 133.114 133.076 132.662 132.743 
132.41 132.587 132.253 132.381 132.001 132.102 134.309 133.902 133.884 
133.477 133.531 133.211 133.366 133.075 133.165 132.806 132.796 132.472 
132.503 135.189 134.753 134.774 134.312 134.34 133.967 134.091 133.809 
133.922 133.569 133.549 133.135 133.109 132.802 132.892 136.032 135.682 
135.757 135.286 135.316 134.833 134.905 134.536 134.659 134.327 134.386 
133.962 133.973 133.535 133.646 133.31 133.536 136.507 136.38 136.477 
136.204 136.252 135.834 135.862 135.416 135.488 135.101 135.204 134.822 
134.921 134.497 134.646 134.232 134.476 134.116 134.409 134.869 134.802 
134.603 134.137 134.77 134.556 134.112 133.892 133.482 134.816 134.566 
134.145 133.905 133.519 133.316 132.973 134.96 134.673 134.271 133.993 
133.61 133.376 132.993 132.793 132.375 135.179 134.869 134.496 134.185 
133.805 133.507 133.069 132.789 132.276 132.063 131.576 135.477 135.138 
134.778 134.447 134.084 133.753 133.325 132.939 132.429 132.046 131.571 
131.313 130.965 135.835 135.492 135.129 134.754 134.385 134.046 133.668 
133.278 132.857 132.394 132.029 131.589 131.341 130.975 130.784 136.17 
135.882 135.551 135.141 134.741 134.36 133.99 133.637 133.267 132.877 
132.557 132.172 131.964 131.573 131.397 130.974 130.787 136.423 136.222 
135.959 135.575 135.156 134.732 134.321 133.96 133.579 133.24 132.868 
132.575 132.284 132.057 131.82 131.551 131.296 130.956 130.741 135.324 
135.91 135.488 135.232 136.482 136.04 135.776 135.389 135.173 137.173 
136.658 136.371 135.931 135.736 135.366 135.213 137.946 137.428 137.152 
136.61 136.389 135.956 135.828 135.455 135.345 138.684 138.226 138.013 
137.457 137.205 136.679 136.51 136.092 135.994 135.62 135.545 139.439 
139.005 138.855 138.322 138.082 137.521 137.313 136.828 136.708 136.292 
136.224 135.851 135.824 140.174 139.812 139.72 139.197 138.973 138.391 
138.178 137.662 137.525 137.057 136.942 136.526 136.454 136.125 136.122 
140.719 140.509 140.499 140.072 139.861 139.285 139.037 138.512 138.353 
137.882 137.702 137.23 137.021 136.661 136.552 136.341 136.343 141.077 
140.975 141.032 140.766 140.606 140.127 139.842 139.329 139.109 138.658 
138.444 137.959 137.648 137.181 136.913 136.643 136.554 136.464 136.492 
141.306 141.649 141.415 141.243 141.986 141.698 141.419 141.198 140.827 
142.268 141.961 141.555 141.301 140.861 140.608 140.102 142.286 142.094 
141.595 141.363 140.862 140.614 140.107 139.848 139.368 142.024 141.955 
141.469 141.301 140.781 140.574 140.055 139.836 139.338 139.129 138.656 
141.805 141.722 141.337 141.154 140.668 140.463 139.971 139.77 139.268 
139.055 138.516 138.326 137.803 141.776 141.647 141.322 141.095 140.631 
140.387 139.93 139.719 139.272 139.022 138.48 138.188 137.62 137.425 
137.001 141.795 141.672 141.339 141.118 140.655 140.396 139.949 139.728 
139.324 139.079 138.586 138.237 137.673 137.347 136.932 136.782 136.603 
141.758 141.659 141.333 141.136 140.713 140.454 140.037 139.792 139.41 
139.163 138.717 138.385 137.863 137.5 137.095 136.853 136.695 136.596 
136.575 141.621 141.235 141.376 141.187 140.697 140.938 140.758 140.866 
140.589 139.877 140.269 140.139 140.387 140.144 140.238 139.945 138.921 
139.334 139.232 139.645 139.499 139.749 139.488 139.59 139.299 138.125 
138.434 138.345 138.729 138.687 139.043 138.877 139.071 138.75 138.877 
138.541 137.469 137.742 137.67 137.964 137.939 138.277 138.197 138.441 
138.176 138.29 137.922 138.047 137.701 136.768 137.086 136.983 137.295 
137.176 137.527 137.41 137.743 137.557 137.745 137.47 137.533 137.257 
137.301 137.059 135.942 136.301 136.119 136.483 136.266 136.648 136.442 
136.853 136.682 137.053 136.894 137.123 136.97 137.042 136.905 136.878 
136.756 135.018 135.377 135.127 135.511 135.272 135.664 135.461 135.857 
135.7 136.113 136.005 136.415 136.345 136.671 136.606 136.768 136.686 
136.701 136.619 141.752 141.744 141.629 141.356 141.652 141.548 141.225 
141.148 140.786 141.545 141.422 141.024 140.93 140.528 140.461 139.981 
141.373 141.305 140.878 140.72 140.269 140.17 139.723 139.601 139.084 
140.966 141.052 140.66 140.555 140.054 139.926 139.472 139.367 138.899 
138.738 138.266 140.35 140.529 140.169 140.215 139.703 139.648 139.128 
139.08 138.584 138.508 138.007 137.927 137.513 139.752 139.888 139.539 
139.64 139.178 139.196 138.67 138.658 138.129 138.103 137.582 137.562 
137.113 137.145 136.783 139.287 139.348 139.012 139.065 138.674 138.686 
138.238 138.204 137.719 137.656 137.164 137.116 136.683 136.7 136.342 
136.393 136.02 138.917 138.941 138.623 138.632 138.288 138.277 137.904 
137.854 137.432 137.331 136.871 136.768 136.339 136.303 135.935 135.957 
135.584 135.596 135.159 141.956 142.223 142.088 141.998 142.474 142.39 
142.395 142.138 141.987 142.761 142.726 142.839 142.591 142.459 142.112 
141.9 142.899 142.998 143.166 143.041 142.888 142.554 142.241 141.935 
141.648 142.729 142.924 143.033 143.175 143.031 142.868 142.454 142.161 
141.741 141.535 141.174 142.604 142.631 142.582 142.79 142.679 142.779 
142.442 142.28 141.821 141.576 141.166 140.97 140.583 142.801 142.621 
142.465 142.4 142.248 142.32 142.112 142.134 141.812 141.662 141.281 
141.031 140.655 140.403 140.033 143.042 142.899 142.767 142.513 142.29 
142.089 141.848 141.798 141.564 141.555 141.27 141.147 140.791 140.549 
140.175 139.911 139.568 143.111 143.097 143.049 142.861 142.636 142.318 
141.986 141.716 141.408 141.305 141.049 141.023 140.732 140.623 140.264 
140.057 139.698 139.474 139.169 143.15 143.228 143.183 143.096 143.157 
143.167 142.988 142.963 142.69 142.846 142.973 142.768 142.774 142.453 
142.395 142.008 142.287 142.557 142.421 142.504 142.185 142.128 141.707 
141.646 141.316 141.557 141.913 141.816 142.053 141.763 141.811 141.373 
141.326 140.941 140.992 140.828 140.81 141.152 141.021 141.329 141.048 
141.245 140.834 140.913 140.513 140.587 140.355 140.546 140.475 140.101 
140.409 140.265 140.535 140.277 140.482 140.141 140.297 139.967 140.103 
139.86 140.037 139.902 140.149 140.045 139.416 139.702 139.573 139.828 
139.628 139.807 139.543 139.673 139.417 139.556 139.352 139.519 139.36 
139.566 139.436 139.669 139.529 138.79 139.032 138.901 139.157 139.002 
139.218 139.017 139.163 138.934 139.059 138.857 139.011 138.852 139.034 
138.9 139.097 138.972 139.171 139.036 138.422 137.859 138.255 138.492 
137.284 137.678 137.912 138.33 138.584 136.678 137.095 137.307 137.73 
137.97 138.406 138.622 135.961 136.435 136.627 137.082 137.281 137.744 
137.953 138.395 138.56 135.204 135.677 135.89 136.367 136.571 137.03 
137.233 137.692 137.896 138.322 138.494 134.53 134.95 135.181 135.647 
135.909 136.356 136.603 137.021 137.267 137.683 137.924 138.31 138.513 
133.921 134.308 134.511 134.963 135.239 135.718 136.009 136.446 136.718 
137.121 137.394 137.782 138.034 138.38 138.585 133.358 133.715 133.899 
134.308 134.552 135.031 135.323 135.822 136.106 136.565 136.831 137.256 
137.514 137.904 138.13 138.464 138.655 132.889 133.204 133.412 133.75 
133.978 134.372 134.645 135.117 135.424 135.915 136.203 136.66 136.921 
137.349 137.591 137.982 138.191 138.53 138.712 138.637 138.091 138.354 
138.317 137.466 137.756 137.704 138.002 137.964 136.789 137.093 137.035 
137.356 137.322 137.633 137.584 136.057 136.381 136.302 136.652 136.592 
136.941 136.865 137.198 137.096 135.239 135.583 135.443 135.837 135.705 
136.11 135.959 136.365 136.221 136.619 136.496 134.458 134.745 134.555 
134.908 134.715 135.118 134.909 135.345 135.17 135.639 135.54 135.998 
135.945 133.833 134.04 133.86 134.087 133.886 134.161 133.96 134.306 
134.144 134.572 134.496 134.994 134.997 135.49 135.516 133.28 133.473 
133.304 133.484 133.271 133.447 133.226 133.464 133.298 133.631 133.537 
133.974 133.961 134.486 134.526 135.063 135.11 132.732 132.915 132.72 
132.916 132.668 132.843 132.552 132.759 132.517 132.817 132.673 133.06 
133.003 133.468 133.48 134.013 134.054 134.613 134.651 141.173 140.991 
141.33 141.758 140.667 141.101 141.607 141.924 142.304 140.24 140.694 
141.224 141.702 142.165 142.448 142.787 139.903 140.258 140.731 141.242 
141.773 142.217 142.594 142.881 143.201 139.704 139.99 140.425 140.81 
141.328 141.779 142.219 142.59 142.897 143.222 143.482 139.495 139.808 
140.255 140.586 141.051 141.408 141.842 142.201 142.565 142.89 143.161 
143.427 143.526 139.264 139.578 140.009 140.373 140.798 141.146 141.523 
141.862 142.242 142.585 142.938 143.188 143.354 143.425 143.341 139.063 
139.343 139.719 140.071 140.468 140.831 141.19 141.535 141.898 142.267 
142.652 142.981 143.236 143.36 143.362 143.272 143.135 138.845 139.118 
139.448 139.77 140.137 140.483 140.848 141.192 141.559 141.92 142.292 
142.654 142.938 143.191 143.282 143.33 143.266 143.161 143.09 141.38 
141.935 141.713 141.802 142.453 142.25 142.355 142.128 142.18 142.98 
142.791 142.958 142.725 142.837 142.52 142.501 143.511 143.384 143.652 
143.415 143.558 143.215 143.158 142.762 142.609 143.823 143.874 144.188 
144.092 144.175 143.878 143.655 143.279 142.916 142.642 142.341 143.697 
143.941 144.165 144.362 144.349 144.258 143.853 143.547 142.975 142.719 
142.239 142.135 141.77 143.291 143.547 143.623 143.998 143.978 144.132 
143.739 143.551 142.953 142.683 142.19 142.002 141.645 141.517 141.22 
143.003 143.091 143.102 143.378 143.449 143.673 143.476 143.388 142.92 
142.672 142.272 142.06 141.815 141.587 141.389 141.149 141.01 142.998 
142.938 142.964 143.041 143.192 143.324 143.324 143.252 142.941 142.696 
142.357 142.181 142.03 141.876 141.784 141.525 141.434 141.158 141.142 
141.08 141.501 141.113 140.683 141.835 141.483 141.029 140.618 140.041 
142.084 141.757 141.265 140.889 140.286 139.85 139.18 142.251 141.987 
141.499 141.104 140.493 140.052 139.386 138.95 138.356 142.177 142.119 
141.738 141.382 140.78 140.288 139.613 139.153 138.564 138.202 137.764 
141.692 141.892 141.626 141.53 140.957 140.563 139.848 139.391 138.766 
138.4 137.937 137.663 137.283 141.08 141.299 141.073 141.2 140.703 
140.556 139.856 139.542 138.895 138.577 138.075 137.802 137.386 137.14 
136.721 140.822 140.822 140.63 140.663 140.295 140.207 139.648 139.444 
138.873 138.639 138.141 137.896 137.441 137.204 136.771 136.534 136.097 
140.968 140.797 140.65 140.484 140.218 139.996 139.578 139.318 138.858 
138.617 138.164 137.923 137.45 137.213 136.761 136.556 136.147 135.925 
135.525 141.967 141.968 142.041 142.165 141.898 141.967 142.008 142.134 
142.275 141.992 141.957 141.989 141.972 142.047 142.224 142.457 142.403 
142.288 142.483 142.219 142.304 142.148 142.309 142.44 142.644 142.764 
142.812 143.156 142.942 143.065 142.69 142.735 142.509 142.616 142.619 
142.678 142.653 142.958 143.233 143.384 143.42 143.315 143.206 143 
142.968 142.809 142.858 142.724 142.747 142.223 142.584 142.717 143.062 
142.981 143.188 142.986 143.109 143.037 143.102 143.159 143.073 143.115 
142.923 142.96 141.771 142.057 142.134 142.433 142.377 142.579 142.431 
142.63 142.648 142.933 143.107 143.268 143.329 143.262 143.202 143.092 
143.075 141.355 141.585 141.648 141.911 141.957 142.124 142.105 142.21 
142.311 142.549 142.841 143.113 143.286 143.341 143.248 143.176 143.044 
143.053 143.034 
POINT_DATA 1002
SCALARS Distance double
LOOKUP_TABLE default
138.042 138.577 138.195 137.595 137.699 137.461 137.008 137.015 136.945 
136.894 136.309 136.245 136.319 136.314 136.248 135.629 135.53 135.678 
135.652 135.579 135.472 134.928 134.855 135.02 134.97 134.851 134.775 
134.743 134.151 134.192 134.231 134.224 134.099 134.062 134.111 134.137 
133.424 133.584 133.44 133.488 133.379 133.306 133.416 133.517 133.551 
132.843 133.076 132.8 132.899 132.826 132.604 132.606 132.784 132.901 
133.005 132.42 132.703 132.304 132.407 132.411 132.088 131.85 131.986 
132.218 132.378 132.574 138.812 138.387 138.982 138.49 139.163 137.815 
138.666 139.4 137.883 137.048 139.003 139.611 138.152 137.161 136.244 
139.318 139.839 138.615 137.565 136.457 135.548 139.534 140.204 138.928 
138.044 136.915 135.821 134.923 139.774 140.596 139.055 138.269 137.285 
136.199 135.174 134.309 140.058 140.871 139.231 138.38 137.448 136.468 
135.471 134.534 133.737 140.309 141.037 139.478 138.569 137.595 136.664 
135.781 134.857 133.981 133.266 140.713 139.899 140.202 139.228 139.406 
138.934 138.317 138.508 138.105 137.861 137.548 137.843 137.234 137.029 
136.859 137.109 137.404 136.676 136.353 136.215 136.035 136.661 136.906 
136.241 135.796 135.585 135.445 135.155 136.014 136.282 135.644 135.173 
134.801 134.624 134.428 134.164 135.337 135.667 134.991 134.606 134.149 
133.774 133.575 133.444 133.329 134.757 135.142 134.406 134.13 133.768 
133.276 132.915 132.807 132.784 132.737 132.23 132.279 131.751 132.281 
131.725 131.159 132.228 131.602 130.972 130.569 132.402 131.509 130.803 
130.395 130.291 132.908 131.807 130.889 130.493 130.328 130.218 133.382 
132.408 131.403 130.886 130.655 130.292 130.031 133.654 132.896 132.092 
131.453 131.029 130.527 130.042 129.926 133.963 133.252 132.662 132.068 
131.403 130.767 130.288 130.091 130.168 134.4 133.668 133.114 132.635 
131.92 131.112 130.653 130.559 130.581 130.576 131.944 131.471 131.902 
130.955 131.453 131.975 130.564 130.975 131.357 131.707 130.38 130.621 
130.754 130.903 131.265 130.191 130.326 130.286 130.329 130.683 131.275 
130.044 130.094 129.887 129.865 130.358 131.019 131.612 130.148 130.11 
129.772 129.528 129.98 130.796 131.401 131.86 130.381 130.245 129.921 
129.554 129.727 130.445 131.122 131.588 132.054 130.647 130.336 130.464 
130.056 130.426 130.041 130.021 130.893 129.74 129.723 130.577 131.635 
129.815 129.699 129.72 131.448 132.207 130.461 129.957 130.037 130.214 
132.132 132.559 131.354 130.522 130.285 130.515 130.829 132.603 133.015 
132.086 131.332 130.772 130.755 131.05 131.36 133.224 133.783 132.719 
132.172 131.647 131.401 131.512 131.756 131.933 134.086 134.691 133.498 
132.979 132.569 132.302 132.248 132.38 132.504 132.535 131.066 131.015 
131.601 131.457 132.031 130.876 131.961 132.508 131.493 131.19 132.666 
133.19 132.245 132.079 131.905 133.487 133.924 133.077 132.909 132.776 
132.465 134.298 134.705 133.869 133.65 133.54 133.18 132.745 135.257 
135.606 134.769 134.385 134.239 133.988 133.483 133.103 136.183 136.309 
135.833 135.347 134.985 134.755 134.416 134.023 133.812 136.649 136.564 
136.599 136.324 135.917 135.563 135.294 135.053 134.862 134.753 135.066 
134.346 134.997 134.327 134.986 133.665 134.385 135.079 133.723 133.171 
134.557 135.246 133.871 133.237 132.574 134.805 135.488 134.128 133.416 
132.557 131.698 135.122 135.821 134.409 133.717 132.845 131.885 131.132 
135.533 136.153 134.733 134.014 133.273 132.453 131.751 131.141 135.962 
136.397 135.158 134.334 133.623 132.907 132.314 131.829 131.224 135.766 
135.634 136.33 136.158 136.959 135.538 136.858 137.703 136.098 135.575 
137.724 138.412 136.876 136.197 135.713 138.542 139.101 137.774 136.967 
136.369 135.902 139.373 139.845 138.65 137.824 137.151 136.608 136.164 
140.22 140.46 139.57 138.7 138.012 137.414 136.807 136.392 140.85 
140.85 140.428 139.586 138.827 138.223 137.472 136.786 136.481 141.226 