# vtk DataFile Version 4.0
vtk output
ASCII
DATASET POLYDATA
POINTS 1002 float
-120.572 -85.8782 73.8521 -125.148 -101.739 76.3334 -109.985 -90.6079 73.4722 
-118.357 -103.233 76.808 -121.302 -92.8671 83.9815 -115.053 -95.7199 83.9055 
-123.623 -94.8825 68.1005 -117.34 -96.2745 68.9838 -122.142 -108.854 83.667 
-114.263 -82.3469 76.7627 -123.388 -110.564 69.2491 -112.794 -83.072 66.824 
-121.214 -87.0359 74.3159 -121.894 -88.3538 74.8219 -122.63 -89.7221 75.2146 
-123.356 -91.1485 75.561 -123.905 -92.8175 75.9141 -124.274 -94.7881 76.1396 
-124.538 -96.8763 76.2485 -124.708 -98.8172 76.32 -124.881 -100.435 76.332 
-120.732 -86.1572 74.8306 -120.923 -86.5574 75.937 -121.09 -87.1376 77.1108 
-121.161 -87.881 78.2747 -121.135 -88.7384 79.312 -121.08 -89.6818 80.2532 
-121.084 -90.5926 81.2976 -121.186 -91.3553 82.4002 -121.297 -92.07 83.3122 
-120.887 -86.2985 73.2142 -121.274 -86.8025 72.5633 -121.633 -87.5173 71.7754 
-122.071 -88.3627 70.9067 -122.667 -89.1795 70.2127 -123.062 -90.1755 69.7921 
-123.081 -91.4895 69.4697 -123.114 -92.7566 69.0498 -123.364 -93.795 68.536 
-120.046 -84.9158 74.1279 -119.472 -83.927 74.5539 -118.766 -82.9942 74.952 
-118.091 -81.9971 75.3453 -117.598 -80.9259 75.9634 -116.948 -80.2555 76.6476 
-115.954 -80.3133 76.9616 -115.053 -80.8535 76.8966 -114.548 -81.5719 76.7714 
-120.07 -85.0665 73.0731 -119.541 -84.208 72.3417 -118.926 -83.3679 71.5836 
-118.03 -82.7368 70.7722 -116.9 -82.3926 70.0959 -115.899 -82.2847 69.5716 
-115.145 -82.3082 68.8847 -114.396 -82.362 67.9769 -113.558 -82.5567 67.2018 
-124.531 -101.245 76.9174 -124.112 -100.328 77.6552 -124.037 -99.1733 78.6724 
-123.991 -98.1354 79.8172 -123.669 -97.1201 80.8548 -123.316 -95.8749 81.8188 
-123.058 -94.7321 82.6857 -122.579 -94.0341 83.2752 -121.879 -93.525 83.6429 
-125.552 -101.287 75.6748 -125.875 -100.834 74.8352 -125.942 -100.464 73.8256 
-125.588 -100.123 72.762 -125.094 -99.6663 71.7854 -124.818 -98.9924 70.9369 
-124.546 -98.0577 70.1772 -124.15 -96.9452 69.4428 -123.853 -95.8441 68.7171 
-125.099 -102.777 76.7834 -125.114 -103.819 77.4292 -125.108 -104.666 78.1992 
-124.913 -105.37 78.9585 -124.525 -106.175 79.7756 -124.102 -106.982 80.6785 
-123.735 -107.64 81.5532 -123.343 -108.271 82.4158 -122.81 -108.769 83.1989 
-125.693 -102.655 75.9834 -125.944 -103.748 75.4964 -125.941 -105.206 74.734 
-126.075 -106.681 73.7485 -126.079 -107.717 72.827 -125.5 -108.504 72.051 
-124.825 -109.4 71.1622 -124.45 -110.236 70.1788 -124.036 -110.647 69.4826 
-110.921 -91.3425 73.6374 -111.864 -92.1757 74.0612 -112.849 -93.309 74.7024 
-113.956 -94.6917 75.2574 -115.066 -96.0179 75.7113 -116.092 -97.2731 76.1722 
-116.927 -98.7373 76.4453 -117.486 -100.375 76.5377 -117.929 -101.901 76.6735 
-110.378 -90.798 74.4657 -110.76 -91.0812 75.5357 -111.129 -91.5581 76.7416 
-111.628 -92.1138 78.0137 -112.25 -92.5232 79.1391 -112.933 -92.8992 80.1456 
-113.692 -93.5568 81.1859 -114.318 -94.4358 82.2125 -114.682 -95.2024 83.1389 
-110.247 -90.8607 72.5502 -110.658 -91.1784 71.6317 -111.108 -91.6983 70.814 
-111.536 -92.3561 70.2005 -112.171 -93.0273 69.7347 -113.155 -93.7082 69.2781 
-114.231 -94.3787 68.9823 -115.245 -95.011 68.9753 -116.289 -95.638 69.0336 
-109.439 -89.8234 73.9705 -109.3 -88.7116 74.3602 -109.692 -87.4866 74.4921 
-110.421 -86.4297 74.4687 -111.137 -85.4602 74.6213 -111.625 -84.4291 75.1167 
-112.08 -83.5421 75.7132 -112.807 -82.9788 76.1206 -113.645 -82.6288 76.396 
-109.258 -89.972 72.7403 -108.799 -89.1986 71.7963 -108.744 -88.3582 70.7125 
-108.963 -87.4329 69.727 -109.383 -86.3344 68.9558 -109.996 -85.3113 68.4035 
-110.605 -84.5945 68.0084 -111.165 -83.9819 67.5807 -111.885 -83.4006 67.1106 
-117.947 -102.722 77.4601 -117.498 -102.182 78.1681 -117.021 -101.65 78.9061 
-116.524 -101.051 79.7153 -115.978 -100.394 80.6908 -115.436 -99.74 81.79 
-115.059 -98.9592 82.7465 -114.918 -97.9479 83.3583 -114.948 -96.8213 83.6944 
-118.473 -102.89 76.0702 -118.498 -102.446 75.2123 -118.521 -101.791 74.4019 
-118.649 -100.859 73.7209 -118.708 -99.8817 72.9522 -118.434 -99.1989 71.9027 
-117.968 -98.6656 70.8163 -117.621 -97.9285 70.0386 -117.452 -97.0465 69.5134 
-118.421 -104.316 77.1692 -118.325 -105.611 77.432 -118.207 -106.904 77.9801 
-118.283 -107.908 79.0307 -118.683 -108.517 80.1202 -119.385 -108.701 80.8424 
-120.171 -108.646 81.4915 -120.847 -108.726 82.3346 -121.478 -108.916 83.1538 
-118.845 -104.319 76.423 -119.28 -105.383 75.9242 -119.634 -106.432 75.2968 
-120.005 -107.599 74.5152 -120.474 -108.804 73.5686 -121.015 -109.672 72.5562 
-121.552 -110.131 71.6134 -122.081 -110.434 70.7494 -122.696 -110.621 69.9334 
-121.006 -92.9135 84.5953 -120.682 -92.9581 85.2471 -120.116 -93.0173 85.8339 
-119.192 -93.1954 86.1262 -118.251 -93.5864 85.9195 -117.609 -94.0591 85.4181 
-117.017 -94.4497 85.0382 -116.259 -94.8282 84.7794 -115.54 -95.2779 84.4043 
-121.492 -94.2013 84.3859 -121.673 -95.5602 84.8805 -121.968 -96.9904 85.3397 
-122.261 -98.5495 85.513 -122.298 -100.201 85.2813 -122.308 -102.091 84.8505 
-122.568 -104.349 84.6091 -122.735 -106.523 84.5646 -122.522 -108.035 84.3112 
-120.941 -91.4032 83.9962 -120.616 -89.7379 83.9807 -120.1 -88.3057 83.6736 
-119.231 -87.2252 82.8537 -118.131 -86.0769 81.7988 -116.993 -84.7087 80.9671 
-115.97 -83.5914 80.1593 -115.232 -83.0008 78.9991 -114.738 -82.6766 77.7326 
-115.653 -96.817 84.3544 -116.565 -98.0026 84.6141 -117.454 -99.3374 84.7972 
-118.099 -100.787 84.9784 -118.666 -102.307 85.0098 -119.297 -103.923 84.7844 
-120.001 -105.574 84.5525 -120.797 -107.057 84.4668 -121.562 -108.165 84.2499 
-114.929 -94.3125 83.5506 -114.917 -92.7901 82.8943 -114.89 -91.2601 82.0278 
-114.654 -89.7408 81.2432 -114.314 -88.1788 80.5714 -114.185 -86.7181 79.7554 
-114.277 -85.5307 78.8402 -114.357 -84.4759 78.041 -114.33 -83.3944 77.3589 
-123.469 -95.1856 67.6478 -122.993 -95.701 67.4586 -122.219 -96.2602 67.4903 
-121.41 -96.5483 67.5059 -120.593 -96.4874 67.482 -119.689 -96.3486 67.5897 
-118.925 -96.3146 67.8351 -118.402 -96.3075 68.1607 -117.9 -96.277 68.5602 
-123.835 -96.9757 68.1877 -123.848 -99.5359 68.3346 -124.002 -101.839 68.0851 
-124.327 -103.388 67.276 -124.394 -104.645 66.5836 -124.221 -106.128 66.6274 
-124.182 -107.616 67.1047 -124.128 -108.849 67.6418 -123.81 -109.835 68.3392 
-122.952 -93.3317 67.9083 -121.71 -91.9742 67.9301 -120.203 -90.7287 67.9481 
-118.837 -89.4631 67.7374 -117.604 -88.1596 67.4021 -116.438 -86.8787 67.1344 
-115.477 -85.6614 66.8732 -114.629 -84.5523 66.6075 -113.712 -83.6602 66.5544 
-118.414 -97.4927 69.1562 -119.415 -99.1113 69.2142 -120.179 -101.167 69.1452 
-120.564 -103.377 68.74 -120.764 -105.216 68.1035 -121.127 -106.523 67.7765 
-121.68 -107.625 67.9445 -122.276 -108.74 68.3079 -122.861 -109.772 68.7104 
-116.471 -95.2259 68.2896 -115.405 -94.1367 67.3725 -114.36 -92.8387 66.4727 
-113.581 -91.3689 65.5406 -113.137 -89.9795 64.7322 -112.938 -88.7042 64.7753 
-112.851 -87.2951 65.5927 -112.778 -85.7046 66.2442 -112.73 -84.2149 66.5121 
-122.227 -109.548 82.564 -122.384 -110.357 81.3437 -122.557 -111.081 80.0859 
-122.672 -111.537 78.5543 -122.868 -111.987 76.7259 -123.208 -112.399 74.9053 
-123.465 -112.359 73.2468 -123.507 -111.895 71.7342 -123.445 -111.275 70.3789 
-113.905 -81.4811 75.9785 -113.564 -80.6655 75.1717 -113.19 -80.0229 74.1759 
-112.695 -79.56 72.9709 -112.247 -79.3862 71.6153 -112.07 -79.6929 70.225 
-112.092 -80.4423 69.0768 -112.185 -81.3592 68.2154 -112.407 -82.231 67.4547 
-121.304 -87.5238 75.3098 -121.433 -88.1143 76.3948 -121.983 -88.9579 75.7751 
-121.58 -88.7623 77.569 -122.192 -89.5341 76.8174 -122.847 -90.2702 76.2038 
-121.668 -89.4773 78.7486 -122.433 -90.1105 77.9898 -123.148 -90.8121 77.2928 
-123.623 -91.7191 76.6693 -121.694 -90.3147 79.8128 -122.54 -90.8538 79.1615 
-123.277 -91.5795 78.4213 -123.769 -92.5408 77.7775 -124.105 -93.6177 77.0274 
-121.732 -91.2154 80.8569 -122.55 -91.7333 80.2515 -123.178 -92.5418 79.4579 
-123.621 -93.6381 78.7657 -124.1 -94.6983 78.0623 -124.435 -95.7486 77.1613 
-121.828 -92.0262 81.9517 -122.583 -92.5519 81.3659 -123.088 -93.3805 80.5053 
-123.416 -94.5916 79.6725 -123.893 -95.7231 78.9663 -124.364 -96.7115 78.1051 
-124.559 -97.7886 77.1507 -121.919 -92.7543 82.9121 -122.63 -93.2785 82.4266 
-123.081 -94.0516 81.6473 -123.352 -95.2625 80.7096 -123.751 -96.4662 79.8594 
-124.14 -97.4614 78.9482 -124.312 -98.5381 77.9268 -124.482 -99.6382 77.0352 
-120.268 -85.113 75.2082 -119.622 -84.1856 75.6587 -120.513 -85.4728 76.3815 
-118.799 -83.4298 76.0768 -119.808 -84.6259 76.8003 -120.71 -86.076 77.5867 
-118.199 -82.5798 76.5997 -118.965 -84.0061 77.2654 -120.037 -85.2244 78.046 
-120.797 -86.8827 78.7676 -117.802 -81.695 77.2714 -118.444 -83.3043 77.9065 
-119.244 -84.5818 78.6668 -120.229 -85.9792 79.3659 -120.774 -87.8525 79.8241 
-117.007 -81.2678 77.7753 -117.967 -82.6092 78.5506 -118.655 -83.9739 79.3478 
-119.519 -85.3234 80.0999 -120.356 -86.9939 80.5639 -120.726 -88.9053 80.8706 
-115.892 -81.4268 77.924 -116.989 -82.2882 78.9711 -117.962 -83.479 79.8494 
-118.838 -84.8977 80.6285 -119.817 -86.4276 81.3091 -120.475 -88.0819 81.7501 
-120.758 -89.8161 82.0663 -115.094 -81.9538 77.8527 -115.89 -82.4516 79.1124 
-116.919 -83.3218 80.1362 -117.993 -84.6731 80.8778 -119.1 -86.1592 81.6943 
-120.061 -87.5048 82.5085 -120.577 -88.9398 82.9901 -120.865 -90.5707 83.1892 
-114.825 -83.7231 78.4508 -114.876 -84.8826 79.1741 -115.306 -84.1296 79.7242 
-114.874 -86.1764 80.005 -115.46 -85.5535 80.3774 -116.074 -84.9778 80.7831 
-114.927 -87.6496 80.9375 -115.66 -87.1333 81.2091 -116.309 -86.5851 81.5108 
-117.102 -86.1939 81.7475 -115.098 -89.189 81.746 -115.838 -88.6809 82.1187 
-116.535 -88.0927 82.4577 -117.174 -87.5378 82.8073 -118.149 -87.2459 82.9638 
-115.23 -90.68 82.5294 -115.904 -90.1607 82.924 -116.668 -89.5845 83.2756 
-117.225 -88.9018 83.7263 -118.03 -88.3622 84.0694 -119.19 -88.1692 84.0599 
-115.239 -92.208 83.4081 -115.871 -91.6805 83.7653 -116.702 -91.2181 83.9934 
-117.354 -90.6604 84.3264 -118.056 -90.0404 84.7007 -119.119 -89.5996 84.8242 
[...]
POINT_DATA 1002
FIELD FieldData 2
Theta 1 1002 float
2.58802 2.58802 0.553574 0.553574 2.12437 1.01722 2.12437 1.01722 1.5708 
1.5708 1.5708 1.5708 2.68241 2.78649 2.89924 3.01861 3.14159 3.01861 
2.89924 2.78649 2.68241 2.61035 2.61791 2.60515 2.56958 2.51327 2.44184 
2.36202 2.27983 2.1997 2.61035 2.61791 2.60515 2.56958 2.51327 2.44184 
2.36202 2.27983 2.1997 2.50947 2.41899 2.31794 2.20864 2.0944 1.97902 
1.86631 1.75944 1.66056 2.50947 2.41899 2.31794 2.20864 2.0944 1.97902 
1.86631 1.75944 1.66056 2.61035 2.61791 2.60515 2.56958 2.51327 2.44184 
2.36202 2.27983 2.1997 2.61035 2.61791 2.60515 2.56958 2.51327 2.44184 
2.36202 2.27983 2.1997 2.50947 2.41899 2.31794 2.20864 2.0944 1.97902 
1.86631 1.75944 1.66056 2.50947 2.41899 2.31794 2.20864 2.0944 1.97902 
1.86631 1.75944 1.66056 0.459179 0.355101 0.242354 0.122983 0 0.122983 
0.242354 0.355101 0.459179 0.531246 0.523681 0.536438 0.57201 0.628319 0.699757 
0.779574 0.86176 0.941896 0.531246 0.523681 0.536438 0.57201 0.628319 0.699757 
0.779574 0.86176 0.941896 0.632123 0.7226 0.823657 0.932948 1.0472 1.16257 
1.27528 1.38216 1.48103 0.632123 0.7226 0.823657 0.932948 1.0472 1.16257 
1.27528 1.38216 1.48103 0.531246 0.523681 0.536438 0.57201 0.628319 0.699757 
0.779574 0.86176 0.941896 0.531246 0.523681 0.536438 0.57201 0.628319 0.699757 
0.779574 0.86176 0.941896 0.632123 0.7226 0.823657 0.932948 1.0472 1.16257 
1.27528 1.38216 1.48103 0.632123 0.7226 0.823657 0.932948 1.0472 1.16257 
1.27528 1.38216 1.48103 2.02998 1.9259 1.81315 1.69378 1.5708 1.44781 
1.32844 1.2157 1.11162 2.0928 2.05283 2.00422 1.94767 1.88496 1.81867 
1.75177 1.68695 1.62623 2.0928 2.05283 2.00422 1.94767 1.88496 1.81867 
1.75177 1.68695 1.62623 1.0488 1.08876 1.13737 1.19392 1.25664 1.32292 
1.38982 1.45464 1.51537 1.0488 1.08876 1.13737 1.19392 1.25664 1.32292 
1.38982 1.45464 1.51537 2.02998 1.9259 1.81315 1.69378 1.5708 1.44781 
1.32844 1.2157 1.11162 2.0928 2.05283 2.00422 1.94767 1.88496 1.81867 
1.75177 1.68695 1.62623 2.0928 2.05283 2.00422 1.94767 1.88496 1.81867 
1.75177 1.68695 1.62623 1.0488 1.08876 1.13737 1.19392 1.25664 1.32292 
1.38982 1.45464 1.51537 1.0488 1.08876 1.13737 1.19392 1.25664 1.32292 
1.38982 1.45464 1.51537 1.5708 1.5708 1.5708 1.5708 1.5708 1.5708 
1.5708 1.5708 1.5708 1.5708 1.5708 1.5708 1.5708 1.5708 1.5708 
1.5708 1.5708 1.5708 2.70908 2.71362 2.81592 2.68886 2.81002 2.92597 
2.6349 2.76254 2.89233 3.01997 2.55881 2.68262 2.80854 2.92834 3.01997 
2.47007 2.58462 2.70048 2.80854 2.89233 2.92597 2.37702 2.48017 2.58462 
2.68262 2.76254 2.81002 2.81592 2.28567 2.37702 2.47007 2.55881 2.6349 
2.68886 2.71362 2.70908 2.52097 2.4195 2.51718 2.30791 2.40503 2.49426 
2.18928 2.28408 2.3734 2.45144 2.06758 2.15805 2.24572 2.32523 2.39165 
1.94707 2.03138 2.11543 2.19453 2.26401 2.32035 1.83164 1.90847 1.98711 
2.06376 2.13422 2.1949 2.24359 1.72413 1.79288 1.86489 1.93728 2.00658 
2.06938 2.12312 2.16654 1.5708 1.50988 1.63171 1.44492 1.5708 1.69667 
1.37826 1.5059 1.63569 1.76333 1.31281 1.43962 1.5708 1.70197 1.82878 
1.25155 1.37501 1.50478 1.63681 1.76659 1.89004 1.19686 1.31493 1.44074 
1.5708 1.70086 1.82666 1.94473 1.15011 1.26149 1.38136 1.50697 1.63462 
1.76024 1.88011 1.99148 1.99148 1.88011 1.94473 1.76024 1.82666 1.89004 
1.63462 1.70086 1.76659 1.82878 1.50697 1.5708 1.63681 1.70197 1.76333 
1.38136 1.44074 1.50478 1.5708 1.63569 1.69667 1.26149 1.31493 1.37501 
1.43962 1.5059 1.5708 1.63171 1.15011 1.19686 1.25155 1.31281 1.37826 
1.44492 1.50988 1.5708 2.16654 2.12312 2.24359 2.06938 2.1949 2.32035 
2.00658 2.13422 2.26401 2.39165 1.93728 2.06376 2.19453 2.32523 2.45144 
1.86489 1.98711 2.11543 2.24572 2.3734 2.49426 1.79288 1.90847 2.03138 
2.15805 2.28408 2.40503 2.51718 1.72413 1.83164 1.94707 2.06758 2.18928 
2.30791 2.4195 2.52097 1.66533 1.66946 1.76911 1.67254 1.777 1.88041 
1.67418 1.78222 1.89102 1.99634 1.67418 1.78405 1.89674 2.00785 2.11299 
1.67254 1.78222 1.89674 2.01191 2.12307 2.22608 1.66946 1.777 1.89102 
2.00785 2.12307 2.23222 2.33166 1.66533 1.76911 1.88041 1.99634 2.11299 
2.22608 2.33166 2.42672 1.47626 1.37249 1.47213 1.26118 1.36459 1.46906 
1.14526 1.25058 1.35938 1.46741 1.0286 1.13374 1.24485 1.35755 1.46741 
0.915514 1.01852 1.12969 1.24485 1.35938 1.46906 0.809937 0.909371 1.01852 
1.13374 1.25058 1.36459 1.47213 0.714871 0.809937 0.915514 1.0286 1.14526 
1.26118 1.37249 1.47626 0.975055 0.898002 1.01847 0.821245 0.946693 1.07221 
0.749941 0.877585 1.00737 1.13501 0.690152 0.816367 0.94706 1.07784 1.20431 
0.647337 0.768195 0.895868 1.02616 1.15448 1.2767 0.624416 0.736561 0.857515 
0.983547 1.11021 1.23313 1.34871 0.620619 0.722093 0.833684 0.952313 1.07402 
1.19452 1.30996 1.41746 0.855925 0.764569 0.764569 0.671524 0.661425 0.671524 
0.582786 0.556971 0.556971 0.582786 0.506696 0.458968 0.441109 0.458968 0.506696 
0.45273 0.379052 0.333054 0.333054 0.379052 0.45273 0.427969 0.331576 0.249267 
0.21325 0.249267 0.331576 0.427969 0.432512 0.325669 0.215619 0.121622 0.121622 
0.215619 0.325669 0.432512 0.432512 0.427969 0.325669 0.45273 0.331576 0.215619 
0.506696 0.379052 0.249267 0.121622 0.582786 0.458968 0.333054 0.21325 0.121622 
0.671524 0.556971 0.441109 0.333054 0.249267 0.215619 0.764569 0.661425 0.556971 
0.458968 0.379052 0.331576 0.325669 0.855925 0.764569 0.671524 0.582786 0.506696 
0.45273 0.427969 0.432512 0.975055 1.01847 0.898002 1.07221 0.946693 0.821245 
1.13501 1.00737 0.877585 0.749941 1.20431 1.07784 0.94706 0.816367 0.690152 
1.2767 1.15448 1.02616 0.895868 0.768195 0.647337 1.34871 1.23313 1.11021 
0.983547 0.857515 0.736561 0.624416 1.41746 1.30996 1.19452 1.07402 0.952313 
0.833684 0.722093 0.620619 1.15011 1.26149 1.19686 1.38136 1.31493 1.25155 
1.50697 1.44074 1.37501 1.31281 1.63462 1.5708 1.50478 1.43962 1.37826 
1.76024 1.70086 1.63681 1.5708 1.5059 1.44492 1.88011 1.82666 1.76659 
1.70197 1.63569 1.5708 1.50988 1.99148 1.94473 1.89004 1.82878 1.76333 
1.69667 1.63171 1.5708 1.15011 1.19686 1.26149 1.25155 1.31493 1.38136 
1.31281 1.37501 1.44074 1.50697 1.37826 1.43962 1.50478 1.5708 1.63462 
1.44492 1.5059 1.5708 1.63681 1.70086 1.76024 1.50988 1.5708 1.63569 
1.70197 1.76659 1.82666 1.88011 1.5708 1.63171 1.69667 1.76333 1.82878 
1.89004 1.94473 1.99148 1.72413 1.83164 1.79288 1.94707 1.90847 1.86489 
2.06758 2.03138 1.98711 1.93728 2.18928 2.15805 2.11543 2.06376 2.00658 
2.30791 2.28408 2.24572 2.19453 2.13422 2.06938 2.4195 2.40503 2.3734 
2.32523 2.26401 2.1949 2.12312 2.52097 2.51718 2.49426 2.45144 2.39165 
2.32035 2.24359 2.16654 2.70908 2.81592 2.71362 2.92597 2.81002 2.68886 
3.01997 2.89233 2.76254 2.6349 3.01997 2.92834 2.80854 2.68262 2.55881 
2.92597 2.89233 2.80854 2.70048 2.58462 2.47007 2.81592 2.81002 2.76254 
2.68262 2.58462 2.48017 2.37702 2.70908 2.71362 2.68886 2.6349 2.55881 
2.47007 2.37702 2.28567 2.16654 2.24359 2.12312 2.32035 2.1949 2.06938 
2.39165 2.26401 2.13422 2.00658 2.45144 2.32523 2.19453 2.06376 1.93728 
2.49426 2.3734 2.24572 2.11543 1.98711 1.86489 2.51718 2.40503 2.28408 
2.15805 2.03138 1.90847 1.79288 2.52097 2.4195 2.30791 2.18928 2.06758 
1.94707 1.83164 1.72413 1.66533 1.76911 1.66946 1.88041 1.777 1.67254 
1.99634 1.89102 1.78222 1.67418 2.11299 2.00785 1.89674 1.78405 1.67418 
2.22608 2.12307 2.01191 1.89674 1.78222 1.67254 2.33166 2.23222 2.12307 
2.00785 1.89102 1.777 1.66946 2.42672 2.33166 2.22608 2.11299 1.99634 
1.88041 1.76911 1.66533 1.47626 1.47213 1.37249 1.46906 1.36459 1.26118 
1.46741 1.35938 1.25058 1.14526 1.46741 1.35755 1.24485 1.13374 1.0286 
1.46906 1.35938 1.24485 1.12969 1.01852 0.915514 1.47213 1.36459 1.25058 
1.13374 1.01852 0.909371 0.809937 1.47626 1.37249 1.26118 1.14526 1.0286 
0.915514 0.809937 0.714871 1.41746 1.30996 1.34871 1.19452 1.23313 1.2767 
1.07402 1.11021 1.15448 1.20431 0.952313 0.983547 1.02616 1.07784 1.13501 
0.833684 0.857515 0.895868 0.94706 1.00737 1.07221 0.722093 0.736561 0.768195 
0.816367 0.877585 0.946693 1.01847 0.620619 0.624416 0.647337 0.690152 0.749941 
0.821245 0.898002 0.975055 0.975055 0.898002 1.01847 0.821245 0.946693 1.07221 
0.749941 0.877585 1.00737 1.13501 0.690152 0.816367 0.94706 1.07784 1.20431 
0.647337 0.768195 0.895868 1.02616 1.15448 1.2767 0.624416 0.736561 0.857515 
0.983547 1.11021 1.23313 1.34871 0.620619 0.722093 0.833684 0.952313 1.07402 
1.19452 1.30996 1.41746 
Phi 1 1002 float
6.28319 3.14159 6.28319 3.14159 4.71239 4.71239 1.5708 1.5708 3.69517 
5.72961 2.58802 0.553574 6.28319 6.28319 6.28319 6.28319 3.14159 3.14159 
3.14159 3.14159 3.14159 6.1053 5.8988 5.67687 5.45995 5.26596 5.10322 
4.97131 4.86569 4.78095 0.177881 0.384387 0.606312 0.823235 1.01722 1.17997 
1.31187 1.4175 1.50223 6.18928 6.10703 6.03531 5.97283 5.91832 5.87061 
5.82869 5.79168 5.75886 0.0939024 0.176153 0.247873 0.310351 0.364864 0.412573 
0.454497 0.491504 0.524326 3.31947 3.52598 3.7479 3.96483 4.15881 4.32156 
4.45346 4.55909 4.64383 2.96371 2.75721 2.53528 2.31836 2.12437 1.96162 
1.82972 1.72409 1.63936 3.2355 3.31775 3.38947 3.45194 3.50646 3.55417 
3.59609 3.6331 3.66592 3.04769 2.96544 2.89372 2.83124 2.77673 2.72902 
2.6871 2.65009 2.61727 6.28319 6.28319 6.28319 6.28319 3.14159 3.14159 
3.14159 3.14159 3.14159 6.1053 5.8988 5.67687 5.45995 5.26596 5.10322 
4.97131 4.86569 4.78095 0.177881 0.384387 0.606312 0.823235 1.01722 1.17997 
1.31187 1.4175 1.50223 6.18928 6.10703 6.03531 5.97283 5.91832 5.87061 
5.82869 5.79168 5.75886 0.0939024 0.176153 0.247873 0.310351 0.364864 0.412573 
0.454497 0.491504 0.524326 3.31947 3.52598 3.7479 3.96483 4.15881 4.32156 
4.45346 4.55909 4.64383 2.96371 2.75721 2.53528 2.31836 2.12437 1.96162 
1.82972 1.72409 1.63936 3.2355 3.31775 3.38947 3.45194 3.50646 3.55417 
3.59609 3.6331 3.66592 3.04769 2.96544 2.89372 2.83124 2.77673 2.72902 
2.6871 2.65009 2.61727 4.71239 4.71239 4.71239 4.71239 4.71239 4.71239 
4.71239 4.71239 4.71239 4.60879 4.49914 4.3857 4.27128 4.15881 4.05096 
3.94976 3.85646 3.77161 4.81599 4.92564 5.03907 5.1535 5.26596 5.37381 
5.47502 5.56831 5.65317 4.60879 4.49914 4.3857 4.27128 4.15881 4.05096 
3.94976 3.85646 3.77161 4.81599 4.92564 5.03907 5.1535 5.26596 5.37381 
5.47502 5.56831 5.65317 1.5708 1.5708 1.5708 1.5708 1.5708 1.5708 
1.5708 1.5708 1.5708 1.6744 1.78405 1.89748 2.01191 2.12437 2.23222 
2.33343 2.42672 2.51157 1.4672 1.35755 1.24411 1.12969 1.01722 0.909371 
0.808166 0.714871 0.63002 1.6744 1.78405 1.89748 2.01191 2.12437 2.23222 
2.33343 2.42672 2.51157 1.4672 1.35755 1.24411 1.12969 1.01722 0.909371 
0.808166 0.714871 0.63002 3.60077 3.49669 3.38395 3.26458 3.14159 3.01861 
2.89924 2.78649 2.68241 5.82401 5.92808 6.04083 6.1602 6.28319 0.122983 
0.242354 0.355101 0.459179 6.05603 5.78856 5.97021 5.51259 5.60297 5.78856 
5.26596 5.26596 5.26596 5.26596 5.06749 5.0121 4.91556 4.71239 4.15881 
4.91556 4.83537 4.71239 4.50922 4.15881 3.63622 4.80045 4.71239 4.58941 
4.41268 4.15881 3.82181 3.45456 4.71239 4.62433 4.50922 4.35729 4.15881 
3.91219 3.63622 3.36875 6.01742 5.94343 5.82633 5.88092 5.76745 5.62798 
5.8278 5.71897 5.58911 5.43724 5.78235 5.67854 5.55757 5.41926 5.26596 
5.74316 5.64441 5.5315 5.40467 5.26596 5.11955 5.70914 5.61528 5.50962 
5.3926 5.26596 5.13292 4.99789 5.67937 5.59016 5.49102 5.38246 5.26596 
5.14407 5.02016 4.89798 5.56831 5.47502 5.47502 5.37381 5.37381 5.37381 
5.26596 5.26596 5.26596 5.26596 5.1535 5.1535 5.1535 5.1535 5.1535 
5.03907 5.03907 5.03907 5.03907 5.03907 5.03907 4.92564 4.92564 4.92564 
4.92564 4.92564 4.92564 4.92564 4.81599 4.81599 4.81599 4.81599 4.81599 
4.81599 4.81599 4.81599 4.60879 4.60879 4.49914 4.60879 4.49914 4.3857 
4.60879 4.49914 4.3857 4.27128 4.60879 4.49914 4.3857 4.27128 4.15881 
4.60879 4.49914 4.3857 4.27128 4.15881 4.05096 4.60879 4.49914 4.3857 
4.27128 4.15881 4.05096 3.94976 4.60879 4.49914 4.3857 4.27128 4.15881 
4.05096 3.94976 3.85646 4.5268 4.40462 4.42689 4.28071 4.29185 4.30523 
4.15881 4.15881 4.15881 4.15881 4.04232 4.03217 4.02011 4.00552 3.98753 
3.93376 3.91515 3.89328 3.86721 3.83566 3.7968 3.83461 3.8095 3.78037 
3.74624 3.70581 3.65733 3.59845 3.7454 3.71564 3.68161 3.64243 3.59698 
3.54386 3.48135 3.40735 3.56428 3.45246 3.52338 3.33203 3.40312 3.47739 
3.20576 3.27463 3.34802 3.42551 3.07742 3.14159 3.21128 3.28647 3.36688 
2.95116 3.00855 3.0719 3.14159 3.21784 3.3006 2.83072 2.88006 2.93517 
2.99672 3.06535 3.14159 3.22575 2.7189 2.7598 2.8058 2.85768 2.9163 
2.98259 3.05743 3.14159 3.56428 3.52338 3.45246 3.47739 3.40312 3.33203 
3.42551 3.34802 3.27463 3.20576 3.36688 3.28647 3.21128 3.14159 3.07742 
3.3006 3.21784 3.14159 3.0719 3.00855 2.95116 3.22575 3.14159 3.06535 
2.99672 2.93517 2.88006 2.83072 3.14159 3.05743 2.98259 2.9163 2.85768 
2.8058 2.7598 2.7189 4.5268 4.42689 4.40462 4.30523 4.29185 4.28071 
4.15881 4.15881 4.15881 4.15881 3.98753 4.00552 4.02011 4.03217 4.04232 
3.7968 3.83566 3.86721 3.89328 3.91515 3.93376 3.59845 3.65733 3.70581 
3.74624 3.78037 3.8095 3.83461 3.40735 3.48135 3.54386 3.59698 3.64243 
3.68161 3.71564 3.7454 4.71239 4.80045 4.62433 4.91556 4.71239 4.50922 
5.06749 4.83537 4.58941 4.35729 5.26596 5.0121 4.71239 4.41268 4.15881 
5.51259 5.26596 4.91556 4.50922 4.15881 3.91219 5.78856 5.60297 5.26596 
4.71239 4.15881 3.82181 3.63622 6.05603 5.97021 5.78856 5.26596 4.15881 
3.63622 3.45456 3.36875 0.227158 0.494626 0.312971 0.770593 0.680215 0.494626 
1.01722 1.01722 1.01722 1.01722 1.2157 1.27109 1.36763 1.5708 2.12437 
1.36763 1.44781 1.5708 1.77397 2.12437 2.64697 1.48273 1.5708 1.69378 
1.8705 2.12437 2.46138 2.82862 1.5708 1.65886 1.77397 1.9259 2.12437 
2.371 2.64697 2.91443 1.75639 1.87857 1.8563 2.00248 1.99133 1.97796 
2.12437 2.12437 2.12437 2.12437 2.24087 2.25101 2.26308 2.27767 2.29565 
2.34943 2.36803 2.38991 2.41597 2.44752 2.48639 2.44857 2.47368 2.50281 
2.53694 2.57738 2.62586 2.68474 2.53778 2.56754 2.60157 2.64076 2.68621 
2.73933 2.80184 2.87583 1.6744 1.6744 1.78405 1.6744 1.78405 1.89748 
1.6744 1.78405 1.89748 2.01191 1.6744 1.78405 1.89748 2.01191 2.12437 
1.6744 1.78405 1.89748 2.01191 2.12437 2.23222 1.6744 1.78405 1.89748 
2.01191 2.12437 2.23222 2.33343 1.6744 1.78405 1.89748 2.01191 2.12437 
2.23222 2.33343 2.42672 1.4672 1.35755 1.4672 1.24411 1.35755 1.4672 
1.12969 1.24411 1.35755 1.4672 1.01722 1.12969 1.24411 1.35755 1.4672 
0.909371 1.01722 1.12969 1.24411 1.35755 1.4672 0.808166 0.909371 1.01722 
1.12969 1.24411 1.35755 1.4672 0.714871 0.808166 0.909371 1.01722 1.12969 
1.24411 1.35755 1.4672 0.603812 0.57405 0.693022 0.540021 0.667908 0.792164 
0.500837 0.638778 0.773562 0.900726 0.455383 0.604649 0.751687 0.890581 1.01722 
0.402264 0.564217 0.725619 0.878514 1.01722 1.13912 0.339753 0.515737 0.694072 
0.863926 1.01722 1.15026 1.26302 0.265762 0.456853 0.655207 0.845941 1.01722 
1.16363 1.28529 1.38521 0.227158 0.312971 0.494626 0.494626 0.680215 0.770593 
1.01722 1.01722 1.01722 1.01722 2.12437 1.5708 1.36763 1.27109 1.2157 
2.64697 2.12437 1.77397 1.5708 1.44781 1.36763 2.82862 2.46138 2.12437 
1.8705 1.69378 1.5708 1.48273 2.91443 2.64697 2.371 2.12437 1.9259 
1.77397 1.65886 1.5708 1.75639 1.8563 1.87857 1.97796 1.99133 2.00248 
2.12437 2.12437 2.12437 2.12437 2.29565 2.27767 2.26308 2.25101 2.24087 
2.48639 2.44752 2.41597 2.38991 2.36803 2.34943 2.68474 2.62586 2.57738 
2.53694 2.50281 2.47368 2.44857 2.87583 2.80184 2.73933 2.68621 2.64076 
2.60157 2.56754 2.53778 5.86049 5.90139 5.97231 5.94739 6.02165 6.09275 
5.99927 6.07676 6.15015 6.21902 6.0579 6.13831 6.2135 0 0.0641696 
6.12418 6.20694 6.28319 0.069689 0.13304 0.190437 6.19903 0 0.0762451 
0.144876 0.206423 0.261531 0.310872 0 0.0841597 0.159004 0.225289 0.283913 
0.335793 0.381792 0.422692 5.86049 5.97231 5.90139 6.09275 6.02165 5.94739 
6.21902 6.15015 6.07676 5.99927 0.0641696 0 6.2135 6.13831 6.0579 
0.190437 0.13304 0.069689 6.28319 6.20694 6.12418 0.310872 0.261531 0.206423 
0.144876 0.0762451 6.28319 6.19903 0.422692 0.381792 0.335793 0.283913 0.225289 
0.159004 0.0841597 0 5.67937 5.70914 5.59016 5.74316 5.61528 5.49102 
5.78235 5.64441 5.50962 5.38246 5.8278 5.67854 5.5315 5.3926 5.26596 
5.88092 5.71897 5.55757 5.40467 5.26596 5.14407 5.94343 5.76745 5.58911 
5.41926 5.26596 5.13292 5.02016 6.01742 5.82633 5.62798 5.43724 5.26596 
5.11955 4.99789 4.89798 1.38521 1.28529 1.26302 1.16363 1.15026 1.13912 
1.01722 1.01722 1.01722 1.01722 0.845941 0.863926 0.878514 0.890581 0.900726 
0.655207 0.694072 0.725619 0.751687 0.773562 0.792164 0.456853 0.515737 0.564217 
0.604649 0.638778 0.667908 0.693022 0.265762 0.339753 0.402264 0.455383 0.500837 
0.540021 0.57405 0.603812 
