# vtk DataFile Version 4.0
vtk output
ASCII
DATASET POLYDATA
POINTS 1002 float
-122.76 -82.5842 63.4455 -129.092 -99.5387 69.7806 -111.578 -87.5587 64.4637 
-120.999 -101.629 71.7052 -124.873 -88.34 75.1122 -118.457 -90.7028 75.4309 
-125.042 -93.9503 61.0301 -118.675 -95.0933 61.6468 -125.647 -106.822 78.4564 
-115.705 -78.2522 66.4783 -126.016 -111.652 65.4144 -113.429 -81.6601 55.5316 
-123.491 -83.7774 63.9726 -124.471 -85.0524 64.5229 -125.677 -86.2564 65.1 
-126.542 -87.9064 65.8415 -126.977 -90.3129 66.7466 -127.702 -92.5012 67.577 
-128.689 -93.9468 68.2178 -129.199 -95.5014 68.7649 -129.185 -97.5395 69.289 
-123.048 -82.6936 64.3976 -123.402 -82.8518 65.4252 -123.774 -83.1412 66.5994 
-124.099 -83.6309 68.0043 -124.343 -84.2899 69.4482 -124.479 -85.0916 70.7377 
-124.588 -85.9563 71.9987 -124.748 -86.7592 73.2656 -124.87 -87.5293 74.3304 
-122.949 -83.2238 62.8758 -123.151 -84.0502 62.3906 -123.345 -85.0491 61.9375 
-123.571 -86.1008 61.4699 -123.847 -87.1839 61.1297 -124.168 -88.4491 60.9612 
-124.521 -89.8833 60.8136 -124.826 -91.2902 60.7246 -124.994 -92.6199 60.8187 
-122.156 -81.6238 63.5633 -121.369 -80.7243 63.7571 -120.468 -79.7827 63.9211 
-119.727 -78.7685 64.0543 -119.188 -77.7752 64.4202 -118.508 -76.9576 65.1044 
-117.606 -76.6058 65.7204 -116.77 -76.8812 66.0296 -116.151 -77.5402 66.2248 
-122.03 -81.938 62.5776 -120.953 -81.4774 61.7683 -119.735 -81.0805 60.9549 
-118.794 -80.5116 59.8749 -118.009 -79.9582 58.6404 -116.982 -79.8072 57.6868 
-115.875 -80.0046 56.98 -114.976 -80.3674 56.2937 -114.201 -80.9213 55.7629 
-128.919 -98.5538 70.527 -128.34 -97.7225 70.8571 -127.724 -96.8061 71.0676 
-127.491 -95.4392 71.869 -127.354 -93.914 72.9712 -126.94 -92.5793 73.599 
-126.515 -91.2092 74.034 -126.152 -89.9056 74.6064 -125.581 -89.0088 74.9919 
-129.049 -99.4004 68.5686 -129.011 -99.1694 67.4646 -128.963 -98.8902 66.5126 
-128.624 -98.644 65.5458 -127.929 -98.3111 64.7553 -127.282 -97.6797 64.0656 
-126.959 -96.7865 63.0012 -126.672 -95.8233 61.8724 -126.025 -94.8759 61.2687 
-129.112 -100.672 70.7743 -129.076 -101.721 71.6369 -128.66 -102.845 72.2888 
-128.009 -103.996 72.8896 -127.62 -104.931 73.7288 -127.36 -105.655 74.8608 
-126.92 -106.224 76.0007 -126.489 -106.574 76.9578 -126.132 -106.759 77.7818 
-128.997 -101.34 69.5038 -128.85 -103.21 69.2043 -128.88 -105.235 68.8307 
-129.049 -107.221 68.2985 -128.786 -108.632 67.7453 -128.03 -109.611 67.1916 
-127.52 -110.74 66.4375 -127.313 -111.751 65.6922 -126.835 -112.033 65.3601 
-112.602 -88.3517 64.977 -113.648 -89.3676 65.7183 -114.848 -90.433 66.6647 
-116.351 -91.5155 67.6744 -117.753 -92.9692 68.6353 -118.68 -94.7358 69.5118 
-119.406 -96.4108 70.2729 -120.138 -98.0514 70.9045 -120.701 -99.8306 71.3916 
-112.041 -87.6212 65.603 -112.448 -87.7326 66.8696 -112.889 -87.8487 68.1637 
-113.458 -88.0886 69.5033 -114.141 -88.5612 70.7923 -115.012 -89.1143 71.8936 
-116.056 -89.5667 72.8874 -117.008 -89.9377 73.8345 -117.767 -90.3065 74.684 
-111.779 -87.9814 63.6968 -112.21 -88.3989 63.0597 -112.8 -88.9844 62.592 
-113.314 -89.9241 62.1376 -113.881 -90.915 61.774 -114.797 -91.671 61.6508 
-115.823 -92.5134 61.5648 -116.706 -93.5453 61.4567 -117.63 -94.4292 61.5016 
-110.988 -86.7558 64.646 -110.723 -85.6357 64.6784 -110.882 -84.1953 64.6483 
-111.342 -82.7788 64.7812 -111.983 -81.729 64.9579 -112.748 -80.8871 65.0113 
-113.534 -79.9977 65.1915 -114.299 -79.1885 65.6136 -115.033 -78.624 66.0699 
-110.627 -87.1625 63.6203 -109.77 -86.7557 62.7724 -109.326 -86.0755 61.5306 
-109.28 -85.0814 59.8435 -109.434 -84.1469 58.4093 -109.913 -83.4795 57.6069 
-110.756 -82.8941 56.9721 -111.662 -82.3152 56.2578 -112.528 -81.8756 55.7238 
-120.764 -100.936 72.3375 -120.272 -100.251 72.9004 -119.562 -99.5639 73.4616 
-118.949 -98.8061 74.1556 -118.605 -97.8993 74.9473 -118.362 -96.6712 75.6283 
-118.178 -95.0602 75.9851 -118.194 -93.3621 75.9453 -118.348 -91.8975 75.6793 
-121.031 -101.204 70.8694 -121.121 -100.702 69.9954 -121.228 -100.064 69.086 
-121.151 -99.2853 68.0129 -120.988 -98.4033 66.7657 -120.905 -97.4725 65.5606 
-120.569 -96.681 64.4927 -119.835 -96.1448 63.4782 -119.119 -95.6809 62.5129 
-121.028 -103.018 72.3394 -120.982 -104.416 73.0416 -121.074 -105.605 73.9441 
-121.529 -106.436 74.9709 -122.249 -106.906 75.8325 -122.905 -107.229 76.6045 
-123.471 -107.599 77.5464 -124.172 -107.799 78.3633 -124.976 -107.521 78.6373 
-121.19 -103.187 71.3628 -121.456 -104.776 70.9209 -121.9 -106.275 70.5148 
-122.416 -107.649 70.112 -122.921 -108.969 69.4697 -123.432 -110.208 68.5861 
-123.916 -111.065 67.7484 -124.452 -111.429 67.0072 -125.189 -111.574 66.2162 
-124.408 -88.3661 75.6015 -123.94 -88.1816 76.2512 -123.375 -87.9065 76.9531 
-122.591 -87.9734 77.2323 -121.723 -88.4644 76.9768 -120.917 -88.97 76.683 
-120.144 -89.3478 76.534 -119.457 -89.7703 76.258 -118.921 -90.2519 75.8201 
-125.262 -89.6281 75.8012 -125.694 -90.9503 76.6902 -126.096 -92.3701 77.614 
-126.273 -94.1973 78.145 -126.205 -96.5565 78.2947 -126.174 -99.0508 78.4633 
-126.25 -101.34 78.6228 -126.2 -103.433 78.5957 -125.958 -105.297 78.5137 
-124.281 -86.9343 74.7808 -123.831 -85.1804 74.3783 -123.239 -83.5196 73.6818 
-122.121 -82.191 72.7867 -120.732 -80.805 72.0899 -119.518 -79.464 71.3987 
-118.401 -78.804 70.2146 -117.313 -78.6555 68.7576 -116.413 -78.4783 67.4956 
-119.177 -91.9262 76.253 -119.929 -93.391 77.1054 -120.497 -95.0234 78.0346 
-120.984 -96.8831 78.873 -121.723 -98.971 79.3781 -122.702 -101.012 79.5609 
-123.678 -102.844 79.5422 -124.527 -104.478 79.3529 -125.184 -105.823 78.9888 
-118.07 -89.3355 74.7527 -117.609 -87.8786 74.0041 -117.069 -86.3027 73.2075 
-116.509 -84.6888 72.4094 -116.084 -83.1691 71.578 -115.924 -81.8834 70.5525 
-115.922 -80.8717 69.386 -115.873 -79.984 68.3129 -115.768 -79.0962 67.3676 
-124.35 -94.2451 60.9924 -123.702 -94.5841 60.7446 -123.255 -94.8797 60.3024 
-122.818 -95.0328 59.977 -121.989 -95.111 59.9005 -120.874 -95.1854 59.9637 
-120.041 -95.1672 60.2245 -119.583 -95.0785 60.7011 -119.154 -95.0585 61.2055 
-125.687 -96.0754 61.3298 -126.174 -98.6271 61.5749 -126.428 -101.416 61.776 
-126.612 -103.973 61.679 -126.795 -105.902 61.3449 -126.785 -107.359 61.4994 
-126.617 -108.733 62.3758 -126.491 -110.02 63.426 -126.335 -111.001 64.3961 
-123.908 -92.1873 60.4746 -122.786 -90.5315 59.4977 -121.633 -89.2025 58.4989 
-120.161 -88.0237 57.8271 -118.632 -86.6588 57.0766 -117.586 -85.3233 56.1141 
-116.706 -84.2969 55.5522 -115.526 -83.3689 55.4687 -114.317 -82.4266 55.4671 
-119.969 -96.2732 62.1912 -121.151 -97.9535 62.561 -122.042 -100.149 62.8855 
-122.698 -102.514 63.2054 -123.205 -104.812 63.3486 -123.597 -106.858 63.4385 
-124.028 -108.392 63.8288 -124.618 -109.553 64.425 -125.327 -110.65 64.9439 
-117.673 -93.9572 60.6072 -116.609 -92.7091 59.2787 -115.48 -91.5963 57.8238 
-114.468 -90.6165 56.4581 -113.752 -89.4195 55.3057 -113.23 -87.9199 54.652 
-112.875 -86.2965 54.7138 -112.849 -84.6154 55.104 -113.103 -83.0042 55.3628 
-125.722 -108.169 77.8996 -125.825 -109.486 76.9838 -125.817 -110.685 75.78 
-125.678 -111.803 74.4314 -125.648 -112.983 72.832 -125.822 -113.875 71.0701 
-125.999 -113.931 69.4599 -126.08 -113.317 67.9695 -126.096 -112.506 66.5572 
-115.266 -77.7153 65.2853 -114.749 -77.3643 64.0124 -114.076 -77.0888 62.7648 
-113.291 -76.8066 61.3983 -112.669 -76.8286 59.865 -112.488 -77.4529 58.5553 
-112.697 -78.4928 57.566 -112.999 -79.5782 56.6541 -113.221 -80.597 55.9171 
-123.867 -83.9535 64.9555 -124.292 -84.2248 66.0826 -125.029 -85.2331 65.5584 
-124.637 -84.7049 67.4597 -125.456 -85.6288 66.8596 -126.157 -86.5964 66.276 
-124.904 -85.3289 68.9714 -125.705 -86.2377 68.3866 -126.351 -87.2295 67.7221 
-126.655 -88.678 67.1643 -125.095 -86.0223 70.3194 -125.912 -86.8874 69.8359 
-126.531 -87.9366 69.2293 -126.744 -89.5162 68.5865 -127.086 -91.2442 68.0573 
-125.209 -86.8122 71.5451 -125.993 -87.6495 71.0735 -126.703 -88.6756 70.596 
-127.013 -90.2288 69.9662 -127.324 -91.994 69.3152 -128.045 -93.1962 68.7876 
-125.364 -87.5831 72.8294 -125.986 -88.5169 72.2783 -126.627 -89.6072 71.8277 
-127.119 -90.9939 71.2902 -127.442 -92.6697 70.4998 -128.034 -93.9783 69.8736 
-128.803 -94.7109 69.413 -125.535 -88.2784 74.0347 -126.065 -89.2652 73.4935 
-126.505 -90.5222 72.9647 -127.004 -91.844 72.5212 -127.364 -93.3352 71.7098 
-127.677 -94.8215 70.7988 -128.292 -95.8136 70.3643 -128.937 -96.5586 70.0014 
-122.517 -81.6636 64.5951 -121.778 -80.7401 64.8715 -122.92 -81.7731 65.7138 
-120.858 -79.8629 65.1904 -122.2 -80.8531 66.1645 -123.325 -82.024 67.014 
-120.14 -78.95 65.5696 -121.301 -80.0436 66.7333 -122.654 -81.0715 67.6298 
-123.683 -82.4895 68.4978 -119.639 -78.0674 66.1323 -120.681 -79.2123 67.3076 
-121.872 -80.2577 68.3128 -123.107 -81.4687 69.1134 -123.918 -83.2029 69.9304 
-118.882 -77.4475 66.7848 -120.153 -78.4512 67.9214 -121.268 -79.4963 68.9617 
-122.427 -80.6321 69.7706 -123.416 -82.1722 70.4884 -124.016 -84.1375 71.2551 
-117.872 -77.3624 67.2127 -119.226 -78.0273 68.4823 -120.5 -78.8843 69.6347 
-121.658 -80.0096 70.4691 -122.782 -81.3913 71.1241 -123.574 -83.1683 71.8315 
-124.106 -85.1271 72.5912 -117.006 -77.8063 67.3788 -118.145 -78.1296 68.7469 
-119.41 -78.6089 70.1251 -120.615 -79.6049 71.103 -121.877 -80.9782 71.7302 
-123.021 -82.4653 72.4157 -123.715 -84.22 73.1764 -124.225 -86.046 73.8258 
-116.506 -79.3329 68.4572 -116.613 -80.1912 69.5207 -117.442 -79.4086 69.8312 
-116.71 -81.2081 70.6493 -117.615 -80.3932 70.89 -118.52 -79.6808 71.2342 
-116.928 -82.5615 71.6479 -117.872 -81.8384 71.8334 -118.737 -81.1333 72.0299 
-119.633 -80.7952 72.1537 -117.329 -84.1156 72.4886 -118.258 -83.5277 72.6988 
-119.06 -82.9424 72.8424 -119.893 -82.5175 72.8779 -121.001 -82.2809 72.9122 
-117.744 -85.6547 73.413 -118.625 -85.0741 73.6881 -119.41 -84.5831 73.8927 
-120.199 -84.1121 73.9823 -121.324 -83.6621 74.0903 -122.492 -83.417 74.0542 
-118.108 -87.1894 74.3873 -118.875 -86.548 74.7511 -119.693 -86.0699 74.9692 
-120.465 -85.5927 75.1448 -121.509 -84.993 75.4169 -122.684 -84.6225 75.472 
[...]
POINT_DATA 1002
FIELD FieldData 2
Theta 1 1002 float
2.58802 2.58802 0.553574 0.553574 2.12437 1.01722 2.12437 1.01722 1.5708 
1.5708 1.5708 1.5708 2.68241 2.78649 2.89924 3.01861 3.14159 3.01861 
2.89924 2.78649 2.68241 2.61035 2.61791 2.60515 2.56958 2.51327 2.44184 
2.36202 2.27983 2.1997 2.61035 2.61791 2.60515 2.56958 2.51327 2.44184 
2.36202 2.27983 2.1997 2.50947 2.41899 2.31794 2.20864 2.0944 1.97902 
1.86631 1.75944 1.66056 2.50947 2.41899 2.31794 2.20864 2.0944 1.97902 
1.86631 1.75944 1.66056 2.61035 2.61791 2.60515 2.56958 2.51327 2.44184 
2.36202 2.27983 2.1997 2.61035 2.61791 2.60515 2.56958 2.51327 2.44184 
2.36202 2.27983 2.1997 2.50947 2.41899 2.31794 2.20864 2.0944 1.97902 
1.86631 1.75944 1.66056 2.50947 2.41899 2.31794 2.20864 2.0944 1.97902 
1.86631 1.75944 1.66056 0.459179 0.355101 0.242354 0.122983 0 0.122983 
0.242354 0.355101 0.459179 0.531246 0.523681 0.536438 0.57201 0.628319 0.699757 
0.779574 0.86176 0.941896 0.531246 0.523681 0.536438 0.57201 0.628319 0.699757 
0.779574 0.86176 0.941896 0.632123 0.7226 0.823657 0.932948 1.0472 1.16257 
1.27528 1.38216 1.48103 0.632123 0.7226 0.823657 0.932948 1.0472 1.16257 
1.27528 1.38216 1.48103 0.531246 0.523681 0.536438 0.57201 0.628319 0.699757 
0.779574 0.86176 0.941896 0.531246 0.523681 0.536438 0.57201 0.628319 0.699757 
0.779574 0.86176 0.941896 0.632123 0.7226 0.823657 0.932948 1.0472 1.16257 
1.27528 1.38216 1.48103 0.632123 0.7226 0.823657 0.932948 1.0472 1.16257 
1.27528 1.38216 1.48103 2.02998 1.9259 1.81315 1.69378 1.5708 1.44781 
1.32844 1.2157 1.11162 2.0928 2.05283 2.00422 1.94767 1.88496 1.81867 
1.75177 1.68695 1.62623 2.0928 2.05283 2.00422 1.94767 1.88496 1.81867 
1.75177 1.68695 1.62623 1.0488 1.08876 1.13737 1.19392 1.25664 1.32292 
1.38982 1.45464 1.51537 1.0488 1.08876 1.13737 1.19392 1.25664 1.32292 
1.38982 1.45464 1.51537 2.02998 1.9259 1.81315 1.69378 1.5708 1.44781 
1.32844 1.2157 1.11162 2.0928 2.05283 2.00422 1.94767 1.88496 1.81867 
1.75177 1.68695 1.62623 2.0928 2.05283 2.00422 1.94767 1.88496 1.81867 
1.75177 1.68695 1.62623 1.0488 1.08876 1.13737 1.19392 1.25664 1.32292 
1.38982 1.45464 1.51537 1.0488 1.08876 1.13737 1.19392 1.25664 1.32292 
1.38982 1.45464 1.51537 1.5708 1.5708 1.5708 1.5708 1.5708 1.5708 
1.5708 1.5708 1.5708 1.5708 1.5708 1.5708 1.5708 1.5708 1.5708 
1.5708 1.5708 1.5708 2.70908 2.71362 2.81592 2.68886 2.81002 2.92597 
2.6349 2.76254 2.89233 3.01997 2.55881 2.68262 2.80854 2.92834 3.01997 
2.47007 2.58462 2.70048 2.80854 2.89233 2.92597 2.37702 2.48017 2.58462 
2.68262 2.76254 2.81002 2.81592 2.28567 2.37702 2.47007 2.55881 2.6349 
2.68886 2.71362 2.70908 2.52097 2.4195 2.51718 2.30791 2.40503 2.49426 
2.18928 2.28408 2.3734 2.45144 2.06758 2.15805 2.24572 2.32523 2.39165 
1.94707 2.03138 2.11543 2.19453 2.26401 2.32035 1.83164 1.90847 1.98711 
2.06376 2.13422 2.1949 2.24359 1.72413 1.79288 1.86489 1.93728 2.00658 
2.06938 2.12312 2.16654 1.5708 1.50988 1.63171 1.44492 1.5708 1.69667 
1.37826 1.5059 1.63569 1.76333 1.31281 1.43962 1.5708 1.70197 1.82878 
1.25155 1.37501 1.50478 1.63681 1.76659 1.89004 1.19686 1.31493 1.44074 
1.5708 1.70086 1.82666 1.94473 1.15011 1.26149 1.38136 1.50697 1.63462 
1.76024 1.88011 1.99148 1.99148 1.88011 1.94473 1.76024 1.82666 1.89004 
1.63462 1.70086 1.76659 1.82878 1.50697 1.5708 1.63681 1.70197 1.76333 
1.38136 1.44074 1.50478 1.5708 1.63569 1.69667 1.26149 1.31493 1.37501 
1.43962 1.5059 1.5708 1.63171 1.15011 1.19686 1.25155 1.31281 1.37826 
1.44492 1.50988 1.5708 2.16654 2.12312 2.24359 2.06938 2.1949 2.32035 
2.00658 2.13422 2.26401 2.39165 1.93728 2.06376 2.19453 2.32523 2.45144 
1.86489 1.98711 2.11543 2.24572 2.3734 2.49426 1.79288 1.90847 2.03138 
2.15805 2.28408 2.40503 2.51718 1.72413 1.83164 1.94707 2.06758 2.18928 
2.30791 2.4195 2.52097 1.66533 1.66946 1.76911 1.67254 1.777 1.88041 
1.67418 1.78222 1.89102 1.99634 1.67418 1.78405 1.89674 2.00785 2.11299 
1.67254 1.78222 1.89674 2.01191 2.12307 2.22608 1.66946 1.777 1.89102 
2.00785 2.12307 2.23222 2.33166 1.66533 1.76911 1.88041 1.99634 2.11299 
2.22608 2.33166 2.42672 1.47626 1.37249 1.47213 1.26118 1.36459 1.46906 
1.14526 1.25058 1.35938 1.46741 1.0286 1.13374 1.24485 1.35755 1.46741 
0.915514 1.01852 1.12969 1.24485 1.35938 1.46906 0.809937 0.909371 1.01852 
1.13374 1.25058 1.36459 1.47213 0.714871 0.809937 0.915514 1.0286 1.14526 
1.26118 1.37249 1.47626 0.975055 0.898002 1.01847 0.821245 0.946693 1.07221 
0.749941 0.877585 1.00737 1.13501 0.690152 0.816367 0.94706 1.07784 1.20431 
0.647337 0.768195 0.895868 1.02616 1.15448 1.2767 0.624416 0.736561 0.857515 
0.983547 1.11021 1.23313 1.34871 0.620619 0.722093 0.833684 0.952313 1.07402 
1.19452 1.30996 1.41746 0.855925 0.764569 0.764569 0.671524 0.661425 0.671524 
0.582786 0.556971 0.556971 0.582786 0.506696 0.458968 0.441109 0.458968 0.506696 
0.45273 0.379052 0.333054 0.333054 0.379052 0.45273 0.427969 0.331576 0.249267 
0.21325 0.249267 0.331576 0.427969 0.432512 0.325669 0.215619 0.121622 0.121622 
0.215619 0.325669 0.432512 0.432512 0.427969 0.325669 0.45273 0.331576 0.215619 
0.506696 0.379052 0.249267 0.121622 0.582786 0.458968 0.333054 0.21325 0.121622 
0.671524 0.556971 0.441109 0.333054 0.249267 0.215619 0.764569 0.661425 0.556971 
0.458968 0.379052 0.331576 0.325669 0.855925 0.764569 0.671524 0.582786 0.506696 
0.45273 0.427969 0.432512 0.975055 1.01847 0.898002 1.07221 0.946693 0.821245 
1.13501 1.00737 0.877585 0.749941 1.20431 1.07784 0.94706 0.816367 0.690152 
1.2767 1.15448 1.02616 0.895868 0.768195 0.647337 1.34871 1.23313 1.11021 
0.983547 0.857515 0.736561 0.624416 1.41746 1.30996 1.19452 1.07402 0.952313 
0.833684 0.722093 0.620619 1.15011 1.26149 1.19686 1.38136 1.31493 1.25155 
1.50697 1.44074 1.37501 1.31281 1.63462 1.5708 1.50478 1.43962 1.37826 
1.76024 1.70086 1.63681 1.5708 1.5059 1.44492 1.88011 1.82666 1.76659 
1.70197 1.63569 1.5708 1.50988 1.99148 1.94473 1.89004 1.82878 1.76333 
1.69667 1.63171 1.5708 1.15011 1.19686 1.26149 1.25155 1.31493 1.38136 
1.31281 1.37501 1.44074 1.50697 1.37826 1.43962 1.50478 1.5708 1.63462 
1.44492 1.5059 1.5708 1.63681 1.70086 1.76024 1.50988 1.5708 1.63569 
1.70197 1.76659 1.82666 1.88011 1.5708 1.63171 1.69667 1.76333 1.82878 
1.89004 1.94473 1.99148 1.72413 1.83164 1.79288 1.94707 1.90847 1.86489 
2.06758 2.03138 1.98711 1.93728 2.18928 2.15805 2.11543 2.06376 2.00658 
2.30791 2.28408 2.24572 2.19453 2.13422 2.06938 2.4195 2.40503 2.3734 
2.32523 2.26401 2.1949 2.12312 2.52097 2.51718 2.49426 2.45144 2.39165 
2.32035 2.24359 2.16654 2.70908 2.81592 2.71362 2.92597 2.81002 2.68886 
3.01997 2.89233 2.76254 2.6349 3.01997 2.92834 2.80854 2.68262 2.55881 
2.92597 2.89233 2.80854 2.70048 2.58462 2.47007 2.81592 2.81002 2.76254 
2.68262 2.58462 2.48017 2.37702 2.70908 2.71362 2.68886 2.6349 2.55881 
2.47007 2.37702 2.28567 2.16654 2.24359 2.12312 2.32035 2.1949 2.06938 
2.39165 2.26401 2.13422 2.00658 2.45144 2.32523 2.19453 2.06376 1.93728 
2.49426 2.3734 2.24572 2.11543 1.98711 1.86489 2.51718 2.40503 2.28408 
2.15805 2.03138 1.90847 1.79288 2.52097 2.4195 2.30791 2.18928 2.06758 
1.94707 1.83164 1.72413 1.66533 1.76911 1.66946 1.88041 1.777 1.67254 
1.99634 1.89102 1.78222 1.67418 2.11299 2.00785 1.89674 1.78405 1.67418 
2.22608 2.12307 2.01191 1.89674 1.78222 1.67254 2.33166 2.23222 2.12307 
2.00785 1.89102 1.777 1.66946 2.42672 2.33166 2.22608 2.11299 1.99634 
1.88041 1.76911 1.66533 1.47626 1.47213 1.37249 1.46906 1.36459 1.26118 
1.46741 1.35938 1.25058 1.14526 1.46741 1.35755 1.24485 1.13374 1.0286 
1.46906 1.35938 1.24485 1.12969 1.01852 0.915514 1.47213 1.36459 1.25058 
1.13374 1.01852 0.909371 0.809937 1.47626 1.37249 1.26118 1.14526 1.0286 
0.915514 0.809937 0.714871 1.41746 1.30996 1.34871 1.19452 1.23313 1.2767 
1.07402 1.11021 1.15448 1.20431 0.952313 0.983547 1.02616 1.07784 1.13501 
0.833684 0.857515 0.895868 0.94706 1.00737 1.07221 0.722093 0.736561 0.768195 
0.816367 0.877585 0.946693 1.01847 0.620619 0.624416 0.647337 0.690152 0.749941 
0.821245 0.898002 0.975055 0.975055 0.898002 1.01847 0.821245 0.946693 1.07221 
0.749941 0.877585 1.00737 1.13501 0.690152 0.816367 0.94706 1.07784 1.20431 
0.647337 0.768195 0.895868 1.02616 1.15448 1.2767 0.624416 0.736561 0.857515 
0.983547 1.11021 1.23313 1.34871 0.620619 0.722093 0.833684 0.952313 1.07402 
1.19452 1.30996 1.41746 
Phi 1 1002 float
6.28319 3.14159 6.28319 3.14159 4.71239 4.71239 1.5708 1.5708 3.69517 
5.72961 2.58802 0.553574 6.28319 6.28319 6.28319 6.28319 3.14159 3.14159 
3.14159 3.14159 3.14159 6.1053 5.8988 5.67687 5.45995 5.26596 5.10322 
4.97131 4.86569 4.78095 0.177881 0.384387 0.606312 0.823235 1.01722 1.17997 
1.31187 1.4175 1.50223 6.18928 6.10703 6.03531 5.97283 5.91832 5.87061 
5.82869 5.79168 5.75886 0.0939024 0.176153 0.247873 0.310351 0.364864 0.412573 
0.454497 0.491504 0.524326 3.31947 3.52598 3.7479 3.96483 4.15881 4.32156 
4.45346 4.55909 4.64383 2.96371 2.75721 2.53528 2.31836 2.12437 1.96162 
1.82972 1.72409 1.63936 3.2355 3.31775 3.38947 3.45194 3.50646 3.55417 
3.59609 3.6331 3.66592 3.04769 2.96544 2.89372 2.83124 2.77673 2.72902 
2.6871 2.65009 2.61727 6.28319 6.28319 6.28319 6.28319 3.14159 3.14159 
3.14159 3.14159 3.14159 6.1053 5.8988 5.67687 5.45995 5.26596 5.10322 
4.97131 4.86569 4.78095 0.177881 0.384387 0.606312 0.823235 1.01722 1.17997 
1.31187 1.4175 1.50223 6.18928 6.10703 6.03531 5.97283 5.91832 5.87061 
5.82869 5.79168 5.75886 0.0939024 0.176153 0.247873 0.310351 0.364864 0.412573 
0.454497 0.491504 0.524326 3.31947 3.52598 3.7479 3.96483 4.15881 4.32156 
4.45346 4.55909 4.64383 2.96371 2.75721 2.53528 2.31836 2.12437 1.96162 
1.82972 1.72409 1.63936 3.2355 3.31775 3.38947 3.45194 3.50646 3.55417 
3.59609 3.6331 3.66592 3.04769 2.96544 2.89372 2.83124 2.77673 2.72902 
2.6871 2.65009 2.61727 4.71239 4.71239 4.71239 4.71239 4.71239 4.71239 
4.71239 4.71239 4.71239 4.60879 4.49914 4.3857 4.27128 4.15881 4.05096 
3.94976 3.85646 3.77161 4.81599 4.92564 5.03907 5.1535 5.26596 5.37381 
5.47502 5.56831 5.65317 4.60879 4.49914 4.3857 4.27128 4.15881 4.05096 
3.94976 3.85646 3.77161 4.81599 4.92564 5.03907 5.1535 5.26596 5.37381 
5.47502 5.56831 5.65317 1.5708 1.5708 1.5708 1.5708 1.5708 1.5708 
1.5708 1.5708 1.5708 1.6744 1.78405 1.89748 2.01191 2.12437 2.23222 
2.33343 2.42672 2.51157 1.4672 1.35755 1.24411 1.12969 1.01722 0.909371 
0.808166 0.714871 0.63002 1.6744 1.78405 1.89748 2.01191 2.12437 2.23222 
2.33343 2.42672 2.51157 1.4672 1.35755 1.24411 1.12969 1.01722 0.909371 
0.808166 0.714871 0.63002 3.60077 3.49669 3.38395 3.26458 3.14159 3.01861 
2.89924 2.78649 2.68241 5.82401 5.92808 6.04083 6.1602 6.28319 0.122983 
0.242354 0.355101 0.459179 6.05603 5.78856 5.97021 5.51259 5.60297 5.78856 
5.26596 5.26596 5.26596 5.26596 5.06749 5.0121 4.91556 4.71239 4.15881 
4.91556 4.83537 4.71239 4.50922 4.15881 3.63622 4.80045 4.71239 4.58941 
4.41268 4.15881 3.82181 3.45456 4.71239 4.62433 4.50922 4.35729 4.15881 
3.91219 3.63622 3.36875 6.01742 5.94343 5.82633 5.88092 5.76745 5.62798 
5.8278 5.71897 5.58911 5.43724 5.78235 5.67854 5.55757 5.41926 5.26596 
5.74316 5.64441 5.5315 5.40467 5.26596 5.11955 5.70914 5.61528 5.50962 
5.3926 5.26596 5.13292 4.99789 5.67937 5.59016 5.49102 5.38246 5.26596 
5.14407 5.02016 4.89798 5.56831 5.47502 5.47502 5.37381 5.37381 5.37381 
5.26596 5.26596 5.26596 5.26596 5.1535 5.1535 5.1535 5.1535 5.1535 
5.03907 5.03907 5.03907 5.03907 5.03907 5.03907 4.92564 4.92564 4.92564 
4.92564 4.92564 4.92564 4.92564 4.81599 4.81599 4.81599 4.81599 4.81599 
4.81599 4.81599 4.81599 4.60879 4.60879 4.49914 4.60879 4.49914 4.3857 
4.60879 4.49914 4.3857 4.27128 4.60879 4.49914 4.3857 4.27128 4.15881 
4.60879 4.49914 4.3857 4.27128 4.15881 4.05096 4.60879 4.49914 4.3857 
4.27128 4.15881 4.05096 3.94976 4.60879 4.49914 4.3857 4.27128 4.15881 
4.05096 3.94976 3.85646 4.5268 4.40462 4.42689 4.28071 4.29185 4.30523 
4.15881 4.15881 4.15881 4.15881 4.04232 4.03217 4.02011 4.00552 3.98753 
3.93376 3.91515 3.89328 3.86721 3.83566 3.7968 3.83461 3.8095 3.78037 
3.74624 3.70581 3.65733 3.59845 3.7454 3.71564 3.68161 3.64243 3.59698 
3.54386 3.48135 3.40735 3.56428 3.45246 3.52338 3.33203 3.40312 3.47739 
3.20576 3.27463 3.34802 3.42551 3.07742 3.14159 3.21128 3.28647 3.36688 
2.95116 3.00855 3.0719 3.14159 3.21784 3.3006 2.83072 2.88006 2.93517 
2.99672 3.06535 3.14159 3.22575 2.7189 2.7598 2.8058 2.85768 2.9163 
2.98259 3.05743 3.14159 3.56428 3.52338 3.45246 3.47739 3.40312 3.33203 
3.42551 3.34802 3.27463 3.20576 3.36688 3.28647 3.21128 3.14159 3.07742 
3.3006 3.21784 3.14159 3.0719 3.00855 2.95116 3.22575 3.14159 3.06535 
2.99672 2.93517 2.88006 2.83072 3.14159 3.05743 2.98259 2.9163 2.85768 
2.8058 2.7598 2.7189 4.5268 4.42689 4.40462 4.30523 4.29185 4.28071 
4.15881 4.15881 4.15881 4.15881 3.98753 4.00552 4.02011 4.03217 4.04232 
3.7968 3.83566 3.86721 3.89328 3.91515 3.93376 3.59845 3.65733 3.70581 
3.74624 3.78037 3.8095 3.83461 3.40735 3.48135 3.54386 3.59698 3.64243 
3.68161 3.71564 3.7454 4.71239 4.80045 4.62433 4.91556 4.71239 4.50922 
5.06749 4.83537 4.58941 4.35729 5.26596 5.0121 4.71239 4.41268 4.15881 
5.51259 5.26596 4.91556 4.50922 4.15881 3.91219 5.78856 5.60297 5.26596 
4.71239 4.15881 3.82181 3.63622 6.05603 5.97021 5.78856 5.26596 4.15881 
3.63622 3.45456 3.36875 0.227158 0.494626 0.312971 0.770593 0.680215 0.494626 
1.01722 1.01722 1.01722 1.01722 1.2157 1.27109 1.36763 1.5708 2.12437 
1.36763 1.44781 1.5708 1.77397 2.12437 2.64697 1.48273 1.5708 1.69378 
1.8705 2.12437 2.46138 2.82862 1.5708 1.65886 1.77397 1.9259 2.12437 
2.371 2.64697 2.91443 1.75639 1.87857 1.8563 2.00248 1.99133 1.97796 
2.12437 2.12437 2.12437 2.12437 2.24087 2.25101 2.26308 2.27767 2.29565 
2.34943 2.36803 2.38991 2.41597 2.44752 2.48639 2.44857 2.47368 2.50281 
2.53694 2.57738 2.62586 2.68474 2.53778 2.56754 2.60157 2.64076 2.68621 
2.73933 2.80184 2.87583 1.6744 1.6744 1.78405 1.6744 1.78405 1.89748 
1.6744 1.78405 1.89748 2.01191 1.6744 1.78405 1.89748 2.01191 2.12437 
1.6744 1.78405 1.89748 2.01191 2.12437 2.23222 1.6744 1.78405 1.89748 
2.01191 2.12437 2.23222 2.33343 1.6744 1.78405 1.89748 2.01191 2.12437 
2.23222 2.33343 2.42672 1.4672 1.35755 1.4672 1.24411 1.35755 1.4672 
1.12969 1.24411 1.35755 1.4672 1.01722 1.12969 1.24411 1.35755 1.4672 
0.909371 1.01722 1.12969 1.24411 1.35755 1.4672 0.808166 0.909371 1.01722 
1.12969 1.24411 1.35755 1.4672 0.714871 0.808166 0.909371 1.01722 1.12969 
1.24411 1.35755 1.4672 0.603812 0.57405 0.693022 0.540021 0.667908 0.792164 
0.500837 0.638778 0.773562 0.900726 0.455383 0.604649 0.751687 0.890581 1.01722 
0.402264 0.564217 0.725619 0.878514 1.01722 1.13912 0.339753 0.515737 0.694072 
0.863926 1.01722 1.15026 1.26302 0.265762 0.456853 0.655207 0.845941 1.01722 
1.16363 1.28529 1.38521 0.227158 0.312971 0.494626 0.494626 0.680215 0.770593 
1.01722 1.01722 1.01722 1.01722 2.12437 1.5708 1.36763 1.27109 1.2157 
2.64697 2.12437 1.77397 1.5708 1.44781 1.36763 2.82862 2.46138 2.12437 
1.8705 1.69378 1.5708 1.48273 2.91443 2.64697 2.371 2.12437 1.9259 
1.77397 1.65886 1.5708 1.75639 1.8563 1.87857 1.97796 1.99133 2.00248 
2.12437 2.12437 2.12437 2.12437 2.29565 2.27767 2.26308 2.25101 2.24087 
2.48639 2.44752 2.41597 2.38991 2.36803 2.34943 2.68474 2.62586 2.57738 
2.53694 2.50281 2.47368 2.44857 2.87583 2.80184 2.73933 2.68621 2.64076 
2.60157 2.56754 2.53778 5.86049 5.90139 5.97231 5.94739 6.02165 6.09275 
5.99927 6.07676 6.15015 6.21902 6.0579 6.13831 6.2135 0 0.0641696 
6.12418 6.20694 6.28319 0.069689 0.13304 0.190437 6.19903 0 0.0762451 
0.144876 0.206423 0.261531 0.310872 0 0.0841597 0.159004 0.225289 0.283913 
0.335793 0.381792 0.422692 5.86049 5.97231 5.90139 6.09275 6.02165 5.94739 
6.21902 6.15015 6.07676 5.99927 0.0641696 0 6.2135 6.13831 6.0579 
0.190437 0.13304 0.069689 6.28319 6.20694 6.12418 0.310872 0.261531 0.206423 
0.144876 0.0762451 6.28319 6.19903 0.422692 0.381792 0.335793 0.283913 0.225289 
0.159004 0.0841597 0 5.67937 5.70914 5.59016 5.74316 5.61528 5.49102 
5.78235 5.64441 5.50962 5.38246 5.8278 5.67854 5.5315 5.3926 5.26596 
5.88092 5.71897 5.55757 5.40467 5.26596 5.14407 5.94343 5.76745 5.58911 
5.41926 5.26596 5.13292 5.02016 6.01742 5.82633 5.62798 5.43724 5.26596 
5.11955 4.99789 4.89798 1.38521 1.28529 1.26302 1.16363 1.15026 1.13912 
1.01722 1.01722 1.01722 1.01722 0.845941 0.863926 0.878514 0.890581 0.900726 
0.655207 0.694072 0.725619 0.751687 0.773562 0.792164 0.456853 0.515737 0.564217 
0.604649 0.638778 0.667908 0.693022 0.265762 0.339753 0.402264 0.455383 0.500837 
0.540021 0.57405 0.603812 
