# vtk DataFile Version 4.0
vtk output
ASCII
DATASET POLYDATA
POINTS 1002 float
-119.877 -87.506 71.6265 -123.457 -103.22 75.6301 -109.487 -92.138 71.0318 
-117.774 -103.675 76.096 -120.07 -93.5772 82.0544 -114.794 -95.9835 81.5945 
-122.187 -97.488 67.5129 -116.686 -98.12 67.8825 -120.689 -109.261 82.7483 
-114.037 -84.3025 74.4823 -122.177 -113.122 70.2399 -113.193 -85.6691 63.1266 
-120.31 -88.6239 72.0538 -120.651 -90.1408 72.5358 -121.11 -91.7607 73.1377 
-121.825 -93.1463 73.8353 -122.542 -94.5425 74.3891 -122.973 -96.3074 74.7097 
-123.183 -98.207 75.0039 -123.324 -99.9574 75.3131 -123.415 -101.62 75.5181 
-119.863 -87.8097 72.4433 -119.805 -88.2881 73.3708 -119.872 -88.7466 74.5202 
-120.106 -89.1777 75.8386 -120.27 -89.8008 77.12 -120.26 -90.5903 78.2838 
-120.251 -91.356 79.4041 -120.263 -92.1154 80.4483 -120.185 -92.8928 81.3224 
-120.154 -87.9898 71.0124 -120.481 -88.5852 70.2807 -120.842 -89.2421 69.5603 
-121.109 -90.1712 68.9588 -121.246 -91.462 68.4437 -121.323 -92.8326 68.0712 
-121.403 -94.1587 67.951 -121.604 -95.4521 67.9215 -121.926 -96.5679 67.758 
-119.332 -86.7304 71.7254 -118.688 -85.9503 71.8932 -118.062 -85.0522 72.1732 
-117.553 -84.0977 72.5841 -117.088 -83.2206 73.1914 -116.476 -82.5196 73.9229 
-115.667 -82.3123 74.4246 -114.887 -82.7888 74.5169 -114.361 -83.5902 74.4445 
-119.443 -86.9003 70.807 -118.815 -86.3864 69.8711 -118.129 -85.83 68.9256 
-117.442 -85.2705 67.991 -116.659 -84.9385 67.0203 -115.856 -84.9558 66.1109 
-115.2 -85.1245 65.2646 -114.604 -85.1902 64.3538 -113.915 -85.2703 63.541 
-123.038 -102.503 76.1085 -122.891 -101.509 76.8943 -123.083 -100.306 78.0682 
-122.972 -99.2699 79.117 -122.274 -98.525 79.5889 -121.629 -97.613 79.9549 
-121.321 -96.3505 80.6997 -120.998 -95.1596 81.4507 -120.539 -94.2814 81.8486 
-123.791 -102.848 75.0408 -123.892 -102.485 74.1512 -123.846 -102.245 73.134 
-123.877 -101.984 72.2259 -123.895 -101.394 71.2101 -123.784 -100.487 70.0354 
-123.675 -99.551 69.1096 -123.485 -98.7409 68.4946 -122.975 -98.0638 67.9697 
-123.236 -104.353 76.0403 -123.064 -105.351 76.6986 -122.984 -106.235 77.6428 
-122.926 -107.18 78.5306 -122.602 -108.051 79.0462 -121.976 -108.53 79.425 
-121.526 -108.788 80.1511 -121.361 -109.143 81.2453 -121.117 -109.405 82.2323 
-123.668 -104.608 75.3782 -123.716 -106.092 74.9762 -123.723 -107.567 74.4238 
-123.779 -108.968 73.8169 -123.735 -110.391 73.1771 -123.661 -111.862 72.4049 
-123.698 -113.094 71.5149 -123.521 -113.707 70.762 -122.914 -113.63 70.357 
-110.339 -92.7994 71.355 -111.38 -93.5432 71.8498 -112.381 -94.4757 72.5064 
-113.342 -95.5927 73.1484 -114.365 -96.8614 73.8017 -115.355 -98.2517 74.5744 
-116.158 -99.659 75.2181 -116.796 -101.018 75.5769 -117.34 -102.355 75.8413 
-109.959 -92.0002 72.0123 -110.427 -91.9691 73.1336 -110.949 -92.156 74.1979 
-111.558 -92.6408 75.3981 -111.949 -93.3896 76.9702 -112.11 -94.1512 78.3709 
-112.593 -94.6907 79.1919 -113.47 -95.0803 79.9157 -114.258 -95.5005 80.8115 
-109.54 -92.7123 70.4525 -109.841 -93.2661 69.974 -110.398 -93.8519 69.3556 
-111.054 -94.5074 68.6655 -111.76 -95.1357 68.1976 -112.594 -95.7617 67.8543 
-113.554 -96.435 67.5341 -114.61 -97.0225 67.4954 -115.705 -97.5238 67.7221 
-109.195 -91.3208 71.3755 -109.195 -90.4576 71.8089 -109.572 -89.6026 72.1004 
-110.272 -88.7205 72.2126 -111.014 -87.7874 72.4243 -111.58 -86.8058 72.8962 
-112.111 -85.8421 73.4334 -112.782 -85.0857 73.8211 -113.478 -84.6196 74.1077 
-108.925 -91.7542 70.2912 -108.799 -91.1696 69.4178 -109.07 -90.4147 68.3674 
-109.442 -89.6263 67.2318 -109.973 -88.8885 66.2355 -110.703 -88.2127 65.4824 
-111.223 -87.5066 64.7728 -111.598 -86.6892 63.9697 -112.276 -85.9753 63.328 
-117.354 -103.223 76.6081 -116.773 -102.866 77.1163 -116.129 -102.57 77.7332 
-115.627 -102.06 78.5149 -115.355 -101.215 79.3832 -115.171 -100.252 80.2301 
-114.971 -99.2329 80.9413 -114.823 -98.0977 81.3837 -114.778 -96.9748 81.5553 
-117.882 -103.282 75.3702 -117.98 -102.779 74.5802 -118.059 -102.182 73.7941 
-118.029 -101.607 72.9328 -117.808 -101.192 71.8805 -117.505 -100.795 70.7973 
-117.272 -100.173 69.9246 -117.091 -99.4144 69.2364 -116.892 -98.7239 68.5766 
-117.901 -104.731 76.6431 -117.902 -105.876 77.1233 -117.779 -107.086 77.6338 
-117.8 -108.199 78.5108 -118.12 -108.973 79.6861 -118.535 -109.283 80.5598 
-118.997 -109.324 81.0699 -119.611 -109.409 81.68 -120.239 -109.484 82.3675 
-118.133 -104.885 75.7986 -118.345 -106.283 75.2391 -118.516 -107.759 74.5037 
-118.894 -109.106 73.8913 -119.6 -110.184 73.4866 -120.33 -111.16 72.9712 
-120.753 -112.102 72.1923 -121.027 -112.762 71.3896 -121.487 -113.055 70.7489 
-119.737 -93.4781 82.6981 -119.365 -93.2875 83.4817 -118.84 -93.243 84.0718 
-118.16 -93.5876 84.102 -117.518 -94.1381 83.6859 -116.968 -94.5676 83.2001 
-116.355 -94.9174 82.7693 -115.691 -95.313 82.3646 -115.157 -95.6872 81.9834 
-120.302 -94.6419 82.6252 -120.567 -95.8719 83.1836 -120.689 -97.3776 83.6031 
-120.647 -99.1286 83.7432 -120.673 -101.054 83.6764 -120.778 -103.074 83.5524 
-120.778 -104.967 83.4345 -120.731 -106.613 83.3365 -120.729 -108.059 83.1523 
-119.654 -92.4602 81.7826 -119.179 -91.2326 81.3967 -118.633 -89.9383 80.8545 
-118.037 -88.5402 80.2101 -117.332 -87.0516 79.5541 -116.434 -85.7181 78.8545 
-115.543 -84.8424 77.9558 -114.923 -84.4822 76.7758 -114.492 -84.3943 75.5154 
-115.278 -97.1661 82.1464 -115.934 -98.5529 82.5609 -116.697 -100.041 83.0459 
-117.153 -101.634 83.7007 -117.395 -103.35 84.2524 -118.109 -104.866 84.4226 
-119.161 -105.968 84.2095 -119.88 -106.985 83.7756 -120.289 -108.147 83.2852 
-114.491 -94.7129 81.1674 -114.116 -93.2968 80.6887 -113.8 -91.7531 80.1464 
-113.718 -90.3563 79.4063 -113.778 -89.212 78.477 -113.746 -87.9902 77.6168 
-113.718 -86.6666 76.8937 -113.851 -85.6446 76.1085 -114.006 -84.9583 75.2419 
-121.659 -97.7144 67.2344 -121.061 -97.9671 67.1444 -120.632 -98.2288 66.967 
-120.218 -98.4784 66.4875 -119.487 -98.6219 66.0899 -118.628 -98.5633 66.2142 
-118.013 -98.3901 66.6497 -117.577 -98.2558 67.0692 -117.132 -98.182 67.4694 
-122.851 -98.9083 67.5047 -123.302 -100.993 67.5336 -123.502 -103.615 67.6404 
-123.62 -105.974 67.5394 -123.674 -107.736 67.0755 -123.575 -109.364 66.794 
-123.384 -110.861 67.2715 -123.118 -111.853 68.3049 -122.702 -112.502 69.3665 
-121.22 -96.3191 67.1668 -120.295 -94.8663 66.6628 -119.366 -93.1864 66.004 
-118.427 -91.6093 65.1698 -117.556 -90.3584 64.326 -116.626 -89.4074 63.7771 
-115.63 -88.5222 63.5261 -114.763 -87.466 63.3282 -113.986 -86.3945 63.1368 
-117.582 -99.4309 68.1749 -118.351 -101.136 68.2317 -119.194 -102.846 68.4785 
-120.011 -104.524 68.8908 -120.477 -106.522 68.9396 -120.722 -108.616 68.6836 
-121.069 -110.147 68.7177 -121.479 -111.143 69.1587 -121.838 -112.095 69.7138 
-115.83 -97.2 66.9248 -114.843 -96.41 65.6949 -114.003 -95.525 64.7167 
-113.437 -94.326 64.1156 -113.042 -92.9501 63.4122 -112.844 -91.6465 62.7543 
-112.883 -90.2517 62.6897 -112.981 -88.5511 62.9178 -113.052 -86.8687 63.0009 
-120.901 -110.508 81.9438 -121.069 -111.628 80.8884 -121.086 -112.758 79.6765 
-121.03 -114.06 78.4219 -121.171 -115.006 77.038 -121.514 -115.205 75.4037 
-121.781 -115.118 73.6881 -121.911 -114.862 72.219 -122.038 -114.134 71.1125 
-113.649 -83.6829 73.5881 -113.231 -83.0466 72.7213 -112.937 -82.7183 71.5542 
-112.733 -82.6248 69.899 -112.503 -82.6064 68.2009 -112.351 -82.9752 66.9035 
-112.409 -83.7481 65.7528 -112.609 -84.4373 64.5363 -112.869 -84.9674 63.5821 
-120.287 -89.096 72.9544 -120.294 -89.658 73.9995 -120.71 -90.6912 73.5902 
-120.386 -90.1792 75.2007 -120.803 -91.2398 74.7512 -121.306 -92.2352 74.3261 
-120.497 -90.7768 76.4528 -120.856 -91.8546 75.9192 -121.44 -92.8033 75.4927 
-122.064 -93.6163 75.0059 -120.561 -91.5457 77.6925 -120.876 -92.6378 77.0837 
-121.466 -93.5845 76.6128 -122.189 -94.3341 76.1282 -122.706 -95.1835 75.4808 
-120.644 -92.2926 78.9404 -120.96 -93.4115 78.2864 -121.468 -94.4079 77.7372 
-122.229 -95.1551 77.2925 -122.803 -95.9442 76.6401 -123.017 -97.0255 75.7978 
-120.721 -92.9488 80.1212 -121.069 -94.0214 79.4755 -121.442 -95.1002 78.7807 
-122.129 -95.9147 78.361 -122.832 -96.6554 77.8455 -123.036 -97.6913 76.9363 
-123.056 -98.9075 76.0006 -120.673 -93.6207 81.0921 -121.084 -94.5834 80.5502 
-121.371 -95.7442 79.7419 -121.85 -96.7543 79.1839 -122.638 -97.4948 78.8488 
-123.075 -98.3877 78.0847 -122.978 -99.5933 76.9623 -123.021 -100.749 76.0734 
-119.275 -87.0632 72.63 -118.599 -86.2938 72.987 -119.23 -87.476 73.7292 
-118.026 -85.3886 73.471 -118.647 -86.6025 74.286 -119.445 -87.8096 75.0819 
-117.621 -84.457 74.0216 -118.169 -85.7198 74.8408 -118.966 -86.9357 75.7098 
-119.784 -88.2833 76.5032 -117.186 -83.5773 74.7411 -117.754 -84.8893 75.4138 
-118.384 -86.2292 76.1879 -119.176 -87.6297 77.0452 -119.842 -89.0775 77.7275 
-116.499 -82.9592 75.4582 -117.241 -84.0539 76.1873 -117.81 -85.4848 76.7518 
-118.385 -87.0906 77.4554 -119.077 -88.5921 78.1656 -119.725 -89.9556 78.7866 
-115.647 -83.0321 75.7455 -116.486 -83.6001 76.8147 -117.243 -84.7241 77.4813 
-117.799 -86.388 78.0146 -118.355 -88.1042 78.6124 -119.053 -89.5078 79.2185 
-119.729 -90.7939 79.8469 -114.939 -83.6875 75.6384 -115.615 -83.8669 76.9355 
-116.454 -84.4881 77.9302 -117.267 -85.7974 78.5827 -117.901 -87.5016 79.1471 
-118.517 -89.0587 79.7349 -119.174 -90.379 80.3241 -119.74 -91.6586 80.8732 
-114.381 -85.0482 76.3566 -114.236 -85.9195 77.2088 -114.732 -85.3402 77.6012 
-114.226 -87.2261 77.97 -114.622 -86.5314 78.4273 -115.374 -85.9995 78.7615 
-114.304 -88.6269 78.7993 -114.682 -87.9215 79.2988 -115.323 -87.2837 79.6776 
-116.373 -86.9625 79.7424 -114.262 -89.8419 79.7815 -114.76 -89.2596 80.2469 
-115.404 -88.5712 80.6615 -116.354 -88.1398 80.7633 -117.35 -88.1921 80.5758 
-114.247 -91.1795 80.6388 -114.826 -90.6831 81.0546 -115.584 -90.1145 81.423 
-116.454 -89.5689 81.6586 -117.317 -89.4008 81.6424 -118.07 -89.6244 81.3608 
-114.488 -92.7513 81.2097 -115.058 -92.2729 81.5789 -115.874 -91.8673 81.847 
-116.722 -91.4012 82.1786 -117.415 -90.9662 82.4879 -118.036 -90.8501 82.4863 
[...]
POINT_DATA 1002
FIELD FieldData 2
Theta 1 1002 float
2.58802 2.58802 0.553574 0.553574 2.12437 1.01722 2.12437 1.01722 1.5708 
1.5708 1.5708 1.5708 2.68241 2.78649 2.89924 3.01861 3.14159 3.01861 
2.89924 2.78649 2.68241 2.61035 2.61791 2.60515 2.56958 2.51327 2.44184 
2.36202 2.27983 2.1997 2.61035 2.61791 2.60515 2.56958 2.51327 2.44184 
2.36202 2.27983 2.1997 2.50947 2.41899 2.31794 2.20864 2.0944 1.97902 
1.86631 1.75944 1.66056 2.50947 2.41899 2.31794 2.20864 2.0944 1.97902 
1.86631 1.75944 1.66056 2.61035 2.61791 2.60515 2.56958 2.51327 2.44184 
2.36202 2.27983 2.1997 2.61035 2.61791 2.60515 2.56958 2.51327 2.44184 
2.36202 2.27983 2.1997 2.50947 2.41899 2.31794 2.20864 2.0944 1.97902 
1.86631 1.75944 1.66056 2.50947 2.41899 2.31794 2.20864 2.0944 1.97902 
1.86631 1.75944 1.66056 0.459179 0.355101 0.242354 0.122983 0 0.122983 
0.242354 0.355101 0.459179 0.531246 0.523681 0.536438 0.57201 0.628319 0.699757 
0.779574 0.86176 0.941896 0.531246 0.523681 0.536438 0.57201 0.628319 0.699757 
0.779574 0.86176 0.941896 0.632123 0.7226 0.823657 0.932948 1.0472 1.16257 
1.27528 1.38216 1.48103 0.632123 0.7226 0.823657 0.932948 1.0472 1.16257 
1.27528 1.38216 1.48103 0.531246 0.523681 0.536438 0.57201 0.628319 0.699757 
0.779574 0.86176 0.941896 0.531246 0.523681 0.536438 0.57201 0.628319 0.699757 
0.779574 0.86176 0.941896 0.632123 0.7226 0.823657 0.932948 1.0472 1.16257 
1.27528 1.38216 1.48103 0.632123 0.7226 0.823657 0.932948 1.0472 1.16257 
1.27528 1.38216 1.48103 2.02998 1.9259 1.81315 1.69378 1.5708 1.44781 
1.32844 1.2157 1.11162 2.0928 2.05283 2.00422 1.94767 1.88496 1.81867 
1.75177 1.68695 1.62623 2.0928 2.05283 2.00422 1.94767 1.88496 1.81867 
1.75177 1.68695 1.62623 1.0488 1.08876 1.13737 1.19392 1.25664 1.32292 
1.38982 1.45464 1.51537 1.0488 1.08876 1.13737 1.19392 1.25664 1.32292 
1.38982 1.45464 1.51537 2.02998 1.9259 1.81315 1.69378 1.5708 1.44781 
1.32844 1.2157 1.11162 2.0928 2.05283 2.00422 1.94767 1.88496 1.81867 
1.75177 1.68695 1.62623 2.0928 2.05283 2.00422 1.94767 1.88496 1.81867 
1.75177 1.68695 1.62623 1.0488 1.08876 1.13737 1.19392 1.25664 1.32292 
1.38982 1.45464 1.51537 1.0488 1.08876 1.13737 1.19392 1.25664 1.32292 
1.38982 1.45464 1.51537 1.5708 1.5708 1.5708 1.5708 1.5708 1.5708 
1.5708 1.5708 1.5708 1.5708 1.5708 1.5708 1.5708 1.5708 1.5708 
1.5708 1.5708 1.5708 2.70908 2.71362 2.81592 2.68886 2.81002 2.92597 
2.6349 2.76254 2.89233 3.01997 2.55881 2.68262 2.80854 2.92834 3.01997 
2.47007 2.58462 2.70048 2.80854 2.89233 2.92597 2.37702 2.48017 2.58462 
2.68262 2.76254 2.81002 2.81592 2.28567 2.37702 2.47007 2.55881 2.6349 
2.68886 2.71362 2.70908 2.52097 2.4195 2.51718 2.30791 2.40503 2.49426 
2.18928 2.28408 2.3734 2.45144 2.06758 2.15805 2.24572 2.32523 2.39165 
1.94707 2.03138 2.11543 2.19453 2.26401 2.32035 1.83164 1.90847 1.98711 
2.06376 2.13422 2.1949 2.24359 1.72413 1.79288 1.86489 1.93728 2.00658 
2.06938 2.12312 2.16654 1.5708 1.50988 1.63171 1.44492 1.5708 1.69667 
1.37826 1.5059 1.63569 1.76333 1.31281 1.43962 1.5708 1.70197 1.82878 
1.25155 1.37501 1.50478 1.63681 1.76659 1.89004 1.19686 1.31493 1.44074 
1.5708 1.70086 1.82666 1.94473 1.15011 1.26149 1.38136 1.50697 1.63462 
1.76024 1.88011 1.99148 1.99148 1.88011 1.94473 1.76024 1.82666 1.89004 
1.63462 1.70086 1.76659 1.82878 1.50697 1.5708 1.63681 1.70197 1.76333 
1.38136 1.44074 1.50478 1.5708 1.63569 1.69667 1.26149 1.31493 1.37501 
1.43962 1.5059 1.5708 1.63171 1.15011 1.19686 1.25155 1.31281 1.37826 
1.44492 1.50988 1.5708 2.16654 2.12312 2.24359 2.06938 2.1949 2.32035 
2.00658 2.13422 2.26401 2.39165 1.93728 2.06376 2.19453 2.32523 2.45144 
1.86489 1.98711 2.11543 2.24572 2.3734 2.49426 1.79288 1.90847 2.03138 
2.15805 2.28408 2.40503 2.51718 1.72413 1.83164 1.94707 2.06758 2.18928 
2.30791 2.4195 2.52097 1.66533 1.66946 1.76911 1.67254 1.777 1.88041 
1.67418 1.78222 1.89102 1.99634 1.67418 1.78405 1.89674 2.00785 2.11299 
1.67254 1.78222 1.89674 2.01191 2.12307 2.22608 1.66946 1.777 1.89102 
2.00785 2.12307 2.23222 2.33166 1.66533 1.76911 1.88041 1.99634 2.11299 
2.22608 2.33166 2.42672 1.47626 1.37249 1.47213 1.26118 1.36459 1.46906 
1.14526 1.25058 1.35938 1.46741 1.0286 1.13374 1.24485 1.35755 1.46741 
0.915514 1.01852 1.12969 1.24485 1.35938 1.46906 0.809937 0.909371 1.01852 
1.13374 1.25058 1.36459 1.47213 0.714871 0.809937 0.915514 1.0286 1.14526 
1.26118 1.37249 1.47626 0.975055 0.898002 1.01847 0.821245 0.946693 1.07221 
0.749941 0.877585 1.00737 1.13501 0.690152 0.816367 0.94706 1.07784 1.20431 
0.647337 0.768195 0.895868 1.02616 1.15448 1.2767 0.624416 0.736561 0.857515 
0.983547 1.11021 1.23313 1.34871 0.620619 0.722093 0.833684 0.952313 1.07402 
1.19452 1.30996 1.41746 0.855925 0.764569 0.764569 0.671524 0.661425 0.671524 
0.582786 0.556971 0.556971 0.582786 0.506696 0.458968 0.441109 0.458968 0.506696 
0.45273 0.379052 0.333054 0.333054 0.379052 0.45273 0.427969 0.331576 0.249267 
0.21325 0.249267 0.331576 0.427969 0.432512 0.325669 0.215619 0.121622 0.121622 
0.215619 0.325669 0.432512 0.432512 0.427969 0.325669 0.45273 0.331576 0.215619 
0.506696 0.379052 0.249267 0.121622 0.582786 0.458968 0.333054 0.21325 0.121622 
0.671524 0.556971 0.441109 0.333054 0.249267 0.215619 0.764569 0.661425 0.556971 
0.458968 0.379052 0.331576 0.325669 0.855925 0.764569 0.671524 0.582786 0.506696 
0.45273 0.427969 0.432512 0.975055 1.01847 0.898002 1.07221 0.946693 0.821245 
1.13501 1.00737 0.877585 0.749941 1.20431 1.07784 0.94706 0.816367 0.690152 
1.2767 1.15448 1.02616 0.895868 0.768195 0.647337 1.34871 1.23313 1.11021 
0.983547 0.857515 0.736561 0.624416 1.41746 1.30996 1.19452 1.07402 0.952313 
0.833684 0.722093 0.620619 1.15011 1.26149 1.19686 1.38136 1.31493 1.25155 
1.50697 1.44074 1.37501 1.31281 1.63462 1.5708 1.50478 1.43962 1.37826 
1.76024 1.70086 1.63681 1.5708 1.5059 1.44492 1.88011 1.82666 1.76659 
1.70197 1.63569 1.5708 1.50988 1.99148 1.94473 1.89004 1.82878 1.76333 
1.69667 1.63171 1.5708 1.15011 1.19686 1.26149 1.25155 1.31493 1.38136 
1.31281 1.37501 1.44074 1.50697 1.37826 1.43962 1.50478 1.5708 1.63462 
1.44492 1.5059 1.5708 1.63681 1.70086 1.76024 1.50988 1.5708 1.63569 
1.70197 1.76659 1.82666 1.88011 1.5708 1.63171 1.69667 1.76333 1.82878 
1.89004 1.94473 1.99148 1.72413 1.83164 1.79288 1.94707 1.90847 1.86489 
2.06758 2.03138 1.98711 1.93728 2.18928 2.15805 2.11543 2.06376 2.00658 
2.30791 2.28408 2.24572 2.19453 2.13422 2.06938 2.4195 2.40503 2.3734 
2.32523 2.26401 2.1949 2.12312 2.52097 2.51718 2.49426 2.45144 2.39165 
2.32035 2.24359 2.16654 2.70908 2.81592 2.71362 2.92597 2.81002 2.68886 
3.01997 2.89233 2.76254 2.6349 3.01997 2.92834 2.80854 2.68262 2.55881 
2.92597 2.89233 2.80854 2.70048 2.58462 2.47007 2.81592 2.81002 2.76254 
2.68262 2.58462 2.48017 2.37702 2.70908 2.71362 2.68886 2.6349 2.55881 
2.47007 2.37702 2.28567 2.16654 2.24359 2.12312 2.32035 2.1949 2.06938 
2.39165 2.26401 2.13422 2.00658 2.45144 2.32523 2.19453 2.06376 1.93728 
2.49426 2.3734 2.24572 2.11543 1.98711 1.86489 2.51718 2.40503 2.28408 
2.15805 2.03138 1.90847 1.79288 2.52097 2.4195 2.30791 2.18928 2.06758 
1.94707 1.83164 1.72413 1.66533 1.76911 1.66946 1.88041 1.777 1.67254 
1.99634 1.89102 1.78222 1.67418 2.11299 2.00785 1.89674 1.78405 1.67418 
2.22608 2.12307 2.01191 1.89674 1.78222 1.67254 2.33166 2.23222 2.12307 
2.00785 1.89102 1.777 1.66946 2.42672 2.33166 2.22608 2.11299 1.99634 
1.88041 1.76911 1.66533 1.47626 1.47213 1.37249 1.46906 1.36459 1.26118 
1.46741 1.35938 1.25058 1.14526 1.46741 1.35755 1.24485 1.13374 1.0286 
1.46906 1.35938 1.24485 1.12969 1.01852 0.915514 1.47213 1.36459 1.25058 
1.13374 1.01852 0.909371 0.809937 1.47626 1.37249 1.26118 1.14526 1.0286 
0.915514 0.809937 0.714871 1.41746 1.30996 1.34871 1.19452 1.23313 1.2767 
1.07402 1.11021 1.15448 1.20431 0.952313 0.983547 1.02616 1.07784 1.13501 
0.833684 0.857515 0.895868 0.94706 1.00737 1.07221 0.722093 0.736561 0.768195 
0.816367 0.877585 0.946693 1.01847 0.620619 0.624416 0.647337 0.690152 0.749941 
0.821245 0.898002 0.975055 0.975055 0.898002 1.01847 0.821245 0.946693 1.07221 
0.749941 0.877585 1.00737 1.13501 0.690152 0.816367 0.94706 1.07784 1.20431 
0.647337 0.768195 0.895868 1.02616 1.15448 1.2767 0.624416 0.736561 0.857515 
0.983547 1.11021 1.23313 1.34871 0.620619 0.722093 0.833684 0.952313 1.07402 
1.19452 1.30996 1.41746 
Phi 1 1002 float
6.28319 3.14159 6.28319 3.14159 4.71239 4.71239 1.5708 1.5708 3.69517 
5.72961 2.58802 0.553574 6.28319 6.28319 6.28319 6.28319 3.14159 3.14159 
3.14159 3.14159 3.14159 6.1053 5.8988 5.67687 5.45995 5.26596 5.10322 
4.97131 4.86569 4.78095 0.177881 0.384387 0.606312 0.823235 1.01722 1.17997 
1.31187 1.4175 1.50223 6.18928 6.10703 6.03531 5.97283 5.91832 5.87061 
5.82869 5.79168 5.75886 0.0939024 0.176153 0.247873 0.310351 0.364864 0.412573 
0.454497 0.491504 0.524326 3.31947 3.52598 3.7479 3.96483 4.15881 4.32156 
4.45346 4.55909 4.64383 2.96371 2.75721 2.53528 2.31836 2.12437 1.96162 
1.82972 1.72409 1.63936 3.2355 3.31775 3.38947 3.45194 3.50646 3.55417 
3.59609 3.6331 3.66592 3.04769 2.96544 2.89372 2.83124 2.77673 2.72902 
2.6871 2.65009 2.61727 6.28319 6.28319 6.28319 6.28319 3.14159 3.14159 
3.14159 3.14159 3.14159 6.1053 5.8988 5.67687 5.45995 5.26596 5.10322 
4.97131 4.86569 4.78095 0.177881 0.384387 0.606312 0.823235 1.01722 1.17997 
1.31187 1.4175 1.50223 6.18928 6.10703 6.03531 5.97283 5.91832 5.87061 
5.82869 5.79168 5.75886 0.0939024 0.176153 0.247873 0.310351 0.364864 0.412573 
0.454497 0.491504 0.524326 3.31947 3.52598 3.7479 3.96483 4.15881 4.32156 
4.45346 4.55909 4.64383 2.96371 2.75721 2.53528 2.31836 2.12437 1.96162 
1.82972 1.72409 1.63936 3.2355 3.31775 3.38947 3.45194 3.50646 3.55417 
3.59609 3.6331 3.66592 3.04769 2.96544 2.89372 2.83124 2.77673 2.72902 
2.6871 2.65009 2.61727 4.71239 4.71239 4.71239 4.71239 4.71239 4.71239 
4.71239 4.71239 4.71239 4.60879 4.49914 4.3857 4.27128 4.15881 4.05096 
3.94976 3.85646 3.77161 4.81599 4.92564 5.03907 5.1535 5.26596 5.37381 
5.47502 5.56831 5.65317 4.60879 4.49914 4.3857 4.27128 4.15881 4.05096 
3.94976 3.85646 3.77161 4.81599 4.92564 5.03907 5.1535 5.26596 5.37381 
5.47502 5.56831 5.65317 1.5708 1.5708 1.5708 1.5708 1.5708 1.5708 
1.5708 1.5708 1.5708 1.6744 1.78405 1.89748 2.01191 2.12437 2.23222 
2.33343 2.42672 2.51157 1.4672 1.35755 1.24411 1.12969 1.01722 0.909371 
0.808166 0.714871 0.63002 1.6744 1.78405 1.89748 2.01191 2.12437 2.23222 
2.33343 2.42672 2.51157 1.4672 1.35755 1.24411 1.12969 1.01722 0.909371 
0.808166 0.714871 0.63002 3.60077 3.49669 3.38395 3.26458 3.14159 3.01861 
2.89924 2.78649 2.68241 5.82401 5.92808 6.04083 6.1602 6.28319 0.122983 
0.242354 0.355101 0.459179 6.05603 5.78856 5.97021 5.51259 5.60297 5.78856 
5.26596 5.26596 5.26596 5.26596 5.06749 5.0121 4.91556 4.71239 4.15881 
4.91556 4.83537 4.71239 4.50922 4.15881 3.63622 4.80045 4.71239 4.58941 
4.41268 4.15881 3.82181 3.45456 4.71239 4.62433 4.50922 4.35729 4.15881 
3.91219 3.63622 3.36875 6.01742 5.94343 5.82633 5.88092 5.76745 5.62798 
5.8278 5.71897 5.58911 5.43724 5.78235 5.67854 5.55757 5.41926 5.26596 
5.74316 5.64441 5.5315 5.40467 5.26596 5.11955 5.70914 5.61528 5.50962 
5.3926 5.26596 5.13292 4.99789 5.67937 5.59016 5.49102 5.38246 5.26596 
5.14407 5.02016 4.89798 5.56831 5.47502 5.47502 5.37381 5.37381 5.37381 
5.26596 5.26596 5.26596 5.26596 5.1535 5.1535 5.1535 5.1535 5.1535 
5.03907 5.03907 5.03907 5.03907 5.03907 5.03907 4.92564 4.92564 4.92564 
4.92564 4.92564 4.92564 4.92564 4.81599 4.81599 4.81599 4.81599 4.81599 
4.81599 4.81599 4.81599 4.60879 4.60879 4.49914 4.60879 4.49914 4.3857 
4.60879 4.49914 4.3857 4.27128 4.60879 4.49914 4.3857 4.27128 4.15881 
4.60879 4.49914 4.3857 4.27128 4.15881 4.05096 4.60879 4.49914 4.3857 
4.27128 4.15881 4.05096 3.94976 4.60879 4.49914 4.3857 4.27128 4.15881 
4.05096 3.94976 3.85646 4.5268 4.40462 4.42689 4.28071 4.29185 4.30523 
4.15881 4.15881 4.15881 4.15881 4.04232 4.03217 4.02011 4.00552 3.98753 
3.93376 3.91515 3.89328 3.86721 3.83566 3.7968 3.83461 3.8095 3.78037 
3.74624 3.70581 3.65733 3.59845 3.7454 3.71564 3.68161 3.64243 3.59698 
3.54386 3.48135 3.40735 3.56428 3.45246 3.52338 3.33203 3.40312 3.47739 
3.20576 3.27463 3.34802 3.42551 3.07742 3.14159 3.21128 3.28647 3.36688 
2.95116 3.00855 3.0719 3.14159 3.21784 3.3006 2.83072 2.88006 2.93517 
2.99672 3.06535 3.14159 3.22575 2.7189 2.7598 2.8058 2.85768 2.9163 
2.98259 3.05743 3.14159 3.56428 3.52338 3.45246 3.47739 3.40312 3.33203 
3.42551 3.34802 3.27463 3.20576 3.36688 3.28647 3.21128 3.14159 3.07742 
3.3006 3.21784 3.14159 3.0719 3.00855 2.95116 3.22575 3.14159 3.06535 
2.99672 2.93517 2.88006 2.83072 3.14159 3.05743 2.98259 2.9163 2.85768 
2.8058 2.7598 2.7189 4.5268 4.42689 4.40462 4.30523 4.29185 4.28071 
4.15881 4.15881 4.15881 4.15881 3.98753 4.00552 4.02011 4.03217 4.04232 
3.7968 3.83566 3.86721 3.89328 3.91515 3.93376 3.59845 3.65733 3.70581 
3.74624 3.78037 3.8095 3.83461 3.40735 3.48135 3.54386 3.59698 3.64243 
3.68161 3.71564 3.7454 4.71239 4.80045 4.62433 4.91556 4.71239 4.50922 
5.06749 4.83537 4.58941 4.35729 5.26596 5.0121 4.71239 4.41268 4.15881 
5.51259 5.26596 4.91556 4.50922 4.15881 3.91219 5.78856 5.60297 5.26596 
4.71239 4.15881 3.82181 3.63622 6.05603 5.97021 5.78856 5.26596 4.15881 
3.63622 3.45456 3.36875 0.227158 0.494626 0.312971 0.770593 0.680215 0.494626 
1.01722 1.01722 1.01722 1.01722 1.2157 1.27109 1.36763 1.5708 2.12437 
1.36763 1.44781 1.5708 1.77397 2.12437 2.64697 1.48273 1.5708 1.69378 
1.8705 2.12437 2.46138 2.82862 1.5708 1.65886 1.77397 1.9259 2.12437 
2.371 2.64697 2.91443 1.75639 1.87857 1.8563 2.00248 1.99133 1.97796 
2.12437 2.12437 2.12437 2.12437 2.24087 2.25101 2.26308 2.27767 2.29565 
2.34943 2.36803 2.38991 2.41597 2.44752 2.48639 2.44857 2.47368 2.50281 
2.53694 2.57738 2.62586 2.68474 2.53778 2.56754 2.60157 2.64076 2.68621 
2.73933 2.80184 2.87583 1.6744 1.6744 1.78405 1.6744 1.78405 1.89748 
1.6744 1.78405 1.89748 2.01191 1.6744 1.78405 1.89748 2.01191 2.12437 
1.6744 1.78405 1.89748 2.01191 2.12437 2.23222 1.6744 1.78405 1.89748 
2.01191 2.12437 2.23222 2.33343 1.6744 1.78405 1.89748 2.01191 2.12437 
2.23222 2.33343 2.42672 1.4672 1.35755 1.4672 1.24411 1.35755 1.4672 
1.12969 1.24411 1.35755 1.4672 1.01722 1.12969 1.24411 1.35755 1.4672 
0.909371 1.01722 1.12969 1.24411 1.35755 1.4672 0.808166 0.909371 1.01722 
1.12969 1.24411 1.35755 1.4672 0.714871 0.808166 0.909371 1.01722 1.12969 
1.24411 1.35755 1.4672 0.603812 0.57405 0.693022 0.540021 0.667908 0.792164 
0.500837 0.638778 0.773562 0.900726 0.455383 0.604649 0.751687 0.890581 1.01722 
0.402264 0.564217 0.725619 0.878514 1.01722 1.13912 0.339753 0.515737 0.694072 
0.863926 1.01722 1.15026 1.26302 0.265762 0.456853 0.655207 0.845941 1.01722 
1.16363 1.28529 1.38521 0.227158 0.312971 0.494626 0.494626 0.680215 0.770593 
1.01722 1.01722 1.01722 1.01722 2.12437 1.5708 1.36763 1.27109 1.2157 
2.64697 2.12437 1.77397 1.5708 1.44781 1.36763 2.82862 2.46138 2.12437 
1.8705 1.69378 1.5708 1.48273 2.91443 2.64697 2.371 2.12437 1.9259 
1.77397 1.65886 1.5708 1.75639 1.8563 1.87857 1.97796 1.99133 2.00248 
2.12437 2.12437 2.12437 2.12437 2.29565 2.27767 2.26308 2.25101 2.24087 
2.48639 2.44752 2.41597 2.38991 2.36803 2.34943 2.68474 2.62586 2.57738 
2.53694 2.50281 2.47368 2.44857 2.87583 2.80184 2.73933 2.68621 2.64076 
2.60157 2.56754 2.53778 5.86049 5.90139 5.97231 5.94739 6.02165 6.09275 
5.99927 6.07676 6.15015 6.21902 6.0579 6.13831 6.2135 0 0.0641696 
6.12418 6.20694 6.28319 0.069689 0.13304 0.190437 6.19903 0 0.0762451 
0.144876 0.206423 0.261531 0.310872 0 0.0841597 0.159004 0.225289 0.283913 
0.335793 0.381792 0.422692 5.86049 5.97231 5.90139 6.09275 6.02165 5.94739 
6.21902 6.15015 6.07676 5.99927 0.0641696 0 6.2135 6.13831 6.0579 
0.190437 0.13304 0.069689 6.28319 6.20694 6.12418 0.310872 0.261531 0.206423 
0.144876 0.0762451 6.28319 6.19903 0.422692 0.381792 0.335793 0.283913 0.225289 
0.159004 0.0841597 0 5.67937 5.70914 5.59016 5.74316 5.61528 5.49102 
5.78235 5.64441 5.50962 5.38246 5.8278 5.67854 5.5315 5.3926 5.26596 
5.88092 5.71897 5.55757 5.40467 5.26596 5.14407 5.94343 5.76745 5.58911 
5.41926 5.26596 5.13292 5.02016 6.01742 5.82633 5.62798 5.43724 5.26596 
5.11955 4.99789 4.89798 1.38521 1.28529 1.26302 1.16363 1.15026 1.13912 
1.01722 1.01722 1.01722 1.01722 0.845941 0.863926 0.878514 0.890581 0.900726 
0.655207 0.694072 0.725619 0.751687 0.773562 0.792164 0.456853 0.515737 0.564217 
0.604649 0.638778 0.667908 0.693022 0.265762 0.339753 0.402264 0.455383 0.500837 
0.540021 0.57405 0.603812 
