# vtk DataFile Version 4.0
vtk output
ASCII
DATASET POLYDATA
POINTS 1002 float
-122.891 -87.0077 68.5826 -126.883 -101.963 71.4282 -112.622 -92.3453 68.9371 
-121.037 -102.594 72.9483 -123.551 -93.0343 79.2667 -118.022 -96.1642 79.4848 
-124.496 -96.7835 63.6707 -118.522 -97.6919 63.5362 -124.785 -107.894 78.5521 
-117.854 -84.155 72.3412 -126.542 -111.432 65.4831 -115.021 -85.5663 61.051 
-123.446 -88.0385 68.9382 -123.815 -89.4577 69.43 -124.145 -91.0286 69.9387 
-124.763 -92.5004 70.3882 -125.578 -93.9123 70.808 -126.187 -95.3969 71.1454 
-126.542 -97.0096 71.3298 -126.751 -98.7654 71.3952 -126.828 -100.501 71.4047 
-123.166 -87.0567 69.426 -123.374 -87.2595 70.5598 -123.483 -87.6524 71.9213 
-123.489 -88.2431 73.2195 -123.431 -88.9738 74.2999 -123.378 -89.7789 75.3037 
-123.386 -90.6531 76.3594 -123.458 -91.5478 77.4249 -123.529 -92.358 78.4097 
-123.016 -87.5394 67.9752 -123.221 -88.1171 67.1693 -123.456 -88.8416 66.2411 
-123.615 -89.8161 65.5368 -123.695 -91.0009 65.0612 -123.834 -92.2241 64.5943 
-124.061 -93.4142 64.2778 -124.264 -94.5952 64.1449 -124.396 -95.7279 63.9461 
-122.451 -86.1482 68.828 -122.028 -85.2582 69.222 -121.584 -84.4469 69.5999 
-121.079 -83.7008 69.906 -120.566 -82.8041 70.5385 -119.986 -82.0092 71.5152 
-119.263 -81.9863 72.1327 -118.591 -82.6988 72.1962 -118.15 -83.5155 72.1864 
-122.237 -86.6106 67.9431 -121.507 -86.281 67.1724 -120.843 -85.6976 66.1682 
-120.192 -84.9479 65.0843 -119.427 -84.5179 64.1655 -118.539 -84.4193 63.3844 
-117.56 -84.3608 62.5564 -116.589 -84.4659 61.7423 -115.745 -84.9092 61.2059 
-126.699 -101.251 72.2739 -126.725 -100.221 73.4239 -126.802 -99.0361 74.5761 
-126.591 -97.9725 75.4292 -125.979 -97.1265 76.0849 -125.23 -96.4099 76.7581 
-124.625 -95.6632 77.4684 -124.202 -94.7772 78.1765 -123.871 -93.8449 78.805 
-127.145 -101.639 70.7486 -127.386 -101.162 69.9359 -127.473 -100.674 68.8531 
-127.376 -100.303 67.8167 -127.08 -100.012 66.9918 -126.717 -99.6353 66.0633 
-126.428 -99.0805 65.0721 -126.021 -98.3867 64.3906 -125.325 -97.6055 64.009 
-126.897 -102.843 72.0262 -127.143 -103.651 72.9449 -127.418 -104.477 73.9686 
-127.316 -105.304 74.6634 -126.906 -106.069 75.1479 -126.637 -106.81 75.8853 
-126.455 -107.478 76.7635 -126.035 -107.915 77.473 -125.421 -108.041 78.045 
-127.186 -103.094 71.0742 -127.509 -104.41 70.6365 -127.533 -106.241 69.798 
-127.337 -108.375 68.6025 -127.656 -109.999 67.6029 -128.566 -110.841 66.9643 
-128.948 -111.423 66.2903 -128.302 -111.885 65.6105 -127.311 -111.885 65.3314 
-113.461 -92.9304 69.0221 -114.621 -93.4233 69.3671 -115.761 -94.1888 69.9039 
-116.607 -95.3032 70.471 -117.37 -96.5449 71.0519 -118.229 -97.8937 71.5773 
-119.003 -99.2959 71.9713 -119.716 -100.474 72.3613 -120.462 -101.47 72.7506 
-113.245 -92.3131 69.6663 -114.004 -92.3602 70.6492 -114.51 -92.6595 72.0202 
-114.657 -93.1564 73.5686 -114.883 -93.5941 74.9482 -115.486 -93.9781 75.9668 
-116.305 -94.5229 76.7525 -117.067 -95.1786 77.6314 -117.621 -95.7424 78.6304 
-112.655 -92.7292 68.1589 -112.886 -93.0248 67.2487 -113.204 -93.435 66.3399 
-113.566 -94.0563 65.6 -114.014 -94.7766 65.0346 -114.572 -95.5233 64.5084 
-115.288 -96.2726 64.0047 -116.255 -96.8949 63.6433 -117.411 -97.3227 63.5023 
-112.422 -91.3837 69.3716 -112.528 -90.1311 69.6557 -113.033 -89.0845 69.6178 
-113.981 -88.3584 69.5086 -114.917 -87.5321 69.8029 -115.391 -86.588 70.4501 
-115.807 -85.8177 71.0489 -116.55 -85.1634 71.514 -117.317 -84.5725 71.9399 
-112.038 -91.7863 68.4436 -111.704 -90.9819 67.6076 -111.607 -90.1978 66.4248 
-111.768 -89.6026 65.3008 -112.088 -88.8184 64.3719 -112.343 -87.712 63.4809 
-112.675 -86.8382 62.7185 -113.347 -86.3737 62.1005 -114.216 -85.9746 61.5051 
-120.581 -102.254 73.6124 -120.054 -101.987 74.3209 -119.485 -101.802 75.1066 
-118.865 -101.542 75.9159 -118.331 -100.993 76.7714 -118.046 -100.208 77.7052 
-117.927 -99.3028 78.5404 -117.852 -98.2506 79.1075 -117.868 -97.1459 79.4054 
-121.155 -102.167 72.2023 -121.16 -101.71 71.3753 -121.011 -101.242 70.4039 
-120.792 -100.74 69.248 -120.533 -100.213 68.0908 -120.154 -99.6764 67.1129 
-119.681 -99.135 66.1877 -119.217 -98.6348 65.2026 -118.822 -98.1706 64.284 
-121.129 -103.723 73.3863 -121.066 -105.015 73.768 -120.993 -106.218 74.2466 
-121.193 -107.068 75.0154 -121.697 -107.587 75.9888 -122.242 -107.955 76.86 
-122.782 -108.177 77.5151 -123.448 -108.225 78.017 -124.173 -108.143 78.3676 
-121.371 -103.815 72.4087 -121.458 -105.339 71.5888 -121.756 -106.69 70.7894 
-122.528 -107.645 70.168 -123.251 -108.664 69.4262 -123.666 -109.924 68.488 
-124.27 -110.803 67.678 -125.131 -111.076 66.9972 -125.89 -111.212 66.2432 
-123.298 -92.9937 79.9977 -122.926 -92.9514 80.7673 -122.325 -92.8743 81.4901 
-121.5 -93.0026 81.8696 -120.801 -93.5712 81.6423 -120.396 -94.3225 80.9641 
-119.909 -94.9225 80.3309 -119.173 -95.3932 80.0148 -118.483 -95.8099 79.8225 
-123.757 -94.1189 79.8099 -123.99 -95.3529 80.3008 -124.249 -96.8653 80.684 
-124.406 -98.6024 80.8032 -124.359 -100.4 80.5534 -124.315 -102.171 80.1496 
-124.516 -103.903 79.8566 -124.813 -105.528 79.589 -124.918 -106.892 79.1529 
-123.171 -91.8545 79.0784 -122.683 -90.5395 78.7409 -122.12 -89.1572 78.3199 
-121.516 -87.6082 78.0145 -120.842 -85.8853 77.8365 -120.113 -84.682 77.2347 
-119.427 -84.4265 75.8916 -118.839 -84.4683 74.3777 -118.325 -84.3102 73.223 
-118.328 -97.1774 80.1821 -118.831 -98.4338 80.772 -119.531 -99.8872 81.2037 
-120.293 -101.429 81.523 -121.019 -102.985 81.7645 -121.77 -104.34 81.7178 
-122.639 -105.354 81.1913 -123.519 -106.214 80.3495 -124.235 -107.078 79.4381 
-117.993 -94.999 78.9852 -117.816 -93.6235 78.4466 -117.44 -91.9213 77.9231 
-117.195 -90.182 77.3706 -117.352 -88.8589 76.6324 -117.677 -87.8524 75.6588 
-117.849 -86.783 74.6712 -117.87 -85.7037 73.8367 -117.859 -84.8324 73.0806 
-124.027 -96.8889 63.3036 -123.46 -96.975 63.0565 -122.8 -97.1477 62.9208 
-122.184 -97.5448 62.6533 -121.64 -98.0183 62.1932 -121.005 -98.1265 61.9772 
-120.278 -97.8476 62.2899 -119.611 -97.6226 62.8063 -119.034 -97.6236 63.2014 
-125.152 -98.4958 63.6655 -125.892 -100.514 63.7508 -126.481 -102.714 63.7185 
-126.722 -104.899 63.0789 -126.921 -106.732 62.1038 -127.35 -108.074 61.9405 
-127.63 -109.224 62.8314 -127.449 -110.301 63.8951 -127.005 -111.063 64.7003 
-123.629 -95.3473 63.336 -122.83 -94.0651 62.7578 -122.003 -92.9133 62.1406 
-120.909 -91.6209 61.7152 -119.662 -90.213 61.4335 -118.569 -89.0044 61.2239 
-117.545 -87.8958 61.0538 -116.5 -86.7528 60.8432 -115.632 -85.9062 60.7568 
-119.623 -98.661 63.9909 -120.585 -100.22 64.3007 -121.593 -102.005 64.5481 
-122.653 -103.669 64.7489 -123.415 -105.523 64.6465 -123.92 -107.46 64.432 
-124.606 -108.802 64.6361 -125.445 -109.684 65.0758 -126.11 -110.59 65.316 
-117.564 -96.982 62.7673 -116.546 -96.2141 62.0264 -115.644 -95.2118 61.415 
-114.915 -93.965 60.8095 -114.339 -92.6395 60.3031 -114.038 -91.2718 60.3094 
-114.101 -89.6858 60.6877 -114.37 -87.9671 60.8815 -114.679 -86.5324 60.8849 
-124.967 -108.878 77.5378 -125.18 -109.861 76.4031 -125.402 -110.982 75.1683 
-125.547 -112.384 73.773 -125.653 -113.591 72.3967 -125.825 -113.747 71.2225 
-126.037 -113.005 69.8337 -126.24 -112.307 68.0405 -126.428 -111.902 66.447 
-117.57 -83.8054 71.2575 -117.29 -83.5944 69.9239 -116.839 -83.3333 68.6137 
-116.05 -82.8914 67.4684 -115.233 -82.5472 66.185 -114.882 -82.7544 64.8369 
-114.939 -83.5592 63.7662 -115.013 -84.4592 62.7834 -114.994 -85.0687 61.7752 
-123.612 -88.3355 69.9287 -123.736 -88.724 71.1538 -123.943 -89.8553 70.5444 
-123.801 -89.2683 72.4698 -124.121 -90.2945 71.7241 -124.402 -91.4077 71.0777 
-123.794 -90.0125 73.6408 -124.242 -90.9601 72.9014 -124.701 -91.8991 72.1927 
-125.142 -92.9398 71.5164 -123.755 -90.8384 74.6639 -124.277 -91.7938 74.0676 
-124.884 -92.6088 73.4077 -125.435 -93.4963 72.6685 -125.878 -94.4483 71.9029 
-123.722 -91.6685 75.6981 -124.249 -92.5836 75.1864 -124.974 -93.3304 74.6886 
-125.647 -94.1058 73.9662 -126.095 -94.9938 73.0742 -126.36 -95.9739 72.1698 
-123.736 -92.5046 76.7884 -124.158 -93.3755 76.2086 -124.885 -94.0598 75.7308 
-125.741 -94.7473 75.132 -126.326 -95.5697 74.3093 -126.543 -96.5602 73.3241 
-126.621 -97.6897 72.3001 -123.81 -93.2517 77.8543 -124.126 -94.1603 77.1965 
-124.669 -94.9108 76.563 -125.507 -95.5697 75.9474 -126.321 -96.3047 75.2929 
-126.715 -97.2256 74.4946 -126.725 -98.3734 73.4404 -126.694 -99.5587 72.3121 
-122.807 -86.0349 69.83 -122.401 -85.123 70.4059 -123.072 -86.161 71.1167 
-121.834 -84.5029 70.9255 -122.629 -85.3167 71.7138 -123.18 -86.5981 72.4892 
-121.16 -83.8906 71.5196 -121.902 -84.8173 72.2999 -122.643 -85.879 72.977 
-123.134 -87.2855 73.7414 -120.642 -82.9686 72.4343 -121.185 -84.1249 73.1617 
-121.838 -85.3833 73.643 -122.532 -86.6852 74.2563 -123.037 -88.0901 74.9186 
-120.179 -82.4166 73.1561 -120.815 -83.2511 74.0775 -121.241 -84.5833 74.6429 
-121.815 -86.1928 75.0215 -122.486 -87.5641 75.579 -123.011 -88.9644 76.0778 
-119.514 -82.8378 73.2528 -120.396 -83.1329 74.4345 -120.931 -83.8683 75.4813 
-121.345 -85.4209 75.9915 -121.929 -87.1228 76.3013 -122.562 -88.4791 76.7597 
-123.072 -89.9327 77.1647 -118.816 -83.667 73.1502 -119.622 -83.7945 74.379 
-120.338 -83.9189 75.8257 -120.897 -84.7764 76.8177 -121.454 -86.4661 77.1238 
-122.067 -88.1011 77.3564 -122.651 -89.4899 77.7753 -123.144 -90.9385 78.1629 
-118.25 -84.9848 74.1547 -118.134 -85.7637 75.2069 -118.567 -85.0078 75.6142 
-118.019 -86.8347 76.196 -118.374 -85.7751 76.7299 -119.107 -85.0262 77.1344 
-117.887 -88.1316 77.059 -118.415 -87.1979 77.4047 -119.087 -86.2712 77.8039 
-119.983 -85.767 78.0834 -117.806 -89.5875 77.7952 -118.574 -89.0293 77.9395 
-119.361 -88.2986 78.0704 -120.123 -87.574 78.4353 -120.875 -87.3452 78.5046 
-117.972 -91.3074 78.3654 -118.753 -90.8189 78.5578 -119.604 -90.3313 78.6043 
-120.321 -89.6349 78.9059 -120.955 -89.0979 79.1986 -121.576 -89.0239 78.934 
-118.304 -93.0887 78.8214 -118.991 -92.516 79.0672 -119.739 -91.9744 79.3019 
-120.37 -91.3057 79.7251 -120.96 -90.6746 80.147 -121.597 -90.4497 80.0451 
[...]
POINT_DATA 1002
FIELD FieldData 2
Theta 1 1002 float
2.58802 2.58802 0.553574 0.553574 2.12437 1.01722 2.12437 1.01722 1.5708 
1.5708 1.5708 1.5708 2.68241 2.78649 2.89924 3.01861 3.14159 3.01861 
2.89924 2.78649 2.68241 2.61035 2.61791 2.60515 2.56958 2.51327 2.44184 
2.36202 2.27983 2.1997 2.61035 2.61791 2.60515 2.56958 2.51327 2.44184 
2.36202 2.27983 2.1997 2.50947 2.41899 2.31794 2.20864 2.0944 1.97902 
1.86631 1.75944 1.66056 2.50947 2.41899 2.31794 2.20864 2.0944 1.97902 
1.86631 1.75944 1.66056 2.61035 2.61791 2.60515 2.56958 2.51327 2.44184 
2.36202 2.27983 2.1997 2.61035 2.61791 2.60515 2.56958 2.51327 2.44184 
2.36202 2.27983 2.1997 2.50947 2.41899 2.31794 2.20864 2.0944 1.97902 
1.86631 1.75944 1.66056 2.50947 2.41899 2.31794 2.20864 2.0944 1.97902 
1.86631 1.75944 1.66056 0.459179 0.355101 0.242354 0.122983 0 0.122983 
0.242354 0.355101 0.459179 0.531246 0.523681 0.536438 0.57201 0.628319 0.699757 
0.779574 0.86176 0.941896 0.531246 0.523681 0.536438 0.57201 0.628319 0.699757 
0.779574 0.86176 0.941896 0.632123 0.7226 0.823657 0.932948 1.0472 1.16257 
1.27528 1.38216 1.48103 0.632123 0.7226 0.823657 0.932948 1.0472 1.16257 
1.27528 1.38216 1.48103 0.531246 0.523681 0.536438 0.57201 0.628319 0.699757 
0.779574 0.86176 0.941896 0.531246 0.523681 0.536438 0.57201 0.628319 0.699757 
0.779574 0.86176 0.941896 0.632123 0.7226 0.823657 0.932948 1.0472 1.16257 
1.27528 1.38216 1.48103 0.632123 0.7226 0.823657 0.932948 1.0472 1.16257 
1.27528 1.38216 1.48103 2.02998 1.9259 1.81315 1.69378 1.5708 1.44781 
1.32844 1.2157 1.11162 2.0928 2.05283 2.00422 1.94767 1.88496 1.81867 
1.75177 1.68695 1.62623 2.0928 2.05283 2.00422 1.94767 1.88496 1.81867 
1.75177 1.68695 1.62623 1.0488 1.08876 1.13737 1.19392 1.25664 1.32292 
1.38982 1.45464 1.51537 1.0488 1.08876 1.13737 1.19392 1.25664 1.32292 
1.38982 1.45464 1.51537 2.02998 1.9259 1.81315 1.69378 1.5708 1.44781 
1.32844 1.2157 1.11162 2.0928 2.05283 2.00422 1.94767 1.88496 1.81867 
1.75177 1.68695 1.62623 2.0928 2.05283 2.00422 1.94767 1.88496 1.81867 
1.75177 1.68695 1.62623 1.0488 1.08876 1.13737 1.19392 1.25664 1.32292 
1.38982 1.45464 1.51537 1.0488 1.08876 1.13737 1.19392 1.25664 1.32292 
1.38982 1.45464 1.51537 1.5708 1.5708 1.5708 1.5708 1.5708 1.5708 
1.5708 1.5708 1.5708 1.5708 1.5708 1.5708 1.5708 1.5708 1.5708 
1.5708 1.5708 1.5708 2.70908 2.71362 2.81592 2.68886 2.81002 2.92597 
2.6349 2.76254 2.89233 3.01997 2.55881 2.68262 2.80854 2.92834 3.01997 
2.47007 2.58462 2.70048 2.80854 2.89233 2.92597 2.37702 2.48017 2.58462 
2.68262 2.76254 2.81002 2.81592 2.28567 2.37702 2.47007 2.55881 2.6349 
2.68886 2.71362 2.70908 2.52097 2.4195 2.51718 2.30791 2.40503 2.49426 
2.18928 2.28408 2.3734 2.45144 2.06758 2.15805 2.24572 2.32523 2.39165 
1.94707 2.03138 2.11543 2.19453 2.26401 2.32035 1.83164 1.90847 1.98711 
2.06376 2.13422 2.1949 2.24359 1.72413 1.79288 1.86489 1.93728 2.00658 
2.06938 2.12312 2.16654 1.5708 1.50988 1.63171 1.44492 1.5708 1.69667 
1.37826 1.5059 1.63569 1.76333 1.31281 1.43962 1.5708 1.70197 1.82878 
1.25155 1.37501 1.50478 1.63681 1.76659 1.89004 1.19686 1.31493 1.44074 
1.5708 1.70086 1.82666 1.94473 1.15011 1.26149 1.38136 1.50697 1.63462 
1.76024 1.88011 1.99148 1.99148 1.88011 1.94473 1.76024 1.82666 1.89004 
1.63462 1.70086 1.76659 1.82878 1.50697 1.5708 1.63681 1.70197 1.76333 
1.38136 1.44074 1.50478 1.5708 1.63569 1.69667 1.26149 1.31493 1.37501 
1.43962 1.5059 1.5708 1.63171 1.15011 1.19686 1.25155 1.31281 1.37826 
1.44492 1.50988 1.5708 2.16654 2.12312 2.24359 2.06938 2.1949 2.32035 
2.00658 2.13422 2.26401 2.39165 1.93728 2.06376 2.19453 2.32523 2.45144 
1.86489 1.98711 2.11543 2.24572 2.3734 2.49426 1.79288 1.90847 2.03138 
2.15805 2.28408 2.40503 2.51718 1.72413 1.83164 1.94707 2.06758 2.18928 
2.30791 2.4195 2.52097 1.66533 1.66946 1.76911 1.67254 1.777 1.88041 
1.67418 1.78222 1.89102 1.99634 1.67418 1.78405 1.89674 2.00785 2.11299 
1.67254 1.78222 1.89674 2.01191 2.12307 2.22608 1.66946 1.777 1.89102 
2.00785 2.12307 2.23222 2.33166 1.66533 1.76911 1.88041 1.99634 2.11299 
2.22608 2.33166 2.42672 1.47626 1.37249 1.47213 1.26118 1.36459 1.46906 
1.14526 1.25058 1.35938 1.46741 1.0286 1.13374 1.24485 1.35755 1.46741 
0.915514 1.01852 1.12969 1.24485 1.35938 1.46906 0.809937 0.909371 1.01852 
1.13374 1.25058 1.36459 1.47213 0.714871 0.809937 0.915514 1.0286 1.14526 
1.26118 1.37249 1.47626 0.975055 0.898002 1.01847 0.821245 0.946693 1.07221 
0.749941 0.877585 1.00737 1.13501 0.690152 0.816367 0.94706 1.07784 1.20431 
0.647337 0.768195 0.895868 1.02616 1.15448 1.2767 0.624416 0.736561 0.857515 
0.983547 1.11021 1.23313 1.34871 0.620619 0.722093 0.833684 0.952313 1.07402 
1.19452 1.30996 1.41746 0.855925 0.764569 0.764569 0.671524 0.661425 0.671524 
0.582786 0.556971 0.556971 0.582786 0.506696 0.458968 0.441109 0.458968 0.506696 
0.45273 0.379052 0.333054 0.333054 0.379052 0.45273 0.427969 0.331576 0.249267 
0.21325 0.249267 0.331576 0.427969 0.432512 0.325669 0.215619 0.121622 0.121622 
0.215619 0.325669 0.432512 0.432512 0.427969 0.325669 0.45273 0.331576 0.215619 
0.506696 0.379052 0.249267 0.121622 0.582786 0.458968 0.333054 0.21325 0.121622 
0.671524 0.556971 0.441109 0.333054 0.249267 0.215619 0.764569 0.661425 0.556971 
0.458968 0.379052 0.331576 0.325669 0.855925 0.764569 0.671524 0.582786 0.506696 
0.45273 0.427969 0.432512 0.975055 1.01847 0.898002 1.07221 0.946693 0.821245 
1.13501 1.00737 0.877585 0.749941 1.20431 1.07784 0.94706 0.816367 0.690152 
1.2767 1.15448 1.02616 0.895868 0.768195 0.647337 1.34871 1.23313 1.11021 
0.983547 0.857515 0.736561 0.624416 1.41746 1.30996 1.19452 1.07402 0.952313 
0.833684 0.722093 0.620619 1.15011 1.26149 1.19686 1.38136 1.31493 1.25155 
1.50697 1.44074 1.37501 1.31281 1.63462 1.5708 1.50478 1.43962 1.37826 
1.76024 1.70086 1.63681 1.5708 1.5059 1.44492 1.88011 1.82666 1.76659 
1.70197 1.63569 1.5708 1.50988 1.99148 1.94473 1.89004 1.82878 1.76333 
1.69667 1.63171 1.5708 1.15011 1.19686 1.26149 1.25155 1.31493 1.38136 
1.31281 1.37501 1.44074 1.50697 1.37826 1.43962 1.50478 1.5708 1.63462 
1.44492 1.5059 1.5708 1.63681 1.70086 1.76024 1.50988 1.5708 1.63569 
1.70197 1.76659 1.82666 1.88011 1.5708 1.63171 1.69667 1.76333 1.82878 
1.89004 1.94473 1.99148 1.72413 1.83164 1.79288 1.94707 1.90847 1.86489 
2.06758 2.03138 1.98711 1.93728 2.18928 2.15805 2.11543 2.06376 2.00658 
2.30791 2.28408 2.24572 2.19453 2.13422 2.06938 2.4195 2.40503 2.3734 
2.32523 2.26401 2.1949 2.12312 2.52097 2.51718 2.49426 2.45144 2.39165 
2.32035 2.24359 2.16654 2.70908 2.81592 2.71362 2.92597 2.81002 2.68886 
3.01997 2.89233 2.76254 2.6349 3.01997 2.92834 2.80854 2.68262 2.55881 
2.92597 2.89233 2.80854 2.70048 2.58462 2.47007 2.81592 2.81002 2.76254 
2.68262 2.58462 2.48017 2.37702 2.70908 2.71362 2.68886 2.6349 2.55881 
2.47007 2.37702 2.28567 2.16654 2.24359 2.12312 2.32035 2.1949 2.06938 
2.39165 2.26401 2.13422 2.00658 2.45144 2.32523 2.19453 2.06376 1.93728 
2.49426 2.3734 2.24572 2.11543 1.98711 1.86489 2.51718 2.40503 2.28408 
2.15805 2.03138 1.90847 1.79288 2.52097 2.4195 2.30791 2.18928 2.06758 
1.94707 1.83164 1.72413 1.66533 1.76911 1.66946 1.88041 1.777 1.67254 
1.99634 1.89102 1.78222 1.67418 2.11299 2.00785 1.89674 1.78405 1.67418 
2.22608 2.12307 2.01191 1.89674 1.78222 1.67254 2.33166 2.23222 2.12307 
2.00785 1.89102 1.777 1.66946 2.42672 2.33166 2.22608 2.11299 1.99634 
1.88041 1.76911 1.66533 1.47626 1.47213 1.37249 1.46906 1.36459 1.26118 
1.46741 1.35938 1.25058 1.14526 1.46741 1.35755 1.24485 1.13374 1.0286 
1.46906 1.35938 1.24485 1.12969 1.01852 0.915514 1.47213 1.36459 1.25058 
1.13374 1.01852 0.909371 0.809937 1.47626 1.37249 1.26118 1.14526 1.0286 
0.915514 0.809937 0.714871 1.41746 1.30996 1.34871 1.19452 1.23313 1.2767 
1.07402 1.11021 1.15448 1.20431 0.952313 0.983547 1.02616 1.07784 1.13501 
0.833684 0.857515 0.895868 0.94706 1.00737 1.07221 0.722093 0.736561 0.768195 
0.816367 0.877585 0.946693 1.01847 0.620619 0.624416 0.647337 0.690152 0.749941 
0.821245 0.898002 0.975055 0.975055 0.898002 1.01847 0.821245 0.946693 1.07221 
0.749941 0.877585 1.00737 1.13501 0.690152 0.816367 0.94706 1.07784 1.20431 
0.647337 0.768195 0.895868 1.02616 1.15448 1.2767 0.624416 0.736561 0.857515 
0.983547 1.11021 1.23313 1.34871 0.620619 0.722093 0.833684 0.952313 1.07402 
1.19452 1.30996 1.41746 
Phi 1 1002 float
6.28319 3.14159 6.28319 3.14159 4.71239 4.71239 1.5708 1.5708 3.69517 
5.72961 2.58802 0.553574 6.28319 6.28319 6.28319 6.28319 3.14159 3.14159 
3.14159 3.14159 3.14159 6.1053 5.8988 5.67687 5.45995 5.26596 5.10322 
4.97131 4.86569 4.78095 0.177881 0.384387 0.606312 0.823235 1.01722 1.17997 
1.31187 1.4175 1.50223 6.18928 6.10703 6.03531 5.97283 5.91832 5.87061 
5.82869 5.79168 5.75886 0.0939024 0.176153 0.247873 0.310351 0.364864 0.412573 
0.454497 0.491504 0.524326 3.31947 3.52598 3.7479 3.96483 4.15881 4.32156 
4.45346 4.55909 4.64383 2.96371 2.75721 2.53528 2.31836 2.12437 1.96162 
1.82972 1.72409 1.63936 3.2355 3.31775 3.38947 3.45194 3.50646 3.55417 
3.59609 3.6331 3.66592 3.04769 2.96544 2.89372 2.83124 2.77673 2.72902 
2.6871 2.65009 2.61727 6.28319 6.28319 6.28319 6.28319 3.14159 3.14159 
3.14159 3.14159 3.14159 6.1053 5.8988 5.67687 5.45995 5.26596 5.10322 
4.97131 4.86569 4.78095 0.177881 0.384387 0.606312 0.823235 1.01722 1.17997 
1.31187 1.4175 1.50223 6.18928 6.10703 6.03531 5.97283 5.91832 5.87061 
5.82869 5.79168 5.75886 0.0939024 0.176153 0.247873 0.310351 0.364864 0.412573 
0.454497 0.491504 0.524326 3.31947 3.52598 3.7479 3.96483 4.15881 4.32156 
4.45346 4.55909 4.64383 2.96371 2.75721 2.53528 2.31836 2.12437 1.96162 
1.82972 1.72409 1.63936 3.2355 3.31775 3.38947 3.45194 3.50646 3.55417 
3.59609 3.6331 3.66592 3.04769 2.96544 2.89372 2.83124 2.77673 2.72902 
2.6871 2.65009 2.61727 4.71239 4.71239 4.71239 4.71239 4.71239 4.71239 
4.71239 4.71239 4.71239 4.60879 4.49914 4.3857 4.27128 4.15881 4.05096 
3.94976 3.85646 3.77161 4.81599 4.92564 5.03907 5.1535 5.26596 5.37381 
5.47502 5.56831 5.65317 4.60879 4.49914 4.3857 4.27128 4.15881 4.05096 
3.94976 3.85646 3.77161 4.81599 4.92564 5.03907 5.1535 5.26596 5.37381 
5.47502 5.56831 5.65317 1.5708 1.5708 1.5708 1.5708 1.5708 1.5708 
1.5708 1.5708 1.5708 1.6744 1.78405 1.89748 2.01191 2.12437 2.23222 
2.33343 2.42672 2.51157 1.4672 1.35755 1.24411 1.12969 1.01722 0.909371 
0.808166 0.714871 0.63002 1.6744 1.78405 1.89748 2.01191 2.12437 2.23222 
2.33343 2.42672 2.51157 1.4672 1.35755 1.24411 1.12969 1.01722 0.909371 
0.808166 0.714871 0.63002 3.60077 3.49669 3.38395 3.26458 3.14159 3.01861 
2.89924 2.78649 2.68241 5.82401 5.92808 6.04083 6.1602 6.28319 0.122983 
0.242354 0.355101 0.459179 6.05603 5.78856 5.97021 5.51259 5.60297 5.78856 
5.26596 5.26596 5.26596 5.26596 5.06749 5.0121 4.91556 4.71239 4.15881 
4.91556 4.83537 4.71239 4.50922 4.15881 3.63622 4.80045 4.71239 4.58941 
4.41268 4.15881 3.82181 3.45456 4.71239 4.62433 4.50922 4.35729 4.15881 
3.91219 3.63622 3.36875 6.01742 5.94343 5.82633 5.88092 5.76745 5.62798 
5.8278 5.71897 5.58911 5.43724 5.78235 5.67854 5.55757 5.41926 5.26596 
5.74316 5.64441 5.5315 5.40467 5.26596 5.11955 5.70914 5.61528 5.50962 
5.3926 5.26596 5.13292 4.99789 5.67937 5.59016 5.49102 5.38246 5.26596 
5.14407 5.02016 4.89798 5.56831 5.47502 5.47502 5.37381 5.37381 5.37381 
5.26596 5.26596 5.26596 5.26596 5.1535 5.1535 5.1535 5.1535 5.1535 
5.03907 5.03907 5.03907 5.03907 5.03907 5.03907 4.92564 4.92564 4.92564 
4.92564 4.92564 4.92564 4.92564 4.81599 4.81599 4.81599 4.81599 4.81599 
4.81599 4.81599 4.81599 4.60879 4.60879 4.49914 4.60879 4.49914 4.3857 
4.60879 4.49914 4.3857 4.27128 4.60879 4.49914 4.3857 4.27128 4.15881 
4.60879 4.49914 4.3857 4.27128 4.15881 4.05096 4.60879 4.49914 4.3857 
4.27128 4.15881 4.05096 3.94976 4.60879 4.49914 4.3857 4.27128 4.15881 
4.05096 3.94976 3.85646 4.5268 4.40462 4.42689 4.28071 4.29185 4.30523 
4.15881 4.15881 4.15881 4.15881 4.04232 4.03217 4.02011 4.00552 3.98753 
3.93376 3.91515 3.89328 3.86721 3.83566 3.7968 3.83461 3.8095 3.78037 
3.74624 3.70581 3.65733 3.59845 3.7454 3.71564 3.68161 3.64243 3.59698 
3.54386 3.48135 3.40735 3.56428 3.45246 3.52338 3.33203 3.40312 3.47739 
3.20576 3.27463 3.34802 3.42551 3.07742 3.14159 3.21128 3.28647 3.36688 
2.95116 3.00855 3.0719 3.14159 3.21784 3.3006 2.83072 2.88006 2.93517 
2.99672 3.06535 3.14159 3.22575 2.7189 2.7598 2.8058 2.85768 2.9163 
2.98259 3.05743 3.14159 3.56428 3.52338 3.45246 3.47739 3.40312 3.33203 
3.42551 3.34802 3.27463 3.20576 3.36688 3.28647 3.21128 3.14159 3.07742 
3.3006 3.21784 3.14159 3.0719 3.00855 2.95116 3.22575 3.14159 3.06535 
2.99672 2.93517 2.88006 2.83072 3.14159 3.05743 2.98259 2.9163 2.85768 
2.8058 2.7598 2.7189 4.5268 4.42689 4.40462 4.30523 4.29185 4.28071 
4.15881 4.15881 4.15881 4.15881 3.98753 4.00552 4.02011 4.03217 4.04232 
3.7968 3.83566 3.86721 3.89328 3.91515 3.93376 3.59845 3.65733 3.70581 
3.74624 3.78037 3.8095 3.83461 3.40735 3.48135 3.54386 3.59698 3.64243 
3.68161 3.71564 3.7454 4.71239 4.80045 4.62433 4.91556 4.71239 4.50922 
5.06749 4.83537 4.58941 4.35729 5.26596 5.0121 4.71239 4.41268 4.15881 
5.51259 5.26596 4.91556 4.50922 4.15881 3.91219 5.78856 5.60297 5.26596 
4.71239 4.15881 3.82181 3.63622 6.05603 5.97021 5.78856 5.26596 4.15881 
3.63622 3.45456 3.36875 0.227158 0.494626 0.312971 0.770593 0.680215 0.494626 
1.01722 1.01722 1.01722 1.01722 1.2157 1.27109 1.36763 1.5708 2.12437 
1.36763 1.44781 1.5708 1.77397 2.12437 2.64697 1.48273 1.5708 1.69378 
1.8705 2.12437 2.46138 2.82862 1.5708 1.65886 1.77397 1.9259 2.12437 
2.371 2.64697 2.91443 1.75639 1.87857 1.8563 2.00248 1.99133 1.97796 
2.12437 2.12437 2.12437 2.12437 2.24087 2.25101 2.26308 2.27767 2.29565 
2.34943 2.36803 2.38991 2.41597 2.44752 2.48639 2.44857 2.47368 2.50281 
2.53694 2.57738 2.62586 2.68474 2.53778 2.56754 2.60157 2.64076 2.68621 
2.73933 2.80184 2.87583 1.6744 1.6744 1.78405 1.6744 1.78405 1.89748 
1.6744 1.78405 1.89748 2.01191 1.6744 1.78405 1.89748 2.01191 2.12437 
1.6744 1.78405 1.89748 2.01191 2.12437 2.23222 1.6744 1.78405 1.89748 
2.01191 2.12437 2.23222 2.33343 1.6744 1.78405 1.89748 2.01191 2.12437 
2.23222 2.33343 2.42672 1.4672 1.35755 1.4672 1.24411 1.35755 1.4672 
1.12969 1.24411 1.35755 1.4672 1.01722 1.12969 1.24411 1.35755 1.4672 
0.909371 1.01722 1.12969 1.24411 1.35755 1.4672 0.808166 0.909371 1.01722 
1.12969 1.24411 1.35755 1.4672 0.714871 0.808166 0.909371 1.01722 1.12969 
1.24411 1.35755 1.4672 0.603812 0.57405 0.693022 0.540021 0.667908 0.792164 
0.500837 0.638778 0.773562 0.900726 0.455383 0.604649 0.751687 0.890581 1.01722 
0.402264 0.564217 0.725619 0.878514 1.01722 1.13912 0.339753 0.515737 0.694072 
0.863926 1.01722 1.15026 1.26302 0.265762 0.456853 0.655207 0.845941 1.01722 
1.16363 1.28529 1.38521 0.227158 0.312971 0.494626 0.494626 0.680215 0.770593 
1.01722 1.01722 1.01722 1.01722 2.12437 1.5708 1.36763 1.27109 1.2157 
2.64697 2.12437 1.77397 1.5708 1.44781 1.36763 2.82862 2.46138 2.12437 
1.8705 1.69378 1.5708 1.48273 2.91443 2.64697 2.371 2.12437 1.9259 
1.77397 1.65886 1.5708 1.75639 1.8563 1.87857 1.97796 1.99133 2.00248 
2.12437 2.12437 2.12437 2.12437 2.29565 2.27767 2.26308 2.25101 2.24087 
2.48639 2.44752 2.41597 2.38991 2.36803 2.34943 2.68474 2.62586 2.57738 
2.53694 2.50281 2.47368 2.44857 2.87583 2.80184 2.73933 2.68621 2.64076 
2.60157 2.56754 2.53778 5.86049 5.90139 5.97231 5.94739 6.02165 6.09275 
5.99927 6.07676 6.15015 6.21902 6.0579 6.13831 6.2135 0 0.0641696 
6.12418 6.20694 6.28319 0.069689 0.13304 0.190437 6.19903 0 0.0762451 
0.144876 0.206423 0.261531 0.310872 0 0.0841597 0.159004 0.225289 0.283913 
0.335793 0.381792 0.422692 5.86049 5.97231 5.90139 6.09275 6.02165 5.94739 
6.21902 6.15015 6.07676 5.99927 0.0641696 0 6.2135 6.13831 6.0579 
0.190437 0.13304 0.069689 6.28319 6.20694 6.12418 0.310872 0.261531 0.206423 
0.144876 0.0762451 6.28319 6.19903 0.422692 0.381792 0.335793 0.283913 0.225289 
0.159004 0.0841597 0 5.67937 5.70914 5.59016 5.74316 5.61528 5.49102 
5.78235 5.64441 5.50962 5.38246 5.8278 5.67854 5.5315 5.3926 5.26596 
5.88092 5.71897 5.55757 5.40467 5.26596 5.14407 5.94343 5.76745 5.58911 
5.41926 5.26596 5.13292 5.02016 6.01742 5.82633 5.62798 5.43724 5.26596 
5.11955 4.99789 4.89798 1.38521 1.28529 1.26302 1.16363 1.15026 1.13912 
1.01722 1.01722 1.01722 1.01722 0.845941 0.863926 0.878514 0.890581 0.900726 
0.655207 0.694072 0.725619 0.751687 0.773562 0.792164 0.456853 0.515737 0.564217 
0.604649 0.638778 0.667908 0.693022 0.265762 0.339753 0.402264 0.455383 0.500837 
0.540021 0.57405 0.603812 
