# vtk DataFile Version 4.0
vtk output
ASCII
DATASET POLYDATA
POINTS 1002 float
-122.858 -86.2535 71.5986 -126.254 -102.61 74.9986 -112.651 -91.208 71.5375 
-119.889 -103.925 75.6842 -122.591 -93.4034 81.5826 -117.883 -95.7593 81.3936 
-124.157 -97.4704 67.415 -118.552 -97.5338 67.7164 -123.631 -108.66 82.0002 
-116.41 -83.0215 74.9959 -124.365 -112.157 69.7204 -114.468 -85.2032 64.6462 
-123.102 -87.6201 71.9345 -123.129 -89.4345 72.3484 -123.428 -91.2553 72.8974 
-124.056 -92.9756 73.4799 -124.414 -94.9415 73.8976 -124.546 -97.087 74.1601 
-125.009 -98.9056 74.4201 -125.626 -100.255 74.661 -126.015 -101.417 74.8301 
-122.945 -86.5467 72.5091 -122.858 -87.1353 73.4115 -122.734 -87.8481 74.3846 
-122.795 -88.4774 75.6098 -122.939 -89.1125 76.9271 -122.909 -89.9338 78.0177 
-122.811 -90.8554 79.0012 -122.801 -91.7419 80.0422 -122.755 -92.5902 80.9469 
-122.892 -86.9162 70.8949 -122.906 -87.7768 70.1851 -123.073 -88.6461 69.5028 
-123.364 -89.5377 68.9026 -123.563 -90.66 68.4198 -123.644 -92.0268 68.0262 
-123.751 -93.4323 67.7351 -123.902 -94.7898 67.5779 -124.041 -96.1441 67.496 
-122.364 -85.425 71.8378 -121.666 -84.756 72.0851 -121.084 -83.9118 72.3135 
-120.618 -82.9407 72.6014 -119.949 -82.2755 73.1423 -119.085 -81.9457 73.8911 
-118.269 -81.7762 74.4771 -117.542 -81.9056 74.7424 -116.9 -82.3871 74.8691 
-122.329 -85.6587 70.7943 -121.531 -85.3231 69.9723 -120.641 -84.9924 69.2813 
-119.699 -84.5652 68.657 -118.641 -84.2924 67.9179 -117.621 -84.2896 67.1304 
-116.779 -84.3862 66.3973 -115.985 -84.5133 65.6716 -115.177 -84.7615 65.0376 
-125.83 -102.148 75.6883 -125.293 -101.714 76.4869 -124.909 -101.119 77.2738 
-124.706 -100.108 78.043 -124.465 -98.7205 78.8226 -124.092 -97.3257 79.5205 
-123.694 -96.1211 80.1774 -123.354 -95.0456 80.8392 -123.012 -94.1198 81.3347 
-126.395 -102.312 74.2697 -126.525 -101.899 73.5016 -126.683 -101.38 72.5805 
-126.724 -100.89 71.5288 -126.484 -100.41 70.5356 -126.132 -99.8006 69.6659 
-125.822 -99.2022 68.8639 -125.41 -98.7306 68.1945 -124.822 -98.1935 67.7309 
-126.375 -103.56 75.6673 -126.563 -104.559 76.4695 -126.524 -105.577 77.2304 
-126.228 -106.527 77.9715 -126.114 -107.288 78.9602 -126.14 -107.905 80.0076 
-125.73 -108.491 80.6518 -124.924 -108.909 81.0394 -124.192 -108.952 81.513 
-126.524 -103.843 74.7436 -126.7 -105.35 74.3993 -126.799 -106.925 73.7894 
-126.605 -108.363 73.028 -126.126 -109.605 72.4393 -125.941 -110.876 71.8569 
-126.085 -112.238 70.962 -125.842 -113.074 70.1103 -125.102 -112.917 69.7392 
-113.506 -91.9326 71.7443 -114.402 -92.8773 72.3414 -115.396 -93.9845 73.283 
-116.499 -95.0353 74.1066 -117.402 -96.2581 74.6153 -117.963 -98.0113 74.9886 
-118.405 -99.9351 75.2397 -118.891 -101.525 75.3739 -119.416 -102.792 75.5238 
-112.959 -91.3752 72.4562 -113.492 -91.5933 73.4391 -114.042 -91.9777 74.6166 
-114.353 -92.4905 76.0735 -114.595 -92.9738 77.5583 -115.086 -93.452 78.6746 
-115.837 -94.0107 79.3865 -116.669 -94.6105 79.9782 -117.39 -95.2024 80.6496 
-112.997 -91.4438 70.6632 -113.317 -91.7736 69.885 -113.516 -92.3622 69.3304 
-113.798 -93.1577 68.8189 -114.39 -93.8641 68.3324 -115.321 -94.3378 68.1256 
-116.376 -94.8571 68.0817 -117.234 -95.6806 67.937 -117.882 -96.6551 67.7756 
-112.122 -90.5234 71.9572 -112.114 -89.5255 72.1469 -112.634 -88.384 72.0748 
-113.274 -87.4311 72.0298 -113.897 -86.6076 72.1902 -114.531 -85.6384 72.5434 
-114.992 -84.6289 73.1377 -115.333 -83.8586 73.8725 -115.804 -83.3598 74.5097 
-112.034 -90.6667 70.8627 -111.457 -90.051 69.9693 -111.095 -89.374 68.9056 
-111.161 -88.6736 67.9007 -111.518 -87.8723 66.9337 -111.815 -86.9027 65.9477 
-112.093 -85.9934 65.1952 -112.658 -85.4284 64.7992 -113.53 -85.2111 64.6391 
-119.362 -103.609 76.2896 -118.689 -103.342 76.9441 -118.173 -102.868 77.6492 
-117.984 -102.021 78.433 -117.845 -101.068 79.3285 -117.521 -100.172 80.2576 
-117.283 -99.0977 80.9598 -117.396 -97.8678 81.2634 -117.688 -96.7448 81.3257 
-120.007 -103.574 75.0178 -120.116 -103.072 74.3225 -120.296 -102.388 73.5833 
-120.401 -101.645 72.8185 -120.306 -100.891 72.0188 -120.09 -100.111 71.1135 
-119.721 -99.4401 70.0955 -119.205 -98.8993 69.109 -118.777 -98.2908 68.3117 
-119.999 -104.841 76.2063 -120.012 -105.865 76.7873 -120.059 -106.927 77.4651 
-120.365 -107.774 78.3213 -120.888 -108.296 79.2355 -121.387 -108.637 79.967 
-121.886 -108.843 80.6175 -122.499 -108.9 81.3342 -123.125 -108.855 81.8699 
-120.317 -104.976 75.327 -120.601 -106.263 74.7825 -120.852 -107.567 74.1145 
-121.086 -108.746 73.4321 -121.305 -109.877 72.7259 -121.82 -110.867 72.0194 
-122.695 -111.417 71.4442 -123.46 -111.62 70.9475 -123.927 -111.852 70.3632 
-122.138 -93.5239 82.0127 -121.676 -93.5706 82.6086 -121.277 -93.4251 83.4088 
-120.803 -93.2572 84.0221 -120.091 -93.3688 84.1555 -119.273 -93.7845 83.951 
-118.645 -94.3546 83.4895 -118.314 -94.9528 82.7764 -118.125 -95.4379 82.0139 
-122.684 -94.638 82.035 -122.9 -96.0132 82.5733 -123.278 -97.5175 83.0476 
-123.566 -99.095 83.1545 -123.577 -100.743 83.0149 -123.574 -102.478 82.9626 
-123.744 -104.265 82.8724 -123.864 -106.022 82.599 -123.793 -107.549 82.295 
-122.207 -92.2405 81.3732 -121.739 -90.9326 81.0694 -121.269 -89.4512 80.6806 
-120.804 -87.9615 80.1918 -120.177 -86.6765 79.4915 -119.315 -85.5154 78.5674 
-118.419 -84.4373 77.6004 -117.669 -83.6693 76.7032 -117.029 -83.2563 75.8448 
-118.155 -96.9305 82.0926 -118.49 -98.2056 82.6642 -119.089 -99.5032 82.9531 
-119.84 -100.827 83.0912 -120.437 -102.424 83.353 -120.98 -104.214 83.7388 
-121.731 -105.656 83.8573 -122.541 -106.676 83.4302 -123.165 -107.656 82.6911 
-117.672 -94.3713 81.0459 -117.338 -92.8098 80.6636 -117.095 -91.2914 80.095 
-117.06 -90.0063 79.3182 -117.001 -88.7966 78.4728 -116.747 -87.4237 77.6314 
-116.497 -86.0113 76.869 -116.407 -84.8081 76.2382 -116.4 -83.8411 75.6376 
-123.777 -97.7572 67.1927 -123.398 -97.951 66.8936 -123.012 -98.0085 66.5386 
-122.422 -98.0192 66.3988 -121.569 -98.0131 66.555 -120.763 -97.8474 66.7518 
-120.172 -97.5812 66.9153 -119.607 -97.4622 67.1388 -119.014 -97.5007 67.4094 
-124.683 -99.2818 67.4135 -125.126 -101.138 67.2331 -125.384 -102.977 66.8391 
-125.532 -104.728 66.2941 -125.661 -106.421 66.0115 -125.645 -108.122 66.3505 
-125.358 -109.679 67.064 -124.939 -110.86 67.8511 -124.596 -111.647 68.7461 
-123.355 -95.7289 67.1248 -122.377 -93.8236 66.7327 -121.222 -92.0646 66.255 
-120.077 -90.6346 65.6632 -119.092 -89.4573 65.0801 -118.134 -88.4101 64.6856 
-117.122 -87.4834 64.4908 -116.172 -86.6609 64.4555 -115.308 -85.8967 64.5317 
-119.454 -98.8958 67.9882 -120.39 -100.504 68.1577 -121.031 -102.539 68.1292 
-121.314 -104.741 67.943 -121.639 -106.62 67.822 -122.216 -108.147 67.8673 
-122.825 -109.387 68.0757 -123.347 -110.285 68.5151 -123.855 -111.128 69.1251 
-117.897 -96.1625 67.099 -117.049 -94.8976 66.1475 -116.076 -93.9625 64.9546 
-115.307 -92.9763 63.9598 -114.855 -91.5391 63.3991 -114.551 -90.0591 63.2296 
-114.393 -88.8699 63.4651 -114.387 -87.6477 63.9262 -114.41 -86.3186 64.3223 
-123.804 -109.714 81.3671 -123.935 -110.551 80.4133 -123.966 -111.434 79.0918 
-123.935 -112.633 77.854 -123.872 -113.638 76.6538 -123.855 -113.978 74.9048 
-124.038 -113.982 72.9756 -124.331 -113.752 71.6078 -124.465 -113.08 70.6497 
-116.005 -82.4309 73.9953 -115.567 -81.9439 72.8906 -115.155 -81.6776 71.6033 
-114.709 -81.4693 70.0222 -114.24 -81.2993 68.4809 -113.939 -81.6144 67.3213 
-113.843 -82.4599 66.3673 -113.872 -83.385 65.5369 -114.079 -84.2619 64.9801 
-123.146 -88.0696 72.8786 -123.121 -88.6729 73.8785 -123.252 -89.9211 73.3736 
-123.186 -89.2713 75.0604 -123.393 -90.4559 74.478 -123.658 -91.767 73.9741 
-123.373 -89.8715 76.409 -123.597 -91.0536 75.7179 -123.799 -92.4 75.0447 
-124.149 -93.6748 74.5113 -123.383 -90.6931 77.5784 -123.699 -91.8462 76.9577 
-123.866 -93.1905 76.1461 -124.104 -94.5054 75.4609 -124.365 -95.8117 74.8752 
-123.199 -91.697 78.5079 -123.541 -92.8279 77.9741 -123.783 -94.1056 77.2427 
-124.014 -95.4128 76.4037 -124.321 -96.7151 75.7581 -124.624 -97.9382 75.1399 
-123.124 -92.6189 79.4994 -123.398 -93.7266 78.8955 -123.665 -94.9364 78.2655 
-123.919 -96.2638 77.4473 -124.227 -97.6547 76.6298 -124.601 -98.8453 76.0123 
-125.066 -99.6909 75.3652 -123.121 -93.3988 80.5207 -123.401 -94.4293 79.8915 
-123.69 -95.5658 79.2432 -123.986 -96.865 78.5472 -124.246 -98.3677 77.7028 
-124.509 -99.698 76.9271 -124.898 -100.531 76.2597 -125.463 -101.014 75.534 
-122.386 -85.7694 72.8259 -121.632 -85.1356 73.1535 -122.222 -86.445 73.7409 
-121.051 -84.3239 73.4783 -121.489 -85.7943 74.1194 -122.107 -87.2122 74.7411 
-120.594 -83.4552 73.915 -120.992 -84.945 74.5873 -121.476 -86.5381 75.2019 
-122.221 -87.9168 76.0399 -119.964 -82.8244 74.5963 -120.616 -84.0624 75.2141 
-121.029 -85.6806 75.7914 -121.606 -87.3566 76.5475 -122.348 -88.6729 77.3818 
-119.173 -82.4315 75.3133 -120.077 -83.3861 75.963 -120.654 -84.8203 76.4675 
-121.066 -86.6401 77.1049 -121.671 -88.2608 77.8648 -122.334 -89.5199 78.5242 
-118.36 -82.3515 75.7168 -119.296 -83.0716 76.5435 -120.122 -84.2651 77.122 
-120.637 -85.9367 77.6887 -121.088 -87.6841 78.3676 -121.697 -89.1254 79.0369 
-122.327 -90.3919 79.6162 -117.616 -82.6816 75.8208 -118.412 -83.2129 76.744 
-119.308 -84.1794 77.5278 -120.118 -85.5523 78.241 -120.695 -87.0803 78.9451 
-121.185 -88.5836 79.5771 -121.75 -89.9856 80.1418 -122.32 -91.3061 80.6249 
-116.991 -84.1686 76.4396 -117.054 -85.2958 77.0608 -117.616 -84.7568 77.3342 
-117.275 -86.6495 77.8721 -117.702 -85.9887 78.2087 -118.36 -85.621 78.5028 
-117.558 -88.0906 78.786 -117.891 -87.2992 79.2795 -118.367 -86.7088 79.6904 
-119.288 -86.5261 79.7833 -117.701 -89.4539 79.6047 -118.089 -88.7817 80.1534 
-118.432 -87.9987 80.7252 -119.237 -87.4974 80.9825 -120.212 -87.549 80.7649 
-117.695 -90.8018 80.4016 -118.217 -90.3887 80.8676 -118.62 -89.81 81.4165 
-119.282 -89.0911 81.8094 -120.196 -88.7772 81.8069 -120.875 -89.0298 81.3391 
-117.749 -92.2981 81.1507 -118.235 -91.9081 81.6831 -118.77 -91.5818 82.1707 
[...]
POINT_DATA 1002
FIELD FieldData 2
Theta 1 1002 float
2.58802 2.58802 0.553574 0.553574 2.12437 1.01722 2.12437 1.01722 1.5708 
1.5708 1.5708 1.5708 2.68241 2.78649 2.89924 3.01861 3.14159 3.01861 
2.89924 2.78649 2.68241 2.61035 2.61791 2.60515 2.56958 2.51327 2.44184 
2.36202 2.27983 2.1997 2.61035 2.61791 2.60515 2.56958 2.51327 2.44184 
2.36202 2.27983 2.1997 2.50947 2.41899 2.31794 2.20864 2.0944 1.97902 
1.86631 1.75944 1.66056 2.50947 2.41899 2.31794 2.20864 2.0944 1.97902 
1.86631 1.75944 1.66056 2.61035 2.61791 2.60515 2.56958 2.51327 2.44184 
2.36202 2.27983 2.1997 2.61035 2.61791 2.60515 2.56958 2.51327 2.44184 
2.36202 2.27983 2.1997 2.50947 2.41899 2.31794 2.20864 2.0944 1.97902 
1.86631 1.75944 1.66056 2.50947 2.41899 2.31794 2.20864 2.0944 1.97902 
1.86631 1.75944 1.66056 0.459179 0.355101 0.242354 0.122983 0 0.122983 
0.242354 0.355101 0.459179 0.531246 0.523681 0.536438 0.57201 0.628319 0.699757 
0.779574 0.86176 0.941896 0.531246 0.523681 0.536438 0.57201 0.628319 0.699757 
0.779574 0.86176 0.941896 0.632123 0.7226 0.823657 0.932948 1.0472 1.16257 
1.27528 1.38216 1.48103 0.632123 0.7226 0.823657 0.932948 1.0472 1.16257 
1.27528 1.38216 1.48103 0.531246 0.523681 0.536438 0.57201 0.628319 0.699757 
0.779574 0.86176 0.941896 0.531246 0.523681 0.536438 0.57201 0.628319 0.699757 
0.779574 0.86176 0.941896 0.632123 0.7226 0.823657 0.932948 1.0472 1.16257 
1.27528 1.38216 1.48103 0.632123 0.7226 0.823657 0.932948 1.0472 1.16257 
1.27528 1.38216 1.48103 2.02998 1.9259 1.81315 1.69378 1.5708 1.44781 
1.32844 1.2157 1.11162 2.0928 2.05283 2.00422 1.94767 1.88496 1.81867 
1.75177 1.68695 1.62623 2.0928 2.05283 2.00422 1.94767 1.88496 1.81867 
1.75177 1.68695 1.62623 1.0488 1.08876 1.13737 1.19392 1.25664 1.32292 
1.38982 1.45464 1.51537 1.0488 1.08876 1.13737 1.19392 1.25664 1.32292 
1.38982 1.45464 1.51537 2.02998 1.9259 1.81315 1.69378 1.5708 1.44781 
1.32844 1.2157 1.11162 2.0928 2.05283 2.00422 1.94767 1.88496 1.81867 
1.75177 1.68695 1.62623 2.0928 2.05283 2.00422 1.94767 1.88496 1.81867 
1.75177 1.68695 1.62623 1.0488 1.08876 1.13737 1.19392 1.25664 1.32292 
1.38982 1.45464 1.51537 1.0488 1.08876 1.13737 1.19392 1.25664 1.32292 
1.38982 1.45464 1.51537 1.5708 1.5708 1.5708 1.5708 1.5708 1.5708 
1.5708 1.5708 1.5708 1.5708 1.5708 1.5708 1.5708 1.5708 1.5708 
1.5708 1.5708 1.5708 2.70908 2.71362 2.81592 2.68886 2.81002 2.92597 
2.6349 2.76254 2.89233 3.01997 2.55881 2.68262 2.80854 2.92834 3.01997 
2.47007 2.58462 2.70048 2.80854 2.89233 2.92597 2.37702 2.48017 2.58462 
2.68262 2.76254 2.81002 2.81592 2.28567 2.37702 2.47007 2.55881 2.6349 
2.68886 2.71362 2.70908 2.52097 2.4195 2.51718 2.30791 2.40503 2.49426 
2.18928 2.28408 2.3734 2.45144 2.06758 2.15805 2.24572 2.32523 2.39165 
1.94707 2.03138 2.11543 2.19453 2.26401 2.32035 1.83164 1.90847 1.98711 
2.06376 2.13422 2.1949 2.24359 1.72413 1.79288 1.86489 1.93728 2.00658 
2.06938 2.12312 2.16654 1.5708 1.50988 1.63171 1.44492 1.5708 1.69667 
1.37826 1.5059 1.63569 1.76333 1.31281 1.43962 1.5708 1.70197 1.82878 
1.25155 1.37501 1.50478 1.63681 1.76659 1.89004 1.19686 1.31493 1.44074 
1.5708 1.70086 1.82666 1.94473 1.15011 1.26149 1.38136 1.50697 1.63462 
1.76024 1.88011 1.99148 1.99148 1.88011 1.94473 1.76024 1.82666 1.89004 
1.63462 1.70086 1.76659 1.82878 1.50697 1.5708 1.63681 1.70197 1.76333 
1.38136 1.44074 1.50478 1.5708 1.63569 1.69667 1.26149 1.31493 1.37501 
1.43962 1.5059 1.5708 1.63171 1.15011 1.19686 1.25155 1.31281 1.37826 
1.44492 1.50988 1.5708 2.16654 2.12312 2.24359 2.06938 2.1949 2.32035 
2.00658 2.13422 2.26401 2.39165 1.93728 2.06376 2.19453 2.32523 2.45144 
1.86489 1.98711 2.11543 2.24572 2.3734 2.49426 1.79288 1.90847 2.03138 
2.15805 2.28408 2.40503 2.51718 1.72413 1.83164 1.94707 2.06758 2.18928 
2.30791 2.4195 2.52097 1.66533 1.66946 1.76911 1.67254 1.777 1.88041 
1.67418 1.78222 1.89102 1.99634 1.67418 1.78405 1.89674 2.00785 2.11299 
1.67254 1.78222 1.89674 2.01191 2.12307 2.22608 1.66946 1.777 1.89102 
2.00785 2.12307 2.23222 2.33166 1.66533 1.76911 1.88041 1.99634 2.11299 
2.22608 2.33166 2.42672 1.47626 1.37249 1.47213 1.26118 1.36459 1.46906 
1.14526 1.25058 1.35938 1.46741 1.0286 1.13374 1.24485 1.35755 1.46741 
0.915514 1.01852 1.12969 1.24485 1.35938 1.46906 0.809937 0.909371 1.01852 
1.13374 1.25058 1.36459 1.47213 0.714871 0.809937 0.915514 1.0286 1.14526 
1.26118 1.37249 1.47626 0.975055 0.898002 1.01847 0.821245 0.946693 1.07221 
0.749941 0.877585 1.00737 1.13501 0.690152 0.816367 0.94706 1.07784 1.20431 
0.647337 0.768195 0.895868 1.02616 1.15448 1.2767 0.624416 0.736561 0.857515 
0.983547 1.11021 1.23313 1.34871 0.620619 0.722093 0.833684 0.952313 1.07402 
1.19452 1.30996 1.41746 0.855925 0.764569 0.764569 0.671524 0.661425 0.671524 
0.582786 0.556971 0.556971 0.582786 0.506696 0.458968 0.441109 0.458968 0.506696 
0.45273 0.379052 0.333054 0.333054 0.379052 0.45273 0.427969 0.331576 0.249267 
0.21325 0.249267 0.331576 0.427969 0.432512 0.325669 0.215619 0.121622 0.121622 
0.215619 0.325669 0.432512 0.432512 0.427969 0.325669 0.45273 0.331576 0.215619 
0.506696 0.379052 0.249267 0.121622 0.582786 0.458968 0.333054 0.21325 0.121622 
0.671524 0.556971 0.441109 0.333054 0.249267 0.215619 0.764569 0.661425 0.556971 
0.458968 0.379052 0.331576 0.325669 0.855925 0.764569 0.671524 0.582786 0.506696 
0.45273 0.427969 0.432512 0.975055 1.01847 0.898002 1.07221 0.946693 0.821245 
1.13501 1.00737 0.877585 0.749941 1.20431 1.07784 0.94706 0.816367 0.690152 
1.2767 1.15448 1.02616 0.895868 0.768195 0.647337 1.34871 1.23313 1.11021 
0.983547 0.857515 0.736561 0.624416 1.41746 1.30996 1.19452 1.07402 0.952313 
0.833684 0.722093 0.620619 1.15011 1.26149 1.19686 1.38136 1.31493 1.25155 
1.50697 1.44074 1.37501 1.31281 1.63462 1.5708 1.50478 1.43962 1.37826 
1.76024 1.70086 1.63681 1.5708 1.5059 1.44492 1.88011 1.82666 1.76659 
1.70197 1.63569 1.5708 1.50988 1.99148 1.94473 1.89004 1.82878 1.76333 
1.69667 1.63171 1.5708 1.15011 1.19686 1.26149 1.25155 1.31493 1.38136 
1.31281 1.37501 1.44074 1.50697 1.37826 1.43962 1.50478 1.5708 1.63462 
1.44492 1.5059 1.5708 1.63681 1.70086 1.76024 1.50988 1.5708 1.63569 
1.70197 1.76659 1.82666 1.88011 1.5708 1.63171 1.69667 1.76333 1.82878 
1.89004 1.94473 1.99148 1.72413 1.83164 1.79288 1.94707 1.90847 1.86489 
2.06758 2.03138 1.98711 1.93728 2.18928 2.15805 2.11543 2.06376 2.00658 
2.30791 2.28408 2.24572 2.19453 2.13422 2.06938 2.4195 2.40503 2.3734 
2.32523 2.26401 2.1949 2.12312 2.52097 2.51718 2.49426 2.45144 2.39165 
2.32035 2.24359 2.16654 2.70908 2.81592 2.71362 2.92597 2.81002 2.68886 
3.01997 2.89233 2.76254 2.6349 3.01997 2.92834 2.80854 2.68262 2.55881 
2.92597 2.89233 2.80854 2.70048 2.58462 2.47007 2.81592 2.81002 2.76254 
2.68262 2.58462 2.48017 2.37702 2.70908 2.71362 2.68886 2.6349 2.55881 
2.47007 2.37702 2.28567 2.16654 2.24359 2.12312 2.32035 2.1949 2.06938 
2.39165 2.26401 2.13422 2.00658 2.45144 2.32523 2.19453 2.06376 1.93728 
2.49426 2.3734 2.24572 2.11543 1.98711 1.86489 2.51718 2.40503 2.28408 
2.15805 2.03138 1.90847 1.79288 2.52097 2.4195 2.30791 2.18928 2.06758 
1.94707 1.83164 1.72413 1.66533 1.76911 1.66946 1.88041 1.777 1.67254 
1.99634 1.89102 1.78222 1.67418 2.11299 2.00785 1.89674 1.78405 1.67418 
2.22608 2.12307 2.01191 1.89674 1.78222 1.67254 2.33166 2.23222 2.12307 
2.00785 1.89102 1.777 1.66946 2.42672 2.33166 2.22608 2.11299 1.99634 
1.88041 1.76911 1.66533 1.47626 1.47213 1.37249 1.46906 1.36459 1.26118 
1.46741 1.35938 1.25058 1.14526 1.46741 1.35755 1.24485 1.13374 1.0286 
1.46906 1.35938 1.24485 1.12969 1.01852 0.915514 1.47213 1.36459 1.25058 
1.13374 1.01852 0.909371 0.809937 1.47626 1.37249 1.26118 1.14526 1.0286 
0.915514 0.809937 0.714871 1.41746 1.30996 1.34871 1.19452 1.23313 1.2767 
1.07402 1.11021 1.15448 1.20431 0.952313 0.983547 1.02616 1.07784 1.13501 
0.833684 0.857515 0.895868 0.94706 1.00737 1.07221 0.722093 0.736561 0.768195 
0.816367 0.877585 0.946693 1.01847 0.620619 0.624416 0.647337 0.690152 0.749941 
0.821245 0.898002 0.975055 0.975055 0.898002 1.01847 0.821245 0.946693 1.07221 
0.749941 0.877585 1.00737 1.13501 0.690152 0.816367 0.94706 1.07784 1.20431 
0.647337 0.768195 0.895868 1.02616 1.15448 1.2767 0.624416 0.736561 0.857515 
0.983547 1.11021 1.23313 1.34871 0.620619 0.722093 0.833684 0.952313 1.07402 
1.19452 1.30996 1.41746 
Phi 1 1002 float
6.28319 3.14159 6.28319 3.14159 4.71239 4.71239 1.5708 1.5708 3.69517 
5.72961 2.58802 0.553574 6.28319 6.28319 6.28319 6.28319 3.14159 3.14159 
3.14159 3.14159 3.14159 6.1053 5.8988 5.67687 5.45995 5.26596 5.10322 
4.97131 4.86569 4.78095 0.177881 0.384387 0.606312 0.823235 1.01722 1.17997 
1.31187 1.4175 1.50223 6.18928 6.10703 6.03531 5.97283 5.91832 5.87061 
5.82869 5.79168 5.75886 0.0939024 0.176153 0.247873 0.310351 0.364864 0.412573 
0.454497 0.491504 0.524326 3.31947 3.52598 3.7479 3.96483 4.15881 4.32156 
4.45346 4.55909 4.64383 2.96371 2.75721 2.53528 2.31836 2.12437 1.96162 
1.82972 1.72409 1.63936 3.2355 3.31775 3.38947 3.45194 3.50646 3.55417 
3.59609 3.6331 3.66592 3.04769 2.96544 2.89372 2.83124 2.77673 2.72902 
2.6871 2.65009 2.61727 6.28319 6.28319 6.28319 6.28319 3.14159 3.14159 
3.14159 3.14159 3.14159 6.1053 5.8988 5.67687 5.45995 5.26596 5.10322 
4.97131 4.86569 4.78095 0.177881 0.384387 0.606312 0.823235 1.01722 1.17997 
1.31187 1.4175 1.50223 6.18928 6.10703 6.03531 5.97283 5.91832 5.87061 
5.82869 5.79168 5.75886 0.0939024 0.176153 0.247873 0.310351 0.364864 0.412573 
0.454497 0.491504 0.524326 3.31947 3.52598 3.7479 3.96483 4.15881 4.32156 
4.45346 4.55909 4.64383 2.96371 2.75721 2.53528 2.31836 2.12437 1.96162 
1.82972 1.72409 1.63936 3.2355 3.31775 3.38947 3.45194 3.50646 3.55417 
3.59609 3.6331 3.66592 3.04769 2.96544 2.89372 2.83124 2.77673 2.72902 
2.6871 2.65009 2.61727 4.71239 4.71239 4.71239 4.71239 4.71239 4.71239 
4.71239 4.71239 4.71239 4.60879 4.49914 4.3857 4.27128 4.15881 4.05096 
3.94976 3.85646 3.77161 4.81599 4.92564 5.03907 5.1535 5.26596 5.37381 
5.47502 5.56831 5.65317 4.60879 4.49914 4.3857 4.27128 4.15881 4.05096 
3.94976 3.85646 3.77161 4.81599 4.92564 5.03907 5.1535 5.26596 5.37381 
5.47502 5.56831 5.65317 1.5708 1.5708 1.5708 1.5708 1.5708 1.5708 
1.5708 1.5708 1.5708 1.6744 1.78405 1.89748 2.01191 2.12437 2.23222 
2.33343 2.42672 2.51157 1.4672 1.35755 1.24411 1.12969 1.01722 0.909371 
0.808166 0.714871 0.63002 1.6744 1.78405 1.89748 2.01191 2.12437 2.23222 
2.33343 2.42672 2.51157 1.4672 1.35755 1.24411 1.12969 1.01722 0.909371 
0.808166 0.714871 0.63002 3.60077 3.49669 3.38395 3.26458 3.14159 3.01861 
2.89924 2.78649 2.68241 5.82401 5.92808 6.04083 6.1602 6.28319 0.122983 
0.242354 0.355101 0.459179 6.05603 5.78856 5.97021 5.51259 5.60297 5.78856 
5.26596 5.26596 5.26596 5.26596 5.06749 5.0121 4.91556 4.71239 4.15881 
4.91556 4.83537 4.71239 4.50922 4.15881 3.63622 4.80045 4.71239 4.58941 
4.41268 4.15881 3.82181 3.45456 4.71239 4.62433 4.50922 4.35729 4.15881 
3.91219 3.63622 3.36875 6.01742 5.94343 5.82633 5.88092 5.76745 5.62798 
5.8278 5.71897 5.58911 5.43724 5.78235 5.67854 5.55757 5.41926 5.26596 
5.74316 5.64441 5.5315 5.40467 5.26596 5.11955 5.70914 5.61528 5.50962 
5.3926 5.26596 5.13292 4.99789 5.67937 5.59016 5.49102 5.38246 5.26596 
5.14407 5.02016 4.89798 5.56831 5.47502 5.47502 5.37381 5.37381 5.37381 
5.26596 5.26596 5.26596 5.26596 5.1535 5.1535 5.1535 5.1535 5.1535 
5.03907 5.03907 5.03907 5.03907 5.03907 5.03907 4.92564 4.92564 4.92564 
4.92564 4.92564 4.92564 4.92564 4.81599 4.81599 4.81599 4.81599 4.81599 
4.81599 4.81599 4.81599 4.60879 4.60879 4.49914 4.60879 4.49914 4.3857 
4.60879 4.49914 4.3857 4.27128 4.60879 4.49914 4.3857 4.27128 4.15881 
4.60879 4.49914 4.3857 4.27128 4.15881 4.05096 4.60879 4.49914 4.3857 
4.27128 4.15881 4.05096 3.94976 4.60879 4.49914 4.3857 4.27128 4.15881 
4.05096 3.94976 3.85646 4.5268 4.40462 4.42689 4.28071 4.29185 4.30523 
4.15881 4.15881 4.15881 4.15881 4.04232 4.03217 4.02011 4.00552 3.98753 
3.93376 3.91515 3.89328 3.86721 3.83566 3.7968 3.83461 3.8095 3.78037 
3.74624 3.70581 3.65733 3.59845 3.7454 3.71564 3.68161 3.64243 3.59698 
3.54386 3.48135 3.40735 3.56428 3.45246 3.52338 3.33203 3.40312 3.47739 
3.20576 3.27463 3.34802 3.42551 3.07742 3.14159 3.21128 3.28647 3.36688 
2.95116 3.00855 3.0719 3.14159 3.21784 3.3006 2.83072 2.88006 2.93517 
2.99672 3.06535 3.14159 3.22575 2.7189 2.7598 2.8058 2.85768 2.9163 
2.98259 3.05743 3.14159 3.56428 3.52338 3.45246 3.47739 3.40312 3.33203 
3.42551 3.34802 3.27463 3.20576 3.36688 3.28647 3.21128 3.14159 3.07742 
3.3006 3.21784 3.14159 3.0719 3.00855 2.95116 3.22575 3.14159 3.06535 
2.99672 2.93517 2.88006 2.83072 3.14159 3.05743 2.98259 2.9163 2.85768 
2.8058 2.7598 2.7189 4.5268 4.42689 4.40462 4.30523 4.29185 4.28071 
4.15881 4.15881 4.15881 4.15881 3.98753 4.00552 4.02011 4.03217 4.04232 
3.7968 3.83566 3.86721 3.89328 3.91515 3.93376 3.59845 3.65733 3.70581 
3.74624 3.78037 3.8095 3.83461 3.40735 3.48135 3.54386 3.59698 3.64243 
3.68161 3.71564 3.7454 4.71239 4.80045 4.62433 4.91556 4.71239 4.50922 
5.06749 4.83537 4.58941 4.35729 5.26596 5.0121 4.71239 4.41268 4.15881 
5.51259 5.26596 4.91556 4.50922 4.15881 3.91219 5.78856 5.60297 5.26596 
4.71239 4.15881 3.82181 3.63622 6.05603 5.97021 5.78856 5.26596 4.15881 
3.63622 3.45456 3.36875 0.227158 0.494626 0.312971 0.770593 0.680215 0.494626 
1.01722 1.01722 1.01722 1.01722 1.2157 1.27109 1.36763 1.5708 2.12437 
1.36763 1.44781 1.5708 1.77397 2.12437 2.64697 1.48273 1.5708 1.69378 
1.8705 2.12437 2.46138 2.82862 1.5708 1.65886 1.77397 1.9259 2.12437 
2.371 2.64697 2.91443 1.75639 1.87857 1.8563 2.00248 1.99133 1.97796 
2.12437 2.12437 2.12437 2.12437 2.24087 2.25101 2.26308 2.27767 2.29565 
2.34943 2.36803 2.38991 2.41597 2.44752 2.48639 2.44857 2.47368 2.50281 
2.53694 2.57738 2.62586 2.68474 2.53778 2.56754 2.60157 2.64076 2.68621 
2.73933 2.80184 2.87583 1.6744 1.6744 1.78405 1.6744 1.78405 1.89748 
1.6744 1.78405 1.89748 2.01191 1.6744 1.78405 1.89748 2.01191 2.12437 
1.6744 1.78405 1.89748 2.01191 2.12437 2.23222 1.6744 1.78405 1.89748 
2.01191 2.12437 2.23222 2.33343 1.6744 1.78405 1.89748 2.01191 2.12437 
2.23222 2.33343 2.42672 1.4672 1.35755 1.4672 1.24411 1.35755 1.4672 
1.12969 1.24411 1.35755 1.4672 1.01722 1.12969 1.24411 1.35755 1.4672 
0.909371 1.01722 1.12969 1.24411 1.35755 1.4672 0.808166 0.909371 1.01722 
1.12969 1.24411 1.35755 1.4672 0.714871 0.808166 0.909371 1.01722 1.12969 
1.24411 1.35755 1.4672 0.603812 0.57405 0.693022 0.540021 0.667908 0.792164 
0.500837 0.638778 0.773562 0.900726 0.455383 0.604649 0.751687 0.890581 1.01722 
0.402264 0.564217 0.725619 0.878514 1.01722 1.13912 0.339753 0.515737 0.694072 
0.863926 1.01722 1.15026 1.26302 0.265762 0.456853 0.655207 0.845941 1.01722 
1.16363 1.28529 1.38521 0.227158 0.312971 0.494626 0.494626 0.680215 0.770593 
1.01722 1.01722 1.01722 1.01722 2.12437 1.5708 1.36763 1.27109 1.2157 
2.64697 2.12437 1.77397 1.5708 1.44781 1.36763 2.82862 2.46138 2.12437 
1.8705 1.69378 1.5708 1.48273 2.91443 2.64697 2.371 2.12437 1.9259 
1.77397 1.65886 1.5708 1.75639 1.8563 1.87857 1.97796 1.99133 2.00248 
2.12437 2.12437 2.12437 2.12437 2.29565 2.27767 2.26308 2.25101 2.24087 
2.48639 2.44752 2.41597 2.38991 2.36803 2.34943 2.68474 2.62586 2.57738 
2.53694 2.50281 2.47368 2.44857 2.87583 2.80184 2.73933 2.68621 2.64076 
2.60157 2.56754 2.53778 5.86049 5.90139 5.97231 5.94739 6.02165 6.09275 
5.99927 6.07676 6.15015 6.21902 6.0579 6.13831 6.2135 0 0.0641696 
6.12418 6.20694 6.28319 0.069689 0.13304 0.190437 6.19903 0 0.0762451 
0.144876 0.206423 0.261531 0.310872 0 0.0841597 0.159004 0.225289 0.283913 
0.335793 0.381792 0.422692 5.86049 5.97231 5.90139 6.09275 6.02165 5.94739 
6.21902 6.15015 6.07676 5.99927 0.0641696 0 6.2135 6.13831 6.0579 
0.190437 0.13304 0.069689 6.28319 6.20694 6.12418 0.310872 0.261531 0.206423 
0.144876 0.0762451 6.28319 6.19903 0.422692 0.381792 0.335793 0.283913 0.225289 
0.159004 0.0841597 0 5.67937 5.70914 5.59016 5.74316 5.61528 5.49102 
5.78235 5.64441 5.50962 5.38246 5.8278 5.67854 5.5315 5.3926 5.26596 
5.88092 5.71897 5.55757 5.40467 5.26596 5.14407 5.94343 5.76745 5.58911 
5.41926 5.26596 5.13292 5.02016 6.01742 5.82633 5.62798 5.43724 5.26596 
5.11955 4.99789 4.89798 1.38521 1.28529 1.26302 1.16363 1.15026 1.13912 
1.01722 1.01722 1.01722 1.01722 0.845941 0.863926 0.878514 0.890581 0.900726 
0.655207 0.694072 0.725619 0.751687 0.773562 0.792164 0.456853 0.515737 0.564217 
0.604649 0.638778 0.667908 0.693022 0.265762 0.339753 0.402264 0.455383 0.500837 
0.540021 0.57405 0.603812 
