# vtk DataFile Version 4.0
vtk output
ASCII
DATASET POLYDATA
POINTS 1002 float
-121.742 -87.958 66.6117 -124.236 -102.407 72.2746 -111.848 -91.5226 66.3274 
-118.408 -103.798 72.5483 -121.189 -92.6933 77.465 -116.286 -94.8685 77.0303 
-123.704 -98.5262 63.3839 -118.338 -98.6539 63.9757 -121.484 -107.499 79.9231 
-115.684 -83.626 68.4847 -123.125 -112.653 67.4347 -115.1 -86.0701 58.3291 
-122.473 -88.7093 67.2023 -123.079 -89.6904 67.7963 -123.379 -91.2087 68.4391 
-123.585 -93.0071 69.1349 -123.957 -94.6574 69.8634 -124.35 -96.2593 70.6433 
-124.522 -97.9745 71.3539 -124.451 -99.6464 71.8031 -124.293 -101.128 72.0436 
-121.792 -88.1273 67.6291 -121.825 -88.3839 68.6727 -121.831 -88.775 69.7595 
-121.837 -89.2756 70.9607 -121.884 -89.8152 72.2475 -121.878 -90.4138 73.5132 
-121.73 -91.046 74.6755 -121.519 -91.6121 75.7123 -121.332 -92.1388 76.6378 
-122.156 -88.3035 65.9713 -122.566 -88.8014 65.3472 -122.818 -89.6354 64.845 
-122.953 -90.7263 64.4521 -123.118 -91.8689 64.0959 -123.314 -93.094 63.8043 
-123.5 -94.4715 63.6254 -123.657 -95.8971 63.5157 -123.726 -97.2646 63.4296 
-121.162 -87.1145 66.5999 -120.697 -86.0229 66.5717 -120.088 -85.0369 66.6282 
-119.33 -84.2464 66.843 -118.784 -83.3934 67.2284 -118.328 -82.6283 67.7486 
-117.559 -82.3147 68.2122 -116.682 -82.4771 68.4208 -116.063 -82.9739 68.4482 
-121.201 -87.3531 65.6132 -120.557 -86.6573 64.6654 -119.865 -86.0159 63.7957 
-119.055 -85.6223 62.8721 -118.14 -85.4244 61.9334 -117.46 -85.196 60.9934 
-117.061 -84.9484 59.8719 -116.553 -84.9445 58.8375 -115.83 -85.3466 58.3573 
-123.926 -101.704 72.7806 -123.674 -100.905 73.2724 -123.661 -99.7787 74.0755 
-123.654 -98.5101 75.0311 -123.384 -97.4041 75.7269 -123.017 -96.3204 76.2477 
-122.624 -95.2425 76.7202 -122.077 -94.3799 77.0076 -121.528 -93.5971 77.1981 
-124.421 -102.465 71.3317 -124.56 -102.586 70.1853 -124.91 -102.567 69.2492 
-125.391 -102.357 68.5494 -125.421 -102.081 67.6295 -124.966 -101.7 66.5004 
-124.645 -101.083 65.4837 -124.552 -100.257 64.5969 -124.278 -99.3509 63.8694 
-124.175 -103.198 72.9741 -124.29 -104.041 73.8196 -124.363 -104.82 74.7334 
-124.075 -105.531 75.513 -123.606 -106.282 76.2403 -123.318 -106.908 77.1783 
-123.071 -107.157 78.1178 -122.593 -107.238 78.7816 -121.986 -107.406 79.3416 
-124.415 -103.69 71.9991 -124.513 -105.167 71.5868 -124.5 -106.736 71.0585 
-124.435 -108.215 70.4644 -124.327 -109.54 69.9494 -124.217 -110.875 69.5257 
-124.169 -112.182 68.9035 -124.048 -112.99 68.1066 -123.682 -113.046 67.5693 
-112.365 -92.4167 66.8449 -112.991 -93.337 67.4732 -113.893 -94.3672 68.2706 
-114.958 -95.5886 69.2725 -115.874 -96.8927 70.3082 -116.609 -98.1846 71.1052 
-117.272 -99.5486 71.6441 -117.822 -100.969 72.0594 -118.2 -102.377 72.3663 
-111.853 -91.6852 67.4796 -112.037 -91.8006 68.6425 -112.551 -91.8789 69.5585 
-113.334 -92.0515 70.4098 -114.074 -92.3864 71.6574 -114.529 -92.8347 73.1864 
-114.861 -93.3472 74.5305 -115.3 -93.9055 75.5725 -115.808 -94.4467 76.3865 
-112.226 -91.8709 65.6239 -112.642 -92.2233 65.1002 -113.092 -92.7655 64.6445 
-113.63 -93.5284 64.2104 -114.239 -94.4075 63.972 -115.008 -95.2638 63.9219 
-116.042 -95.9563 63.9083 -117.07 -96.6475 63.9254 -117.801 -97.5915 63.9642 
-111.368 -90.5872 66.554 -111.088 -89.4782 66.7082 -111.207 -88.4107 66.6337 
-111.753 -87.4004 66.5175 -112.497 -86.4329 66.5852 -113.236 -85.6255 66.7517 
-113.946 -84.9401 67.0155 -114.602 -84.325 67.4689 -115.165 -83.8816 67.9962 
-111.475 -90.9052 65.3403 -111.073 -90.2979 64.2277 -110.964 -89.5584 62.9516 
-111.192 -88.7103 61.7558 -111.541 -87.9957 60.8458 -112.109 -87.5031 60.0203 
-112.91 -87.1285 59.2915 -113.641 -86.7566 58.8735 -114.309 -86.3598 58.6067 
-118.182 -103.112 73.2835 -117.71 -102.517 73.867 -117.197 -101.818 74.4156 
-116.726 -101.01 75.0976 -116.164 -100.319 75.8741 -115.644 -99.542 76.6405 
-115.488 -98.3642 77.2301 -115.694 -97.0437 77.4008 -116.021 -95.8925 77.2236 
-118.365 -103.653 71.636 -118.333 -103.443 70.7462 -118.516 -103.006 69.9852 
-118.821 -102.335 69.2782 -118.923 -101.676 68.4502 -118.834 -101.111 67.4787 
-118.749 -100.495 66.4854 -118.629 -99.8396 65.5412 -118.455 -99.2322 64.6869 
-118.455 -104.812 73.2125 -118.452 -105.811 73.9535 -118.528 -106.626 74.8056 
-118.963 -107.118 75.7242 -119.732 -107.206 76.4634 -120.312 -107.116 77.1143 
-120.547 -107.313 78.143 -120.799 -107.765 79.3274 -121.164 -107.916 79.9561 
-118.463 -105.298 72.079 -118.504 -106.853 71.6082 -118.879 -108.018 71.2905 
-119.641 -108.905 71.0415 -120.368 -110.006 70.606 -120.831 -111.209 69.9015 
-121.266 -112.056 69.1484 -121.835 -112.471 68.5362 -122.48 -112.625 67.9934 
-121.016 -92.4012 78.181 -120.797 -92.0798 78.9182 -120.268 -91.8594 79.525 
-119.389 -91.8823 79.7756 -118.475 -92.1981 79.579 -117.847 -92.6651 79.1202 
-117.48 -93.174 78.5503 -117.14 -93.7639 77.9246 -116.718 -94.3767 77.3881 
-121.22 -93.9106 78.1034 -121.348 -95.1207 78.8195 -121.618 -96.348 79.4627 
-121.946 -97.8974 80.0041 -122.282 -99.7044 80.6222 -122.463 -101.369 81.0229 
-122.232 -102.937 80.7641 -121.787 -104.614 80.2527 -121.536 -106.219 80.0257 
-121.011 -91.3378 77.2697 -120.725 -90.0537 76.8808 -120.32 -88.9684 76.1198 
-119.827 -87.8635 75.1197 -119.158 -86.574 74.1354 -118.361 -85.4307 73.0882 
-117.631 -84.7751 71.8127 -116.958 -84.42 70.4941 -116.281 -84.0354 69.3858 
-116.584 -95.8244 77.714 -116.996 -96.8458 78.3938 -117.717 -98.1411 79.0367 
-118.393 -99.7551 79.6904 -118.611 -101.438 80.303 -118.922 -103.006 80.7666 
-119.803 -104.436 81.0444 -120.683 -105.675 81.003 -121.146 -106.691 80.5656 
-116.104 -93.5384 76.5753 -115.802 -92.0317 76.1036 -115.637 -90.6316 75.3853 
-115.644 -89.5188 74.349 -115.579 -88.3389 73.2542 -115.444 -86.9679 72.2602 
-115.46 -85.9412 71.217 -115.599 -85.2962 70.11 -115.681 -84.5393 69.1688 
-123.268 -98.8346 63.1222 -122.952 -99.1692 62.7461 -122.697 -99.4664 62.3309 
-122.149 -99.6379 62.185 -121.272 -99.574 62.3704 -120.477 -99.288 62.641 
-119.855 -99.0366 62.9041 -119.241 -98.9571 63.2158 -118.699 -98.8731 63.5826 
-124.024 -100.33 63.6637 -124.32 -102.37 63.9333 -124.634 -104.316 63.9278 
-124.741 -105.858 63.7051 -124.498 -107.351 63.6738 -124.249 -109.172 63.9589 
-124.174 -110.759 64.4909 -123.987 -111.634 65.3568 -123.576 -112.15 66.4402 
-122.924 -97.0771 63.0756 -122.01 -95.6609 62.8069 -121.22 -94.1218 62.2088 
-120.44 -92.5073 61.1243 -119.433 -91.1825 60.1153 -118.44 -90.1491 59.5546 
-117.648 -89.0057 59.0303 -116.825 -87.7541 58.4231 -115.907 -86.7385 58.1451 
-118.998 -100.043 64.3818 -119.829 -101.437 64.8082 -120.481 -103.1 65.1415 
-120.705 -105.245 65.2423 -120.896 -107.37 65.1639 -121.375 -108.927 65.2096 
-121.889 -110.052 65.6235 -122.309 -110.994 66.2742 -122.734 -111.844 66.8892 
-117.954 -97.3845 63.3126 -117.42 -96.098 62.4966 -116.624 -94.9088 61.4792 
-115.86 -93.7872 60.4257 -115.371 -92.6616 59.4607 -114.954 -91.4523 58.6407 
-114.614 -90.0943 58.1788 -114.599 -88.6684 58.1113 -114.835 -87.3035 58.2013 
-121.765 -108.632 79.2966 -122.095 -109.743 78.4209 -122.317 -110.811 77.3107 
-122.363 -112.028 76.1316 -122.359 -113.292 75.0009 -122.471 -114.075 73.5531 
-122.692 -114.272 71.5803 -122.907 -114.054 69.7039 -123.048 -113.449 68.3942 
-115.371 -82.9588 67.5137 -115.1 -82.6364 66.2607 -114.792 -82.4257 64.8326 
-114.357 -81.9983 63.5464 -113.935 -81.8375 62.2944 -113.823 -82.3516 60.9473 
-114.083 -83.1308 59.918 -114.48 -83.9825 59.2917 -114.819 -85.0019 58.7584 
-122.48 -89.0078 68.2523 -122.494 -89.4242 69.3221 -123.097 -90.1458 68.8874 
-122.492 -89.9185 70.4988 -123.089 -90.7112 70.0695 -123.396 -91.759 69.6221 
-122.496 -90.418 71.8333 -123.019 -91.2794 71.3435 -123.321 -92.3612 70.9117 
-123.56 -93.5565 70.4224 -122.505 -90.9409 73.2454 -122.957 -91.7979 72.704 
-123.251 -92.945 72.1424 -123.547 -94.1136 71.7385 -123.963 -95.2529 71.2278 
-122.402 -91.5598 74.5348 -122.877 -92.3342 74.1193 -123.196 -93.5065 73.4145 
-123.594 -94.6823 72.8955 -124.054 -95.8101 72.495 -124.4 -96.9466 71.9464 
-122.146 -92.2425 75.5507 -122.687 -92.96 75.3161 -123.037 -94.0647 74.7371 
-123.455 -95.2669 74.0863 -123.957 -96.3556 73.5694 -124.279 -97.5351 72.9855 
-124.41 -98.667 72.3855 -121.822 -92.9327 76.3898 -122.399 -93.6701 76.1999 
-122.827 -94.6491 75.8198 -123.186 -95.8228 75.2556 -123.618 -96.9022 74.6652 
-123.894 -98.0522 73.9192 -123.973 -99.2803 73.1387 -124.103 -100.284 72.5771 
-121.278 -87.2271 67.6871 -120.868 -86.1088 67.7494 -121.343 -87.4809 68.8525 
-120.287 -85.1178 67.8993 -120.945 -86.4354 69.0709 -121.321 -87.9624 70.0755 
-119.59 -84.3153 68.1929 -120.397 -85.4924 69.3118 -120.9 -87.0123 70.4092 
-121.295 -88.5639 71.3304 -119.016 -83.5748 68.6792 -119.742 -84.7201 69.6339 
-120.413 -86.0448 70.7102 -120.855 -87.619 71.7026 -121.294 -89.1818 72.5822 
-118.357 -83.0466 69.2322 -119.072 -84.097 70.1529 -119.829 -85.2488 71.1165 
-120.453 -86.6065 72.1156 -120.815 -88.2726 73.0053 -121.21 -89.8457 73.8427 
-117.513 -82.9721 69.5098 -118.305 -83.7448 70.612 -119.128 -84.6969 71.6591 
-119.957 -85.8769 72.6087 -120.47 -87.398 73.5018 -120.732 -89.0285 74.3535 
-121.087 -90.4363 75.1084 -116.782 -83.3843 69.4605 -117.553 -83.8835 70.6619 
-118.344 -84.5008 71.9427 -119.222 -85.4762 73.0202 -119.979 -86.8617 73.9059 
-120.403 -88.3241 74.8271 -120.7 -89.6299 75.6939 -121.032 -90.8792 76.2841 
-116.281 -84.9271 70.2083 -116.162 -85.6087 71.3048 -116.903 -85.2474 71.4206 
-116.032 -86.4329 72.4649 -116.751 -86.1229 72.5176 -117.508 -85.7102 72.7702 
-116.082 -87.7209 73.5261 -116.709 -87.283 73.6961 -117.379 -86.864 73.9177 
-118.201 -86.5491 74.1352 -116.178 -89.0038 74.5693 -116.835 -88.5089 74.8395 
-117.452 -87.9698 75.2587 -118.092 -87.5788 75.5281 -118.964 -87.5997 75.4139 
-116.152 -90.0872 75.6124 -116.845 -89.6064 75.8382 -117.557 -89.0106 76.3544 
-118.141 -88.4356 76.9024 -118.834 -88.314 76.9322 -119.686 -88.5927 76.5603 
-116.225 -91.4037 76.4594 -116.779 -90.8801 76.7338 -117.448 -90.3589 77.1342 
-118.101 -89.7292 77.7287 -118.781 -89.3084 78.0693 -119.61 -89.3293 77.8989 
[...]
POINT_DATA 1002
FIELD FieldData 2
Theta 1 1002 float
2.58802 2.58802 0.553574 0.553574 2.12437 1.01722 2.12437 1.01722 1.5708 
1.5708 1.5708 1.5708 2.68241 2.78649 2.89924 3.01861 3.14159 3.01861 
2.89924 2.78649 2.68241 2.61035 2.61791 2.60515 2.56958 2.51327 2.44184 
2.36202 2.27983 2.1997 2.61035 2.61791 2.60515 2.56958 2.51327 2.44184 
2.36202 2.27983 2.1997 2.50947 2.41899 2.31794 2.20864 2.0944 1.97902 
1.86631 1.75944 1.66056 2.50947 2.41899 2.31794 2.20864 2.0944 1.97902 
1.86631 1.75944 1.66056 2.61035 2.61791 2.60515 2.56958 2.51327 2.44184 
2.36202 2.27983 2.1997 2.61035 2.61791 2.60515 2.56958 2.51327 2.44184 
2.36202 2.27983 2.1997 2.50947 2.41899 2.31794 2.20864 2.0944 1.97902 
1.86631 1.75944 1.66056 2.50947 2.41899 2.31794 2.20864 2.0944 1.97902 
1.86631 1.75944 1.66056 0.459179 0.355101 0.242354 0.122983 0 0.122983 
0.242354 0.355101 0.459179 0.531246 0.523681 0.536438 0.57201 0.628319 0.699757 
0.779574 0.86176 0.941896 0.531246 0.523681 0.536438 0.57201 0.628319 0.699757 
0.779574 0.86176 0.941896 0.632123 0.7226 0.823657 0.932948 1.0472 1.16257 
1.27528 1.38216 1.48103 0.632123 0.7226 0.823657 0.932948 1.0472 1.16257 
1.27528 1.38216 1.48103 0.531246 0.523681 0.536438 0.57201 0.628319 0.699757 
0.779574 0.86176 0.941896 0.531246 0.523681 0.536438 0.57201 0.628319 0.699757 
0.779574 0.86176 0.941896 0.632123 0.7226 0.823657 0.932948 1.0472 1.16257 
1.27528 1.38216 1.48103 0.632123 0.7226 0.823657 0.932948 1.0472 1.16257 
1.27528 1.38216 1.48103 2.02998 1.9259 1.81315 1.69378 1.5708 1.44781 
1.32844 1.2157 1.11162 2.0928 2.05283 2.00422 1.94767 1.88496 1.81867 
1.75177 1.68695 1.62623 2.0928 2.05283 2.00422 1.94767 1.88496 1.81867 
1.75177 1.68695 1.62623 1.0488 1.08876 1.13737 1.19392 1.25664 1.32292 
1.38982 1.45464 1.51537 1.0488 1.08876 1.13737 1.19392 1.25664 1.32292 
1.38982 1.45464 1.51537 2.02998 1.9259 1.81315 1.69378 1.5708 1.44781 
1.32844 1.2157 1.11162 2.0928 2.05283 2.00422 1.94767 1.88496 1.81867 
1.75177 1.68695 1.62623 2.0928 2.05283 2.00422 1.94767 1.88496 1.81867 
1.75177 1.68695 1.62623 1.0488 1.08876 1.13737 1.19392 1.25664 1.32292 
1.38982 1.45464 1.51537 1.0488 1.08876 1.13737 1.19392 1.25664 1.32292 
1.38982 1.45464 1.51537 1.5708 1.5708 1.5708 1.5708 1.5708 1.5708 
1.5708 1.5708 1.5708 1.5708 1.5708 1.5708 1.5708 1.5708 1.5708 
1.5708 1.5708 1.5708 2.70908 2.71362 2.81592 2.68886 2.81002 2.92597 
2.6349 2.76254 2.89233 3.01997 2.55881 2.68262 2.80854 2.92834 3.01997 
2.47007 2.58462 2.70048 2.80854 2.89233 2.92597 2.37702 2.48017 2.58462 
2.68262 2.76254 2.81002 2.81592 2.28567 2.37702 2.47007 2.55881 2.6349 
2.68886 2.71362 2.70908 2.52097 2.4195 2.51718 2.30791 2.40503 2.49426 
2.18928 2.28408 2.3734 2.45144 2.06758 2.15805 2.24572 2.32523 2.39165 
1.94707 2.03138 2.11543 2.19453 2.26401 2.32035 1.83164 1.90847 1.98711 
2.06376 2.13422 2.1949 2.24359 1.72413 1.79288 1.86489 1.93728 2.00658 
2.06938 2.12312 2.16654 1.5708 1.50988 1.63171 1.44492 1.5708 1.69667 
1.37826 1.5059 1.63569 1.76333 1.31281 1.43962 1.5708 1.70197 1.82878 
1.25155 1.37501 1.50478 1.63681 1.76659 1.89004 1.19686 1.31493 1.44074 
1.5708 1.70086 1.82666 1.94473 1.15011 1.26149 1.38136 1.50697 1.63462 
1.76024 1.88011 1.99148 1.99148 1.88011 1.94473 1.76024 1.82666 1.89004 
1.63462 1.70086 1.76659 1.82878 1.50697 1.5708 1.63681 1.70197 1.76333 
1.38136 1.44074 1.50478 1.5708 1.63569 1.69667 1.26149 1.31493 1.37501 
1.43962 1.5059 1.5708 1.63171 1.15011 1.19686 1.25155 1.31281 1.37826 
1.44492 1.50988 1.5708 2.16654 2.12312 2.24359 2.06938 2.1949 2.32035 
2.00658 2.13422 2.26401 2.39165 1.93728 2.06376 2.19453 2.32523 2.45144 
1.86489 1.98711 2.11543 2.24572 2.3734 2.49426 1.79288 1.90847 2.03138 
2.15805 2.28408 2.40503 2.51718 1.72413 1.83164 1.94707 2.06758 2.18928 
2.30791 2.4195 2.52097 1.66533 1.66946 1.76911 1.67254 1.777 1.88041 
1.67418 1.78222 1.89102 1.99634 1.67418 1.78405 1.89674 2.00785 2.11299 
1.67254 1.78222 1.89674 2.01191 2.12307 2.22608 1.66946 1.777 1.89102 
2.00785 2.12307 2.23222 2.33166 1.66533 1.76911 1.88041 1.99634 2.11299 
2.22608 2.33166 2.42672 1.47626 1.37249 1.47213 1.26118 1.36459 1.46906 
1.14526 1.25058 1.35938 1.46741 1.0286 1.13374 1.24485 1.35755 1.46741 
0.915514 1.01852 1.12969 1.24485 1.35938 1.46906 0.809937 0.909371 1.01852 
1.13374 1.25058 1.36459 1.47213 0.714871 0.809937 0.915514 1.0286 1.14526 
1.26118 1.37249 1.47626 0.975055 0.898002 1.01847 0.821245 0.946693 1.07221 
0.749941 0.877585 1.00737 1.13501 0.690152 0.816367 0.94706 1.07784 1.20431 
0.647337 0.768195 0.895868 1.02616 1.15448 1.2767 0.624416 0.736561 0.857515 
0.983547 1.11021 1.23313 1.34871 0.620619 0.722093 0.833684 0.952313 1.07402 
1.19452 1.30996 1.41746 0.855925 0.764569 0.764569 0.671524 0.661425 0.671524 
0.582786 0.556971 0.556971 0.582786 0.506696 0.458968 0.441109 0.458968 0.506696 
0.45273 0.379052 0.333054 0.333054 0.379052 0.45273 0.427969 0.331576 0.249267 
0.21325 0.249267 0.331576 0.427969 0.432512 0.325669 0.215619 0.121622 0.121622 
0.215619 0.325669 0.432512 0.432512 0.427969 0.325669 0.45273 0.331576 0.215619 
0.506696 0.379052 0.249267 0.121622 0.582786 0.458968 0.333054 0.21325 0.121622 
0.671524 0.556971 0.441109 0.333054 0.249267 0.215619 0.764569 0.661425 0.556971 
0.458968 0.379052 0.331576 0.325669 0.855925 0.764569 0.671524 0.582786 0.506696 
0.45273 0.427969 0.432512 0.975055 1.01847 0.898002 1.07221 0.946693 0.821245 
1.13501 1.00737 0.877585 0.749941 1.20431 1.07784 0.94706 0.816367 0.690152 
1.2767 1.15448 1.02616 0.895868 0.768195 0.647337 1.34871 1.23313 1.11021 
0.983547 0.857515 0.736561 0.624416 1.41746 1.30996 1.19452 1.07402 0.952313 
0.833684 0.722093 0.620619 1.15011 1.26149 1.19686 1.38136 1.31493 1.25155 
1.50697 1.44074 1.37501 1.31281 1.63462 1.5708 1.50478 1.43962 1.37826 
1.76024 1.70086 1.63681 1.5708 1.5059 1.44492 1.88011 1.82666 1.76659 
1.70197 1.63569 1.5708 1.50988 1.99148 1.94473 1.89004 1.82878 1.76333 
1.69667 1.63171 1.5708 1.15011 1.19686 1.26149 1.25155 1.31493 1.38136 
1.31281 1.37501 1.44074 1.50697 1.37826 1.43962 1.50478 1.5708 1.63462 
1.44492 1.5059 1.5708 1.63681 1.70086 1.76024 1.50988 1.5708 1.63569 
1.70197 1.76659 1.82666 1.88011 1.5708 1.63171 1.69667 1.76333 1.82878 
1.89004 1.94473 1.99148 1.72413 1.83164 1.79288 1.94707 1.90847 1.86489 
2.06758 2.03138 1.98711 1.93728 2.18928 2.15805 2.11543 2.06376 2.00658 
2.30791 2.28408 2.24572 2.19453 2.13422 2.06938 2.4195 2.40503 2.3734 
2.32523 2.26401 2.1949 2.12312 2.52097 2.51718 2.49426 2.45144 2.39165 
2.32035 2.24359 2.16654 2.70908 2.81592 2.71362 2.92597 2.81002 2.68886 
3.01997 2.89233 2.76254 2.6349 3.01997 2.92834 2.80854 2.68262 2.55881 
2.92597 2.89233 2.80854 2.70048 2.58462 2.47007 2.81592 2.81002 2.76254 
2.68262 2.58462 2.48017 2.37702 2.70908 2.71362 2.68886 2.6349 2.55881 
2.47007 2.37702 2.28567 2.16654 2.24359 2.12312 2.32035 2.1949 2.06938 
2.39165 2.26401 2.13422 2.00658 2.45144 2.32523 2.19453 2.06376 1.93728 
2.49426 2.3734 2.24572 2.11543 1.98711 1.86489 2.51718 2.40503 2.28408 
2.15805 2.03138 1.90847 1.79288 2.52097 2.4195 2.30791 2.18928 2.06758 
1.94707 1.83164 1.72413 1.66533 1.76911 1.66946 1.88041 1.777 1.67254 
1.99634 1.89102 1.78222 1.67418 2.11299 2.00785 1.89674 1.78405 1.67418 
2.22608 2.12307 2.01191 1.89674 1.78222 1.67254 2.33166 2.23222 2.12307 
2.00785 1.89102 1.777 1.66946 2.42672 2.33166 2.22608 2.11299 1.99634 
1.88041 1.76911 1.66533 1.47626 1.47213 1.37249 1.46906 1.36459 1.26118 
1.46741 1.35938 1.25058 1.14526 1.46741 1.35755 1.24485 1.13374 1.0286 
1.46906 1.35938 1.24485 1.12969 1.01852 0.915514 1.47213 1.36459 1.25058 
1.13374 1.01852 0.909371 0.809937 1.47626 1.37249 1.26118 1.14526 1.0286 
0.915514 0.809937 0.714871 1.41746 1.30996 1.34871 1.19452 1.23313 1.2767 
1.07402 1.11021 1.15448 1.20431 0.952313 0.983547 1.02616 1.07784 1.13501 
0.833684 0.857515 0.895868 0.94706 1.00737 1.07221 0.722093 0.736561 0.768195 
0.816367 0.877585 0.946693 1.01847 0.620619 0.624416 0.647337 0.690152 0.749941 
0.821245 0.898002 0.975055 0.975055 0.898002 1.01847 0.821245 0.946693 1.07221 
0.749941 0.877585 1.00737 1.13501 0.690152 0.816367 0.94706 1.07784 1.20431 
0.647337 0.768195 0.895868 1.02616 1.15448 1.2767 0.624416 0.736561 0.857515 
0.983547 1.11021 1.23313 1.34871 0.620619 0.722093 0.833684 0.952313 1.07402 
1.19452 1.30996 1.41746 
Phi 1 1002 float
6.28319 3.14159 6.28319 3.14159 4.71239 4.71239 1.5708 1.5708 3.69517 
5.72961 2.58802 0.553574 6.28319 6.28319 6.28319 6.28319 3.14159 3.14159 
3.14159 3.14159 3.14159 6.1053 5.8988 5.67687 5.45995 5.26596 5.10322 
4.97131 4.86569 4.78095 0.177881 0.384387 0.606312 0.823235 1.01722 1.17997 
1.31187 1.4175 1.50223 6.18928 6.10703 6.03531 5.97283 5.91832 5.87061 
5.82869 5.79168 5.75886 0.0939024 0.176153 0.247873 0.310351 0.364864 0.412573 
0.454497 0.491504 0.524326 3.31947 3.52598 3.7479 3.96483 4.15881 4.32156 
4.45346 4.55909 4.64383 2.96371 2.75721 2.53528 2.31836 2.12437 1.96162 
1.82972 1.72409 1.63936 3.2355 3.31775 3.38947 3.45194 3.50646 3.55417 
3.59609 3.6331 3.66592 3.04769 2.96544 2.89372 2.83124 2.77673 2.72902 
2.6871 2.65009 2.61727 6.28319 6.28319 6.28319 6.28319 3.14159 3.14159 
3.14159 3.14159 3.14159 6.1053 5.8988 5.67687 5.45995 5.26596 5.10322 
4.97131 4.86569 4.78095 0.177881 0.384387 0.606312 0.823235 1.01722 1.17997 
1.31187 1.4175 1.50223 6.18928 6.10703 6.03531 5.97283 5.91832 5.87061 
5.82869 5.79168 5.75886 0.0939024 0.176153 0.247873 0.310351 0.364864 0.412573 
0.454497 0.491504 0.524326 3.31947 3.52598 3.7479 3.96483 4.15881 4.32156 
4.45346 4.55909 4.64383 2.96371 2.75721 2.53528 2.31836 2.12437 1.96162 
1.82972 1.72409 1.63936 3.2355 3.31775 3.38947 3.45194 3.50646 3.55417 
3.59609 3.6331 3.66592 3.04769 2.96544 2.89372 2.83124 2.77673 2.72902 
2.6871 2.65009 2.61727 4.71239 4.71239 4.71239 4.71239 4.71239 4.71239 
4.71239 4.71239 4.71239 4.60879 4.49914 4.3857 4.27128 4.15881 4.05096 
3.94976 3.85646 3.77161 4.81599 4.92564 5.03907 5.1535 5.26596 5.37381 
5.47502 5.56831 5.65317 4.60879 4.49914 4.3857 4.27128 4.15881 4.05096 
3.94976 3.85646 3.77161 4.81599 4.92564 5.03907 5.1535 5.26596 5.37381 
5.47502 5.56831 5.65317 1.5708 1.5708 1.5708 1.5708 1.5708 1.5708 
1.5708 1.5708 1.5708 1.6744 1.78405 1.89748 2.01191 2.12437 2.23222 
2.33343 2.42672 2.51157 1.4672 1.35755 1.24411 1.12969 1.01722 0.909371 
0.808166 0.714871 0.63002 1.6744 1.78405 1.89748 2.01191 2.12437 2.23222 
2.33343 2.42672 2.51157 1.4672 1.35755 1.24411 1.12969 1.01722 0.909371 
0.808166 0.714871 0.63002 3.60077 3.49669 3.38395 3.26458 3.14159 3.01861 
2.89924 2.78649 2.68241 5.82401 5.92808 6.04083 6.1602 6.28319 0.122983 
0.242354 0.355101 0.459179 6.05603 5.78856 5.97021 5.51259 5.60297 5.78856 
5.26596 5.26596 5.26596 5.26596 5.06749 5.0121 4.91556 4.71239 4.15881 
4.91556 4.83537 4.71239 4.50922 4.15881 3.63622 4.80045 4.71239 4.58941 
4.41268 4.15881 3.82181 3.45456 4.71239 4.62433 4.50922 4.35729 4.15881 
3.91219 3.63622 3.36875 6.01742 5.94343 5.82633 5.88092 5.76745 5.62798 
5.8278 5.71897 5.58911 5.43724 5.78235 5.67854 5.55757 5.41926 5.26596 
5.74316 5.64441 5.5315 5.40467 5.26596 5.11955 5.70914 5.61528 5.50962 
5.3926 5.26596 5.13292 4.99789 5.67937 5.59016 5.49102 5.38246 5.26596 
5.14407 5.02016 4.89798 5.56831 5.47502 5.47502 5.37381 5.37381 5.37381 
5.26596 5.26596 5.26596 5.26596 5.1535 5.1535 5.1535 5.1535 5.1535 
5.03907 5.03907 5.03907 5.03907 5.03907 5.03907 4.92564 4.92564 4.92564 
4.92564 4.92564 4.92564 4.92564 4.81599 4.81599 4.81599 4.81599 4.81599 
4.81599 4.81599 4.81599 4.60879 4.60879 4.49914 4.60879 4.49914 4.3857 
4.60879 4.49914 4.3857 4.27128 4.60879 4.49914 4.3857 4.27128 4.15881 
4.60879 4.49914 4.3857 4.27128 4.15881 4.05096 4.60879 4.49914 4.3857 
4.27128 4.15881 4.05096 3.94976 4.60879 4.49914 4.3857 4.27128 4.15881 
4.05096 3.94976 3.85646 4.5268 4.40462 4.42689 4.28071 4.29185 4.30523 
4.15881 4.15881 4.15881 4.15881 4.04232 4.03217 4.02011 4.00552 3.98753 
3.93376 3.91515 3.89328 3.86721 3.83566 3.7968 3.83461 3.8095 3.78037 
3.74624 3.70581 3.65733 3.59845 3.7454 3.71564 3.68161 3.64243 3.59698 
3.54386 3.48135 3.40735 3.56428 3.45246 3.52338 3.33203 3.40312 3.47739 
3.20576 3.27463 3.34802 3.42551 3.07742 3.14159 3.21128 3.28647 3.36688 
2.95116 3.00855 3.0719 3.14159 3.21784 3.3006 2.83072 2.88006 2.93517 
2.99672 3.06535 3.14159 3.22575 2.7189 2.7598 2.8058 2.85768 2.9163 
2.98259 3.05743 3.14159 3.56428 3.52338 3.45246 3.47739 3.40312 3.33203 
3.42551 3.34802 3.27463 3.20576 3.36688 3.28647 3.21128 3.14159 3.07742 
3.3006 3.21784 3.14159 3.0719 3.00855 2.95116 3.22575 3.14159 3.06535 
2.99672 2.93517 2.88006 2.83072 3.14159 3.05743 2.98259 2.9163 2.85768 
2.8058 2.7598 2.7189 4.5268 4.42689 4.40462 4.30523 4.29185 4.28071 
4.15881 4.15881 4.15881 4.15881 3.98753 4.00552 4.02011 4.03217 4.04232 
3.7968 3.83566 3.86721 3.89328 3.91515 3.93376 3.59845 3.65733 3.70581 
3.74624 3.78037 3.8095 3.83461 3.40735 3.48135 3.54386 3.59698 3.64243 
3.68161 3.71564 3.7454 4.71239 4.80045 4.62433 4.91556 4.71239 4.50922 
5.06749 4.83537 4.58941 4.35729 5.26596 5.0121 4.71239 4.41268 4.15881 
5.51259 5.26596 4.91556 4.50922 4.15881 3.91219 5.78856 5.60297 5.26596 
4.71239 4.15881 3.82181 3.63622 6.05603 5.97021 5.78856 5.26596 4.15881 
3.63622 3.45456 3.36875 0.227158 0.494626 0.312971 0.770593 0.680215 0.494626 
1.01722 1.01722 1.01722 1.01722 1.2157 1.27109 1.36763 1.5708 2.12437 
1.36763 1.44781 1.5708 1.77397 2.12437 2.64697 1.48273 1.5708 1.69378 
1.8705 2.12437 2.46138 2.82862 1.5708 1.65886 1.77397 1.9259 2.12437 
2.371 2.64697 2.91443 1.75639 1.87857 1.8563 2.00248 1.99133 1.97796 
2.12437 2.12437 2.12437 2.12437 2.24087 2.25101 2.26308 2.27767 2.29565 
2.34943 2.36803 2.38991 2.41597 2.44752 2.48639 2.44857 2.47368 2.50281 
2.53694 2.57738 2.62586 2.68474 2.53778 2.56754 2.60157 2.64076 2.68621 
2.73933 2.80184 2.87583 1.6744 1.6744 1.78405 1.6744 1.78405 1.89748 
1.6744 1.78405 1.89748 2.01191 1.6744 1.78405 1.89748 2.01191 2.12437 
1.6744 1.78405 1.89748 2.01191 2.12437 2.23222 1.6744 1.78405 1.89748 
2.01191 2.12437 2.23222 2.33343 1.6744 1.78405 1.89748 2.01191 2.12437 
2.23222 2.33343 2.42672 1.4672 1.35755 1.4672 1.24411 1.35755 1.4672 
1.12969 1.24411 1.35755 1.4672 1.01722 1.12969 1.24411 1.35755 1.4672 
0.909371 1.01722 1.12969 1.24411 1.35755 1.4672 0.808166 0.909371 1.01722 
1.12969 1.24411 1.35755 1.4672 0.714871 0.808166 0.909371 1.01722 1.12969 
1.24411 1.35755 1.4672 0.603812 0.57405 0.693022 0.540021 0.667908 0.792164 
0.500837 0.638778 0.773562 0.900726 0.455383 0.604649 0.751687 0.890581 1.01722 
0.402264 0.564217 0.725619 0.878514 1.01722 1.13912 0.339753 0.515737 0.694072 
0.863926 1.01722 1.15026 1.26302 0.265762 0.456853 0.655207 0.845941 1.01722 
1.16363 1.28529 1.38521 0.227158 0.312971 0.494626 0.494626 0.680215 0.770593 
1.01722 1.01722 1.01722 1.01722 2.12437 1.5708 1.36763 1.27109 1.2157 
2.64697 2.12437 1.77397 1.5708 1.44781 1.36763 2.82862 2.46138 2.12437 
1.8705 1.69378 1.5708 1.48273 2.91443 2.64697 2.371 2.12437 1.9259 
1.77397 1.65886 1.5708 1.75639 1.8563 1.87857 1.97796 1.99133 2.00248 
2.12437 2.12437 2.12437 2.12437 2.29565 2.27767 2.26308 2.25101 2.24087 
2.48639 2.44752 2.41597 2.38991 2.36803 2.34943 2.68474 2.62586 2.57738 
2.53694 2.50281 2.47368 2.44857 2.87583 2.80184 2.73933 2.68621 2.64076 
2.60157 2.56754 2.53778 5.86049 5.90139 5.97231 5.94739 6.02165 6.09275 
5.99927 6.07676 6.15015 6.21902 6.0579 6.13831 6.2135 0 0.0641696 
6.12418 6.20694 6.28319 0.069689 0.13304 0.190437 6.19903 0 0.0762451 
0.144876 0.206423 0.261531 0.310872 0 0.0841597 0.159004 0.225289 0.283913 
0.335793 0.381792 0.422692 5.86049 5.97231 5.90139 6.09275 6.02165 5.94739 
6.21902 6.15015 6.07676 5.99927 0.0641696 0 6.2135 6.13831 6.0579 
0.190437 0.13304 0.069689 6.28319 6.20694 6.12418 0.310872 0.261531 0.206423 
0.144876 0.0762451 6.28319 6.19903 0.422692 0.381792 0.335793 0.283913 0.225289 
0.159004 0.0841597 0 5.67937 5.70914 5.59016 5.74316 5.61528 5.49102 
5.78235 5.64441 5.50962 5.38246 5.8278 5.67854 5.5315 5.3926 5.26596 
5.88092 5.71897 5.55757 5.40467 5.26596 5.14407 5.94343 5.76745 5.58911 
5.41926 5.26596 5.13292 5.02016 6.01742 5.82633 5.62798 5.43724 5.26596 
5.11955 4.99789 4.89798 1.38521 1.28529 1.26302 1.16363 1.15026 1.13912 
1.01722 1.01722 1.01722 1.01722 0.845941 0.863926 0.878514 0.890581 0.900726 
0.655207 0.694072 0.725619 0.751687 0.773562 0.792164 0.456853 0.515737 0.564217 
0.604649 0.638778 0.667908 0.693022 0.265762 0.339753 0.402264 0.455383 0.500837 
0.540021 0.57405 0.603812 
