# vtk DataFile Version 4.0
vtk output
ASCII
DATASET POLYDATA
POINTS 1002 float
-125.371 -84.1204 65.7901 -128.796 -99.1691 70.7397 -113.813 -89.2323 65.5434 
-122.041 -101.216 71.573 -124.508 -89.6481 76.5581 -119.549 -91.9276 76.9227 
-127.228 -95.54 61.8567 -120.789 -96.434 61.9034 -125.514 -104.84 79.3889 
-118.681 -80.686 68.7835 -127.328 -109.959 65.7159 -116.884 -83.3699 57.534 
-126.063 -84.9339 66.3079 -126.698 -86.0745 66.9221 -127.03 -87.8146 67.5679 
-127.231 -89.8505 68.2213 -127.779 -91.6637 68.9438 -128.55 -93.3019 69.6554 
-128.982 -94.9316 70.1091 -128.975 -96.4547 70.2953 -128.836 -97.856 70.4625 
-125.525 -84.1182 66.8905 -125.594 -84.2712 68.1567 -125.476 -84.7146 69.2729 
-125.202 -85.4303 70.1805 -125.016 -86.1404 71.29 -125.065 -86.6821 72.697 
-125.133 -87.2753 73.9777 -124.993 -88.0677 74.9652 -124.728 -88.9035 75.805 
-125.605 -84.6928 65.1269 -125.852 -85.3896 64.4971 -126.101 -86.2514 63.8554 
-126.286 -87.3371 63.2373 -126.388 -88.6204 62.7718 -126.514 -90.0017 62.4162 
-126.732 -91.4288 62.0899 -126.973 -92.8638 61.901 -127.141 -94.2453 61.8733 
-124.816 -83.261 65.9351 -124.247 -82.2733 66.0763 -123.606 -81.277 66.2113 
-122.887 -80.3504 66.4732 -122.203 -79.4883 67.0125 -121.484 -78.9025 67.6579 
-120.587 -78.8862 68.1026 -119.702 -79.3721 68.354 -119.083 -80.0447 68.5685 
-124.841 -83.629 64.9355 -124.188 -83.08 64.0523 -123.375 -82.6093 63.0084 
-122.474 -82.3355 61.9525 -121.411 -82.2616 61.1161 -120.189 -82.3322 60.3123 
-119.209 -82.4587 59.3732 -118.549 -82.6152 58.528 -117.806 -82.8943 57.9332 
-128.435 -98.5198 71.3262 -127.915 -97.9798 71.728 -127.565 -97.1674 72.3904 
-127.478 -95.8692 73.4836 -127.276 -94.4525 74.4566 -126.775 -93.2189 75.0574 
-126.246 -92.0751 75.6113 -125.748 -91.0641 76.1127 -125.134 -90.3004 76.3853 
-129 -99.1409 69.6982 -129.269 -99.0271 68.6197 -129.579 -98.7559 67.77 
-129.652 -98.4371 66.9525 -129.364 -98.1477 65.8898 -128.991 -97.7433 64.802 
-128.693 -97.181 63.8868 -128.332 -96.6272 63.0649 -127.828 -96.1179 62.3646 
-128.777 -99.9612 71.5664 -128.881 -100.819 72.561 -128.92 -101.862 73.6724 
-128.69 -102.915 74.5665 -128.103 -103.705 75.1054 -127.367 -104.345 75.7933 
-126.865 -104.858 76.9015 -126.579 -105.006 78.0044 -126.16 -104.905 78.8077 
-128.888 -100.568 70.4007 -128.92 -102.15 69.9259 -129.137 -103.683 69.5701 
-129.43 -105.174 69.3669 -129.353 -106.627 68.9331 -129.05 -107.924 68.2379 
-128.89 -109.161 67.5686 -128.645 -110.142 66.9009 -128.077 -110.375 66.2232 
-114.997 -89.7667 65.834 -116.273 -90.3931 66.3656 -117.193 -91.4538 67.1492 
-118.014 -92.7276 68.0667 -119.287 -93.7431 69.051 -120.487 -94.9228 69.9351 
-120.89 -96.7777 70.4593 -120.989 -98.7446 70.736 -121.423 -100.196 71.0958 
-114.519 -89.1965 66.3344 -115.214 -89.3104 67.4232 -115.653 -89.515 68.929 
-115.886 -89.7518 70.6582 -116.243 -90.0083 72.1084 -116.88 -90.3361 73.1929 
-117.612 -90.7868 74.2991 -118.257 -91.2601 75.4232 -118.878 -91.6256 76.2863 
-113.902 -89.7394 64.9811 -114.25 -90.2618 64.3706 -114.819 -90.8039 63.6479 
-115.377 -91.5215 62.9318 -115.884 -92.4175 62.4349 -116.723 -93.1594 62.1133 
-117.942 -93.7169 61.8577 -119.084 -94.4844 61.7471 -119.979 -95.5023 61.8019 
-113.407 -88.4294 65.7869 -113.503 -87.4724 66.0057 -113.983 -86.5469 66.1061 
-114.46 -85.4216 66.332 -114.817 -83.9622 66.9022 -115.325 -82.7748 67.4051 
-116.178 -82.1379 67.5782 -117.184 -81.6399 67.8068 -118.033 -81.1207 68.2743 
-112.957 -88.893 64.9265 -112.457 -88.3577 64.0245 -112.267 -87.5607 62.7238 
-112.422 -86.8057 61.3352 -113.07 -86.3095 60.2056 -113.833 -85.6637 59.2361 
-114.267 -84.6866 58.3215 -114.747 -83.857 57.6839 -115.7 -83.4591 57.4604 
-121.514 -100.918 72.1476 -121.006 -100.396 72.8019 -120.639 -99.6014 73.6116 
-120.425 -98.6254 74.4836 -120.178 -97.6418 75.2083 -119.809 -96.7078 75.8082 
-119.509 -95.6623 76.3714 -119.425 -94.4 76.761 -119.476 -93.0837 76.9024 
-122.206 -100.795 70.6779 -122.454 -100.192 69.7895 -122.745 -99.5057 68.9938 
-122.939 -98.8297 68.0775 -122.966 -98.1532 66.8064 -122.741 -97.6458 65.4709 
-122.182 -97.4706 64.4336 -121.501 -97.3672 63.5771 -121.019 -97.0168 62.7201 
-122.244 -102.024 72.3988 -122.253 -102.98 73.1817 -122.18 -104.057 74.0083 
-122.324 -104.919 75.0369 -122.797 -105.323 76.1478 -123.393 -105.568 77.1477 
-123.908 -105.902 78.0659 -124.398 -105.986 78.8537 -124.964 -105.553 79.3122 
-122.665 -101.992 71.4742 -123.16 -103.025 71.211 -123.662 -104.252 70.7933 
-124.203 -105.507 70.2802 -124.482 -106.913 69.5408 -124.571 -108.372 68.4941 
-124.969 -109.312 67.4091 -125.735 -109.633 66.5777 -126.571 -109.788 66.0445 
-124.111 -89.606 77.1926 -123.826 -89.4249 78.0141 -123.468 -89.2155 78.864 
-122.773 -89.2559 79.3564 -121.881 -89.6694 79.3455 -121.236 -90.2391 79.0421 
-120.875 -90.7238 78.5633 -120.508 -91.1105 77.9476 -120.035 -91.4957 77.3624 
-124.74 -90.8028 77.1793 -125.116 -92.0148 77.9363 -125.473 -93.3168 78.7491 
-125.554 -94.9574 79.242 -125.433 -97.1399 79.2846 -125.409 -99.4655 79.3618 
-125.512 -101.267 79.6885 -125.589 -102.51 79.8752 -125.582 -103.638 79.7246 
-124.118 -88.4085 76.3451 -123.852 -86.896 76.0748 -123.605 -85.2136 75.6263 
-123.099 -83.5652 75.1387 -122.21 -82.2028 74.6084 -121.287 -81.3481 73.5894 
-120.615 -80.9881 72.1118 -120.013 -80.8472 70.776 -119.333 -80.7318 69.7463 
-120.198 -93.0435 77.5922 -120.759 -94.4699 78.5099 -121.216 -95.9208 79.4506 
-121.826 -97.182 79.8589 -122.624 -98.6557 79.9436 -123.283 -100.583 80.5084 
-123.736 -102.339 81.2002 -124.224 -103.43 81.0658 -124.846 -104.13 80.2334 
-119.196 -90.6849 76.5159 -118.858 -89.347 75.979 -118.539 -87.8093 75.3101 
-118.253 -86.2287 74.5599 -118.106 -84.9225 73.64 -118.202 -83.9254 72.4615 
-118.454 -83.0186 71.2845 -118.644 -82.1271 70.3645 -118.694 -81.3359 69.5844 
-126.832 -95.9024 61.5713 -126.371 -96.2473 61.2339 -125.868 -96.6125 60.8272 
-125.232 -96.9371 60.5632 -124.354 -97.0222 60.5712 -123.378 -96.8068 60.6811 
-122.563 -96.5369 60.8227 -121.903 -96.4447 61.097 -121.291 -96.4714 61.4851 
-127.689 -97.2606 61.9468 -128.164 -99.0876 61.8312 -128.573 -101.006 61.6797 
-128.807 -103.145 61.5093 -128.872 -105.407 61.2112 -128.796 -107.215 61.2193 
-128.529 -108.262 62.0988 -128.13 -108.914 63.5247 -127.718 -109.498 64.7931 
-126.475 -93.9996 61.3878 -125.517 -92.3126 60.7859 -124.363 -90.7397 60.1164 
-123.213 -89.319 59.3666 -122.285 -87.8765 58.5284 -121.394 -86.5385 57.8345 
-120.255 -85.5409 57.5275 -119.001 -84.7617 57.4979 -117.87 -84.0267 57.512 
-121.718 -97.6362 62.4038 -122.721 -98.9343 62.7223 -123.623 -100.655 62.7815 
-124.215 -102.789 62.6317 -124.732 -104.73 62.6637 -125.392 -106.121 63.1738 
-125.922 -107.185 63.8216 -126.288 -108.153 64.3237 -126.763 -109.096 64.9059 
-120.065 -95.2156 60.9982 -119.16 -94.0004 59.9618 -118.264 -92.9334 58.9018 
-117.664 -91.8375 58.0197 -117.304 -90.4792 57.4356 -116.948 -88.9425 57.0466 
-116.625 -87.3897 56.8371 -116.486 -85.8638 56.9113 -116.59 -84.4728 57.1922 
-125.884 -106.162 78.7274 -126.261 -107.536 77.9474 -126.543 -108.785 76.8549 
-126.659 -109.888 75.5813 -126.655 -110.696 74.0697 -126.688 -111.015 72.0442 
-126.904 -111.008 69.8868 -127.209 -110.881 68.1567 -127.367 -110.554 66.8351 
-118.299 -80.3966 67.5578 -117.87 -80.1682 66.2516 -117.278 -79.8487 64.988 
-116.583 -79.4747 63.5396 -116.078 -79.4333 61.9204 -115.924 -79.9744 60.5524 
-116.026 -80.8183 59.4581 -116.261 -81.6402 58.5159 -116.552 -82.4615 57.8747 
-126.288 -85.01 67.5477 -126.347 -85.348 68.8183 -126.886 -86.3477 68.1646 
-126.151 -85.9989 69.8563 -126.824 -86.9135 69.3454 -127.056 -88.3117 68.6923 
-125.903 -86.7099 70.8891 -126.611 -87.6107 70.4575 -126.922 -88.9803 69.8237 
-127.274 -90.4313 69.3229 -125.863 -87.2604 72.2283 -126.513 -88.1663 71.7511 
-126.822 -89.576 71.0713 -127.28 -91.0537 70.5077 -128.009 -92.2788 70.1835 
-125.908 -87.8465 73.5834 -126.507 -88.7139 73.1119 -126.8 -90.0681 72.4118 
-127.211 -91.5806 71.7065 -127.998 -92.9149 71.321 -128.664 -94.0192 70.8985 
-125.749 -88.6604 74.6602 -126.342 -89.4952 74.236 -126.704 -90.699 73.6152 
-127.081 -92.0854 72.8715 -127.677 -93.4875 72.244 -128.289 -94.7644 71.7455 
-128.689 -95.7225 71.1232 -125.418 -89.5374 75.5644 -126.014 -90.353 75.1919 
-126.473 -91.4413 74.6422 -126.951 -92.6554 74.0125 -127.409 -93.9826 73.2711 
-127.739 -95.3992 72.4218 -128.054 -96.5242 71.7079 -128.457 -97.2293 71.1343 
-124.904 -83.2804 67.0967 -124.342 -82.2763 67.2879 -124.887 -83.4578 68.3986 
-123.749 -81.2139 67.5477 -124.341 -82.4202 68.6897 -124.729 -83.9281 69.5492 
-123.04 -80.2212 68.0287 -123.766 -81.3317 69.112 -124.243 -82.8661 70.0074 
-124.504 -84.6746 70.6161 -122.325 -79.4017 68.7123 -122.994 -80.4337 69.6787 
-123.696 -81.8112 70.5433 -124.125 -83.5839 71.275 -124.406 -85.3933 71.9429 
-121.554 -79.048 69.2826 -122.193 -79.8326 70.32 -122.895 -81.0476 71.1269 
-123.671 -82.5063 71.8772 -124.072 -84.299 72.6481 -124.447 -85.997 73.358 
-120.653 -79.3386 69.5453 -121.396 -79.7084 70.766 -122.054 -80.576 71.8047 
-122.953 -81.7353 72.5628 -123.688 -83.2393 73.2338 -124.017 -85.0636 73.9193 
-124.416 -86.7348 74.5052 -119.861 -80.0182 69.6468 -120.616 -80.1348 70.8541 
-121.271 -80.5251 72.1987 -122.107 -81.2971 73.3164 -123.064 -82.5102 73.9648 
-123.647 -84.1729 74.4661 -123.918 -85.9977 75.008 -124.266 -87.6042 75.4564 
-119.375 -81.5311 70.5208 -119.297 -82.4236 71.4271 -119.995 -81.7289 71.6592 
-119.035 -83.3196 72.6456 -119.877 -82.7043 72.7796 -120.548 -81.9107 73.1971 
-118.807 -84.2356 73.9292 -119.713 -83.7398 74.0311 -120.479 -83.1009 74.2887 
-121.279 -82.4281 74.68 -118.841 -85.4397 74.8973 -119.695 -84.9045 75.0829 
-120.482 -84.4627 75.2825 -121.288 -83.8761 75.6083 -122.27 -83.4804 75.6443 
-119.078 -87.0491 75.6634 -119.837 -86.3754 75.9589 -120.553 -85.8881 76.2688 
-121.299 -85.3515 76.6444 -122.296 -84.8767 76.792 -123.162 -84.8482 76.3742 
-119.377 -88.7185 76.3835 -120.04 -88.0455 76.7982 -120.635 -87.4398 77.2313 
-121.244 -86.8127 77.7103 -122.198 -86.2116 78.0327 -123.164 -86.0516 77.7764 
[...]
POINT_DATA 1002
FIELD FieldData 2
Theta 1 1002 float
2.58802 2.58802 0.553574 0.553574 2.12437 1.01722 2.12437 1.01722 1.5708 
1.5708 1.5708 1.5708 2.68241 2.78649 2.89924 3.01861 3.14159 3.01861 
2.89924 2.78649 2.68241 2.61035 2.61791 2.60515 2.56958 2.51327 2.44184 
2.36202 2.27983 2.1997 2.61035 2.61791 2.60515 2.56958 2.51327 2.44184 
2.36202 2.27983 2.1997 2.50947 2.41899 2.31794 2.20864 2.0944 1.97902 
1.86631 1.75944 1.66056 2.50947 2.41899 2.31794 2.20864 2.0944 1.97902 
1.86631 1.75944 1.66056 2.61035 2.61791 2.60515 2.56958 2.51327 2.44184 
2.36202 2.27983 2.1997 2.61035 2.61791 2.60515 2.56958 2.51327 2.44184 
2.36202 2.27983 2.1997 2.50947 2.41899 2.31794 2.20864 2.0944 1.97902 
1.86631 1.75944 1.66056 2.50947 2.41899 2.31794 2.20864 2.0944 1.97902 
1.86631 1.75944 1.66056 0.459179 0.355101 0.242354 0.122983 0 0.122983 
0.242354 0.355101 0.459179 0.531246 0.523681 0.536438 0.57201 0.628319 0.699757 
0.779574 0.86176 0.941896 0.531246 0.523681 0.536438 0.57201 0.628319 0.699757 
0.779574 0.86176 0.941896 0.632123 0.7226 0.823657 0.932948 1.0472 1.16257 
1.27528 1.38216 1.48103 0.632123 0.7226 0.823657 0.932948 1.0472 1.16257 
1.27528 1.38216 1.48103 0.531246 0.523681 0.536438 0.57201 0.628319 0.699757 
0.779574 0.86176 0.941896 0.531246 0.523681 0.536438 0.57201 0.628319 0.699757 
0.779574 0.86176 0.941896 0.632123 0.7226 0.823657 0.932948 1.0472 1.16257 
1.27528 1.38216 1.48103 0.632123 0.7226 0.823657 0.932948 1.0472 1.16257 
1.27528 1.38216 1.48103 2.02998 1.9259 1.81315 1.69378 1.5708 1.44781 
1.32844 1.2157 1.11162 2.0928 2.05283 2.00422 1.94767 1.88496 1.81867 
1.75177 1.68695 1.62623 2.0928 2.05283 2.00422 1.94767 1.88496 1.81867 
1.75177 1.68695 1.62623 1.0488 1.08876 1.13737 1.19392 1.25664 1.32292 
1.38982 1.45464 1.51537 1.0488 1.08876 1.13737 1.19392 1.25664 1.32292 
1.38982 1.45464 1.51537 2.02998 1.9259 1.81315 1.69378 1.5708 1.44781 
1.32844 1.2157 1.11162 2.0928 2.05283 2.00422 1.94767 1.88496 1.81867 
1.75177 1.68695 1.62623 2.0928 2.05283 2.00422 1.94767 1.88496 1.81867 
1.75177 1.68695 1.62623 1.0488 1.08876 1.13737 1.19392 1.25664 1.32292 
1.38982 1.45464 1.51537 1.0488 1.08876 1.13737 1.19392 1.25664 1.32292 
1.38982 1.45464 1.51537 1.5708 1.5708 1.5708 1.5708 1.5708 1.5708 
1.5708 1.5708 1.5708 1.5708 1.5708 1.5708 1.5708 1.5708 1.5708 
1.5708 1.5708 1.5708 2.70908 2.71362 2.81592 2.68886 2.81002 2.92597 
2.6349 2.76254 2.89233 3.01997 2.55881 2.68262 2.80854 2.92834 3.01997 
2.47007 2.58462 2.70048 2.80854 2.89233 2.92597 2.37702 2.48017 2.58462 
2.68262 2.76254 2.81002 2.81592 2.28567 2.37702 2.47007 2.55881 2.6349 
2.68886 2.71362 2.70908 2.52097 2.4195 2.51718 2.30791 2.40503 2.49426 
2.18928 2.28408 2.3734 2.45144 2.06758 2.15805 2.24572 2.32523 2.39165 
1.94707 2.03138 2.11543 2.19453 2.26401 2.32035 1.83164 1.90847 1.98711 
2.06376 2.13422 2.1949 2.24359 1.72413 1.79288 1.86489 1.93728 2.00658 
2.06938 2.12312 2.16654 1.5708 1.50988 1.63171 1.44492 1.5708 1.69667 
1.37826 1.5059 1.63569 1.76333 1.31281 1.43962 1.5708 1.70197 1.82878 
1.25155 1.37501 1.50478 1.63681 1.76659 1.89004 1.19686 1.31493 1.44074 
1.5708 1.70086 1.82666 1.94473 1.15011 1.26149 1.38136 1.50697 1.63462 
1.76024 1.88011 1.99148 1.99148 1.88011 1.94473 1.76024 1.82666 1.89004 
1.63462 1.70086 1.76659 1.82878 1.50697 1.5708 1.63681 1.70197 1.76333 
1.38136 1.44074 1.50478 1.5708 1.63569 1.69667 1.26149 1.31493 1.37501 
1.43962 1.5059 1.5708 1.63171 1.15011 1.19686 1.25155 1.31281 1.37826 
1.44492 1.50988 1.5708 2.16654 2.12312 2.24359 2.06938 2.1949 2.32035 
2.00658 2.13422 2.26401 2.39165 1.93728 2.06376 2.19453 2.32523 2.45144 
1.86489 1.98711 2.11543 2.24572 2.3734 2.49426 1.79288 1.90847 2.03138 
2.15805 2.28408 2.40503 2.51718 1.72413 1.83164 1.94707 2.06758 2.18928 
2.30791 2.4195 2.52097 1.66533 1.66946 1.76911 1.67254 1.777 1.88041 
1.67418 1.78222 1.89102 1.99634 1.67418 1.78405 1.89674 2.00785 2.11299 
1.67254 1.78222 1.89674 2.01191 2.12307 2.22608 1.66946 1.777 1.89102 
2.00785 2.12307 2.23222 2.33166 1.66533 1.76911 1.88041 1.99634 2.11299 
2.22608 2.33166 2.42672 1.47626 1.37249 1.47213 1.26118 1.36459 1.46906 
1.14526 1.25058 1.35938 1.46741 1.0286 1.13374 1.24485 1.35755 1.46741 
0.915514 1.01852 1.12969 1.24485 1.35938 1.46906 0.809937 0.909371 1.01852 
1.13374 1.25058 1.36459 1.47213 0.714871 0.809937 0.915514 1.0286 1.14526 
1.26118 1.37249 1.47626 0.975055 0.898002 1.01847 0.821245 0.946693 1.07221 
0.749941 0.877585 1.00737 1.13501 0.690152 0.816367 0.94706 1.07784 1.20431 
0.647337 0.768195 0.895868 1.02616 1.15448 1.2767 0.624416 0.736561 0.857515 
0.983547 1.11021 1.23313 1.34871 0.620619 0.722093 0.833684 0.952313 1.07402 
1.19452 1.30996 1.41746 0.855925 0.764569 0.764569 0.671524 0.661425 0.671524 
0.582786 0.556971 0.556971 0.582786 0.506696 0.458968 0.441109 0.458968 0.506696 
0.45273 0.379052 0.333054 0.333054 0.379052 0.45273 0.427969 0.331576 0.249267 
0.21325 0.249267 0.331576 0.427969 0.432512 0.325669 0.215619 0.121622 0.121622 
0.215619 0.325669 0.432512 0.432512 0.427969 0.325669 0.45273 0.331576 0.215619 
0.506696 0.379052 0.249267 0.121622 0.582786 0.458968 0.333054 0.21325 0.121622 
0.671524 0.556971 0.441109 0.333054 0.249267 0.215619 0.764569 0.661425 0.556971 
0.458968 0.379052 0.331576 0.325669 0.855925 0.764569 0.671524 0.582786 0.506696 
0.45273 0.427969 0.432512 0.975055 1.01847 0.898002 1.07221 0.946693 0.821245 
1.13501 1.00737 0.877585 0.749941 1.20431 1.07784 0.94706 0.816367 0.690152 
1.2767 1.15448 1.02616 0.895868 0.768195 0.647337 1.34871 1.23313 1.11021 
0.983547 0.857515 0.736561 0.624416 1.41746 1.30996 1.19452 1.07402 0.952313 
0.833684 0.722093 0.620619 1.15011 1.26149 1.19686 1.38136 1.31493 1.25155 
1.50697 1.44074 1.37501 1.31281 1.63462 1.5708 1.50478 1.43962 1.37826 
1.76024 1.70086 1.63681 1.5708 1.5059 1.44492 1.88011 1.82666 1.76659 
1.70197 1.63569 1.5708 1.50988 1.99148 1.94473 1.89004 1.82878 1.76333 
1.69667 1.63171 1.5708 1.15011 1.19686 1.26149 1.25155 1.31493 1.38136 
1.31281 1.37501 1.44074 1.50697 1.37826 1.43962 1.50478 1.5708 1.63462 
1.44492 1.5059 1.5708 1.63681 1.70086 1.76024 1.50988 1.5708 1.63569 
1.70197 1.76659 1.82666 1.88011 1.5708 1.63171 1.69667 1.76333 1.82878 
1.89004 1.94473 1.99148 1.72413 1.83164 1.79288 1.94707 1.90847 1.86489 
2.06758 2.03138 1.98711 1.93728 2.18928 2.15805 2.11543 2.06376 2.00658 
2.30791 2.28408 2.24572 2.19453 2.13422 2.06938 2.4195 2.40503 2.3734 
2.32523 2.26401 2.1949 2.12312 2.52097 2.51718 2.49426 2.45144 2.39165 
2.32035 2.24359 2.16654 2.70908 2.81592 2.71362 2.92597 2.81002 2.68886 
3.01997 2.89233 2.76254 2.6349 3.01997 2.92834 2.80854 2.68262 2.55881 
2.92597 2.89233 2.80854 2.70048 2.58462 2.47007 2.81592 2.81002 2.76254 
2.68262 2.58462 2.48017 2.37702 2.70908 2.71362 2.68886 2.6349 2.55881 
2.47007 2.37702 2.28567 2.16654 2.24359 2.12312 2.32035 2.1949 2.06938 
2.39165 2.26401 2.13422 2.00658 2.45144 2.32523 2.19453 2.06376 1.93728 
2.49426 2.3734 2.24572 2.11543 1.98711 1.86489 2.51718 2.40503 2.28408 
2.15805 2.03138 1.90847 1.79288 2.52097 2.4195 2.30791 2.18928 2.06758 
1.94707 1.83164 1.72413 1.66533 1.76911 1.66946 1.88041 1.777 1.67254 
1.99634 1.89102 1.78222 1.67418 2.11299 2.00785 1.89674 1.78405 1.67418 
2.22608 2.12307 2.01191 1.89674 1.78222 1.67254 2.33166 2.23222 2.12307 
2.00785 1.89102 1.777 1.66946 2.42672 2.33166 2.22608 2.11299 1.99634 
1.88041 1.76911 1.66533 1.47626 1.47213 1.37249 1.46906 1.36459 1.26118 
1.46741 1.35938 1.25058 1.14526 1.46741 1.35755 1.24485 1.13374 1.0286 
1.46906 1.35938 1.24485 1.12969 1.01852 0.915514 1.47213 1.36459 1.25058 
1.13374 1.01852 0.909371 0.809937 1.47626 1.37249 1.26118 1.14526 1.0286 
0.915514 0.809937 0.714871 1.41746 1.30996 1.34871 1.19452 1.23313 1.2767 
1.07402 1.11021 1.15448 1.20431 0.952313 0.983547 1.02616 1.07784 1.13501 
0.833684 0.857515 0.895868 0.94706 1.00737 1.07221 0.722093 0.736561 0.768195 
0.816367 0.877585 0.946693 1.01847 0.620619 0.624416 0.647337 0.690152 0.749941 
0.821245 0.898002 0.975055 0.975055 0.898002 1.01847 0.821245 0.946693 1.07221 
0.749941 0.877585 1.00737 1.13501 0.690152 0.816367 0.94706 1.07784 1.20431 
0.647337 0.768195 0.895868 1.02616 1.15448 1.2767 0.624416 0.736561 0.857515 
0.983547 1.11021 1.23313 1.34871 0.620619 0.722093 0.833684 0.952313 1.07402 
1.19452 1.30996 1.41746 
Phi 1 1002 float
6.28319 3.14159 6.28319 3.14159 4.71239 4.71239 1.5708 1.5708 3.69517 
5.72961 2.58802 0.553574 6.28319 6.28319 6.28319 6.28319 3.14159 3.14159 
3.14159 3.14159 3.14159 6.1053 5.8988 5.67687 5.45995 5.26596 5.10322 
4.97131 4.86569 4.78095 0.177881 0.384387 0.606312 0.823235 1.01722 1.17997 
1.31187 1.4175 1.50223 6.18928 6.10703 6.03531 5.97283 5.91832 5.87061 
5.82869 5.79168 5.75886 0.0939024 0.176153 0.247873 0.310351 0.364864 0.412573 
0.454497 0.491504 0.524326 3.31947 3.52598 3.7479 3.96483 4.15881 4.32156 
4.45346 4.55909 4.64383 2.96371 2.75721 2.53528 2.31836 2.12437 1.96162 
1.82972 1.72409 1.63936 3.2355 3.31775 3.38947 3.45194 3.50646 3.55417 
3.59609 3.6331 3.66592 3.04769 2.96544 2.89372 2.83124 2.77673 2.72902 
2.6871 2.65009 2.61727 6.28319 6.28319 6.28319 6.28319 3.14159 3.14159 
3.14159 3.14159 3.14159 6.1053 5.8988 5.67687 5.45995 5.26596 5.10322 
4.97131 4.86569 4.78095 0.177881 0.384387 0.606312 0.823235 1.01722 1.17997 
1.31187 1.4175 1.50223 6.18928 6.10703 6.03531 5.97283 5.91832 5.87061 
5.82869 5.79168 5.75886 0.0939024 0.176153 0.247873 0.310351 0.364864 0.412573 
0.454497 0.491504 0.524326 3.31947 3.52598 3.7479 3.96483 4.15881 4.32156 
4.45346 4.55909 4.64383 2.96371 2.75721 2.53528 2.31836 2.12437 1.96162 
1.82972 1.72409 1.63936 3.2355 3.31775 3.38947 3.45194 3.50646 3.55417 
3.59609 3.6331 3.66592 3.04769 2.96544 2.89372 2.83124 2.77673 2.72902 
2.6871 2.65009 2.61727 4.71239 4.71239 4.71239 4.71239 4.71239 4.71239 
4.71239 4.71239 4.71239 4.60879 4.49914 4.3857 4.27128 4.15881 4.05096 
3.94976 3.85646 3.77161 4.81599 4.92564 5.03907 5.1535 5.26596 5.37381 
5.47502 5.56831 5.65317 4.60879 4.49914 4.3857 4.27128 4.15881 4.05096 
3.94976 3.85646 3.77161 4.81599 4.92564 5.03907 5.1535 5.26596 5.37381 
5.47502 5.56831 5.65317 1.5708 1.5708 1.5708 1.5708 1.5708 1.5708 
1.5708 1.5708 1.5708 1.6744 1.78405 1.89748 2.01191 2.12437 2.23222 
2.33343 2.42672 2.51157 1.4672 1.35755 1.24411 1.12969 1.01722 0.909371 
0.808166 0.714871 0.63002 1.6744 1.78405 1.89748 2.01191 2.12437 2.23222 
2.33343 2.42672 2.51157 1.4672 1.35755 1.24411 1.12969 1.01722 0.909371 
0.808166 0.714871 0.63002 3.60077 3.49669 3.38395 3.26458 3.14159 3.01861 
2.89924 2.78649 2.68241 5.82401 5.92808 6.04083 6.1602 6.28319 0.122983 
0.242354 0.355101 0.459179 6.05603 5.78856 5.97021 5.51259 5.60297 5.78856 
5.26596 5.26596 5.26596 5.26596 5.06749 5.0121 4.91556 4.71239 4.15881 
4.91556 4.83537 4.71239 4.50922 4.15881 3.63622 4.80045 4.71239 4.58941 
4.41268 4.15881 3.82181 3.45456 4.71239 4.62433 4.50922 4.35729 4.15881 
3.91219 3.63622 3.36875 6.01742 5.94343 5.82633 5.88092 5.76745 5.62798 
5.8278 5.71897 5.58911 5.43724 5.78235 5.67854 5.55757 5.41926 5.26596 
5.74316 5.64441 5.5315 5.40467 5.26596 5.11955 5.70914 5.61528 5.50962 
5.3926 5.26596 5.13292 4.99789 5.67937 5.59016 5.49102 5.38246 5.26596 
5.14407 5.02016 4.89798 5.56831 5.47502 5.47502 5.37381 5.37381 5.37381 
5.26596 5.26596 5.26596 5.26596 5.1535 5.1535 5.1535 5.1535 5.1535 
5.03907 5.03907 5.03907 5.03907 5.03907 5.03907 4.92564 4.92564 4.92564 
4.92564 4.92564 4.92564 4.92564 4.81599 4.81599 4.81599 4.81599 4.81599 
4.81599 4.81599 4.81599 4.60879 4.60879 4.49914 4.60879 4.49914 4.3857 
4.60879 4.49914 4.3857 4.27128 4.60879 4.49914 4.3857 4.27128 4.15881 
4.60879 4.49914 4.3857 4.27128 4.15881 4.05096 4.60879 4.49914 4.3857 
4.27128 4.15881 4.05096 3.94976 4.60879 4.49914 4.3857 4.27128 4.15881 
4.05096 3.94976 3.85646 4.5268 4.40462 4.42689 4.28071 4.29185 4.30523 
4.15881 4.15881 4.15881 4.15881 4.04232 4.03217 4.02011 4.00552 3.98753 
3.93376 3.91515 3.89328 3.86721 3.83566 3.7968 3.83461 3.8095 3.78037 
3.74624 3.70581 3.65733 3.59845 3.7454 3.71564 3.68161 3.64243 3.59698 
3.54386 3.48135 3.40735 3.56428 3.45246 3.52338 3.33203 3.40312 3.47739 
3.20576 3.27463 3.34802 3.42551 3.07742 3.14159 3.21128 3.28647 3.36688 
2.95116 3.00855 3.0719 3.14159 3.21784 3.3006 2.83072 2.88006 2.93517 
2.99672 3.06535 3.14159 3.22575 2.7189 2.7598 2.8058 2.85768 2.9163 
2.98259 3.05743 3.14159 3.56428 3.52338 3.45246 3.47739 3.40312 3.33203 
3.42551 3.34802 3.27463 3.20576 3.36688 3.28647 3.21128 3.14159 3.07742 
3.3006 3.21784 3.14159 3.0719 3.00855 2.95116 3.22575 3.14159 3.06535 
2.99672 2.93517 2.88006 2.83072 3.14159 3.05743 2.98259 2.9163 2.85768 
2.8058 2.7598 2.7189 4.5268 4.42689 4.40462 4.30523 4.29185 4.28071 
4.15881 4.15881 4.15881 4.15881 3.98753 4.00552 4.02011 4.03217 4.04232 
3.7968 3.83566 3.86721 3.89328 3.91515 3.93376 3.59845 3.65733 3.70581 
3.74624 3.78037 3.8095 3.83461 3.40735 3.48135 3.54386 3.59698 3.64243 
3.68161 3.71564 3.7454 4.71239 4.80045 4.62433 4.91556 4.71239 4.50922 
5.06749 4.83537 4.58941 4.35729 5.26596 5.0121 4.71239 4.41268 4.15881 
5.51259 5.26596 4.91556 4.50922 4.15881 3.91219 5.78856 5.60297 5.26596 
4.71239 4.15881 3.82181 3.63622 6.05603 5.97021 5.78856 5.26596 4.15881 
3.63622 3.45456 3.36875 0.227158 0.494626 0.312971 0.770593 0.680215 0.494626 
1.01722 1.01722 1.01722 1.01722 1.2157 1.27109 1.36763 1.5708 2.12437 
1.36763 1.44781 1.5708 1.77397 2.12437 2.64697 1.48273 1.5708 1.69378 
1.8705 2.12437 2.46138 2.82862 1.5708 1.65886 1.77397 1.9259 2.12437 
2.371 2.64697 2.91443 1.75639 1.87857 1.8563 2.00248 1.99133 1.97796 
2.12437 2.12437 2.12437 2.12437 2.24087 2.25101 2.26308 2.27767 2.29565 
2.34943 2.36803 2.38991 2.41597 2.44752 2.48639 2.44857 2.47368 2.50281 
2.53694 2.57738 2.62586 2.68474 2.53778 2.56754 2.60157 2.64076 2.68621 
2.73933 2.80184 2.87583 1.6744 1.6744 1.78405 1.6744 1.78405 1.89748 
1.6744 1.78405 1.89748 2.01191 1.6744 1.78405 1.89748 2.01191 2.12437 
1.6744 1.78405 1.89748 2.01191 2.12437 2.23222 1.6744 1.78405 1.89748 
2.01191 2.12437 2.23222 2.33343 1.6744 1.78405 1.89748 2.01191 2.12437 
2.23222 2.33343 2.42672 1.4672 1.35755 1.4672 1.24411 1.35755 1.4672 
1.12969 1.24411 1.35755 1.4672 1.01722 1.12969 1.24411 1.35755 1.4672 
0.909371 1.01722 1.12969 1.24411 1.35755 1.4672 0.808166 0.909371 1.01722 
1.12969 1.24411 1.35755 1.4672 0.714871 0.808166 0.909371 1.01722 1.12969 
1.24411 1.35755 1.4672 0.603812 0.57405 0.693022 0.540021 0.667908 0.792164 
0.500837 0.638778 0.773562 0.900726 0.455383 0.604649 0.751687 0.890581 1.01722 
0.402264 0.564217 0.725619 0.878514 1.01722 1.13912 0.339753 0.515737 0.694072 
0.863926 1.01722 1.15026 1.26302 0.265762 0.456853 0.655207 0.845941 1.01722 
1.16363 1.28529 1.38521 0.227158 0.312971 0.494626 0.494626 0.680215 0.770593 
1.01722 1.01722 1.01722 1.01722 2.12437 1.5708 1.36763 1.27109 1.2157 
2.64697 2.12437 1.77397 1.5708 1.44781 1.36763 2.82862 2.46138 2.12437 
1.8705 1.69378 1.5708 1.48273 2.91443 2.64697 2.371 2.12437 1.9259 
1.77397 1.65886 1.5708 1.75639 1.8563 1.87857 1.97796 1.99133 2.00248 
2.12437 2.12437 2.12437 2.12437 2.29565 2.27767 2.26308 2.25101 2.24087 
2.48639 2.44752 2.41597 2.38991 2.36803 2.34943 2.68474 2.62586 2.57738 
2.53694 2.50281 2.47368 2.44857 2.87583 2.80184 2.73933 2.68621 2.64076 
2.60157 2.56754 2.53778 5.86049 5.90139 5.97231 5.94739 6.02165 6.09275 
5.99927 6.07676 6.15015 6.21902 6.0579 6.13831 6.2135 0 0.0641696 
6.12418 6.20694 6.28319 0.069689 0.13304 0.190437 6.19903 0 0.0762451 
0.144876 0.206423 0.261531 0.310872 0 0.0841597 0.159004 0.225289 0.283913 
0.335793 0.381792 0.422692 5.86049 5.97231 5.90139 6.09275 6.02165 5.94739 
6.21902 6.15015 6.07676 5.99927 0.0641696 0 6.2135 6.13831 6.0579 
0.190437 0.13304 0.069689 6.28319 6.20694 6.12418 0.310872 0.261531 0.206423 
0.144876 0.0762451 6.28319 6.19903 0.422692 0.381792 0.335793 0.283913 0.225289 
0.159004 0.0841597 0 5.67937 5.70914 5.59016 5.74316 5.61528 5.49102 
5.78235 5.64441 5.50962 5.38246 5.8278 5.67854 5.5315 5.3926 5.26596 
5.88092 5.71897 5.55757 5.40467 5.26596 5.14407 5.94343 5.76745 5.58911 
5.41926 5.26596 5.13292 5.02016 6.01742 5.82633 5.62798 5.43724 5.26596 
5.11955 4.99789 4.89798 1.38521 1.28529 1.26302 1.16363 1.15026 1.13912 
1.01722 1.01722 1.01722 1.01722 0.845941 0.863926 0.878514 0.890581 0.900726 
0.655207 0.694072 0.725619 0.751687 0.773562 0.792164 0.456853 0.515737 0.564217 
0.604649 0.638778 0.667908 0.693022 0.265762 0.339753 0.402264 0.455383 0.500837 
0.540021 0.57405 0.603812 
