# vtk DataFile Version 4.0
vtk output
ASCII
DATASET POLYDATA
POINTS 2004 float
-105.814 -81.861 76.9713 -109.381 -94.9634 90.4843 -112.363 -83.5685 73.2174 
-115.128 -97.0827 87.2195 -111.344 -83.9942 86.7439 -116.036 -85.601 84.3412 
-105.656 -90.2941 79.4466 -109.703 -91.4639 78.4269 -114.615 -103.679 93.9989 
-111.333 -76.4048 72.6212 -112.607 -109.262 89.1433 -106.297 -84.0263 66.2946 
-105.77 -82.3591 78.2553 -105.821 -83.0613 79.6764 -105.981 -83.9629 81.1497 
-106.186 -85.0433 82.7063 -106.409 -86.3382 84.3484 -106.806 -87.7839 85.8104 
-107.477 -89.2689 86.9668 -108.23 -90.9244 88.102 -108.856 -92.8842 89.3515 
-106.182 -81.6255 77.9343 -106.537 -81.5141 79.0373 -106.97 -81.5965 80.2224 
-107.634 -81.8053 81.3038 -108.367 -81.9988 82.3071 -108.873 -82.1293 83.4675 
-109.364 -82.366 84.6431 -110.094 -82.8556 85.5099 -110.83 -83.4648 86.1333 
-105.4 -82.3759 76.7878 -105.058 -82.8831 76.5785 -104.818 -83.5224 76.407 
-104.603 -84.4271 76.401 -104.47 -85.4501 76.6194 -104.578 -86.4949 76.9921 
-104.838 -87.5926 77.4559 -105.085 -88.5921 78.029 -105.344 -89.438 78.716 
-106.147 -81.2747 76.3383 -106.459 -80.6576 75.7521 -106.753 -79.9815 75.1993 
-107.304 -79.3341 74.5365 -108.187 -78.8979 73.8135 -109.009 -78.5049 73.2937 
-109.569 -77.8256 72.9841 -110.063 -77.0567 72.7451 -110.643 -76.5842 72.6124 
-105.597 -81.7762 75.6376 -105.297 -81.6618 74.2411 -104.939 -81.5262 72.8698 
-104.723 -81.5986 71.6201 -104.827 -81.9601 70.4441 -105.08 -82.3045 69.2894 
-105.292 -82.523 68.2373 -105.537 -82.8723 67.3414 -105.878 -83.4311 66.6589 
-109.303 -93.8251 90.3734 -109.246 -92.6743 90.2633 -109.295 -91.5516 90.0665 
-109.472 -90.3411 89.7297 -109.702 -89.0181 89.3036 -109.97 -87.7874 88.8261 
-110.321 -86.7325 88.303 -110.709 -85.7422 87.7573 -111.054 -84.8057 87.2241 
-109.101 -94.7139 89.9292 -108.724 -94.2985 89.2663 -108.237 -93.7778 88.488 
-107.7 -93.2868 87.5503 -107.165 -92.8806 86.4258 -106.636 -92.4423 85.1425 
-106.176 -91.8973 83.7501 -105.896 -91.3147 82.2927 -105.766 -90.7661 80.8335 
-109.923 -96.3325 91.3099 -110.606 -97.6976 91.9709 -111.246 -99.1645 92.6968 
-111.696 -100.729 93.5038 -112.188 -102.073 94.0324 -112.855 -102.987 94.2905 
-113.468 -103.566 94.5071 -113.934 -103.881 94.5354 -114.318 -103.916 94.2976 
-109.782 -97.019 91.1391 -110.277 -99.1657 91.6162 -110.832 -101.22 91.8293 
-111.32 -103.245 91.876 -111.709 -105.374 91.7789 -112.054 -107.395 91.437 
-112.267 -108.872 90.8918 -112.328 -109.581 90.2359 -112.413 -109.626 89.5822 
-112.552 -84.3487 74.3395 -112.791 -85.1634 75.6726 -113.061 -86.0624 77.2005 
-113.369 -87.1412 78.8263 -113.679 -88.4227 80.4574 -113.862 -89.799 82.0328 
-113.956 -91.221 83.5164 -114.219 -92.8792 84.8989 -114.694 -94.904 86.1447 
-112.78 -83.4424 73.7486 -113.268 -83.4092 74.4877 -113.788 -83.3981 75.5184 
-114.294 -83.4528 76.7118 -114.712 -83.7121 78.0289 -115.113 -84.107 79.481 
-115.597 -84.4197 80.8703 -115.99 -84.6904 82.0966 -116.107 -85.0959 83.2555 
-112.093 -84.2684 73.3571 -111.789 -85.0009 73.5008 -111.455 -85.7603 73.7081 
-111.089 -86.5662 74.1012 -110.631 -87.3103 74.7692 -110.143 -87.9494 75.5969 
-109.847 -88.6897 76.3676 -109.784 -89.6351 77.0666 -109.775 -90.6156 77.7693 
-112.45 -82.6422 72.4803 -112.682 -81.7608 71.6916 -113.164 -81.0505 70.8197 
-113.76 -80.2824 69.9843 -114.088 -79.1843 69.5403 -113.926 -77.9849 69.6548 
-113.401 -77.0918 70.0981 -112.692 -76.581 70.7538 -111.943 -76.3645 71.652 
-112.07 -83.2671 72.1731 -111.874 -83.1168 70.8412 -111.732 -83.129 69.3599 
-111.358 -83.184 68.2263 -110.581 -83.1576 67.5192 -109.74 -83.1157 66.7777 
-109.035 -83.235 66.0755 -108.181 -83.5316 65.8256 -107.158 -83.8389 65.9671 
-115.034 -95.9767 87.1551 -114.927 -94.7715 86.9916 -115.112 -93.4716 86.5611 
-115.618 -92.0498 85.9631 -116.191 -90.7853 85.5092 -116.76 -89.7439 85.2393 
-117.212 -88.5686 84.9959 -117.177 -87.3221 84.7713 -116.643 -86.3488 84.575 
-114.819 -96.7094 86.6568 -114.341 -96.1842 86.0127 -113.867 -95.5307 85.2408 
-113.367 -94.8421 84.4179 -112.702 -94.1322 83.5677 -112.033 -93.4245 82.5322 
-111.481 -92.8229 81.3214 -110.91 -92.3336 80.1845 -110.28 -91.8852 79.2444 
-115.34 -98.7063 88.2394 -115.42 -100.344 89.4 -115.691 -101.597 90.4394 
-116.106 -102.387 91.0079 -116.053 -103.188 91.4304 -115.583 -104.198 92.2457 
-115.35 -104.905 93.1388 -115.286 -104.95 93.6329 -115.012 -104.48 93.8461 
-115.212 -99.0277 87.908 -115.047 -100.878 88.6303 -114.845 -102.86 89.2841 
-114.74 -105.377 89.7681 -114.622 -107.977 89.9851 -114.487 -109.524 89.7983 
-114.296 -109.803 89.2878 -113.837 -109.632 88.8626 -113.174 -109.513 88.8367 
-111.777 -83.765 86.9216 -112.357 -83.4712 87.1428 -113.161 -83.3329 87.1565 
-113.917 -83.4843 86.842 -114.406 -83.7274 86.4287 -114.832 -83.9715 86.064 
-115.259 -84.4168 85.6467 -115.517 -84.9928 85.1949 -115.714 -85.4032 84.777 
-111.591 -85.0199 87.7234 -111.928 -86.2655 88.8216 -112.39 -87.7869 89.8845 
-112.787 -89.6954 90.8169 -113.06 -91.8592 91.7925 -113.477 -93.9374 92.7936 
-113.986 -96.1276 93.4635 -114.249 -98.7808 93.754 -114.359 -101.49 93.9058 
-111.37 -82.9886 85.8257 -111.402 -81.9891 84.694 -111.407 -80.8651 83.469 
-111.346 -79.742 82.2944 -111.244 -78.9918 80.7708 -111.21 -78.5327 78.6735 
-111.263 -77.9557 76.7684 -111.305 -77.259 75.444 -111.307 -76.699 74.1451 
-116.272 -86.546 85.5336 -116.42 -87.5108 86.6109 -116.212 -88.6935 87.5473 
-115.715 -90.4192 88.7593 -115.467 -92.6623 90.4248 -115.51 -95.0065 91.949 
-115.322 -97.3404 92.8753 -114.913 -99.7378 93.3713 -114.667 -101.934 93.7017 
-115.654 -84.3894 83.3797 -115.428 -82.7994 82.2734 -115.202 -81.2173 81.0238 
-114.803 -80.0868 79.6732 -114.355 -79.0595 78.2793 -113.987 -77.7752 76.9753 
-113.515 -76.755 75.893 -112.834 -76.3906 74.8776 -112.069 -76.3833 73.7379 
-105.779 -90.6601 79.0675 -105.892 -91.1799 78.6972 -106.063 -91.7046 78.3707 
-106.434 -92.0034 78.1079 -107.035 -92.1203 77.8872 -107.723 -92.2153 77.7625 
-108.347 -92.1977 77.8417 -108.863 -91.9879 78.0681 -109.304 -91.7095 78.2829 
-106.082 -91.6111 81.0145 -106.616 -93.0328 82.5461 -107.371 -94.402 84.0721 
-108.285 -96.1582 85.6648 -109.1 -98.4631 87.1321 -109.862 -100.651 88.2259 
-110.773 -102.766 88.9501 -111.601 -105.299 89.3547 -112.144 -107.69 89.4016 
-105.265 -89.3909 77.5696 -104.795 -88.7074 75.6596 -104.386 -88.199 73.9035 
-104.054 -87.6949 72.2577 -103.86 -87.1754 70.7429 -104.126 -86.7565 69.5249 
-104.777 -86.3375 68.5045 -105.322 -85.6907 67.5623 -105.732 -84.8473 66.8203 
-109.941 -92.4675 79.5498 -110.255 -93.5511 80.8599 -110.639 -95.0008 82.4881 
-110.992 -96.8169 84.1771 -111.31 -98.6939 85.6522 -111.662 -100.816 87.078 
-112.015 -103.421 88.3547 -112.302 -105.954 89.0275 -112.495 -107.872 89.1423 
-109.257 -90.5321 77.1025 -108.854 -89.6687 75.3753 -108.523 -89.182 73.3987 
-108.294 -88.8746 71.5889 -108.082 -88.247 70.0313 -107.678 -87.4994 68.58 
-107.096 -86.9628 67.4478 -106.619 -86.2565 66.8092 -106.379 -85.1599 66.4737 
-114.882 -105.823 94.1627 -115.085 -108.296 94.0733 -115.01 -111.144 93.6217 
-114.814 -113.531 92.9047 -114.775 -114.666 91.8685 -114.719 -114.676 90.4733 
-114.32 -113.793 89.2768 -113.663 -112.289 88.8158 -113.05 -110.72 88.9183 
-110.917 -76.3815 71.1141 -110.556 -76.6119 69.9665 -110.189 -77.2611 69.0638 
-109.566 -78.1204 68.0059 -108.829 -78.8946 66.9937 -108.369 -79.8634 66.3749 
-108.027 -81.1152 65.9792 -107.464 -82.1757 65.7908 -106.803 -83.0302 65.9512 
-106.115 -82.2166 79.3803 -106.456 -82.1816 80.6147 -106.189 -83.049 80.8932 
-106.988 -82.3411 81.7587 -106.601 -83.1208 82.1329 -106.416 -84.1082 82.3951 
-107.835 -82.6647 82.6751 -107.28 -83.3996 83.1625 -106.946 -84.3682 83.5674 
-106.695 -85.3943 83.9378 -108.603 -82.986 83.6693 -108.163 -83.8424 84.064 
-107.708 -84.8001 84.52 -107.387 -85.851 84.9262 -107.072 -86.8408 85.38 
-109.091 -83.2594 84.8871 -108.838 -84.2661 85.1552 -108.498 -85.2802 85.5029 
-108.198 -86.3349 85.8078 -107.928 -87.3616 86.1674 -107.642 -88.3096 86.604 
-109.682 -83.6577 85.9329 -109.375 -84.677 86.2695 -109.106 -85.7271 86.6111 
-108.873 -86.7909 86.9032 -108.665 -87.8857 87.1804 -108.435 -88.9137 87.53 
-108.266 -89.8942 87.8498 -110.434 -84.2278 86.636 -110.041 -85.1861 87.1077 
-109.688 -86.209 87.5692 -109.41 -87.2714 88.0031 -109.184 -88.4481 88.3862 
-108.966 -89.6277 88.7458 -108.817 -90.7045 89.0261 -108.798 -91.7718 89.1951 
-106.566 -81.045 77.2894 -106.968 -80.4976 76.699 -107.029 -81.0045 78.3895 
-107.415 -79.8656 76.1507 -107.564 -80.4477 77.803 -107.587 -81.0909 79.6198 
-108.06 -79.2479 75.5247 -108.046 -79.7128 77.3121 -108.139 -80.375 79.1177 
-108.217 -81.1652 80.8546 -108.865 -78.8168 74.8763 -108.597 -79.0742 76.8014 
-108.539 -79.5592 78.7312 -108.651 -80.3201 80.5173 -108.749 -81.1999 82.0942 
-109.633 -78.3243 74.3768 -109.381 -78.6472 76.2095 -109.101 -79.0143 78.2844 
-109.123 -79.61 80.181 -109.223 -80.4177 81.8227 -109.26 -81.346 83.3216 
-110.267 -77.6285 74.0927 -110.247 -78.1597 75.6659 -109.96 -78.6475 77.673 
-109.842 -79.1793 79.7451 -109.954 -79.8796 81.4256 -109.995 -80.7914 82.8992 
-109.995 -81.7927 84.3205 -110.782 -77.0389 74.0405 -110.878 -77.6447 75.3995 
-110.752 -78.2763 77.0809 -110.607 -78.8269 79.2089 -110.68 -79.4281 81.0829 
-110.797 -80.3329 82.4642 -110.802 -81.4073 83.792 -110.791 -82.4328 85.0852 
-111.896 -76.7734 75.2862 -112.59 -76.9492 76.328 -111.77 -77.4888 76.5258 
-113.41 -77.4535 77.3963 -112.549 -77.7664 77.7319 -111.785 -78.2175 78.1034 
-114.134 -78.4075 78.7704 -113.583 -78.2163 79.262 -112.72 -78.424 79.7675 
-111.868 -78.676 80.3222 -114.671 -79.4837 80.2758 -114.379 -79.0311 80.9299 
-113.73 -78.8892 81.4853 -112.759 -78.9445 81.9708 -111.895 -79.2274 82.2573 
-115.086 -80.617 81.5777 -114.806 -80.15 82.2693 -114.33 -79.8937 82.8161 
-113.574 -79.7511 83.2259 -112.63 -79.8192 83.5327 -111.898 -80.2844 83.5595 
-115.326 -82.1788 82.7029 -115.071 -81.6111 83.2761 -114.627 -81.2735 83.7811 
-114.108 -81.0739 84.1464 -113.401 -80.897 84.5536 -112.558 -81.0396 84.8258 
[...]
POINT_DATA 2004
COLOR_SCALARS colors 3
0.0392157 0.835294 0.862745 0.862745 0.839216 0.0392157 0.0392157 0.835294 0.866667 
0.858824 0.839216 0.0392157 0.184314 0.996078 0.168627 
0.180392 0.996078 0.172549 0.168627 0.996078 0.184314 
0.164706 0.996078 0.188235 0.976471 0.341176 0.0980392 
0.0980392 0.34902 0.980392 0.980392 0.356863 0.0980392 
0.0980392 0.333333 0.976471 0.0196078 0.894118 0.768627 
0.0117647 0.937255 0.643137 0.0313725 0.972549 0.494118 
0.929412 0.960784 0.929412 0.196078 0.996078 0.196078 
0.929412 0.960784 0.929412 0.494118 0.972549 0.0313725 
0.643137 0.941176 0.0117647 0.768627 0.894118 0.0196078 
0.0313725 0.858824 0.831373 0.929412 0.960784 0.929412 
0.0117647 0.909804 0.729412 0.00784314 0.933333 0.654902 
0.00784314 0.956863 0.564706 0.0235294 0.972549 0.47451 
0.0470588 0.988235 0.384314 0.929412 0.960784 0.929412 
0.929412 0.960784 0.929412 0.0313725 0.858824 0.831373 
0.929412 0.960784 0.929412 0.0117647 0.905882 0.733333 
0.00784314 0.929412 0.662745 0.00784314 0.952941 0.576471 
0.0196078 0.972549 0.486275 0.0392157 0.984314 0.396078 
0.929412 0.960784 0.929412 0.929412 0.960784 0.929412 
0.929412 0.960784 0.929412 0.929412 0.960784 0.929412 
0.0980392 0.627451 0.988235 0.105882 0.537255 0.996078 
0.929412 0.960784 0.929412 0.929412 0.960784 0.929412 
0.929412 0.960784 0.929412 0.0941176 0.317647 0.968627 
0.0941176 0.32549 0.972549 0.929412 0.960784 0.929412 
0.929412 0.960784 0.929412 0.0980392 0.623529 0.992157 
0.105882 0.529412 0.996078 0.929412 0.960784 0.929412 
0.929412 0.960784 0.929412 0.929412 0.960784 0.929412 
0.0901961 0.301961 0.968627 0.0941176 0.309804 0.972549 
0.831373 0.858824 0.0313725 0.929412 0.960784 0.929412 
0.733333 0.905882 0.0117647 0.658824 0.929412 0.00784314 
0.576471 0.952941 0.00784314 0.482353 0.968627 0.0196078 
0.392157 0.984314 0.0392157 0.929412 0.960784 0.929412 
0.929412 0.960784 0.929412 0.831373 0.858824 0.0313725 
0.929412 0.960784 0.929412 0.72549 0.909804 0.0156863 
0.65098 0.933333 0.00784314 0.564706 0.956863 0.0117647 
0.470588 0.972549 0.0235294 0.380392 0.984314 0.0470588 
0.929412 0.960784 0.929412 0.929412 0.960784 0.929412 
0.929412 0.960784 0.929412 0.929412 0.960784 0.929412 
0.992157 0.623529 0.0980392 0.996078 0.529412 0.109804 
0.929412 0.960784 0.929412 0.929412 0.960784 0.929412 
0.929412 0.960784 0.929412 0.968627 0.305882 0.0941176 
0.972549 0.313725 0.0941176 0.929412 0.960784 0.929412 
0.929412 0.960784 0.929412 0.988235 0.627451 0.0980392 
0.996078 0.537255 0.109804 0.929412 0.960784 0.929412 
0.929412 0.960784 0.929412 0.929412 0.960784 0.929412 
0.968627 0.321569 0.0941176 0.972549 0.329412 0.0980392 
0.0196078 0.894118 0.772549 0.0117647 0.937255 0.647059 
0.0313725 0.972549 0.498039 0.929412 0.960784 0.929412 
0.192157 0.996078 0.2 0.929412 0.960784 0.929412 
0.490196 0.972549 0.0313725 0.639216 0.941176 0.0117647 
0.764706 0.894118 0.0196078 0.0313725 0.854902 0.835294 
0.929412 0.960784 0.929412 0.0156863 0.905882 0.733333 
0.00784314 0.933333 0.658824 0.00784314 0.956863 0.572549 
0.0196078 0.972549 0.478431 0.0470588 0.984314 0.388235 
0.929412 0.960784 0.929412 0.929412 0.960784 0.929412 
0.0313725 0.854902 0.835294 0.929412 0.960784 0.929412 
0.0117647 0.901961 0.737255 0.00784314 0.929412 0.666667 
0.00784314 0.952941 0.580392 0.0196078 0.968627 0.490196 
0.0392157 0.984314 0.4 0.929412 0.960784 0.929412 
0.929412 0.960784 0.929412 0.929412 0.960784 0.929412 
0.929412 0.960784 0.929412 0.0980392 0.623529 0.988235 
0.105882 0.533333 0.996078 0.929412 0.960784 0.929412 
0.929412 0.960784 0.929412 0.929412 0.960784 0.929412 
0.0941176 0.313725 0.968627 0.0941176 0.321569 0.972549 
0.929412 0.960784 0.929412 0.929412 0.960784 0.929412 
0.0980392 0.615686 0.992157 0.105882 0.52549 0.996078 
0.929412 0.960784 0.929412 0.929412 0.960784 0.929412 
0.929412 0.960784 0.929412 0.0901961 0.298039 0.968627 
0.0941176 0.305882 0.972549 0.827451 0.858824 0.0313725 
0.929412 0.960784 0.929412 0.729412 0.905882 0.0117647 
0.654902 0.929412 0.00784314 0.572549 0.952941 0.00784314 
0.478431 0.972549 0.0196078 0.388235 0.984314 0.0431373 
0.929412 0.960784 0.929412 0.929412 0.960784 0.929412 
0.827451 0.862745 0.0313725 0.929412 0.960784 0.929412 
0.721569 0.909804 0.0117647 0.647059 0.933333 0.00784314 
0.560784 0.956863 0.0117647 0.466667 0.972549 0.0235294 
0.376471 0.984314 0.0509804 0.929412 0.960784 0.929412 
0.929412 0.960784 0.929412 0.929412 0.960784 0.929412 
0.929412 0.960784 0.929412 0.992157 0.627451 0.0980392 
0.996078 0.537255 0.109804 0.929412 0.960784 0.929412 
0.929412 0.960784 0.929412 0.929412 0.960784 0.929412 
0.968627 0.309804 0.0941176 0.972549 0.313725 0.0941176 
0.929412 0.960784 0.929412 0.929412 0.960784 0.929412 
0.988235 0.635294 0.0980392 0.996078 0.545098 0.109804 
0.929412 0.960784 0.929412 0.929412 0.960784 0.929412 
0.929412 0.960784 0.929412 0.968627 0.32549 0.0941176 
0.972549 0.329412 0.0980392 0.184314 0.996078 0.168627 
0.188235 0.996078 0.168627 0.192157 0.996078 0.168627 
0.929412 0.960784 0.929412 0.929412 0.960784 0.929412 
0.929412 0.960784 0.929412 0.188235 0.996078 0.172549 
0.184314 0.996078 0.172549 0.180392 0.996078 0.172549 
0.282353 0.992157 0.0901961 0.929412 0.960784 0.929412 
0.929412 0.960784 0.929412 0.929412 0.960784 0.929412 
0.929412 0.960784 0.929412 0.913725 0.756863 0.0627451 
0.929412 0.960784 0.929412 0.929412 0.960784 0.929412 
0.929412 0.960784 0.929412 0.105882 0.996078 0.266667 
0.929412 0.960784 0.929412 0.929412 0.960784 0.929412 
0.929412 0.960784 0.929412 0.929412 0.960784 0.929412 
0.054902 0.760784 0.913725 0.929412 0.960784 0.929412 
0.929412 0.960784 0.929412 0.929412 0.960784 0.929412 
0.278431 0.992157 0.0941176 0.929412 0.960784 0.929412 
0.929412 0.960784 0.929412 0.929412 0.960784 0.929412 
0.929412 0.960784 0.929412 0.913725 0.756863 0.0627451 
0.929412 0.960784 0.929412 0.929412 0.960784 0.929412 
0.929412 0.960784 0.929412 0.101961 0.992157 0.270588 
0.929412 0.960784 0.929412 0.929412 0.960784 0.929412 
0.929412 0.960784 0.929412 0.929412 0.960784 0.929412 
0.0588235 0.760784 0.917647 0.929412 0.960784 0.929412 
0.929412 0.960784 0.929412 0.929412 0.960784 0.929412 
0.168627 0.996078 0.184314 0.168627 0.996078 0.188235 
0.168627 0.996078 0.192157 0.929412 0.960784 0.929412 
0.929412 0.960784 0.929412 0.929412 0.960784 0.929412 
0.164706 0.996078 0.196078 0.164706 0.996078 0.192157 
0.164706 0.996078 0.192157 0.266667 0.992157 0.105882 
0.929412 0.960784 0.929412 0.929412 0.960784 0.929412 
0.929412 0.960784 0.929412 0.929412 0.960784 0.929412 
0.913725 0.764706 0.0588235 0.929412 0.960784 0.929412 
0.929412 0.960784 0.929412 0.929412 0.960784 0.929412 
0.0901961 0.992157 0.282353 0.929412 0.960784 0.929412 
0.929412 0.960784 0.929412 0.929412 0.960784 0.929412 
0.929412 0.960784 0.929412 0.0627451 0.752941 0.917647 
0.929412 0.960784 0.929412 0.929412 0.960784 0.929412 
0.929412 0.960784 0.929412 0.262745 0.996078 0.109804 
0.929412 0.960784 0.929412 0.929412 0.960784 0.929412 
0.929412 0.960784 0.929412 0.929412 0.960784 0.929412 
0.913725 0.764706 0.054902 0.929412 0.960784 0.929412 
0.929412 0.960784 0.929412 0.929412 0.960784 0.929412 
0.0901961 0.992157 0.286275 0.929412 0.960784 0.929412 
0.929412 0.960784 0.929412 0.929412 0.960784 0.929412 
0.929412 0.960784 0.929412 0.0627451 0.752941 0.917647 
0.929412 0.960784 0.929412 0.929412 0.960784 0.929412 
0.929412 0.960784 0.929412 0.94902 0.227451 0.0745098 
0.905882 0.117647 0.0431373 0.866667 0.0196078 0.00784314 
0.929412 0.960784 0.929412 0.929412 0.960784 0.929412 
0.929412 0.960784 0.929412 0.862745 0.027451 0.0156863 
0.905882 0.129412 0.0509804 0.94902 0.243137 0.0823529 
0.0784314 0.239216 0.94902 0.0509804 0.12549 0.909804 
0.0156863 0.0235294 0.866667 0.929412 0.960784 0.929412 
0.929412 0.960784 0.929412 0.929412 0.960784 0.929412 
0.00784314 0.0117647 0.866667 0.0431373 0.109804 0.909804 
0.0745098 0.223529 0.94902 0.929412 0.960784 0.929412 
0.929412 0.960784 0.929412 0.929412 0.960784 0.929412 
0.0117647 0.952941 0.584314 0.027451 0.968627 0.505882 
0.929412 0.960784 0.929412 0.929412 0.960784 0.929412 
0.929412 0.960784 0.929412 0.929412 0.960784 0.929412 
0.137255 0.992157 0.262745 0.929412 0.960784 0.929412 
0.929412 0.960784 0.929412 0.929412 0.960784 0.929412 
0.196078 0.996078 0.192157 0.266667 0.992157 0.133333 
0.0784314 0.992157 0.313725 0.129412 0.996078 0.247059 
0.192157 0.996078 0.184314 0.929412 0.960784 0.929412 
0.929412 0.960784 0.929412 0.929412 0.960784 0.929412 
0.929412 0.960784 0.929412 0.929412 0.960784 0.929412 
0.254902 0.996078 0.121569 0.929412 0.960784 0.929412 
0.929412 0.960784 0.929412 0.509804 0.968627 0.0235294 
0.929412 0.960784 0.929412 0.929412 0.960784 0.929412 
0.929412 0.960784 0.929412 0.32549 0.992157 0.0745098 
0.929412 0.960784 0.929412 0.929412 0.960784 0.929412 
0.592157 0.94902 0.0117647 0.929412 0.960784 0.929412 
0.929412 0.960784 0.929412 0.0509804 0.807843 0.894118 
0.0705882 0.745098 0.941176 0.0392157 0.839216 0.85098 
0.0901961 0.670588 0.972549 0.0588235 0.788235 0.905882 
0.929412 0.960784 0.929412 0.101961 0.596078 0.988235 
0.0745098 0.72549 0.945098 0.929412 0.960784 0.929412 
0.929412 0.960784 0.929412 0.929412 0.960784 0.929412 
0.0901961 0.662745 0.968627 0.929412 0.960784 0.929412 
0.929412 0.960784 0.929412 0.00392157 0.937255 0.631373 
0.929412 0.960784 0.929412 0.0980392 0.611765 0.984314 
0.0705882 0.737255 0.933333 0.929412 0.960784 0.929412 
0.00784314 0.913725 0.690196 0.0117647 0.960784 0.533333 
0.929412 0.960784 0.929412 0.101961 0.572549 0.992157 
0.0784314 0.698039 0.952941 0.0431373 0.807843 0.870588 
0.929412 0.960784 0.929412 0.00392157 0.945098 0.588235 
0.027451 0.976471 0.435294 0.929412 0.960784 0.929412 
0.101961 0.552941 0.996078 0.0823529 0.67451 0.968627 
0.0509804 0.780392 0.898039 0.929412 0.960784 0.929412 
0.929412 0.960784 0.929412 0.929412 0.960784 0.929412 
0.929412 0.960784 0.929412 0.929412 0.960784 0.929412 
0.929412 0.960784 0.929412 0.929412 0.960784 0.929412 
0.929412 0.960784 0.929412 0.929412 0.960784 0.929412 
0.929412 0.960784 0.929412 0.0313725 0.831373 0.839216 
0.0313725 0.823529 0.85098 0.0313725 0.823529 0.85098 
0.0313725 0.831373 0.835294 0.929412 0.960784 0.929412 
0.00784314 0.894118 0.72549 0.0117647 0.890196 0.729412 
0.0117647 0.894118 0.72549 0.929412 0.960784 0.929412 
0.929412 0.960784 0.929412 0.00784314 0.945098 0.576471 
0.00784314 0.941176 0.584314 0.00784314 0.941176 0.584314 
0.00784314 0.945098 0.572549 0.929412 0.960784 0.929412 
0.929412 0.960784 0.929412 0.929412 0.960784 0.929412 
0.0392157 0.972549 0.427451 0.0392157 0.972549 0.431373 
0.0392157 0.972549 0.427451 0.929412 0.960784 0.929412 
0.929412 0.960784 0.929412 0.101961 0.992157 0.27451 
0.101961 0.992157 0.282353 0.929412 0.960784 0.929412 
0.929412 0.960784 0.929412 0.929412 0.960784 0.929412 
0.929412 0.960784 0.929412 0.101961 0.992157 0.278431 
0.101961 0.992157 0.270588 0.290196 0.992157 0.0862745 
0.298039 0.992157 0.0823529 0.929412 0.960784 0.929412 
0.929412 0.960784 0.929412 0.929412 0.960784 0.929412 
0.929412 0.960784 0.929412 0.929412 0.960784 0.929412 
0.447059 0.972549 0.0235294 0.588235 0.945098 0 
0.929412 0.960784 0.929412 0.929412 0.960784 0.929412 
0.447059 0.972549 0.0235294 0.596078 0.941176 0 
0.733333 0.894118 0.00784314 0.839216 0.831373 0.0313725 
0.929412 0.960784 0.929412 0.443137 0.972549 0.0235294 
0.596078 0.941176 0 0.737255 0.890196 0.00784314 
0.85098 0.823529 0.0352941 0.929412 0.960784 0.929412 
0.294118 0.992157 0.0862745 0.929412 0.960784 0.929412 
0.584314 0.945098 0 0.729412 0.894118 0.00784314 
0.85098 0.823529 0.0352941 0.929412 0.960784 0.929412 
0.929412 0.960784 0.929412 0.286275 0.992157 0.0901961 
0.929412 0.960784 0.929412 0.929412 0.960784 0.929412 
0.929412 0.960784 0.929412 0.839216 0.831373 0.0313725 
0.929412 0.960784 0.929412 0.929412 0.960784 0.929412 
0.929412 0.960784 0.929412 0.929412 0.960784 0.929412 
0.929412 0.960784 0.929412 0.447059 0.976471 0.0235294 
0.929412 0.960784 0.929412 0.6 0.941176 0.00392157 
0.541176 0.956863 0.00784314 0.929412 0.960784 0.929412 
0.929412 0.960784 0.929412 0.698039 0.909804 0.00784314 
0.639216 0.933333 0.00392157 0.898039 0.772549 0.0588235 
0.87451 0.8 0.0509804 0.929412 0.960784 0.929412 
0.929412 0.960784 0.929412 0.929412 0.960784 0.929412 
0.968627 0.662745 0.0901961 0.952941 0.690196 0.0862745 
0.933333 0.729412 0.0745098 0.929412 0.960784 0.929412 
0.929412 0.960784 0.929412 0.929412 0.960784 0.929412 
0.992157 0.541176 0.105882 0.992157 0.560784 0.105882 
0.984314 0.6 0.101961 0.972549 0.654902 0.0941176 
0.94902 0.717647 0.0784314 0.909804 0.780392 0.0588235 
0.854902 0.835294 0.0392157 0.929412 0.960784 0.929412 
0.929412 0.960784 0.929412 0.929412 0.960784 0.929412 
0.929412 0.960784 0.929412 0.992157 0.584314 0.105882 
0.976471 0.662745 0.0941176 0.945098 0.741176 0.0745098 
0.894118 0.803922 0.0509804 0.937255 0.2 0.0666667 
0.894118 0.0862745 0.0352941 0.929412 0.960784 0.929412 
0.929412 0.960784 0.929412 0.929412 0.960784 0.929412 
0.929412 0.960784 0.929412 0.929412 0.960784 0.929412 
0.866667 0.027451 0.0117647 0.929412 0.960784 0.929412 
0.929412 0.960784 0.929412 0.929412 0.960784 0.929412 
0.854902 0.00392157 0.00392157 0.898039 0.101961 0.0392157 
0.945098 0.239216 0.0784314 0.929412 0.960784 0.929412 
0.929412 0.960784 0.929412 0.866667 0.0313725 0.0156863 
0.898039 0.105882 0.0392157 0.941176 0.223529 0.0745098 
0.980392 0.360784 0.101961 0.929412 0.960784 0.929412 
0.894118 0.101961 0.0392157 0.929412 0.960784 0.929412 
0.929412 0.960784 0.929412 0.945098 0.247059 0.0784314 
0.980392 0.364706 0.101961 0.929412 0.960784 0.929412 
0.929412 0.960784 0.929412 0.937255 0.211765 0.0745098 
0.929412 0.960784 0.929412 0.929412 0.960784 0.929412 
0.929412 0.960784 0.929412 0.929412 0.960784 0.929412 
0.929412 0.960784 0.929412 0.929412 0.960784 0.929412 
0.929412 0.960784 0.929412 0.937255 0.2 0.0666667 
0.929412 0.960784 0.929412 0.894118 0.0901961 0.0352941 
0.929412 0.960784 0.929412 0.929412 0.960784 0.929412 
0.929412 0.960784 0.929412 0.929412 0.960784 0.929412 
0.929412 0.960784 0.929412 0.866667 0.0313725 0.0117647 
0.929412 0.960784 0.929412 0.929412 0.960784 0.929412 
0.94902 0.247059 0.0784314 0.898039 0.109804 0.0392157 
0.854902 0.00784314 0.00392157 0.929412 0.960784 0.929412 
0.929412 0.960784 0.929412 0.980392 0.368627 0.101961 
0.941176 0.231373 0.0745098 0.898039 0.113725 0.0431373 
0.866667 0.0392157 0.0156863 0.929412 0.960784 0.929412 
0.929412 0.960784 0.929412 0.929412 0.960784 0.929412 
0.980392 0.372549 0.101961 0.94902 0.254902 0.0823529 
0.929412 0.960784 0.929412 0.929412 0.960784 0.929412 
0.894118 0.101961 0.0392157 0.929412 0.960784 0.929412 
0.929412 0.960784 0.929412 0.929412 0.960784 0.929412 
0.929412 0.960784 0.929412 0.929412 0.960784 0.929412 
0.929412 0.960784 0.929412 0.929412 0.960784 0.929412 
0.937255 0.215686 0.0745098 0.929412 0.960784 0.929412 
0.443137 0.976471 0.0235294 0.929412 0.960784 0.929412 
0.537255 0.956863 0.00784314 0.592157 0.945098 0.00392157 
0.929412 0.960784 0.929412 0.635294 0.933333 0.00392157 
0.694118 0.913725 0.00784314 0.929412 0.960784 0.929412 
0.929412 0.960784 0.929412 0.929412 0.960784 0.929412 
0.929412 0.960784 0.929412 0.929412 0.960784 0.929412 
0.870588 0.803922 0.0470588 0.898039 0.776471 0.0588235 
0.929412 0.960784 0.929412 0.929412 0.960784 0.929412 
0.929412 0.960784 0.929412 0.933333 0.733333 0.0745098 
0.952941 0.694118 0.0862745 0.964706 0.666667 0.0901961 
0.854902 0.839216 0.0392157 0.909804 0.784314 0.0588235 
0.94902 0.721569 0.0784314 0.972549 0.658824 0.0941176 
0.984314 0.603922 0.101961 0.988235 0.564706 0.105882 
0.992157 0.545098 0.105882 0.894118 0.807843 0.0509804 
0.945098 0.745098 0.0745098 0.976471 0.670588 0.0941176 
0.992157 0.592157 0.105882 0.929412 0.960784 0.929412 
0.929412 0.960784 0.929412 0.929412 0.960784 0.929412 
0.929412 0.960784 0.929412 0.929412 0.960784 0.929412 
0.929412 0.960784 0.929412 0.929412 0.960784 0.929412 
0.0784314 0.992157 0.317647 0.929412 0.960784 0.929412 
0.321569 0.992157 0.0745098 0.929412 0.960784 0.929412 
0.12549 0.996078 0.25098 0.25098 0.996078 0.121569 
0.929412 0.960784 0.929412 0.929412 0.960784 0.929412 
0.929412 0.960784 0.929412 0.188235 0.996078 0.184314 
0.929412 0.960784 0.929412 0.929412 0.960784 0.929412 
0.0117647 0.952941 0.588235 0.929412 0.960784 0.929412 
0.929412 0.960784 0.929412 0.929412 0.960784 0.929412 
0.929412 0.960784 0.929412 0.588235 0.94902 0.0117647 
0.929412 0.960784 0.929412 0.027451 0.968627 0.509804 
0.929412 0.960784 0.929412 0.192157 0.996078 0.196078 
0.929412 0.960784 0.929412 0.505882 0.968627 0.0235294 
0.929412 0.960784 0.929412 0.929412 0.960784 0.929412 
0.929412 0.960784 0.929412 0.929412 0.960784 0.929412 
0.133333 0.996078 0.270588 0.262745 0.992157 0.137255 
0.929412 0.960784 0.929412 0.929412 0.960784 0.929412 
0.929412 0.960784 0.929412 0.929412 0.960784 0.929412 
0.929412 0.960784 0.929412 0.929412 0.960784 0.929412 
0.0117647 0.94902 0.596078 0.0235294 0.968627 0.517647 
0.929412 0.960784 0.929412 0.929412 0.960784 0.929412 
0.929412 0.960784 0.929412 0.929412 0.960784 0.929412 
0.133333 0.996078 0.270588 0.929412 0.960784 0.929412 
0.929412 0.960784 0.929412 0.929412 0.960784 0.929412 
0.188235 0.996078 0.2 0.258824 0.992157 0.141176 
0.0705882 0.992157 0.329412 0.117647 0.996078 0.262745 
0.180392 0.996078 0.196078 0.929412 0.960784 0.929412 
0.929412 0.960784 0.929412 0.929412 0.960784 0.929412 
0.929412 0.960784 0.929412 0.929412 0.960784 0.929412 
0.243137 0.996078 0.129412 0.929412 0.960784 0.929412 
0.929412 0.960784 0.929412 0.501961 0.968627 0.027451 
0.929412 0.960784 0.929412 0.929412 0.960784 0.929412 
0.929412 0.960784 0.929412 0.309804 0.992157 0.0823529 
0.929412 0.960784 0.929412 0.929412 0.960784 0.929412 
0.580392 0.952941 0.0117647 0.929412 0.960784 0.929412 
0.929412 0.960784 0.929412 0.929412 0.960784 0.929412 
0.929412 0.960784 0.929412 0.427451 0.976471 0.0313725 
0.929412 0.960784 0.929412 0.584314 0.945098 0.00392157 
0.52549 0.960784 0.0117647 0.929412 0.960784 0.929412 
0.929412 0.960784 0.929412 0.686275 0.917647 0.00784314 
0.623529 0.937255 0.00392157 0.894118 0.784314 0.0509804 
0.866667 0.811765 0.0431373 0.929412 0.960784 0.929412 
0.929412 0.960784 0.929412 0.929412 0.960784 0.929412 
0.964706 0.678431 0.0823529 0.952941 0.705882 0.0784314 
0.929412 0.741176 0.0705882 0.929412 0.960784 0.929412 
0.929412 0.960784 0.929412 0.929412 0.960784 0.929412 
0.996078 0.556863 0.101961 0.992157 0.576471 0.101961 
0.984314 0.615686 0.0980392 0.968627 0.670588 0.0901961 
0.945098 0.729412 0.0745098 0.901961 0.792157 0.0588235 
0.847059 0.843137 0.0392157 0.929412 0.960784 0.929412 
0.929412 0.960784 0.929412 0.929412 0.960784 0.929412 
0.929412 0.960784 0.929412 0.988235 0.6 0.101961 
0.972549 0.678431 0.0901961 0.941176 0.74902 0.0705882 
0.890196 0.811765 0.0509804 0.266667 0.992157 0.105882 
0.27451 0.992157 0.105882 0.929412 0.960784 0.929412 
0.929412 0.960784 0.929412 0.929412 0.960784 0.929412 
0.929412 0.960784 0.929412 0.929412 0.960784 0.929412 
0.419608 0.972549 0.0431373 0.568627 0.945098 0.0117647 
0.929412 0.960784 0.929412 0.929412 0.960784 0.929412 
0.423529 0.972549 0.0392157 0.576471 0.941176 0.00784314 
0.717647 0.894118 0.0117647 0.835294 0.835294 0.0313725 
0.929412 0.960784 0.929412 0.423529 0.972549 0.0392157 
0.580392 0.941176 0.00784314 0.72549 0.894118 0.0117647 
0.847059 0.827451 0.0313725 0.929412 0.960784 0.929412 
0.278431 0.992157 0.101961 0.929412 0.960784 0.929412 
0.568627 0.945098 0.00784314 0.721569 0.894118 0.00784314 
0.847059 0.827451 0.0313725 0.929412 0.960784 0.929412 
0.929412 0.960784 0.929412 0.270588 0.992157 0.101961 
0.929412 0.960784 0.929412 0.929412 0.960784 0.929412 
0.929412 0.960784 0.929412 0.835294 0.835294 0.0313725 
0.929412 0.960784 0.929412 0.929412 0.960784 0.929412 
0.929412 0.960784 0.929412 0.0862745 0.992157 0.298039 
0.929412 0.960784 0.929412 0.0823529 0.992157 0.305882 