# vtk DataFile Version 4.0
vtk output
ASCII
DATASET POLYDATA
POINTS 1002 float
-79.1519 -111.742 73.6628 -78.8732 -112.948 73.2361 -79.224 -112.554 72.3294 
-79.734 -111.465 72.8622 -79.7136 -112.225 71.537 -79.764 -110.762 74.15 
-80.4098 -111.221 72.1514 -80.3387 -111.924 70.9713 -80.5506 -110.598 73.4565 
-80.6798 -109.868 74.6845 -81.1571 -110.833 71.5503 -81.2688 -111.59 70.5547 
-81.3154 -110.239 72.7772 -81.5192 -109.54 74.0715 -81.5279 -108.591 75.2032 
-82.2011 -110.34 71.0883 -82.436 -111.151 70.2637 -82.1115 -109.593 72.1641 
-82.3167 -108.923 73.4898 -82.3289 -108.015 74.6638 -82.2071 -107.061 75.7561 
-83.4158 -109.791 70.831 -83.5479 -110.529 70.0847 -83.1735 -108.951 71.7558 
-83.1637 -108.194 73.007 -83.2053 -107.408 74.2395 -83.0536 -106.512 75.3107 
-83.0305 -105.761 76.472 -84.4605 -109.01 70.5803 -84.5627 -109.703 69.8547 
-84.2852 -108.287 71.4796 -84.1309 -107.527 72.6141 -84.0948 -106.788 73.8237 
-83.9744 -105.988 74.9244 -83.867 -105.207 76.016 -83.8849 -104.548 77.1577 
-85.3939 -108.042 70.2326 -85.5999 -108.813 69.6319 -85.2315 -107.415 71.1246 
-85.0688 -106.755 72.2057 -84.9654 -106.036 73.3207 -84.8422 -105.263 74.4219 
-84.6467 -104.458 75.4841 -84.5045 -103.752 76.5157 -84.3993 -103.162 77.5257 
-86.4387 -107.234 70.0579 -86.6802 -108.048 69.6 -86.233 -106.619 70.8671 
-86.0471 -106.003 71.8918 -85.8818 -105.269 72.8825 -85.7263 -104.474 73.8805 
-85.4813 -103.637 74.9224 -85.1479 -102.853 75.8639 -84.8694 -102.25 76.7547 
-84.7225 -101.824 77.7088 -87.5649 -106.686 70.122 -87.7334 -107.431 69.6805 
-87.3978 -106.127 70.8857 -87.2153 -105.543 71.8452 -86.9708 -104.769 72.7058 
-86.6965 -103.916 73.501 -86.4205 -103.077 74.4376 -86.0486 -102.252 75.3697 
-85.5987 -101.545 76.1661 -85.2788 -101.059 77.0112 -85.1927 -100.789 77.9897 
-78.808 -113.936 72.1842 -79.0735 -113.511 71.1269 -78.5982 -114.814 70.9778 
-78.7389 -114.322 69.7812 -78.285 -115.496 69.7783 -79.4627 -113.101 70.3053 
-78.4039 -114.922 68.4959 -78.1392 -116.262 68.8411 -79.1128 -113.849 68.8748 
-80.1822 -112.755 69.7928 -78.4785 -115.75 67.65 -78.4459 -117.401 68.3516 
-78.9761 -114.486 67.5592 -80.0181 -113.449 68.3551 -81.2933 -112.357 69.4688 
-79.1778 -117.031 67.4849 -79.2907 -118.593 68.321 -79.4581 -115.468 67.0189 
-80.2312 -114.096 67.2838 -81.3421 -112.917 68.2339 -82.5179 -111.786 69.3215 
-80.3372 -118.141 67.8465 -80.4974 -119.332 68.6323 -80.5109 -116.732 67.3028 
-81.1082 -115.076 67.2048 -81.9379 -113.5 67.5538 -82.8333 -112.289 68.3495 
-83.7465 -111.115 69.253 -81.6319 -118.614 68.4108 -81.7744 -119.672 69.084 
-81.7683 -117.59 67.7618 -82.2973 -116.213 67.4755 -83.0181 -114.408 67.4565 
-83.6942 -112.872 67.7152 -84.3396 -111.734 68.4196 -84.9944 -110.386 69.1701 
-82.8503 -118.783 68.9456 -82.9526 -119.939 69.4849 -83.0033 -117.902 68.1101 
-83.4734 -117.042 67.4354 -84.0683 -115.519 67.1742 -84.6047 -113.647 67.2015 
-85.1127 -112.284 67.6804 -85.6446 -111.12 68.5302 -86.1729 -109.603 69.2042 
-83.9484 -119.024 69.3458 -84.0045 -120.211 69.7745 -84.1389 -118.077 68.4691 
-84.5935 -117.483 67.4465 -85.062 -116.482 66.8259 -85.3862 -114.62 66.6983 
-85.7353 -112.806 67.0308 -86.2264 -111.605 67.8667 -86.7616 -110.376 68.7797 
-87.2625 -108.836 69.3348 -84.9933 -119.724 69.7954 -85.1434 -118.586 69.1135 
-86.1645 -119.241 69.6732 -86.4982 -118.22 68.8486 -87.4329 -118.719 69.5745 
-85.5705 -117.815 68.0336 -87.7181 -117.643 68.9005 -88.6121 -117.984 69.6975 
-86.9232 -117.398 67.9687 -86.0537 -117.144 67.0851 -88.7067 -116.679 69.2529 
-89.6735 -116.966 70.0101 -87.9079 -116.405 68.4408 -87.237 -116.201 67.4304 
-86.315 -115.603 66.6783 -89.7654 -115.532 69.6865 -90.7613 -115.756 70.3701 
-88.7786 -115.125 68.9942 -88.2133 -114.761 68.1379 -87.5308 -114.225 67.2037 
-86.5314 -113.442 66.7681 -91.1383 -114.367 70.1039 -92.008 -114.52 70.6343 
-89.9825 -114.009 69.5215 -89.2391 -113.574 68.7508 -88.8519 -113.054 67.8791 
-88.0128 -112.371 67.3392 -86.9687 -111.853 67.414 -92.7274 -113.233 70.302 
-93.3441 -113.43 70.7593 -91.6506 -112.934 69.9601 -90.5223 -112.577 69.4576 
-89.9751 -112.204 68.672 -89.495 -111.655 68.0457 -88.5229 -111.056 68.014 
-87.5158 -110.671 68.3945 -94.1538 -112.196 70.3114 -94.4872 -112.485 70.9238 
-93.464 -111.819 69.977 -92.2764 -111.37 69.8682 -91.1528 -110.99 69.5674 
-90.4962 -110.617 68.9819 -89.83 -110.102 68.6245 -88.9099 -109.585 68.7768 
-88.0207 -109.188 69.1152 -95.1175 -111.21 70.4933 -95.2784 -111.557 71.2704 
-94.8506 -110.76 69.8689 -94.1111 -110.145 69.6982 -92.8569 -109.51 69.8427 
-91.6435 -109.035 69.7631 -90.796 -108.639 69.3461 -90.0551 -108.221 69.0849 
-89.2605 -107.867 69.2188 -88.4772 -107.62 69.4882 -88.6885 -106.366 70.0076 
-89.4551 -106.31 69.6601 -89.6402 -105.26 70.4626 -90.237 -106.353 69.3901 
-90.4012 -104.928 69.9769 -90.4681 -103.907 70.9215 -91.0647 -106.571 69.4902 
-91.3142 -104.804 69.733 -91.3495 -103.448 70.3844 -91.2684 -102.396 71.1956 
-92.0718 -106.907 69.8263 -92.4485 -104.925 69.8059 -92.5576 -103.256 70.0357 
-92.4014 -101.977 70.6053 -92.2065 -101.137 71.3536 -93.4151 -107.418 69.841 
-93.7983 -105.255 69.8183 -93.902 -103.258 69.8279 -93.7305 -101.673 70.0521 
-93.4499 -100.75 70.6811 -93.1568 -100.181 71.6843 -94.7508 -108.225 69.5716 
-95.1045 -105.982 69.6626 -95.1219 -103.63 69.7928 -94.9296 -101.61 69.825 
-94.6458 -100.425 70.1416 -94.3044 -99.8263 71.0563 -93.9189 -99.1847 72.243 
-95.4891 -109.11 69.6821 -95.8832 -107.038 69.8205 -95.9873 -104.622 70.1298 
-95.9174 -102.265 70.2042 -95.7429 -100.642 70.2458 -95.4257 -99.7896 70.839 
-94.9993 -99.024 71.8663 -94.5424 -98.1392 72.8335 -95.6795 -109.784 70.3768 
-96.1118 -107.994 70.4944 -96.4073 -105.861 70.7878 -96.6021 -103.575 70.9288 
-96.6753 -101.634 70.9229 -96.5074 -100.356 71.2794 -96.1124 -99.3617 72.0648 
-95.632 -98.2939 72.8243 -95.1328 -97.3844 73.4344 -95.7667 -110.264 71.2631 
-96.2094 -108.69 71.3416 -96.6115 -106.883 71.4926 -96.9404 -104.908 71.6092 
-97.1735 -102.956 71.6966 -97.2219 -101.326 72.0371 -97.0078 -100.038 72.7091 
-96.6247 -98.8611 73.3426 -96.1788 -97.8016 73.7591 -95.6729 -97.0733 74.2131 
-88.6069 -105.805 70.7647 -89.6048 -104.719 71.4476 -88.5066 -105.281 71.7547 
-90.3823 -103.163 71.8058 -89.4862 -103.995 72.3596 -88.2686 -104.497 72.6199 
-91.0968 -101.56 71.915 -90.1294 -102.206 72.4584 -89.0556 -102.956 72.9523 
-87.8254 -103.51 73.2622 -91.9678 -100.408 72.265 -90.7166 -100.595 72.6347 
-89.5042 -101.087 73.0236 -88.3846 -101.905 73.5496 -87.3738 -102.595 74.0443 
-92.8567 -99.4118 72.8994 -91.5434 -99.5164 73.3183 -90.0769 -99.5838 73.4928 
-88.8118 -100.158 73.8563 -87.8915 -101.104 74.488 -87.0076 -101.779 75.0268 
-93.5803 -98.2596 73.4144 -92.4311 -98.5812 74.0331 -90.9695 -98.689 74.3235 
-89.4742 -98.8399 74.4887 -88.4021 -99.5722 74.9604 -87.564 -100.468 75.5599 
-86.5647 -101.026 75.9234 -94.1813 -97.2877 73.7942 -93.1389 -97.6527 74.4597 
-91.8472 -98.0163 75.0202 -90.2945 -98.0628 75.2786 -88.961 -98.3486 75.5893 
-88.0663 -99.1596 76.1354 -87.165 -99.922 76.5771 -86.1184 -100.443 76.7854 
-94.7357 -96.8104 74.4099 -93.6863 -96.9934 74.9724 -92.4947 -97.3651 75.6324 
-91.0196 -97.4415 76.0517 -89.5056 -97.4358 76.3254 -88.4364 -97.97 76.772 
-87.6812 -98.8486 77.2995 -86.8134 -99.5414 77.6213 -85.8965 -100.107 77.7829 
-95.584 -96.8169 75.4013 -94.4876 -96.6593 75.8205 -95.3246 -96.723 77.1397 
-94.0469 -96.5566 77.6557 -94.8344 -96.6643 78.8809 -93.2417 -96.8041 76.4414 
-93.4293 -96.4631 79.1908 -94.1547 -96.7717 80.1214 -92.6043 -96.4596 78.0612 
-91.795 -96.8367 76.9354 -92.7571 -96.6091 80.3399 -93.5329 -97.0096 81.374 
-91.8986 -96.2253 79.3498 -90.9806 -96.1455 78.2732 -90.1411 -96.6405 77.2039 
-92.2113 -96.7917 81.8738 -93.1499 -97.1215 83.0273 -91.2617 -96.3741 80.7268 
-90.321 -95.9235 79.6326 -89.396 -96.0659 78.5186 -88.7629 -96.909 77.5436 
-91.7638 -96.8661 83.6127 -92.7497 -97.3533 84.414 -90.7173 -96.5617 82.552 
-89.8219 -96.2076 81.3792 -88.9512 -96.1642 80.0999 -88.2673 -96.8208 78.9549 
-87.9299 -97.8489 78.08 -91.2195 -97.2918 84.7944 -92.1067 -98.022 85.2678 
-90.1913 -96.8568 84.0784 -89.3112 -96.5749 83.1516 -88.4931 -96.5183 81.8851 
-87.8151 -97.0176 80.5056 -87.4858 -97.916 79.4422 -87.23 -98.7888 78.5505 
-90.628 -98.1264 85.6137 -91.4382 -98.8517 86.0581 -89.6706 -97.5962 84.9942 
-88.7979 -97.2026 84.3075 -87.9235 -96.9314 83.3678 -87.1297 -97.1364 82.0385 
-86.826 -97.9124 80.7774 -86.7632 -98.7907 79.7955 -86.4198 -99.4852 78.7991 
-90.1697 -98.9394 86.4757 -90.9623 -99.5333 86.901 -89.23 -98.4915 85.8027 
-88.3641 -98.1249 85.0783 -87.4879 -97.691 84.3526 -86.5353 -97.4609 83.334 
-86.0303 -97.8945 82.0725 -86.1037 -98.7834 80.9622 -86.0686 -99.5802 79.9757 
-85.647 -100.184 78.9418 -96.4617 -97.4122 74.9308 -96.3922 -97.206 76.3124 
-97.0254 -98.0013 75.8273 -96.9037 -97.8717 77.269 -97.3317 -98.918 76.6235 
-96.1192 -97.1155 78.1019 -97.0794 -98.8479 78.0502 -97.6199 -100.217 77.2611 
-96.6041 -97.8438 78.923 -95.5521 -97.1384 79.6601 -97.1776 -100.054 78.76 
-97.9149 -101.56 77.9592 -96.8057 -98.8366 79.635 -96.05 -97.9818 80.3565 
-94.7922 -97.3518 80.9235 -97.2917 -101.251 79.5717 -97.9233 -102.599 78.859 
-96.9728 -99.9111 80.4334 -96.4449 -98.9485 81.1889 -95.3403 -98.1776 81.8615 
-94.2142 -97.5385 82.4937 -97.3117 -102.42 80.4437 -97.6822 -103.576 79.8451 
-97.1074 -101.093 81.2653 -96.7978 -99.93 82.1223 -95.8747 -99.0535 82.8668 
-94.7697 -98.3223 83.5062 -93.8501 -97.7395 84.0337 -97.2788 -103.735 81.2829 
-97.4842 -104.833 80.72 -97.1047 -102.516 82.023 -96.8946 -101.227 82.8932 
-96.2583 -100.127 83.6926 -95.2195 -99.3463 84.2486 -94.2329 -98.7902 84.6237 
-93.2746 -98.3418 84.9698 -97.2213 -105.172 82.0035 -97.336 -106.246 81.3642 
-97.0254 -104.052 82.7158 -96.7174 -102.829 83.4611 -96.2506 -101.619 84.2042 
-95.5096 -100.678 84.7937 -94.5189 -100.075 85.1127 -93.4884 -99.623 85.3629 
-92.4842 -99.1893 85.7227 -97.0522 -106.546 82.5136 -97.1047 -107.53 81.7818 
-96.8897 -105.502 83.2634 -96.4771 -104.38 83.8849 -95.9454 -103.233 84.4582 
[...]
CELL_DATA 2000
SCALARS Distance double
LOOKUP_TABLE default
154.664 154.276 154.395 154.344 154.053 154.131 154.185 154.279 154.351 
153.964 153.971 154.018 154.153 154.249 154.353 154.329 154.033 153.928 
153.848 153.93 153.985 154.168 154.124 154.181 153.996 154.16 154.027 
153.865 153.791 153.755 153.867 153.879 153.952 153.816 153.803 153.703 
154.103 154.064 153.882 153.816 153.69 153.704 153.692 153.754 153.697 
153.685 153.588 153.618 153.625 153.895 153.876 153.656 153.701 153.537 
153.593 153.485 153.569 153.466 153.531 153.368 153.436 153.287 153.444 
153.331 153.839 153.694 153.489 153.47 153.374 153.397 153.298 153.329 
153.195 153.246 153.054 153.111 152.859 152.966 152.722 152.93 152.74 
154.017 153.786 153.672 153.52 153.551 153.425 153.425 153.276 153.177 
153.063 152.918 152.857 152.66 152.605 152.366 152.375 152.193 152.35 
152.295 154.905 154.986 154.749 154.389 154.854 154.704 154.33 154.252 
154.061 154.717 154.478 154.078 154.081 153.946 154.005 153.989 155.1 
154.499 154.013 153.83 153.722 153.835 153.936 154.033 154.111 156.211 
155.269 154.766 154.112 153.948 153.741 153.864 153.946 154.123 154.193 
154.247 157.6 156.64 156.237 155.305 155.11 154.409 154.431 154.093 
154.265 154.213 154.356 154.321 154.272 158.815 158.014 157.673 156.856 
156.662 155.848 155.735 155.019 155.012 154.595 154.723 154.536 154.592 
154.363 154.213 159.833 159.125 158.758 158.108 157.899 157.27 157.08 
156.358 156.102 155.471 155.366 155.034 155.086 154.831 154.776 154.387 
154.214 160.753 160.083 159.684 159.067 158.838 158.321 158.153 157.541 
157.186 156.468 156.092 155.62 155.521 155.319 155.328 155.041 154.921 
154.483 154.34 161.097 161.289 160.802 160.059 161.556 161.052 160.365 
159.86 159.257 161.778 161.335 160.695 160.23 159.64 159.172 158.586 
161.82 161.47 160.783 160.452 159.808 159.462 158.736 158.328 157.54 
161.76 161.442 160.693 160.384 159.676 159.431 158.663 158.314 157.427 
157.061 156.331 161.744 161.429 160.749 160.331 159.635 159.289 158.651 
158.27 157.55 157.056 156.416 156.057 155.72 161.805 161.512 160.976 
160.529 159.9 159.424 158.876 158.449 157.944 157.425 156.911 156.396 
156.054 155.736 155.547 161.883 161.628 161.165 160.806 160.225 159.766 
159.163 158.748 158.217 157.839 157.314 156.904 156.415 156.08 155.709 
155.493 155.155 161.887 161.676 161.199 160.943 160.376 160.017 159.35 
158.955 158.28 157.957 157.314 157.048 156.425 156.202 155.663 155.506 
155.074 154.939 154.562 154.362 154.764 154.429 154.258 155.263 154.796 
154.459 154.257 154.101 155.977 155.354 154.917 154.489 154.201 154.015 
153.804 156.89 156.176 155.724 155.088 154.719 154.259 153.978 153.709 
153.517 157.94 157.193 156.768 156.012 155.559 154.901 154.474 154.009 
153.736 153.512 153.437 159.069 158.334 157.954 157.135 156.624 155.804 
155.229 154.558 154.138 153.78 153.648 153.53 153.528 160.11 159.472 
159.138 158.356 157.881 156.969 156.395 155.476 155.02 154.352 154.214 
153.867 153.902 153.681 153.645 160.956 160.434 160.149 159.49 159.109 
158.281 157.826 156.852 156.46 155.547 155.418 154.753 154.831 154.327 
154.358 153.897 153.823 161.679 161.225 160.993 160.438 160.137 159.466 
159.114 158.301 157.957 157.089 156.898 156.139 156.138 155.496 155.52 
154.886 154.836 154.233 154.205 154.069 154.148 154.026 153.86 154.123 
154.169 154.154 153.967 153.81 153.769 154.002 154.053 154.159 154.035 
153.873 153.615 153.369 153.525 153.456 153.751 153.628 153.806 153.521 
153.493 153.205 153.311 153.237 153.024 153.086 152.844 153.091 152.86 
153.112 152.885 153.005 152.831 153.432 153.308 153.098 152.887 152.529 
152.424 152.151 152.34 152.268 152.56 152.508 152.659 152.548 153.437 
153.377 153.231 153.077 152.773 152.436 152.071 151.891 151.801 151.988 
152.093 152.322 152.288 152.364 152.235 153.467 153.332 153.204 153.162 
153.021 152.787 152.454 152.076 151.816 151.72 151.788 151.973 152.08 
152.166 152.091 152.084 152.032 153.805 153.478 153.347 153.208 153.181 
153.035 152.827 152.48 152.11 151.824 151.69 151.749 151.895 152.04 
152.133 152.097 152.101 152.042 152.149 154.094 154.569 154.024 153.605 
155.15 154.572 154.053 153.631 153.346 155.538 155.057 154.43 154.003 
153.491 153.256 152.883 155.865 155.359 154.667 154.218 153.511 153.21 
152.616 152.524 152.098 156.435 155.786 155.096 154.482 153.74 153.216 
152.549 152.25 151.853 151.793 151.671 157.116 156.449 155.776 155.071 
154.399 153.681 153.079 152.471 152.143 151.825 151.844 151.75 151.915 
157.686 157.088 156.432 155.787 155.172 154.489 153.934 153.242 152.873 
152.382 152.357 152.137 152.288 152.16 152.234 158.24 157.65 157.048 
156.427 155.859 155.25 154.706 154.074 153.579 153.069 152.851 152.63 
152.684 152.562 152.587 152.387 152.29 158.862 158.276 157.737 157.098 
156.573 155.955 155.448 154.809 154.262 153.664 153.281 152.977 152.944 
152.873 152.948 152.784 152.729 152.436 152.353 154.656 155.779 155.169 
155.151 156.94 156.343 156.344 155.764 155.759 158.119 157.487 157.492 
156.948 156.918 156.31 156.183 159.392 158.671 158.608 158.061 158.057 
157.459 157.329 156.661 156.523 160.617 159.917 159.789 159.2 159.228 
158.632 158.578 157.874 157.782 157.099 157.09 161.694 161.082 160.999 
160.406 160.459 159.87 159.885 159.19 159.125 158.421 158.414 157.765 
157.777 162.792 162.202 162.224 161.633 161.711 161.13 161.173 160.518 
160.45 159.753 159.681 159.046 159.014 158.393 158.33 163.952 163.394 
163.468 162.888 162.952 162.366 162.38 161.769 161.709 161.046 160.941 
160.273 160.187 159.564 159.501 158.888 158.834 164.973 164.528 164.597 
164.096 164.098 163.534 163.446 162.879 162.79 162.232 162.169 161.541 
161.454 160.769 160.684 160.04 159.999 159.405 159.398 162.025 162.372 
161.921 161.344 162.764 162.258 161.628 161.165 160.514 163.192 162.643 
161.951 161.442 160.735 160.271 159.542 163.535 163.011 162.254 161.743 
160.98 160.481 159.721 159.247 158.475 163.759 163.249 162.491 162.019 
161.315 160.785 160.052 159.486 158.763 158.225 157.516 164.087 163.488 
162.773 162.286 161.767 161.268 160.717 160.03 159.345 158.643 157.979 
157.389 156.77 164.537 163.919 163.211 162.666 162.215 161.805 161.433 
160.845 160.201 159.389 158.61 157.903 157.233 156.691 156.083 164.859 
164.365 163.659 163.124 162.56 162.197 161.775 161.421 160.794 160.162 
159.272 158.533 157.714 157.122 156.464 155.968 155.354 165.039 164.647 
164.005 163.511 162.856 162.439 161.867 161.565 160.927 160.509 159.674 
159.068 158.234 157.62 156.959 156.394 155.813 155.268 154.722 162.468 
163.261 162.883 162.891 164.077 163.726 163.812 163.355 163.342 164.862 
164.547 164.702 164.319 164.402 163.881 163.852 165.57 165.268 165.43 
165.18 165.379 164.984 165.048 164.436 164.3 166.326 165.921 165.98 
165.792 166.031 165.868 166.046 165.62 165.554 164.846 164.59 167.36 
166.753 166.651 166.284 166.411 166.347 166.601 166.462 166.534 166.052 
165.9 165.147 164.916 168.579 167.9 167.683 167.041 166.959 166.696 
166.929 166.898 167.14 166.915 166.919 166.387 166.224 165.505 165.296 
169.535 169.039 168.789 168.111 167.86 167.349 167.435 167.278 167.586 
167.479 167.608 167.275 167.141 166.623 166.37 165.762 165.497 169.966 
169.733 169.505 169.057 168.771 168.252 168.163 167.857 168.035 167.921 
168.064 167.858 167.732 167.349 167.056 166.595 166.297 165.806 165.56 
169.957 169.75 169.796 169.576 169.606 169.626 169.488 169.394 169.037 
169.426 169.507 169.414 169.375 169.143 168.9 168.544 168.984 169.22 
169.151 169.264 169.09 169.008 168.749 168.529 168.326 168.422 168.692 
168.681 168.905 168.792 168.865 168.649 168.614 168.422 168.353 168.204 
168.02 168.197 168.202 168.417 168.369 168.521 168.385 168.44 168.266 
168.282 168.083 168.075 167.808 167.78 167.884 167.835 167.977 167.897 
168.074 167.993 168.152 168.06 168.118 167.934 167.883 167.574 167.507 
167.139 167.578 167.662 167.593 167.661 167.539 167.632 167.529 167.714 
167.677 167.865 167.767 167.778 167.496 167.343 166.955 166.818 166.437 
167.362 167.45 167.402 167.461 167.378 167.388 167.285 167.334 167.266 
167.425 167.349 167.503 167.293 167.275 166.912 166.745 166.341 166.171 
165.785 167.197 166.877 167.125 167.242 166.413 166.75 166.94 167.184 
167.262 165.857 166.227 166.47 166.846 167.027 167.199 167.214 165.186 
165.601 165.793 166.292 166.541 166.9 166.96 167.101 167.104 164.23 
164.784 164.909 165.503 165.698 166.237 166.272 166.636 166.576 166.903 
166.989 163.024 163.684 163.852 164.522 164.69 165.272 165.237 165.699 
165.573 166.086 166.139 166.714 166.865 161.854 162.48 162.694 163.406 
163.635 164.249 164.241 164.648 164.497 164.96 165.022 165.688 165.91 
166.511 166.577 160.843 161.39 161.547 162.225 162.451 163.15 163.243 
163.72 163.626 163.997 164.034 164.596 164.85 165.499 165.657 166.134 
166.066 159.908 160.414 160.498 161.083 161.228 161.918 162.059 162.684 
162.707 163.172 163.191 163.683 163.849 164.455 164.615 165.169 165.153 
165.573 165.462 167.139 166.945 166.955 166.766 166.6 166.663 166.393 
166.486 166.26 165.927 166.122 165.787 165.995 165.781 165.952 165.736 
164.998 165.275 164.89 165.208 165.02 165.385 165.266 165.445 165.152 
164.023 164.316 163.927 164.225 163.986 164.463 164.401 164.839 164.588 
164.722 164.201 163.017 163.354 162.99 163.27 162.937 163.354 163.194 
163.763 163.54 163.926 163.393 163.534 162.903 161.964 162.328 161.964 
162.289 161.888 162.255 161.942 162.463 162.181 162.689 162.228 162.546 
161.958 162.174 161.67 160.964 161.284 160.91 161.226 160.794 161.131 
160.727 161.171 160.817 161.306 160.882 161.296 160.808 161.151 160.715 
161.017 160.655 160.092 160.337 159.96 160.214 159.78 160.044 159.616 
159.963 159.596 160.006 159.618 160.006 159.577 159.965 159.588 159.994 
159.673 160.032 159.714 167.29 167.551 167.348 167.187 167.839 167.66 
167.519 167.249 166.945 167.907 167.869 167.706 167.536 167.199 166.878 
166.338 167.667 167.745 167.537 167.535 167.146 166.98 166.399 166.077 
165.389 167.349 167.395 167.131 167.195 166.812 166.765 166.2 165.999 
165.314 165.025 164.341 166.981 167.034 166.696 166.748 166.373 166.373 
165.891 165.765 165.15 164.9 164.219 163.949 163.294 166.388 166.554 
166.204 166.293 165.875 165.904 165.423 165.41 164.866 164.732 164.083 
163.82 163.128 162.872 162.231 165.702 165.901 165.639 165.775 165.385 
165.396 164.859 164.858 164.299 164.321 163.728 163.625 162.943 162.709 
162.034 161.812 161.225 165.199 165.305 165.104 165.239 164.936 164.946 
164.436 164.338 163.738 163.7 163.133 163.14 162.549 162.456 161.825 
161.637 161.054 160.864 160.358 164.933 164.315 164.675 164.739 163.312 
163.859 163.919 164.439 164.502 162.115 162.705 162.764 163.432 163.516 
164.065 163.99 160.961 161.516 161.534 162.192 162.294 162.95 162.912 
163.402 163.248 159.76 160.373 160.353 160.959 160.967 161.644 161.609 
162.221 162.085 162.621 162.544 158.534 159.176 159.212 159.776 159.683 
160.269 160.144 160.808 160.702 161.367 161.311 161.952 161.95 157.438 
158.032 158.138 158.677 158.607 159.05 158.872 159.381 159.309 159.966 
160.028 160.708 160.769 161.371 161.339 156.398 156.957 157.018 157.606 
157.595 158.058 157.933 158.304 158.253 158.749 158.901 159.522 159.695 
160.263 160.287 160.761 160.664 155.409 155.877 155.847 156.429 156.448 
157.026 157.026 157.47 157.468 157.881 158.005 158.53 158.717 159.263 
159.319 159.777 159.691 160.105 159.989 154.939 154.518 154.844 155.284 
154.447 154.548 154.868 155.278 155.86 154.412 154.532 154.783 155.017 
155.522 155.955 156.542 154.104 154.372 154.676 154.967 155.435 155.756 
156.295 156.649 157.13 153.831 154.039 154.391 154.76 155.259 155.643 
156.125 156.457 156.909 157.228 157.691 153.764 153.886 154.129 154.427 
154.838 155.301 155.735 156.175 156.554 156.957 157.391 157.806 158.308 
153.496 153.748 153.821 154.081 154.225 154.686 154.992 155.579 155.933 
156.469 156.847 157.368 157.825 158.351 158.817 152.955 153.31 153.37 
153.629 153.613 153.95 154.103 154.685 155.065 155.727 156.153 156.738 
157.168 157.734 158.187 158.743 159.16 152.55 152.82 153.021 153.216 
153.298 153.436 153.565 153.897 154.287 154.873 155.411 156.029 156.522 
157.077 157.54 158.084 158.543 159.063 159.478 159.532 158.576 159.15 
159.334 157.555 158.132 158.281 158.908 159.101 156.516 157.085 157.204 
157.823 158.013 158.664 158.916 155.398 156.009 156.136 156.76 156.978 
157.612 157.893 158.547 158.88 154.313 154.886 155.073 155.71 155.98 
156.622 156.931 157.567 157.876 158.535 158.863 153.621 153.978 154.194 
154.715 154.978 155.606 155.899 156.581 156.864 157.522 157.79 158.472 
158.798 153.328 153.521 153.669 153.985 154.102 154.575 154.727 155.424 
155.686 156.444 156.722 157.41 157.728 158.434 158.835 153.025 153.251 
153.322 153.547 153.514 153.753 153.704 154.205 154.405 155.188 155.554 
156.329 156.691 157.401 157.807 158.536 158.967 152.571 152.846 152.921 
153.172 153.145 153.261 153.136 153.34 153.451 154.015 154.442 155.198 
155.657 156.375 156.784 157.506 157.935 158.668 159.056 161.285 160.362 
161.144 161.749 159.326 160.164 160.775 161.577 162.199 158.166 159.09 
159.735 160.581 161.238 162.054 162.725 156.92 157.916 158.68 159.576 
160.297 161.114 161.823 162.619 163.284 155.878 156.757 157.641 158.569 
159.399 160.232 160.99 161.766 162.502 163.225 163.889 155.393 155.953 
156.805 157.614 158.521 159.377 160.22 161.001 161.799 162.524 163.294 
163.936 164.587 155.4 155.7 156.39 156.935 157.775 158.55 159.46 
160.273 161.114 161.859 162.634 163.345 164.025 164.626 165.087 155.481 
155.744 156.315 156.662 157.351 157.92 158.775 159.54 160.386 161.146 
161.843 162.586 163.194 163.923 164.376 164.94 165.153 155.377 155.716 
156.269 156.606 157.216 157.616 158.34 158.932 159.71 160.399 161.037 
161.721 162.244 162.975 163.453 164.126 164.442 164.904 165.036 161.946 
162.437 162.493 163.038 162.939 163.005 163.613 163.59 164.109 163.502 
163.571 164.264 164.24 164.843 164.735 165.305 164.021 164.133 164.864 
164.926 165.587 165.528 166.129 166.014 166.587 164.533 164.607 165.318 
165.463 166.172 166.233 166.85 166.804 167.354 167.252 167.696 165.144 
165.137 165.802 165.909 166.674 166.791 167.499 167.496 168.084 167.987 
168.468 168.278 168.609 165.563 165.658 166.231 166.382 167.106 167.291 
168.031 168.123 168.752 168.716 169.228 169.076 169.456 169.18 169.443 
165.547 165.81 166.276 166.602 167.204 167.557 168.167 168.457 168.971 
169.175 169.605 169.694 170.011 169.926 170.109 169.903 170.023 165.36 
165.622 166.042 166.432 166.984 167.43 167.937 168.321 168.677 169.037 
169.341 169.706 169.957 170.174 170.264 170.284 170.26 170.205 170.163 
161.832 162.924 162.265 162.018 163.962 163.328 163.113 162.461 162.236 
165.116 164.398 164.172 163.52 163.305 162.674 162.436 166.398 165.636 
165.352 164.605 164.335 163.687 163.43 162.81 162.502 167.484 166.851 
166.535 165.798 165.422 164.707 164.355 163.726 163.377 162.773 162.409 
168.312 167.77 167.431 166.829 166.424 165.754 165.323 164.64 164.206 
163.573 163.163 162.604 162.271 169.129 168.569 168.21 167.614 167.213 
166.624 166.211 165.58 165.126 164.435 163.978 163.339 162.981 162.472 
162.239 169.817 169.382 169.044 168.432 167.977 167.355 166.896 166.342 
165.902 165.317 164.87 164.221 163.84 163.239 162.986 162.495 162.316 
170.07 169.905 169.603 169.177 168.648 168.061 167.451 166.909 166.391 
165.938 165.522 165.039 164.682 164.132 163.843 163.299 163.069 162.576 
162.355 167.408 167.618 167.535 167.62 167.806 167.728 167.791 167.766 
167.876 168.015 167.904 167.932 167.896 167.956 167.96 167.961 168.431 
168.2 168.222 168.064 168.083 168.009 167.988 167.935 167.802 169.057 
168.773 168.841 168.521 168.52 168.239 168.208 168.03 167.966 167.792 
167.611 169.521 169.387 169.483 169.221 169.17 168.79 168.659 168.359 
168.29 168.075 167.935 167.645 167.331 169.698 169.695 169.793 169.716 
169.636 169.353 169.076 168.763 168.551 168.378 168.195 167.966 167.571 
167.225 166.708 169.865 169.832 169.96 169.924 169.92 169.71 169.443 
169.092 168.778 168.55 168.324 168.141 167.751 167.409 166.82 166.465 
165.945 170.088 170.041 170.171 170.122 170.19 170.024 169.88 169.51 
169.222 168.841 168.6 168.311 168.003 167.626 167.115 166.65 166.129 
165.779 165.43 
POINT_DATA 1002
SCALARS Distance double
LOOKUP_TABLE default
154.491 155.019 154.488 154.212 154.133 154.335 154.054 153.978 154.294 
154.429 153.887 154.032 154.117 154.342 154.224 153.873 154.201 153.792 
154.052 153.984 153.787 154.014 154.27 153.716 153.765 153.826 153.643 
153.685 153.914 154.13 153.724 153.638 153.679 153.593 153.534 153.662 
153.589 153.972 153.471 153.425 153.398 153.328 153.189 153.143 153.194 
153.528 154.023 153.357 153.303 153.173 153.02 152.822 152.572 152.457 
152.573 153.812 154.222 153.681 153.621 153.359 153.004 152.735 152.429 
152.101 152.023 152.293 155.214 154.552 155.198 154.367 155.003 154.077 
154.068 155.083 153.804 153.964 154.35 155.872 153.624 153.745 154.108 
155.588 157.174 154.364 153.862 153.993 154.277 157.16 158.469 155.965 
155.005 154.434 154.377 154.422 158.415 159.565 157.446 156.58 155.626 
154.982 154.817 154.543 159.397 160.539 158.466 157.79 156.875 155.811 
155.31 155.138 154.653 160.317 161.407 159.342 158.71 157.963 156.725 
155.745 155.514 155.337 154.78 161.571 160.52 161.78 160.858 162.032 
159.721 161.116 162.188 160.114 159.089 161.108 162.168 160.128 159.187 
157.935 161.055 162.062 159.922 158.983 157.825 156.527 161.175 162.002 
160.022 158.967 158.008 156.823 155.906 161.365 162.053 160.395 159.288 
158.377 157.45 156.466 155.796 161.47 162.129 160.666 159.623 158.585 
157.695 156.801 155.984 155.354 161.433 162.103 160.698 159.769 158.665 
157.6 156.655 155.826 155.186 154.688 154.179 154.424 154.178 154.784 
154.175 153.955 155.458 154.515 153.92 153.544 156.423 155.298 154.351 
153.669 153.344 157.565 156.326 155.063 154.017 153.529 153.445 158.783 
157.524 156.03 154.601 153.8 153.621 153.523 159.869 158.768 157.359 
155.802 154.66 154.185 153.905 153.513 160.741 159.841 158.724 157.4 
156.18 155.416 154.897 154.276 153.683 161.505 160.739 159.838 158.784 
157.692 156.824 156.178 155.49 154.744 154.191 154.092 154.242 154.133 
153.815 154.109 153.87 153.223 153.336 153.444 153.257 153.15 152.703 
152.499 152.643 152.761 153.335 152.816 152.075 151.885 152.282 152.487 
153.279 153.087 152.424 151.72 151.803 152.201 152.18 153.21 153.127 
152.854 152.089 151.644 151.922 152.122 151.975 153.545 153.291 153.128 
152.504 151.744 151.687 152.083 152.2 152.134 154.548 153.983 155.182 
154.558 155.716 153.623 154.902 156.001 153.834 153.022 155.179 156.42 
153.923 152.78 152.054 155.764 157.124 154.35 152.95 151.924 151.589 
156.464 157.764 155.105 153.747 152.545 151.969 151.979 157.041 158.257 
155.796 154.62 153.441 152.64 152.468 152.423 157.657 158.808 156.448 
155.337 154.166 153.134 152.788 152.801 152.542 158.367 159.415 157.192 
156.083 154.927 153.698 153.014 153.035 153.013 152.636 155.233 155.729 
156.379 156.923 157.523 156.386 158.019 158.82 157.539 156.835 159.18 
160.181 158.63 158.007 157.151 160.398 161.279 159.797 159.263 158.468 
157.731 161.575 162.233 161.03 160.555 159.843 159.069 158.445 162.802 
163.344 162.3 161.809 161.159 160.352 159.626 158.973 164.039 164.477 
163.568 162.994 162.344 161.629 160.843 160.096 159.438 165.072 165.374 
164.684 164.045 163.305 162.728 162.152 161.369 160.589 159.972 162.47 
161.79 162.859 162.128 163.308 160.97 162.498 163.775 161.233 160.008 
162.767 164.067 161.505 160.207 158.954 162.919 164.296 161.794 160.653 
159.305 158.036 163.257 164.716 162.153 161.363 160.141 158.596 157.313 
163.789 165.111 162.594 161.905 161.033 159.433 157.806 156.586 164.199 
165.27 162.995 162.095 161.327 160.023 158.363 156.977 155.83 162.836 
163.347 163.605 164.228 164.403 163.864 165.013 165.176 164.87 164.477 
165.621 165.92 165.662 165.61 165.062 166.229 166.834 166.099 166.339 
166.193 165.412 167.2 168.05 166.531 166.61 166.86 166.555 165.74 
168.455 169.235 167.399 166.953 167.23 167.336 166.874 166.065 169.432 
169.942 168.486 167.702 167.657 167.876 167.62 166.934 166.114 169.829 
170.131 169.257 168.575 168.218 168.236 168.085 167.497 166.742 166.039 