# vtk DataFile Version 4.0
vtk output
ASCII
DATASET POLYDATA
POINTS 1002 float
-78.4183 -110.259 71.5156 -78.066 -111.48 71.0277 -78.148 -111.012 70.1785 
-78.857 -109.895 70.7204 -78.5575 -110.631 69.4462 -79.1185 -109.08 72.0884 
-79.5586 -109.581 70.0179 -79.3511 -110.376 68.891 -79.8161 -108.812 71.3641 
-80.1574 -108.147 72.7217 -80.4642 -109.269 69.4768 -80.3628 -110.098 68.5122 
-80.5876 -108.447 70.7087 -80.8707 -107.791 72.0752 -81.162 -107.11 73.3512 
-81.4909 -108.82 69.0496 -81.4675 -109.566 68.1757 -81.4751 -107.937 70.1618 
-81.577 -107.168 71.4626 -81.786 -106.437 72.6968 -81.845 -105.541 73.8591 
-82.551 -108.121 68.6484 -82.5902 -108.81 67.7846 -82.5028 -107.3 69.6754 
-82.4357 -106.418 70.8905 -82.4946 -105.594 72.0701 -82.4943 -104.673 73.1561 
-82.3667 -103.742 74.2452 -83.5453 -107.312 68.2993 -83.6274 -108.083 67.4168 
-83.5316 -106.575 69.2716 -83.417 -105.695 70.3442 -83.3258 -104.803 71.4756 
-83.2826 -103.925 72.5346 -83.152 -103.018 73.5871 -83.0328 -102.267 74.6288 
-84.5061 -106.578 68.0022 -84.605 -107.453 67.1649 -84.5024 -105.846 68.9523 
-84.4201 -105.021 69.8854 -84.2495 -104.084 70.8937 -84.1325 -103.25 71.9477 
-84.0169 -102.46 72.9935 -83.9084 -101.727 74.0568 -83.8491 -101.138 75.0423 
-85.5278 -105.897 67.7441 -85.6149 -106.817 67.0532 -85.4982 -105.145 68.6157 
-85.426 -104.378 69.4806 -85.2625 -103.435 70.3823 -85.1124 -102.568 71.3919 
-84.9608 -101.857 72.411 -84.7854 -101.175 73.4438 -84.6764 -100.584 74.4812 
-84.5806 -100.094 75.3981 -86.5938 -105.257 67.6065 -86.6568 -106.192 67.0751 
-86.5424 -104.491 68.3187 -86.433 -103.778 69.0986 -86.2574 -102.889 69.9407 
-86.1305 -101.992 70.9178 -86.0174 -101.284 71.9208 -85.7754 -100.608 72.8626 
-85.4969 -99.9546 73.8244 -85.2969 -99.4496 74.7826 -85.1024 -99.0392 75.6252 
-77.6651 -112.162 70.0232 -77.6083 -111.636 69.0846 -77.0166 -112.568 68.9721 
-77.0015 -112.158 67.7601 -76.4904 -113.123 67.7878 -78.0433 -111.321 68.3042 
-76.6893 -112.973 66.1251 -76.4734 -114.155 66.6259 -77.5693 -112.047 66.7583 
-78.9663 -111.151 67.7915 -76.8627 -114.084 64.9474 -76.9008 -115.251 66.1578 
-77.4119 -112.976 65.1174 -78.6708 -111.921 66.3904 -80.1719 -110.821 67.5589 
-77.5152 -115.046 65.1942 -77.6353 -116.062 66.6087 -77.7962 -113.935 64.6743 
-78.7845 -112.74 65.403 -80.2167 -111.521 66.5715 -81.5594 -110.215 67.338 
-78.6588 -115.811 66.2879 -78.7012 -116.823 67.2616 -78.8512 -114.729 65.6501 
-79.5188 -113.545 65.5914 -80.6708 -112.304 66.0229 -81.9287 -110.985 66.5613 
-82.9052 -109.546 66.9687 -80.0342 -116.486 67.0574 -79.9293 -117.522 67.6598 
-80.3186 -115.421 66.607 -80.7667 -114.308 66.1355 -81.4607 -113.122 65.7422 
-82.4199 -111.824 65.8242 -83.3448 -110.429 66.2304 -84.0229 -108.941 66.6594 
-81.2742 -116.935 67.4101 -81.0823 -117.915 67.9854 -81.6578 -115.975 66.9188 
-82.0793 -115.008 66.2106 -82.4795 -113.93 65.2575 -83.0389 -112.627 64.8779 
-83.7774 -111.206 65.3891 -84.4633 -109.789 66.0741 -85.0373 -108.306 66.5689 
-82.3413 -117.193 67.6852 -82.1193 -118.071 68.3478 -82.7225 -116.383 67.0338 
-83.1461 -115.583 66.1922 -83.5201 -114.656 64.9971 -83.9309 -113.439 64.1591 
-84.4544 -111.962 64.4873 -85.0113 -110.483 65.4605 -85.5459 -109.074 66.1902 
-86.0911 -107.618 66.6349 -83.3256 -117.712 68.2016 -83.6849 -116.967 67.3911 
-84.7599 -117.584 67.8552 -85.1619 -116.922 66.9746 -86.1899 -117.413 67.5802 
-84.079 -116.239 66.5399 -86.5215 -116.547 66.815 -87.3451 -116.731 67.7331 
-85.463 -115.994 66.1371 -84.4598 -115.344 65.4367 -87.6296 -115.555 67.1416 
-88.369 -115.602 68.2003 -86.7049 -115.223 66.2139 -85.8113 -114.764 65.263 
-84.9246 -114.193 64.3286 -88.8208 -114.388 67.6723 -89.6116 -114.457 68.5617 
-87.8505 -114.147 66.7257 -87.0072 -113.831 65.8199 -86.3673 -113.436 64.7972 
-85.4695 -112.738 64.1818 -90.3389 -113.375 67.99 -91.0433 -113.491 68.684 
-89.3498 -113.159 67.2832 -88.2403 -112.807 66.6404 -87.542 -112.45 65.8812 
-86.9169 -111.859 65.1816 -85.9404 -111.081 65.0641 -91.8787 -112.451 68.0748 
-92.4369 -112.691 68.7514 -91.1318 -112.175 67.56 -89.9635 -111.673 67.2564 
-88.8522 -111.142 66.8372 -88.1361 -110.657 66.2237 -87.3463 -110.051 65.8829 
-86.3699 -109.482 65.9651 -93.1706 -111.566 68.2304 -93.682 -111.96 68.9283 
-92.6342 -111.145 67.6847 -91.7781 -110.494 67.4764 -90.6102 -109.713 67.3391 
-89.6012 -109.162 66.9142 -88.7717 -108.784 66.4741 -87.8315 -108.372 66.3783 
-86.876 -107.971 66.4874 -94.2102 -110.715 68.5894 -94.6895 -111.212 69.2118 
-93.7395 -110.164 67.9867 -93.1675 -109.459 67.5887 -92.3056 -108.602 67.4129 
-91.3075 -107.907 67.1889 -90.3793 -107.538 66.8633 -89.4107 -107.245 66.7136 
-88.3727 -106.863 66.7841 -87.4285 -106.483 66.9091 -87.7228 -104.992 67.4669 
-88.6398 -105.257 67.3005 -88.8827 -103.85 67.9054 -89.7385 -105.664 67.1181 
-89.9072 -103.985 67.6425 -90.0509 -102.735 68.247 -90.9105 -106.081 66.9697 
-91.1006 -104.274 67.31 -91.1099 -102.569 67.7734 -91.0964 -101.512 68.473 
-91.9871 -106.463 66.9975 -92.3637 -104.737 67.0678 -92.3314 -102.653 67.3774 
-92.156 -101.151 67.9236 -91.9015 -100.225 68.765 -92.9623 -106.999 67.1816 
-93.528 -105.36 67.0548 -93.6439 -103.263 67.2954 -93.41 -101.309 67.7711 
-93.0932 -100.058 68.419 -92.666 -98.954 69.193 -93.7952 -107.775 67.5046 
-94.476 -106.077 67.3508 -94.8133 -104.178 67.4855 -94.6504 -102.165 68.0008 
-94.3978 -100.496 68.5684 -94.1222 -99.0844 69.1014 -93.6415 -97.7397 69.6851 
-94.3571 -108.604 68.0277 -95.0751 -106.854 67.9849 -95.6254 -105.036 67.9601 
-95.6225 -103.189 68.3059 -95.4103 -101.379 68.8898 -95.3564 -99.6379 69.3582 
-95.1335 -98.0508 69.7746 -94.5835 -96.8537 70.3166 -94.7727 -109.361 68.6453 
-95.389 -107.717 68.7096 -96.0285 -105.909 68.6554 -96.3013 -104.096 68.7377 
-96.1787 -102.286 69.1639 -96.1289 -100.411 69.6689 -96.1079 -98.6599 70.0859 
-95.7628 -97.333 70.5701 -95.1704 -96.4688 71.1979 -95.2038 -110.036 69.2186 
-95.6691 -108.603 69.2926 -96.2277 -106.923 69.3014 -96.7231 -105.097 69.3159 
-96.867 -103.231 69.5733 -96.8034 -101.315 70.0296 -96.7304 -99.4736 70.479 
-96.4861 -98.0308 70.9577 -96.0122 -97.0604 71.5664 -95.4831 -96.3501 72.2478 
-87.6768 -104.099 68.0321 -88.8223 -103.052 68.5139 -87.5619 -103.37 68.7213 
-89.9524 -101.966 68.9794 -88.6123 -102.238 69.2426 -87.3214 -102.511 69.5101 
-90.8663 -100.611 69.3578 -89.6446 -100.892 69.7794 -88.2731 -101.145 70.0626 
-87.1145 -101.524 70.4627 -91.4968 -99.0515 69.6645 -90.4561 -99.2687 70.1435 
-89.2487 -99.6308 70.5291 -88.0535 -100.187 71.0293 -87.0378 -100.75 71.5338 
-92.225 -97.5872 69.9897 -91.0842 -97.7102 70.433 -90.0654 -98.1186 70.8776 
-88.9422 -98.8124 71.4744 -87.8783 -99.5118 72.1072 -86.8339 -100.049 72.5246 
-93.2093 -96.534 70.476 -91.8727 -96.5657 70.8687 -90.7704 -96.9142 71.3825 
-89.6724 -97.4941 71.9955 -88.5469 -98.1519 72.6373 -87.4738 -98.7024 73.0905 
-86.423 -99.2573 73.4274 -94.0958 -96.0078 71.2516 -92.8099 -95.8497 71.5243 
-91.5485 -96.0114 72.043 -90.3355 -96.3533 72.6736 -89.1336 -96.8113 73.2388 
-88.0051 -97.3283 73.6297 -86.9498 -97.8932 73.9439 -86.0263 -98.6185 74.3458 
-94.6904 -95.7884 72.2722 -93.6234 -95.3932 72.3949 -92.3602 -95.2615 72.7467 
-91.0361 -95.3415 73.2951 -89.752 -95.6158 73.8135 -88.5735 -96.0976 74.1531 
-87.4767 -96.6832 74.4203 -86.4855 -97.3644 74.7899 -85.707 -98.1911 75.2422 
-95.3629 -95.7964 73.4182 -94.5168 -95.1655 73.4655 -95.246 -95.0853 74.6871 
-94.2239 -94.4714 74.758 -94.9343 -94.5485 76.0225 -93.3376 -94.7098 73.5835 
-93.7144 -94.1018 76.2076 -94.4185 -94.3846 77.4971 -92.8526 -94.0786 74.8851 
-91.9198 -94.5006 73.9061 -93.1505 -94.0232 77.903 -93.8931 -94.3751 79.0351 
-92.2519 -93.8656 76.4666 -91.3302 -93.962 75.1736 -90.4751 -94.5898 74.3579 
-92.6456 -94.0056 79.5772 -93.3662 -94.6054 80.386 -91.6669 -93.845 78.3281 
-90.6903 -93.9058 76.8292 -89.8554 -94.2559 75.5673 -89.1543 -95.0499 74.7369 
-92.055 -94.4213 80.8581 -92.7625 -95.2808 81.5027 -91.0349 -93.9813 79.9588 
-89.9793 -94.0198 78.6907 -89.1404 -94.3065 77.2415 -88.4911 -94.8625 75.9519 
-87.935 -95.7044 75.0347 -91.3233 -95.34 81.8403 -92.0782 -96.0766 82.5238 
-90.3157 -94.6751 81.0919 -89.2503 -94.4065 80.1609 -88.3902 -94.5011 78.9686 
-87.7466 -94.8329 77.5772 -87.2137 -95.4818 76.2959 -86.7907 -96.3813 75.3937 
-90.5381 -96.235 82.7889 -91.2925 -96.7298 83.4514 -89.6184 -95.6594 82.072 
-88.6388 -95.1991 81.2709 -87.7961 -95.0279 80.3107 -87.135 -95.0878 79.109 
-86.5607 -95.4411 77.766 -86.1161 -96.193 76.6202 -85.8646 -97.1831 75.8293 
-89.8076 -96.9248 83.7029 -90.4915 -97.3606 84.2166 -89.03 -96.4698 83.1005 
-88.1696 -96.0155 82.3855 -87.3335 -95.7396 81.506 -86.6593 -95.7074 80.4187 
-86.1005 -95.8718 79.144 -85.609 -96.3218 77.8971 -85.3045 -97.1167 76.9231 
-85.1927 -98.0932 76.2178 -96.0339 -96.6838 72.9495 -95.9872 -96.0449 74.2462 
-96.6206 -97.066 73.745 -96.5655 -96.464 75.1425 -97.19 -97.6355 74.7083 
-95.8758 -95.37 75.6131 -96.9584 -97.2806 76.1801 -97.5198 -98.5858 75.8149 
-96.2985 -96.0542 76.6075 -95.5089 -95.0179 77.0428 -97.1041 -98.5125 77.2411 
-97.5899 -99.8992 76.8536 -96.4713 -97.2152 77.6818 -95.8587 -95.9467 78.1044 
-94.9839 -94.977 78.5206 -97.1322 -99.9308 78.1458 -97.5359 -101.407 77.752 
-96.5653 -98.585 78.6449 -96.057 -97.2295 79.132 -95.3494 -96.0217 79.4798 
-94.3827 -95.1563 79.8822 -97.0997 -101.432 78.9945 -97.3818 -102.964 78.5672 
-96.6806 -99.9961 79.4731 -96.2175 -98.6265 79.9814 -95.5384 -97.3934 80.3525 
-94.6069 -96.4119 80.6703 -93.7119 -95.6951 81.109 -97.0269 -102.994 79.8174 
-97.1932 -104.47 79.2393 -96.7428 -101.524 80.3191 -96.2871 -100.126 80.7345 
-95.59 -98.8966 81.1028 -94.6986 -97.8536 81.4818 -93.8856 -96.9634 81.9359 
-93.1153 -96.3433 82.336 -96.9509 -104.529 80.4461 -97.0387 -105.872 79.733 
-96.729 -103.125 81.052 -96.2329 -101.723 81.4302 -95.5092 -100.448 81.7418 
-94.7438 -99.3198 82.1898 -94.0709 -98.2359 82.7587 -93.4019 -97.339 83.2387 
-92.481 -96.8606 83.4471 -96.7773 -105.932 80.836 -96.8298 -107.099 80.1016 
-96.5883 -104.664 81.4964 -96.0932 -103.317 81.921 -95.3683 -102.001 82.2439 
[...]
CELL_DATA 2000
SCALARS Distance double
LOOKUP_TABLE default
152.125 151.626 151.831 151.83 151.422 151.499 151.576 151.701 151.824 
151.467 151.43 151.462 151.53 151.654 151.823 151.972 151.547 151.494 
151.426 151.43 151.436 151.592 151.645 151.856 151.789 151.491 151.486 
151.36 151.353 151.238 151.317 151.25 151.421 151.276 151.432 151.166 
151.353 151.35 151.217 151.232 151.08 151.092 150.94 151.018 150.856 
150.942 150.714 150.781 150.571 151.27 151.21 151.076 151.087 150.955 
150.932 150.738 150.733 150.554 150.599 150.433 150.463 150.326 150.367 
150.311 151.28 151.158 151.003 150.981 150.866 150.829 150.636 150.567 
150.37 150.362 150.229 150.256 150.15 150.19 150.135 150.214 150.197 
151.389 151.206 151.031 150.949 150.836 150.775 150.604 150.502 150.315 
150.252 150.151 150.136 150.055 150.043 149.948 150 149.933 150.051 
149.98 152.229 151.897 151.892 151.585 151.427 151.443 151.212 151.358 
151.322 151.289 151.049 150.814 150.959 151.053 151.27 151.406 151.786 
151.178 150.825 150.7 150.817 151.025 151.293 151.459 151.572 152.84 
151.979 151.59 151.045 151.103 151 151.336 151.422 151.652 151.637 
151.618 154.233 153.294 153.03 152.187 152.212 151.672 151.959 151.724 
152.015 151.856 151.917 151.693 151.57 155.645 154.808 154.641 153.802 
153.769 153.023 153.092 152.568 152.69 152.37 152.423 152.127 152.031 
151.696 151.54 156.798 156.131 155.939 155.285 155.153 154.476 154.296 
153.658 153.47 153.026 152.925 152.641 152.558 152.243 152.097 151.729 
151.581 157.693 157.133 156.902 156.374 156.195 155.627 155.36 154.706 
154.365 153.766 153.535 153.137 153.06 152.765 152.695 152.342 152.212 
151.819 151.701 158.061 158.468 157.925 157.327 159.004 158.424 157.789 
157.235 156.631 159.371 158.919 158.241 157.691 156.965 156.459 155.757 
159.421 159.119 158.426 157.999 157.222 156.738 155.952 155.476 154.739 
159.423 159.12 158.468 158.076 157.362 156.934 156.244 155.745 155.043 
154.512 153.906 159.576 159.229 158.692 158.233 157.604 157.124 156.543 
156.09 155.512 154.962 154.354 153.829 153.381 159.807 159.461 159.01 
158.586 158.011 157.486 156.852 156.388 155.8 155.376 154.77 154.297 
153.741 153.35 152.959 160.054 159.7 159.227 158.883 158.323 157.874 
157.168 156.671 155.966 155.559 154.939 154.574 154.002 153.641 153.149 
152.859 152.464 160.27 159.916 159.38 159.044 158.467 158.089 157.4 
156.927 156.198 155.734 155.118 154.731 154.221 153.857 153.379 153.033 
152.593 152.315 151.944 151.767 152.419 151.963 151.785 153.226 152.705 
152.468 152.005 151.848 154.082 153.564 153.301 152.726 152.392 151.977 
151.781 154.972 154.445 154.225 153.599 153.166 152.534 152.137 151.799 
151.586 156.01 155.399 155.238 154.591 154.243 153.445 152.994 152.319 
152.054 151.66 151.472 157.174 156.513 156.359 155.696 155.475 154.67 
154.323 153.446 153.177 152.461 152.32 151.726 151.527 158.268 157.665 
157.506 156.862 156.677 155.954 155.681 154.855 154.566 153.765 153.561 
152.832 152.637 151.927 151.73 159.245 158.712 158.584 157.982 157.799 
157.139 156.882 156.147 155.829 155.075 154.775 154.062 153.799 153.105 
152.881 152.217 152.109 160.167 159.679 159.587 159.025 158.859 158.235 
158.007 157.314 157.028 156.278 155.965 155.217 154.921 154.217 153.978 
153.338 153.206 152.641 152.637 151.427 151.443 151.282 151.068 151.555 
151.37 151.128 150.988 150.838 151.598 151.501 151.258 151.07 150.809 
150.717 150.544 151.424 151.454 151.227 151.128 150.782 150.651 150.389 
150.374 150.248 151.118 151.144 150.855 150.908 150.553 150.525 150.251 
150.247 150.15 150.165 150.131 150.953 150.798 150.399 150.432 150.131 
150.199 150.007 150.089 150.043 150.11 150.081 150.086 150.026 151.119 
150.742 150.313 150.127 149.906 149.878 149.795 149.857 149.844 149.949 
149.897 149.962 149.838 149.896 149.831 151.59 151.087 150.698 150.301 
150.099 149.889 149.821 149.754 149.704 149.731 149.631 149.692 149.537 
149.619 149.527 149.682 149.732 152.206 151.692 151.335 150.844 150.568 
150.219 150.035 149.846 149.688 149.612 149.449 149.441 149.283 149.319 
149.223 149.351 149.393 149.62 149.749 152.455 152.556 152.201 151.596 
152.637 152.263 151.614 151.302 150.765 152.844 152.369 151.66 151.279 
150.676 150.475 150.093 153.254 152.686 151.968 151.416 150.732 150.373 
149.912 149.833 149.617 153.757 153.171 152.494 151.858 151.158 150.584 
150.033 149.721 149.441 149.417 149.324 154.329 153.713 153.047 152.415 
151.735 151.114 150.522 150.016 149.632 149.37 149.208 149.186 149.153 
154.961 154.327 153.649 152.986 152.309 151.69 151.106 150.559 150.1 
149.679 149.389 149.18 149.078 149.072 149.107 155.509 154.946 154.302 
153.639 152.988 152.322 151.769 151.172 150.721 150.196 149.832 149.446 
149.256 149.098 149.124 149.139 149.297 155.929 155.452 154.901 154.314 
153.742 153.079 152.557 151.913 151.49 150.894 150.543 150.006 149.765 
149.402 149.376 149.257 149.423 149.448 149.673 153.026 153.959 153.383 
153.166 155.024 154.372 154.167 153.537 153.301 156.271 155.527 155.323 
154.615 154.411 153.726 153.537 157.625 156.843 156.647 155.872 155.688 
154.936 154.764 154.05 153.924 158.977 158.202 158.012 157.239 157.073 
156.297 156.124 155.344 155.182 154.477 154.393 160.301 159.546 159.359 
158.601 158.448 157.694 157.527 156.733 156.533 155.763 155.646 154.98 
154.961 161.571 160.87 160.725 159.971 159.823 159.059 158.886 158.107 
157.898 157.117 156.97 156.268 156.245 155.604 155.605 162.725 162.123 
162.043 161.346 161.188 160.42 160.188 159.418 159.191 158.449 158.295 
157.597 157.539 156.89 156.856 156.213 156.132 163.687 163.216 163.158 
162.587 162.405 161.704 161.399 160.652 160.376 159.685 159.526 158.878 
158.785 158.144 158.045 157.407 157.268 156.636 156.49 160.649 161.148 
160.641 160.066 161.632 161.112 160.526 159.987 159.342 162.199 161.631 
161.044 160.459 159.788 159.21 158.499 162.735 162.195 161.559 160.976 
160.259 159.656 158.884 158.305 157.528 163.127 162.641 161.928 161.385 
160.557 160.013 159.164 158.637 157.792 157.26 156.448 163.47 162.996 
162.28 161.697 160.793 160.195 159.272 158.785 157.937 157.47 156.627 
156.136 155.357 163.717 163.312 162.642 162.084 161.23 160.521 159.594 
158.942 158.125 157.608 156.84 156.326 155.55 155.072 154.396 163.791 
163.471 162.818 162.394 161.626 161.022 160.157 159.438 158.62 157.958 
157.231 156.631 155.916 155.349 154.687 154.213 153.663 163.824 163.516 
162.889 162.511 161.795 161.334 160.542 159.97 159.161 158.529 157.768 
157.132 156.417 155.802 155.153 154.605 154.063 153.595 153.134 161.072 
161.834 161.529 161.612 162.51 162.278 162.423 162.061 162.117 163.131 
162.952 163.217 162.92 163.085 162.644 162.727 163.778 163.604 163.982 
163.774 164.093 163.702 163.841 163.308 163.321 164.496 164.281 164.623 
164.498 164.837 164.639 164.8 164.393 164.357 163.819 163.718 165.27 
164.993 165.187 165.031 165.194 165.125 165.205 165.077 165.036 164.724 
164.615 164.148 164.031 166.021 165.716 165.808 165.555 165.588 165.383 
165.354 165.244 165.235 165.155 165.155 164.928 164.864 164.434 164.278 
166.636 166.365 166.408 166.156 166.213 165.898 165.866 165.526 165.487 
165.305 165.365 165.296 165.334 165.13 165.011 164.589 164.348 167.046 
166.851 166.841 166.669 166.745 166.541 166.569 166.21 166.111 165.728 
165.649 165.467 165.469 165.404 165.341 165.151 164.954 164.573 164.324 
167.158 167.168 167.116 166.994 167.111 167.122 167.092 167.016 166.938 
167.089 167.097 167.096 167.08 167.05 166.984 166.819 167.047 167.087 
167.03 167.031 166.939 166.973 166.812 166.724 166.375 166.737 166.905 
166.779 166.864 166.701 166.774 166.584 166.587 166.272 166.148 165.805 
166.269 166.449 166.311 166.474 166.349 166.491 166.352 166.372 166.1 
165.997 165.694 165.625 165.471 165.955 166.04 165.934 166.025 165.954 
166.116 166.071 166.165 165.964 165.879 165.572 165.49 165.31 165.359 
165.294 165.635 165.768 165.659 165.739 165.636 165.76 165.694 165.843 
165.678 165.704 165.398 165.351 165.107 165.149 165.036 165.132 164.982 
165.057 165.306 165.135 165.355 165.181 165.381 165.233 165.422 165.242 
165.348 165.069 165.092 164.82 164.883 164.724 164.836 164.682 164.732 
164.456 164.599 163.844 164.343 164.63 163.166 163.557 163.807 164.381 
164.712 162.637 162.917 163.079 163.578 163.959 164.517 164.838 162.039 
162.354 162.456 162.902 163.274 163.831 164.229 164.677 164.892 161.188 
161.619 161.67 162.193 162.541 163.177 163.611 164.107 164.329 164.667 
164.736 160.122 160.648 160.667 161.258 161.548 162.307 162.735 163.403 
163.626 164.056 164.109 164.452 164.512 158.954 159.545 159.617 160.212 
160.453 161.196 161.551 162.33 162.546 163.173 163.256 163.761 163.884 
164.292 164.441 157.834 158.43 158.604 159.2 159.441 160.098 160.365 
161.075 161.257 161.95 162.09 162.768 162.981 163.591 163.811 164.252 
164.382 156.888 157.432 157.665 158.242 158.483 159.087 159.289 159.912 
160.055 160.692 160.854 161.559 161.828 162.571 162.843 163.473 163.606 
164.073 164.096 164.433 164.103 164.1 163.767 163.869 163.885 163.622 
163.508 163.193 163.384 163.614 163.405 163.397 163.072 162.983 162.677 
162.442 162.907 162.675 162.942 162.53 162.669 162.281 162.379 162.025 
161.26 161.783 161.521 161.947 161.468 161.784 161.292 161.652 161.292 
161.568 161.152 160.11 160.567 160.3 160.731 160.292 160.603 160.055 
160.428 160.035 160.54 160.211 160.547 160.057 159.078 159.446 159.144 
159.542 159.146 159.466 158.936 159.214 158.738 159.187 158.868 159.388 
158.994 159.328 158.802 158.166 158.447 158.078 158.407 157.994 158.336 
157.86 158.14 157.65 157.971 157.6 158.049 157.722 158.148 157.715 
158.036 157.592 157.347 157.556 157.124 157.365 156.921 157.221 156.796 
157.093 156.667 156.944 156.569 156.905 156.601 156.968 156.634 156.954 
156.583 156.9 156.599 164.767 164.98 164.707 164.375 165.046 164.854 
164.5 164.295 164.006 165.013 164.878 164.477 164.291 163.878 163.798 
163.43 164.764 164.764 164.33 164.179 163.648 163.534 163.054 163.031 
162.519 164.144 164.321 163.89 163.899 163.35 163.252 162.72 162.637 
162.115 162.02 161.419 163.41 163.586 163.191 163.318 162.842 162.866 
162.368 162.321 161.803 161.68 161.088 160.923 160.306 162.898 162.946 
162.589 162.658 162.25 162.307 161.856 161.893 161.385 161.341 160.734 
160.603 159.975 159.844 159.279 162.502 162.517 162.138 162.162 161.745 
161.764 161.302 161.336 160.828 160.84 160.243 160.18 159.551 159.476 
158.934 158.869 158.386 162.006 162.063 161.628 161.689 161.229 161.262 
160.758 160.78 160.264 160.278 159.728 159.681 159.092 159.024 158.506 
158.49 158.068 158.03 157.601 161.529 160.642 161.098 161.14 159.73 
160.195 160.197 160.686 160.715 158.575 159.184 159.12 159.668 159.643 
160.2 160.209 157.085 157.829 157.768 158.45 158.407 159.051 159.076 
159.678 159.711 155.793 156.36 156.357 157.021 157.063 157.766 157.864 
158.53 158.612 159.191 159.194 155.116 155.398 155.423 155.815 155.907 
156.49 156.649 157.319 157.437 158.064 158.074 158.625 158.57 154.635 
154.913 154.903 155.132 155.144 155.525 155.63 156.17 156.264 156.861 
156.89 157.475 157.47 158.013 158.016 153.864 154.3 154.225 154.551 
154.448 154.811 154.822 155.258 155.306 155.771 155.811 156.332 156.408 
156.96 157.056 157.569 157.636 152.93 153.384 153.277 153.683 153.541 
153.98 153.963 154.441 154.493 154.921 154.959 155.384 155.477 155.98 
156.123 156.647 156.74 157.217 157.22 152.474 152.028 152.378 152.728 
151.96 152.036 152.264 152.606 153.014 152.127 152.113 152.252 152.326 
152.657 153.002 153.512 151.965 152.186 152.308 152.386 152.574 152.77 
153.19 153.587 154.089 151.321 151.764 151.937 152.26 152.393 152.628 
152.887 153.253 153.697 154.136 154.579 150.673 151.038 151.243 151.699 
151.923 152.293 152.524 152.882 153.272 153.722 154.226 154.644 155.118 
150.371 150.529 150.664 151.013 151.275 151.729 152.048 152.472 152.859 
153.301 153.813 154.288 154.835 155.247 155.749 150.254 150.332 150.363 
150.537 150.693 151.082 151.417 151.929 152.351 152.857 153.316 153.83 
154.329 154.859 155.363 155.841 156.309 150.049 150.177 150.17 150.279 
150.338 150.579 150.848 151.297 151.738 152.28 152.742 153.272 153.706 
154.25 154.701 155.284 155.753 156.299 156.734 156.78 155.734 156.326 
156.462 154.659 155.222 155.344 155.992 156.211 153.671 154.172 154.281 
154.89 155.126 155.8 156.086 152.701 153.195 153.247 153.831 154.018 
154.704 154.983 155.691 155.975 151.695 152.196 152.211 152.768 152.854 
153.52 153.734 154.511 154.823 155.58 155.897 150.816 151.222 151.275 
151.764 151.842 152.375 152.521 153.214 153.543 154.375 154.792 155.557 
155.926 150.27 150.478 150.514 150.905 151.028 151.476 151.626 152.138 
152.435 153.148 153.623 154.436 154.887 155.612 155.952 150.027 150.067 
149.97 150.209 150.258 150.686 150.85 151.342 151.6 152.182 152.594 
153.323 153.803 154.554 154.946 155.619 155.93 149.864 149.849 149.632 
149.714 149.623 149.928 150.044 150.537 150.796 151.366 151.709 152.355 
152.78 153.499 153.939 154.635 155.025 155.647 156 158.128 157.218 
157.989 158.583 156.041 156.948 157.539 158.404 158.992 154.713 155.684 
156.306 157.254 157.891 158.765 159.363 153.511 154.446 155.188 156.078 
156.789 157.655 158.355 159.191 159.866 152.542 153.405 154.272 155.12 
155.894 156.673 157.416 158.232 158.997 159.796 160.49 151.956 152.601 
153.475 154.282 155.083 155.845 156.555 157.346 158.111 158.945 159.685 
160.43 161.018 152.004 152.295 153.104 153.639 154.418 155.054 155.736 
156.474 157.214 158.06 158.821 159.61 160.214 160.876 161.326 152.458 
152.582 153.325 153.557 154.247 154.573 155.17 155.696 156.392 157.172 
157.968 158.771 159.418 160.072 160.522 161.113 161.488 152.756 152.98 
153.635 153.856 154.421 154.581 154.999 155.262 155.775 156.379 157.122 
157.931 158.641 159.325 159.805 160.349 160.721 161.268 161.622 158.757 
159.269 159.303 159.888 159.722 159.82 160.415 160.448 161.033 160.132 
160.264 160.924 160.977 161.57 161.593 162.191 160.654 160.748 161.537 
161.582 162.298 162.234 162.855 162.79 163.398 161.234 161.327 162.175 
162.291 163.163 163.125 163.799 163.594 164.131 164.001 164.563 161.677 
161.833 162.575 162.824 163.668 163.891 164.563 164.508 164.884 164.712 
165.1 165.081 165.584 161.937 162.146 162.75 163.024 163.675 164.07 
164.659 164.928 165.215 165.225 165.409 165.455 165.849 165.996 166.431 
162.083 162.319 162.871 163.093 163.596 163.905 164.409 164.768 165.132 
165.309 165.502 165.591 165.902 166.113 166.555 166.726 167.004 162.177 
162.419 162.946 163.162 163.617 163.829 164.296 164.567 165.037 165.243 
165.577 165.659 165.955 166.11 166.506 166.74 167.059 167.153 167.23 
158.694 159.819 159.172 159.081 161 160.346 160.237 159.62 159.586 
162.187 161.554 161.442 160.778 160.64 160.065 159.935 163.378 162.765 
162.669 161.978 161.747 161.072 160.814 160.251 159.99 164.537 163.954 
163.855 163.183 162.924 162.179 161.823 161.133 160.81 160.23 159.965 
165.593 165.064 164.909 164.283 163.979 163.292 162.91 162.186 161.814 
161.129 160.839 160.255 160.06 166.439 166.014 165.792 165.216 164.813 
164.202 163.781 163.176 162.804 162.166 161.861 161.218 161 160.426 
160.288 166.942 166.672 166.407 165.952 165.503 164.939 164.472 163.926 
163.553 163.037 162.756 162.217 162.007 161.433 161.28 160.709 160.582 
167.106 166.967 166.693 166.403 166.002 165.558 165.129 164.608 164.25 
163.742 163.484 163.014 162.835 162.367 162.221 161.708 161.553 160.998 
160.823 165.128 165.649 165.39 165.303 165.957 165.784 165.67 165.448 
165.318 166.276 166.049 165.902 165.696 165.538 165.382 165.245 166.694 
166.413 166.194 165.91 165.692 165.526 165.377 165.252 165.02 166.924 
166.74 166.445 166.181 165.914 165.709 165.541 165.375 165.134 164.903 
164.47 166.958 166.834 166.545 166.341 166.104 165.94 165.824 165.629 
165.403 165.073 164.634 164.262 163.76 167.056 166.911 166.712 166.471 
166.286 166.124 166.063 165.926 165.746 165.417 164.975 164.522 164.023 
163.633 163.235 167.202 167.101 166.972 166.729 166.513 166.313 166.17 
166.083 165.882 165.682 165.24 164.862 164.345 163.959 163.545 163.211 
162.858 167.251 167.243 167.128 166.959 166.655 166.453 166.15 166.067 
165.791 165.693 165.273 165.021 164.513 164.215 163.786 163.502 163.118 
162.808 162.395 
POINT_DATA 1002
SCALARS Distance double
LOOKUP_TABLE default
152.039 152.516 151.826 151.633 151.425 151.823 151.447 151.399 151.655 
152.001 151.451 151.557 151.495 151.82 152.102 151.481 151.61 151.353 
151.469 151.652 151.62 151.373 151.498 151.233 151.138 151.15 151.032 
150.852 151.186 151.383 151.1 150.915 150.775 150.65 150.466 150.402 
151.067 151.366 150.982 150.79 150.517 150.378 150.278 150.24 150.297 
151.048 151.433 150.9 150.723 150.401 150.199 150.118 150.059 150.111 
150.187 151.145 151.595 150.906 150.708 150.388 150.163 150.096 149.958 
149.833 149.858 149.899 152.348 151.507 151.841 150.987 151.456 151.147 
150.713 151.704 150.751 151.27 151.123 152.536 150.646 151.063 151.556 
152.279 153.707 151.369 151.299 151.655 151.754 153.898 155.095 152.916 
152.356 152.229 152.168 151.835 155.433 156.41 154.595 153.802 153.125 
152.722 152.387 151.878 156.555 157.431 155.833 155.038 154.053 153.238 
152.822 152.471 151.948 157.416 158.235 156.739 156.017 155.033 154.014 
153.359 153.008 152.611 152.08 158.533 157.827 159.046 158.402 159.567 
157.14 158.792 159.758 157.533 156.225 158.812 159.699 157.677 156.46 
155.174 158.854 159.722 157.744 156.671 155.607 154.352 159.118 159.893 
158.108 156.964 156 154.935 153.784 159.378 160.154 158.539 157.391 
156.209 155.201 154.181 153.264 159.572 160.439 158.736 157.699 156.422 
155.277 154.349 153.483 152.707 159.742 160.631 158.83 157.839 156.668 
155.51 154.575 153.747 152.914 152.164 151.547 152.184 151.631 153.022 
152.205 151.714 153.929 152.959 152.019 151.617 154.836 153.916 152.631 
151.768 151.38 155.858 155.028 153.794 152.564 151.837 151.206 157.019 
156.208 155.195 153.986 152.987 152.14 151.243 158.141 157.364 156.466 
155.389 154.328 153.373 152.404 151.549 159.169 158.446 157.593 156.591 
155.514 154.489 153.54 152.703 152.078 160.131 159.464 158.672 157.762 
156.735 155.652 154.625 153.773 153.146 152.689 151.159 151.327 150.905 
151.469 150.985 150.543 151.282 150.936 150.431 150.199 150.776 150.515 
150.215 150.116 150.14 150.418 150.011 149.873 149.941 150.079 150.029 
150.571 149.957 149.755 149.764 149.833 149.785 149.707 151.146 150.382 
149.962 149.751 149.603 149.463 149.37 149.511 151.856 151.008 150.319 
149.831 149.487 149.262 149.128 149.177 149.495 152.822 151.929 152.92 
151.944 153.05 150.975 152.118 153.367 150.922 150.135 152.578 153.82 
151.212 150.067 149.54 153.12 154.336 151.791 150.479 149.561 149.229 
153.685 154.968 152.341 151.08 150.017 149.327 149.074 154.331 155.587 
152.936 151.657 150.589 149.702 149.147 149.021 154.924 156.02 153.655 
152.378 151.277 150.302 149.497 149.132 149.225 155.416 156.354 154.366 
153.209 152.09 151.108 150.223 149.581 149.418 149.63 153.57 153.76 
154.55 154.81 155.716 153.936 156.06 157.042 155.105 154.197 157.431 
158.406 156.455 155.509 154.59 158.774 159.755 157.837 156.932 155.936 
155.026 160.112 161.042 159.195 158.318 157.334 156.332 155.583 161.459 
162.216 160.609 159.669 158.674 157.69 156.892 156.263 162.699 163.265 
161.975 160.985 159.915 158.988 158.213 157.517 156.792 163.688 164.114 
163.09 162.155 161.06 160.157 159.438 158.707 157.914 157.1 161.188 
160.607 161.65 161.081 162.167 159.893 161.648 162.786 160.408 159.069 
162.155 163.269 160.879 159.499 158.09 162.507 163.61 161.129 159.67 
158.33 156.962 162.877 163.929 161.463 159.793 158.363 157.127 155.8 
163.138 164.089 161.92 160.317 158.68 157.342 156.059 154.795 163.191 
164.097 162.131 160.836 159.326 157.861 156.498 155.197 154.074 161.402 
162.001 162.103 162.735 162.696 162.537 163.429 163.271 163.493 163.231 
164.117 163.952 164.404 164.386 163.911 164.78 164.759 164.978 165.134 
164.886 164.281 165.447 165.608 165.342 165.27 165.218 165.01 164.56 
166.1 166.362 165.884 165.546 165.252 165.243 165.22 164.819 166.638 
166.912 166.49 166.271 165.787 165.427 165.431 165.355 164.862 167.006 
167.223 166.884 166.866 166.577 165.975 165.549 165.432 165.239 164.766 