# vtk DataFile Version 4.0
vtk output
ASCII
DATASET POLYDATA
POINTS 1002 float
-83.1664 -118.109 81.288 -82.5972 -119.142 81.0693 -83.389 -119.089 80.5477 
-83.9563 -117.976 80.7839 -84.1746 -118.958 79.9152 -83.737 -116.898 81.4898 
-84.7506 -117.806 80.1512 -84.982 -118.789 79.2013 -84.6277 -116.802 81.0654 
-84.5381 -115.77 81.8441 -85.6238 -117.68 79.4685 -85.9505 -118.761 78.603 
-85.5143 -116.668 80.4927 -85.5263 -115.724 81.474 -85.6447 -114.839 82.5238 
-86.6755 -117.603 78.9322 -86.9708 -118.704 78.1332 -86.4543 -116.417 79.8124 
-86.4132 -115.457 80.851 -86.4728 -114.605 81.9651 -86.689 -113.856 83.2866 
-87.6455 -117.197 78.3777 -87.6708 -118.075 77.4253 -87.4613 -116.023 79.2075 
-87.3204 -114.952 80.1091 -87.2449 -114.091 81.1558 -87.231 -113.269 82.3186 
-87.3848 -112.572 83.5888 -88.2947 -116.363 77.5318 -88.0969 -117.037 76.4845 
-88.3394 -115.476 78.5546 -88.2606 -114.475 79.4636 -88.2179 -113.607 80.4516 
-88.0789 -112.741 81.4431 -87.932 -111.885 82.4161 -87.9996 -111.198 83.4737 
-88.879 -115.639 76.6837 -88.6653 -116.289 75.7579 -89.126 -114.967 77.7868 
-89.2014 -114.132 78.7982 -89.2425 -113.279 79.789 -89.2289 -112.447 80.8244 
-88.9734 -111.56 81.6663 -88.7477 -110.739 82.4588 -88.7856 -110.054 83.4158 
-89.6095 -115.193 76.1129 -89.4496 -115.897 75.3157 -89.9578 -114.553 77.1161 
-90.2057 -113.808 78.1093 -90.2269 -112.915 78.9903 -90.2068 -112.046 79.9726 
-90.074 -111.26 80.9678 -89.7696 -110.512 81.7581 -89.5738 -109.801 82.5462 
-89.5594 -109.12 83.431 -90.3388 -114.704 75.641 -90.189 -115.471 74.8897 
-90.7205 -114.018 76.5352 -91.1158 -113.322 77.4595 -91.1662 -112.444 78.2358 
-90.9827 -111.484 78.9787 -90.8468 -110.686 79.909 -90.6838 -110.073 80.8741 
-90.4449 -109.498 81.714 -90.2538 -108.872 82.5126 -90.0918 -108.222 83.253 
-82.4651 -119.95 80.4073 -83.3828 -120.019 79.8275 -82.3612 -120.659 79.5487 
-83.4071 -120.945 79.0001 -82.306 -121.41 78.6561 -84.2716 -119.968 79.1501 
-83.4024 -121.857 78.0913 -82.2312 -122.279 77.8399 -84.3479 -120.963 78.2658 
-85.1914 -119.786 78.385 -83.3617 -122.718 77.1112 -82.0808 -123.062 76.9079 
-84.3315 -121.876 77.1998 -85.3295 -120.722 77.3815 -86.2448 -119.735 77.7529 
-83.3582 -123.467 76.0404 -81.8491 -123.512 75.6948 -84.4465 -122.84 76.1514 
-85.4672 -121.785 76.2875 -86.4734 -120.744 76.7103 -87.1564 -119.586 77.1723 
-83.2691 -123.94 74.8474 -81.5527 -123.668 74.4506 -84.6877 -123.725 75.1603 
-85.8155 -123.048 75.3841 -86.8238 -122.143 75.735 -87.3878 -120.714 76.1381 
-87.6625 -118.793 76.3474 -82.975 -124.037 73.606 -81.2592 -123.697 73.3653 
-84.5984 -124.058 73.9845 -85.9339 -123.761 74.4217 -87.1094 -123.359 74.8283 
-87.7745 -122.161 75.1898 -87.8911 -119.921 75.3999 -88.1138 -117.73 75.5131 
-82.6171 -123.886 72.4209 -81.0226 -123.63 72.3465 -84.165 -123.872 72.6892 
-85.494 -123.551 73.1885 -86.802 -123.399 73.6863 -87.819 -122.875 74.0998 
-88.1676 -121.063 74.4554 -88.3672 -118.74 74.7155 -88.8457 -117.028 74.9618 
-82.3124 -123.6 71.4158 -80.8331 -123.387 71.4368 -83.7389 -123.57 71.5654 
-84.9526 -123.104 71.9841 -86.1791 -122.713 72.4541 -87.3539 -122.451 72.8675 
-88.0083 -121.37 73.3507 -88.3903 -119.478 73.841 -88.9998 -117.795 74.2092 
-89.6709 -116.572 74.5267 -81.5542 -123.017 70.7174 -83.0354 -123.193 70.7032 
-82.2164 -122.334 70.2706 -83.6407 -122.401 70.2957 -82.7095 -121.262 69.9824 
-84.3721 -122.905 70.9578 -84.1387 -121.102 69.9864 -83.1425 -119.826 69.6356 
-85.0944 -121.985 70.4912 -85.6407 -122.273 71.3396 -84.5492 -119.364 69.6887 
-83.7374 -118.326 69.2333 -85.7125 -120.648 70.0499 -86.5008 -121.377 70.7122 
-86.8707 -121.775 71.6995 -85.0205 -117.746 69.3813 -84.5548 -117.145 68.6171 
-85.932 -118.892 69.8269 -86.8809 -120.035 70.3639 -87.3182 -120.54 71.2296 
-87.609 -120.928 72.2539 -85.7731 -116.681 68.7198 -85.4545 -116.254 67.6801 
-86.2229 -117.318 69.5923 -86.8647 -118.273 70.3084 -87.3098 -118.895 71.1907 
-87.5942 -119.103 72.0942 -88.0443 -119.369 72.9532 -86.6465 -115.834 67.874 
-86.2398 -115.294 66.9263 -86.965 -116.214 68.9968 -87.337 -116.709 69.9651 
-87.6733 -117.207 70.9598 -87.9293 -117.449 71.9332 -88.3773 -117.664 72.6978 
-88.8833 -117.887 73.446 -87.2719 -114.717 67.5059 -86.7815 -114.109 66.794 
-87.6703 -115.116 68.5254 -88.0934 -115.414 69.4447 -88.5588 -115.755 70.3069 
-88.9117 -116.059 71.2746 -89.2456 -116.334 72.1351 -89.667 -116.635 72.9096 
-89.8714 -116.759 73.7501 -87.5936 -113.359 67.7165 -87.0977 -112.844 67.1311 
-88.0292 -113.749 68.5717 -88.5277 -114.035 69.3194 -89.1909 -114.355 69.8801 
-89.8217 -114.722 70.571 -90.204 -115.049 71.4109 -90.4489 -115.335 72.2443 
-90.5966 -115.548 73.1451 -90.4997 -115.586 74.0829 -90.8668 -114.27 74.7967 
-91.0847 -114.197 73.8337 -91.6224 -112.894 74.6375 -91.1882 -114.109 72.8078 
-91.8148 -112.791 73.6412 -92.5411 -111.726 74.4698 -91.1801 -113.971 71.8494 
-92.0058 -112.778 72.6174 -92.8251 -111.645 73.508 -93.3719 -110.484 74.3698 
-90.99 -113.712 70.9654 -92.1179 -112.697 71.5942 -93.1039 -111.582 72.4287 
-93.6148 -110.184 73.4139 -93.9447 -108.81 74.3638 -90.3913 -113.273 70.2571 
-91.8769 -112.347 70.6785 -93.2103 -111.38 71.2827 -93.7764 -109.919 72.2719 
-93.9744 -108.302 73.3891 -94.6748 -107.345 74.2647 -89.5031 -112.788 69.8485 
-91.0974 -111.742 70.0982 -92.8687 -110.895 70.3184 -93.7427 -109.64 71.0873 
-93.9521 -107.982 72.2911 -94.6491 -106.82 73.2283 -95.7587 -106.386 73.8696 
-88.7399 -112.442 69.4185 -90.0904 -111.204 69.8043 -92.0329 -110.271 69.7382 
-93.3909 -109.222 70.0578 -93.8035 -107.735 71.1566 -94.4972 -106.429 72.2326 
-95.7661 -105.743 72.8229 -96.5979 -105.329 73.4057 -88.1865 -112.166 68.7006 
-89.2103 -110.894 69.4151 -90.9569 -109.82 69.4687 -92.6921 -108.791 69.3827 
-93.5282 -107.445 70.0405 -94.116 -106.086 71.1906 -95.2862 -105.197 71.9893 
-96.3922 -104.617 72.5 -96.6282 -104.098 73.2185 -87.6737 -111.827 67.9649 
-88.4781 -110.662 68.829 -89.8646 -109.535 69.2384 -91.6454 -108.458 69.1381 
-92.9951 -107.172 69.2431 -93.6908 -105.769 70.0518 -94.4462 -104.74 71.0663 
-95.4404 -104.116 71.8018 -96.0444 -103.583 72.4633 -95.9451 -103.134 73.2931 
-91.2196 -113.451 75.6436 -92.1475 -112.13 75.4959 -91.7297 -112.744 76.5643 
-93.0026 -110.903 75.3136 -92.557 -111.39 76.4113 -91.9717 -111.948 77.4334 
-93.8021 -109.424 75.2656 -93.3684 -110.015 76.2959 -92.636 -110.512 77.3393 
-91.7821 -110.965 78.1594 -94.7934 -107.937 75.2792 -94.6339 -108.608 76.3502 
-93.8018 -109.195 77.4169 -92.5779 -109.607 78.2159 -91.5566 -110.045 78.9326 
-95.848 -106.937 75.0541 -95.9035 -107.48 76.3249 -95.3428 -108.005 77.5246 
-93.9686 -108.466 78.4387 -92.5038 -108.84 79.0766 -91.4633 -109.378 79.8912 
-96.4689 -105.904 74.608 -96.2989 -106.432 76.0056 -95.9219 -106.83 77.3055 
-94.9038 -107.26 78.3981 -93.5294 -107.715 79.2238 -92.3052 -108.195 79.972 
-91.3065 -108.844 80.8693 -96.4369 -104.548 74.2967 -95.9952 -105.11 75.6097 
-95.5051 -105.542 76.8399 -94.7641 -105.918 77.9468 -93.8229 -106.422 79.0252 
-92.9139 -106.965 79.9867 -91.9684 -107.567 80.8641 -91.0317 -108.267 81.7389 
-95.8753 -103.393 74.2408 -95.4827 -103.893 75.3734 -95.0174 -104.376 76.457 
-94.4321 -104.711 77.461 -93.7286 -105.111 78.6118 -93.1027 -105.647 79.8254 
-92.3961 -106.227 80.8142 -91.4935 -106.901 81.6395 -90.6808 -107.622 82.4701 
-94.9919 -102.582 73.9856 -94.8376 -102.941 75.0039 -93.9117 -102.202 74.6596 
-93.7335 -102.619 75.6841 -92.8496 -101.618 75.306 -94.5568 -103.446 76.0595 
-92.5756 -101.886 76.4367 -91.837 -100.772 76.1217 -93.5373 -102.931 76.7672 
-94.217 -103.763 77.0733 -91.5281 -100.918 77.4241 -90.7818 -100.158 77.1319 
-92.2742 -101.983 77.7145 -93.2426 -102.983 77.9933 -93.6915 -103.963 78.2593 
-90.5534 -100.292 78.4605 -89.3449 -99.8382 78.0922 -91.148 -101.132 78.7661 
-91.921 -102.101 79.1049 -92.8156 -103.132 79.4454 -93.1265 -104.347 79.6707 
-89.1325 -99.8528 79.3342 -87.6027 -99.5102 78.8239 -90.1403 -100.62 79.7047 
-90.7066 -101.584 80.0057 -91.5339 -102.487 80.4374 -92.2744 -103.573 80.7804 
-92.4833 -104.9 80.857 -87.3874 -99.5285 80.0137 -86.0933 -99.268 79.3907 
-88.7049 -100.125 80.5311 -89.5406 -101.159 80.7816 -90.176 -102.158 81.0649 
-90.8881 -103.077 81.4425 -91.3764 -104.235 81.6337 -91.5451 -105.59 81.6608 
-85.9054 -99.5376 80.5404 -84.9537 -99.1792 79.9352 -87.0722 -99.8993 81.1653 
-88.1079 -100.678 81.5194 -88.8508 -101.765 81.7156 -89.4462 -102.815 81.9615 
-89.9479 -103.881 82.1473 -90.3553 -105.106 82.2839 -90.6373 -106.409 82.4371 
-84.7691 -99.6529 80.9924 -83.983 -99.0831 80.4943 -85.7094 -100.037 81.5852 
-86.6756 -100.522 82.0467 -87.528 -101.365 82.352 -88.2132 -102.474 82.608 
-88.7319 -103.65 82.7445 -89.2043 -104.83 82.843 -89.7095 -106.018 83.0921 
-90.064 -107.178 83.316 -95.0358 -102.695 72.8616 -94.0969 -102.127 73.4934 
-93.7857 -102.314 72.2886 -93.0106 -101.616 72.8683 -92.5703 -101.749 71.5175 
-93.1432 -101.501 74.1304 -91.8557 -100.961 72.1432 -91.4863 -101.101 70.8354 
-92.2015 -100.769 73.5275 -92.1612 -100.687 74.8235 -90.5563 -100.37 71.5438 
-90.2163 -100.745 70.5529 -90.9172 -100.182 72.881 -91.0891 -100.027 74.2784 
-90.9683 -100.049 75.7211 -89.0344 -100.071 71.2306 -88.5951 -100.747 70.5402 
-89.38 -99.8171 72.3604 -89.5689 -99.6896 73.707 -89.4915 -99.6917 75.2358 
-89.3698 -99.8065 76.7817 -87.3798 -100.085 71.1302 -86.867 -100.9 70.5407 
-87.8045 -99.6779 72.1306 -88.0383 -99.4766 73.3599 -87.9447 -99.3548 74.7833 
-87.6827 -99.4518 76.3695 -87.5598 -99.5516 77.7305 -85.7955 -100.322 71.1595 
-85.3478 -101.153 70.608 -86.2212 -99.778 72.0964 -86.5301 -99.4227 73.3161 
-86.618 -99.0096 74.5607 -86.4693 -98.7953 75.957 -86.225 -98.9351 77.3401 
-86.0748 -99.1263 78.4243 -84.4646 -100.724 71.3325 -84.1629 -101.573 70.8522 
-84.7487 -100.054 72.1011 -84.959 -99.5662 73.289 -85.1272 -98.9669 74.4899 
-85.2736 -98.3042 75.5917 -85.2891 -98.0495 76.8567 -85.1232 -98.2872 78.0696 
-84.9556 -98.7264 79.0416 -83.4142 -101.25 71.5992 -83.2493 -102.116 71.17 
-83.5483 -100.472 72.1559 -83.6004 -99.8512 73.1512 -83.6468 -99.217 74.3625 
[...]
CELL_DATA 2000
SCALARS Distance double
LOOKUP_TABLE default
165.019 165.071 164.922 164.614 165.044 164.932 164.683 164.515 164.268 
165.102 164.916 164.713 164.593 164.452 164.295 164.251 165.334 165.07 
164.795 164.624 164.462 164.409 164.336 164.334 164.405 165.273 165.224 
164.848 164.684 164.365 164.314 164.13 164.204 164.084 164.286 164.251 
164.606 164.859 164.544 164.582 164.228 164.175 163.95 163.955 163.799 
163.853 163.679 163.876 163.736 163.907 164.133 164.035 164.194 164.037 
164.034 163.886 163.855 163.784 163.722 163.59 163.493 163.328 163.374 
163.283 163.642 163.689 163.727 163.847 163.886 163.917 163.835 163.806 
163.7 163.709 163.593 163.536 163.351 163.24 163.1 163.098 163.047 
163.54 163.556 163.538 163.662 163.714 163.817 163.731 163.717 163.467 
163.479 163.235 163.34 163.13 163.197 162.994 163.008 162.856 162.899 
162.763 165.199 165.386 165.339 165.308 165.529 165.557 165.646 165.443 
165.319 165.71 165.762 165.933 165.788 165.713 165.447 165.358 165.856 
165.963 166.115 166.032 165.971 165.797 165.745 165.573 165.582 165.787 
166.057 166.28 166.231 166.232 166.055 166.071 165.935 165.945 165.764 
165.566 165.399 165.887 166.331 166.453 166.665 166.493 166.665 166.419 
166.469 166.13 165.814 165.432 164.886 164.791 165.403 165.937 166.377 
166.718 166.884 167.158 167.111 167.203 166.807 166.406 165.753 165.072 
164.588 164.083 164.112 164.721 165.149 165.752 165.995 166.521 166.691 
167.162 167.222 167.311 166.882 166.375 165.585 164.937 164.351 163.982 
163.759 163.414 163.977 164.3 164.863 164.999 165.527 165.551 166.188 
166.192 166.756 166.422 166.46 165.701 165.334 164.663 164.328 164.02 
163.82 163.686 163.112 162.826 163.324 163.949 162.323 162.963 163.568 
164.057 164.544 161.485 162.303 162.963 163.588 164.048 164.515 164.993 
160.428 161.29 161.996 162.851 163.432 164.003 164.433 164.956 165.518 
159.512 160.208 160.815 161.743 162.412 163.247 163.671 164.286 164.593 
165.302 165.642 158.866 159.395 159.873 160.597 161.185 162.073 162.514 
163.278 163.427 164.128 164.223 165.028 165.049 158.309 158.815 159.264 
159.793 160.258 160.926 161.356 162.056 162.284 162.891 163.006 163.638 
163.776 164.381 164.362 157.698 158.241 158.685 159.201 159.587 160.116 
160.483 161.056 161.375 161.903 162.151 162.646 162.91 163.408 163.619 
163.967 163.959 157.058 157.592 157.987 158.536 158.863 159.397 159.69 
160.247 160.563 161.118 161.414 161.918 162.171 162.668 162.88 163.333 
163.413 163.691 163.618 163.339 163.048 163.047 162.714 162.551 162.639 
162.298 162.373 162.173 161.93 162.098 161.848 161.959 161.803 161.942 
161.82 161.199 161.462 161.298 161.515 161.411 161.588 161.42 161.514 
161.217 160.307 160.648 160.493 160.879 160.806 161.121 160.902 161.024 
160.593 160.692 160.391 159.385 159.688 159.462 159.927 159.854 160.347 
160.143 160.383 159.905 159.993 159.612 159.911 159.91 158.553 158.783 
158.479 158.857 158.734 159.267 159.122 159.505 159.091 159.251 158.848 
159.122 159.062 159.551 159.637 157.718 157.958 157.627 157.918 157.731 
158.17 158.051 158.47 158.16 158.398 158.001 158.291 158.144 158.642 
158.661 159.168 159.041 156.844 157.109 156.796 157.074 156.852 157.218 
157.079 157.472 157.229 157.498 157.11 157.375 157.105 157.585 157.506 
158.085 157.956 158.406 158.115 163.34 162.841 163.176 163.358 162.366 
162.694 162.976 163.305 163.538 161.96 162.275 162.5 162.873 163.1 
163.436 163.525 161.364 161.801 161.992 162.376 162.533 162.885 162.918 
163.223 163.179 160.759 161.207 161.603 161.95 162.234 162.433 162.495 
162.628 162.574 162.82 162.865 160.451 160.821 161.411 161.744 162.217 
162.36 162.53 162.466 162.405 162.38 162.39 162.628 162.789 160.085 
160.541 160.988 161.488 161.831 162.227 162.311 162.472 162.33 162.328 
162.2 162.287 162.356 162.619 162.758 159.309 159.884 160.056 160.704 
160.783 161.41 161.303 161.809 161.587 161.948 161.758 162.012 161.952 
162.209 162.278 162.564 162.649 158.312 158.872 158.932 159.541 159.56 
160.153 160.052 160.575 160.419 160.925 160.85 161.322 161.301 161.676 
161.668 162.013 162.053 162.404 162.475 157.773 157.192 157.776 158.375 
156.586 157.218 157.836 158.41 158.985 155.837 156.538 157.192 157.858 
158.423 158.977 159.45 155.163 155.771 156.377 157.096 157.716 158.376 
158.871 159.391 159.836 154.653 155.196 155.747 156.32 156.928 157.605 
158.242 158.848 159.395 159.863 160.37 153.968 154.639 155.231 155.797 
156.362 156.922 157.567 158.211 158.875 159.454 160.006 160.455 160.913 
153.166 153.856 154.489 155.193 155.797 156.401 156.969 157.575 158.174 
158.829 159.377 159.976 160.421 160.909 161.288 152.607 153.15 153.776 
154.425 155.067 155.735 156.318 156.948 157.488 158.108 158.62 159.235 
159.716 160.304 160.774 161.27 161.689 152.263 152.723 153.336 153.846 
154.463 155.035 155.642 156.256 156.851 157.453 158.015 158.563 159.106 
159.645 160.227 160.768 161.342 161.767 162.203 157.24 156.12 156.683 
156.632 154.79 155.482 155.465 156.052 155.981 153.358 154.088 154.115 
154.799 154.739 155.333 155.237 152.043 152.661 152.667 153.39 153.374 
154.038 153.991 154.596 154.588 150.937 151.395 151.31 151.963 151.963 
152.65 152.643 153.32 153.345 154.008 154.041 149.983 150.328 150.188 
150.712 150.726 151.324 151.334 151.967 151.986 152.687 152.7 153.39 
153.332 149.213 149.446 149.318 149.716 149.755 150.241 150.259 150.755 
150.732 151.33 151.338 152.006 151.978 152.615 152.56 148.765 148.841 
148.719 148.963 148.978 149.373 149.375 149.776 149.667 150.128 150.051 
150.662 150.656 151.304 151.312 151.933 151.996 148.643 148.581 148.426 
148.488 148.423 148.669 148.646 148.956 148.823 149.133 148.953 149.41 
149.348 149.983 150.021 150.703 150.797 151.469 151.62 156.255 155.387 
155.953 156.229 154.539 155.095 155.398 155.967 156.312 153.727 154.25 
154.523 155.114 155.472 156.101 156.502 152.903 153.406 153.564 154.158 
154.418 155.141 155.509 156.241 156.575 151.923 152.475 152.543 153.129 
153.269 153.965 154.241 155.062 155.384 156.165 156.431 150.79 151.372 
151.482 152.101 152.277 152.859 153.068 153.754 154.06 154.869 155.24 
156.021 156.43 149.792 150.254 150.417 151.063 151.37 151.965 152.203 
152.724 152.968 153.619 154.029 154.842 155.403 156.21 156.805 149.167 
149.421 149.522 150.056 150.363 151.032 151.323 151.899 152.117 152.665 
153.02 153.734 154.323 155.18 155.849 156.667 157.238 148.825 148.944 
148.946 149.27 149.461 150.021 150.31 150.944 151.227 151.823 152.182 
152.831 153.389 154.168 154.839 155.663 156.252 157.009 157.435 156.09 
155.506 155.598 155.198 154.837 154.958 154.521 154.668 154.301 154.107 
154.223 153.715 153.892 153.496 153.757 153.472 153.428 153.484 152.925 
153.04 152.616 152.896 152.682 152.997 152.748 152.818 152.852 152.321 
152.337 151.932 152.095 151.966 152.273 152.16 152.319 151.922 152.18 
152.264 151.834 151.857 151.509 151.568 151.466 151.701 151.7 151.851 
151.534 151.444 150.863 151.609 151.676 151.379 151.453 151.201 151.234 
151.082 151.255 151.242 151.453 151.243 151.173 150.635 150.415 149.88 
151.286 151.251 151.042 151.103 150.956 150.98 150.8 150.869 150.749 
150.95 150.79 150.872 150.468 150.301 149.805 149.604 149.263 151.183 
151.067 150.856 150.866 150.75 150.779 150.624 150.622 150.439 150.499 
150.313 150.404 150.109 150.09 149.697 149.58 149.247 149.131 148.916 
151.062 150.751 150.823 150.733 150.48 150.528 150.442 150.575 150.582 
150.359 150.319 150.201 150.276 150.269 150.44 150.453 150.355 150.272 
150.136 150.105 150.061 150.15 150.161 150.293 150.282 150.324 150.252 
150.089 150.055 149.943 149.98 149.917 150.01 149.936 150.077 150.048 
150.289 150.169 149.913 149.904 149.695 149.767 149.573 149.686 149.477 
149.635 149.476 149.75 149.72 150.237 150.081 149.696 149.649 149.351 
149.407 149.14 149.235 148.951 149.081 148.851 149.089 149.006 149.363 
149.359 150.023 149.912 149.456 149.397 149.066 149.068 148.809 148.826 
148.575 148.606 148.401 148.517 148.446 148.697 148.735 149.039 149.044 
149.71 149.622 149.21 149.155 148.872 148.841 148.615 148.581 148.368 
148.345 148.181 148.207 148.136 148.26 148.288 148.512 148.561 148.789 
148.777 149.433 149.168 149.163 149.028 149.135 149.059 148.883 148.857 
148.755 148.945 148.975 148.743 148.728 148.515 148.569 148.459 148.8 
148.736 148.5 148.477 148.191 148.244 148.068 148.23 148.173 149.107 
148.788 148.545 148.32 148.056 147.948 147.794 147.86 147.86 148.011 
148.042 149.524 149.167 148.804 148.502 148.209 147.988 147.851 147.764 
147.791 147.821 147.902 147.972 148.042 149.838 149.464 149 148.697 
148.326 148.141 147.973 147.905 147.9 147.874 147.91 147.909 147.969 
148.031 148.154 150.395 149.861 149.462 148.974 148.638 148.292 148.145 
148.01 148.049 148.009 148.062 147.991 148.016 147.995 148.097 148.193 
148.376 151.231 150.625 150.341 149.712 149.486 148.9 148.8 148.39 
148.48 148.274 148.437 148.266 148.341 148.163 148.221 148.176 148.316 
148.42 148.592 149.706 150.066 149.671 149.403 150.575 150.124 149.835 
149.509 149.35 151.223 150.73 150.436 149.992 149.709 149.393 149.149 
152.08 151.504 151.252 150.677 150.318 149.794 149.459 149.13 148.99 
153.153 152.489 152.25 151.59 151.26 150.563 150.24 149.661 149.586 
149.244 149.373 154.277 153.6 153.302 152.617 152.305 151.609 151.372 
150.701 150.666 150.131 150.273 149.858 149.949 155.338 154.695 154.402 
153.686 153.378 152.683 152.505 151.892 151.881 151.327 151.388 150.87 
150.89 150.385 150.334 156.334 155.746 155.542 154.84 154.602 153.856 
153.72 153.065 153.076 152.507 152.533 151.969 151.943 151.382 151.357 
150.814 150.852 157.247 156.734 156.589 155.985 155.814 155.133 155.026 
154.358 154.37 153.743 153.772 153.133 153.115 152.489 152.504 151.933 
152.028 151.491 151.641 150.168 151.053 150.577 150.51 151.726 151.441 
151.417 150.962 150.969 152.172 152.037 152.189 151.854 151.861 151.43 
151.529 152.783 152.571 152.846 152.6 152.736 152.332 152.411 152.038 
152.309 153.636 153.33 153.592 153.32 153.553 153.216 153.401 153 
153.285 152.966 153.402 154.588 154.233 154.491 154.155 154.433 154.102 
154.427 154.063 154.443 154.066 154.503 154.158 154.587 155.654 155.248 
155.568 155.165 155.537 155.14 155.585 155.202 155.685 155.29 155.722 
155.312 155.675 155.295 155.628 156.697 156.346 156.704 156.331 156.773 
156.382 156.873 156.473 156.958 156.552 156.951 156.516 156.804 156.374 
156.637 156.272 156.569 157.534 157.307 157.666 157.414 157.838 157.57 
158.009 157.703 158.095 157.75 158.07 157.677 157.921 157.484 157.7 
157.284 157.535 157.186 157.464 158.058 158.984 158.423 158.258 159.925 
159.375 159.196 158.641 158.473 160.731 160.251 160.052 159.548 159.366 
158.847 158.65 161.551 161.027 160.849 160.355 160.169 159.684 159.49 
158.975 158.726 162.593 161.943 161.745 161.176 161.037 160.524 160.379 
159.83 159.605 159.016 158.706 163.654 163.026 162.726 162.096 161.909 
161.419 161.343 160.815 160.633 159.974 159.649 158.971 158.579 164.417 
163.962 163.631 163.023 162.722 162.238 162.129 161.723 161.565 161.003 
160.64 159.946 159.491 158.802 158.36 164.832 164.557 164.293 163.822 
163.525 163.032 162.874 162.454 162.271 161.787 161.384 160.799 160.283 
159.668 159.184 158.565 158.156 164.969 164.824 164.579 164.323 164.081 
163.754 163.615 163.227 163.027 162.49 162.038 161.416 160.848 160.3 
159.809 159.307 158.904 158.371 158.028 164.871 164.448 164.608 164.461 
164.072 164.154 164.068 164.215 164.091 164.117 163.965 163.898 163.919 
163.957 163.982 163.834 164.511 164.306 164.267 164.011 164.001 163.928 
163.816 163.697 163.277 164.574 164.715 164.769 164.527 164.273 164.004 
163.612 163.497 162.908 162.807 162.104 164.027 164.489 164.593 164.732 
164.305 164.088 163.33 163.122 162.318 162.218 161.438 161.425 160.791 
163.425 163.807 163.853 164.176 163.756 163.745 162.921 162.722 161.886 
161.689 160.982 160.831 160.261 160.235 159.8 163.095 163.288 163.241 
163.424 163.045 163.053 162.372 162.25 161.58 161.415 160.854 160.618 
160.099 159.894 159.449 159.383 158.987 162.752 162.936 162.796 162.909 
162.512 162.465 161.842 161.74 161.155 161.116 160.631 160.534 159.999 
159.8 159.247 159.102 158.632 158.584 158.157 157.682 158.155 157.632 
157.052 158.755 158.132 157.516 156.958 156.324 159.481 158.79 158.091 
157.44 156.803 156.244 155.627 160.098 159.483 158.73 158.031 157.334 
156.758 156.206 155.633 155.043 160.595 160.023 159.319 158.641 157.916 
157.309 156.758 156.23 155.688 155.073 154.43 161.271 160.61 159.993 
159.274 158.616 157.937 157.37 156.798 156.264 155.681 155.038 154.4 
153.725 162 161.382 160.779 160.051 159.418 158.702 158.109 157.456 
156.872 156.252 155.626 154.995 154.349 153.716 153.121 162.376 161.976 
161.336 160.757 160.047 159.435 158.776 158.165 157.515 156.875 156.218 
155.59 154.982 154.373 153.818 153.198 152.676 162.396 162.16 161.541 
161.117 160.377 159.886 159.197 158.698 158.06 157.488 156.841 156.211 
155.607 155.007 154.47 153.89 153.374 152.781 152.282 163 163.615 
163.066 162.622 164.177 163.611 163.115 162.676 162.241 164.776 164.166 
163.608 163.124 162.672 162.227 161.694 165.305 164.782 164.241 163.678 
163.179 162.657 162.114 161.595 161.014 165.458 165.179 164.689 164.276 
163.74 163.207 162.592 162.021 161.414 160.925 160.38 165.294 165.15 
164.673 164.492 163.975 163.636 162.981 162.471 161.805 161.32 160.769 
160.319 159.747 165.191 165.009 164.61 164.418 164.01 163.747 163.181 
162.754 162.101 161.663 161.125 160.717 160.199 159.681 159.071 165.216 
165.05 164.798 164.54 164.259 163.92 163.474 162.997 162.396 161.928 
161.408 161.043 160.592 160.156 159.616 159.05 158.503 165.147 165.118 
164.948 164.794 164.539 164.262 163.833 163.384 162.772 162.262 161.691 
161.306 160.869 160.521 160.056 159.588 159.066 158.548 158.101 162.45 
162.136 162.03 161.489 161.761 161.71 161.154 161.038 160.447 161.168 
161.222 160.621 160.604 159.965 159.924 159.267 160.509 160.565 159.974 
159.976 159.321 159.327 158.654 158.635 157.9 159.896 159.937 159.378 
159.359 158.716 158.675 157.994 157.966 157.245 157.198 156.463 159.163 
159.25 158.614 158.701 158.018 158.051 157.321 157.304 156.554 156.522 
155.797 155.784 155.115 158.414 158.438 157.732 157.82 157.136 157.247 
156.564 156.605 155.878 155.844 155.126 155.109 154.455 154.473 153.841 
157.914 157.804 157.177 157.081 156.518 156.485 155.997 155.966 155.436 
155.308 154.677 154.529 153.901 153.843 153.256 153.235 152.652 157.614 
157.471 156.957 156.773 156.302 156.142 155.761 155.649 155.275 155.093 
154.566 154.278 153.643 153.414 152.83 152.73 152.221 152.163 151.713 
162.491 161.451 162.033 162.156 160.382 160.935 160.957 161.595 161.626 
159.211 159.803 159.743 160.343 160.285 160.93 160.809 157.833 158.512 
158.424 159.063 158.964 159.586 159.474 160.053 159.867 156.401 157.069 
156.989 157.664 157.586 158.246 158.18 158.786 158.694 159.196 159.062 
155.073 155.68 155.61 156.251 156.193 156.852 156.794 157.463 157.406 
158.031 157.95 158.479 158.4 153.754 154.344 154.223 154.882 154.808 
155.478 155.398 156.055 155.971 156.654 156.59 157.262 157.203 157.813 
157.773 152.506 153.003 152.81 153.439 153.348 154.059 154.013 154.682 
154.618 155.25 155.217 155.875 155.882 156.539 156.544 157.169 157.162 
151.583 151.887 151.706 152.132 152.071 152.657 152.7 153.345 153.379 
153.982 153.997 154.599 154.653 155.277 155.345 155.955 155.995 156.577 
156.579 150.193 150.524 150.606 151.057 150.658 150.834 151.18 151.321 
151.602 150.582 150.794 151.059 151.268 151.467 151.66 151.919 150.512 
150.65 150.876 151.073 151.326 151.51 151.827 152.043 152.508 150.512 
150.597 150.804 150.945 151.276 151.46 151.889 152.073 152.591 152.811 
153.392 150.545 150.615 150.859 150.963 151.363 151.534 152.073 152.244 
152.815 152.978 153.57 153.763 154.363 150.692 150.717 151.044 151.116 
151.63 151.773 152.463 152.592 153.279 153.331 153.965 154.041 154.686 
154.813 155.444 150.984 150.973 151.357 151.403 151.981 152.136 152.914 
153.098 153.871 153.924 154.554 154.545 155.136 155.202 155.803 155.918 
156.478 151.347 151.342 151.766 151.793 152.347 152.49 153.201 153.471 
154.2 154.417 154.964 155.049 155.472 155.569 156.017 156.186 156.653 
156.831 157.276 
POINT_DATA 1002
SCALARS Distance double
LOOKUP_TABLE default
164.754 165.101 165.205 164.811 165.201 164.281 164.787 165.15 164.458 
164.069 164.817 165.344 164.539 164.363 164.328 165.053 165.612 164.522 
164.332 164.318 164.574 165.012 165.201 164.484 164.095 163.969 163.971 
164.214 164.371 164.253 164.256 163.952 163.808 163.625 163.447 163.551 
163.78 163.693 163.96 163.901 163.811 163.739 163.412 163.13 163.174 
163.598 163.638 163.808 163.896 163.713 163.582 163.463 163.183 162.993 
162.978 163.438 163.548 163.584 163.755 163.548 163.147 162.982 162.952 
162.851 162.729 162.584 165.295 165.523 165.343 165.81 165.438 165.61 
166.043 165.653 165.95 165.585 166.198 165.723 166.109 165.862 165.794 
166.257 165.386 166.392 166.201 166.156 165.891 166.024 164.794 166.717 
166.892 166.908 166.349 165.209 165.397 164.187 166.395 167.048 167.537 
167.17 165.707 164.308 164.584 163.57 165.469 166.125 166.904 167.23 
166.253 164.802 163.95 163.78 162.895 164.54 164.992 165.538 166.137 
165.903 164.953 164.238 163.876 162.662 163.531 162.289 163.071 161.613 
164.104 162.228 160.617 163.592 164.452 161.028 159.644 162.737 163.97 
164.881 159.955 158.94 161.467 163.036 164.01 164.891 159.294 158.368 
160.373 161.719 162.79 163.487 164.297 158.788 157.774 159.715 160.691 
161.664 162.402 163.135 163.9 158.165 157.156 159.105 159.946 160.818 
161.65 162.407 163.194 163.768 157.457 156.564 158.343 159.145 159.983 
160.893 161.704 162.409 163.041 163.434 163.04 162.673 162.434 162.209 
162.018 162.072 161.683 161.657 161.741 161.653 161.005 161.21 161.373 
161.154 160.849 160.051 160.427 160.787 160.553 160.079 160.25 159.034 
159.309 159.832 159.817 159.353 159.41 160.073 158.176 158.234 158.666 
158.873 158.591 158.607 159.175 159.667 157.36 157.349 157.618 157.875 
157.738 157.683 158.149 158.664 158.795 156.516 156.518 156.695 156.931 
156.888 156.71 156.927 157.444 157.761 157.789 163.055 162.597 163.28 
162.16 162.748 163.278 161.596 162.224 162.633 162.848 161.183 162.036 
162.45 162.408 162.471 161.036 162.019 162.602 162.547 162.267 162.437 
160.519 161.414 162.064 162.272 162.177 162.162 162.474 159.469 160.183 
160.755 161.095 161.399 161.703 161.997 162.37 158.355 158.975 159.525 
159.879 160.286 160.869 161.334 161.677 162.116 157.179 157.797 156.603 
157.255 155.902 158.459 156.46 155.152 157.862 158.95 155.705 154.635 
156.971 158.32 159.347 155.252 154.076 156.289 157.53 158.883 159.961 
154.593 153.24 155.852 156.95 158.224 159.523 160.54 153.741 152.523 
155.137 156.405 157.555 158.745 159.869 160.859 153.189 152.112 154.401 
155.667 156.886 158.026 159.094 160.19 161.277 152.871 151.807 153.951 
155.042 156.219 157.451 158.573 159.654 160.839 161.912 156.756 156.116 
155.492 154.842 154.039 155.44 153.387 152.652 154.119 154.66 151.948 
151.533 152.669 153.337 153.98 150.708 150.575 151.277 151.949 152.648 
153.415 149.705 149.674 150.156 150.75 151.31 152.008 152.686 148.964 
149.006 149.292 149.823 150.212 150.681 151.33 151.923 148.559 148.735 
148.639 149.009 149.299 149.497 149.98 150.662 151.355 148.452 148.744 
148.27 148.367 148.568 148.608 148.758 149.31 150.095 150.943 155.688 
155.658 154.818 154.813 153.99 155.728 153.953 153.244 154.808 155.887 
153.027 152.444 153.718 154.735 155.913 151.962 151.371 152.647 153.449 
154.547 155.7 150.79 150.214 151.701 152.49 153.275 154.365 155.659 
149.762 149.405 150.703 151.713 152.415 153.221 154.504 156.047 149.101 
148.999 149.707 150.686 151.577 152.364 153.478 154.989 156.511 156.02 
155.09 155.411 154.377 154.728 154.099 153.57 154.027 153.205 153.188 
152.86 153.401 152.35 152.299 152.564 152.302 152.755 151.808 151.642 
151.964 151.958 151.74 152.05 151.466 151.259 151.504 151.64 151.01 
151.244 151.539 151.159 150.984 151.009 151.221 150.875 150.025 150.976 
151.347 150.913 150.803 150.62 150.626 150.528 150.008 149.389 150.883 
151.322 150.714 150.627 150.448 150.257 150.063 149.74 149.348 149.008 