# vtk DataFile Version 4.0
vtk output
ASCII
DATASET POLYDATA
POINTS 1002 float
-76.3036 -111.098 69.6006 -75.8621 -112.251 69.5508 -76.157 -112.018 68.6223 
-76.7963 -110.96 68.737 -76.5563 -111.762 67.6524 -77.1731 -110.164 69.7239 
-77.4259 -110.754 67.8531 -77.1485 -111.528 66.71 -77.8755 -110.034 68.9721 
-78.3223 -109.2 69.9048 -78.2915 -110.558 67.0251 -78.0532 -111.38 65.9623 
-78.6773 -109.776 68.2112 -79.0656 -108.925 69.2484 -79.3096 -107.922 70.1732 
-79.3366 -110.398 66.3911 -79.145 -111.19 65.4235 -79.6214 -109.492 67.4332 
-79.8811 -108.547 68.5421 -79.9989 -107.505 69.5269 -80.111 -106.549 70.5441 
-80.3594 -110.041 65.8748 -80.2449 -110.776 64.8986 -80.5478 -109.121 66.7491 
-80.7336 -108.076 67.6914 -80.7881 -106.994 68.7576 -80.8181 -106.015 69.8244 
-80.9641 -105.254 70.9071 -81.4718 -109.464 65.3349 -81.3806 -110.232 64.3853 
-81.5169 -108.572 66.198 -81.5355 -107.474 66.9076 -81.5576 -106.351 67.8276 
-81.5895 -105.376 68.9829 -81.6985 -104.614 70.1407 -81.7878 -103.919 71.1698 
-82.7041 -108.961 64.8957 -82.5287 -109.793 64.0993 -82.7412 -108.072 65.7263 
-82.5595 -106.932 66.3649 -82.3821 -105.738 67.0499 -82.3555 -104.754 68.0888 
-82.4622 -104.016 69.325 -82.5545 -103.361 70.4597 -82.4836 -102.63 71.3781 
-83.7628 -108.595 64.6394 -83.5774 -109.512 64.0538 -83.8718 -107.674 65.2715 
-83.7212 -106.538 65.8877 -83.4467 -105.315 66.5233 -83.2702 -104.296 67.3829 
-83.2692 -103.542 68.5098 -83.3485 -102.916 69.6911 -83.3153 -102.238 70.7276 
-83.1295 -101.507 71.5665 -84.6016 -108.198 64.4071 -84.5327 -109.263 64.0478 
-84.6398 -107.155 64.7552 -84.5618 -106.024 65.2588 -84.4237 -104.889 65.9643 
-84.2913 -103.928 66.8255 -84.1832 -103.141 67.818 -84.1418 -102.479 68.8864 
-84.1012 -101.842 69.9291 -83.9553 -101.152 70.8753 -83.7368 -100.507 71.693 
-75.6758 -113.349 68.9555 -75.9583 -113.04 67.9039 -75.3086 -114.367 68.3162 
-75.6445 -114.066 67.1424 -74.7328 -115.29 67.5727 -76.3029 -112.704 66.8024 
-75.1742 -115.073 66.2838 -74.2894 -116.298 66.8001 -75.9732 -113.701 65.9067 
-76.8509 -112.408 65.7656 -74.9384 -116.162 65.5991 -74.4178 -117.377 66.4028 
-75.6338 -114.763 65.0082 -76.5346 -113.321 64.7704 -77.8086 -112.159 64.9743 
-75.4209 -117.232 65.5503 -75.1883 -118.3 66.541 -75.8234 -115.992 64.608 
-76.5038 -114.447 64.039 -77.7143 -113.005 64.068 -79.0811 -111.889 64.4502 
-76.5294 -118.069 65.9289 -76.321 -119.042 66.8043 -76.8004 -117.12 64.9234 
-77.2117 -115.813 64.0646 -78.1367 -114.213 63.774 -79.3459 -112.822 63.8675 
-80.3828 -111.535 64.0309 -77.7514 -118.757 66.2168 -77.5225 -119.73 66.9296 
-78.0483 -117.875 65.4057 -78.4027 -116.91 64.5161 -79.0947 -115.549 63.9969 
-80.0823 -114.073 63.8564 -80.8972 -112.633 63.6739 -81.6109 -111.123 63.6626 
-78.8097 -119.446 66.3942 -78.6453 -120.354 67.045 -79.0917 -118.463 65.7439 
-79.4921 -117.57 64.8872 -80.1113 -116.547 64.1188 -80.9793 -115.246 63.7497 
-81.7319 -113.827 63.45 -82.2119 -112.298 63.2112 -82.7852 -110.783 63.4646 
-79.7669 -120.058 66.6137 -79.672 -120.812 67.2406 -79.9942 -119.061 66.0386 
-80.4103 -118.101 65.2237 -80.993 -117.268 64.2245 -81.7354 -116.209 63.4667 
-82.4961 -114.829 62.9743 -83.0114 -113.384 62.6547 -83.3782 -111.956 62.8244 
-83.8941 -110.568 63.4695 -80.7743 -120.728 67.0637 -80.9542 -119.867 66.4683 
-82.1468 -120.492 66.8847 -82.5403 -119.53 66.1412 -83.7862 -120.148 66.5756 
-81.3559 -118.809 65.7242 -84.3163 -119.108 65.6055 -85.3284 -119.637 66.2641 
-83.1084 -118.56 65.1516 -81.9286 -117.964 64.6562 -85.7915 -118.457 65.3003 
-86.5436 -118.761 66.2281 -84.8111 -118.195 64.6358 -83.6152 -117.846 64.1137 
-82.5314 -117.124 63.577 -86.9598 -117.489 65.4402 -87.6097 -117.645 66.3995 
-86.1879 -117.418 64.5423 -85.1161 -117.261 63.9347 -83.9978 -116.654 63.2229 
-83.1703 -115.712 62.7342 -88.0868 -116.441 65.6883 -88.6771 -116.6 66.5193 
-87.4846 -116.38 64.6709 -86.536 -116.18 63.9498 -85.3406 -115.621 63.2648 
-84.4138 -114.825 62.4138 -83.7525 -114.083 62.1678 -89.2077 -115.406 65.8391 
-89.7672 -115.634 66.5556 -88.7514 -115.328 64.827 -88.0266 -115.134 63.9692 
-86.802 -114.607 63.4241 -85.6154 -113.936 62.7239 -84.8511 -113.339 62.1284 
-84.1699 -112.716 62.2554 -90.3312 -114.367 65.9376 -90.8752 -114.696 66.5821 
-89.9053 -114.228 65.0554 -89.406 -114.133 64.1753 -88.4095 -113.796 63.6594 
-87.0818 -113.261 63.307 -86.05 -112.734 62.8634 -85.3398 -112.143 62.7052 
-84.6131 -111.375 63.0179 -91.4439 -113.465 66.0107 -91.9016 -113.86 66.6326 
-91.0257 -113.213 65.2718 -90.629 -113.072 64.4902 -89.9523 -112.82 63.9406 
-88.822 -112.356 63.7219 -87.6224 -111.823 63.5744 -86.7178 -111.267 63.4292 
-85.9568 -110.594 63.4922 -85.1875 -109.867 63.7542 -85.5166 -108.077 64.0517 
-86.3794 -108.518 63.841 -86.5546 -106.476 63.6869 -87.3278 -109.098 63.7609 
-87.6622 -106.838 63.6429 -87.6693 -104.987 63.5733 -88.2999 -109.711 63.7903 
-88.7924 -107.383 63.7773 -88.8749 -105.528 63.7798 -88.8817 -104.033 64.135 
-89.4468 -110.374 63.7805 -90.0068 -108.059 63.7846 -90.1383 -106.208 63.9679 
-90.1176 -104.625 64.2805 -90.2546 -103.054 64.6504 -90.6316 -111.115 63.7929 
-91.3023 -108.939 63.5966 -91.59 -106.982 63.7882 -91.5594 -105.286 64.2268 
-91.5943 -103.368 64.409 -91.6343 -101.731 64.646 -91.4576 -111.754 64.1412 
-92.3013 -109.965 63.6975 -92.8726 -107.949 63.5939 -93.0209 -106.067 64.0756 
-92.9576 -104.04 64.406 -92.8586 -102.05 64.4556 -92.6468 -100.744 64.8618 
-91.9121 -112.163 64.8339 -92.8438 -110.854 64.3431 -93.5897 -109.042 64.0038 
-93.945 -107.008 64.2677 -93.9215 -105.014 64.8278 -93.7184 -103.035 65.0485 
-93.5394 -101.38 65.1965 -93.355 -100.26 65.6708 -92.2549 -112.47 65.6048 
-93.1297 -111.433 65.2125 -93.8888 -109.975 64.9091 -94.3316 -108.014 64.9414 
-94.4078 -106.028 65.425 -94.2346 -104.233 65.9338 -94.082 -102.523 66.1496 
-94.1012 -101.006 66.3045 -94.0953 -99.8156 66.6123 -92.5944 -112.832 66.3284 
-93.3222 -111.812 66.0521 -94.0106 -110.583 65.8777 -94.5088 -108.897 65.8422 
-94.7369 -106.989 66.0457 -94.7383 -105.27 66.4944 -94.6572 -103.672 66.905 
-94.6966 -102.031 67.0876 -94.8395 -100.523 67.1933 -94.8317 -99.3606 67.4071 
-85.4119 -106.755 64.1261 -86.2906 -104.994 63.7319 -85.2477 -105.463 64.4071 
-87.4717 -103.668 64.0067 -86.0959 -103.763 64.3339 -85.1681 -104.328 65.1355 
-88.9042 -102.871 64.8059 -87.4067 -102.767 64.9322 -86.1179 -102.97 65.392 
-85.1981 -103.465 66.1537 -90.3125 -101.835 65.2024 -88.822 -102.019 65.5984 
-87.3448 -102.076 65.9022 -86.1462 -102.257 66.4951 -85.1501 -102.674 67.2156 
-91.4427 -100.653 65.3199 -89.9617 -100.877 65.9177 -88.4735 -100.993 66.3184 
-87.1373 -101.039 66.8406 -85.9908 -101.33 67.5724 -85.0023 -101.885 68.263 
-92.3151 -99.8547 65.793 -90.8635 -99.7539 66.2521 -89.4016 -99.7384 66.722 
-88.115 -99.801 67.2721 -86.8779 -100.062 67.9683 -85.7495 -100.549 68.6281 
-84.8528 -101.2 69.2738 -93.1863 -99.2564 66.5301 -91.7891 -98.9247 66.7369 
-90.2916 -98.7523 67.1424 -89.0445 -98.8216 67.7512 -87.845 -99.1378 68.4661 
-86.5548 -99.495 69.0371 -85.4651 -99.9182 69.5738 -84.6648 -100.518 70.2455 
-94.0596 -98.7197 67.2918 -92.8 -98.2818 67.331 -91.2941 -98.0384 67.5768 
-89.9528 -98.0593 68.1241 -88.7518 -98.3568 68.8736 -87.4162 -98.6655 69.4682 
-86.1166 -98.872 69.909 -85.1555 -99.2433 70.5028 -84.4344 -99.8607 71.1872 
-94.9761 -98.6547 68.1794 -94.0017 -98.0315 68.1718 -94.7205 -98.3181 69.3241 
-93.6606 -97.694 69.435 -94.1838 -98.2291 70.7346 -92.6108 -97.6162 68.2653 
-93.1739 -97.5689 70.9639 -93.617 -98.08 72.1626 -92.3271 -97.2613 69.6288 
-91.106 -97.4501 68.6036 -92.6529 -97.4612 72.5611 -93.1745 -97.8319 73.7151 
-91.8965 -97.1104 71.2905 -90.8064 -97.0179 70.0416 -89.6839 -97.5355 69.2604 
-92.1214 -97.3752 74.286 -92.8348 -97.6329 75.4727 -91.2697 -97.1057 73.0442 
-90.2425 -96.7546 71.7336 -89.1464 -96.896 70.616 -88.2043 -97.7337 69.9285 
-91.4876 -97.357 75.9763 -92.2917 -97.7025 76.9962 -90.5388 -97.1211 74.7982 
-89.5486 -96.7924 73.5123 -88.5059 -96.5869 72.2126 -87.5104 -96.9973 71.1462 
-86.7144 -97.914 70.4183 -90.6098 -97.6316 77.2417 -91.3832 -98.2218 77.9558 
-89.7251 -97.1562 76.3218 -88.8569 -96.8618 75.2019 -87.9525 -96.7768 73.9484 
-86.9889 -96.9277 72.7278 -86.1391 -97.42 71.7264 -85.5425 -98.2408 71.0064 
-89.6709 -98.2797 78.061 -90.4237 -98.9808 78.5487 -88.877 -97.5701 77.4367 
-88.127 -97.0442 76.5985 -87.3127 -96.9382 75.5474 -86.4201 -97.1768 74.3945 
-85.6447 -97.5407 73.3048 -85.0912 -98.0613 72.4043 -84.7111 -98.8561 71.7172 
-88.948 -98.9648 78.7334 -89.6847 -99.6118 79.1227 -88.1913 -98.3021 78.2474 
-87.4751 -97.6849 77.6156 -86.6249 -97.2585 76.8257 -85.6246 -97.1883 75.8662 
-84.8499 -97.499 74.7892 -84.4638 -98.0552 73.7619 -84.2224 -98.7497 72.9147 
-83.9697 -99.5776 72.2456 -95.4944 -99.7205 68.015 -95.5374 -99.1653 68.9635 
-95.9811 -100.361 68.7348 -95.9207 -99.8963 69.9566 -96.3348 -101.201 69.6921 
-95.175 -98.9955 70.3242 -96.3575 -100.646 71.1776 -96.635 -102.165 70.8768 
-95.6602 -99.6786 71.4899 -94.6164 -98.9159 71.787 -96.7874 -101.535 72.4376 
-96.8356 -103.298 72.0499 -96.2707 -100.281 72.7887 -95.1861 -99.5709 72.9859 
-94.0468 -98.7083 73.2428 -96.8774 -102.795 73.5727 -96.8435 -104.6 73.1708 
-96.586 -101.17 74.0069 -95.685 -100.266 74.269 -94.526 -99.4984 74.4985 
-93.656 -98.4039 74.9522 -96.6831 -104.272 74.7026 -96.7441 -105.956 74.3382 
-96.4615 -102.515 75.0939 -95.8127 -101.231 75.3759 -94.854 -100.41 75.638 
-94.0541 -99.2998 76.1425 -93.3602 -98.1901 76.7026 -96.4982 -105.673 75.7564 
-96.5749 -107.184 75.3314 -96.2959 -104.019 76.1352 -95.7911 -102.511 76.3416 
-95.0061 -101.462 76.4923 -94.2513 -100.425 76.9546 -93.6027 -99.2057 77.6084 
-92.6984 -98.4383 77.9536 -96.237 -106.863 76.4662 -96.1922 -108.142 75.9429 
-96.1419 -105.415 76.9515 -95.7509 -103.927 77.2188 -95.0527 -102.706 77.3027 
-94.2729 -101.694 77.5901 -93.5581 -100.565 78.193 -92.7619 -99.6087 78.6294 
-91.6898 -99.1631 78.6552 -95.7283 -107.828 76.8882 -95.5892 -108.866 76.3302 
-95.7374 -106.615 77.4463 -95.464 -105.271 77.8516 -94.8811 -104.011 78.0793 
[...]
CELL_DATA 2000
SCALARS Distance double
LOOKUP_TABLE default
150.94 150.568 150.657 150.543 150.254 150.357 150.358 150.455 150.467 
150.143 150.161 150.22 150.312 150.363 150.421 150.346 150.266 150.197 
150.226 150.23 150.248 150.288 150.175 150.176 149.994 150.365 150.329 
150.266 150.232 150.112 150.123 149.932 149.944 149.707 149.756 149.613 
150.359 150.344 150.226 150.184 149.929 149.891 149.572 149.602 149.313 
149.406 149.225 149.382 149.279 150.455 150.36 150.279 150.159 149.901 
149.713 149.323 149.221 148.906 148.969 148.816 148.979 148.917 149.06 
148.941 150.702 150.53 150.435 150.279 150.033 149.775 149.37 149.106 
148.77 148.672 148.544 148.626 148.63 148.758 148.726 148.766 148.624 
150.963 150.745 150.479 150.343 149.971 149.818 149.366 149.177 148.811 
148.668 148.495 148.469 148.441 148.521 148.506 148.583 148.481 148.482 
148.323 151.291 151.649 151.254 150.814 151.863 151.552 151.08 150.737 
150.388 152.008 151.719 151.282 150.954 150.543 150.32 150.167 152.452 
151.975 151.55 151.146 150.716 150.441 150.234 150.184 150.228 153.41 
152.693 152.316 151.649 151.255 150.725 150.502 150.286 150.322 150.314 
150.388 154.645 153.861 153.597 152.768 152.497 151.649 151.474 150.856 
150.913 150.595 150.691 150.491 150.483 155.859 155.134 154.926 154.173 
153.994 153.147 153.009 152.184 152.211 151.557 151.632 151.083 151.037 
150.636 150.606 156.982 156.314 156.087 155.425 155.232 154.554 154.391 
153.693 153.614 152.956 152.912 152.241 152.091 151.436 151.293 150.864 
150.886 158 157.392 157.151 156.514 156.282 155.663 155.476 154.883 
154.735 154.163 153.996 153.403 153.154 152.512 152.263 151.698 151.618 
151.234 151.269 158.452 158.87 158.321 157.627 159.313 158.742 158.025 
157.459 156.751 159.697 159.167 158.458 157.887 157.186 156.616 155.961 
159.851 159.457 158.787 158.318 157.679 157.118 156.446 155.859 155.226 
159.78 159.502 158.879 158.558 157.958 157.547 156.83 156.29 155.495 
155.018 154.36 159.665 159.42 158.853 158.59 157.992 157.679 156.913 
156.474 155.543 155.105 154.285 154.017 153.404 159.575 159.34 158.815 
158.573 158.012 157.693 156.968 156.5 155.619 155.101 154.301 153.923 
153.341 153.089 152.589 159.511 159.267 158.75 158.533 158.038 157.758 
157.168 156.696 155.979 155.37 154.701 154.15 153.661 153.229 152.828 
152.44 152.034 159.508 159.235 158.732 158.491 158.042 157.805 157.327 
156.969 156.372 155.853 155.22 154.677 154.145 153.68 153.233 152.812 
152.38 151.989 151.609 151.396 152.138 151.534 150.978 153.019 152.357 
151.811 151.036 150.417 153.969 153.29 152.813 151.995 151.46 150.657 
150.313 155.039 154.321 153.915 153.086 152.648 151.84 151.531 150.807 
150.635 156.172 155.473 155.125 154.286 153.913 153.103 152.829 152.066 
151.767 151.059 150.758 157.147 156.589 156.336 155.572 155.244 154.425 
154.168 153.383 153.07 152.218 151.78 151.028 150.718 157.904 157.488 
157.373 156.779 156.545 155.774 155.495 154.709 154.419 153.566 153.157 
152.224 151.86 151.105 150.983 158.604 158.225 158.204 157.768 157.653 
157.024 156.743 155.985 155.655 154.875 154.539 153.674 153.336 152.454 
152.262 151.545 151.519 159.361 158.959 158.939 158.562 158.501 158.029 
157.801 157.144 156.787 156.056 155.733 154.995 154.727 153.932 153.703 
152.914 152.78 152.102 152.054 150.98 150.419 150.56 150.277 149.736 
149.796 149.412 149.753 149.583 149.642 149.305 148.825 148.873 148.705 
149.075 149.011 150.07 149.572 149.107 148.698 148.476 148.435 148.459 
148.666 148.656 150.269 150.005 149.624 149.224 148.897 148.558 148.426 
148.369 148.385 148.466 148.448 150.242 150.064 149.72 149.544 149.153 
148.906 148.538 148.397 148.215 148.26 148.223 148.33 148.349 150.482 
150.128 149.749 149.519 149.112 148.922 148.516 148.379 148.105 148.081 
147.973 148.069 148.083 148.255 148.333 150.981 150.506 150.048 149.644 
149.191 148.888 148.541 148.36 148.182 148.065 147.961 147.894 147.837 
147.93 147.967 148.198 148.269 151.516 151.026 150.532 150.03 149.533 
149.099 148.746 148.493 148.361 148.232 148.14 147.986 147.814 147.732 
147.636 147.778 147.824 148.083 148.136 151.677 151.685 151.332 150.677 
151.865 151.397 150.653 150.286 149.645 152.133 151.639 150.882 150.365 
149.664 149.311 148.847 152.432 151.943 151.251 150.685 149.943 149.441 
148.91 148.67 148.437 152.859 152.318 151.674 151.095 150.328 149.743 
149.039 148.708 148.327 148.296 148.128 153.334 152.788 152.111 151.538 
150.777 150.145 149.351 148.831 148.248 148.075 147.788 147.871 147.711 
153.676 153.185 152.451 151.924 151.173 150.599 149.877 149.262 148.661 
148.169 147.809 147.601 147.469 147.496 147.503 153.931 153.462 152.748 
152.228 151.512 150.984 150.339 149.807 149.268 148.738 148.352 147.915 
147.745 147.507 147.548 147.518 147.695 154.213 153.747 153.121 152.591 
151.966 151.407 150.804 150.264 149.692 149.227 148.751 148.405 148.119 
147.896 147.827 147.718 147.816 147.824 148.005 152.297 153.288 152.631 
152.364 154.414 153.703 153.481 152.8 152.59 155.692 154.918 154.724 
153.998 153.8 153.073 152.842 157.072 156.271 156.083 155.31 155.119 
154.335 154.072 153.307 153.087 158.452 157.667 157.459 156.677 156.466 
155.681 155.428 154.604 154.358 153.607 153.492 159.815 159.038 158.809 
158.015 157.747 156.981 156.726 155.959 155.725 154.948 154.794 154.089 
154.003 161.088 160.378 160.147 159.355 159.055 158.241 157.946 157.198 
156.967 156.261 156.076 155.386 155.232 154.554 154.377 162.026 161.516 
161.297 160.64 160.345 159.553 159.21 158.417 158.142 157.44 157.239 
156.581 156.389 155.731 155.519 154.843 154.611 162.536 162.243 162.054 
161.618 161.339 160.723 160.352 159.63 159.293 158.597 158.363 157.707 
157.506 156.846 156.623 155.955 155.721 155.054 154.839 159.799 160.282 
159.797 159.338 160.724 160.24 159.722 159.305 158.845 161.137 160.657 
160.094 159.643 159.101 158.72 158.148 161.546 161.075 160.536 160.035 
159.452 158.969 158.324 157.883 157.178 162.041 161.54 161.039 160.505 
159.921 159.368 158.685 158.123 157.384 156.879 156.165 162.629 162.132 
161.611 161.02 160.367 159.802 159.085 158.52 157.758 157.183 156.438 
155.925 155.225 162.996 162.68 162.141 161.57 160.796 160.185 159.382 
158.847 158.063 157.538 156.75 156.225 155.464 154.977 154.25 162.951 
162.855 162.364 161.967 161.173 160.574 159.704 159.123 158.312 157.787 
156.983 156.471 155.667 155.185 154.432 153.983 153.302 162.726 162.696 
162.288 162.052 161.362 160.881 160.044 159.466 158.651 158.077 157.283 
156.714 155.924 155.389 154.652 154.177 153.524 153.098 152.527 160.222 
161.032 160.673 160.735 161.756 161.439 161.535 161.19 161.22 162.487 
162.101 162.185 161.936 162.051 161.68 161.664 163.408 162.864 162.84 
162.546 162.727 162.48 162.554 162.108 162.052 164.44 163.845 163.701 
163.239 163.345 163.126 163.291 162.965 162.945 162.477 162.472 165.38 
164.877 164.707 164.125 164.034 163.716 163.835 163.629 163.659 163.302 
163.256 162.894 162.961 166.128 165.766 165.633 165.077 164.814 164.353 
164.287 164.087 164.123 163.903 163.818 163.529 163.461 163.254 163.238 
166.601 166.387 166.253 165.862 165.537 165.045 164.785 164.488 164.459 
164.295 164.243 163.987 163.814 163.576 163.426 163.295 163.149 166.764 
166.67 166.502 166.3 165.993 165.622 165.269 164.924 164.764 164.595 
164.566 164.378 164.236 163.928 163.707 163.442 163.262 163.099 162.932 
166.703 166.457 166.55 166.443 166.115 166.27 166.144 166.223 165.975 
165.555 165.832 165.715 165.871 165.634 165.658 165.324 165.03 165.255 
165.238 165.42 165.257 165.314 165.067 165.052 164.837 164.911 164.951 
165.034 165.096 165.041 165.02 164.845 164.835 164.713 164.729 164.628 
164.773 164.902 164.947 165.04 165.005 164.945 164.755 164.677 164.546 
164.592 164.514 164.533 164.33 164.189 164.504 164.46 164.774 164.695 
164.834 164.581 164.563 164.322 164.384 164.272 164.356 164.157 164.113 
163.798 163.602 163.834 163.795 164.106 164.039 164.314 164.088 164.216 
163.908 164.032 163.845 164.023 163.854 163.904 163.612 163.55 163.278 
163.35 163.437 163.425 163.551 163.489 163.666 163.51 163.657 163.401 
163.524 163.293 163.49 163.326 163.513 163.294 163.343 163.079 163.076 
162.892 163.25 162.895 163.194 163.282 162.022 162.601 162.743 163.124 
163.205 160.856 161.525 161.729 162.367 162.553 163.009 163.137 159.798 
160.385 160.666 161.341 161.74 162.313 162.575 162.943 163.06 158.86 
159.435 159.814 160.457 161.008 161.616 162.028 162.415 162.56 162.838 
162.948 157.907 158.532 158.951 159.658 160.206 160.914 161.325 161.832 
161.951 162.294 162.355 162.731 162.913 156.96 157.589 157.968 158.706 
159.163 159.957 160.298 160.959 161.063 161.549 161.603 162.067 162.247 
162.717 162.912 156.054 156.656 156.984 157.668 158.035 158.793 159.094 
159.806 159.967 160.563 160.708 161.261 161.511 162.032 162.282 162.692 
162.81 155.201 155.768 156.073 156.687 157.003 157.667 157.947 158.616 
158.832 159.47 159.698 160.339 160.656 161.273 161.586 162.073 162.262 
162.59 162.674 163.115 162.538 162.838 162.675 161.521 161.974 161.769 
162.171 161.812 160.369 160.794 160.593 161.115 160.915 161.209 160.751 
159.441 159.731 159.565 160.001 159.939 160.331 160.06 160.186 159.703 
158.648 158.921 158.739 159.092 158.976 159.387 159.161 159.443 158.993 
159.127 158.646 157.668 158.047 157.762 158.181 157.913 158.356 158.034 
158.429 157.989 158.271 157.769 158.01 157.599 156.474 156.898 156.518 
157.003 156.666 157.158 156.809 157.243 156.833 157.184 156.728 157.032 
156.611 156.938 156.617 155.319 155.661 155.266 155.7 155.391 155.872 
155.582 156.028 155.664 156.035 155.595 155.938 155.513 155.883 155.539 
155.947 155.688 154.399 154.607 154.234 154.551 154.28 154.687 154.446 
154.86 154.528 154.886 154.444 154.783 154.346 154.734 154.389 154.825 
154.567 155.022 154.821 163.16 163.178 163.062 162.717 163.206 163.105 
162.809 162.536 161.904 163.051 163.029 162.777 162.657 162.127 161.646 
160.837 162.81 162.74 162.403 162.463 162.043 161.826 161.067 160.559 
159.8 162.678 162.513 162.027 161.988 161.546 161.542 160.923 160.664 
159.892 159.537 158.904 162.404 162.36 161.872 161.703 161.174 161.056 
160.512 160.383 159.74 159.508 158.845 158.597 157.961 161.831 161.951 
161.563 161.527 161.004 160.819 160.223 160.034 159.433 159.269 158.653 
158.46 157.802 157.551 156.834 161.216 161.322 160.954 161.075 160.619 
160.584 159.95 159.774 159.08 158.929 158.299 158.188 157.57 157.377 
156.693 156.402 155.7 160.682 160.716 160.269 160.402 159.97 160.067 
159.492 159.41 158.688 158.533 157.868 157.786 157.238 157.134 156.57 
156.322 155.698 155.368 154.779 160.192 159.153 159.679 159.722 158.156 
158.65 158.738 159.284 159.399 157.277 157.74 157.821 158.325 158.407 
158.935 158.931 156.291 156.851 156.922 157.429 157.446 157.92 157.822 
158.307 158.145 155.245 155.836 155.955 156.481 156.458 156.916 156.765 
157.197 157.017 157.481 157.358 154.407 154.903 155.042 155.504 155.42 
155.848 155.644 156.104 155.952 156.433 156.366 156.828 156.791 153.602 
154.084 154.098 154.561 154.363 154.76 154.459 154.915 154.76 155.338 
155.34 155.888 155.866 156.307 156.189 152.592 153.084 152.909 153.44 
153.195 153.655 153.381 153.788 153.649 154.164 154.221 154.82 154.861 
155.36 155.224 155.612 155.369 151.597 151.966 151.723 152.174 152.012 
152.501 152.447 152.867 152.885 153.259 153.345 153.792 153.868 154.34 
154.256 154.641 154.401 154.741 154.481 151.095 150.637 150.905 151.164 
150.533 150.614 150.795 151.077 151.473 150.402 150.542 150.734 150.906 
151.293 151.579 152.063 150.075 150.313 150.522 150.803 151.192 151.51 
151.986 152.253 152.654 149.76 149.984 150.16 150.461 150.728 151.178 
151.551 152.041 152.398 152.744 153.061 149.414 149.663 149.769 150.042 
150.107 150.491 150.621 151.231 151.502 152.18 152.503 153.038 153.4 
148.949 149.202 149.203 149.521 149.488 149.801 149.76 150.196 150.346 
151.043 151.419 152.202 152.622 153.285 153.669 148.54 148.69 148.602 
148.861 148.847 149.155 149.192 149.484 149.633 150.06 150.445 151.108 
151.625 152.357 152.803 153.453 153.799 148.259 148.334 148.231 148.348 
148.348 148.587 148.753 149.05 149.334 149.625 150.02 150.414 150.931 
151.48 151.999 152.59 153.003 153.562 153.904 153.847 152.963 153.464 
153.643 152.021 152.571 152.776 153.346 153.666 151.058 151.629 151.871 
152.467 152.785 153.414 153.787 150.193 150.713 150.949 151.537 151.807 
152.459 152.761 153.461 153.787 149.374 149.838 149.931 150.523 150.67 
151.367 151.585 152.327 152.586 153.346 153.645 148.622 148.96 148.837 
149.346 149.297 150.03 150.197 151.055 151.361 152.15 152.482 153.217 
153.578 148.187 148.296 148.126 148.331 148.188 148.646 148.787 149.606 
150.065 150.963 151.455 152.185 152.609 153.268 153.69 148.095 148.052 
147.964 147.93 147.867 147.92 148.068 148.477 148.997 149.767 150.427 
151.218 151.745 152.407 152.848 153.472 153.913 148.092 148.031 147.936 
147.911 147.901 147.89 148.041 148.165 148.589 149.012 149.638 150.283 
150.877 151.548 152.035 152.673 153.135 153.75 154.202 158.333 157.332 
158.076 158.543 156.219 157.023 157.513 158.29 158.799 155.032 155.879 
156.399 157.229 157.757 158.551 159.113 153.838 154.675 155.231 156.107 
156.669 157.49 158.057 158.887 159.499 152.857 153.526 154.061 154.928 
155.555 156.419 157.024 157.841 158.455 159.283 159.851 152.351 152.724 
153.132 153.8 154.42 155.307 156.015 156.867 157.507 158.278 158.841 
159.587 160.052 152.237 152.437 152.752 153.074 153.553 154.23 154.961 
155.858 156.585 157.382 157.914 158.604 159.049 159.752 160.181 152.108 
152.386 152.767 152.933 153.324 153.622 154.218 154.879 155.636 156.444 
157.032 157.706 158.093 158.747 159.152 159.883 160.304 151.741 152.162 
152.645 152.972 153.437 153.623 154.111 154.408 155.047 155.613 156.266 
156.877 157.327 157.869 158.236 158.865 159.288 159.997 160.374 158.983 
159.245 159.428 160.068 159.544 159.738 160.45 160.597 161.302 159.905 
160.088 160.835 161.003 161.744 161.896 162.645 160.323 160.503 161.26 
161.407 162.106 162.273 162.98 163.2 163.924 160.621 160.877 161.626 
161.827 162.522 162.652 163.314 163.473 164.197 164.428 165.111 160.73 
161.034 161.7 162.034 162.744 163.03 163.739 163.892 164.612 164.757 
165.516 165.639 166.2 160.846 161.095 161.666 161.966 162.585 163.029 
163.739 164.164 164.834 165.129 165.773 166.014 166.579 166.642 166.917 
160.98 161.223 161.754 161.948 162.433 162.771 163.357 163.881 164.461 
164.989 165.458 165.946 166.348 166.738 166.973 167.09 167.091 160.991 
161.289 161.786 162.008 162.416 162.648 163.112 163.483 163.993 164.447 
164.869 165.352 165.691 166.198 166.44 166.825 166.875 167.025 166.931 
159.051 160.108 159.536 159.486 161.308 160.643 160.585 160 159.955 
162.68 161.936 161.821 161.136 161.082 160.486 160.374 164.04 163.35 
163.188 162.403 162.214 161.578 161.428 160.819 160.537 165.18 164.613 
164.43 163.695 163.336 162.64 162.345 161.769 161.453 160.829 160.422 
166.073 165.58 165.304 164.721 164.303 163.654 163.255 162.643 162.295 
161.681 161.278 160.643 160.247 166.695 166.292 165.904 165.409 165 
164.478 164.128 163.555 163.212 162.564 162.17 161.499 161.096 160.479 
160.133 166.955 166.731 166.378 165.954 165.575 165.116 164.817 164.351 
164.017 163.451 163.004 162.371 161.922 161.319 160.951 160.382 160.069 
166.906 166.864 166.654 166.391 166.08 165.688 165.35 164.938 164.53 
164.075 163.547 163.041 162.525 162.039 161.656 161.171 160.864 160.331 
160.047 163.309 163.616 163.41 163.376 164.266 163.925 163.924 163.581 
163.483 164.829 164.637 164.675 164.303 164.17 163.694 163.438 164.898 
164.944 165.001 164.924 164.819 164.437 164.136 163.613 163.296 165.044 
164.951 165.036 165.04 165.037 164.894 164.657 164.282 163.934 163.471 
163.149 165.639 165.353 165.459 165.234 165.282 165.082 164.944 164.663 
164.325 163.971 163.546 163.188 162.759 166.191 165.993 166.023 165.774 
165.702 165.435 165.235 164.944 164.583 164.244 163.757 163.413 162.901 
162.606 162.13 166.507 166.398 166.356 166.18 165.97 165.74 165.402 
165.163 164.74 164.451 163.943 163.588 163.078 162.735 162.296 161.986 
161.58 166.78 166.678 166.679 166.466 166.278 165.958 165.613 165.287 
164.881 164.574 164.108 163.766 163.28 162.947 162.546 162.239 161.887 
161.538 161.14 
POINT_DATA 1002
SCALARS Distance double
LOOKUP_TABLE default
150.688 151.291 150.845 150.442 150.422 150.503 150.213 150.132 150.424 
150.479 150.146 150.159 150.307 150.365 150.2 150.294 150.352 150.246 
150.2 149.968 149.821 150.348 150.402 150.165 149.932 149.672 149.487 
149.537 150.29 150.392 150.047 149.583 149.209 149.066 149.128 149.179 
150.407 150.573 150.148 149.515 148.877 148.639 148.751 148.878 148.771 
150.616 150.924 150.29 149.668 148.934 148.506 148.494 148.651 148.654 
148.452 150.699 151.271 150.127 149.501 148.935 148.572 148.413 148.423 
148.449 148.344 148.176 151.741 151.18 152.031 151.451 152.111 150.615 
151.6 152.318 150.801 150.218 152.012 153.029 151.043 150.309 150.181 
153.041 154.164 151.897 150.829 150.375 150.416 154.382 155.393 153.371 
152.227 151.372 150.999 150.662 155.631 156.558 154.769 153.846 152.958 
152.309 151.594 150.861 156.755 157.636 155.88 155.052 154.281 153.607 
152.827 151.857 151.165 157.789 158.576 156.91 156.06 155.322 154.606 
153.781 152.859 152.078 151.617 158.992 158.185 159.437 158.609 159.898 
157.285 159 160.199 157.771 156.506 159.176 160.184 158.188 157.082 
155.753 159.15 160.012 158.314 157.375 156.038 154.699 159.102 159.885 
158.312 157.354 156.015 154.583 153.578 159.036 159.808 158.311 157.419 
156.137 154.71 153.614 152.835 158.961 159.769 158.259 157.551 156.538 
155.266 154.13 153.243 152.411 158.98 159.779 158.259 157.612 156.823 
155.76 154.64 153.673 152.789 151.946 150.975 151.687 150.278 152.604 
151.15 149.83 153.605 152.241 150.996 150.117 154.728 153.423 152.287 
151.314 150.479 155.94 154.719 153.606 152.602 151.391 150.411 157.011 
156.064 154.957 153.948 152.667 151.288 150.459 157.845 157.268 156.308 
155.227 154.087 152.723 151.572 150.921 158.576 158.195 157.502 156.426 
155.318 154.216 153.072 152.146 151.494 159.326 158.918 158.394 157.511 
156.429 155.457 154.513 153.527 152.67 152.001 150.01 149.106 149.127 
148.985 148.393 148.602 149.62 148.724 148.316 148.466 149.924 149.334 
148.639 148.33 148.367 149.862 149.381 148.751 148.23 148.092 148.217 
150.069 149.321 148.64 148.165 147.929 147.906 148.132 150.532 149.55 
148.709 148.281 148.107 147.853 147.757 148.018 151.056 150.012 149.043 
148.493 148.314 148.005 147.59 147.565 147.893 151.976 150.967 152.115 
151.111 152.372 149.884 151.437 152.595 150.104 149.011 151.802 152.904 
150.519 149.214 148.511 152.254 153.424 150.971 149.502 148.407 148.07 
152.691 153.894 151.396 149.97 148.589 147.756 147.544 152.975 154.163 
151.692 150.437 149.232 148.169 147.51 147.36 153.251 154.382 152.021 
150.827 149.758 148.821 148.073 147.657 147.634 153.612 154.648 152.505 
151.376 150.213 149.11 148.329 147.963 147.868 147.95 152.914 153.004 
153.949 154.158 155.138 153.285 155.463 156.479 154.556 153.564 156.875 
157.868 155.916 154.89 153.767 158.264 159.231 157.245 156.242 155.158 
154.154 159.627 160.593 158.541 157.46 156.482 155.539 154.695 160.919 
161.758 159.902 158.726 157.656 156.767 155.928 155.077 161.875 162.447 
161.102 160.034 158.873 157.9 157.053 156.192 155.292 162.409 162.754 
161.881 161.038 159.988 159.021 158.174 157.297 156.384 155.49 160.294 
159.773 160.782 160.169 161.224 159.227 160.581 161.61 159.537 158.545 
161.039 161.993 159.992 158.832 157.6 161.594 162.542 160.49 159.286 
157.943 156.613 162.265 163.087 160.981 159.636 158.338 156.997 155.709 
162.695 163.212 161.471 159.943 158.573 157.284 155.973 154.714 162.663 
162.981 161.741 160.314 158.86 157.509 156.16 154.873 153.713 160.596 
161.134 161.369 161.818 162.087 161.658 162.405 162.974 162.338 162.163 
163.218 164.036 162.903 162.946 162.558 164.288 165 163.602 163.537 
163.397 162.887 165.348 165.797 164.49 164.016 163.96 163.628 163.259 
166.158 166.436 165.397 164.562 164.29 164.126 163.708 163.421 166.571 
166.8 166.037 165.181 164.618 164.475 164.134 163.606 163.257 166.643 