# vtk DataFile Version 4.0
vtk output
ASCII
DATASET POLYDATA
POINTS 1002 float
-77.8544 -114.918 67.5893 -77.032 -115.586 67.0459 -77.2368 -115.082 66.2228 
-78.0496 -114.245 66.8556 -77.5641 -114.525 65.4991 -78.6392 -113.977 68.3105 
-78.4283 -113.579 66.2218 -78.1782 -114.147 64.8767 -78.958 -113.249 67.7265 
-79.4311 -112.767 69.1788 -79.2142 -113.145 65.624 -79.1214 -113.864 64.3581 
-79.5629 -112.636 67.1783 -80.0668 -112.231 68.6816 -80.3747 -111.601 69.9862 
-80.2764 -112.734 65.1551 -80.1918 -113.363 64.0245 -80.5109 -112.165 66.6132 
-80.8804 -111.689 68.1512 -81.1506 -111.064 69.4111 -81.2431 -110.323 70.5666 
-81.3041 -112.142 64.9397 -81.2143 -112.7 63.8576 -81.532 -111.6 66.1936 
-81.7599 -111.002 67.5974 -81.8441 -110.245 68.8257 -81.8087 -109.386 69.8994 
-81.8113 -108.676 71.0681 -82.3233 -111.565 64.8097 -82.2573 -112.13 63.7156 
-82.4847 -110.949 65.9212 -82.626 -110.198 67.1094 -82.5956 -109.332 68.2486 
-82.432 -108.449 69.316 -82.3535 -107.717 70.4484 -82.4228 -107.226 71.644 
-83.4459 -111.084 64.6325 -83.3449 -111.658 63.6125 -83.5089 -110.353 65.6108 
-83.513 -109.441 66.6313 -83.4841 -108.543 67.6724 -83.3879 -107.793 68.7519 
-83.269 -107.153 69.91 -83.2614 -106.671 71.0735 -83.3171 -106.319 72.18 
-84.5187 -110.57 64.5128 -84.357 -111.213 63.6507 -84.5807 -109.762 65.3111 
-84.4825 -108.782 66.1714 -84.3984 -107.888 67.1283 -84.4362 -107.277 68.1887 
-84.4276 -106.752 69.3568 -84.3275 -106.233 70.4954 -84.2545 -105.838 71.5498 
-84.185 -105.522 72.5714 -85.4373 -110.018 64.4698 -85.2667 -110.796 63.7822 
-85.5465 -109.148 65.1131 -85.4948 -108.203 65.8328 -85.3739 -107.354 66.6928 
-85.3852 -106.778 67.6914 -85.4516 -106.291 68.8137 -85.347 -105.702 69.9074 
-85.1263 -105.185 70.8833 -84.9412 -104.858 71.8579 -84.7793 -104.611 72.8704 
-76.4181 -116.072 66.0436 -76.7164 -115.569 65.1518 -76.0441 -116.811 65.0296 
-76.3571 -116.189 63.9915 -75.8296 -117.6 63.9221 -77.1765 -115.101 64.3583 
-75.925 -116.669 62.6413 -75.4789 -118.243 62.7365 -76.6985 -115.527 63.0478 
-77.8893 -114.797 63.7196 -75.433 -117.147 61.3309 -75.1398 -118.959 61.7444 
-76.0387 -115.652 61.5401 -77.3868 -115.031 62.3695 -78.9534 -114.461 63.2455 
-75.4518 -118.137 60.5139 -75.3491 -119.94 61.115 -75.7724 -116.175 60.3245 
-76.9526 -115.086 60.9576 -78.7385 -114.712 61.987 -80.1984 -113.906 62.9331 
-76.2036 -119.476 60.2851 -76.1346 -120.934 60.7826 -76.3879 -117.54 59.8617 
-77.1831 -115.844 60.0647 -78.7409 -115.014 60.9019 -80.2983 -114.348 61.7961 
-81.36 -113.243 62.7062 -77.2303 -120.562 60.4257 -77.0928 -121.701 60.7278 
-77.5042 -119.021 59.9959 -78.0699 -117.271 59.8173 -79.1437 -115.843 60.3236 
-80.4929 -114.802 60.9892 -81.5927 -113.72 61.5907 -82.4527 -112.6 62.5157 
-78.2267 -121.277 60.6939 -78.07 -122.262 60.8967 -78.6112 -119.991 60.3522 
-79.1749 -118.518 59.8995 -79.9242 -116.995 59.9969 -80.9223 -115.492 60.4997 
-81.9393 -114.115 60.8234 -82.7589 -112.977 61.3905 -83.5313 -112.066 62.505 
-79.245 -121.81 60.899 -79.1102 -122.674 61.1349 -79.6316 -120.598 60.6678 
-80.2163 -119.273 60.1678 -80.8882 -117.979 59.8492 -81.6948 -116.46 60.0719 
-82.584 -114.754 60.3368 -83.3106 -113.376 60.629 -83.8958 -112.468 61.5023 
-84.5481 -111.696 62.7572 -80.3286 -122.533 61.1115 -80.6149 -121.45 60.8963 
-81.7538 -122.207 61.097 -82.1322 -120.892 60.9295 -83.2124 -121.662 61.2737 
-81.1166 -120.037 60.6096 -83.6358 -120.319 61.1057 -84.64 -121.045 61.5545 
-82.63 -119.473 60.6826 -81.7686 -118.763 60.122 -85.2462 -119.867 61.2078 
-86.0777 -120.428 61.7754 -84.2162 -119.04 60.8404 -83.3835 -118.28 60.2975 
-82.5979 -117.466 59.913 -86.837 -119.28 61.3937 -87.3478 -119.651 62.2341 
-85.9809 -118.522 60.9165 -85.1239 -117.644 60.5273 -84.4271 -116.737 60.1093 
-83.5475 -115.675 60.0369 -87.9756 -118.358 62.1442 -88.3774 -118.698 63.0145 
-87.4428 -117.686 61.3768 -86.7318 -116.764 60.8743 -86.0485 -115.827 60.5121 
-85.2715 -114.84 60.2691 -84.2576 -113.926 60.2937 -88.88 -117.329 63.1204 
-89.4523 -117.731 63.6712 -88.3856 -116.736 62.4177 -87.8693 -115.931 61.7285 
-87.2337 -115.065 61.2941 -86.4896 -114.235 61.085 -85.6069 -113.45 60.9718 
-84.6656 -112.831 61.0711 -90.0739 -116.381 63.7274 -90.7051 -116.809 64.0483 
-89.4281 -115.86 63.3605 -88.8785 -115.234 62.8427 -88.2895 -114.515 62.3633 
-87.5379 -113.777 62.1736 -86.7166 -113.112 62.1446 -85.8946 -112.526 62.1507 
-85.1358 -112.037 62.3369 -91.5091 -115.51 64.0101 -91.9548 -115.949 64.3488 
-90.89 -115.006 63.8022 -90.2457 -114.438 63.5872 -89.6052 -113.8 63.2841 
-88.8484 -113.103 63.0815 -88.0242 -112.459 63.0769 -87.2416 -111.936 63.1238 
-86.4826 -111.473 63.213 -85.7951 -111.07 63.4418 -86.3183 -109.773 64.2378 
-87.0465 -110.019 63.9327 -87.5317 -108.502 64.4758 -87.9055 -110.382 63.7389 
-88.492 -108.685 64.1733 -88.9003 -107.251 64.747 -88.7458 -110.81 63.664 
-89.4911 -109.03 64.0237 -89.9928 -107.371 64.4767 -90.33 -106.111 65.0885 
-89.6099 -111.346 63.6173 -90.4516 -109.493 63.9448 -91.0921 -107.751 64.2972 
-91.4806 -106.117 64.7215 -91.648 -104.974 65.214 -90.5512 -112.031 63.6332 
-91.5428 -110.051 63.811 -92.3163 -108.297 64.0439 -92.7077 -106.527 64.3961 
-92.8065 -104.944 64.7408 -92.7179 -104.015 65.3257 -91.3968 -112.808 63.7451 
-92.6338 -110.802 63.7183 -93.6524 -108.944 63.7438 -94.1037 -107.237 64.1111 
-94.0061 -105.501 64.5863 -93.7847 -104.224 65.094 -93.6338 -103.461 65.8948 
-92.0891 -113.592 63.8575 -93.3956 -111.813 63.7757 -94.5727 -109.911 63.6893 
-95.2644 -108.155 64.0001 -95.2203 -106.453 64.6874 -94.8486 -105.002 65.3331 
-94.6523 -103.983 65.9741 -94.583 -103.152 66.763 -92.6502 -114.29 64.0334 
-93.8418 -112.867 64.0097 -94.9014 -111.198 63.9931 -95.6997 -109.405 64.2348 
-96.0138 -107.623 64.8805 -95.8781 -106.037 65.6224 -95.7061 -104.822 66.2486 
-95.6437 -103.823 66.8921 -95.5202 -102.921 67.5978 -92.9976 -114.859 64.402 
-94.0712 -113.708 64.4414 -94.9779 -112.39 64.521 -95.6839 -110.799 64.7549 
-96.2267 -109.013 65.2132 -96.5356 -107.268 65.7873 -96.6391 -105.795 66.3627 
-96.6435 -104.62 66.9917 -96.5276 -103.623 67.6999 -96.262 -102.815 68.4254 
-86.4615 -108.774 64.8009 -87.6589 -107.49 65.0865 -86.5409 -107.824 65.4616 
-89.0523 -106.405 65.4776 -87.7757 -106.707 65.8824 -86.5199 -106.995 66.2766 
-90.4029 -105.36 65.8065 -89.1035 -105.741 66.3286 -87.7779 -106.013 66.778 
-86.4673 -106.337 67.2337 -91.5198 -104.249 65.9894 -90.1758 -104.6 66.6832 
-88.8961 -104.879 67.226 -87.6241 -105.245 67.7814 -86.4384 -105.748 68.3403 
-92.5453 -103.342 66.3773 -91.144 -103.475 67.0711 -89.77 -103.653 67.6569 
-88.5611 -103.989 68.2362 -87.3661 -104.496 68.8949 -86.2829 -105.069 69.4592 
-93.6139 -102.737 67.0634 -92.298 -102.685 67.6197 -90.8068 -102.822 68.2121 
-89.4876 -103.092 68.7757 -88.2546 -103.51 69.3924 -86.9991 -103.914 69.9612 
-85.9512 -104.44 70.4359 -94.6227 -102.36 67.8196 -93.4489 -102.199 68.25 
-91.9891 -102.359 68.8751 -90.5419 -102.573 69.5542 -89.2683 -102.882 70.1602 
-87.9255 -103.222 70.6187 -86.5966 -103.515 70.9918 -85.626 -104.056 71.4094 
-95.4525 -102.233 68.6382 -94.3925 -101.985 68.9959 -93.0211 -102.073 69.6136 
-91.5027 -102.129 70.4211 -90.183 -102.156 71.1427 -88.9705 -102.479 71.5728 
-87.5751 -102.901 71.815 -86.2692 -103.271 72.1041 -85.3911 -103.847 72.4926 
-96.3727 -102.504 69.5844 -95.4841 -102.079 69.9284 -96.4202 -102.41 71.1233 
-95.4391 -102.117 71.6599 -96.3593 -102.376 72.8367 -94.2244 -101.983 70.4725 
-95.2226 -102.168 73.4059 -95.9618 -102.489 74.2986 -93.9416 -101.971 72.2919 
-92.5916 -101.886 71.2606 -94.6961 -102.427 74.7285 -95.3127 -102.967 75.4712 
-93.5625 -102.017 73.8258 -92.1168 -101.531 72.8949 -90.9989 -101.516 72.0567 
-94.0778 -102.868 75.9756 -94.7755 -103.531 76.7357 -93.1002 -102.4 75.054 
-91.7888 -101.701 74.0669 -90.6114 -101.122 73.2976 -89.7817 -101.527 72.5476 
-93.5949 -103.204 77.3785 -94.3033 -103.996 78.0075 -92.64 -102.72 76.5337 
-91.5104 -102.366 75.3975 -90.3988 -101.787 74.313 -89.4408 -101.591 73.5612 
-88.5117 -102.181 72.7794 -93.0611 -103.785 78.4323 -93.6356 -104.671 78.9084 
-92.1509 -103.022 77.8663 -91.0729 -102.712 77.0552 -90.0357 -102.621 75.8727 
-89.0252 -102.414 74.7428 -87.9771 -102.422 73.9041 -86.9975 -102.786 73.0365 
-92.3208 -104.777 79.0808 -92.816 -105.528 79.5504 -91.5106 -103.91 78.5844 
-90.4533 -103.192 78.1562 -89.4046 -102.942 77.4764 -88.4022 -102.915 76.3655 
-87.3527 -102.823 75.253 -86.4043 -102.877 74.3288 -85.7554 -103.248 73.3957 
-91.5122 -105.659 79.7656 -92.0321 -106.227 80.2043 -90.7708 -105.029 79.1874 
-89.7722 -104.245 78.7162 -88.7091 -103.548 78.3691 -87.725 -103.196 77.7312 
-86.7519 -103.06 76.691 -85.8609 -103.041 75.625 -85.264 -103.31 74.6669 
-84.9654 -103.897 73.7314 -96.9883 -103.28 68.9053 -97.0404 -103.03 70.2905 
-97.3964 -103.954 69.5184 -97.3942 -103.815 71.0625 -97.4494 -105.072 70.2806 
-97.0736 -102.932 71.9387 -97.5088 -105.087 71.8829 -97.423 -106.702 71.1173 
-97.4541 -103.835 72.7358 -96.9197 -102.923 73.5998 -97.5536 -106.818 72.734 
-97.4991 -108.446 71.9102 -97.6307 -105.306 73.6128 -97.2844 -104.052 74.4381 
-96.4086 -103.255 75.0195 -97.5225 -108.571 73.52 -97.5946 -110.061 72.6639 
-97.5485 -107.082 74.4479 -97.4583 -105.678 75.3895 -96.8545 -104.577 75.9559 
-95.8454 -103.925 76.2817 -97.4566 -110.231 74.1902 -97.6258 -111.702 73.3841 
-97.261 -108.76 74.9762 -97.2245 -107.363 75.9946 -97.0573 -106.107 76.8204 
-96.3718 -105.152 77.1988 -95.3497 -104.488 77.5626 -97.3443 -111.88 74.7116 
-97.4291 -113.187 73.9199 -97.052 -110.403 75.306 -96.8115 -108.998 76.1476 
-96.7383 -107.711 77.17 -96.4323 -106.542 77.8303 -95.6413 -105.616 78.2356 
-94.6399 -105.004 78.6466 -96.9262 -113.227 74.989 -96.8489 -114.17 74.1716 
-96.8002 -111.977 75.5869 -96.5265 -110.652 76.2794 -96.2899 -109.45 77.2597 
-96.034 -108.276 78.1102 -95.488 -107.123 78.6301 -94.6612 -106.241 79.063 
-93.7515 -105.747 79.4107 -96.1683 -114.1 75.0421 -96.0286 -114.749 74.2396 
-96.2195 -113.19 75.7438 -96.1287 -112.081 76.4657 -95.9186 -111.034 77.3747 
[...]
CELL_DATA 2000
SCALARS Distance double
LOOKUP_TABLE default
153.076 152.437 152.886 153.152 151.979 152.265 152.509 152.947 153.161 
151.861 151.936 152.131 152.418 152.729 153.034 153.214 151.911 151.913 
152.057 152.2 152.502 152.744 152.97 153.135 153.165 151.924 151.95 
152.061 152.166 152.359 152.551 152.648 152.825 152.698 152.874 152.674 
151.967 151.971 152.063 152.127 152.204 152.331 152.276 152.401 152.168 
152.288 152.026 152.236 152.106 152.121 152.081 152.144 152.12 152.085 
152.104 151.964 152.01 151.82 151.853 151.711 151.764 151.766 151.897 
152.015 152.325 152.264 152.272 152.19 152.048 151.965 151.761 151.741 
151.628 151.661 151.665 151.682 151.754 151.785 151.913 152.01 152.148 
152.523 152.433 152.363 152.262 152.066 151.934 151.71 151.62 151.538 
151.566 151.638 151.704 151.765 151.799 151.8 151.883 151.891 152.059 
152.082 152.901 152.64 152.573 152.3 152.564 152.369 152.032 152.029 
151.881 152.382 152.177 151.674 151.724 151.594 151.753 151.776 152.184 
151.848 151.116 151.148 150.94 151.336 151.478 151.759 151.841 152.533 
151.855 151.054 150.652 150.33 150.587 150.868 151.364 151.644 151.841 
151.885 153.519 152.648 152.035 151.118 150.76 150.374 150.659 150.897 
151.401 151.652 151.843 151.878 151.914 154.679 153.899 153.529 152.536 
152.22 151.361 151.457 151.142 151.573 151.594 151.863 151.86 151.908 
151.925 152.018 155.742 155.102 154.864 154.071 153.804 152.946 152.841 
152.21 152.342 152.02 152.144 151.965 151.969 151.914 151.98 152.066 
152.229 156.714 156.149 155.952 155.306 155.06 154.351 154.162 153.51 
153.447 152.91 152.86 152.416 152.334 152.065 152.102 152.072 152.269 
152.341 152.527 157.189 157.649 157.096 156.424 158.062 157.513 156.787 
156.25 155.532 158.467 157.91 157.177 156.604 155.896 155.361 154.701 
158.909 158.363 157.692 157.063 156.401 155.808 155.197 154.625 154.024 
159.295 158.839 158.236 157.634 156.969 156.364 155.732 155.157 154.5 
153.939 153.312 159.518 159.172 158.592 158.112 157.402 156.861 156.153 
155.629 154.927 154.373 153.67 153.17 152.635 159.66 159.342 158.784 
158.381 157.711 157.213 156.52 156.001 155.363 154.813 154.208 153.618 
153.119 152.635 152.371 159.839 159.503 159.003 158.602 158.056 157.569 
157.003 156.452 155.925 155.354 154.894 154.298 153.913 153.323 153.073 
152.605 152.533 160.066 159.733 159.301 158.907 158.452 158.001 157.528 
157.016 156.528 155.987 155.536 155.014 154.642 154.136 153.841 153.368 
153.173 152.807 152.729 152.799 153.262 152.966 152.824 153.918 153.534 
153.383 152.969 152.785 154.675 154.247 154.107 153.627 153.422 152.993 
152.879 155.537 155.049 154.926 154.412 154.235 153.724 153.534 153.117 
152.995 156.529 155.99 155.88 155.305 155.174 154.617 154.436 153.863 
153.621 153.171 153.025 157.543 157.033 156.962 156.35 156.247 155.646 
155.543 154.889 154.661 153.967 153.758 153.267 153.263 158.479 158.044 
158.052 157.481 157.417 156.795 156.744 156.093 155.967 155.19 155.003 
154.266 154.25 153.738 153.898 159.329 158.962 159.05 158.575 158.581 
157.993 157.954 157.326 157.252 156.545 156.412 155.647 155.596 154.937 
155.056 154.529 154.703 160.081 159.777 159.899 159.539 159.611 159.127 
159.109 158.523 158.45 157.807 157.701 157.014 156.935 156.282 156.314 
155.748 155.856 155.338 155.464 152.623 152.54 152.506 152.337 152.473 
152.374 152.167 152.163 151.994 152.614 152.417 152.236 152.085 151.923 
151.836 151.684 152.763 152.62 152.473 152.286 152.137 151.926 151.787 
151.633 151.576 152.788 152.701 152.536 152.451 152.253 152.126 151.939 
151.812 151.726 151.645 151.679 152.997 152.764 152.579 152.437 152.2 
152.101 151.876 151.841 151.707 151.72 151.676 151.716 151.737 153.566 
153.141 152.948 152.619 152.425 152.148 151.988 151.815 151.748 151.674 
151.618 151.608 151.562 151.652 151.68 154.305 153.8 153.575 153.149 
153.005 152.61 152.524 152.18 152.185 151.926 151.933 151.699 151.629 
151.502 151.499 151.587 151.715 155.075 154.552 154.322 153.85 153.729 
153.31 153.23 152.84 152.782 152.472 152.454 152.174 152.108 151.797 
151.724 151.554 151.638 151.711 151.91 155.449 155.956 155.351 154.747 
156.675 155.993 155.356 154.716 154.169 157.321 156.728 156.069 155.379 
154.696 154.126 153.607 157.805 157.291 156.635 156.006 155.168 154.548 
153.828 153.456 153.022 158.348 157.775 157.148 156.521 155.684 154.96 
154.1 153.588 153.075 152.881 152.623 158.979 158.364 157.737 157.093 
156.388 155.605 154.825 154.044 153.482 153.024 152.768 152.56 152.325 
159.546 158.973 158.32 157.699 157.049 156.382 155.749 154.974 154.4 
153.688 153.296 152.833 152.547 152.246 151.957 160.021 159.507 158.879 
158.266 157.59 156.995 156.386 155.808 155.229 154.596 154.029 153.441 
152.981 152.549 152.234 151.942 151.793 160.417 159.97 159.412 158.835 
158.173 157.541 156.895 156.335 155.75 155.222 154.619 154.06 153.49 
152.999 152.623 152.288 152.154 151.95 151.993 156.031 157.028 156.512 
156.535 158.073 157.545 157.617 157.122 157.226 159.339 158.693 158.79 
158.242 158.337 157.815 157.856 160.85 160.108 160.217 159.546 159.664 
159.003 159.019 158.394 158.372 162.357 161.64 161.729 161.048 161.184 
160.471 160.519 159.728 159.701 158.969 158.975 163.785 163.085 163.077 
162.438 162.489 161.917 161.974 161.29 161.243 160.446 160.383 159.643 
159.63 165.067 164.448 164.333 163.661 163.558 163.026 163.031 162.552 
162.505 161.881 161.72 161.019 160.879 160.23 160.152 165.854 165.513 
165.368 164.806 164.609 164.033 163.974 163.504 163.5 162.98 162.838 
162.202 161.988 161.366 161.217 160.652 160.561 166.047 165.985 165.876 
165.6 165.411 164.982 164.875 164.442 164.445 163.972 163.908 163.294 
163.118 162.449 162.289 161.68 161.575 161.021 160.928 160.503 161.103 
160.651 160.352 161.79 161.288 160.978 160.494 160.113 162.538 162.007 
161.65 161.123 160.701 160.175 159.655 163.26 162.745 162.348 161.784 
161.304 160.749 160.194 159.627 159.007 163.969 163.453 163.049 162.458 
161.954 161.364 160.811 160.197 159.561 158.939 158.276 164.735 164.208 
163.814 163.172 162.657 162.03 161.503 160.875 160.256 159.556 158.853 
158.196 157.543 165.437 165.006 164.669 164.004 163.466 162.761 162.203 
161.572 160.953 160.264 159.513 158.802 158.093 157.49 156.915 165.88 
165.649 165.43 164.881 164.363 163.614 162.975 162.269 161.602 160.917 
160.141 159.425 158.66 158.039 157.442 156.921 156.429 166.036 165.983 
165.863 165.541 165.086 164.457 163.775 163.042 162.323 161.59 160.833 
160.07 159.318 158.624 158.026 157.465 156.994 156.48 156.033 160.744 
161.346 161.127 161.338 162.035 161.765 161.975 161.767 162.033 162.812 
162.479 162.659 162.425 162.687 162.503 162.791 163.684 163.29 163.398 
163.1 163.301 163.122 163.386 163.238 163.5 164.622 164.216 164.298 
163.875 163.984 163.708 163.92 163.777 164.055 163.925 164.202 165.557 
165.206 165.35 164.848 164.88 164.439 164.587 164.344 164.646 164.5 
164.835 164.667 164.962 166.39 166.136 166.331 165.896 165.874 165.36 
165.385 165.053 165.319 165.154 165.489 165.316 165.568 165.381 165.585 
166.997 166.857 167.025 166.752 166.722 166.279 166.186 165.806 165.921 
165.766 166.021 165.909 166.046 165.878 165.921 165.815 165.897 167.308 
167.274 167.38 167.27 167.284 167.009 166.935 166.555 166.533 166.279 
166.387 166.284 166.345 166.219 166.146 166.016 165.963 165.95 165.985 
167.404 167.465 167.464 167.474 167.583 167.548 167.615 167.542 167.463 
167.838 167.762 167.895 167.783 167.778 167.531 167.278 168.003 168.017 
168.151 168.104 168.125 167.911 167.667 167.281 166.915 167.892 168.042 
168.116 168.211 168.169 168.13 167.853 167.604 167.19 166.887 166.612 
167.675 167.854 167.928 168.04 167.961 167.996 167.747 167.645 167.27 
167.064 166.744 166.595 166.431 167.507 167.682 167.815 167.883 167.846 
167.813 167.673 167.574 167.385 167.184 166.945 166.711 166.492 166.361 
166.202 167.297 167.516 167.655 167.78 167.758 167.757 167.671 167.622 
167.574 167.437 167.322 167.032 166.793 166.487 166.26 166.106 165.997 
167.017 167.246 167.332 167.523 167.464 167.575 167.461 167.559 167.51 
167.576 167.489 167.372 167.108 166.819 166.497 166.245 166.073 165.98 
165.981 166.913 166.76 166.942 167.133 166.515 166.709 166.806 167.048 
167.189 166.14 166.411 166.483 166.684 166.781 167.044 167.206 165.525 
165.953 166.088 166.347 166.418 166.651 166.813 167.104 167.311 164.767 
165.287 165.506 165.879 165.951 166.231 166.295 166.643 166.805 167.182 
167.294 163.996 164.56 164.855 165.281 165.401 165.698 165.71 166.026 
166.076 166.506 166.58 166.991 166.922 163.113 163.756 164.078 164.613 
164.796 165.159 165.227 165.482 165.521 165.798 165.856 166.207 166.217 
166.521 166.385 162.145 162.786 163.053 163.702 163.897 164.455 164.59 
165 165.085 165.351 165.404 165.632 165.697 165.931 165.963 166.113 
166.054 161.286 161.815 162.011 162.608 162.782 163.421 163.598 164.207 
164.342 164.81 164.849 165.177 165.206 165.498 165.597 165.827 165.918 
165.994 166.014 166.696 166.403 166.579 166.614 166.051 166.263 166.282 
166.456 166.408 165.428 165.763 165.705 166.012 165.928 166.149 165.985 
164.451 164.916 164.783 165.238 165.118 165.501 165.295 165.557 165.284 
163.313 163.809 163.654 164.165 164.054 164.552 164.378 164.737 164.434 
164.718 164.438 162.2 162.679 162.52 163 162.858 163.402 163.264 
163.742 163.461 163.794 163.451 163.811 163.575 161.101 161.583 161.398 
161.856 161.614 162.136 161.93 162.514 162.264 162.734 162.366 162.751 
162.426 162.89 162.667 160.027 160.474 160.261 160.704 160.408 160.86 
160.571 161.119 160.882 161.444 161.152 161.605 161.275 161.711 161.468 
161.959 161.764 159.087 159.438 159.216 159.593 159.324 159.697 159.413 
159.834 159.606 160.106 159.905 160.39 160.158 160.59 160.384 160.826 
160.681 161.128 160.981 166.65 166.538 166.492 166.361 166.642 166.447 
166.256 166.216 166.048 166.761 166.558 166.194 166.087 165.831 165.831 
165.5 166.459 166.492 165.985 165.89 165.444 165.492 165.112 165.12 
164.583 165.642 165.953 165.517 165.516 164.945 164.968 164.507 164.603 
164.087 164.06 163.432 164.582 165.026 164.761 164.941 164.431 164.435 
163.922 163.971 163.475 163.495 162.9 162.864 162.267 163.561 163.97 
163.76 164.106 163.718 163.862 163.36 163.416 162.911 162.922 162.351 
162.31 161.708 161.701 161.153 162.733 163.014 162.781 163.116 162.803 
163.058 162.609 162.767 162.265 162.353 161.807 161.794 161.205 161.16 
160.611 160.611 160.113 162.078 162.267 162.026 162.258 161.984 162.194 
161.802 161.962 161.489 161.633 161.136 161.222 160.696 160.691 160.172 
160.137 159.667 159.643 159.207 161.631 160.843 161.368 161.574 159.79 
160.487 160.735 161.297 161.475 158.496 159.284 159.535 160.29 160.47 
161.093 161.21 157.333 157.981 158.192 158.958 159.175 159.932 160.076 
160.731 160.849 156.484 156.968 157.14 157.717 157.951 158.642 158.88 
159.557 159.729 160.365 160.508 155.628 156.139 156.269 156.787 156.996 
157.582 157.865 158.471 158.706 159.288 159.453 160.037 160.14 154.687 
155.209 155.338 155.887 156.106 156.697 156.996 157.577 157.83 158.353 
158.511 159.03 159.131 159.657 159.694 153.98 154.381 154.609 155.044 
155.339 155.852 156.197 156.751 157.012 157.51 157.622 158.101 158.158 
158.67 158.709 159.208 159.216 153.579 153.898 154.227 154.538 154.858 
155.224 155.533 155.994 156.212 156.676 156.713 157.162 157.127 157.644 
157.654 158.206 158.23 158.741 158.756 153.517 153.625 153.799 154.191 
153.522 153.781 154.164 154.4 154.756 153.381 153.561 153.822 154.166 
154.534 154.887 155.299 153.312 153.449 153.615 153.808 154.113 154.495 
154.924 155.374 155.827 152.969 153.316 153.598 153.761 154.027 154.186 
154.513 154.869 155.268 155.775 156.198 152.409 152.834 153.234 153.652 
154.004 154.216 154.443 154.58 154.825 155.157 155.546 156.079 156.56 
152.189 152.375 152.677 153.111 153.494 153.969 154.262 154.523 154.714 
154.878 155.197 155.533 156.06 156.554 157.13 152.277 152.314 152.464 
152.642 152.902 153.32 153.685 154.151 154.494 154.795 155.149 155.386 
155.886 156.223 156.82 157.233 157.781 152.255 152.361 152.47 152.537 
152.696 152.883 153.213 153.597 154.066 154.498 154.992 155.342 155.851 
156.157 156.697 157.022 157.546 157.892 158.356 158.554 157.772 158.316 
158.628 156.971 157.522 157.818 158.38 158.7 156.104 156.684 156.963 
157.544 157.842 158.436 158.776 155.141 155.745 155.978 156.616 156.9 
157.545 157.891 158.529 158.938 154.151 154.731 154.948 155.592 155.882 
156.553 156.919 157.612 158.047 158.735 159.203 153.305 153.773 154.002 
154.597 154.92 155.562 155.943 156.629 157.094 157.819 158.328 159.025 
159.495 152.771 153.05 153.22 153.703 154.007 154.629 155.012 155.685 
156.142 156.865 157.41 158.147 158.689 159.341 159.797 152.483 152.625 
152.679 152.994 153.217 153.746 154.142 154.786 155.263 155.946 156.485 
157.225 157.815 158.541 159.08 159.684 160.127 152.213 152.331 152.316 
152.522 152.694 153.074 153.495 154.033 154.589 155.174 155.732 156.36 
156.937 157.652 158.242 158.943 159.452 160.031 160.438 157.001 156.043 
156.737 157.214 155.041 155.764 156.252 157.008 157.581 154.036 154.778 
155.297 156.048 156.645 157.421 158.022 153.248 153.881 154.435 155.11 
155.709 156.493 157.144 157.897 158.539 152.979 153.365 153.914 154.351 
154.873 155.556 156.23 157.035 157.744 158.495 159.219 153.078 153.338 
153.868 154.057 154.467 154.845 155.456 156.157 156.933 157.715 158.474 
159.227 159.956 153.099 153.407 153.938 154.139 154.553 154.691 155.202 
155.589 156.348 156.991 157.808 158.51 159.254 159.948 160.596 153.047 
153.31 153.822 154.141 154.66 154.871 155.376 155.568 156.196 156.59 
157.363 157.938 158.711 159.325 160.003 160.58 161.124 153.224 153.303 
153.74 153.995 154.542 154.887 155.452 155.729 156.251 156.525 157.124 
157.568 158.292 158.86 159.57 160.099 160.675 161.123 161.553 157.651 
157.931 158.104 158.761 158.337 158.481 159.204 159.312 159.982 158.756 
158.911 159.663 159.812 160.547 160.61 161.293 159.269 159.361 160.127 
160.273 161.045 161.17 161.903 161.964 162.663 159.999 160.005 160.825 
160.854 161.662 161.706 162.446 162.519 163.233 163.316 163.975 160.731 
160.783 161.607 161.643 162.447 162.437 163.144 163.109 163.749 163.8 
164.451 164.544 165.1 161.269 161.397 162.108 162.267 162.961 163.105 
163.747 163.796 164.334 164.322 164.849 164.927 165.487 165.569 166.01 
161.671 161.801 162.398 162.578 163.159 163.384 163.981 164.2 164.744 
164.829 165.266 165.298 165.751 165.863 166.325 166.391 166.72 161.991 
162.108 162.632 162.792 163.332 163.52 164.109 164.345 164.953 165.133 
165.615 165.663 166.035 166.092 166.474 166.594 166.924 166.983 167.181 
157.76 158.818 158.27 158.251 159.959 159.346 159.309 158.763 158.71 
161.221 160.514 160.415 159.823 159.774 159.206 159.116 162.606 161.835 
161.68 160.968 160.864 160.263 160.162 159.583 159.48 163.941 163.225 
163.048 162.274 162.104 161.407 161.259 160.616 160.453 159.897 159.782 
165.046 164.456 164.244 163.553 163.333 162.658 162.487 161.784 161.564 
160.876 160.674 160.137 159.996 165.934 165.438 165.193 164.59 164.317 
163.751 163.574 162.985 162.761 162.042 161.751 161.071 160.856 160.319 
160.159 166.661 166.256 166.046 165.479 165.189 164.63 164.415 163.924 
163.706 163.132 162.798 162.135 161.813 161.213 160.997 160.48 160.317 
167.161 166.904 166.773 166.32 166.075 165.511 165.246 164.709 164.436 
163.923 163.578 163.027 162.656 162.105 161.817 161.308 161.107 160.634 
160.489 166.842 167.087 166.86 166.716 167.305 167.104 167.009 166.848 
166.865 167.521 167.325 167.248 167.133 167.185 167.079 167.058 167.77 
167.577 167.445 167.312 167.226 167.213 167.08 167.031 166.701 167.872 
167.788 167.612 167.462 167.193 167.09 166.731 166.732 166.266 166.283 
165.731 167.703 167.75 167.588 167.533 167.247 167.057 166.619 166.395 
165.868 165.737 165.199 165.176 164.643 167.475 167.52 167.38 167.401 
167.185 167.087 166.743 166.465 165.992 165.618 165.106 164.818 164.34 
164.188 163.718 167.378 167.354 167.198 167.18 166.96 166.944 166.661 
166.557 166.143 165.855 165.313 164.938 164.401 164.092 163.616 163.394 
162.955 167.321 167.293 167.095 167.025 166.733 166.687 166.37 166.359 
165.977 165.863 165.321 165.059 164.455 164.172 163.639 163.391 162.926 
162.711 162.3 
POINT_DATA 1002
SCALARS Distance double
LOOKUP_TABLE default
153.389 153.238 152.606 152.667 152.044 153.406 152.09 151.809 152.775 
153.31 151.916 151.864 152.395 153.025 153.314 151.966 151.909 152.298 
152.82 153.073 153.114 151.982 151.889 152.244 152.543 152.588 152.44 
152.474 152.05 151.968 152.164 152.213 152.08 151.843 151.801 152.049 
152.233 152.168 152.155 151.943 151.744 151.643 151.653 151.848 152.152 
152.399 152.414 152.19 151.806 151.543 151.603 151.756 151.86 152.036 
152.26 152.492 152.67 152.204 151.812 151.518 151.559 151.758 151.788 
151.757 151.885 152.105 152.864 152.253 152.807 152.053 152.838 151.796 
151.644 152.67 151.329 151.661 151.234 152.654 150.474 151.023 151.758 
151.68 153.267 150.252 150.269 151.319 151.863 153 154.294 151.428 
150.608 151.11 151.781 151.891 154.406 155.341 153.183 152.054 151.716 
151.9 151.915 151.923 155.561 156.326 154.628 153.606 152.868 152.451 
152.088 151.911 152.112 156.563 157.256 155.734 154.823 154.061 153.42 
152.718 152.201 152.2 152.502 157.75 156.979 158.22 157.345 158.626 
156.042 157.763 159.015 156.429 155.222 158.316 159.401 157.002 155.776 
154.597 158.805 159.683 157.591 156.321 155.105 153.808 159.032 159.844 
157.945 156.677 155.467 154.216 152.993 159.156 159.985 158.171 157.024 
155.865 154.761 153.651 152.717 159.372 160.164 158.485 157.516 156.474 
155.441 154.486 153.605 152.904 159.667 160.371 158.869 158.009 157.065 
156.053 155.122 154.324 153.601 153.02 152.713 153.171 152.596 153.836 
153.148 152.617 154.589 153.904 153.222 152.804 155.445 154.754 154.055 
153.332 152.857 156.479 155.726 155.052 154.208 153.33 152.894 157.564 
156.855 156.171 155.415 154.368 153.582 153.317 158.566 158.035 157.369 
156.699 155.792 154.853 154.319 154.06 159.458 159.133 158.582 157.915 
157.148 156.298 155.64 155.21 154.841 160.211 160.033 159.671 159.078 
158.362 157.599 156.911 156.395 155.967 155.587 152.319 152.214 151.973 
152.427 152.074 151.73 152.636 152.363 151.981 151.658 152.618 152.361 
152.041 151.803 151.724 152.786 152.34 151.906 151.686 151.639 151.672 
153.324 152.739 152.203 151.86 151.704 151.517 151.501 154.018 153.388 
152.894 152.483 152.219 151.881 151.493 151.508 154.801 154.15 153.654 
153.15 152.721 152.429 152.021 151.664 151.745 155.961 155.293 156.618 
156.072 157.339 154.709 156.779 157.849 155.363 154.023 157.25 158.319 
155.881 154.267 153.203 157.76 158.967 156.437 154.738 153.3 152.726 
158.369 159.604 157.085 155.645 154.097 153.051 152.532 158.948 160.091 
157.646 156.422 155.186 153.921 152.922 152.193 159.484 160.491 158.208 
156.921 155.821 154.686 153.487 152.539 151.974 159.938 160.824 158.816 
157.501 156.269 155.165 154.013 152.977 152.356 152.134 156.548 157.028 
157.51 158.101 158.612 157.725 159.37 160.041 158.905 158.385 160.917 
161.597 160.369 159.724 158.951 162.412 163.068 161.864 161.326 160.513 
159.641 163.782 164.51 163.042 162.568 162.034 161.186 160.324 165.057 
165.637 164.163 163.473 163.058 162.426 161.551 160.765 165.849 166.081 
165.201 164.469 163.985 163.461 162.634 161.785 161.105 166.029 166.034 
165.755 165.283 164.879 164.477 163.793 162.933 162.153 161.471 160.93 
160.816 161.568 161.485 162.32 160.638 162.22 163.079 161.25 160.22 
162.941 163.763 161.887 160.781 159.586 163.659 164.49 162.553 161.428 
160.229 158.873 164.479 165.238 163.309 162.113 160.974 159.57 158.122 
165.305 165.771 164.228 162.867 161.634 160.255 158.72 157.443 165.876 
165.997 165.115 163.752 162.311 160.868 159.307 157.961 156.928 160.935 
161.522 161.585 162.194 162.33 162.216 162.919 163.192 162.87 162.979 
163.763 164.103 163.518 163.522 163.661 164.787 164.981 164.35 164.092 
164.154 164.356 165.853 165.84 165.414 164.883 164.794 164.995 165.161 
166.719 166.615 166.425 165.789 165.489 165.68 165.798 165.75 167.242 
167.137 167.117 166.63 166.147 166.134 166.255 166.09 165.928 167.448 
167.343 167.455 167.285 166.895 166.563 166.468 166.318 166.036 165.928 