# vtk DataFile Version 4.0
vtk output
ASCII
DATASET POLYDATA
POINTS 1002 float
-79.1792 -114.37 73.2828 -78.9377 -115.652 72.9837 -78.9208 -115.205 72.0812 
-79.2016 -113.783 72.3846 -78.9988 -114.64 71.1456 -79.4043 -112.851 73.6961 
-79.385 -113.149 71.4401 -79.2057 -114.033 70.1679 -79.6132 -112.268 72.8153 
-79.7329 -111.237 74.1394 -79.7228 -112.584 70.5004 -79.498 -113.457 69.1685 
-80.0556 -111.792 71.8947 -80.2173 -110.835 73.2736 -80.3788 -109.878 74.4424 
-80.1444 -112.07 69.5917 -79.9648 -112.937 68.2783 -80.5986 -111.372 71.0278 
-80.8793 -110.521 72.3695 -80.9624 -109.498 73.5341 -81.1831 -108.638 74.5998 
-80.7562 -111.547 68.8254 -80.7286 -112.5 67.727 -81.1549 -110.82 70.2024 
-81.5358 -110.034 71.5295 -81.5994 -108.962 72.6171 -81.6701 -107.959 73.6572 
-81.8394 -107.134 74.7822 -81.6641 -111.075 68.3942 -81.6583 -112.065 67.509 
-81.8679 -110.201 69.5196 -82.1802 -109.376 70.76 -82.2798 -108.284 71.8322 
-82.2899 -107.209 72.827 -82.4111 -106.395 73.9278 -82.4644 -105.634 75.0095 
-82.715 -110.636 68.2227 -82.5804 -111.517 67.3909 -82.8218 -109.702 69.1153 
-82.9432 -108.791 70.1461 -83.0401 -107.722 71.1692 -83.08 -106.64 72.1598 
-83.1794 -105.846 73.2293 -83.254 -105.165 74.2825 -83.1603 -104.412 75.1543 
-83.7325 -110.162 68.1165 -83.5133 -110.938 67.3164 -83.8644 -109.282 68.8872 
-83.86 -108.315 69.7207 -83.8729 -107.248 70.6029 -83.9382 -106.205 71.5261 
-83.9905 -105.386 72.5516 -84.0098 -104.707 73.5812 -83.9258 -103.966 74.4546 
-83.7318 -103.222 75.176 -84.6937 -109.677 68.0508 -84.4922 -110.459 67.3596 
-84.8448 -108.837 68.7219 -84.8249 -107.859 69.4214 -84.7488 -106.746 70.1502 
-84.7678 -105.69 70.9268 -84.7726 -104.828 71.8391 -84.6597 -104.073 72.8153 
-84.4885 -103.299 73.6788 -84.2994 -102.549 74.418 -84.109 -101.955 75.1336 
-78.7063 -116.705 72.1548 -78.7734 -116.315 71.1554 -78.5178 -117.932 71.2646 
-78.7249 -117.524 70.1311 -78.18 -119.039 70.3944 -78.9467 -115.785 70.1035 
-78.4787 -118.411 69.1079 -77.6453 -119.807 69.6691 -78.8875 -116.884 68.8917 
-79.1344 -115.146 68.9818 -78.048 -118.984 68.2011 -77.4106 -120.542 68.9895 
-78.4543 -117.543 67.5996 -78.8802 -116.075 67.5953 -79.4129 -114.466 67.8987 
-77.9843 -119.798 67.3587 -77.7921 -121.39 68.2495 -78.0032 -118.182 66.3763 
-78.3127 -116.686 66.1015 -79.1986 -115.251 66.5497 -80.0576 -113.873 67.1392 
-78.4293 -120.71 66.7774 -78.5015 -122.001 67.7006 -78.211 -119.23 65.5342 
-78.1529 -117.605 64.8413 -78.9484 -115.928 65.2224 -80.1354 -114.562 66.0405 
-80.9665 -113.372 66.7937 -79.1631 -121.194 66.7175 -79.3889 -122.312 67.4894 
-78.9598 -120.03 65.5175 -78.7965 -118.742 64.46 -79.2241 -116.979 64.3888 
-80.2791 -115.183 65.039 -81.1964 -113.892 65.792 -81.8356 -112.755 66.5815 
-80.1863 -121.391 66.91 -80.4918 -122.542 67.4314 -79.9451 -120.228 66.0791 
-79.7957 -119.285 65.0466 -80.0273 -118.012 64.4902 -80.7931 -116.105 64.555 
-81.598 -114.341 64.884 -82.1285 -113.116 65.496 -82.708 -112.041 66.406 
-81.3796 -121.583 67.0333 -81.6302 -122.694 67.4253 -81.0935 -120.298 66.5483 
-80.8698 -119.31 65.8121 -80.9903 -118.462 65.1004 -81.6029 -117.019 64.6571 
-82.3181 -115.101 64.4383 -82.7442 -113.54 64.6238 -83.1033 -112.465 65.3966 
-83.713 -111.485 66.4505 -82.5758 -122.071 67.2654 -82.3678 -120.815 66.8728 
-83.483 -121.246 67.2331 -83.3314 -120.036 66.6998 -84.4408 -120.443 67.1718 
-82.0862 -119.542 66.3562 -84.4973 -119.375 66.4694 -85.7009 -119.818 66.9731 
-83.2801 -118.897 66.0253 -82.0565 -118.622 65.6519 -85.971 -118.769 66.3096 
-87.108 -119.168 66.8775 -84.8732 -118.282 65.6376 -83.7339 -117.914 65.1513 
-82.5895 -117.59 64.9106 -87.2772 -117.96 66.4619 -88.2331 -118.111 67.1678 
-86.4323 -117.595 65.5471 -85.5681 -117.15 64.6671 -84.4736 -116.61 64.3076 
-83.3197 -115.895 64.3162 -88.2255 -116.708 66.9178 -89.1483 -116.66 67.6325 
-87.4464 -116.646 65.9823 -86.7848 -116.376 64.9073 -85.8714 -115.777 64.21 
-84.7654 -114.943 64.0733 -83.6842 -114.112 64.22 -89.2502 -115.18 67.3698 
-90.1779 -115.223 67.9074 -88.3398 -115.23 66.7125 -87.5981 -115.265 65.8711 
-86.6969 -114.956 65.1281 -85.6554 -114.29 64.7844 -84.7443 -113.519 64.7253 
-83.8822 -112.856 64.8914 -90.5166 -113.787 67.6059 -91.31 -114.036 67.9783 
-89.5777 -113.637 67.2888 -88.7313 -113.667 66.8533 -87.7886 -113.622 66.3058 
-86.6634 -113.332 65.9368 -85.7602 -112.906 65.8221 -85.0809 -112.381 65.8259 
-84.3638 -111.848 66.0108 -91.7864 -112.672 67.6659 -92.3593 -113.033 68.0105 
-90.9862 -112.307 67.4913 -90.1496 -112.085 67.3248 -89.2749 -111.953 66.9734 
-88.1886 -111.777 66.6054 -87.1424 -111.622 66.514 -86.4083 -111.455 66.636 
-85.7673 -111.126 66.7987 -85.0813 -110.736 67.025 -85.6139 -109.436 67.8445 
-86.2876 -109.575 67.5474 -86.6734 -108.08 68.1288 -87.0108 -109.709 67.2216 
-87.355 -107.92 67.705 -87.5812 -106.463 68.1996 -87.7629 -109.734 66.845 
-88.1239 -107.758 67.2188 -88.2503 -106.123 67.6692 -88.4118 -104.837 68.198 
-88.7293 -109.782 66.608 -89.0962 -107.706 66.7817 -89.1636 -105.93 67.2392 
-89.1883 -104.55 67.7048 -89.2265 -103.226 68.2025 -89.8685 -110.051 66.7531 
-90.2753 -107.959 66.5943 -90.4049 -106.002 66.9459 -90.3466 -104.435 67.384 
-90.2097 -103.006 67.712 -90.0044 -101.608 68.1923 -90.8734 -110.438 67.1024 
-91.4128 -108.511 66.7051 -91.6853 -106.408 66.7517 -91.7154 -104.522 67.1151 
-91.5123 -102.91 67.3117 -91.1763 -101.414 67.6216 -90.8223 -100.288 68.2768 
-91.7446 -110.846 67.3181 -92.4095 -109.159 66.915 -92.8023 -107.126 66.6987 
-92.9143 -104.995 66.8982 -92.7882 -103.123 67.0807 -92.4936 -101.492 67.2428 
-92.1346 -100.214 67.7804 -91.757 -99.4815 68.6316 -92.53 -111.319 67.4743 
-93.2651 -109.793 67.1515 -93.781 -107.978 66.8565 -93.9525 -105.893 66.8903 
-93.8648 -103.852 67.1039 -93.6664 -102.063 67.2907 -93.4124 -100.606 67.6832 
-93.0838 -99.6328 68.3953 -92.6858 -99.0527 69.2257 -93.084 -111.793 67.8004 
-93.8305 -110.375 67.5434 -94.4596 -108.764 67.2655 -94.795 -106.908 67.167 
-94.8237 -104.904 67.3122 -94.6895 -103 67.5669 -94.4876 -101.407 67.9556 
-94.2144 -100.245 68.5472 -93.8634 -99.4427 69.2337 -93.4665 -98.7864 69.8924 
-85.7659 -108.517 68.4362 -86.7599 -107.059 68.6965 -85.8091 -107.524 69.0777 
-87.653 -105.388 68.8189 -86.7232 -105.92 69.3615 -85.7006 -106.339 69.7516 
-88.4326 -103.617 68.8225 -87.5314 -104.15 69.4933 -86.535 -104.645 70.0112 
-85.6053 -105.133 70.4307 -89.0918 -101.828 68.7805 -88.1743 -102.283 69.4398 
-87.2245 -102.907 70.1377 -86.3612 -103.508 70.7248 -85.5558 -104.138 71.2492 
-89.7552 -100.391 68.8639 -88.7483 -100.621 69.4203 -87.8074 -101.149 70.1487 
-86.9853 -101.871 71.0001 -86.1784 -102.525 71.6612 -85.3568 -103.243 72.2075 
-90.5923 -99.5071 69.1972 -89.4401 -99.5501 69.7193 -88.4089 -99.6915 70.3111 
-87.57 -100.232 71.1939 -86.7592 -100.922 72.0312 -85.8265 -101.525 72.5581 
-85.0257 -102.326 73.0644 -91.5688 -98.9023 69.6933 -90.3373 -98.8253 70.241 
-89.1412 -98.6795 70.7656 -88.1424 -98.8133 71.4497 -87.3092 -99.4167 72.2586 
-86.3748 -100.035 72.8345 -85.4095 -100.621 73.2485 -84.7354 -101.51 73.7967 
-92.5075 -98.3763 70.2144 -91.342 -98.1146 70.713 -90.0686 -97.8701 71.257 
-88.8456 -97.744 71.8263 -87.8202 -98.0858 72.4972 -86.9013 -98.7486 73.1081 
-85.9393 -99.3319 73.5355 -85.0986 -99.9902 73.9882 -84.5356 -100.937 74.5721 
-93.6608 -98.125 70.7159 -92.6373 -97.5788 71.0583 -93.8599 -97.3954 71.6898 
-92.6982 -96.9462 72.0879 -93.8915 -97.0935 72.9956 -91.3689 -97.2353 71.58 
-92.5427 -96.9295 73.5265 -93.6169 -97.3582 74.5679 -91.2904 -96.7759 72.6698 
-89.9561 -97.0391 72.1853 -92.2247 -97.1874 75.2413 -93.222 -97.7147 76.0349 
-91.0534 -96.8905 74.2365 -89.7482 -96.7462 73.4162 -88.5737 -97.1044 72.87 
-91.9735 -97.3428 76.7357 -92.8716 -98.0562 77.2349 -90.8108 -97.054 75.9902 
-89.464 -96.8372 75.1165 -88.2131 -96.8456 74.2918 -87.3848 -97.5828 73.5892 
-91.7286 -97.8117 77.9127 -92.4692 -98.6437 78.3635 -90.6499 -97.3774 77.3703 
-89.2112 -97.0985 76.7505 -87.8169 -96.8471 76.0043 -86.8836 -97.2324 75.0618 
-86.3546 -98.2459 74.1475 -91.3522 -98.6128 79.0534 -92.0394 -99.3135 79.4709 
-90.4223 -98.1483 78.5023 -89.0297 -97.7807 77.9474 -87.5107 -97.3111 77.403 
-86.4446 -97.2606 76.6171 -85.8654 -97.9665 75.5606 -85.4516 -98.9578 74.5962 
-90.9676 -99.3125 80.1251 -91.7042 -99.9016 80.3992 -90.1103 -98.9092 79.6521 
-88.8939 -98.5943 79.0651 -87.4237 -98.17 78.499 -86.2367 -97.8991 77.8643 
-85.5519 -98.2178 76.993 -85.1136 -98.9742 75.9831 -84.7612 -99.8741 75.1229 
-90.6815 -99.9607 80.9428 -91.4394 -100.562 81.0997 -89.8314 -99.5099 80.6316 
-88.7752 -99.1985 80.1674 -87.5009 -98.9354 79.6148 -86.3102 -98.7714 78.9912 
-85.4743 -98.9157 78.2535 -84.9211 -99.4007 77.3766 -84.5127 -100.085 76.4495 
-84.2428 -100.936 75.6659 -94.3773 -99.0514 70.2618 -94.6681 -98.3221 71.1895 
-95.1957 -99.3973 70.7245 -95.5916 -98.6015 71.7935 -95.937 -99.7936 71.1908 
-94.9603 -97.6078 72.3705 -96.3257 -99.1516 72.442 -96.5433 -100.636 71.8284 
-95.8771 -97.9883 73.1516 -94.9415 -97.4806 73.8497 -96.7549 -100.41 73.2119 
-96.9014 -102.008 72.6868 -96.4167 -98.8856 73.9205 -95.699 -98.0868 74.6453 
-94.5383 -97.9534 75.3313 -96.9551 -101.999 74.0359 -97.1131 -103.335 73.4689 
-96.6855 -100.473 74.7361 -96.1492 -99.1295 75.4382 -95.2419 -98.6679 76.0157 
-94.0544 -98.5109 76.5976 -97.1778 -103.278 74.8225 -97.3997 -104.554 74.1785 
-96.9545 -102.069 75.5643 -96.5918 -100.582 76.3272 -95.8688 -99.504 76.9021 
-94.7884 -99.2724 77.3152 -93.5768 -99.0625 77.8021 -97.4885 -104.577 75.6965 
-97.6937 -106.037 75.0395 -97.231 -103.369 76.383 -96.982 -102.096 77.1369 
-96.4642 -100.718 77.834 -95.4968 -100.01 78.2811 -94.2791 -99.9059 78.5906 
-93.0839 -99.6646 78.9946 -97.6706 -106.171 76.5666 -97.7547 -107.586 75.9053 
-97.3735 -104.799 77.1574 -97.0612 -103.58 77.7691 -96.7007 -102.317 78.464 
-95.9978 -101.237 79.0694 -94.9458 -100.753 79.4198 -93.7916 -100.544 79.6639 
-92.6911 -100.218 80.0058 -97.5686 -107.681 77.1839 -97.5482 -108.821 76.5351 
-97.3247 -106.382 77.7318 -96.934 -105.112 78.2538 -96.5866 -103.94 78.8657 
[...]
CELL_DATA 2000
SCALARS Distance double
LOOKUP_TABLE default
156.425 155.63 155.922 155.683 154.833 155.109 154.895 155.176 154.929 
154.109 154.358 154.223 154.484 154.355 154.519 154.338 153.501 153.706 
153.671 153.94 153.932 154.086 153.954 154.042 153.902 153.133 153.204 
153.187 153.45 153.499 153.713 153.562 153.648 153.386 153.552 153.353 
153.086 152.996 152.908 153.028 153.053 153.261 153.109 153.196 152.869 
152.972 152.726 152.941 152.762 153.182 153.06 152.937 152.875 152.822 
152.879 152.755 152.776 152.514 152.519 152.334 152.437 152.372 152.481 
152.361 153.267 153.184 153.102 152.977 152.857 152.764 152.602 152.536 
152.325 152.281 152.129 152.177 152.127 152.219 152.122 152.155 151.947 
153.404 153.306 153.256 153.135 152.986 152.833 152.591 152.453 152.194 
152.131 151.93 151.971 151.818 151.926 151.722 151.826 151.527 151.614 
151.306 156.744 157.081 156.6 155.989 157.446 156.982 156.349 155.837 
155.201 157.565 157.24 156.6 156.173 155.484 155.024 154.408 157.552 
157.209 156.475 156.19 155.455 155.176 154.521 154.213 153.709 157.845 
157.272 156.401 155.946 155.113 154.907 154.31 154.205 153.795 153.609 
153.33 158.431 157.739 156.878 156.112 155.232 154.688 154.118 153.947 
153.72 153.675 153.553 153.394 153.286 159.055 158.39 157.661 156.841 
156.082 155.24 154.683 154.106 153.889 153.675 153.64 153.562 153.494 
153.377 153.298 159.729 159.068 158.436 157.694 157.085 156.293 155.822 
155.054 154.744 154.156 153.98 153.677 153.557 153.451 153.355 153.319 
153.286 160.455 159.813 159.225 158.509 157.948 157.266 156.863 156.212 
155.899 155.2 154.866 154.232 153.953 153.58 153.461 153.341 153.365 
153.346 153.426 160.664 160.541 160.239 159.443 160.389 160.083 159.296 
158.957 158.178 160.392 159.994 159.25 158.857 158.139 157.798 157.167 
160.596 160.128 159.419 158.938 158.26 157.854 157.255 156.908 156.293 
160.715 160.352 159.662 159.198 158.503 158.047 157.382 156.996 156.309 
155.953 155.223 160.512 160.324 159.662 159.364 158.675 158.279 157.551 
157.11 156.343 155.929 155.162 154.814 154.175 160.162 160.02 159.399 
159.228 158.62 158.365 157.7 157.283 156.552 156.054 155.37 154.892 
154.337 153.968 153.626 159.926 159.727 159.151 158.964 158.434 158.26 
157.715 157.411 156.782 156.341 155.771 155.297 154.876 154.392 154.1 
153.702 153.56 159.823 159.593 159.056 158.813 158.303 158.11 157.61 
157.389 156.804 156.501 155.933 155.644 155.247 154.952 154.665 154.296 
154.073 153.735 153.62 153.681 154.106 153.828 153.658 154.584 154.247 
153.919 153.606 153.219 155.008 154.632 154.167 153.791 153.256 152.996 
152.56 155.57 155.042 154.53 154.03 153.471 153.073 152.611 152.357 
151.964 156.413 155.747 155.249 154.559 154.055 153.466 153.046 152.589 
152.199 151.827 151.397 157.289 156.677 156.245 155.482 154.993 154.255 
153.827 153.207 152.779 152.228 151.749 151.29 150.89 158.062 157.549 
157.244 156.552 156.106 155.31 154.832 154.086 153.612 152.925 152.422 
151.798 151.394 150.946 150.788 158.843 158.36 158.167 157.565 157.237 
156.47 156.027 155.185 154.717 153.89 153.444 152.664 152.322 151.676 
151.559 151.118 151.193 159.612 159.169 159.013 158.495 158.255 157.599 
157.246 156.441 156.021 155.139 154.74 153.872 153.582 152.812 152.71 
152.102 152.172 151.703 151.824 153.508 153.443 153.441 153.287 153.054 
153.226 153.076 153.14 152.959 152.447 152.718 152.604 152.789 152.583 
152.689 152.474 151.772 152.053 151.922 152.202 152.001 152.196 151.969 
152.14 151.998 151.073 151.312 151.082 151.411 151.219 151.527 151.348 
151.594 151.485 151.717 151.711 150.568 150.643 150.363 150.562 150.37 
150.697 150.616 150.959 150.911 151.191 151.175 151.462 151.527 150.537 
150.372 150.154 150.069 149.872 149.973 149.932 150.249 150.291 150.611 
150.559 150.842 150.804 151.201 151.288 150.924 150.598 150.416 150.137 
149.91 149.73 149.584 149.685 149.718 150.008 149.996 150.228 150.1 
150.393 150.384 150.882 151.016 151.467 151.077 150.831 150.496 150.215 
149.908 149.626 149.482 149.369 149.503 149.514 149.717 149.642 149.793 
149.729 150.027 150.149 150.641 150.843 151.693 151.739 151.445 150.972 
151.962 151.506 150.949 150.71 150.287 152.555 151.887 151.241 150.76 
150.245 150.011 149.657 153.308 152.599 151.932 151.242 150.627 150.11 
149.673 149.454 149.309 153.97 153.33 152.703 152.014 151.371 150.674 
150.113 149.629 149.374 149.273 149.343 154.646 154.004 153.444 152.783 
152.19 151.468 150.84 150.183 149.757 149.432 149.351 149.363 149.459 
155.407 154.768 154.286 153.604 153.076 152.323 151.705 150.945 150.423 
149.892 149.685 149.468 149.493 149.471 149.59 156.121 155.552 155.123 
154.496 154.018 153.28 152.707 151.885 151.363 150.661 150.414 149.968 
149.981 149.722 149.858 149.748 150.009 156.767 156.245 155.841 155.288 
154.85 154.207 153.708 152.945 152.48 151.719 151.47 150.866 150.861 
150.421 150.542 150.238 150.455 150.336 150.678 152.227 153.159 152.571 
152.332 154.121 153.547 153.372 152.745 152.608 155.198 154.564 154.473 
153.855 153.807 153.188 153.21 156.573 155.808 155.735 155.034 155.027 
154.419 154.485 153.896 153.95 158.027 157.288 157.235 156.446 156.403 
155.685 155.734 155.142 155.214 154.61 154.608 159.347 158.686 158.708 
157.996 157.983 157.178 157.154 156.428 156.487 155.864 155.904 155.253 
155.257 160.769 160.035 160.09 159.424 159.498 158.768 158.747 157.938 
157.914 157.189 157.232 156.57 156.592 155.93 155.959 162.282 161.543 
161.542 160.822 160.851 160.192 160.195 159.479 159.415 158.658 158.622 
157.921 157.924 157.256 157.245 156.61 156.627 163.498 162.948 162.886 
162.219 162.111 161.462 161.395 160.786 160.731 160.074 160.002 159.307 
159.254 158.573 158.533 157.873 157.845 157.234 157.25 159.968 160.312 
159.89 159.379 160.729 160.233 159.667 159.235 158.63 161.224 160.662 
159.996 159.498 158.829 158.394 157.666 161.647 161.116 160.37 159.811 
159.039 158.556 157.782 157.328 156.488 161.947 161.467 160.732 160.165 
159.327 158.759 157.909 157.416 156.567 156.094 155.227 162.266 161.769 
161.087 160.53 159.729 159.093 158.192 157.577 156.694 156.178 155.36 
154.882 154.105 162.69 162.152 161.471 160.904 160.143 159.526 158.656 
157.958 157.036 156.387 155.587 155.075 154.409 153.916 153.291 163.161 
162.621 161.907 161.295 160.492 159.907 159.092 158.458 157.58 156.855 
156.024 155.404 154.778 154.295 153.775 153.264 152.753 163.546 163.077 
162.362 161.731 160.876 160.248 159.453 158.881 158.118 157.45 156.644 
155.943 155.261 154.717 154.211 153.752 153.275 152.787 152.325 160.381 
161.094 160.743 160.752 161.865 161.489 161.571 161.184 161.24 162.82 
162.344 162.458 162.061 162.2 161.766 161.816 163.907 163.366 163.404 
162.971 163.104 162.73 162.826 162.346 162.285 164.949 164.429 164.371 
163.887 163.937 163.588 163.721 163.334 163.332 162.763 162.605 165.963 
165.47 165.435 164.856 164.817 164.383 164.534 164.222 164.364 163.861 
163.78 163.093 162.932 166.951 166.536 166.605 165.997 165.874 165.272 
165.277 164.973 165.197 164.899 164.954 164.338 164.178 163.459 163.332 
167.731 167.47 167.606 167.156 167.006 166.331 166.073 165.62 165.693 
165.573 165.755 165.434 165.329 164.69 164.486 163.847 163.745 168.276 
168.107 168.251 168.011 167.943 167.387 167.031 166.391 166.214 165.968 
166.161 166.068 166.137 165.72 165.503 164.909 164.709 164.184 164.069 
168.592 169.018 168.717 168.546 169.273 169.091 168.867 168.623 168.26 
169.096 169.154 168.934 168.829 168.396 168.071 167.398 168.626 168.779 
168.599 168.695 168.339 168.145 167.543 167.121 166.577 168.302 168.337 
168.115 168.223 167.955 167.976 167.598 167.36 166.994 166.633 166.463 
168.08 168.104 167.831 167.807 167.49 167.53 167.275 167.322 167.129 
167.039 166.853 166.638 166.406 167.682 167.82 167.608 167.596 167.275 
167.193 166.917 166.959 166.821 166.944 166.768 166.767 166.405 166.259 
165.774 167.276 167.403 167.284 167.35 167.142 167.079 166.841 166.76 
166.609 166.627 166.472 166.489 166.15 166.068 165.594 165.447 164.976 
167.074 167.116 167.027 167.067 166.917 166.925 166.752 166.73 166.593 
166.552 166.383 166.284 165.961 165.809 165.378 165.245 164.834 164.713 
164.33 166.972 166.677 166.883 166.895 166.057 166.463 166.493 166.719 
166.7 165.09 165.686 165.755 166.156 166.16 166.479 166.522 163.863 
164.589 164.704 165.274 165.347 165.833 165.985 166.355 166.448 162.511 
163.28 163.433 164.131 164.264 164.911 165.125 165.714 165.89 166.254 
166.23 161.214 161.925 162.084 162.822 162.981 163.724 163.906 164.66 
164.801 165.442 165.404 165.828 165.657 160.024 160.666 160.786 161.493 
161.638 162.387 162.519 163.295 163.355 164.108 164.059 164.714 164.589 
165.108 164.98 158.878 159.482 159.558 160.221 160.335 161.045 161.158 
161.883 161.93 162.627 162.598 163.278 163.256 163.912 163.925 164.474 
164.461 157.798 158.347 158.409 159.017 159.112 159.767 159.87 160.549 
160.629 161.285 161.314 161.93 161.956 162.602 162.691 163.357 163.445 
164 163.99 166.93 166.571 166.717 166.552 165.929 166.134 165.859 
166.133 165.85 165.286 165.391 164.981 165.244 164.909 165.242 164.852 
164.733 164.78 164.302 164.398 163.978 164.227 163.834 164.127 163.638 
163.996 164.151 163.648 163.751 163.262 163.394 162.925 163.116 162.616 
162.845 162.301 163.053 163.276 162.726 162.943 162.408 162.624 162.092 
162.261 161.7 161.863 161.322 161.531 161.029 162.099 162.305 161.737 
161.935 161.363 161.619 161.076 161.333 160.773 160.971 160.425 160.613 
160.127 160.334 159.877 161.171 161.372 160.831 160.99 160.409 160.584 
160.022 160.258 159.73 159.988 159.482 159.721 159.241 159.459 158.993 
159.204 158.748 160.302 160.474 159.965 160.121 159.569 159.698 159.125 
159.274 158.737 158.957 158.481 158.747 158.29 158.545 158.079 158.309 
157.848 158.076 157.659 167.03 167.184 167.03 166.785 167.355 167.208 
166.989 166.72 166.301 167.437 167.334 167.131 166.934 166.575 166.212 
165.734 167.506 167.361 167.161 167.033 166.717 166.456 166.018 165.66 
165.164 167.678 167.433 167.205 167.077 166.813 166.58 166.146 165.845 
165.334 165.012 164.425 167.762 167.532 167.204 167.122 166.907 166.725 
166.3 165.954 165.376 165.058 164.459 164.149 163.496 167.579 167.439 
166.985 166.981 166.721 166.729 166.335 166.087 165.43 165.065 164.384 
164.096 163.462 163.172 162.522 167.236 167.156 166.66 166.63 166.257 
166.352 165.964 165.938 165.304 165.043 164.289 163.994 163.324 163.08 
162.459 162.191 161.566 166.839 166.817 166.371 166.294 165.857 165.85 
165.43 165.448 164.908 164.79 164.104 163.864 163.185 162.941 162.336 
162.098 161.517 161.253 160.685 166.448 165.71 166.094 166.038 164.897 
165.333 165.321 165.642 165.538 163.947 164.466 164.465 164.884 164.777 
165.11 165.009 162.748 163.372 163.336 163.91 163.812 164.26 164.105 
164.519 164.401 161.43 162.051 161.982 162.643 162.585 163.18 163.054 
163.53 163.354 163.81 163.632 160.235 160.76 160.685 161.287 161.257 
161.893 161.812 162.377 162.198 162.699 162.492 162.968 162.761 159.182 
159.646 159.575 160.09 160.045 160.61 160.494 161.06 160.846 161.42 
161.207 161.777 161.595 162.102 161.921 158.206 158.643 158.574 159.042 
158.962 159.45 159.276 159.755 159.496 160.022 159.83 160.441 160.344 
160.927 160.81 161.297 161.13 157.301 157.709 157.63 158.059 157.937 
158.373 158.174 158.589 158.347 158.775 158.63 159.159 159.163 159.737 
159.732 160.223 160.102 160.522 160.343 156.786 156.045 156.644 157.081 
155.197 155.805 156.203 156.879 157.308 154.512 154.96 155.293 155.927 
156.36 157.065 157.495 154.114 154.427 154.746 155.163 155.618 156.181 
156.679 157.289 157.725 153.635 154.046 154.387 154.773 155.201 155.629 
156.144 156.631 157.149 157.633 158.11 152.948 153.41 153.689 154.255 
154.6 155.16 155.559 156.116 156.605 157.15 157.679 158.155 158.679 
152.373 152.68 152.813 153.36 153.647 154.32 154.659 155.339 155.746 
156.454 156.974 157.653 158.186 158.736 159.215 151.919 152.139 152.169 
152.535 152.787 153.351 153.754 154.388 154.83 155.507 156.026 156.784 
157.344 158.067 158.545 159.143 159.539 151.375 151.655 151.699 151.993 
152.222 152.65 153.083 153.623 154.136 154.709 155.246 155.885 156.456 
157.157 157.682 158.348 158.778 159.371 159.754 159.71 158.689 159.238 
159.321 157.585 158.16 158.202 158.813 158.906 156.403 157.006 157.025 
157.645 157.705 158.354 158.443 155.222 155.808 155.817 156.431 156.462 
157.115 157.203 157.882 158.027 154.094 154.643 154.624 155.212 155.234 
155.87 155.967 156.646 156.82 157.522 157.756 153.027 153.525 153.486 
154.037 154.06 154.669 154.78 155.44 155.618 156.318 156.551 157.287 
157.555 152.135 152.506 152.459 152.941 152.963 153.532 153.632 154.271 
154.425 155.111 155.312 156.051 156.305 157.074 157.343 151.503 151.709 
151.594 151.972 151.944 152.454 152.495 153.105 153.219 153.902 154.099 
154.823 155.095 155.837 156.138 156.875 157.15 151.038 151.122 150.881 
151.147 151.025 151.444 151.401 151.943 152.006 152.673 152.898 153.642 
153.988 154.716 155.079 155.758 156.082 156.738 157.018 161.031 160.35 
161.01 161.646 159.707 160.341 161.005 161.651 162.329 159.121 159.732 
160.379 161.018 161.741 162.407 163.154 158.536 159.12 159.714 160.361 
161.075 161.816 162.661 163.332 164.119 158.162 158.574 159.087 159.643 
160.302 161.087 161.993 162.826 163.728 164.351 165.069 158.104 158.358 
158.831 159.148 159.749 160.347 161.248 162.11 163.092 163.878 164.625 
165.193 165.717 157.992 158.324 158.824 159.075 159.651 160.006 160.823 
161.467 162.429 163.193 163.966 164.612 165.118 165.655 166.03 157.641 
158.088 158.613 159.016 159.575 159.958 160.636 161.145 161.962 162.603 
163.349 163.948 164.48 165.004 165.417 165.906 166.263 157.284 157.701 
158.215 158.68 159.21 159.701 160.262 160.814 161.457 162.096 162.767 
163.38 163.936 164.437 164.879 165.335 165.731 166.169 166.503 161.569 
162.197 162.099 162.496 162.905 162.777 163.234 163.05 163.44 163.724 
163.553 164.062 163.871 164.331 164.084 164.508 164.644 164.427 164.964 
164.771 165.284 165.036 165.465 165.185 165.564 165.574 165.38 165.959 
165.76 166.35 166.068 166.493 166.139 166.453 166.158 166.464 166.232 
166.213 166.817 166.755 167.416 167.209 167.658 167.223 167.441 167.024 
167.278 167.012 167.3 166.519 166.659 167.184 167.361 167.957 168.074 
168.522 168.314 168.454 168.016 168.138 167.816 168.081 167.831 168.019 
166.7 166.833 167.251 167.463 167.904 168.221 168.628 168.812 168.999 
168.851 168.926 168.651 168.836 168.588 168.755 168.435 168.426 166.92 
167.023 167.423 167.519 167.904 168.078 168.477 168.709 169.041 169.147 
169.377 169.304 169.524 169.33 169.482 169.154 169.121 168.713 168.591 
161.351 162.246 161.631 161.245 163.14 162.5 162.131 161.491 161.093 
164.185 163.46 163.085 162.396 162.048 161.386 161.079 165.258 164.556 
164.175 163.428 163.071 162.38 162.109 161.47 161.251 166.182 165.57 
165.197 164.504 164.098 163.413 163.075 162.462 162.194 161.622 161.332 
167.004 166.433 166.046 165.421 164.989 164.36 163.938 163.338 162.944 
162.413 162.033 161.524 161.096 167.662 167.178 166.737 166.175 165.713 
165.152 164.715 164.131 163.648 163.061 162.573 162.075 161.629 161.158 
160.716 168.038 167.69 167.242 166.774 166.291 165.792 165.36 164.845 
164.372 163.761 163.203 162.603 162.112 161.636 161.248 160.799 160.444 
168.249 167.982 167.634 167.242 166.821 166.338 165.895 165.416 164.963 
164.435 163.898 163.279 162.741 162.175 161.776 161.325 161.019 160.587 
160.299 167.123 167.336 167.225 167.286 167.77 167.552 167.594 167.439 
167.484 168.231 168.059 168.098 167.851 167.856 167.644 167.618 168.497 
168.449 168.567 168.388 168.429 168.144 168.148 167.835 167.798 168.831 
168.738 168.969 168.846 169.047 168.81 168.978 168.602 168.688 168.197 
168.15 169.334 169.223 169.534 169.373 169.665 169.462 169.734 169.488 
169.68 169.256 169.218 168.602 168.361 169.535 169.654 169.982 169.972 
170.198 170.052 170.148 170.034 170.067 169.961 169.817 169.499 169.116 
168.593 168.134 169.247 169.581 169.866 170.147 170.287 170.347 170.218 
170.165 169.903 169.919 169.584 169.589 169.124 168.969 168.436 168.124 
167.649 168.78 169.134 169.353 169.751 169.846 170.101 169.929 169.986 
169.653 169.622 169.239 169.185 168.754 168.689 168.237 168.14 167.711 
167.533 167.141 
POINT_DATA 1002
SCALARS Distance double
LOOKUP_TABLE default
156.227 156.903 156.151 155.394 155.349 155.434 154.591 154.566 154.706 
154.652 153.923 153.844 154.162 154.204 154.163 153.356 153.308 153.741 
153.899 153.764 153.784 152.952 153.144 153.258 153.506 153.287 153.112 
153.168 152.898 153.221 152.882 153.025 152.803 152.523 152.548 152.575 
153.067 153.264 152.854 152.739 152.509 152.237 152.248 152.326 152.186 
153.23 153.316 153.018 152.707 152.368 152.106 152.051 152.087 151.958 
151.7 153.38 153.524 153.165 152.78 152.292 151.927 151.762 151.645 
151.439 151.187 151.034 157.181 156.473 157.593 156.886 157.864 155.695 
156.975 157.86 155.943 154.818 156.798 158.005 155.656 154.771 153.981 
157.02 158.516 155.388 154.3 153.868 153.544 157.686 159.095 155.932 
154.381 153.681 153.62 153.5 158.393 159.679 156.907 155.409 154.263 
153.732 153.573 153.415 159.133 160.377 157.784 156.567 155.494 154.484 
153.732 153.37 153.284 159.93 161.06 158.614 157.449 156.578 155.63 
154.489 153.642 153.374 153.443 161.002 159.788 160.834 159.629 160.706 
158.473 159.65 160.822 158.472 157.476 159.917 161.054 158.695 157.619 
156.677 160.087 161.009 158.986 157.833 156.7 155.558 159.88 160.651 
159.021 158.022 156.801 155.533 154.399 159.533 160.307 158.789 158.055 
157.028 155.832 154.748 153.867 159.347 160.13 158.579 157.943 157.156 
156.17 155.317 154.568 153.87 159.307 160.035 158.52 157.816 157.079 
156.187 155.453 154.978 154.458 153.899 153.625 153.968 153.387 154.325 
153.472 152.805 154.603 153.583 152.718 152.161 155.082 153.915 152.923 
152.197 151.54 155.983 154.691 153.568 152.655 151.751 150.905 156.979 
155.782 154.514 153.405 152.284 151.219 150.553 157.858 156.901 155.643 
154.346 153.091 151.897 151.072 150.744 158.708 157.941 156.873 155.572 
154.238 153.008 152.064 151.543 151.297 159.497 158.84 157.987 156.883 
155.612 154.372 153.368 152.702 152.273 151.904 153.322 152.975 152.937 
152.381 152.464 152.356 151.622 151.769 151.776 151.78 150.78 150.85 
151.044 151.231 151.45 150.25 150.063 150.202 150.609 150.899 151.18 
150.318 149.899 149.659 149.942 150.33 150.454 150.784 150.736 150.199 
149.637 149.46 149.758 149.906 149.946 150.428 151.203 150.559 149.893 
149.355 149.297 149.492 149.532 149.712 150.313 151.976 151.16 152.085 
151.277 152.529 150.416 151.858 153.283 150.593 149.73 152.663 153.984 
151.282 150.012 149.282 153.348 154.581 152.103 150.736 149.599 149.246 
154.086 155.275 152.902 151.569 150.221 149.457 149.357 154.946 156.003 
153.829 152.503 151.049 150.005 149.598 149.53 155.71 156.652 154.716 
153.513 152.109 150.934 150.307 150.042 150.006 156.375 157.275 155.44 
154.397 153.218 152.117 151.361 150.919 150.671 150.692 152.802 152.939 
153.739 153.966 154.663 153.215 155.069 155.868 154.388 153.823 156.492 
157.363 155.649 155.049 154.587 158.014 158.709 157.204 156.36 155.796 
155.262 159.338 159.999 158.776 157.974 157.133 156.536 155.918 160.773 
161.539 160.163 159.559 158.711 157.901 157.26 156.6 162.323 162.989 
161.536 160.857 160.172 159.364 158.604 157.91 157.228 163.537 163.971 
162.803 161.999 161.334 160.69 159.955 159.206 158.484 157.824 160.374 
159.802 160.764 160.136 161.29 159.067 160.564 161.82 159.293 158.132 
160.968 162.157 159.582 158.247 156.973 161.281 162.408 159.951 158.454 
157.033 155.701 161.623 162.772 160.363 158.879 157.25 155.805 154.578 
162.065 163.239 160.73 159.341 157.753 156.112 154.847 153.806 162.565 
163.683 161.095 159.654 158.285 156.706 155.257 154.234 153.288 160.737 
161.123 161.426 161.923 162.253 161.671 162.862 163.35 162.593 162.341 
163.892 164.483 163.464 163.261 162.881 164.917 165.451 164.31 164.043 
163.865 163.255 166.046 166.397 165.346 164.801 164.764 164.469 163.62 
167.169 167.291 166.605 165.676 165.362 165.47 164.928 163.99 167.953 
167.953 167.7 166.719 165.83 165.893 165.909 165.155 164.317 168.418 