# vtk DataFile Version 4.0
vtk output
ASCII
DATASET POLYDATA
POINTS 1002 float
-79.2922 -113.565 73.3672 -79.0671 -114.876 73.063 -79.1905 -114.421 72.1711 
-79.4307 -113.012 72.4383 -79.348 -113.899 71.1142 -79.7252 -112.261 73.7023 
-79.6756 -112.454 71.4037 -79.7282 -113.415 70.2084 -80.0043 -111.69 72.7685 
-80.4178 -110.979 74.093 -80.2954 -112.036 70.6442 -80.4935 -113.016 69.6957 
-80.4225 -111.157 71.8585 -80.8922 -110.434 73.2345 -81.0912 -109.596 74.5208 
-81.2705 -111.659 70.226 -81.409 -112.548 69.3035 -81.1494 -110.638 71.2234 
-81.3836 -109.811 72.4522 -81.5933 -108.952 73.7362 -81.4792 -107.981 74.8675 
-82.1926 -111.06 69.8205 -82.2486 -111.821 68.8592 -82.0248 -109.96 70.7467 
-81.9423 -108.93 71.7444 -81.9714 -108.039 72.9175 -81.8764 -107.077 74.0764 
-81.7368 -106.193 75.0854 -83.0651 -110.237 69.467 -83.2242 -110.922 68.6149 
-82.8283 -109.171 70.2951 -82.5978 -107.968 71.0999 -82.4384 -106.969 72.0777 
-82.2925 -106.059 73.2317 -82.1843 -105.198 74.3309 -82.1234 -104.524 75.3049 
-84.1391 -109.442 69.353 -84.3653 -110.128 68.6208 -83.7391 -108.45 69.9879 
-83.3878 -107.228 70.6069 -83.1996 -106.158 71.4367 -83.0345 -105.308 72.5077 
-82.8932 -104.491 73.6391 -82.7934 -103.765 74.6772 -82.6251 -103.189 75.605 
-85.2073 -108.801 69.3085 -85.3728 -109.524 68.6473 -84.7692 -107.822 69.778 
-84.3078 -106.635 70.2045 -84.1112 -105.557 70.9448 -84.0206 -104.777 71.9925 
-83.8688 -104.099 73.0726 -83.712 -103.374 74.1052 -83.4881 -102.703 75.0723 
-83.1441 -102.134 75.911 -86.0384 -108.212 69.1388 -86.1504 -108.958 68.5595 
-85.6738 -107.217 69.5158 -85.202 -106.046 69.7935 -84.961 -104.967 70.4003 
-84.923 -104.178 71.4499 -84.815 -103.599 72.5398 -84.6313 -103.015 73.5095 
-84.4164 -102.368 74.4904 -84.0872 -101.757 75.4101 -83.6688 -101.226 76.1456 
-78.9538 -115.954 72.2111 -79.1069 -115.541 71.1413 -78.7792 -117.041 71.2384 
-78.8306 -116.626 69.9878 -78.5307 -117.963 70.2349 -79.259 -115.016 70.0123 
-78.3543 -117.492 68.8227 -78.4287 -118.771 69.3576 -78.8238 -115.997 68.8131 
-79.654 -114.409 69.2113 -78.2681 -118.401 67.8879 -78.7462 -119.738 68.7673 
-78.3347 -116.856 67.5994 -79.2875 -115.186 68.0526 -80.4636 -113.781 68.7417 
-78.977 -119.534 67.4797 -79.4875 -120.745 68.5397 -78.6443 -117.992 66.8068 
-79.2598 -116.072 66.9558 -80.4374 -114.384 67.6505 -81.4372 -113.098 68.3008 
-80.1103 -120.333 67.6825 -80.4844 -121.323 68.6706 -79.7258 -119.089 66.8617 
-80.0119 -117.255 66.5759 -80.9576 -115.276 66.9235 -81.7867 -113.662 67.4589 
-82.451 -112.263 67.9604 -81.2376 -120.462 68.2788 -81.5476 -121.436 69.0594 
-80.9328 -119.467 67.5478 -81.0453 -118.093 66.9736 -81.8039 -116.316 66.8268 
-82.5768 -114.536 67.0514 -83.0272 -112.869 67.3527 -83.6029 -111.365 67.8561 
-82.2487 -120.347 68.9146 -82.5266 -121.433 69.4864 -82.0634 -119.366 68.2969 
-82.1163 -118.377 67.5185 -82.6249 -117.067 66.8761 -83.3641 -115.455 66.7319 
-83.8278 -113.71 66.8972 -84.1592 -112.009 67.2316 -84.7288 -110.615 67.8767 
-83.1627 -120.348 69.3507 -83.4074 -121.484 69.7855 -83.1183 -119.32 68.7951 
-83.2831 -118.532 67.8757 -83.6143 -117.623 66.822 -84.1072 -116.246 66.2659 
-84.5705 -114.54 66.3258 -84.8506 -112.791 66.6537 -85.1688 -111.237 67.1829 
-85.6652 -110.004 67.9024 -84.154 -120.814 69.7234 -84.0977 -119.635 69.2385 
-85.1453 -120.024 69.5838 -85.3619 -118.966 68.8436 -86.3354 -119.179 69.3646 
-84.3863 -118.788 68.3411 -86.6816 -118.246 68.4576 -87.487 -118.277 69.2132 
-85.8623 -118.327 67.6482 -84.7891 -118.144 67.0357 -87.7975 -117.313 68.3471 
-88.5162 -117.223 69.1599 -87.1192 -117.511 67.3928 -86.2152 -117.497 66.467 
-85.0845 -116.992 66.034 -88.8482 -116.125 68.3781 -89.5553 -116.013 69.1666 
-88.1809 -116.268 67.5541 -87.3445 -116.239 66.6847 -86.3354 -115.857 65.9603 
-85.3682 -115.212 65.8573 -89.9642 -114.703 68.6225 -90.6383 -114.725 69.3245 
-89.31 -114.784 67.8711 -88.4615 -114.764 67.1608 -87.4712 -114.47 66.484 
-86.5263 -113.933 66.0825 -85.6521 -113.342 66.1997 -91.0772 -113.212 69.036 
-91.712 -113.452 69.5123 -90.4651 -113.127 68.4393 -89.651 -113.19 67.7639 
-88.6547 -113.16 67.0743 -87.7098 -112.783 66.594 -86.801 -112.189 66.4951 
-85.9054 -111.653 66.7408 -92.1717 -111.988 69.1169 -92.7637 -112.334 69.4748 
-91.6116 -111.658 68.7359 -90.8727 -111.535 68.3003 -89.8682 -111.616 67.7063 
-88.8606 -111.491 67.1422 -87.9624 -111.003 66.9234 -87.054 -110.501 67.0557 
-86.2426 -110.195 67.4167 -93.2109 -111.129 68.8254 -93.7451 -111.447 69.2776 
-92.7251 -110.695 68.4171 -92.1447 -110.273 68.166 -91.2322 -110.063 67.9394 
-90.0826 -109.895 67.5819 -89.0356 -109.503 67.2974 -88.1411 -109.09 67.3137 
-87.318 -108.939 67.6038 -86.6485 -108.958 68.0601 -86.8233 -107.783 68.6967 
-87.466 -107.603 68.1859 -87.5744 -106.309 68.7118 -88.2175 -107.381 67.7246 
-88.4141 -106.053 68.2592 -88.5519 -104.804 68.8666 -89.0915 -107.423 67.4708 
-89.2598 -105.791 67.8055 -89.5636 -104.589 68.4565 -89.6278 -103.397 69.1001 
-90.2365 -107.865 67.4924 -90.3225 -105.862 67.526 -90.5234 -104.319 67.869 
-90.6947 -103.097 68.5082 -90.4257 -101.951 69.0749 -91.6242 -108.425 67.6116 
-91.7841 -106.444 67.4929 -91.7366 -104.395 67.5006 -91.6917 -102.696 67.7007 
-91.4728 -101.52 68.2695 -90.9723 -100.653 69.0798 -92.7508 -108.935 67.6261 
-93.1059 -107.246 67.5453 -93.0288 -105.1 67.6985 -92.7715 -102.884 67.5517 
-92.4961 -101.255 67.6058 -92.1172 -100.34 68.4004 -91.7514 -99.7562 69.5892 
-93.3703 -109.513 67.7428 -93.7839 -107.997 67.666 -93.7942 -106.023 68.2084 
-93.6313 -103.829 68.3296 -93.5208 -101.879 67.9621 -93.3144 -100.502 68.1827 
-93.0158 -99.6213 69.1655 -92.7961 -99.0472 70.3098 -93.8068 -110.079 68.1952 
-94.186 -108.683 68.0489 -94.2185 -106.812 68.6615 -94.1722 -104.813 69.1615 
-94.3527 -102.994 68.9185 -94.4886 -101.386 68.7358 -94.2675 -100.035 69.222 
-93.9081 -99.0282 70.0529 -93.6305 -98.3975 70.9032 -94.3065 -110.479 68.8156 
-94.7047 -109.259 68.6394 -94.8054 -107.551 69.0384 -94.7894 -105.628 69.5347 
-95.0214 -103.883 69.5075 -95.3945 -102.286 69.3526 -95.3841 -100.786 69.6505 
-94.9222 -99.5286 70.2328 -94.4161 -98.6 70.8568 -94.0603 -97.9857 71.5402 
-86.5909 -106.815 69.1252 -87.289 -105.19 69.0874 -86.1556 -105.617 69.3744 
-88.2545 -103.652 69.2731 -86.8753 -103.996 69.3879 -85.805 -104.459 69.7826 
-89.172 -102.193 69.4509 -87.7964 -102.522 69.6284 -86.6286 -103.022 70.0475 
-85.7283 -103.566 70.7487 -89.7901 -100.798 69.5733 -88.5684 -101.039 69.8864 
-87.5046 -101.643 70.4373 -86.5566 -102.284 71.2189 -85.6652 -102.91 71.9614 
-90.5195 -99.8146 70.1003 -89.2373 -99.8085 70.4019 -88.2129 -100.235 70.8879 
-87.335 -101.011 71.6743 -86.368 -101.676 72.4001 -85.4547 -102.355 72.9934 
-91.6648 -99.1748 70.8815 -90.237 -99.1571 71.2544 -88.9101 -99.2004 71.5589 
-87.9406 -99.7508 72.1661 -87.0159 -100.479 72.8862 -86.0499 -101.108 73.4743 
-85.2101 -101.775 74.014 -92.7824 -98.5026 71.4394 -91.463 -98.6729 71.9532 
-89.8595 -98.6127 72.2675 -88.5227 -98.7058 72.6837 -87.5322 -99.2511 73.378 
-86.6041 -99.9053 74.0658 -85.7274 -100.529 74.6116 -84.9125 -101.177 75.0663 
-93.4563 -97.8563 71.9197 -92.4137 -98.0132 72.4271 -90.8815 -98.0548 72.8431 
-89.3107 -97.9286 73.2156 -88.0899 -98.1188 73.8044 -87.1077 -98.7027 74.5391 
-86.2045 -99.3508 75.1498 -85.3546 -99.9931 75.5867 -84.5021 -100.639 75.9074 
-94.0163 -97.5681 72.608 -93.2631 -97.3542 72.9714 -93.9605 -97.1858 73.9534 
-92.9076 -96.887 74.2771 -93.8641 -96.9421 75.3057 -91.9792 -97.3773 73.4214 
-92.5029 -96.6976 75.6908 -93.5908 -97.0122 76.6662 -91.4402 -96.8076 74.7353 
-90.3782 -97.2987 73.8688 -92.0742 -96.8707 77.2631 -93.1262 -97.2433 78.311 
-90.9969 -96.6986 76.2917 -89.9564 -96.8227 75.3019 -88.9189 -97.2812 74.3952 
-91.6144 -97.1535 78.9432 -92.5732 -97.5119 79.8988 -90.5826 -96.9381 77.95 
-89.5446 -96.8978 76.9385 -88.5253 -97.0735 75.8654 -87.6742 -97.685 75.0444 
-91.0848 -97.6025 80.3242 -91.9594 -98.0501 80.9962 -90.0995 -97.2367 79.5214 
-88.9567 -97.0631 78.5943 -87.842 -97.1198 77.4344 -87.0349 -97.5092 76.3248 
-86.5487 -98.3211 75.6392 -90.504 -98.283 81.4117 -91.3692 -98.7442 81.9298 
-89.5669 -97.7684 80.8497 -88.378 -97.2917 80.1784 -87.0666 -97.0878 79.159 
-86.1547 -97.3301 77.7996 -85.769 -98.0204 76.6909 -85.5708 -98.9796 76.0762 
-90.0272 -98.8326 82.5228 -90.915 -99.2521 82.9711 -89.0913 -98.4001 82.0169 
-87.9849 -97.8984 81.4639 -86.6709 -97.4572 80.7532 -85.5655 -97.3843 79.5753 
-85.0276 -97.8456 78.1112 -84.8281 -98.6938 77.0159 -84.6641 -99.6759 76.4013 
-89.6951 -99.1939 83.6036 -90.55 -99.6485 83.9122 -88.7506 -98.8438 83.1254 
-87.7159 -98.5578 82.4749 -86.5629 -98.2649 81.824 -85.449 -98.0511 81.0537 
-84.68 -98.1457 79.8115 -84.2653 -98.651 78.3658 -83.9823 -99.4467 77.3041 
-83.7744 -100.349 76.663 -94.5279 -98.2698 72.0208 -94.5679 -97.9489 73.3485 
-95.1228 -98.8716 72.7591 -95.3016 -98.5781 74.1922 -95.9751 -99.4346 73.4781 
-94.7521 -97.5821 74.8165 -96.1902 -99.0913 74.8924 -96.9016 -99.9527 74.1526 
-95.5485 -98.1205 75.6047 -94.8176 -97.3738 76.1264 -96.9968 -99.6405 75.693 
-97.4747 -100.709 75.0076 -96.2378 -98.6672 76.377 -95.5048 -97.9207 76.9613 
-94.5248 -97.4979 77.6 -97.455 -100.524 76.7887 -97.5461 -101.797 76.0568 
-96.8842 -99.476 77.4521 -96.0118 -98.6507 77.9981 -95.1304 -98.0896 78.6283 
-93.9877 -97.7015 79.3653 -97.5308 -101.791 77.8414 -97.4818 -103.253 77.1152 
-97.3554 -100.586 78.5674 -96.6008 -99.6784 79.1619 -95.5937 -98.9549 79.6626 
-94.5938 -98.3604 80.249 -93.3572 -98.0399 80.7417 -97.4449 -103.402 78.574 
-97.5144 -104.888 77.9651 -97.39 -101.943 79.2756 -96.9615 -100.862 79.9986 
-96.0067 -100.121 80.5124 -94.978 -99.4274 80.9244 -93.9505 -98.8829 81.3665 
-92.6928 -98.711 81.6881 -97.3058 -105.021 79.0359 -97.4523 -106.255 78.4773 
-97.1272 -103.528 79.6989 -96.8496 -102.219 80.4799 -96.1555 -101.419 81.0938 
-95.177 -100.786 81.4777 -94.279 -100.085 81.9197 -93.304 -99.5969 82.3799 
-92.1114 -99.3933 82.6951 -97.078 -106.304 79.3855 -97.1845 -107.24 78.7836 
[...]
CELL_DATA 2000
SCALARS Distance double
LOOKUP_TABLE default
155.976 155.231 155.488 155.295 154.527 154.719 154.552 154.872 154.812 
154.184 154.166 153.993 154.187 154.197 154.504 154.471 154.144 154.029 
153.802 153.784 153.72 153.939 153.916 154.141 153.927 153.996 153.989 
153.695 153.624 153.325 153.44 153.235 153.491 153.195 153.405 153.007 
153.73 153.759 153.446 153.388 152.923 152.931 152.508 152.696 152.323 
152.565 152.171 152.402 152.058 153.658 153.575 153.288 153.13 152.652 
152.503 152.041 152.037 151.718 151.815 151.573 151.687 151.485 151.625 
151.456 153.759 153.619 153.323 153.075 152.577 152.313 151.854 151.731 
151.495 151.486 151.393 151.384 151.323 151.31 151.246 151.252 151.152 
153.792 153.693 153.338 153.109 152.539 152.256 151.725 151.587 151.328 
151.358 151.291 151.335 151.288 151.285 151.224 151.197 151.117 151.065 
150.946 156.322 156.628 156.197 155.594 156.805 156.438 155.837 155.424 
154.869 156.863 156.488 155.84 155.555 155.032 154.76 154.435 157.205 
156.586 155.837 155.464 154.936 154.79 154.514 154.432 154.296 158.102 
157.217 156.481 155.72 155.17 154.759 154.511 154.413 154.309 154.274 
154.128 159.193 158.323 157.709 156.751 156.225 155.406 155.14 154.656 
154.572 154.323 154.204 154.045 153.883 160.09 159.377 158.828 158.029 
157.526 156.68 156.339 155.618 155.46 154.896 154.734 154.291 154.116 
153.868 153.798 160.81 160.178 159.64 159.004 158.526 157.848 157.447 
156.785 156.503 155.897 155.627 155.026 154.723 154.255 154.097 153.888 
153.889 161.458 160.854 160.332 159.75 159.33 158.743 158.371 157.754 
157.4 156.811 156.459 155.879 155.488 154.931 154.619 154.253 154.147 
153.992 153.962 161.617 161.495 161.199 160.519 161.423 161.125 160.512 
160.202 159.595 161.361 161.099 160.565 160.275 159.718 159.348 158.712 
161.208 161.026 160.517 160.319 159.774 159.463 158.773 158.392 157.698 
160.942 160.817 160.3 160.182 159.607 159.398 158.655 158.341 157.547 
157.284 156.634 160.662 160.529 160.007 159.902 159.333 159.156 158.443 
158.151 157.36 157.07 156.37 156.197 155.629 160.424 160.264 159.728 
159.603 159.065 158.899 158.279 158 157.308 156.961 156.292 155.992 
155.424 155.234 154.782 160.222 160.043 159.494 159.339 158.803 158.653 
158.081 157.872 157.234 156.949 156.287 155.977 155.379 155.126 154.681 
154.526 154.258 160.072 159.871 159.333 159.135 158.596 158.419 157.862 
157.673 157.038 156.807 156.096 155.862 155.187 155.014 154.506 154.426 
154.133 154.12 153.978 153.79 153.866 153.664 153.319 154.092 153.745 
153.38 153.156 152.82 154.643 154.056 153.578 153.248 152.975 152.771 
152.527 155.563 154.784 154.224 153.605 153.231 152.931 152.705 152.505 
152.174 156.619 155.855 155.377 154.525 154.028 153.354 152.935 152.586 
152.207 151.995 151.593 157.526 156.919 156.581 155.803 155.336 154.414 
153.817 153.013 152.481 152.023 151.691 151.473 151.34 158.299 157.786 
157.513 156.915 156.542 155.742 155.192 154.19 153.61 152.706 152.383 
151.826 151.805 151.538 151.682 159.077 158.582 158.353 157.798 157.482 
156.825 156.402 155.569 155.111 154.154 153.849 152.982 152.918 152.298 
152.38 152.032 152.158 159.849 159.392 159.228 158.685 158.427 157.78 
157.427 156.705 156.337 155.575 155.293 154.523 154.359 153.62 153.531 
152.91 152.88 152.476 152.513 153.661 153.111 153.328 153.105 152.531 
152.659 152.332 152.561 152.224 152.184 152.139 151.713 151.778 151.435 
151.653 151.437 151.815 151.803 151.332 151.286 150.951 151.035 150.929 
151.113 151.142 151.296 151.339 150.896 150.9 150.605 150.701 150.656 
150.8 150.891 151.049 151.167 151.163 150.999 150.673 150.526 150.295 
150.37 150.404 150.594 150.692 150.846 150.934 151.098 151.176 151.575 
151.254 151.078 150.661 150.436 150.217 150.229 150.34 150.48 150.642 
150.706 150.845 150.908 151.075 151.127 152.03 151.797 151.703 151.306 
151.043 150.59 150.381 150.238 150.272 150.402 150.484 150.626 150.672 
150.815 150.876 151.021 151.038 152.323 152.158 152.067 151.845 151.589 
151.183 150.797 150.448 150.242 150.208 150.235 150.381 150.439 150.588 
150.622 150.767 150.777 150.903 150.862 152.491 152.702 152.419 152.16 
153.009 152.599 152.154 151.998 151.648 153.447 152.893 152.285 151.955 
151.47 151.319 150.874 154.068 153.395 152.749 152.193 151.649 151.256 
150.802 150.572 150.289 154.762 154.085 153.457 152.795 152.248 151.658 
151.181 150.719 150.415 150.216 150.195 155.382 154.776 154.17 153.528 
152.931 152.313 151.731 151.189 150.731 150.419 150.269 150.244 150.342 
155.97 155.399 154.851 154.227 153.614 152.959 152.282 151.672 151.056 
150.657 150.329 150.253 150.251 150.365 150.495 156.579 156.025 155.531 
154.928 154.375 153.685 153.051 152.304 151.686 151.048 150.645 150.325 
150.236 150.238 150.343 150.485 150.622 157.161 156.646 156.175 155.615 
155.111 154.474 153.935 153.202 152.687 151.917 151.527 150.892 150.712 
150.377 150.392 150.356 150.463 150.586 150.702 152.813 153.718 153.192 
153.152 154.904 154.282 154.261 153.656 153.616 156.115 155.504 155.478 
154.856 154.817 154.18 154.127 157.338 156.717 156.665 156.037 155.987 
155.388 155.377 154.752 154.745 158.613 157.989 158.001 157.298 157.265 
156.581 156.606 156 156.048 155.418 155.417 159.938 159.304 159.414 
158.735 158.772 158.004 157.999 157.285 157.315 156.684 156.676 156.04 
155.99 161.336 160.661 160.713 160.102 160.145 159.494 159.448 158.721 
158.639 157.947 157.893 157.254 157.197 156.569 156.532 162.583 161.986 
161.898 161.301 161.244 160.699 160.644 160.043 159.919 159.242 159.13 
158.473 158.427 157.791 157.767 157.135 157.127 163.442 163.028 162.912 
162.379 162.272 161.733 161.697 161.152 161.089 160.457 160.339 159.69 
159.625 159.019 159 158.384 158.349 157.723 157.69 160.226 160.652 
160.183 159.643 161.086 160.603 160.019 159.527 158.856 161.486 160.988 
160.349 159.864 159.132 158.615 157.834 161.9 161.343 160.65 160.154 
159.406 158.869 158.032 157.513 156.738 162.381 161.755 161.01 160.461 
159.725 159.166 158.313 157.715 156.887 156.428 155.745 162.842 162.233 
161.424 160.826 160.072 159.52 158.684 158.036 157.128 156.575 155.857 
155.485 154.869 163.191 162.678 161.874 161.23 160.401 159.841 159.045 
158.44 157.55 156.885 156.085 155.609 155.003 154.634 154.035 163.425 
163.036 162.353 161.704 160.844 160.184 159.396 158.817 158.064 157.402 
156.646 155.994 155.363 154.848 154.286 153.842 153.308 163.548 163.272 
162.721 162.191 161.402 160.704 159.914 159.266 158.599 157.976 157.339 
156.67 156.068 155.412 154.859 154.249 153.729 153.233 152.842 160.68 
161.581 161.108 161.122 162.586 162.064 162.056 161.586 161.599 163.525 
163.042 162.993 162.528 162.545 162.086 162.07 164.402 163.93 163.831 
163.377 163.355 162.987 163.05 162.592 162.564 165.361 164.867 164.778 
164.214 164.124 163.719 163.833 163.532 163.669 163.159 163.12 166.246 
165.855 165.84 165.257 165.139 164.571 164.656 164.324 164.582 164.229 
164.307 163.708 163.578 166.908 166.63 166.644 166.244 166.127 165.604 
165.599 165.219 165.454 165.149 165.26 164.772 164.602 164.008 163.785 
167.55 167.224 167.207 166.906 166.798 166.418 166.328 166.031 166.168 
165.971 166.079 165.674 165.455 164.872 164.547 164.055 163.85 168.273 
167.865 167.793 167.461 167.392 167.031 166.928 166.604 166.636 166.496 
166.63 166.41 166.291 165.741 165.384 164.772 164.498 164.067 163.918 
168.598 168.741 168.483 168.086 168.834 168.651 168.388 168.081 167.72 
168.892 168.794 168.662 168.439 168.127 167.715 167.285 168.696 168.746 
168.592 168.605 168.332 168.077 167.624 167.244 166.919 168.279 168.379 
168.132 168.295 168.018 168.043 167.642 167.478 167.159 166.98 166.831 
167.962 167.986 167.774 167.821 167.56 167.595 167.28 167.303 167.078 
167.098 166.932 166.844 166.524 167.733 167.772 167.657 167.635 167.415 
167.292 166.953 166.906 166.694 166.843 166.722 166.79 166.43 166.252 
165.661 167.366 167.509 167.409 167.518 167.316 167.234 166.792 166.634 
166.226 166.333 166.157 166.397 166.119 166.084 165.529 165.285 164.733 
166.839 167.037 166.889 167.118 166.92 167.008 166.563 166.429 165.864 
165.819 165.485 165.716 165.517 165.68 165.283 165.166 164.656 164.466 
164.082 166.42 165.644 166.188 166.46 164.678 165.344 165.674 166.245 
166.476 163.718 164.367 164.759 165.4 165.636 166.141 166.14 162.961 
163.489 163.889 164.511 164.803 165.287 165.284 165.632 165.49 162.219 
162.731 163.007 163.637 163.955 164.499 164.603 164.904 164.836 165.074 
165.114 161.246 161.831 161.955 162.619 162.85 163.556 163.776 164.281 
164.344 164.6 164.642 164.918 165.09 160.158 160.755 160.854 161.469 
161.605 162.322 162.55 163.299 163.48 164.021 164.044 164.41 164.414 
164.819 164.848 159.129 159.699 159.841 160.398 160.51 161.102 161.255 
161.986 162.178 162.923 162.974 163.554 163.47 163.964 163.894 164.373 
164.297 158.171 158.714 158.858 159.415 159.522 160.059 160.143 160.746 
160.878 161.578 161.671 162.322 162.285 162.852 162.803 163.35 163.352 
163.819 163.794 166.292 165.793 165.869 165.452 165.135 165.275 164.803 
164.904 164.43 164.355 164.562 164.15 164.251 163.772 163.85 163.449 
163.491 163.761 163.477 163.659 163.321 163.334 162.968 163.005 162.747 
162.58 162.866 162.616 162.957 162.742 162.925 162.618 162.649 162.328 
162.388 162.091 161.716 161.947 161.609 161.992 161.718 162.126 161.774 
162.083 161.657 161.872 161.424 161.583 161.127 160.89 161.089 160.688 
160.977 160.591 160.949 160.488 160.905 160.421 160.864 160.382 160.728 
160.216 160.455 159.977 160.039 160.243 159.834 160.079 159.675 159.898 
159.401 159.633 159.144 159.514 159.128 159.552 159.152 159.47 159.024 
159.292 158.903 159.233 159.401 158.982 159.21 158.813 159.031 158.569 
158.716 158.232 158.429 158.067 158.395 158.098 158.431 158.07 158.346 
157.971 158.26 157.944 166.684 167.17 166.72 166.252 167.564 167.185 
166.686 166.203 165.604 167.665 167.449 166.957 166.573 165.943 165.457 
164.781 167.517 167.397 166.942 166.718 166.14 165.748 165.062 164.581 
163.885 167.373 167.215 166.775 166.621 166.122 165.864 165.261 164.851 
164.165 163.679 163 167.287 167.101 166.654 166.487 166.027 165.815 
165.269 164.974 164.362 163.963 163.302 162.823 162.172 167.132 166.986 
166.527 166.382 165.928 165.74 165.177 164.919 164.296 164.036 163.421 
163.086 162.424 161.988 161.332 166.861 166.774 166.294 166.194 165.725 
165.604 165.042 164.803 164.115 163.866 163.217 163.032 162.414 162.141 
161.466 161.093 160.446 166.478 166.448 165.957 165.891 165.407 165.341 
164.829 164.65 163.988 163.691 162.989 162.763 162.159 161.994 161.398 
161.143 160.511 160.187 159.611 166.061 165.184 165.61 165.537 164.294 
164.713 164.679 165.077 165.013 163.392 163.834 163.806 164.233 164.188 
164.571 164.451 162.241 162.818 162.737 163.283 163.2 163.679 163.502 
163.892 163.607 160.909 161.545 161.458 162.074 161.966 162.547 162.355 
162.832 162.519 162.904 162.583 159.705 160.277 160.28 160.826 160.765 
161.291 161.152 161.636 161.393 161.799 161.516 161.914 161.717 158.648 
159.17 159.185 159.723 159.67 160.167 160.02 160.48 160.257 160.686 
160.432 160.856 160.65 161.112 160.959 157.659 158.119 158.026 158.57 
158.445 159.007 158.801 159.318 159.018 159.497 159.179 159.685 159.44 
159.98 159.799 160.316 160.124 156.77 157.138 156.975 157.404 157.246 
157.743 157.574 158.07 157.805 158.236 157.883 158.346 158.064 158.652 
158.495 159.101 158.957 159.463 159.275 156.259 155.616 156.092 156.441 
155.141 155.521 155.85 156.293 156.67 154.73 155.091 155.424 155.803 
156.158 156.581 156.989 154.115 154.587 154.916 155.392 155.792 156.179 
156.496 156.882 157.202 153.224 153.811 154.12 154.753 155.179 155.741 
156.022 156.391 156.509 156.934 157.183 152.297 152.858 153.157 153.833 
154.225 154.938 155.241 155.764 155.839 156.217 156.348 156.889 157.307 
151.587 151.995 152.237 152.838 153.188 153.9 154.26 154.889 155.124 
155.551 155.767 156.187 156.622 157.2 157.8 151.134 151.366 151.472 
151.935 152.219 152.871 153.288 153.966 154.399 154.927 155.328 155.74 
156.212 156.673 157.243 157.791 158.342 150.851 150.952 150.935 151.223 
151.41 151.942 152.357 153.051 153.589 154.258 154.778 155.319 155.796 
156.277 156.76 157.265 157.739 158.268 158.695 158.68 157.746 158.26 
158.394 156.773 157.285 157.37 157.966 158.156 155.771 156.264 156.253 
156.847 156.979 157.692 157.886 154.676 155.191 155.074 155.642 155.668 
156.411 156.624 157.386 157.586 153.415 153.983 153.821 154.397 154.342 
155.045 155.232 156.068 156.381 157.137 157.421 152.148 152.668 152.551 
153.136 153.141 153.771 153.944 154.701 155.043 155.887 156.276 157.054 
157.402 151.202 151.526 151.46 151.965 152.1 152.692 152.947 153.568 
153.899 154.616 155.025 155.84 156.253 157.037 157.372 150.752 150.833 
150.756 151.06 151.193 151.729 152.018 152.645 152.976 153.608 153.979 
154.678 155.11 155.87 156.279 156.998 157.321 150.695 150.614 150.497 
150.558 150.561 150.892 151.059 151.649 151.938 152.638 152.996 153.704 
154.127 154.834 155.278 155.964 156.357 156.996 157.33 162.118 161.475 
162.178 162.918 160.735 161.487 162.238 162.965 163.692 159.849 160.678 
161.42 162.227 162.998 163.736 164.505 158.865 159.743 160.522 161.371 
162.157 162.977 163.789 164.578 165.4 158.037 158.812 159.662 160.494 
161.32 162.135 162.932 163.765 164.561 165.407 166.096 157.583 158.138 
158.921 159.669 160.504 161.323 162.119 162.913 163.627 164.441 165.057 
165.865 166.269 157.371 157.775 158.365 158.956 159.659 160.459 161.245 
162.087 162.782 163.528 164.058 164.772 165.178 165.866 166.125 157.144 
157.521 157.992 158.433 158.982 159.617 160.316 161.144 161.875 162.671 
163.22 163.861 164.248 164.851 165.201 165.787 166.082 156.828 157.219 
157.683 158.08 158.586 159.047 159.644 160.277 160.97 161.74 162.375 
163.059 163.499 164.047 164.401 164.95 165.316 165.861 166.18 162.695 
163.511 163.35 163.819 164.283 164.15 164.643 164.474 164.899 165.125 
164.947 165.472 165.302 165.804 165.571 165.935 166.094 165.892 166.445 
166.204 166.757 166.529 166.989 166.629 166.879 166.827 166.833 167.41 
167.224 167.742 167.517 167.977 167.678 167.936 167.497 167.589 166.93 
167.258 167.838 167.984 168.509 168.452 168.893 168.644 168.902 168.493 
168.58 168.115 168.137 166.669 167.07 167.593 168.032 168.63 168.961 
169.531 169.52 169.868 169.5 169.659 169.149 169.235 168.69 168.686 
166.558 166.806 167.248 167.633 168.212 168.77 169.459 169.888 170.378 
170.369 170.576 170.235 170.33 169.841 169.835 169.226 169.071 166.646 
166.803 167.204 167.401 167.871 168.296 168.902 169.506 170.016 170.459 
170.668 170.795 170.808 170.684 170.578 170.218 169.955 169.415 169.072 
162.375 163.497 162.708 162.245 164.574 163.827 163.366 162.574 162.122 
165.525 164.835 164.395 163.673 163.204 162.445 162.008 166.379 165.719 
165.243 164.609 164.172 163.489 163.003 162.281 161.817 167.114 166.522 
166.031 165.412 164.965 164.358 163.89 163.218 162.686 162.006 161.522 
167.673 167.176 166.72 166.167 165.686 165.103 164.618 164.012 163.501 
162.847 162.331 161.685 161.238 168.112 167.651 167.165 166.73 166.239 
165.748 165.229 164.682 164.19 163.616 163.154 162.523 162.065 161.425 
161.009 168.424 168.005 167.448 167.068 166.594 166.2 165.725 165.245 
164.773 164.265 163.849 163.312 162.884 162.267 161.808 161.19 160.784 
168.505 168.202 167.655 167.319 166.898 166.553 166.179 165.745 165.318 
164.826 164.404 163.935 163.528 163.014 162.555 161.966 161.514 160.95 
160.589 166.995 167.51 167.337 167.475 167.882 167.801 167.97 167.817 
167.89 168.187 168.146 168.341 168.245 168.323 168.121 168.011 168.587 
168.517 168.75 168.614 168.674 168.478 168.386 168.12 167.895 168.959 
168.949 169.182 169.052 169.055 168.813 168.703 168.472 168.338 168.026 
167.806 169.075 169.192 169.401 169.4 169.369 169.154 168.971 168.763 
168.667 168.474 168.352 167.996 167.749 169.097 169.24 169.534 169.576 
169.672 169.466 169.325 169.045 168.934 168.763 168.683 168.465 168.243 
167.884 167.568 169.171 169.345 169.801 169.847 170.159 169.942 170.001 
169.591 169.53 169.152 169.038 168.738 168.495 168.219 167.884 167.593 
167.244 169.1 169.415 169.926 170.139 170.527 170.501 170.676 170.393 
170.398 169.945 169.772 169.243 168.882 168.434 168.028 167.754 167.4 
167.181 166.828 
POINT_DATA 1002
SCALARS Distance double
LOOKUP_TABLE default
155.739 156.437 155.755 154.975 154.969 155.175 154.218 154.399 154.469 
154.798 153.887 154.272 153.879 154.25 154.372 153.933 154.234 153.593 
153.697 153.807 153.609 153.806 153.953 153.352 153.038 152.977 152.807 
152.609 153.525 153.719 153.014 152.411 152.081 151.917 151.794 151.776 
153.489 153.773 152.857 152.091 151.627 151.453 151.356 151.311 151.286 
153.602 153.908 152.885 151.996 151.481 151.384 151.349 151.268 151.165 
151.009 153.573 153.901 152.844 151.893 151.292 151.218 151.278 151.244 
151.165 151.026 150.807 156.777 156.063 157.05 156.208 157.162 155.245 
156.1 157.329 155.217 154.642 156.333 157.957 155.081 154.517 154.39 
157.365 158.986 155.749 154.685 154.34 154.204 158.621 159.975 157.142 
155.79 154.953 154.431 153.983 159.539 160.759 158.328 157.113 156.121 
155.312 154.465 153.907 160.237 161.435 159.147 158.107 157.127 156.266 
155.309 154.399 153.99 160.893 162.05 159.869 158.978 158.034 157.046 
156.069 155.09 154.374 154.081 161.909 160.799 161.78 160.799 161.693 
159.942 160.81 161.585 160.09 159.128 160.685 161.356 160.061 159.177 
158.019 160.414 161.059 159.803 158.961 157.832 156.794 160.119 160.812 
159.493 158.709 157.666 156.59 155.733 159.866 160.6 159.205 158.503 
157.631 156.632 155.66 154.886 159.668 160.403 158.953 158.257 157.488 
156.59 155.645 154.838 154.325 159.546 160.27 158.788 158.052 157.281 
156.35 155.356 154.566 154.121 153.958 153.515 153.525 152.923 153.595 
153.025 152.519 154.014 153.132 152.775 152.294 154.99 153.676 152.893 
152.453 151.782 156.234 154.917 153.5 152.419 151.756 151.247 157.25 
156.267 154.832 153.127 151.901 151.422 151.356 158.061 157.233 156.133 
154.616 153.092 152.158 151.841 151.856 158.899 158.103 157.115 155.964 
154.757 153.7 152.9 152.404 152.219 159.733 159.056 158.128 157.043 
156.01 155.117 154.265 153.431 152.809 152.514 152.902 152.158 151.94 
151.746 151.241 151.131 151.376 150.879 150.739 150.923 150.865 150.451 
150.492 150.744 151.012 150.891 150.267 150.175 150.552 150.787 151.01 
151.52 150.829 150.217 150.301 150.592 150.743 150.977 152.019 151.575 
150.73 150.203 150.318 150.549 150.731 150.927 152.24 151.946 151.251 
150.417 150.111 150.282 150.49 150.649 150.759 152.722 152.299 153.087 
152.415 153.529 151.752 152.741 154.075 151.704 150.96 153.374 154.761 
152.139 151.109 150.344 154.126 155.404 152.878 151.732 150.709 150.198 
154.803 155.942 153.585 152.335 151.134 150.356 150.258 155.456 156.516 
154.299 152.964 151.555 150.488 150.149 150.35 156.108 157.116 155.034 
153.796 152.398 151.11 150.344 150.221 150.461 156.716 157.652 155.706 
154.595 153.416 152.249 151.227 150.572 150.389 150.543 153.206 153.651 
154.299 154.899 155.517 154.235 156.1 156.731 155.439 154.78 157.323 
157.965 156.577 155.948 155.405 158.684 159.195 158 157.221 156.651 
156.093 160.037 160.588 159.526 158.794 157.986 157.312 156.628 161.362 
162.062 160.746 160.166 159.386 158.547 157.824 157.142 162.538 163.152 
161.8 161.19 160.579 159.795 159.051 158.41 157.752 163.399 163.779 
162.805 162.215 161.69 161 160.227 159.599 158.993 158.305 160.678 
160.142 161.137 160.531 161.593 159.388 160.844 162.025 159.677 158.335 
161.165 162.514 159.946 158.599 157.165 161.591 163.04 160.277 158.959 
157.387 156.112 162.07 163.419 160.615 159.329 157.77 156.233 155.23 
162.549 163.612 161.008 159.585 158.228 156.658 155.37 154.412 162.953 
163.716 161.563 159.967 158.644 157.325 155.958 154.764 153.686 161.097 
161.554 162.095 162.548 163.119 162.071 163.464 163.998 162.972 162.597 
164.333 164.879 163.701 163.398 163.159 165.393 165.816 164.614 164.064 
164.044 163.808 166.361 166.565 165.77 165.04 164.869 164.839 164.279 
166.969 167.195 166.607 166.009 165.755 165.744 165.203 164.33 167.512 
167.947 167.146 166.645 166.335 166.421 166.08 165.086 164.228 168.142 