# vtk DataFile Version 4.0
vtk output
ASCII
DATASET POLYDATA
POINTS 1002 float
-76.2624 -111.35 68.2288 -75.8602 -112.756 67.8762 -76.1389 -112.37 67.0537 
-76.7463 -111.045 67.4775 -76.5422 -111.915 66.1737 -76.8616 -110.027 68.5451 
-77.351 -110.712 66.7096 -77.1006 -111.472 65.3823 -77.448 -109.722 67.8507 
-77.5102 -108.695 68.8586 -78.0621 -110.315 66.0253 -77.9432 -111.113 64.8838 
-78.1252 -109.368 67.166 -78.108 -108.221 68.1799 -78.2541 -107.234 69.317 
-78.936 -109.793 65.485 -79.0551 -110.722 64.5787 -78.9444 -108.906 66.5476 
-78.891 -107.765 67.5534 -78.9497 -106.66 68.648 -79.2651 -105.912 69.9409 
-79.9306 -109.139 65.0114 -80.1933 -110.162 64.2431 -79.8921 -108.267 66.0109 
-79.908 -107.279 67.0311 -79.8602 -106.138 68.0581 -80.0351 -105.329 69.2658 
-80.3042 -104.717 70.5093 -80.9629 -108.446 64.6349 -81.2096 -109.464 63.9329 
-80.8523 -107.503 65.543 -80.9438 -106.64 66.5673 -80.9011 -105.568 67.5729 
-80.8479 -104.613 68.662 -80.9898 -103.947 69.8111 -81.0612 -103.229 70.8871 
-81.9957 -107.738 64.3893 -82.1187 -108.7 63.7033 -81.8456 -106.72 65.1843 
-81.8698 -105.85 66.1197 -81.8704 -104.894 67.0919 -81.7033 -103.855 68.1235 
-81.6527 -103.037 69.1944 -81.691 -102.313 70.205 -81.6306 -101.583 71.1752 
-82.9541 -107.003 64.1529 -82.9465 -107.936 63.4927 -82.8754 -105.966 64.8798 
-82.8269 -105.043 65.7336 -82.8003 -104.162 66.6329 -82.6153 -103.163 67.5715 
-82.4257 -102.248 68.5935 -82.3707 -101.496 69.591 -82.2957 -100.788 70.5308 
-82.1745 -100.22 71.4696 -83.8078 -106.308 63.9202 -83.7379 -107.25 63.3471 
-83.8231 -105.284 64.5711 -83.7982 -104.348 65.3887 -83.7672 -103.501 66.2784 
-83.6 -102.56 67.1151 -83.3303 -101.603 67.9866 -83.1583 -100.822 68.9431 
-83.0357 -100.159 69.8953 -82.8673 -99.5843 70.8287 -82.7159 -99.1889 71.7507 
-75.6821 -113.914 66.9662 -75.855 -113.359 65.9741 -75.4121 -114.9 66.0251 
-75.4952 -114.154 64.8524 -75.0433 -115.696 65.144 -76.0997 -112.688 64.9106 
-75.1409 -114.868 63.683 -74.78 -116.554 64.1684 -75.6197 -113.376 63.5684 
-76.6824 -112.226 64.1289 -74.9961 -115.803 62.437 -74.8298 -117.606 63.1379 
-75.3165 -114.152 62.1592 -76.3614 -113.041 62.8353 -77.8597 -112.049 63.8985 
-75.2532 -116.925 61.6737 -75.2678 -118.558 62.6125 -75.4354 -115.16 61.0754 
-76.3396 -113.862 61.5875 -77.9062 -112.935 62.8841 -79.3116 -111.727 63.8209 
-76.0218 -117.829 61.8911 -76.1448 -119.113 62.8221 -76.1156 -116.252 61.0359 
-76.7913 -114.734 60.964 -78.129 -113.551 61.9065 -79.5341 -112.415 62.946 
-80.5303 -111.015 63.5224 -77.1941 -118.342 62.5803 -77.3492 -119.391 63.2681 
-77.2448 -117.109 61.7907 -77.7008 -115.694 61.2608 -78.6845 -114.241 61.4464 
-79.8507 -112.857 62.0626 -80.7856 -111.5 62.6348 -81.4931 -110.121 63.1657 
-78.471 -118.668 63.0589 -78.62 -119.668 63.5123 -78.5122 -117.642 62.4376 
-78.8118 -116.517 61.7712 -79.4987 -115.153 61.4696 -80.4589 -113.578 61.5515 
-81.2853 -111.99 61.7934 -81.8505 -110.561 62.2495 -82.3697 -109.254 62.8925 
-79.6768 -118.997 63.2494 -79.8123 -120.022 63.5593 -79.7194 -118.006 62.7252 
-79.9424 -117.07 61.986 -80.4022 -115.961 61.45 -81.1789 -114.473 61.2913 
-82.0223 -112.743 61.2723 -82.5502 -111.11 61.453 -82.8418 -109.737 62.0095 
-83.2168 -108.498 62.7352 -80.9111 -119.697 63.4344 -80.906 -118.579 63.0486 
-82.1684 -119.171 63.3783 -82.3187 -118.047 62.7455 -83.4493 -118.421 63.3276 
-81.098 -117.6 62.2624 -83.7345 -117.341 62.521 -84.5905 -117.504 63.3486 
-82.6621 -117.105 61.7619 -81.4421 -116.64 61.4174 -84.9712 -116.422 62.6194 
-85.6909 -116.538 63.5002 -84.1943 -116.335 61.6715 -83.0974 -115.939 61.0478 
-82.0018 -115.272 61.0356 -86.1368 -115.383 62.9021 -86.9161 -115.552 63.677 
-85.5015 -115.249 62.0252 -84.6719 -114.823 61.1835 -83.6632 -114.112 60.8066 
-82.8062 -113.422 60.9434 -87.3364 -114.239 63.2031 -88.1506 -114.402 63.9124 
-86.6492 -114.031 62.4692 -85.9804 -113.55 61.6466 -85.1322 -112.735 60.95 
-84.2898 -112.033 60.7359 -83.454 -111.55 60.9638 -88.5186 -112.92 63.648 
-89.3116 -113.121 64.2427 -87.7294 -112.695 63.0315 -87.0607 -112.304 62.3359 
-86.341 -111.573 61.5675 -85.5134 -110.807 61.052 -84.6413 -110.333 61.0238 
-83.6944 -110.007 61.3972 -89.7724 -111.609 64.0662 -90.5012 -111.959 64.4635 
-88.8917 -111.262 63.6819 -88.0855 -110.915 63.2224 -87.4118 -110.415 62.5757 
-86.6691 -109.789 61.9451 -85.7711 -109.3 61.6724 -84.7863 -108.975 61.8014 
-83.8764 -108.703 62.1984 -91.1216 -110.523 64.1862 -91.6743 -111.007 64.5163 
-90.2825 -109.994 63.9968 -89.3263 -109.5 63.8436 -88.5356 -109.031 63.47 
-87.8667 -108.551 62.8913 -87.06 -108.153 62.498 -86.0717 -107.883 62.4773 
-85.0816 -107.647 62.6744 -84.2869 -107.422 62.9716 -84.6603 -105.988 63.6414 
-85.3886 -106.129 63.4136 -85.7168 -104.544 63.9508 -86.3488 -106.281 63.1955 
-86.6379 -104.559 63.7453 -86.7643 -102.964 64.179 -87.4302 -106.415 62.9658 
-87.7115 -104.588 63.4244 -87.7851 -102.853 63.8843 -87.7382 -101.356 64.3422 
-88.4192 -106.643 63.0061 -88.8332 -104.704 63.1189 -88.9186 -102.875 63.5159 
-88.824 -101.219 64.0389 -88.7191 -99.888 64.6377 -89.2219 -107.091 63.4474 
-89.8902 -105.092 63.2258 -90.1756 -103.146 63.3308 -90.1106 -101.27 63.7702 
-89.9353 -99.707 64.3098 -89.6996 -98.6616 65.0835 -90.0523 -107.699 63.8353 
-90.8601 -105.789 63.5786 -91.4119 -103.797 63.4912 -91.5401 -101.655 63.7122 
-91.3874 -99.6786 64.009 -91.0561 -98.383 64.5976 -90.6225 -97.634 65.5715 
-91.0711 -108.38 63.9009 -91.8535 -106.618 63.7189 -92.4275 -104.706 63.7118 
-92.6986 -102.515 63.9222 -92.717 -100.197 64.058 -92.4864 -98.4123 64.323 
-92.037 -97.4246 65.1253 -91.5343 -96.7461 66.1725 -91.9918 -109.093 63.9724 
-92.7482 -107.449 63.8278 -93.1886 -105.614 63.9758 -93.3716 -103.571 64.3574 
-93.4885 -101.317 64.5886 -93.5063 -99.2207 64.6889 -93.2711 -97.7604 65.1563 
-92.8491 -96.8404 66.0408 -92.4039 -96.0479 66.9065 -92.5257 -109.746 64.3148 
-93.2537 -108.224 64.2544 -93.6342 -106.442 64.5302 -93.7238 -104.499 65.0447 
-93.8242 -102.481 65.4023 -94.0185 -100.483 65.4982 -94.0637 -98.7645 65.7264 
-93.831 -97.491 66.3206 -93.4629 -96.5064 67.0505 -93.0877 -95.6231 67.6613 
-84.7205 -104.899 64.1671 -85.689 -103.408 64.4599 -84.7243 -103.874 64.8913 
-86.6477 -101.822 64.7089 -85.6425 -102.426 65.2598 -84.7199 -102.984 65.8395 
-87.6229 -100.221 64.9848 -86.5609 -100.828 65.5612 -85.5964 -101.499 66.2607 
-84.6219 -102.04 66.758 -88.5908 -98.8596 65.49 -87.5069 -99.2413 65.9321 
-86.4374 -99.8584 66.5745 -85.3931 -100.442 67.1556 -84.3332 -100.983 67.5528 
-89.4508 -97.759 66.1038 -88.3747 -97.9058 66.49 -87.2937 -98.3131 66.9648 
-86.1675 -98.8705 67.543 -85.0616 -99.4152 67.9937 -84.0444 -100.076 68.4278 
-90.302 -96.6966 66.6374 -89.1185 -96.6645 67.0102 -88.0482 -96.8719 67.4194 
-86.9765 -97.4132 68.0233 -85.8537 -98.0044 68.5623 -84.7807 -98.6307 68.9596 
-83.8404 -99.3932 69.4157 -91.2637 -95.7061 67.1594 -89.9442 -95.469 67.4256 
-88.7055 -95.4689 67.789 -87.6571 -95.9231 68.4307 -86.6445 -96.6439 69.1306 
-85.5614 -97.3306 69.5902 -84.5172 -98.0519 69.9697 -83.6165 -98.8383 70.4156 
-92.1921 -95.0214 67.7623 -90.9245 -94.6017 67.9195 -89.4944 -94.4324 68.2079 
-88.2597 -94.6555 68.7765 -87.2792 -95.306 69.5278 -86.3037 -96.11 70.1238 
-85.245 -96.8701 70.5366 -84.244 -97.6453 70.9654 -83.4002 -98.4354 71.4021 
-93.1698 -94.9443 68.4988 -92.2214 -94.2687 68.6206 -93.1669 -94.3936 69.6362 
-92.1223 -93.8313 69.9245 -93.0566 -94.0223 71.2192 -90.7828 -93.9388 68.8636 
-91.871 -93.6762 71.6856 -92.767 -93.8885 72.9487 -90.55 -93.7424 70.3509 
-89.2044 -93.9426 69.3213 -91.4077 -93.7634 73.4675 -92.2207 -94.2203 74.3835 
-90.2151 -93.7418 72.2331 -88.9006 -93.8502 70.9258 -87.9161 -94.29 70.0008 
-90.781 -94.2773 74.8698 -91.5501 -95.0258 75.4523 -89.7101 -93.8299 74.0637 
-88.4795 -93.7855 72.8437 -87.5002 -94.1718 71.5511 -86.866 -95.0107 70.6683 
-90.2061 -95.1252 75.9429 -90.9492 -95.8991 76.4111 -89.1706 -94.3114 75.4731 
-87.9336 -93.8733 74.645 -86.9224 -94.1494 73.3578 -86.312 -94.9319 72.075 
-85.8098 -95.8849 71.1785 -89.7159 -95.9292 76.9971 -90.4197 -96.6052 77.439 
-88.7382 -95.1628 76.5535 -87.5146 -94.54 75.9333 -86.4094 -94.5236 74.9485 
-85.7251 -95.0864 73.6929 -85.2619 -95.8736 72.5353 -84.7513 -96.7327 71.6616 
-89.2108 -96.6326 78.086 -89.92 -97.2791 78.4486 -88.2893 -96.0448 77.6112 
-87.2062 -95.5836 76.9405 -86.1432 -95.4441 76.0797 -85.3164 -95.6305 75.0721 
-84.7518 -96.0611 73.9888 -84.2731 -96.7446 72.989 -83.7986 -97.5793 72.1412 
-88.7171 -97.4018 79.0141 -89.4647 -98.028 79.2976 -87.7867 -96.8837 78.6007 
-86.8159 -96.5498 77.9568 -85.9105 -96.4582 77.1181 -85.0435 -96.4527 76.2242 
-84.2752 -96.4878 75.2796 -83.7335 -96.8635 74.2862 -83.3503 -97.6135 73.3509 
-83.009 -98.4296 72.5108 -93.7647 -96.039 68.1475 -93.7594 -95.5028 69.1594 
-94.3254 -96.7054 68.7349 -94.222 -96.3158 69.9841 -95.0385 -97.3925 69.4109 
-93.7075 -95.0587 70.5579 -94.8981 -97.0931 70.9303 -95.8251 -98.1346 70.2712 
-94.1263 -96.0355 71.5776 -93.6194 -94.7415 72.2712 -95.688 -97.912 71.9396 
-96.1701 -99.28 71.2753 -94.7484 -96.9958 72.5546 -94.0512 -95.9347 73.2076 
-93.3533 -94.7424 73.8707 -96.1174 -99.2069 72.9039 -96.022 -100.864 72.1826 
-95.4589 -98.017 73.4762 -94.5507 -97.1879 74.0023 -93.8025 -96.1304 74.6362 
-92.804 -95.2421 75.136 -96.1567 -100.961 73.7566 -95.9462 -102.58 72.9638 
-95.8701 -99.5041 74.3751 -95.0134 -98.4586 74.8028 -94.1758 -97.5392 75.3582 
-93.2954 -96.5798 75.9143 -92.1274 -96.0281 76.1852 -96.1277 -102.76 74.5269 
-96.1238 -104.248 73.7551 -95.9094 -101.32 75.1675 -95.2423 -100.025 75.5786 
-94.4336 -98.9152 76.0493 -93.6654 -97.9404 76.6524 -92.6461 -97.2023 77.0172 
-91.4755 -96.8064 77.1723 -96.0481 -104.363 75.1548 -96.1863 -105.726 74.4636 
-95.7323 -103.027 75.7431 -95.2189 -101.745 76.1777 -94.5727 -100.472 76.6285 
-93.8972 -99.3604 77.2143 -93.0279 -98.5521 77.688 -91.9259 -97.9782 77.9235 
-90.8687 -97.5558 78.14 -95.7483 -105.679 75.5197 -95.891 -106.863 74.9105 
-95.404 -104.464 76.0597 -95.0082 -103.319 76.5637 -94.5825 -102.117 77.1102 
[...]
CELL_DATA 2000
SCALARS Distance double
LOOKUP_TABLE default
150.509 150.058 150.176 149.947 149.662 149.804 149.67 149.694 149.461 
149.441 149.506 149.43 149.45 149.196 149.182 148.945 149.424 149.361 
149.239 149.242 148.995 148.928 148.646 148.676 148.599 149.442 149.308 
149.067 149.061 148.853 148.785 148.51 148.438 148.323 148.454 148.526 
149.388 149.235 148.897 148.862 148.671 148.668 148.438 148.349 148.134 
148.181 148.14 148.354 148.303 149.285 149.147 148.783 148.686 148.447 
148.467 148.263 148.237 147.954 147.941 147.735 147.887 147.748 147.95 
147.738 149.137 149.043 148.697 148.575 148.283 148.252 148.038 148.029 
147.755 147.706 147.422 147.465 147.271 147.402 147.215 147.349 147.163 
148.998 148.908 148.595 148.479 148.188 148.115 147.909 147.864 147.636 
147.537 147.249 147.183 146.958 147.003 146.844 146.925 146.78 146.885 
146.798 150.859 151.088 150.728 150.259 151.144 150.811 150.211 150.019 
149.675 151.15 150.758 150.045 149.832 149.446 149.481 149.401 151.361 
150.79 149.99 149.637 149.262 149.285 149.38 149.462 149.564 151.965 
151.19 150.384 149.754 149.369 149.231 149.464 149.591 149.911 149.802 
149.795 152.911 152.048 151.385 150.495 150.098 149.603 149.765 149.766 
150.141 150.159 150.233 149.977 149.777 153.974 153.169 152.7 151.779 
151.431 150.64 150.622 150.243 150.449 150.346 150.404 150.271 150.087 
149.848 149.597 154.981 154.279 153.916 153.142 152.843 152.053 151.9 
151.26 151.246 150.814 150.759 150.45 150.267 150.036 149.81 149.61 
149.393 155.906 155.268 154.926 154.276 153.978 153.318 153.086 152.457 
152.291 151.719 151.538 151.009 150.761 150.327 150.088 149.802 149.619 
149.41 149.245 156.29 156.531 156.043 155.317 156.707 156.267 155.538 
155.075 154.387 156.756 156.41 155.734 155.302 154.62 154.166 153.525 
156.719 156.436 155.853 155.497 154.841 154.395 153.724 153.308 152.702 
156.697 156.416 155.868 155.588 154.949 154.557 153.797 153.409 152.719 
152.428 151.836 156.666 156.397 155.816 155.568 154.925 154.586 153.76 
153.363 152.549 152.292 151.646 151.48 150.933 156.563 156.323 155.714 
155.476 154.84 154.537 153.763 153.326 152.494 152.114 151.449 151.237 
150.723 150.586 150.174 156.479 156.221 155.622 155.355 154.736 154.459 
153.791 153.398 152.668 152.201 151.561 151.189 150.712 150.459 150.083 
149.935 149.667 156.487 156.202 155.633 155.311 154.697 154.389 153.764 
153.443 152.795 152.413 151.798 151.413 150.918 150.59 150.203 149.949 
149.646 149.511 149.297 149.096 149.486 149.149 148.879 150.05 149.636 
149.356 148.936 148.572 150.727 150.246 149.919 149.443 149.023 148.571 
148.135 151.533 150.957 150.579 150.022 149.57 149.047 148.581 148.121 
147.741 152.477 151.83 151.462 150.787 150.371 149.711 149.272 148.666 
148.266 147.802 147.556 153.468 152.829 152.54 151.821 151.501 150.725 
150.34 149.547 149.107 148.432 148.098 147.686 147.55 154.468 153.865 
153.67 152.985 152.749 151.984 151.656 150.788 150.324 149.436 148.997 
148.334 148.132 147.761 147.732 155.458 154.908 154.776 154.142 153.936 
153.228 152.928 152.121 151.697 150.769 150.312 149.428 149.166 148.533 
148.515 148.086 148.127 156.34 155.88 155.773 155.219 155.011 154.362 
154.054 153.327 152.951 152.127 151.734 150.848 150.569 149.771 149.698 
149.076 149.123 148.604 148.634 148.876 148.571 148.621 148.431 148.225 
148.281 148.072 148.172 148.046 147.796 147.885 147.701 147.832 147.75 
147.864 147.801 147.415 147.455 147.283 147.439 147.39 147.571 147.509 
147.625 147.506 147.269 147.189 146.994 147.047 146.968 147.155 147.08 
147.253 147.089 147.226 147.068 147.309 147.158 146.934 146.849 146.691 
146.757 146.654 146.79 146.64 146.765 146.619 146.785 146.741 147.442 
147.229 146.928 146.783 146.505 146.498 146.345 146.435 146.33 146.398 
146.295 146.391 146.374 146.557 146.615 147.722 147.391 146.979 146.728 
146.313 146.236 145.999 146.116 146.053 146.176 146.126 146.176 146.15 
146.252 146.306 146.486 146.57 148.16 147.726 147.265 146.849 146.375 
146.09 145.783 145.77 145.721 145.887 145.927 146.042 146.042 146.099 
146.134 146.24 146.342 146.492 146.616 148.325 148.36 148.004 147.379 
148.655 148.129 147.421 147.028 146.44 149.184 148.559 147.849 147.237 
146.569 146.166 145.794 149.775 149.154 148.488 147.808 147.12 146.494 
146.023 145.727 145.667 150.385 149.767 149.127 148.469 147.782 147.113 
146.551 146.087 145.889 145.766 145.86 151.056 150.427 149.807 149.125 
148.436 147.752 147.15 146.618 146.309 146.044 146.021 145.96 146.027 
151.742 151.139 150.572 149.869 149.215 148.464 147.88 147.249 146.917 
146.508 146.42 146.197 146.219 146.109 146.159 152.407 151.837 151.332 
150.671 150.099 149.347 148.822 148.106 147.767 147.208 147.058 146.678 
146.642 146.406 146.435 146.298 146.375 153.061 152.511 152.041 151.432 
150.931 150.26 149.806 149.122 148.771 148.133 147.866 147.349 147.183 
146.856 146.824 146.639 146.693 146.566 146.657 148.925 149.916 149.267 
149.022 151.053 150.349 150.152 149.475 149.339 152.35 151.589 151.447 
150.714 150.617 149.918 149.859 153.76 152.981 152.872 152.098 152.038 
151.289 151.225 150.494 150.441 155.186 154.453 154.381 153.579 153.518 
152.75 152.708 151.932 151.845 151.085 151.038 156.621 155.925 155.946 
155.136 155.052 154.237 154.176 153.415 153.343 152.549 152.443 151.692 
151.668 158.113 157.412 157.478 156.707 156.611 155.766 155.619 154.844 
154.763 154.022 153.916 153.131 153.023 152.312 152.303 159.504 158.859 
158.827 158.147 158.008 157.243 157.028 156.249 156.104 155.393 155.304 
154.569 154.441 153.681 153.592 152.925 152.934 160.492 160.015 159.834 
159.291 159.081 158.478 158.273 157.588 157.416 156.711 156.592 155.896 
155.769 155.049 154.918 154.221 154.168 153.548 153.571 156.756 157.163 
156.725 156.202 157.524 157.083 156.514 156.07 155.434 157.975 157.459 
156.845 156.34 155.646 155.182 154.452 158.612 158.023 157.397 156.734 
155.96 155.375 154.581 154.121 153.346 159.226 158.712 158.09 157.364 
156.482 155.74 154.84 154.265 153.463 153.004 152.215 159.608 159.208 
158.554 157.951 156.999 156.257 155.251 154.576 153.73 153.191 152.45 
151.933 151.172 159.944 159.501 158.78 158.232 157.282 156.652 155.67 
155.012 154.149 153.542 152.814 152.261 151.574 151.003 150.327 160.375 
159.874 159.132 158.481 157.568 156.917 156.053 155.436 154.654 154.025 
153.288 152.684 151.996 151.439 150.793 150.251 149.67 160.658 160.279 
159.602 158.956 158.112 157.375 156.585 155.913 155.211 154.567 153.851 
153.2 152.478 151.878 151.214 150.686 150.092 149.618 149.1 157.149 
157.909 157.564 157.608 158.747 158.388 158.48 158.045 158.041 159.615 
159.268 159.419 158.991 159.012 158.497 158.496 160.44 160.088 160.226 
159.904 159.963 159.498 159.464 158.977 159.045 161.304 160.846 160.845 
160.576 160.679 160.388 160.388 159.929 159.898 159.501 159.583 162.349 
161.755 161.61 161.157 161.218 161.009 161.156 160.826 160.786 160.316 
160.279 159.942 159.985 163.45 162.88 162.723 162.047 161.944 161.569 
161.756 161.552 161.65 161.214 161.101 160.636 160.636 160.322 160.387 
164.281 163.912 163.791 163.171 162.905 162.354 162.354 162.131 162.31 
162.034 161.979 161.484 161.369 160.987 161.058 160.773 160.83 164.707 
164.526 164.382 164.016 163.693 163.202 163 162.703 162.799 162.63 
162.673 162.299 162.126 161.692 161.594 161.342 161.358 161.132 161.056 
164.778 164.582 164.618 164.403 164.404 164.388 164.175 164.153 163.809 
164.316 164.286 164.1 164.005 163.759 163.584 163.267 164.045 164.148 
163.998 163.981 163.793 163.666 163.477 163.252 163.081 163.683 163.804 
163.663 163.754 163.568 163.625 163.46 163.438 163.264 163.133 162.894 
163.444 163.52 163.406 163.428 163.265 163.314 163.169 163.258 163.078 
163.105 162.804 162.724 162.33 163.06 163.256 163.167 163.241 163.123 
163.125 163.031 163.026 162.884 162.847 162.558 162.488 162.131 162.054 
161.752 162.514 162.763 162.671 162.878 162.746 162.918 162.828 162.94 
162.817 162.767 162.465 162.293 161.912 161.82 161.563 161.573 161.431 
162.185 162.304 162.232 162.35 162.179 162.367 162.219 162.508 162.393 
162.59 162.318 162.243 161.793 161.633 161.267 161.29 161.118 161.25 
161.101 162.13 162.003 162.114 162.098 161.599 161.902 161.867 161.952 
161.915 160.883 161.414 161.519 161.668 161.542 161.704 161.82 159.896 
160.607 160.848 161.228 161.135 161.3 161.304 161.663 161.948 158.672 
159.465 159.68 160.351 160.361 160.765 160.74 161.114 161.291 161.765 
161.938 157.396 158.121 158.234 159.001 159.09 159.779 159.878 160.435 
160.568 161.049 161.13 161.545 161.474 156.238 156.85 156.923 157.582 
157.703 158.444 158.673 159.417 159.635 160.229 160.281 160.702 160.633 
160.991 160.943 155.163 155.729 155.805 156.387 156.519 157.175 157.41 
158.166 158.424 159.148 159.26 159.8 159.782 160.194 160.237 160.628 
160.781 154.121 154.661 154.731 155.309 155.444 156.07 156.264 156.947 
157.147 157.868 158.017 158.686 158.77 159.326 159.432 159.93 160.123 
160.582 160.77 162.06 161.821 161.959 161.917 161.361 161.541 161.328 
161.566 161.349 160.783 160.941 160.563 160.77 160.394 160.735 160.453 
160.101 160.312 159.973 160.066 159.65 159.772 159.41 159.751 159.468 
159.159 159.529 159.281 159.514 159.167 159.209 158.757 158.835 158.45 
158.742 158.377 158.026 158.464 158.162 158.609 158.24 158.566 158.033 
158.182 157.593 157.782 157.315 157.617 157.188 156.966 157.326 156.944 
157.342 156.89 157.341 156.811 157.178 156.555 156.82 156.254 156.559 
156.13 156.456 156.052 156.072 156.345 155.958 156.198 155.722 156.015 
155.548 155.893 155.418 155.713 155.219 155.494 155.07 155.4 155.038 
155.363 154.984 155.273 155.508 155.134 155.311 154.848 155.018 154.58 
154.816 154.434 154.691 154.288 154.521 154.101 154.374 154 154.333 
153.985 154.31 153.949 162.018 161.979 161.933 161.837 162.239 161.985 
161.871 161.769 161.573 162.679 162.341 162.131 161.915 161.742 161.502 
161.131 162.761 162.632 162.318 162.155 161.89 161.693 161.295 160.973 
160.414 162.361 162.428 162.076 162.095 161.735 161.694 161.235 161.033 
160.388 160.092 159.409 161.92 161.948 161.606 161.666 161.302 161.352 
160.903 160.827 160.178 159.942 159.186 158.95 158.262 161.639 161.578 
161.203 161.202 160.844 160.884 160.493 160.462 159.889 159.682 158.924 
158.665 157.94 157.774 157.178 161.415 161.318 160.871 160.817 160.397 
160.425 160.04 160.068 159.575 159.428 158.715 158.419 157.657 157.437 
156.828 156.735 156.25 161.176 161.072 160.582 160.478 159.988 159.96 
159.525 159.577 159.12 159.09 158.462 158.235 157.483 157.201 156.548 
156.396 155.917 155.865 155.451 160.847 159.995 160.389 160.227 158.932 
159.457 159.363 159.739 159.604 157.718 158.345 158.331 158.824 158.724 
159.128 159.077 156.374 157.066 157.047 157.685 157.603 158.149 158.07 
158.594 158.585 155.072 155.71 155.665 156.311 156.23 156.885 156.806 
157.444 157.387 158.004 157.91 154.03 154.534 154.52 155.014 154.931 
155.503 155.455 156.103 156.066 156.712 156.613 157.195 156.995 153.134 
153.584 153.529 153.963 153.812 154.288 154.178 154.772 154.738 155.384 
155.328 155.912 155.779 156.28 156.115 152.164 152.608 152.415 152.887 
152.635 153.127 152.912 153.487 153.398 154.053 154.034 154.663 154.619 
155.15 155.08 155.544 155.499 151.21 151.566 151.301 151.707 151.447 
151.903 151.717 152.234 152.182 152.77 152.822 153.431 153.491 154.05 
154.069 154.567 154.569 155.036 155.041 150.69 150.036 150.446 150.702 
149.534 149.855 150.051 150.487 150.826 149.094 149.404 149.66 149.986 
150.324 150.729 151.164 148.809 149.034 149.355 149.671 150.093 150.421 
150.879 151.218 151.719 148.72 148.858 149.083 149.355 149.75 150.172 
150.686 151.066 151.562 151.876 152.392 148.455 148.7 148.778 149.023 
149.21 149.665 150.109 150.707 151.233 151.708 152.178 152.547 153.039 
147.87 148.234 148.305 148.603 148.691 149.053 149.347 149.948 150.461 
151.147 151.661 152.217 152.679 153.132 153.602 147.303 147.622 147.784 
148.104 148.298 148.587 148.866 149.265 149.726 150.321 150.884 151.537 
152.07 152.656 153.155 153.649 154.117 146.951 147.178 147.386 147.675 
147.951 148.255 148.588 148.911 149.347 149.764 150.309 150.835 151.413 
151.996 152.559 153.133 153.661 154.151 154.607 154.731 153.743 154.357 
154.525 152.614 153.27 153.431 154.073 154.219 151.485 152.122 152.29 
152.944 153.13 153.764 153.954 150.423 151.02 151.18 151.813 151.992 
152.655 152.876 153.542 153.785 149.425 149.956 150.036 150.664 150.774 
151.47 151.641 152.384 152.626 153.361 153.607 148.551 148.952 148.877 
149.431 149.455 150.171 150.324 151.099 151.326 152.109 152.376 153.139 
153.4 147.853 148.12 147.945 148.301 148.25 148.85 149.06 149.818 
150.127 150.86 151.157 151.889 152.206 152.955 153.283 147.301 147.492 
147.342 147.528 147.457 147.822 148.035 148.673 149.074 149.77 150.121 
150.774 151.101 151.801 152.177 152.909 153.278 146.875 147.016 146.925 
147.061 147.014 147.224 147.36 147.807 148.146 148.775 149.133 149.782 
150.105 150.771 151.143 151.849 152.245 152.942 153.289 156.395 155.474 
156.251 156.895 154.511 155.309 155.957 156.767 157.424 153.56 154.355 
155.016 155.821 156.498 157.291 157.916 152.722 153.454 154.112 154.879 
155.566 156.379 157.083 157.827 158.487 152.116 152.702 153.29 153.967 
154.612 155.443 156.214 157.04 157.823 158.527 159.271 151.818 152.214 
152.687 153.177 153.733 154.491 155.287 156.179 157.039 157.857 158.666 
159.376 160.096 151.74 152.022 152.44 152.71 153.18 153.714 154.49 
155.305 156.2 157.042 157.848 158.655 159.385 160.116 160.697 151.63 
151.949 152.399 152.608 153.048 153.351 154.028 154.634 155.501 156.251 
157.042 157.797 158.494 159.275 159.888 160.58 161 151.324 151.735 
152.219 152.564 153.035 153.309 153.855 154.271 154.984 155.608 156.359 
157.043 157.709 158.405 159.001 159.702 160.172 160.777 161.059 157.096 
157.644 157.7 158.356 158.18 158.272 158.956 158.985 159.568 158.634 
158.766 159.468 159.566 160.187 160.161 160.659 159.148 159.206 159.91 
160.041 160.733 160.781 161.383 161.288 161.805 159.899 159.816 160.501 
160.538 161.288 161.352 162.072 162.055 162.714 162.559 163.063 160.711 
160.62 161.255 161.219 161.952 161.983 162.736 162.76 163.489 163.459 
164.055 163.813 164.09 161.278 161.312 161.876 161.911 162.575 162.652 
163.35 163.403 164.06 164.121 164.714 164.677 164.999 164.654 164.657 
161.52 161.681 162.179 162.341 162.956 163.155 163.827 163.946 164.494 
164.555 165.011 165.108 165.424 165.352 165.375 165.025 164.907 161.522 
161.76 162.204 162.463 163.035 163.366 164.044 164.305 164.826 164.896 
165.195 165.248 165.45 165.529 165.562 165.48 165.328 165.105 164.962 
157.019 158.253 157.52 157.279 159.432 158.745 158.483 157.75 157.442 
160.471 159.837 159.564 158.897 158.546 157.824 157.435 161.548 160.844 
160.529 159.883 159.535 158.866 158.45 157.742 157.345 162.709 161.949 
161.549 160.834 160.445 159.792 159.408 158.737 158.34 157.658 157.313 
163.615 162.984 162.507 161.832 161.372 160.7 160.274 159.636 159.241 
158.617 158.24 157.618 157.271 164.145 163.666 163.173 162.645 162.195 
161.597 161.13 160.48 160.007 159.406 158.98 158.437 158.045 157.501 
157.136 164.519 164.125 163.708 163.235 162.838 162.326 161.887 161.289 
160.773 160.142 159.655 159.094 158.693 158.186 157.835 157.328 157.014 
164.762 164.517 164.217 163.803 163.404 162.913 162.427 161.912 161.383 
160.842 160.356 159.801 159.412 158.866 158.549 158.024 157.744 157.24 
156.991 162.123 162.487 162.214 162.155 163.073 162.749 162.739 162.418 
162.496 163.484 163.311 163.349 163.101 163.192 162.908 162.99 163.734 
163.611 163.644 163.555 163.62 163.505 163.496 163.265 163.083 164.121 
163.931 163.957 163.793 163.839 163.754 163.731 163.588 163.35 163.075 
162.687 164.458 164.366 164.464 164.245 164.333 164.091 164.16 163.886 
163.771 163.378 163.056 162.639 162.284 164.609 164.634 164.829 164.751 
164.908 164.709 164.856 164.55 164.579 164.076 163.847 163.22 162.873 
162.354 162.051 164.79 164.802 165.052 165.054 165.242 165.174 165.298 
165.179 165.227 164.934 164.724 164.141 163.695 163.053 162.636 162.152 
161.838 164.949 164.998 165.234 165.276 165.452 165.416 165.447 165.397 
165.347 165.296 165.074 164.796 164.287 163.769 163.194 162.703 162.285 
161.904 161.584 
POINT_DATA 1002
SCALARS Distance double
LOOKUP_TABLE default
150.229 150.908 150.395 149.912 149.873 149.706 149.634 149.484 149.469 
149.213 149.408 149.437 149.254 148.871 148.759 149.246 149.597 149.071 
148.668 148.405 148.64 149.089 149.645 148.873 148.624 148.248 148.324 
148.62 148.978 149.548 148.633 148.517 148.183 147.979 148.124 148.172 
148.923 149.391 148.455 148.261 148.02 147.668 147.566 147.56 147.488 
148.822 149.206 148.354 148.048 147.814 147.438 147.168 147.086 147.005 
147.002 148.703 149.092 148.267 147.951 147.736 147.364 146.95 146.762 
146.689 146.651 146.745 151.278 150.515 151.474 150.448 151.515 149.676 
150.315 151.625 149.378 149.291 150.437 152.027 149.223 149.192 149.666 
151.113 152.758 149.607 149.284 149.924 150.15 152.276 153.702 150.768 
149.922 150.098 150.41 150.144 153.532 154.692 152.295 151.235 150.717 
150.541 150.267 149.857 154.616 155.638 153.604 152.634 151.836 151.191 
150.55 149.991 149.588 155.554 156.528 154.612 153.721 152.908 152.136 
151.292 150.448 149.832 149.441 156.791 155.786 157.02 155.999 157.107 
154.831 156.128 157.037 155.081 153.951 156.148 156.976 155.288 154.158 
153.069 156.129 156.992 155.333 154.232 153.008 152.087 156.076 156.934 
155.248 154.199 152.856 151.791 151.068 155.964 156.798 155.108 154.17 
152.928 151.703 150.86 150.248 155.908 156.737 155.001 154.107 153.104 
151.978 151.009 150.274 149.733 155.966 156.763 155.03 154.066 153.126 
152.164 151.258 150.494 149.847 149.364 148.837 149.253 148.555 149.816 
149.008 148.16 150.436 149.515 148.554 147.698 151.186 150.124 149.081 
148.117 147.414 152.149 151.06 149.936 148.807 147.881 147.378 153.219 
152.262 151.188 149.906 148.615 147.806 147.474 154.318 153.482 152.511 
151.278 149.796 148.587 148.009 147.718 155.385 154.633 153.698 152.581 
151.24 149.907 149.007 148.534 148.132 156.295 155.644 154.761 153.71 
152.567 151.402 150.402 149.689 149.149 148.624 148.328 147.967 147.926 
147.536 147.609 147.722 147.139 147.18 147.389 147.424 147.022 146.829 
146.903 146.954 146.895 147.081 146.704 146.547 146.521 146.452 146.516 
147.139 146.569 146.248 146.246 146.23 146.211 146.4 147.321 146.481 
145.896 145.86 146.059 146.095 146.15 146.374 147.729 146.75 145.899 
145.56 145.749 145.979 146.058 146.2 146.457 148.624 147.662 148.798 
147.931 149.24 146.676 148.514 149.805 147.109 145.929 149.148 150.377 
147.808 146.451 145.697 149.781 151.001 148.457 147.09 146.12 145.857 
150.504 151.667 149.141 147.716 146.652 146.162 146.05 151.25 152.314 
149.967 148.541 147.387 146.719 146.387 146.226 151.951 152.958 150.8 
149.536 148.394 147.526 146.936 146.611 146.473 152.627 153.602 151.549 
150.447 149.44 148.485 147.591 147.028 146.838 146.773 149.531 149.648 
150.571 150.83 151.76 149.983 152.179 153.114 151.335 150.538 153.656 
154.517 152.784 151.998 151.144 155.191 155.857 154.301 153.472 152.657 
151.739 156.732 157.279 155.92 154.939 154.119 153.255 152.34 158.231 
158.835 157.476 156.443 155.478 154.696 153.801 152.931 159.516 160.167 
158.739 157.814 156.831 156.007 155.212 154.313 153.532 160.367 160.946 
159.624 158.886 158.122 157.299 156.472 155.625 154.819 154.156 157.213 
156.672 157.608 156.974 157.994 155.9 157.414 158.523 156.151 154.892 
158.138 159.179 156.643 155.09 153.769 158.823 159.682 157.315 155.494 
153.942 152.683 159.126 160.021 157.721 155.967 154.299 152.954 151.718 
159.363 160.453 157.858 156.276 154.776 153.378 152.115 150.892 159.81 
160.866 158.228 156.626 155.265 153.929 152.564 151.314 150.176 157.476 
158.007 158.247 158.914 159.086 158.526 159.809 159.957 159.539 158.976 
160.504 160.865 160.371 159.986 159.437 161.177 161.874 160.86 160.814 
160.371 159.893 162.219 162.959 161.441 161.361 161.302 160.691 160.258 
163.469 163.926 162.486 161.913 162.002 161.655 160.964 160.694 164.347 
164.575 163.564 162.671 162.485 162.451 161.839 161.309 161.176 164.661 