# vtk DataFile Version 4.0
vtk output
ASCII
DATASET POLYDATA
POINTS 1002 float
-75.5065 -114.287 76.1686 -75.1635 -115.53 75.6209 -75.2529 -114.911 74.7348 
-75.6342 -113.545 75.3293 -75.4557 -114.22 73.8523 -75.9669 -112.911 76.8183 
-76.0525 -112.901 74.5101 -75.9503 -113.635 73.1274 -76.4335 -112.32 76.0476 
-76.7903 -111.713 77.5227 -76.8456 -112.484 73.8831 -76.7683 -113.228 72.6154 
-77.1879 -111.91 75.3534 -77.5692 -111.358 76.828 -77.7984 -110.72 78.2339 
-77.8399 -112.122 73.4246 -77.7709 -112.873 72.2351 -78.0724 -111.488 74.8105 
-78.3631 -110.89 76.2363 -78.5178 -110.208 77.6193 -78.5895 -109.452 78.9346 
-78.8154 -111.567 73.0172 -78.8151 -112.377 71.9688 -78.9248 -110.826 74.2815 
-79.098 -110.124 75.6785 -79.22 -109.387 77.0837 -79.2496 -108.606 78.3714 
-79.2377 -107.81 79.4981 -79.7683 -110.843 72.7159 -79.8915 -111.716 71.8611 
-79.7648 -110.024 73.7819 -79.8843 -109.294 75.0771 -80.0376 -108.574 76.5259 
-80.0973 -107.794 77.8528 -80.0466 -107.015 78.894 -79.9394 -106.326 79.8427 
-80.8451 -110.201 72.5894 -81.0465 -111.073 71.8835 -80.7414 -109.343 73.4967 
-80.8083 -108.606 74.6258 -80.9619 -107.966 75.9555 -81.0309 -107.224 77.2832 
-80.9292 -106.385 78.328 -80.7409 -105.664 79.19 -80.5852 -105.149 80.1554 
-82.0131 -109.733 72.5835 -82.1822 -110.544 71.95 -81.8865 -108.865 73.412 
-81.8721 -108.037 74.421 -81.8962 -107.322 75.5174 -81.8623 -106.571 76.6432 
-81.7213 -105.694 77.6844 -81.4872 -104.906 78.6031 -81.2678 -104.364 79.5466 
-81.159 -104.035 80.5832 -83.0498 -109.291 72.605 -83.1375 -110.04 71.9822 
-82.9878 -108.427 73.379 -82.9544 -107.513 74.2931 -82.8385 -106.636 75.204 
-82.6178 -105.757 76.0661 -82.4184 -104.84 76.973 -82.2487 -104.054 77.9599 
-82.0385 -103.515 79.0015 -81.8495 -103.163 80.0489 -81.7703 -102.969 81.0335 
-74.8633 -116.329 74.5155 -75.0986 -115.8 73.5217 -74.5579 -117.107 73.2595 
-74.8636 -116.624 72.1945 -74.0691 -117.679 71.8842 -75.4138 -115.187 72.6481 
-74.2701 -117.118 70.6221 -73.4838 -118.091 70.4672 -75.2048 -116.043 71.2909 
-75.9363 -114.59 71.9848 -73.7218 -117.525 68.9467 -73.3936 -118.771 69.3304 
-74.6426 -116.523 69.5068 -75.7658 -115.376 70.6165 -76.7513 -114.083 71.5021 
-73.9771 -118.352 67.9592 -74.0246 -119.767 68.8739 -74.385 -117.034 67.8157 
-75.5061 -115.84 68.9091 -76.757 -114.77 70.2406 -77.8353 -113.667 71.1797 
-74.9 -119.321 68.0852 -74.9575 -120.619 68.9745 -74.9472 -117.916 67.3083 
-75.6971 -116.418 67.6536 -76.9561 -115.241 68.937 -78.0837 -114.34 70.1336 
-79.0393 -113.166 71.0596 -75.9267 -119.909 68.6805 -75.9518 -121.188 69.1718 
-75.941 -118.696 67.8906 -76.4445 -117.266 67.4626 -77.5138 -115.816 68.0338 
-78.5554 -114.813 69.1272 -79.4108 -113.84 70.1902 -80.2676 -112.482 71.1267 
-76.9449 -120.258 69.1207 -77.03 -121.657 69.3156 -76.9796 -119.098 68.6088 
-77.442 -118.01 67.8371 -78.377 -116.615 67.5878 -79.2579 -115.294 68.2062 
-79.9003 -114.289 69.2746 -80.6523 -113.133 70.379 -81.4945 -111.773 71.2777 
-77.992 -120.653 69.3902 -78.1159 -122.071 69.5026 -78.0119 -119.417 69.0897 
-78.4596 -118.515 68.2848 -79.351 -117.428 67.48 -80.1617 -115.991 67.498 
-80.6001 -114.71 68.3746 -81.0944 -113.604 69.5619 -81.8667 -112.37 70.6099 
-82.6093 -111.125 71.3779 -79.1056 -121.55 69.6674 -79.0752 -120.157 69.5158 
-80.2323 -121.016 69.8138 -80.4529 -119.822 69.4845 -81.6152 -120.573 69.8338 
-79.3826 -119.101 68.9333 -82.0555 -119.509 69.3692 -83.1154 -120.114 69.902 
-81.0239 -118.854 68.6778 -80.1906 -118.202 67.8804 -83.5581 -118.939 69.5127 
-84.4062 -119.399 70.2852 -82.5529 -118.339 68.7401 -81.7985 -117.681 67.8419 
-81.0748 -116.859 67.3006 -84.8227 -118.047 70.0297 -85.4787 -118.392 70.885 
-83.8679 -117.516 69.2841 -83.0218 -116.882 68.5557 -82.3723 -116.104 67.9246 
-81.5285 -115.287 67.8421 -86.0445 -116.999 70.6458 -86.6058 -117.305 71.4163 
-85.2626 -116.554 69.9682 -84.3472 -115.989 69.5016 -83.589 -115.277 69.0836 
-82.7923 -114.501 68.8138 -81.8643 -113.926 69.0028 -87.3241 -115.927 71.2016 
-87.8644 -116.26 71.8324 -86.7229 -115.495 70.5913 -85.9494 -114.96 70.1976 
-85.1449 -114.272 69.9333 -84.3171 -113.503 69.6849 -83.372 -112.917 69.6949 
-82.5072 -112.596 70.0849 -88.6129 -114.845 71.7175 -89.1557 -115.234 72.1835 
-88.0335 -114.355 71.2362 -87.3614 -113.782 70.8549 -86.6317 -113.061 70.5428 
-85.8506 -112.232 70.2034 -84.9274 -111.608 70.0584 -83.9824 -111.35 70.3535 
-83.2188 -111.259 70.8952 -89.8884 -113.788 72.132 -90.3996 -114.269 72.4443 
-89.2638 -113.214 71.8217 -88.5332 -112.602 71.5451 -87.775 -111.911 71.2656 
-87.0421 -111.083 70.875 -86.2217 -110.365 70.5178 -85.2793 -110.055 70.5598 
-84.4092 -110.057 71.0188 -83.7229 -110.094 71.5623 -83.9306 -108.988 72.3771 
-84.5809 -108.957 71.9333 -84.8185 -107.694 72.8374 -85.4275 -108.907 71.459 
-85.6701 -107.718 72.4732 -85.9218 -106.264 73.2437 -86.4361 -108.987 71.2172 
-86.7658 -107.828 72.2137 -87.0506 -106.39 72.9939 -87.1248 -104.906 73.5311 
-87.3836 -109.421 71.3795 -87.875 -108.048 72.1524 -88.2965 -106.547 72.8283 
-88.3743 -104.936 73.2561 -88.268 -103.706 73.8452 -88.2184 -110.155 71.6992 
-88.8653 -108.505 72.1709 -89.4584 -106.764 72.6202 -89.6421 -104.965 72.931 
-89.5666 -103.583 73.3998 -89.4604 -102.698 74.25 -89.0977 -110.875 71.9124 
-89.879 -109.135 72.136 -90.6516 -107.294 72.3211 -90.9579 -105.346 72.5782 
-90.9436 -103.727 72.9836 -90.901 -102.671 73.7301 -90.7365 -101.905 74.6795 
-89.9991 -111.543 72.0738 -90.8805 -109.795 72.1707 -91.8087 -108.052 72.1732 
-92.3112 -106.242 72.3911 -92.339 -104.503 72.8602 -92.2902 -103.126 73.4957 
-92.1751 -102.118 74.3159 -91.8449 -101.311 75.1907 -90.7632 -112.275 72.2659 
-91.6687 -110.587 72.3504 -92.5837 -108.899 72.3611 -93.2629 -107.272 72.5345 
-93.4864 -105.633 73.027 -93.4449 -104.06 73.6542 -93.3146 -102.759 74.3083 
-93.0349 -101.761 75.0493 -92.6364 -100.985 75.8593 -91.3316 -112.998 72.4848 
-92.2147 -111.511 72.5812 -92.9806 -109.892 72.7306 -93.6289 -108.297 72.9616 
-94.0913 -106.733 73.3606 -94.2914 -105.121 73.9127 -94.2377 -103.633 74.5051 
-93.9623 -102.5 75.1319 -93.5671 -101.665 75.8534 -93.1909 -100.988 76.6594 
-83.9294 -108.087 73.1188 -84.8748 -106.574 73.5659 -83.9531 -107.069 73.9559 
-85.9127 -105.073 73.8511 -84.8597 -105.513 74.3138 -83.8442 -106.071 74.8046 
-87.0292 -103.859 74.2147 -85.8249 -104.164 74.6222 -84.6293 -104.593 75.108 
-83.5098 -105.075 75.5846 -88.1931 -102.808 74.7686 -86.9657 -103.005 75.1907 
-85.6453 -103.326 75.6058 -84.2895 -103.622 76.0004 -83.1952 -104.051 76.419 
-89.3745 -101.829 75.2288 -88.0812 -101.815 75.7116 -86.8058 -102.01 76.2026 
-85.4138 -102.413 76.6887 -84.1221 -102.764 77.0547 -83.0836 -103.242 77.4538 
-90.5296 -101.039 75.6142 -89.0902 -100.839 76.0197 -87.7466 -100.746 76.5009 
-86.433 -101.118 77.1767 -85.1779 -101.797 77.8048 -84.0467 -102.282 78.2527 
-82.9682 -102.751 78.6462 -91.5783 -100.537 76.2002 -90.1756 -100.292 76.5401 
-88.6729 -100.082 76.9097 -87.2512 -100.085 77.5052 -85.9594 -100.673 78.281 
-84.849 -101.441 78.9749 -83.7898 -101.903 79.4881 -82.727 -102.379 79.8307 
-92.4316 -100.367 77.0048 -91.2995 -100.047 77.3879 -89.8223 -99.9357 77.7707 
-88.2586 -99.7914 78.2332 -86.7764 -99.8571 78.8522 -85.4736 -100.389 79.5479 
-84.3949 -100.998 80.1714 -83.4202 -101.468 80.612 -82.5142 -102.095 80.8645 
-93.2864 -100.744 77.8418 -92.5314 -100.087 78.2882 -93.3432 -100.558 79.2815 
-92.5183 -99.9172 79.7936 -93.2293 -100.443 80.8154 -91.3019 -99.8714 78.7822 
-92.2642 -99.8683 81.3564 -92.9087 -100.563 82.2745 -91.1352 -99.7857 80.3758 
-89.6744 -99.8657 79.2982 -91.8284 -100.112 82.9078 -92.4548 -101.032 83.6357 
-90.7753 -99.7516 82.0275 -89.3998 -99.7937 81.0152 -87.9602 -99.7142 79.8478 
-91.3102 -100.723 84.3428 -91.9949 -101.642 84.9513 -90.3338 -100.023 83.6588 
-89.0041 -99.7595 82.78 -87.562 -99.6307 81.6495 -86.2971 -99.711 80.4381 
-90.7792 -101.431 85.5206 -91.585 -102.152 86.1908 -89.8348 -100.713 84.9394 
-88.5447 -100.122 84.3199 -87.055 -99.7647 83.4125 -85.7414 -99.6708 82.1756 
-84.8685 -100.119 81.0045 -90.2412 -102.07 86.5377 -91.0556 -102.705 87.2204 
-89.2916 -101.539 85.8331 -88.0634 -100.904 85.2865 -86.5822 -100.346 84.706 
-85.2484 -100.075 83.7233 -84.3417 -100.166 82.4708 -83.8107 -100.702 81.4214 
-89.6193 -102.808 87.4777 -90.3067 -103.522 87.9424 -88.7221 -102.34 86.7658 
-87.5828 -101.805 86.0697 -86.2253 -101.177 85.5342 -84.9549 -100.824 84.8423 
-84.0501 -100.778 83.7379 -83.4489 -100.949 82.5785 -82.966 -101.414 81.6687 
-88.9598 -103.696 88.2306 -89.531 -104.488 88.421 -88.1414 -103.153 87.7668 
-87.0915 -102.679 87.0992 -85.8943 -102.063 86.4569 -84.742 -101.589 85.8348 
-83.8508 -101.518 84.9222 -83.2255 -101.641 83.7575 -82.7044 -101.877 82.7184 
-82.2047 -102.333 81.8646 -93.8822 -101.639 77.0625 -93.938 -101.529 78.4371 
-94.7176 -102.348 77.6069 -94.6934 -102.299 79.1811 -95.6113 -102.929 78.2783 
-93.8945 -101.409 80.044 -95.4993 -102.907 80.0078 -96.042 -103.733 79.0687 
-94.5391 -102.259 80.8653 -93.6876 -101.365 81.6091 -95.9734 -103.897 80.8916 
-95.9617 -105.248 79.9251 -95.3538 -103.106 81.6679 -94.2603 -102.372 82.3298 
-93.3287 -101.609 82.9686 -96.0889 -105.609 81.7298 -95.9846 -107.222 80.6696 
-95.951 -104.424 82.4855 -95.0034 -103.513 83.0142 -93.8317 -102.732 83.6102 
-92.9279 -102.117 84.3029 -96.0305 -107.459 82.2411 -96.0437 -108.915 81.1473 
-95.993 -106.126 83.1191 -95.3719 -104.994 83.6632 -94.2863 -104.004 84.2527 
-93.422 -103.245 85.037 -92.6317 -102.628 85.7497 -95.6316 -108.882 82.3783 
-95.6118 -110.058 81.4275 -95.5476 -107.665 83.3186 -95.0979 -106.556 84.0288 
-94.2631 -105.503 84.7047 -93.611 -104.569 85.6011 -93.1241 -103.795 86.4764 
-92.2565 -103.128 87.0128 -94.9729 -110.028 82.473 -94.9116 -111.007 81.7129 
-94.9149 -108.977 83.3272 -94.5959 -107.985 84.158 -93.9789 -107.054 84.9519 
-93.4402 -106.111 85.8535 -93.1343 -105.232 86.781 -92.5525 -104.474 87.4551 
-91.4907 -103.873 87.798 -94.4785 -111.242 82.761 -94.4449 -112.097 82.0919 
-94.4218 -110.309 83.5095 -94.2126 -109.376 84.3497 -93.8272 -108.545 85.2384 
[...]
CELL_DATA 2000
SCALARS Distance double
LOOKUP_TABLE default
155.771 154.919 155.315 155.281 154.246 154.523 154.573 154.936 155.041 
153.952 154.055 154.195 154.436 154.691 154.933 155.138 153.933 153.944 
154.089 154.237 154.487 154.7 154.888 155.083 155.155 153.935 153.937 
153.961 154.102 154.198 154.434 154.501 154.741 154.707 154.925 154.803 
153.899 153.86 153.743 153.843 153.814 154.028 154.051 154.287 154.271 
154.451 154.345 154.479 154.321 153.97 153.824 153.662 153.621 153.575 
153.668 153.743 153.911 153.989 154.113 154.062 154.114 153.962 154.035 
153.919 154.196 153.98 153.844 153.672 153.633 153.577 153.632 153.704 
153.746 153.862 153.759 153.834 153.606 153.682 153.49 153.653 153.598 
154.419 154.24 154.108 153.928 153.846 153.723 153.661 153.627 153.5 
153.548 153.312 153.407 153.123 153.247 153.034 153.2 153.121 153.355 
153.389 155.904 155.825 155.627 155.098 155.586 155.536 155.102 154.863 
154.407 155.025 155.139 154.82 154.834 154.472 154.284 154.019 154.574 
154.488 154.133 154.351 154.157 154.263 154.063 154.008 153.93 154.952 
154.346 153.84 153.713 153.57 153.796 153.814 153.976 153.982 153.992 
153.994 156.028 155.148 154.597 153.895 153.638 153.44 153.576 153.724 
153.962 154.059 154.173 154.098 154.079 157.139 156.339 155.851 154.989 
154.628 153.98 153.978 153.772 154.064 154.106 154.361 154.331 154.4 
154.223 154.19 158.099 157.386 156.941 156.205 155.85 155.135 154.969 
154.461 154.547 154.356 154.565 154.528 154.662 154.565 154.589 154.392 
154.389 159.027 158.324 157.885 157.215 156.903 156.274 156.085 155.496 
155.4 154.96 154.981 154.777 154.878 154.8 154.875 154.762 154.774 
154.598 154.585 159.388 159.585 159.064 158.265 159.923 159.349 158.602 
158.038 157.347 160.373 159.789 159.095 158.481 157.802 157.231 156.599 
160.762 160.253 159.551 158.977 158.261 157.701 157.018 156.486 155.877 
160.968 160.569 159.869 159.361 158.625 158.1 157.402 156.879 156.243 
155.772 155.316 161.06 160.723 160.106 159.651 158.99 158.472 157.848 
157.302 156.718 156.181 155.717 155.323 155.089 161.163 160.84 160.306 
159.908 159.335 158.871 158.295 157.79 157.211 156.686 156.167 155.736 
155.414 155.16 155.025 161.294 160.981 160.471 160.118 159.563 159.177 
158.573 158.155 157.487 157.049 156.393 156.036 155.562 155.37 155.127 
155.034 154.896 161.424 161.123 160.614 160.274 159.706 159.348 158.728 
158.34 157.648 157.214 156.5 156.117 155.552 155.354 155.039 155.003 
154.843 154.829 154.692 154.578 154.704 154.576 154.41 154.893 154.718 
154.626 154.446 154.274 155.386 155.042 155.049 154.807 154.764 154.41 
154.204 156.298 155.749 155.764 155.409 155.442 155.039 154.845 154.363 
154.122 157.431 156.795 156.731 156.25 156.219 155.767 155.522 155.002 
154.668 154.268 154.134 158.524 157.918 157.797 157.247 157.144 156.598 
156.344 155.72 155.381 154.848 154.707 154.393 154.452 159.534 158.972 
158.853 158.285 158.191 157.6 157.45 156.739 156.524 155.79 155.7 
155.151 155.248 154.864 154.984 160.491 159.98 159.9 159.337 159.265 
158.687 158.629 157.982 157.897 157.149 157.082 156.367 156.402 155.832 
155.927 155.463 155.556 161.348 160.924 160.899 160.387 160.331 159.772 
159.722 159.156 159.114 158.502 158.437 157.765 157.703 157.055 157.05 
156.492 156.551 156.078 156.202 154.43 154.275 154.292 154.148 154.036 
154.073 153.948 154.006 153.884 153.828 153.797 153.6 153.715 153.61 
153.721 153.622 153.778 153.645 153.409 153.397 153.254 153.353 153.214 
153.371 153.285 153.917 153.708 153.522 153.356 153.204 153.114 152.934 
152.934 152.766 152.959 152.939 154.212 153.936 153.714 153.509 153.304 
153.164 152.99 152.849 152.683 152.6 152.538 152.684 152.772 154.637 
154.275 153.942 153.656 153.317 153.169 152.947 152.908 152.825 152.741 
152.724 152.604 152.661 152.683 152.82 155.191 154.75 154.424 153.977 
153.624 153.25 152.982 152.827 152.773 152.811 152.892 152.889 152.945 
152.837 152.89 152.851 152.984 155.886 155.398 155.184 154.651 154.439 
153.86 153.665 153.162 153.081 152.846 152.928 152.936 153.042 153.055 
153.084 153.027 153.079 153.075 153.246 156.286 156.828 156.232 155.618 
157.462 156.826 156.198 155.586 154.94 158.09 157.456 156.836 156.213 
155.568 154.907 154.212 158.782 158.108 157.483 156.845 156.22 155.565 
154.853 154.16 153.533 159.578 158.868 158.255 157.544 156.909 156.223 
155.522 154.806 154.105 153.523 153.152 160.353 159.674 159.068 158.359 
157.707 156.968 156.254 155.495 154.761 154.086 153.579 153.226 153.109 
161.016 160.394 159.771 159.125 158.465 157.756 157.033 156.27 155.545 
154.795 154.216 153.675 153.412 153.199 153.161 161.588 161.018 160.427 
159.803 159.171 158.48 157.786 157.047 156.382 155.643 155.102 154.425 
154.084 153.612 153.494 153.255 153.23 162.103 161.593 161.086 160.49 
159.933 159.238 158.608 157.848 157.245 156.518 156.053 155.376 155.047 
154.432 154.248 153.781 153.736 153.423 153.442 156.853 157.993 157.406 
157.435 159.242 158.639 158.678 158.06 158.088 160.462 159.908 159.981 
159.354 159.365 158.718 158.725 161.744 161.167 161.328 160.695 160.728 
160.025 160.01 159.357 159.396 163.27 162.591 162.837 162.151 162.236 
161.446 161.401 160.667 160.695 160.077 160.173 164.75 164.139 164.31 
163.687 163.74 162.975 162.864 162.079 162.065 161.415 161.536 160.911 
160.995 165.675 165.322 165.314 164.912 164.837 164.29 164.093 163.432 
163.337 162.755 162.876 162.306 162.408 161.721 161.701 166.152 165.931 
165.875 165.61 165.515 165.144 164.99 164.487 164.389 163.9 163.989 
163.546 163.651 163.083 163.026 162.332 162.218 166.711 166.416 166.465 
166.144 166.171 165.806 165.828 165.384 165.433 164.942 165.049 164.584 
164.674 164.183 164.123 163.535 163.371 162.748 162.63 161.782 162.374 
161.864 161.405 163.037 162.487 162.009 161.437 160.875 163.663 163.119 
162.588 162.027 161.434 160.855 160.26 164.18 163.652 163.077 162.556 
161.975 161.414 160.813 160.237 159.658 164.762 164.173 163.636 163.068 
162.58 162.009 161.476 160.841 160.235 159.628 159.019 165.514 164.903 
164.49 163.812 163.401 162.738 162.27 161.58 160.959 160.249 159.562 
158.94 158.295 166.16 165.712 165.425 164.814 164.395 163.66 163.092 
162.365 161.688 160.973 160.231 159.531 158.833 158.22 157.622 166.499 
166.231 166.003 165.645 165.249 164.61 163.909 163.125 162.329 161.619 
160.893 160.22 159.55 158.863 158.258 157.63 157.117 166.7 166.45 
166.197 166.018 165.716 165.305 164.69 163.934 163.123 162.302 161.602 
160.902 160.339 159.658 159.115 158.402 157.882 157.226 156.783 162.106 
162.769 162.504 162.69 163.535 163.2 163.384 163.139 163.373 164.407 
164.007 164.137 163.849 164.109 163.879 164.085 165.328 164.905 164.969 
164.6 164.79 164.586 164.865 164.594 164.699 166.267 165.864 165.946 
165.474 165.543 165.228 165.471 165.311 165.551 165.209 165.279 167.168 
166.824 166.999 166.525 166.557 166.048 166.16 165.899 166.211 166.023 
166.246 165.844 165.938 167.993 167.691 167.894 167.546 167.621 167.107 
167.107 166.67 166.906 166.709 167.064 166.789 166.936 166.487 166.512 
168.791 168.476 168.626 168.345 168.435 168.06 168.018 167.579 167.637 
167.401 167.71 167.57 167.814 167.455 167.448 166.955 166.871 169.567 
169.252 169.353 169.041 169.104 168.778 168.738 168.352 168.272 167.995 
168.097 168.048 168.281 168.186 168.27 167.89 167.795 167.268 167.146 
170.02 170.584 170.149 169.798 170.944 170.634 170.262 169.86 169.478 
170.995 170.86 170.539 170.25 169.848 169.477 169.062 170.839 170.839 
170.672 170.507 170.203 169.833 169.378 168.978 168.573 170.567 170.673 
170.663 170.662 170.518 170.225 169.771 169.295 168.82 168.498 168.299 
170.23 170.373 170.375 170.558 170.488 170.449 170.024 169.64 169.069 
168.726 168.492 168.387 168.417 169.998 170.06 169.984 170.155 170.054 
170.203 169.856 169.716 169.173 168.911 168.638 168.562 168.61 168.57 
168.518 169.86 169.891 169.798 169.83 169.707 169.76 169.506 169.452 
169.056 168.917 168.687 168.67 168.72 168.735 168.693 168.516 168.173 
169.595 169.727 169.693 169.734 169.656 169.598 169.394 169.248 168.924 
168.784 168.561 168.602 168.612 168.747 168.709 168.641 168.294 168.004 
167.503 169.354 169.163 169.367 169.575 169.109 169.254 169.466 169.584 
169.625 168.929 169.139 169.228 169.41 169.382 169.479 169.306 168.34 
168.741 168.727 169.004 168.867 169.062 168.819 168.966 168.73 167.355 
167.939 168.011 168.398 168.309 168.501 168.286 168.409 168.232 168.407 
168.377 166.158 166.839 167.031 167.619 167.745 168.048 167.991 168.037 
167.931 168.004 168.076 168.275 168.469 164.964 165.619 165.806 166.537 
166.782 167.403 167.51 167.795 167.697 167.788 167.738 167.953 168.073 
168.39 168.496 163.934 164.492 164.658 165.317 165.54 166.273 166.419 
167.034 166.951 167.329 167.112 167.43 167.301 167.729 167.669 168.119 
167.986 163.058 163.556 163.75 164.295 164.504 165.09 165.2 165.796 
165.734 166.274 166.081 166.54 166.338 166.781 166.637 167.097 166.952 
167.391 167.199 169.144 168.718 168.881 168.886 168.44 168.526 168.542 
168.739 168.871 168.155 168.308 168.321 168.469 168.565 168.77 168.797 
167.497 167.877 167.83 168.121 168.053 168.349 168.241 168.484 168.216 
166.479 166.987 166.835 167.299 167.046 167.509 167.224 167.66 167.301 
167.615 167.155 165.401 165.872 165.642 166.097 165.767 166.252 165.918 
166.427 166.086 166.524 166.112 166.429 165.948 164.364 164.786 164.515 
164.899 164.56 164.973 164.674 165.134 164.86 165.303 164.977 165.347 
164.943 165.227 164.782 163.35 163.737 163.435 163.79 163.44 163.825 
163.536 163.972 163.703 164.132 163.806 164.209 163.839 164.203 163.812 
164.108 163.732 162.405 162.731 162.407 162.724 162.372 162.733 162.446 
162.864 162.588 162.992 162.637 163.022 162.645 163.058 162.721 163.111 
162.79 163.116 162.82 169.31 169.465 169.232 168.904 169.445 169.352 
169.049 168.834 168.562 169.138 169.199 168.93 168.873 168.541 168.445 
168.17 168.689 168.789 168.509 168.588 168.237 168.247 167.849 167.868 
167.473 168.187 168.293 167.984 168.1 167.788 167.845 167.432 167.427 
166.955 166.983 166.499 167.602 167.744 167.426 167.561 167.29 167.401 
167.069 167.042 166.554 166.472 165.956 165.955 165.463 166.956 167.137 
166.835 166.982 166.69 166.863 166.579 166.673 166.225 166.132 165.536 
165.442 164.902 164.924 164.439 166.261 166.482 166.206 166.378 166.048 
166.214 165.889 166.081 165.691 165.74 165.146 165.035 164.39 164.351 
163.837 163.903 163.441 165.535 165.767 165.499 165.717 165.386 165.546 
165.171 165.349 164.979 165.129 164.64 164.608 163.966 163.86 163.281 
163.298 162.863 162.94 162.524 165.04 164.244 164.752 164.978 163.344 
163.898 164.083 164.655 164.845 162.244 162.888 163.019 163.659 163.835 
164.449 164.614 160.988 161.695 161.837 162.517 162.704 163.381 163.598 
164.218 164.405 159.763 160.456 160.674 161.348 161.58 162.255 162.51 
163.175 163.373 163.982 164.068 158.693 159.32 159.595 160.255 160.532 
161.182 161.417 162.07 162.221 162.86 162.885 163.483 163.414 157.86 
158.365 158.637 159.24 159.52 160.152 160.337 160.953 161.018 161.634 
161.62 162.232 162.186 162.769 162.743 157.231 157.636 157.848 158.344 
158.551 159.124 159.25 159.832 159.844 160.414 160.392 160.981 161.007 
161.599 161.674 162.235 162.339 156.601 157.006 157.123 157.56 157.64 
158.136 158.181 158.723 158.735 159.275 159.29 159.837 159.923 160.503 
160.653 161.231 161.379 161.925 162.033 156.224 155.736 156.224 156.718 
155.367 155.716 156.158 156.671 157.158 155.343 155.464 155.786 156.13 
156.598 157.111 157.64 155.374 155.508 155.794 155.951 156.385 156.688 
157.232 157.671 158.225 155.016 155.357 155.652 155.955 156.368 156.641 
157.152 157.44 157.979 158.326 158.852 154.454 154.825 155.054 155.54 
155.909 156.434 156.902 157.346 157.832 158.176 158.673 159.003 159.527 
154.077 154.327 154.531 154.888 155.221 155.756 156.232 156.853 157.366 
157.901 158.397 158.824 159.35 159.724 160.269 153.865 154.079 154.369 
154.571 154.931 155.225 155.72 156.192 156.789 157.343 157.923 158.443 
158.999 159.478 160.042 160.459 160.99 153.696 153.93 154.298 154.523 
154.93 155.136 155.608 155.898 156.489 156.908 157.546 158.008 158.606 
159.077 159.649 160.135 160.688 161.126 161.621 161.819 160.84 161.475 
161.738 159.811 160.449 160.721 161.374 161.692 158.808 159.441 159.753 
160.395 160.756 161.4 161.793 157.764 158.429 158.74 159.431 159.799 
160.482 160.858 161.525 161.902 156.707 157.344 157.59 158.322 158.642 
159.428 159.77 160.516 160.828 161.547 161.878 155.819 156.328 156.507 
157.133 157.39 158.168 158.519 159.335 159.679 160.426 160.76 161.492 
161.873 155.095 155.512 155.645 156.132 156.334 156.967 157.303 158.077 
158.496 159.284 159.708 160.437 160.87 161.573 162.008 154.385 154.775 
154.853 155.306 155.467 156.008 156.285 156.947 157.339 158.115 158.594 
159.399 159.893 160.634 161.089 161.76 162.152 153.726 154.046 154.075 
154.491 154.62 155.142 155.386 155.988 156.326 157.017 157.47 158.271 
158.807 159.623 160.119 160.844 161.254 161.89 162.233 159.618 158.666 
159.482 160.147 157.682 158.497 159.14 159.974 160.635 156.647 157.501 
158.153 158.978 159.683 160.507 161.23 155.687 156.501 157.273 158.071 
158.835 159.623 160.419 161.203 161.975 155.261 155.768 156.637 157.327 
158.185 158.895 159.734 160.47 161.305 162.026 162.798 155.529 155.68 
156.453 156.903 157.766 158.358 159.211 159.878 160.747 161.437 162.258 
162.898 163.616 155.994 156.05 156.622 156.874 157.594 158.036 158.825 
159.408 160.271 160.942 161.793 162.419 163.124 163.682 164.253 156.266 
156.385 156.828 157.009 157.564 157.897 158.573 159.059 159.851 160.479 
161.321 161.964 162.669 163.204 163.723 164.214 164.641 156.399 156.563 
156.99 157.137 157.601 157.848 158.436 158.828 159.529 160.066 160.832 
161.459 162.164 162.732 163.268 163.724 164.147 164.573 164.958 160.352 
160.905 160.974 161.604 161.392 161.49 162.147 162.193 162.778 161.977 
162.011 162.696 162.735 163.402 163.399 164.012 162.702 162.676 163.391 
163.376 164.129 164.115 164.857 164.757 165.363 163.482 163.436 164.146 
164.126 164.899 164.916 165.739 165.694 166.383 166.151 166.627 164.257 
164.222 164.906 164.876 165.596 165.639 166.448 166.531 167.279 167.176 
167.684 167.366 167.721 164.862 164.931 165.616 165.626 166.307 166.308 
167.056 167.153 167.933 167.976 168.558 168.37 168.727 168.396 168.66 
165.197 165.379 166.049 166.216 166.894 166.975 167.672 167.753 168.506 
168.589 169.231 169.157 169.554 169.312 169.553 169.232 169.381 165.433 
165.604 166.206 166.469 167.113 167.37 168.02 168.241 168.919 169.103 
169.725 169.77 170.192 170.049 170.293 170.038 170.178 169.842 169.879 
160.209 161.466 160.693 160.392 162.65 161.926 161.635 160.874 160.64 
163.855 163.114 162.84 162.086 161.827 161.142 161.008 165.117 164.354 
164.076 163.303 163.019 162.297 162.104 161.499 161.373 166.306 165.585 
165.301 164.555 164.26 163.497 163.219 162.548 162.337 161.766 161.555 
167.384 166.709 166.422 165.735 165.451 164.722 164.399 163.659 163.344 
162.692 162.421 161.854 161.604 168.327 167.727 167.406 166.777 166.452 
165.814 165.474 164.788 164.428 163.723 163.391 162.74 162.465 161.895 
161.674 169.029 168.548 168.178 167.637 167.238 166.682 166.3 165.729 
165.364 164.747 164.389 163.737 163.408 162.786 162.522 161.979 161.78 
169.497 169.107 168.716 168.269 167.86 167.37 166.98 166.466 166.097 
165.565 165.2 164.64 164.269 163.69 163.355 162.809 162.558 162.072 
161.886 169.591 169.904 169.766 169.718 170.056 169.992 169.946 169.81 
169.65 170.261 170.149 170.099 169.96 169.791 169.618 169.352 170.612 
170.449 170.419 170.18 170.016 169.766 169.526 169.285 168.971 170.988 
170.867 170.903 170.617 170.441 170.079 169.8 169.497 169.181 168.896 
168.508 171.241 171.234 171.332 171.123 170.946 170.551 170.175 169.786 
169.375 169.072 168.633 168.353 167.89 171.199 171.361 171.45 171.429 
171.274 171 170.603 170.173 169.673 169.264 168.754 168.426 167.917 
167.661 167.191 170.804 171.109 171.143 171.322 171.181 171.154 170.82 
170.542 170.046 169.607 169.051 168.608 168.063 167.701 167.19 166.937 
166.48 170.214 170.564 170.565 170.839 170.707 170.87 170.599 170.576 
170.125 169.872 169.289 168.906 168.315 167.915 167.362 166.999 166.487 
166.221 165.769 
POINT_DATA 1002
SCALARS Distance double
LOOKUP_TABLE default
155.731 156.211 155.374 154.845 154.544 155.272 154.185 154.013 154.696 
155.161 153.973 153.877 154.435 154.95 155.308 153.989 153.94 154.311 
154.722 154.999 155.163 153.889 153.984 154.014 154.278 154.51 154.621 
154.633 153.715 154.007 153.634 153.801 154.082 154.23 154.19 154.147 
153.756 154.155 153.522 153.578 153.857 154.034 153.928 153.774 153.839 
154.035 154.405 153.746 153.64 153.686 153.703 153.546 153.35 153.351 
153.609 154.285 154.571 154.009 153.79 153.561 153.261 152.978 152.85 
152.906 153.11 153.452 156.129 155.381 155.971 155.262 155.531 154.67 
154.628 154.92 154.577 154.174 153.922 154.884 153.856 154.045 153.978 
154.236 155.74 153.367 153.495 153.912 154.065 155.471 156.877 154.086 
153.468 153.775 154.208 154.252 156.671 157.871 155.413 154.391 154.082 
154.344 154.539 154.416 157.62 158.808 156.535 155.606 154.917 154.649 
154.708 154.747 154.612 158.546 159.73 157.492 156.685 155.97 155.32 
154.981 154.952 154.933 154.782 159.89 158.76 160.109 159.182 160.48 
157.866 159.71 160.932 158.399 157.146 160.123 161.236 158.826 157.564 
156.349 160.351 161.321 159.138 157.915 156.731 155.654 160.503 161.362 
159.469 158.369 157.267 156.164 155.341 160.661 161.47 159.758 158.784 
157.74 156.634 155.712 155.196 160.818 161.598 159.94 158.996 157.947 
156.781 155.771 155.21 154.981 160.959 161.72 160.071 159.113 158.083 
156.921 155.804 155.088 154.824 154.729 154.439 154.564 154.234 154.772 
154.548 154.046 155.273 155.109 154.643 153.929 156.175 155.852 155.373 
154.525 153.917 157.295 156.731 156.083 155.117 154.368 154.123 158.383 
157.721 156.988 155.968 155.066 154.694 154.547 159.425 158.759 158.101 
157.27 156.341 155.698 155.356 155.055 160.45 159.833 159.209 158.582 
157.843 157.068 156.445 155.982 155.634 161.37 160.884 160.281 159.68 
159.084 158.388 157.656 157.051 156.621 156.353 154.156 153.835 153.859 
153.517 153.457 153.521 153.495 153.222 153.088 153.038 153.719 153.359 
153.038 152.683 152.584 153.972 153.457 153.104 152.835 152.54 152.496 
154.313 153.546 152.953 152.791 152.856 152.783 152.71 154.887 154.076 
153.254 152.743 152.792 153.035 153.024 152.942 155.675 154.994 154.253 
153.494 153.011 152.986 153.112 153.12 153.179 156.833 156.19 157.463 
156.83 158.096 155.579 157.446 158.731 156.236 154.894 158.15 159.469 
156.858 155.572 154.099 158.989 160.279 157.631 156.246 154.756 153.466 
159.758 161.024 158.462 157.033 155.49 154.044 153.234 160.402 161.625 
159.158 157.778 156.292 154.859 153.752 153.255 161.029 162.113 159.852 
158.509 157.075 155.783 154.668 153.834 153.396 161.639 162.56 160.594 
159.356 157.964 156.7 155.68 154.797 154.117 153.698 157.377 158.013 
158.592 159.318 159.821 158.709 160.59 160.977 160.04 159.351 161.939 
162.322 161.459 160.689 159.992 163.518 163.976 163.058 162.193 161.324 
160.773 164.931 165.348 164.488 163.679 162.723 162.152 161.685 165.694 
165.987 165.322 164.707 163.898 163.394 163.085 162.456 166.116 166.355 
165.818 165.409 164.86 164.413 164.163 163.71 162.917 166.781 167.002 
166.503 166.195 165.887 165.557 165.182 164.681 163.982 163.218 162.261 
161.964 162.901 162.6 163.612 161.466 163.15 164.23 162.019 160.822 
163.583 164.732 162.505 161.407 160.215 164.209 165.35 163.122 162.119 
160.906 159.59 165.156 166.042 164.108 162.977 161.72 160.256 158.847 
165.941 166.502 165.181 163.9 162.403 160.948 159.495 158.161 166.254 
166.746 165.818 164.753 163.078 161.514 160.223 158.935 157.682 162.344 
162.911 163.057 163.638 163.915 163.61 164.473 164.838 164.305 164.418 
165.411 165.74 165.03 165.042 165.14 166.445 166.622 165.989 165.618 
165.758 165.76 167.41 167.478 167.146 166.543 166.327 166.556 166.426 
168.191 168.314 168.086 167.636 167.147 167.251 167.391 166.998 168.928 
169.133 168.763 168.462 167.961 167.81 168.075 167.981 167.369 169.698 
169.874 169.437 169.116 168.641 168.221 168.265 168.508 168.326 167.693 