# vtk DataFile Version 4.0
vtk output
ASCII
DATASET POLYDATA
POINTS 1002 float
-77.4288 -112.715 69.8696 -76.9153 -113.694 69.3832 -77.3596 -113.443 68.5236 
-78.0956 -112.545 69.053 -77.9245 -113.174 67.7444 -78.3191 -111.955 70.374 
-78.7955 -112.283 68.3287 -78.5701 -112.858 67.0358 -79.0657 -111.732 69.6025 
-79.4588 -111.272 70.9932 -79.5513 -111.926 67.6578 -79.391 -112.505 66.3653 
-79.7736 -111.298 68.8818 -80.1782 -110.822 70.2845 -80.5709 -110.359 71.7495 
-80.496 -111.55 67.0369 -80.4247 -112.121 65.8462 -80.6285 -110.806 68.2281 
-80.9042 -110.167 69.589 -81.2745 -109.693 71.1007 -81.5084 -109.182 72.45 
-81.5756 -111.101 66.6067 -81.5909 -111.741 65.5847 -81.6744 -110.331 67.6941 
-81.8189 -109.567 68.958 -82.0458 -108.993 70.4264 -82.2597 -108.507 71.8334 
-82.3156 -107.911 72.9771 -82.7564 -110.612 66.4112 -82.8455 -111.42 65.5044 
-82.769 -109.779 67.3456 -82.8339 -109.015 68.433 -82.9398 -108.389 69.753 
-83.1034 -107.892 71.15 -83.1779 -107.334 72.3866 -83.0933 -106.681 73.42 
-84.0371 -110.221 66.3331 -84.0838 -111.105 65.5025 -83.9845 -109.298 67.1521 
-83.9612 -108.527 68.0771 -83.9637 -107.867 69.2012 -84.0308 -107.29 70.4566 
-84.1087 -106.749 71.7105 -84.0558 -106.163 72.8451 -83.8983 -105.62 73.8499 
-85.2578 -109.874 66.2887 -85.2083 -110.712 65.5536 -85.2672 -108.96 67.0111 
-85.2509 -108.195 67.8471 -85.1987 -107.509 68.8643 -85.1069 -106.795 69.9449 
-85.0382 -106.142 71.054 -84.9827 -105.587 72.202 -84.8624 -105.115 73.2895 
-84.6905 -104.742 74.2674 -86.3634 -109.489 66.2774 -86.2847 -110.294 65.6598 
-86.4228 -108.607 66.8724 -86.4531 -107.854 67.6086 -86.428 -107.179 68.5784 
-86.2673 -106.417 69.5861 -86.0061 -105.655 70.5314 -85.813 -105.042 71.572 
-85.7157 -104.591 72.6971 -85.5909 -104.244 73.7398 -85.3916 -103.949 74.6537 
-76.7505 -114.556 68.3073 -77.0228 -114.133 67.3398 -76.3929 -115.167 67.1885 
-76.443 -114.545 65.9904 -75.8781 -115.595 66.0625 -77.4218 -113.701 66.396 
-75.8581 -114.949 64.6234 -75.5316 -116.429 64.9339 -76.7011 -113.991 64.7913 
-78.0776 -113.289 65.5516 -75.768 -115.968 63.595 -75.5899 -117.803 64.0307 
-76.2992 -114.487 63.4798 -77.6038 -113.585 64.007 -79.1594 -112.888 64.9616 
-76.3214 -117.427 63.166 -76.1049 -119.036 63.6692 -76.7672 -115.664 62.9948 
-77.7819 -114.27 63.1488 -79.2219 -113.293 63.7694 -80.5173 -112.539 64.6797 
-77.3068 -118.573 63.2318 -77.0835 -119.831 63.7936 -77.8601 -117.01 63.0885 
-78.7374 -115.47 63.0057 -79.8327 -114.133 63.0764 -80.9005 -113.096 63.6507 
-81.8796 -112.302 64.5674 -78.4818 -119.31 63.542 -78.3087 -120.459 64.0876 
-79.025 -117.898 63.3247 -79.8663 -116.507 62.9893 -80.7129 -115.21 62.5141 
-81.4599 -113.948 62.6495 -82.2565 -112.911 63.5016 -83.1656 -112.061 64.5522 
-79.6155 -119.899 63.8994 -79.4513 -120.98 64.3821 -80.0532 -118.507 63.6171 
-80.7937 -117.143 63.0605 -81.5455 -116.039 62.0796 -82.1094 -114.905 61.6743 
-82.6952 -113.64 62.4002 -83.4783 -112.562 63.57 -84.359 -111.668 64.6485 
-80.6097 -120.375 64.2008 -80.4137 -121.299 64.6814 -80.9739 -119.125 63.8839 
-81.5802 -117.767 63.3308 -82.2859 -116.68 62.1949 -82.8552 -115.757 61.2796 
-83.3426 -114.543 61.5991 -83.9525 -113.166 62.7341 -84.7027 -112.063 63.8604 
-85.5043 -111.194 64.833 -81.5021 -121.005 64.6533 -81.8347 -120.039 64.1657 
-82.8256 -120.751 64.5992 -83.2686 -119.84 64.0216 -84.2636 -120.533 64.5886 
-82.3251 -118.801 63.7168 -84.7686 -119.642 63.9691 -85.6303 -120.099 64.7638 
-83.8003 -118.685 63.4495 -82.9696 -117.558 62.8489 -86.2415 -119.138 64.1674 
-86.9989 -119.385 65.035 -85.2681 -118.444 63.4921 -84.356 -117.462 62.7272 
-83.6078 -116.555 61.7662 -87.774 -118.362 64.4663 -88.4506 -118.565 65.2824 
-86.7552 -117.838 63.8703 -85.6513 -117.034 63.3003 -84.8779 -116.251 62.3829 
-84.1596 -115.427 61.5993 -89.2985 -117.452 64.8097 -89.8202 -117.683 65.5778 
-88.4067 -117.031 64.2776 -87.0961 -116.278 64.0415 -86.0811 -115.507 63.5675 
-85.475 -114.739 62.8382 -84.7453 -113.873 62.4811 -90.6642 -116.468 65.223 
-91.062 -116.823 65.8957 -90.1048 -116.105 64.6347 -88.9854 -115.434 64.4385 
-87.6853 -114.583 64.3449 -86.865 -113.798 63.955 -86.2379 -113.029 63.5492 
-85.4389 -112.396 63.5224 -91.8934 -115.606 65.6098 -92.2563 -116.135 66.1616 
-91.591 -115.158 64.9806 -90.9862 -114.538 64.5584 -89.8733 -113.666 64.4744 
-88.7537 -112.848 64.4312 -87.9321 -112.212 64.2816 -87.1021 -111.695 64.2483 
-86.2166 -111.361 64.4584 -92.9953 -114.957 65.963 -93.3353 -115.583 66.4396 
-92.7643 -114.377 65.3596 -92.5366 -113.702 64.7233 -91.9315 -112.805 64.3708 
-90.9125 -111.939 64.4249 -89.8819 -111.396 64.6481 -88.9418 -111.062 64.8587 
-87.9531 -110.757 65.0826 -87.0163 -110.497 65.3544 -87.5134 -109.39 66.1597 
-88.4773 -109.68 65.9577 -88.8257 -108.33 66.5227 -89.5629 -110.002 65.7095 
-89.9046 -108.641 66.354 -89.9902 -107.147 66.7175 -90.6098 -110.224 65.3125 
-90.9412 -108.945 66.0463 -91.0196 -107.363 66.4506 -90.9998 -105.877 66.8792 
-91.6682 -110.468 64.7635 -91.9563 -109.164 65.4997 -92 -107.647 66.0871 
-92.0486 -105.954 66.4924 -92.0473 -104.583 67.0764 -92.7276 -111.118 64.3803 
-93.0782 -109.582 64.9145 -93.1448 -108.086 65.6833 -93.2228 -106.336 66.2286 
-93.2465 -104.653 66.6897 -93.0609 -103.529 67.3402 -93.4088 -112.15 64.5863 
-93.9903 -110.481 64.8006 -94.3168 -108.844 65.4521 -94.5416 -107.078 66.129 
-94.5787 -105.225 66.5996 -94.3467 -103.784 67.1057 -93.951 -102.979 67.9176 
-93.6262 -113.123 65.284 -94.3725 -111.614 65.3393 -95.0163 -109.921 65.6556 
-95.5437 -108.085 66.1645 -95.7451 -106.156 66.6654 -95.5647 -104.487 67.1667 
-95.2121 -103.405 67.8866 -94.8015 -102.785 68.9108 -93.7792 -113.884 65.9985 
-94.5096 -112.601 66.1007 -95.2516 -111.069 66.239 -95.9733 -109.291 66.4606 
-96.3968 -107.343 66.8443 -96.3892 -105.508 67.3832 -96.1744 -104.127 68.0923 
-95.8922 -103.254 69.0223 -95.4786 -102.664 70.0807 -94.0611 -114.578 66.5372 
-94.7159 -113.413 66.7217 -95.386 -112.082 66.8912 -96.0936 -110.53 67.0251 
-96.6104 -108.728 67.298 -96.7523 -106.857 67.8243 -96.6757 -105.216 68.5334 
-96.5497 -103.994 69.372 -96.2884 -103.169 70.3066 -95.8146 -102.573 71.2284 
-87.5436 -108.414 66.6443 -88.7133 -107.233 66.9239 -87.528 -107.512 67.2189 
-89.774 -106.017 67.2431 -88.5359 -106.284 67.6204 -87.4831 -106.745 68.1067 
-90.8379 -104.802 67.6147 -89.5207 -105.043 68.103 -88.3455 -105.396 68.5931 
-87.3385 -105.942 69.1455 -91.8705 -103.667 67.9221 -90.5816 -103.947 68.5602 
-89.2506 -104.158 69.0429 -88.0633 -104.55 69.5391 -87.0087 -105.13 70.083 
-92.7358 -102.866 68.3897 -91.494 -103.05 69.0848 -90.216 -103.24 69.6675 
-88.9018 -103.439 70.08 -87.6862 -103.891 70.5638 -86.6647 -104.475 71.1018 
-93.6133 -102.466 69.2853 -92.3042 -102.377 69.8934 -91.0247 -102.45 70.5434 
-89.7661 -102.546 70.9998 -88.5267 -102.831 71.3772 -87.4208 -103.383 71.8471 
-86.5072 -103.996 72.3139 -94.4823 -102.233 70.3958 -93.2437 -101.891 70.8551 
-91.887 -101.717 71.3957 -90.5294 -101.664 71.873 -89.291 -101.793 72.2605 
-88.2318 -102.28 72.6877 -87.2946 -102.975 73.1339 -86.4192 -103.639 73.4823 
-95.0322 -102.061 71.4602 -94.0549 -101.557 71.767 -92.868 -101.172 72.118 
-91.4394 -100.949 72.491 -89.991 -100.897 72.8824 -88.8532 -101.206 73.3343 
-87.9733 -101.892 73.8191 -87.1023 -102.652 74.2105 -86.2141 -103.328 74.467 
-95.5047 -102.208 72.5057 -94.7086 -101.566 72.706 -95.1841 -101.87 73.912 
-94.3981 -101.131 74.1326 -95.0102 -101.587 75.4868 -93.8241 -100.969 72.9362 
-94.1299 -100.893 75.8054 -94.7622 -101.49 76.9994 -93.5189 -100.561 74.3967 
-92.6045 -100.569 73.2151 -93.6583 -101.019 77.2848 -94.2349 -101.817 78.1352 
-92.9943 -100.451 76.1516 -92.0959 -100.197 74.7681 -90.9537 -100.34 73.5879 
-93.0184 -101.568 78.3041 -93.6749 -102.453 79.0661 -92.2268 -100.674 77.5525 
-91.3338 -100.047 76.5675 -90.3216 -99.9577 75.2234 -89.432 -100.392 74.0548 
-92.4721 -102.225 79.3273 -93.1656 -102.999 80.0956 -91.5453 -101.227 78.5521 
-90.6151 -100.23 77.8712 -89.7667 -99.833 76.9213 -88.9724 -100.167 75.6266 
-88.3987 -100.941 74.5507 -91.9138 -102.758 80.4791 -92.5022 -103.477 81.0553 
-91.0424 -101.908 79.7087 -90.1211 -100.906 78.9075 -89.3767 -100.254 78.1278 
-88.6427 -100.304 77.0915 -87.9548 -100.889 75.9124 -87.4908 -101.75 74.9651 
-91.2368 -103.372 81.3661 -91.7607 -104.14 81.7462 -90.5015 -102.597 80.8518 
-89.6623 -101.781 80.1113 -88.9488 -101.178 79.243 -88.2413 -100.976 78.2746 
-87.4442 -101.141 77.1748 -86.8469 -101.691 76.1235 -86.512 -102.512 75.2468 
-90.6002 -104.163 81.9748 -91.1452 -104.915 82.3058 -89.9222 -103.384 81.6406 
-89.1418 -102.603 81.1566 -88.4064 -102.067 80.4228 -87.6902 -101.856 79.4676 
-86.8841 -101.771 78.376 -86.2009 -101.905 77.2842 -85.8357 -102.458 76.3071 
-85.6276 -103.235 75.4437 -96.2793 -102.952 71.9302 -96.0533 -102.674 73.3657 
-96.6411 -103.586 72.8695 -96.6753 -103.347 74.3417 -96.8732 -104.534 73.878 
-95.955 -102.453 74.8937 -97.0925 -104.318 75.1758 -96.9773 -105.813 74.7362 
-96.791 -103.217 75.7423 -95.8754 -102.288 76.4336 -97.1862 -105.741 75.8237 
-97.1263 -107.343 75.4606 -97.1258 -104.326 76.322 -96.5578 -103.261 77.0994 
-95.4246 -102.368 77.7941 -97.2878 -107.451 76.4931 -97.3357 -108.855 76.1206 
-97.028 -105.9 76.899 -96.6787 -104.581 77.6596 -95.8845 -103.571 78.4715 
-94.7545 -102.841 78.9039 -97.4203 -109.03 77.1956 -97.3424 -110.219 76.6673 
-97.0217 -107.643 77.6592 -96.5914 -106.148 78.3911 -96.1465 -104.919 79.2342 
-95.2916 -104.036 79.7315 -94.2132 -103.41 79.9261 -97.2391 -110.431 77.8105 
-97.064 -111.574 77.1445 -96.9935 -109.248 78.4055 -96.5584 -107.818 79.155 
-96.2688 -106.346 80.0029 -95.7543 -105.258 80.555 -94.7396 -104.502 80.7673 
-93.5779 -103.897 80.9041 -96.7293 -111.783 78.301 -96.6421 -112.892 77.5939 
-96.6226 -110.688 78.9518 -96.3594 -109.479 79.6929 -96.1432 -108.015 80.5161 
-95.8354 -106.667 81.1433 -95.0511 -105.77 81.4647 -93.8911 -105.1 81.622 
-92.7515 -104.523 81.7037 -96.1343 -112.986 78.6281 -96.1669 -113.96 77.9325 
-96.0207 -111.934 79.2651 -95.8965 -110.901 79.9651 -95.7782 -109.716 80.7445 
[...]
CELL_DATA 2000
SCALARS Distance double
LOOKUP_TABLE default
152.608 152.353 152.474 152.552 152.142 152.283 152.403 152.549 152.768 
151.971 152.102 152.202 152.361 152.54 152.8 153.058 151.921 151.985 
152.061 152.146 152.246 152.48 152.694 153.013 153.19 152.027 151.997 
152.053 152.052 152.093 152.2 152.349 152.609 152.799 153.062 153.119 
152.303 152.157 152.149 152.075 152.069 152.087 152.16 152.314 152.483 
152.708 152.826 152.974 152.948 152.712 152.483 152.418 152.23 152.195 
152.108 152.148 152.181 152.299 152.445 152.575 152.73 152.766 152.835 
152.802 153.114 152.893 152.815 152.57 152.533 152.347 152.402 152.29 
152.375 152.351 152.429 152.507 152.558 152.663 152.674 152.744 152.762 
153.46 153.259 153.174 152.951 152.889 152.717 152.746 152.617 152.652 
152.522 152.495 152.427 152.405 152.459 152.486 152.597 152.647 152.742 
152.795 152.714 152.607 152.537 152.309 152.204 152.215 151.906 152.071 
151.973 151.865 151.692 151.245 151.449 151.349 151.709 151.746 152.188 
151.592 151.024 150.85 150.715 151.01 151.179 151.556 151.717 153.174 
152.326 151.834 151.129 150.977 150.737 150.978 151.125 151.466 151.681 
151.915 154.369 153.544 153.24 152.378 152.267 151.572 151.723 151.369 
151.688 151.637 151.972 152.035 152.293 155.579 154.815 154.583 153.833 
153.71 153.006 152.965 152.377 152.424 152.088 152.273 152.207 152.484 
152.507 152.745 156.734 156.033 155.766 155.081 154.862 154.241 154.041 
153.469 153.285 152.826 152.773 152.554 152.701 152.695 152.932 152.959 
153.147 157.709 157.114 156.834 156.188 155.909 155.268 155.006 154.399 
154.178 153.635 153.519 153.115 153.159 152.964 153.142 153.115 153.33 
153.334 153.502 158.099 158.479 157.952 157.283 159.007 158.405 157.71 
157.115 156.388 159.563 158.984 158.289 157.617 156.837 156.203 155.461 
159.986 159.51 158.865 158.223 157.442 156.728 155.94 155.307 154.63 
160.309 159.902 159.321 158.76 158.018 157.343 156.582 155.894 155.205 
154.574 154.005 160.584 160.225 159.708 159.211 158.52 157.889 157.154 
156.523 155.865 155.235 154.639 154.039 153.597 160.799 160.476 160.021 
159.611 159.014 158.42 157.701 157.067 156.41 155.839 155.262 154.692 
154.208 153.713 153.452 161.04 160.692 160.27 159.921 159.429 158.932 
158.281 157.645 156.979 156.378 155.846 155.301 154.879 154.356 154.076 
153.667 153.571 161.352 160.97 160.54 160.188 159.738 159.329 158.753 
158.202 157.552 156.966 156.452 155.932 155.602 155.094 154.862 154.367 
154.219 153.832 153.758 153.891 154.454 154.2 154.198 155.128 154.868 
154.921 154.505 154.314 155.782 155.54 155.593 155.234 155.007 154.503 
154.155 156.492 156.152 156.148 155.83 155.612 155.147 154.74 154.252 
153.911 157.486 156.939 156.876 156.424 156.289 155.794 155.497 154.908 
154.56 154.051 153.829 158.658 158.041 157.957 157.339 157.271 156.674 
156.558 155.877 155.643 154.916 154.693 154.115 154.061 159.689 159.184 
159.135 158.525 158.469 157.834 157.781 157.103 156.949 156.171 155.943 
155.192 155.1 154.547 154.681 160.547 160.144 160.166 159.661 159.632 
159.051 158.988 158.353 158.208 157.483 157.246 156.484 156.323 155.69 
155.753 155.297 155.511 161.379 161.004 161.077 160.642 160.657 160.153 
160.114 159.531 159.414 158.726 158.525 157.77 157.592 156.907 156.892 
156.371 156.508 156.104 156.268 153.662 153.822 153.595 153.308 153.84 
153.656 153.32 153.199 153.003 153.718 153.593 153.245 153.156 152.981 
152.949 152.864 153.573 153.477 153.177 153.07 152.85 152.851 152.77 
152.815 152.731 153.512 153.397 153.182 153.058 152.814 152.714 152.535 
152.591 152.5 152.595 152.489 153.72 153.457 153.295 153.135 152.973 
152.776 152.563 152.423 152.292 152.314 152.27 152.35 152.335 154.356 
153.881 153.71 153.387 153.278 153.024 152.863 152.599 152.442 152.275 
152.251 152.224 152.297 152.327 152.425 155.205 154.666 154.447 153.966 
153.777 153.412 153.208 152.913 152.695 152.487 152.395 152.325 152.398 
152.396 152.523 152.522 152.633 155.945 155.476 155.202 154.713 154.421 
153.966 153.654 153.261 152.94 152.669 152.472 152.406 152.421 152.483 
152.594 152.636 152.725 152.724 152.79 156.218 156.369 156.002 155.456 
156.668 156.167 155.548 155.203 154.658 157.154 156.547 155.856 155.358 
154.734 154.379 153.83 157.65 157.054 156.344 155.753 155.033 154.512 
153.828 153.5 153.004 158.137 157.535 156.801 156.205 155.423 154.841 
154.059 153.566 152.972 152.737 152.477 158.707 158.076 157.314 156.64 
155.814 155.192 154.429 153.877 153.29 152.878 152.611 152.445 152.456 
159.23 158.667 157.959 157.237 156.431 155.681 154.984 154.353 153.86 
153.348 153.063 152.738 152.693 152.577 152.654 159.635 159.153 158.548 
157.917 157.215 156.451 155.816 155.098 154.648 154.04 153.705 153.239 
153.041 152.82 152.796 152.745 152.775 160.053 159.577 159.049 158.502 
157.904 157.249 156.667 155.997 155.533 154.901 154.495 153.907 153.561 
153.161 153.006 152.862 152.865 152.829 152.846 156.735 157.715 157.131 
156.981 158.897 158.25 158.181 157.496 157.384 160.157 159.502 159.491 
158.817 158.757 158.011 157.901 161.491 160.783 160.737 160.101 160.07 
159.4 159.273 158.521 158.37 162.94 162.183 162.073 161.336 161.273 
160.644 160.578 159.877 159.721 158.966 158.848 164.283 163.637 163.548 
162.741 162.619 161.888 161.875 161.195 161.14 160.367 160.243 159.478 
159.399 165.36 164.874 164.862 164.184 164.058 163.301 163.247 162.552 
162.547 161.815 161.702 160.902 160.733 159.994 159.866 166.24 165.841 
165.841 165.348 165.264 164.654 164.556 163.906 163.839 163.174 163.053 
162.313 162.095 161.315 161.093 160.383 160.229 166.931 166.607 166.535 
166.167 166.074 165.664 165.574 165.076 164.947 164.36 164.181 163.54 
163.327 162.622 162.392 161.643 161.449 160.745 160.627 161.901 162.6 
162.038 161.589 163.287 162.719 162.242 161.673 161.177 164.048 163.439 
162.971 162.342 161.817 161.22 160.663 164.901 164.269 163.794 163.106 
162.528 161.868 161.238 160.63 159.965 165.637 165.086 164.535 163.876 
163.169 162.509 161.771 161.16 160.416 159.829 159.076 166.091 165.654 
165.021 164.453 163.644 163.019 162.196 161.608 160.85 160.269 159.516 
158.91 158.181 166.405 165.995 165.382 164.845 164.103 163.471 162.705 
162.054 161.352 160.736 160.066 159.427 158.746 158.105 157.501 166.737 
166.333 165.815 165.275 164.69 164.056 163.444 162.725 162.087 161.364 
160.735 160.052 159.422 158.754 158.162 157.55 157.077 166.998 166.683 
166.248 165.786 165.295 164.74 164.214 163.552 162.924 162.179 161.503 
160.782 160.145 159.467 158.875 158.238 157.724 157.176 156.771 162.21 
162.905 162.703 162.955 163.533 163.381 163.67 163.446 163.659 164.118 
163.964 164.263 164.121 164.386 164.148 164.386 164.814 164.568 164.834 
164.683 164.982 164.827 165.112 164.908 165.203 165.682 165.344 165.547 
165.282 165.53 165.381 165.675 165.561 165.879 165.725 165.974 166.598 
166.258 166.399 166.025 166.15 165.92 166.16 166.065 166.369 166.297 
166.566 166.397 166.497 167.352 167.123 167.221 166.836 166.845 166.534 
166.702 166.559 166.831 166.737 166.967 166.869 167.013 166.811 166.815 
167.783 167.736 167.833 167.547 167.487 167.17 167.273 167.116 167.371 
167.23 167.386 167.218 167.305 167.198 167.275 167.094 167.09 167.893 
168.01 168.159 168.03 167.962 167.706 167.725 167.608 167.828 167.748 
167.868 167.648 167.617 167.441 167.476 167.417 167.482 167.336 167.299 
167.961 168.155 168.174 168.255 168.255 168.293 168.318 168.261 168.098 
168.242 168.304 168.302 168.278 168.173 168.05 167.932 168.131 168.217 
168.225 168.249 168.218 168.166 168.167 168.057 168.07 168.009 168.084 
168.112 168.168 168.158 168.185 168.188 168.224 168.223 168.179 168.058 
167.942 167.991 168.017 168.063 168.038 168.077 168.042 168.126 168.098 
168.159 168.028 167.97 167.749 167.809 167.899 167.89 167.958 167.929 
167.962 167.957 167.999 168.041 168.057 168.034 167.944 167.826 167.688 
167.591 167.514 167.665 167.634 167.768 167.767 167.859 167.924 167.989 
168.116 168.127 168.184 168.075 168.001 167.842 167.755 167.642 167.592 
167.198 167.333 167.332 167.482 167.53 167.681 167.794 167.944 168.086 
168.193 168.223 168.203 168.046 167.953 167.744 167.706 167.56 167.56 
167.413 167.075 167.007 167.095 167.217 166.834 167.028 167.173 167.274 
167.438 166.34 166.739 166.949 167.189 167.379 167.527 167.731 165.578 
166.101 166.316 166.765 166.957 167.331 167.556 167.809 168.013 164.754 
165.281 165.438 165.949 166.096 166.655 166.874 167.402 167.608 167.967 
168.07 163.96 164.478 164.642 165.074 165.197 165.708 165.95 166.556 
166.797 167.321 167.422 167.812 167.808 163.112 163.689 163.923 164.359 
164.508 164.915 165.176 165.7 166.026 166.517 166.675 167.056 167.098 
167.459 167.489 162.121 162.77 163.03 163.607 163.802 164.268 164.499 
165 165.334 165.837 166.07 166.418 166.494 166.793 166.887 167.222 
167.331 161.094 161.715 161.953 162.619 162.865 163.471 163.703 164.264 
164.53 165.098 165.337 165.807 165.914 166.253 166.323 166.657 166.776 
167.115 167.197 166.986 166.824 166.915 166.917 166.516 166.704 166.646 
166.768 166.664 165.843 166.21 166.055 166.303 166.053 166.292 166.064 
164.746 165.265 165.028 165.451 165.126 165.48 165.187 165.531 165.284 
163.456 163.987 163.715 164.237 163.97 164.435 164.184 164.581 164.346 
164.705 164.47 162.247 162.701 162.43 162.913 162.705 163.24 163.071 
163.549 163.314 163.714 163.45 163.847 163.612 161.167 161.579 161.335 
161.733 161.491 161.981 161.789 162.344 162.109 162.601 162.298 162.747 
162.48 162.948 162.719 160.155 160.557 160.346 160.713 160.436 160.816 
160.534 161.017 160.768 161.304 161.054 161.556 161.314 161.788 161.563 
162.025 161.77 159.216 159.585 159.395 159.753 159.5 159.816 159.517 
159.855 159.597 160.027 159.84 160.33 160.167 160.648 160.462 160.902 
160.668 161.074 160.804 167.038 167.069 166.963 166.82 167.001 166.925 
166.659 166.66 166.476 166.666 166.725 166.36 166.369 166.057 166.163 
165.836 166.081 166.257 165.902 165.945 165.504 165.607 165.235 165.359 
164.846 165.45 165.632 165.314 165.408 164.931 164.984 164.528 164.677 
164.229 164.275 163.644 164.786 164.972 164.613 164.773 164.309 164.373 
163.847 163.949 163.479 163.61 163.075 163.063 162.421 164.008 164.218 
163.809 164.017 163.565 163.697 163.152 163.239 162.697 162.835 162.32 
162.428 161.857 161.862 161.277 163.254 163.425 163.037 163.212 162.784 
162.929 162.404 162.496 161.921 162.035 161.514 161.661 161.165 161.253 
160.731 160.75 160.238 162.638 162.757 162.409 162.518 162.113 162.205 
161.708 161.763 161.196 161.262 160.747 160.883 160.463 160.598 160.18 
160.225 159.765 159.759 159.306 162.204 161.351 161.862 161.946 160.207 
160.867 160.969 161.538 161.595 158.89 159.612 159.74 160.437 160.525 
161.113 161.135 157.599 158.297 158.463 159.184 159.336 159.979 160.02 
160.587 160.593 156.464 157.075 157.239 157.93 158.097 158.782 158.861 
159.456 159.489 160.06 160.147 155.555 156.037 156.113 156.705 156.8 
157.501 157.61 158.285 158.394 159.003 159.161 159.735 159.915 154.734 
155.158 155.133 155.607 155.644 156.245 156.418 157.082 157.319 157.955 
158.205 158.801 159.017 159.556 159.687 153.856 154.269 154.2 154.641 
154.702 155.23 155.503 156.089 156.443 157.009 157.3 157.859 158.059 
158.62 158.72 159.248 159.28 153.088 153.403 153.362 153.747 153.862 
154.375 154.713 155.312 155.709 156.254 156.503 156.983 157.09 157.606 
157.66 158.212 158.242 158.782 158.814 152.785 152.683 152.783 153.045 
152.939 152.852 153.066 153.158 153.59 153.292 153.205 153.385 153.333 
153.717 153.881 154.491 153.43 153.488 153.657 153.642 153.901 154.028 
154.55 154.848 155.468 153.284 153.467 153.645 153.778 153.976 154.114 
154.458 154.767 155.268 155.67 156.161 153.011 153.202 153.355 153.615 
153.86 154.087 154.383 154.616 154.994 155.337 155.775 156.196 156.645 
152.844 152.94 153.061 153.286 153.558 153.871 154.234 154.518 154.905 
155.148 155.564 155.848 156.31 156.686 157.185 152.846 152.869 153.014 
153.109 153.369 153.593 153.954 154.282 154.704 155.043 155.491 155.769 
156.226 156.483 156.97 157.295 157.8 152.889 152.92 153.082 153.152 
153.397 153.519 153.812 154.023 154.373 154.727 155.175 155.6 156.089 
156.437 156.905 157.181 157.65 157.945 158.418 158.67 157.921 158.468 
158.823 157.144 157.69 158.002 158.588 158.907 156.224 156.812 157.059 
157.703 158.009 158.627 158.921 155.212 155.773 155.96 156.659 156.997 
157.703 158.058 158.659 158.997 154.423 154.814 154.967 155.552 155.908 
156.653 157.096 157.794 158.196 158.797 159.21 153.933 154.194 154.325 
154.707 155.001 155.617 156.06 156.794 157.244 157.947 158.389 159.05 
159.517 153.516 153.759 153.827 154.132 154.312 154.799 155.168 155.814 
156.259 156.955 157.417 158.147 158.638 159.346 159.81 153.139 153.327 
153.32 153.576 153.66 154.091 154.403 154.993 155.438 156.058 156.518 
157.18 157.68 158.408 158.903 159.597 160.015 152.913 153.002 152.971 
153.1 153.139 153.442 153.709 154.239 154.679 155.287 155.735 156.345 
156.813 157.486 157.994 158.684 159.142 159.779 160.161 158.078 157.118 
157.866 158.36 155.964 156.801 157.314 158.124 158.668 154.8 155.631 
156.178 157.024 157.62 158.453 159.07 153.744 154.545 155.141 155.944 
156.617 157.447 158.154 158.944 159.611 152.885 153.593 154.232 154.979 
155.69 156.526 157.347 158.145 158.895 159.57 160.215 152.541 152.965 
153.604 154.163 154.842 155.622 156.504 157.393 158.267 158.969 159.641 
160.211 160.802 152.763 152.927 153.54 153.793 154.403 154.893 155.708 
156.539 157.486 158.324 159.079 159.693 160.268 160.806 161.348 153.051 
153.218 153.787 153.945 154.5 154.705 155.352 155.865 156.698 157.488 
158.29 159.043 159.668 160.279 160.818 161.347 161.822 153.052 153.319 
153.809 154.11 154.624 154.855 155.364 155.655 156.274 156.804 157.518 
158.214 158.887 159.59 160.187 160.803 161.308 161.797 162.182 158.685 
159.043 159.156 159.761 159.441 159.581 160.281 160.347 161.037 159.882 
160.038 160.833 160.936 161.69 161.724 162.452 160.37 160.514 161.32 
161.482 162.26 162.365 163.103 163.156 163.879 160.906 161.021 161.793 
161.948 162.696 162.846 163.578 163.73 164.483 164.579 165.256 161.458 
161.558 162.325 162.445 163.19 163.286 164.026 164.168 164.957 165.12 
165.82 165.86 166.305 161.945 162.06 162.773 162.937 163.653 163.785 
164.507 164.652 165.427 165.591 166.249 166.315 166.676 166.626 166.776 
162.325 162.448 163.035 163.245 163.84 164.083 164.681 164.973 165.624 
165.934 166.478 166.629 166.864 166.845 166.9 166.882 167 162.613 
162.731 163.225 163.406 163.909 164.133 164.609 164.914 165.415 165.834 
166.288 166.622 166.821 166.912 166.926 166.934 167.04 167.125 167.389 
158.689 159.748 159.147 159.084 161.006 160.303 160.241 159.623 159.62 
162.407 161.648 161.561 160.857 160.797 160.179 160.145 163.841 163.074 
162.956 162.202 162.062 161.362 161.212 160.613 160.507 165.194 164.48 
164.315 163.558 163.362 162.619 162.4 161.692 161.497 160.911 160.797 
166.188 165.682 165.452 164.8 164.534 163.853 163.622 162.911 162.684 
161.977 161.791 161.196 161.068 166.705 166.438 166.234 165.754 165.452 
164.884 164.619 164.038 163.805 163.162 162.917 162.253 162.037 161.448 
161.286 167.078 166.889 166.856 166.469 166.267 165.731 165.458 164.915 
164.652 164.123 163.855 163.291 163.036 162.446 162.245 161.675 161.535 
167.558 167.372 167.48 167.153 167.072 166.574 166.328 165.749 165.442 
164.888 164.598 164.093 163.859 163.366 163.194 162.663 162.526 161.968 
161.855 167.188 167.533 167.343 167.298 167.806 167.681 167.628 167.435 
167.283 167.903 167.857 167.774 167.67 167.457 167.262 166.921 167.989 
167.932 167.892 167.781 167.565 167.345 166.949 166.72 166.289 168.122 
168.055 168.072 167.965 167.833 167.544 167.173 166.799 166.376 166.095 
165.705 168.156 168.122 168.036 168.053 167.893 167.779 167.408 167.092 
166.635 166.293 165.884 165.577 165.136 168.046 168.008 167.74 167.802 
167.513 167.587 167.163 167.099 166.567 166.419 165.918 165.724 165.212 
164.93 164.37 167.857 167.787 167.431 167.422 167.127 167.156 166.813 
166.746 166.261 166.146 165.632 165.551 165.039 164.893 164.33 164.089 
163.556 167.642 167.557 167.219 167.164 166.977 166.949 166.806 166.642 
166.322 166.007 165.554 165.294 164.85 164.675 164.211 164.012 163.529 
163.314 162.892 
POINT_DATA 1002
SCALARS Distance double
LOOKUP_TABLE default
152.564 152.807 152.458 152.407 152.199 152.689 152.249 151.984 152.558 
153.062 152.08 151.855 152.284 152.786 153.333 152.026 151.889 152.082 
152.378 152.927 153.316 152.083 152.116 152.056 152.149 152.528 152.95 
153.099 152.278 152.521 152.094 152.065 152.274 152.653 152.88 152.87 
152.659 152.964 152.326 152.174 152.213 152.416 152.662 152.761 152.78 
153.063 153.321 152.731 152.549 152.491 152.43 152.448 152.57 152.695 
152.815 153.4 153.664 153.066 152.875 152.819 152.652 152.41 152.363 
152.53 152.721 152.852 152.882 152.276 152.667 151.705 152.245 151.743 
151.131 152.223 150.904 151.406 151.426 152.92 150.521 150.726 151.414 
152.636 153.969 151.446 150.972 151.243 151.747 154.03 155.112 153.058 
152.306 151.9 151.928 152.248 155.307 156.321 154.419 153.662 152.935 
152.444 152.452 152.757 156.473 157.41 155.524 154.65 153.818 153.107 
152.774 152.883 153.161 157.461 158.259 156.571 155.637 154.735 153.984 
153.469 153.241 153.308 153.526 158.577 157.819 159.044 158.355 159.625 
156.959 158.975 160.093 157.539 156.016 159.465 160.404 158.157 156.633 
155.175 159.841 160.688 158.661 157.241 155.877 154.566 160.151 160.918 
159.136 157.769 156.457 155.268 154.09 160.366 161.118 159.552 158.361 
156.982 155.799 154.728 153.815 160.598 161.407 159.85 158.892 157.601 
156.364 155.383 154.533 153.885 160.909 161.743 160.119 159.251 158.123 
156.943 156.058 155.372 154.688 154.089 153.926 154.591 154.083 155.332 
154.848 154.016 155.924 155.529 154.651 153.803 156.482 156.044 155.267 
154.308 153.628 157.4 156.752 156.076 155.154 154.225 153.639 158.606 
157.869 157.198 156.407 155.375 154.485 154.062 159.701 159.103 158.441 
157.71 156.736 155.721 155.098 154.887 160.617 160.184 159.614 158.914 
158.007 156.998 156.253 155.91 155.74 161.489 161.128 160.664 160.069 
159.264 158.31 157.472 156.953 156.665 156.401 153.464 153.428 153.073 
153.34 152.972 152.904 153.295 152.903 152.682 152.73 153.274 152.983 
152.563 152.367 152.409 153.462 153.153 152.789 152.344 152.171 152.236 
154.123 153.552 153.136 152.671 152.316 152.273 152.388 154.994 154.231 
153.554 152.938 152.481 152.394 152.534 152.652 155.698 154.919 154.117 
153.295 152.592 152.348 152.527 152.726 152.802 156.559 155.753 156.799 
155.953 157.257 154.941 156.437 157.773 155.183 154.081 156.955 158.223 
155.644 154.278 153.13 157.43 158.759 156.02 154.608 153.299 152.495 
158.04 159.325 156.473 154.952 153.731 152.847 152.497 158.638 159.73 
157.201 155.621 154.38 153.472 152.875 152.713 159.095 160.083 157.914 
156.533 155.296 154.273 153.376 152.878 152.803 159.556 160.521 158.498 
157.304 156.167 155.139 154.078 153.234 152.91 152.888 157.249 157.59 
158.31 158.855 159.53 158.101 160.123 160.823 159.497 158.678 161.406 
162.25 160.686 160.03 159.116 162.896 163.676 161.92 161.219 160.489 
159.563 164.341 164.837 163.412 162.531 161.881 161.053 160.115 165.448 
165.798 164.802 163.966 163.249 162.515 161.541 160.545 166.282 166.646 
165.797 165.198 164.51 163.762 162.886 161.861 160.875 166.899 167.251 
166.428 166.002 165.526 164.811 163.975 163.123 162.196 161.279 162.474 
162.153 163.174 162.833 163.858 161.742 163.628 164.661 162.455 161.259 
164.52 165.528 163.239 161.894 160.568 165.215 166.174 163.875 162.401 
161.026 159.66 165.58 166.525 164.276 162.79 161.404 160.129 158.767 
165.887 166.808 164.687 163.356 161.976 160.683 159.394 158.083 166.307 
167.102 165.257 164.133 162.85 161.44 160.087 158.791 157.618 162.418 
163.22 163.081 163.847 163.675 163.947 164.375 164.309 164.573 164.643 
165.025 165.111 165.107 165.272 165.426 165.9 166.039 165.72 165.769 
165.991 166.226 166.841 166.919 166.461 166.277 166.441 166.682 166.798 
167.615 167.527 167.211 166.87 166.966 167.093 167.132 167.115 168.07 
167.757 167.819 167.436 167.518 167.636 167.435 167.352 167.363 168.208 