# vtk DataFile Version 4.0
vtk output
ASCII
DATASET POLYDATA
POINTS 1002 float
-76.5453 -111.788 74.1178 -75.8257 -112.895 73.5815 -76.1733 -112.463 72.755 
-77.1553 -111.451 73.4674 -76.827 -112.055 72.0663 -77.3892 -110.611 74.6131 
-77.9439 -111.049 72.8732 -77.8694 -111.772 71.7375 -78.1229 -110.253 74.0067 
-78.1975 -109.329 75.0284 -78.9419 -110.632 72.4465 -79.1869 -111.504 71.6008 
-78.9046 -109.721 73.3863 -78.9884 -108.823 74.4272 -79.0526 -107.892 75.537 
-80.2015 -110.167 72.1282 -80.509 -111.008 71.2893 -79.9184 -109.139 72.9058 
-79.9028 -108.21 73.8857 -80.0019 -107.341 75.0269 -80.0074 -106.401 76.1214 
-81.559 -109.587 71.8626 -81.7205 -110.348 71.0292 -81.2727 -108.585 72.5892 
-81.0654 -107.569 73.4905 -81.08 -106.761 74.5977 -81.0159 -105.884 75.6339 
-80.7925 -104.901 76.5411 -82.8747 -108.963 71.7705 -83.0358 -109.716 71.0704 
-82.6762 -108.048 72.4026 -82.3753 -106.922 73.1463 -82.1565 -105.992 74.1506 
-81.9856 -105.196 75.122 -81.6601 -104.228 75.9542 -81.3234 -103.28 76.8145 
-84.2562 -108.329 71.6411 -84.5313 -109.097 71.0245 -83.9607 -107.475 72.2838 
-83.6238 -106.312 72.8571 -83.2418 -105.159 73.6359 -82.9047 -104.299 74.5735 
-82.557 -103.415 75.3964 -82.1624 -102.455 76.2041 -81.8678 -101.702 77.1218 
-85.6251 -107.714 71.2457 -85.8815 -108.521 70.758 -85.1967 -106.844 72.0155 
-84.7784 -105.706 72.6384 -84.3932 -104.471 73.1966 -83.9882 -103.533 74.0525 
-83.6009 -102.735 74.9923 -83.2175 -101.828 75.7883 -82.8419 -101.021 76.5985 
-82.5442 -100.473 77.4854 -86.7333 -107.24 70.8909 -86.8457 -108.093 70.6462 
-86.3315 -106.294 71.6469 -85.8601 -105.129 72.4079 -85.5097 -103.89 72.8941 
-85.1801 -102.949 73.5839 -84.7915 -102.266 74.6216 -84.3928 -101.493 75.5446 
-83.985 -100.673 76.28 -83.5808 -100.034 77.0438 -83.2275 -99.5746 77.8477 
-75.39 -113.659 72.4842 -75.6602 -113.127 71.4114 -75.0784 -114.498 71.3784 
-75.3936 -114.061 70.261 -75.0192 -115.746 70.6128 -76.4514 -112.763 70.8134 
-75.569 -115.551 69.79 -75.2991 -117.361 70.3276 -76.4201 -113.832 70.0584 
-77.8437 -112.598 70.8516 -76.1906 -117.244 69.9387 -75.9436 -118.776 70.4292 
-76.8556 -115.309 70.0648 -78.0871 -113.605 70.3808 -79.4176 -112.293 70.7671 
-77.0945 -118.451 70.3829 -76.8657 -119.637 70.9169 -77.6717 -116.757 70.3904 
-78.6753 -114.825 70.2851 -79.7907 -113.158 70.0052 -80.7657 -111.72 70.2656 
-78.1289 -119.03 71.0577 -77.9812 -120.109 71.7122 -78.6508 -117.73 70.6896 
-79.5407 -116.096 70.2566 -80.4646 -114.34 69.573 -81.2274 -112.695 69.423 
-82.0436 -111.133 70.1689 -79.2667 -119.352 71.8241 -79.1942 -120.467 72.4562 
-79.6912 -118.239 71.1038 -80.4945 -117.08 70.3048 -81.3471 -115.624 69.5362 
-82.0079 -113.929 69.209 -82.6637 -112.198 69.6989 -83.5556 -110.532 70.5104 
-80.3989 -119.735 72.4033 -80.2968 -120.848 72.9213 -80.7776 -118.596 71.6597 
-81.4833 -117.662 70.6681 -82.2758 -116.586 69.8279 -82.9322 -115.002 69.4599 
-83.5064 -113.189 69.6923 -84.211 -111.444 70.2864 -85.0829 -109.849 70.6668 
-81.3618 -120.207 72.763 -81.1747 -121.228 73.2103 -81.7786 -119.018 72.1835 
-82.4431 -118.035 71.2989 -83.1801 -117.158 70.4235 -83.8447 -115.797 69.9181 
-84.4174 -113.962 69.8537 -84.9379 -112.193 70.2264 -85.5319 -110.641 70.6563 
-86.2263 -109.258 70.726 -82.1239 -120.977 73.2157 -82.5493 -119.815 72.7594 
-83.3717 -120.54 73.3047 -83.9929 -119.297 72.7631 -84.9131 -119.949 73.3651 
-83.2085 -118.583 72.1018 -85.5182 -118.663 72.7332 -86.4487 -119.239 73.3964 
-84.6597 -118.035 72.0906 -83.9421 -117.589 71.2781 -86.9078 -117.851 72.8545 
-87.7249 -118.266 73.6231 -85.9576 -117.264 72.2147 -85.2534 -116.844 71.4793 
-84.6365 -116.413 70.6162 -88.2126 -116.773 73.23 -88.8706 -117.032 73.9617 
-87.221 -116.228 72.623 -86.3875 -115.738 71.8992 -85.9188 -115.271 70.9641 
-85.3065 -114.614 70.2144 -89.6375 -115.602 73.5062 -90.1585 -115.866 74.1448 
-88.7266 -115.074 73.0825 -87.6871 -114.491 72.5179 -87.0694 -114.016 71.5506 
-86.5961 -113.397 70.6502 -85.8235 -112.704 70.2809 -91.1467 -114.56 73.6409 
-91.5429 -114.907 74.3545 -90.4336 -114.02 73.2498 -89.3982 -113.387 72.9223 
-88.4619 -112.894 72.2388 -87.7528 -112.422 71.4443 -86.9693 -111.761 71.0003 
-86.1771 -111.118 70.8066 -92.4415 -113.588 74.0267 -92.7163 -113.978 74.8394 
-91.9581 -113.055 73.4292 -91.2017 -112.46 73.0326 -90.27 -111.937 72.5498 
-89.2727 -111.509 72.0603 -88.182 -110.985 71.8313 -87.221 -110.327 71.5846 
-86.6358 -109.721 71.1069 -93.3484 -112.583 74.6903 -93.5343 -113.001 75.4638 
-93.0457 -112.065 73.9325 -92.6059 -111.537 73.2877 -91.9988 -111.033 72.6843 
-91.138 -110.54 72.1857 -89.9255 -110.027 72.0722 -88.619 -109.477 72.0729 
-87.7128 -108.934 71.6424 -87.2463 -108.459 70.9749 -87.6506 -107.19 70.8491 
-88.2418 -107.492 71.2574 -88.57 -106.072 71.4162 -89.0917 -107.817 71.8188 
-89.5707 -106.2 71.6724 -89.727 -104.561 72.0863 -90.4196 -108.237 71.9892 
-90.8735 -106.364 71.8736 -91.075 -104.583 72.11 -90.9989 -102.881 72.4484 
-91.8442 -108.83 71.9736 -92.3316 -106.823 71.9293 -92.5297 -104.866 72.1298 
-92.4501 -103.073 72.4228 -92.1954 -101.531 72.5927 -92.8161 -109.491 72.3719 
-93.4448 -107.596 72.2383 -93.7851 -105.577 72.3407 -93.8549 -103.663 72.5392 
-93.67 -101.972 72.7285 -93.2579 -100.6 73.0418 -93.3332 -110.066 73.1224 
-94.0328 -108.387 72.9242 -94.5803 -106.509 72.8491 -94.9396 -104.528 72.8837 
-95.0124 -102.63 73.0151 -94.6818 -101.074 73.3735 -94.0804 -99.8658 73.9221 
-93.6551 -110.59 73.9532 -94.3435 -109.048 73.7871 -95.0284 -107.417 73.57 
-95.5805 -105.551 73.4759 -95.9132 -103.456 73.5151 -95.8165 -101.588 73.8007 
-95.2615 -100.292 74.3719 -94.5627 -99.3376 74.964 -93.8962 -111.153 74.8145 
-94.5438 -109.673 74.744 -95.3017 -108.223 74.5005 -95.9285 -106.622 74.3428 
-96.3287 -104.602 74.3495 -96.4613 -102.412 74.4932 -96.1459 -100.747 74.9041 
-95.4822 -99.7633 75.5226 -94.8134 -99.0186 76.06 -94.0768 -111.714 75.6088 
-94.675 -110.323 75.6406 -95.4338 -108.954 75.5047 -96.108 -107.533 75.3726 
-96.4798 -105.799 75.389 -96.6758 -103.667 75.4894 -96.6702 -101.614 75.7049 
-96.2689 -100.213 76.1652 -95.6126 -99.3969 76.7446 -94.9929 -98.7291 77.1966 
-87.4675 -106.157 71.2931 -88.323 -104.762 71.9933 -87.0298 -104.886 72.1042 
-89.4506 -103.058 72.4857 -87.9421 -103.249 72.528 -86.6387 -103.489 72.6566 
-90.6727 -101.46 72.6173 -89.0768 -101.653 72.7398 -87.6025 -101.945 72.9005 
-86.3517 -102.398 73.1782 -91.7747 -100.28 72.9331 -90.1748 -100.355 73.1034 
-88.5948 -100.653 73.4161 -87.2124 -101.098 73.7688 -85.9878 -101.709 74.2145 
-92.7356 -99.3748 73.7067 -91.1669 -99.2622 73.8147 -89.5389 -99.5111 74.2166 
-88.0328 -99.8315 74.5737 -86.7271 -100.359 74.9272 -85.5411 -101.012 75.3183 
-93.4981 -98.6994 74.6556 -92.1058 -98.3125 74.5857 -90.5015 -98.4516 74.9258 
-88.9177 -98.6765 75.2655 -87.4559 -98.9169 75.4393 -86.1795 -99.5273 75.7615 
-85.059 -100.208 76.1159 -94.0003 -98.3313 75.6674 -92.8855 -97.6833 75.3882 
-91.4002 -97.5873 75.5505 -89.7883 -97.801 75.9154 -88.2161 -97.8281 76.034 
-86.7545 -98.0901 76.1685 -85.5577 -98.8246 76.5519 -84.554 -99.5306 76.882 
-94.3061 -98.1047 76.7896 -93.4166 -97.3527 76.3945 -92.1158 -96.9689 76.3612 
-90.5252 -97.0751 76.7046 -88.9017 -97.1096 76.932 -87.325 -97.0589 76.9552 
-85.969 -97.4956 77.1545 -84.9552 -98.305 77.4898 -84.0878 -99.0113 77.7109 
-94.7259 -98.0078 78.121 -93.9557 -97.2772 77.6964 -94.3067 -97.168 79.0468 
-93.3471 -96.3902 78.7329 -93.6044 -96.4191 80.0605 -92.8625 -96.5722 77.4327 
-92.4551 -95.6408 79.8832 -92.6522 -95.9168 81.292 -92.0538 -95.751 78.6166 
-91.339 -96.3271 77.5832 -91.4119 -95.1973 81.1535 -91.5795 -95.7036 82.5298 
-91.1409 -94.995 79.734 -90.4615 -95.4692 78.6835 -89.6135 -96.3465 77.8626 
-90.2508 -95.1256 82.4142 -90.4387 -95.7907 83.4728 -90.1072 -94.5554 80.9895 
-89.5629 -94.6193 79.5531 -88.6498 -95.3553 78.6525 -87.8599 -96.2457 77.9021 
-89.0196 -95.3255 83.5214 -89.3162 -96.0181 84.3561 -88.8181 -94.5365 82.5057 
-88.3684 -94.2034 80.9096 -87.5616 -94.596 79.4093 -86.7689 -95.4241 78.617 
-86.262 -96.4156 77.9616 -87.936 -95.5901 84.5943 -88.3458 -96.197 85.4532 
-87.548 -94.7974 83.8782 -86.9706 -94.2542 82.7146 -86.2441 -94.3523 80.943 
-85.658 -94.9671 79.5344 -85.3059 -95.9314 78.8385 -85.0991 -97.128 78.2186 
-87.0458 -95.8739 85.6973 -87.5058 -96.4198 86.542 -86.5636 -95.2061 84.9394 
-85.8702 -94.6257 84.0901 -85.0909 -94.498 82.702 -84.6191 -94.8709 81.0365 
-84.472 -95.6378 79.8539 -84.377 -96.7626 79.1364 -84.2438 -97.9869 78.443 
-86.1977 -96.2847 86.6689 -86.6918 -96.8447 87.3666 -85.7075 -95.7198 85.8731 
-85.0639 -95.2131 84.9879 -84.3209 -94.9483 83.8745 -83.8383 -95.0749 82.4759 
-83.7248 -95.6017 81.1254 -83.6944 -96.5132 80.1172 -83.5784 -97.6601 79.3293 
-83.4137 -98.7308 78.5781 -95.5489 -98.7721 78.1536 -95.235 -98.0223 79.1667 
-96.1245 -98.8545 79.192 -95.7163 -98.1749 80.2051 -96.4698 -99.306 80.306 
-94.7251 -97.2952 80.1096 -95.9275 -98.7964 81.2983 -96.4494 -100.197 81.4655 
-95.0738 -97.7013 81.1974 -93.9456 -96.7543 81.2416 -95.7686 -99.8009 82.4311 
-96.2296 -101.288 82.5294 -95.1168 -98.5247 82.3682 -94.206 -97.351 82.482 
-92.9656 -96.378 82.6005 -95.4072 -100.928 83.4103 -95.8743 -102.484 83.3533 
-94.8129 -99.5666 83.4797 -94.1248 -98.2305 83.6513 -93.1984 -97.0113 83.8096 
-91.8794 -96.2307 83.7109 -94.9701 -102.2 84.1771 -95.3112 -103.793 83.9843 
-94.4661 -100.717 84.3995 -93.8197 -99.301 84.6335 -93.104 -97.9498 84.8299 
-92.1164 -96.9183 84.8213 -90.7275 -96.3726 84.5625 -94.4795 -103.556 84.8406 
-94.6609 -105.024 84.5321 -94.2097 -102.03 85.2272 -93.6684 -100.502 85.553 
-92.9176 -99.1159 85.7568 -92.0923 -97.9308 85.8742 -90.9972 -97.0635 85.8183 
-89.6247 -96.5606 85.6049 -93.9615 -104.761 85.4058 -94.071 -106.033 85.0075 
-93.8555 -103.365 85.9447 -93.5235 -101.805 86.4154 -92.8197 -100.342 86.6431 
-91.9457 -99.1211 86.7657 -91.0356 -98.038 86.8945 -89.9262 -97.2111 86.8917 
-88.6636 -96.7301 86.7265 -93.4467 -105.79 85.8575 -93.5468 -106.901 85.4199 
-93.3282 -104.578 86.4394 -93.0687 -103.141 86.9866 -92.5103 -101.648 87.2773 
[...]
CELL_DATA 2000
SCALARS Distance double
LOOKUP_TABLE default
153.381 153.019 153.232 153.284 152.917 152.991 153.082 153.161 153.08 
153.112 152.99 152.933 152.95 152.845 152.896 152.744 153.366 153.186 
152.951 152.82 152.639 152.647 152.539 152.586 152.473 153.499 153.361 
153.121 152.891 152.644 152.523 152.439 152.448 152.386 152.364 152.189 
153.676 153.505 153.345 153.1 152.821 152.595 152.397 152.362 152.241 
152.255 151.998 151.954 151.611 153.963 153.747 153.577 153.345 153.033 
152.754 152.383 152.252 151.974 151.997 151.683 151.671 151.259 151.243 
150.907 154.198 153.991 153.741 153.543 153.187 152.909 152.441 152.194 
151.817 151.728 151.463 151.395 151.095 150.971 150.686 150.637 150.481 
154.374 154.152 153.856 153.654 153.283 153.016 152.537 152.24 151.839 
151.663 151.469 151.358 151.219 151.024 150.848 150.634 150.514 150.41 
150.373 153.388 153.183 153.077 152.857 153.36 152.939 152.65 152.674 
152.761 154.276 153.459 153.129 152.742 152.879 152.876 153.153 155.701 
154.738 154.44 153.649 153.674 153.292 153.529 153.392 153.532 157.127 
156.273 156.043 155.175 155.037 154.328 154.286 153.867 153.851 153.651 
153.625 158.395 157.638 157.42 156.68 156.482 155.708 155.462 154.748 
154.537 154.058 153.986 153.753 153.797 159.591 158.85 158.576 157.902 
157.701 157.02 156.786 156.001 155.74 154.99 154.873 154.349 154.406 
154.088 154.182 160.704 159.999 159.679 158.997 158.779 158.156 158 
157.31 157.097 156.312 156.122 155.433 155.387 154.883 154.905 154.521 
154.509 161.663 161.044 160.729 160.069 159.83 159.222 159.097 158.497 
158.339 157.63 157.372 156.65 156.444 155.87 155.772 155.31 155.229 
154.812 154.724 162.043 162.358 161.857 161.163 162.721 162.195 161.509 
160.977 160.306 163.054 162.548 161.849 161.337 160.692 160.192 159.592 
163.244 162.819 162.081 161.618 160.946 160.533 159.918 159.477 158.824 
163.262 162.941 162.215 161.78 161.04 160.668 159.997 159.66 158.946 
158.551 157.809 163.231 162.956 162.335 161.915 161.172 160.732 160.019 
159.655 158.95 158.578 157.847 157.473 156.83 163.333 163.018 162.502 
162.094 161.443 160.941 160.254 159.772 159.136 158.678 158.045 157.587 
156.996 156.613 156.129 163.546 163.208 162.717 162.326 161.758 161.282 
160.663 160.136 159.546 159.028 158.469 157.945 157.378 156.887 156.364 
155.988 155.549 163.688 163.399 162.885 162.541 161.99 161.597 161.028 
160.569 159.987 159.491 158.913 158.41 157.819 157.312 156.721 156.264 
155.742 155.404 154.995 154.8 155.549 155.015 154.783 156.526 155.875 
155.604 155.046 154.791 157.63 156.927 156.614 155.942 155.636 155.042 
154.696 158.77 158.077 157.786 157.026 156.697 155.979 155.638 154.948 
154.57 159.882 159.243 159.026 158.262 157.965 157.16 156.85 156.047 
155.729 154.942 154.66 160.898 160.334 160.161 159.492 159.238 158.474 
158.186 157.368 157.069 156.234 155.966 155.18 154.995 161.827 161.305 
161.15 160.57 160.373 159.71 159.469 158.709 158.406 157.585 157.265 
156.481 156.241 155.542 155.399 162.724 162.217 162.086 161.541 161.412 
160.824 160.68 159.988 159.747 158.925 158.577 157.739 157.422 156.708 
156.524 155.914 155.824 163.546 163.095 162.982 162.479 162.388 161.866 
161.792 161.195 161.03 160.274 159.958 159.083 158.722 157.899 157.657 
156.996 156.897 156.335 156.289 154.41 154.337 154.179 153.849 154.277 
154.087 153.632 153.553 153.19 154.1 153.934 153.367 153.257 152.755 
152.768 152.383 153.896 153.679 153.08 152.935 152.398 152.329 151.94 
151.981 151.734 153.948 153.556 152.982 152.723 152.268 152.089 151.772 
151.693 151.545 151.546 151.457 154.293 153.765 153.183 152.791 152.39 
152.125 151.832 151.659 151.481 151.447 151.365 151.375 151.248 154.75 
154.19 153.569 153.09 152.645 152.336 152.005 151.765 151.434 151.323 
151.099 151.175 151.024 151.088 150.883 155.246 154.688 154.069 153.51 
153 152.614 152.265 151.964 151.567 151.277 150.884 150.816 150.621 
150.754 150.638 150.704 150.548 155.762 155.23 154.654 154.051 153.5 
153.008 152.628 152.27 151.908 151.506 151.044 150.712 150.399 150.375 
150.305 150.435 150.398 150.445 150.374 155.871 155.621 155.442 154.757 
155.262 155.112 154.429 154.254 153.6 154.922 154.72 154.028 153.887 
153.28 153.168 152.688 154.727 154.426 153.668 153.473 152.837 152.786 
152.3 152.315 151.892 154.632 154.291 153.497 153.175 152.415 152.273 
151.673 151.752 151.274 151.4 150.954 154.586 154.236 153.493 153.095 
152.274 151.915 151.152 151.052 150.516 150.659 150.305 150.473 150.251 
154.669 154.268 153.595 153.169 152.413 151.914 151.104 150.701 150.098 
150.014 149.765 149.913 149.889 150.058 150.137 154.902 154.455 153.822 
153.363 152.684 152.159 151.42 150.864 150.247 149.885 149.627 149.592 
149.662 149.812 149.985 150.14 150.272 155.186 154.743 154.141 153.667 
153.032 152.508 151.842 151.279 150.7 150.224 149.916 149.682 149.694 
149.71 149.884 150.009 150.158 150.265 150.321 156.484 157.347 156.712 
156.278 158.302 157.598 157.149 156.464 155.957 159.381 158.604 158.144 
157.394 156.924 156.173 155.68 160.487 159.702 159.245 158.465 158.028 
157.238 156.792 155.984 155.527 161.499 160.763 160.289 159.557 159.119 
158.372 157.935 157.144 156.674 155.864 155.405 162.403 161.724 161.26 
160.562 160.128 159.418 158.988 158.253 157.799 157.011 156.534 155.738 
155.316 163.208 162.612 162.243 161.571 161.205 160.46 160.068 159.306 
158.911 158.139 157.728 156.911 156.501 155.701 155.372 163.875 163.398 
163.138 162.58 162.305 161.603 161.235 160.446 160.047 159.274 158.897 
158.123 157.746 156.941 156.596 155.826 155.57 164.417 164.036 163.833 
163.412 163.177 162.628 162.249 161.558 161.085 160.363 159.921 159.227 
158.841 158.134 157.783 157.05 156.753 156.043 155.818 163.918 164.324 
163.886 163.4 164.883 164.356 163.89 163.373 162.864 165.553 165.006 
164.52 163.931 163.403 162.853 162.303 165.967 165.615 165.113 164.566 
163.933 163.359 162.703 162.198 161.522 165.995 165.845 165.416 165.037 
164.346 163.79 162.976 162.464 161.673 161.238 160.429 165.905 165.802 
165.447 165.21 164.597 164.113 163.253 162.673 161.801 161.315 160.491 
160.041 159.209 165.696 165.662 165.26 165.148 164.586 164.272 163.478 
162.943 162.057 161.495 160.678 160.161 159.378 158.875 158.146 165.234 
165.288 164.804 164.809 164.218 164.107 163.37 163.055 162.203 161.74 
160.906 160.406 159.639 159.127 158.423 157.944 157.356 164.741 164.752 
164.268 164.264 163.682 163.63 162.947 162.798 162.029 161.748 160.942 
160.563 159.786 159.361 158.654 158.227 157.624 157.232 156.727 164.279 
164.802 164.599 164.677 165.2 165.067 165.239 165.052 165.227 165.687 
165.47 165.697 165.6 165.892 165.706 165.909 166.444 166.06 166.22 
166.074 166.39 166.305 166.505 166.295 166.291 167.283 166.881 166.931 
166.655 166.827 166.709 166.809 166.69 166.6 166.412 166.237 167.856 
167.611 167.63 167.353 167.368 167.119 167.052 166.861 166.713 166.571 
166.421 166.276 166.136 168.134 168.014 168.031 167.892 167.876 167.63 
167.47 167.142 166.92 166.682 166.551 166.432 166.343 166.192 165.995 
168.322 168.213 168.188 168.126 168.106 167.995 167.848 167.569 167.289 
166.968 166.754 166.576 166.46 166.347 166.147 165.947 165.593 168.516 
168.395 168.334 168.236 168.174 168.106 167.97 167.823 167.547 167.292 
166.995 166.779 166.591 166.451 166.268 166.079 165.778 165.493 165.123 
168.603 168.67 168.573 168.425 168.677 168.628 168.464 168.357 168.204 
168.52 168.589 168.43 168.354 168.116 168.072 167.906 168.032 168.294 
168.161 168.228 167.924 167.888 167.592 167.654 167.441 167.226 167.606 
167.48 167.774 167.491 167.574 167.214 167.267 167.015 167.128 166.937 
166.507 166.761 166.63 166.97 166.777 167.005 166.722 166.848 166.651 
166.765 166.654 166.713 166.584 166.154 166.221 166.106 166.26 166.12 
166.296 166.092 166.29 166.186 166.422 166.414 166.532 166.432 166.425 
166.25 165.9 165.98 165.87 165.93 165.774 165.81 165.557 165.663 
165.502 165.828 165.853 166.203 166.146 166.256 165.999 166 165.718 
165.418 165.633 165.5 165.658 165.468 165.525 165.209 165.206 164.881 
165.072 164.96 165.415 165.388 165.769 165.551 165.672 165.315 165.361 
165.05 164.992 164.303 164.818 165.111 163.492 164.07 164.369 164.895 
165.095 162.491 163.166 163.442 164.067 164.287 164.788 164.846 161.319 
162.066 162.383 163.084 163.352 163.93 164.042 164.455 164.494 160.203 
160.909 161.274 162.001 162.338 162.989 163.177 163.652 163.76 164.188 
164.462 159.199 159.868 160.196 160.896 161.213 161.929 162.166 162.764 
162.927 163.448 163.753 164.339 164.81 158.16 158.851 159.136 159.811 
160.067 160.769 161.027 161.708 161.965 162.585 162.931 163.577 164.03 
164.677 165.037 157.117 157.791 158.098 158.751 159.033 159.673 159.983 
160.634 161.01 161.66 162.109 162.76 163.231 163.855 164.204 164.74 
164.897 156.188 156.794 157.134 157.764 158.116 158.731 159.105 159.716 
160.146 160.788 161.285 161.957 162.447 163.071 163.422 163.931 164.107 
164.538 164.645 164.719 163.954 164.242 163.999 163.04 163.386 163.164 
163.488 163.214 162.029 162.397 162.133 162.553 162.288 162.625 162.227 
160.923 161.307 160.947 161.403 161.082 161.547 161.141 161.484 161.001 
159.761 160.132 159.704 160.134 159.748 160.24 159.842 160.279 159.832 
160.21 159.823 158.69 158.985 158.511 158.86 158.43 158.888 158.512 
158.975 158.581 159.001 158.642 159.084 158.796 157.742 157.987 157.492 
157.722 157.228 157.587 157.201 157.668 157.309 157.759 157.385 157.846 
157.524 158.031 157.742 156.808 157.063 156.602 156.785 156.27 156.482 
156.047 156.406 156.061 156.496 156.134 156.572 156.212 156.702 156.408 
156.942 156.687 155.955 156.151 155.729 155.924 155.465 155.627 155.185 
155.393 155.03 155.339 155.011 155.371 155.035 155.438 155.155 155.635 
155.429 155.947 155.772 165.024 165.21 164.861 164.269 165.235 164.973 
164.378 164.022 163.361 165.116 164.912 164.336 164.064 163.424 163.077 
162.387 164.992 164.793 164.221 163.969 163.337 163.064 162.379 162.048 
161.306 164.762 164.664 164.115 163.873 163.204 162.921 162.206 161.937 
161.194 160.894 160.14 164.279 164.316 163.813 163.711 163.053 162.788 
162.03 161.73 160.974 160.708 159.993 159.726 159.053 163.763 163.78 
163.307 163.303 162.722 162.575 161.852 161.572 160.799 160.502 159.777 
159.534 158.883 158.668 158.06 163.369 163.326 162.852 162.816 162.278 
162.188 161.542 161.354 160.628 160.354 159.613 159.334 158.65 158.442 
157.834 157.667 157.093 162.957 162.938 162.438 162.395 161.832 161.752 
161.133 161.012 160.372 160.176 159.505 159.215 158.537 158.251 157.654 
157.445 156.935 156.75 156.268 162.509 161.546 162.023 161.97 160.442 
160.961 160.871 161.405 161.31 159.205 159.778 159.639 160.213 160.129 
160.692 160.596 157.806 158.477 158.415 159.004 158.985 159.536 159.52 
160.017 159.914 156.553 157.154 157.292 157.883 158 158.513 158.558 
159.015 158.935 159.337 159.124 155.84 156.212 156.484 156.964 157.179 
157.624 157.635 158.056 157.915 158.336 158.086 158.471 158.175 155.376 
155.699 155.91 156.323 156.485 156.861 156.744 157.073 156.806 157.227 
156.99 157.428 157.187 157.549 157.315 154.703 155.117 155.17 155.64 
155.654 156.086 155.863 156.145 155.771 156.102 155.908 156.374 156.315 
156.689 156.554 156.818 156.647 153.959 154.334 154.301 154.724 154.64 
155.101 154.9 155.23 154.895 155.153 154.983 155.406 155.503 155.945 
155.975 156.209 156.04 156.214 156.02 153.67 153.393 153.63 153.887 
153.113 153.303 153.42 153.767 154.098 152.816 153.001 153.11 153.34 
153.561 153.973 154.315 152.523 152.708 152.865 153.082 153.286 153.535 
153.771 154.139 154.389 152.16 152.385 152.49 152.785 152.987 153.271 
153.479 153.729 153.98 154.272 154.608 151.61 151.925 151.975 152.315 
152.459 152.836 153.044 153.404 153.701 154.027 154.453 154.742 155.215 
150.983 151.32 151.428 151.768 151.894 152.244 152.413 152.837 153.129 
153.635 154.058 154.551 154.981 155.356 155.674 150.543 150.776 150.935 
151.25 151.416 151.719 151.847 152.191 152.384 152.899 153.214 153.868 
154.195 154.815 155.033 155.517 155.649 150.365 150.464 150.572 150.811 
150.968 151.259 151.368 151.653 151.738 152.125 152.298 152.873 153.122 
153.79 154.013 154.636 154.816 155.345 155.542 155.448 154.59 155.025 
155.109 153.701 154.097 154.108 154.684 154.844 152.792 153.147 153.081 
153.645 153.805 154.428 154.607 151.996 152.241 152.081 152.565 152.667 
153.343 153.562 154.203 154.418 151.481 151.566 151.33 151.601 151.574 
152.156 152.358 153.088 153.355 154.044 154.328 151.144 151.172 150.916 
150.989 150.845 151.16 151.265 151.881 152.182 152.926 153.273 153.985 
154.333 150.785 150.852 150.613 150.648 150.462 150.585 150.578 150.942 
151.188 151.812 152.227 152.944 153.381 154.057 154.476 150.466 150.522 
150.336 150.361 150.177 150.243 150.17 150.381 150.529 150.971 151.368 
152 152.519 153.183 153.689 154.305 154.779 150.33 150.322 150.206 
150.164 149.991 149.979 149.857 149.982 150.053 150.389 150.728 151.264 
151.798 152.422 152.989 153.593 154.109 154.679 155.153 162.053 161.126 
161.856 162.313 160.003 160.832 161.303 162.053 162.444 158.746 159.614 
160.072 160.933 161.34 162.1 162.448 157.446 158.309 158.718 159.615 
160.026 160.889 161.263 162.062 162.457 156.113 157.003 157.4 158.253 
158.629 159.505 159.895 160.79 161.225 162.094 162.561 154.849 155.723 
156.2 156.987 157.331 158.119 158.503 159.403 159.895 160.823 161.334 
162.204 162.646 154.001 154.673 155.253 155.906 156.246 156.884 157.228 
158.058 158.616 159.554 160.151 161.004 161.483 162.255 162.623 153.738 
154.135 154.735 155.18 155.533 155.945 156.219 156.863 157.412 158.335 
159.027 159.906 160.45 161.174 161.579 162.256 162.603 153.791 154.035 
154.572 154.875 155.264 155.477 155.73 156.059 156.51 157.219 157.914 
158.8 159.42 160.191 160.64 161.303 161.691 162.314 162.656 162.66 
162.953 163.103 163.672 163.125 163.376 164.037 164.184 164.813 163.166 
163.499 164.243 164.531 165.302 165.437 166.11 163.228 163.55 164.321 
164.68 165.531 165.865 166.683 166.793 167.394 163.375 163.679 164.441 
164.761 165.58 165.99 166.847 167.204 167.886 167.965 168.341 163.435 
163.808 164.535 164.866 165.583 165.978 166.754 167.212 167.889 168.205 
168.587 168.644 168.754 163.346 163.768 164.452 164.846 165.467 165.874 
166.526 167.011 167.633 168.053 168.433 168.651 168.764 168.811 168.778 
163.26 163.636 164.293 164.687 165.271 165.657 166.216 166.678 167.251 
167.721 168.135 168.427 168.589 168.707 168.727 168.751 168.708 163.235 
163.551 164.159 164.526 165.094 165.446 165.946 166.33 166.827 167.287 
167.732 168.111 168.363 168.548 168.638 168.698 168.723 168.708 168.677 
162.654 163.662 163.087 162.976 164.752 164.113 163.997 163.434 163.342 
165.958 165.224 165.016 164.427 164.33 163.807 163.693 167.173 166.419 
166.078 165.409 165.212 164.723 164.606 164.099 163.885 168.132 167.535 
167.149 166.445 166.139 165.575 165.401 164.922 164.69 164.16 163.839 
168.619 168.3 167.987 167.433 167.121 166.53 166.313 165.748 165.485 
164.906 164.558 164.021 163.718 168.702 168.599 168.387 168.094 167.84 
167.421 167.19 166.673 166.363 165.74 165.344 164.741 164.431 163.945 
163.773 168.637 168.605 168.449 168.334 168.132 167.931 167.692 167.371 
167.008 166.517 166.043 165.494 165.124 164.664 164.489 164.085 163.983 
168.582 168.543 168.404 168.343 168.183 168.086 167.879 167.687 167.336 
166.978 166.488 166.045 165.627 165.255 165.046 164.74 164.63 164.278 
164.13 165.452 165.975 165.743 165.664 166.295 166.195 166.222 165.923 
165.731 166.688 166.543 166.673 166.452 166.348 165.926 165.635 167.347 
167.063 167.177 166.932 166.866 166.503 166.229 165.782 165.463 168.052 
167.746 167.723 167.438 167.279 166.952 166.631 166.27 165.905 165.545 
165.172 168.521 168.315 168.201 167.915 167.66 167.309 166.932 166.581 
166.2 165.885 165.501 165.149 164.702 168.724 168.637 168.551 168.321 
168.093 167.718 167.363 166.929 166.574 166.197 165.877 165.496 165.103 
164.66 164.22 168.75 168.756 168.723 168.606 168.464 168.181 167.906 
167.464 167.115 166.66 166.343 165.937 165.595 165.142 164.719 164.24 
163.825 168.693 168.743 168.742 168.716 168.637 168.502 168.317 168.005 
167.671 167.223 166.825 166.4 166.018 165.619 165.195 164.749 164.281 
163.838 163.4 
POINT_DATA 1002
SCALARS Distance double
LOOKUP_TABLE default
153.432 153.626 153.09 153.181 152.793 153.243 153.006 152.958 153.065 
152.938 153.012 153.371 152.786 152.691 152.609 153.18 153.553 152.667 
152.47 152.465 152.352 153.355 153.597 152.835 152.439 152.417 152.283 
151.939 153.571 153.867 153.117 152.52 152.24 152.073 151.647 151.252 
153.812 154.217 153.354 152.634 152.003 151.685 151.299 150.838 150.636 
153.951 154.432 153.468 152.745 151.952 151.502 151.209 150.783 150.444 
150.368 154.076 154.619 153.547 152.841 152.032 151.541 151.369 151.085 
150.681 150.421 150.335 153.454 152.694 153.407 152.723 153.956 152.541 
153.704 155.172 152.967 153.136 155.342 156.593 154.281 153.781 153.677 
156.886 157.905 155.908 154.932 154.152 153.731 158.128 159.156 157.251 
156.293 155.169 154.298 153.937 159.271 160.351 158.333 157.524 156.549 
155.509 154.819 154.469 160.378 161.387 159.391 158.618 157.863 156.886 
155.978 155.37 154.884 161.37 162.234 160.442 159.663 159.014 158.146 
157.092 156.269 155.683 155.123 162.525 161.678 162.873 162.037 163.257 
160.816 162.354 163.555 161.162 160.103 162.553 163.63 161.341 160.338 
159.318 162.646 163.514 161.452 160.331 159.329 158.197 162.713 163.472 
161.652 160.419 159.313 158.215 157.137 162.874 163.658 161.924 160.76 
159.59 158.511 157.415 156.44 163.096 163.889 162.186 161.169 160.065 
158.989 157.913 156.81 155.846 163.218 163.963 162.347 161.442 160.478 
159.425 158.333 157.218 156.139 155.246 154.538 155.265 154.551 156.225 
155.328 154.501 157.346 156.281 155.308 154.287 158.561 157.462 156.357 
155.257 154.172 159.751 158.772 157.667 156.533 155.403 154.411 160.779 
159.959 158.989 157.908 156.77 155.73 154.849 161.698 160.978 160.187 
159.235 158.082 156.948 156.05 155.3 162.612 161.952 161.311 160.547 
159.464 158.193 157.129 156.395 155.778 163.46 162.878 162.339 161.73 
160.819 159.598 158.38 157.466 156.833 156.259 153.928 153.787 153.189 
153.521 152.8 152.282 153.237 152.49 151.91 151.634 153.266 152.45 
151.873 151.541 151.468 153.622 152.666 152.062 151.57 151.341 151.294 
154.103 152.987 152.288 151.671 151.067 150.896 150.889 154.662 153.445 
152.575 151.939 151.098 150.492 150.482 150.547 155.252 154.05 153.011 
152.304 151.487 150.553 150.159 150.281 150.37 156.103 154.972 155.792 
154.575 155.423 153.743 154.166 155.182 153.346 152.756 153.934 155.068 
152.91 152.261 151.892 153.875 154.958 152.686 151.654 151.111 150.827 
153.878 154.926 152.731 151.413 150.398 150.047 150.047 154.005 155.081 
152.905 151.609 150.302 149.605 149.65 149.976 154.283 155.345 153.183 
151.967 150.691 149.757 149.528 149.815 150.168 154.603 155.612 153.539 
152.377 151.185 150.23 149.768 149.792 150.05 150.262 157.093 156.941 
158.008 157.848 159.054 156.66 158.913 160.179 157.675 156.44 160.018 
161.267 158.809 157.604 156.335 161.007 162.226 159.848 158.707 157.497 
156.194 161.942 163.045 160.837 159.704 158.558 157.346 156.067 162.854 
163.731 161.94 160.845 159.661 158.518 157.325 156.114 163.614 164.284 
162.95 162.029 160.837 159.647 158.53 157.389 156.288 164.213 164.757 
163.677 162.91 161.812 160.61 159.51 158.486 157.476 156.499 164.335 
163.866 164.776 164.429 165.447 163.378 165.146 166.072 163.99 162.845 
165.632 166.203 164.568 163.247 162.023 165.707 166.08 164.917 163.562 
162.127 160.877 165.626 166.014 165.014 163.867 162.338 160.948 159.656 
165.35 165.728 164.809 163.942 162.632 161.209 159.888 158.596 164.792 
165.186 164.275 163.576 162.598 161.385 160.131 158.904 157.774 164.544 
164.923 164.945 165.338 165.324 165.462 165.754 165.989 166.006 166.214 
166.445 166.907 166.47 166.703 166.603 167.298 167.651 167.058 166.96 
166.771 166.434 167.889 168.034 167.71 167.345 166.859 166.516 166.319 
168.125 168.249 168.084 167.841 167.23 166.677 166.467 166.248 168.27 
168.453 168.174 168.066 167.642 167.003 166.589 166.33 165.869 168.468 
168.632 168.269 168.083 167.767 167.237 166.752 166.439 166.041 165.429 