# vtk DataFile Version 4.0
vtk output
ASCII
DATASET POLYDATA
POINTS 1002 float
-76.7772 -114.256 74.1017 -76.5182 -115.395 73.957 -76.572 -114.998 72.9817 
-76.9944 -113.896 73.1418 -76.8241 -114.685 71.9095 -77.4836 -113.415 74.2486 
-77.4659 -113.641 72.124 -77.2907 -114.484 70.8374 -77.883 -113.023 73.3044 
-78.5057 -112.529 74.5105 -78.0733 -113.45 71.124 -77.8913 -114.307 69.9279 
-78.4327 -112.676 72.3616 -79.0309 -112.077 73.6271 -79.451 -111.332 74.8786 
-78.7671 -113.205 70.2568 -78.6756 -114.104 69.2523 -79.0417 -112.343 71.4564 
-79.6119 -111.681 72.7668 -80.0919 -110.954 74.0495 -80.2386 -110.045 75.131 
-79.6693 -112.912 69.6147 -79.6626 -113.866 68.7704 -79.8382 -111.963 70.6612 
-80.2793 -111.253 71.9232 -80.7391 -110.544 73.1727 -80.9398 -109.64 74.2777 
-81.039 -108.735 75.2164 -80.679 -112.604 69.1814 -80.6435 -113.487 68.3709 
-80.842 -111.591 70.0835 -81.1397 -110.753 71.1671 -81.4326 -109.971 72.3094 
-81.588 -109.048 73.3421 -81.6733 -108.127 74.3237 -81.8401 -107.386 75.3218 
-81.6514 -112.244 68.8374 -81.5589 -112.975 67.9946 -81.847 -111.278 69.7029 
-82.0782 -110.309 70.582 -82.2365 -109.396 71.5701 -82.3069 -108.419 72.5453 
-82.3557 -107.507 73.4367 -82.4552 -106.79 74.4197 -82.6235 -106.247 75.491 
-82.6973 -111.907 68.5826 -82.5485 -112.546 67.7647 -82.8732 -111.02 69.4294 
-83.0219 -109.967 70.1575 -83.1142 -108.955 70.9385 -83.1762 -107.982 71.9034 
-83.2277 -107.08 72.7977 -83.2627 -106.355 73.6278 -83.3191 -105.776 74.6027 
-83.421 -105.32 75.6316 -83.8255 -111.662 68.4933 -83.6035 -112.283 67.7745 
-83.9823 -110.818 69.252 -84.0274 -109.698 69.8706 -84.0274 -108.562 70.4225 
-84.0826 -107.607 71.2498 -84.1733 -106.772 72.2336 -84.1934 -106.022 73.058 
-84.1434 -105.367 73.8622 -84.119 -104.815 74.7902 -84.1519 -104.41 75.7107 
-76.4767 -116.552 73.1299 -76.492 -116.107 71.9533 -76.4207 -117.742 72.1589 
-76.3419 -117.171 70.8035 -76.2073 -118.668 71.2569 -76.6089 -115.652 70.7024 
-76.0578 -117.955 69.8311 -75.8543 -119.449 70.4944 -76.2065 -116.425 69.4445 
-76.909 -115.255 69.5928 -75.7827 -118.81 68.9656 -75.5151 -120.464 69.5959 
-75.7868 -117.069 68.3543 -76.2914 -115.771 68.282 -77.5049 -114.967 68.772 
-75.6759 -120.093 67.9813 -75.4745 -121.713 68.5942 -75.6999 -118.133 67.3801 
-75.8783 -116.437 67.0106 -76.9832 -115.461 67.4208 -78.5166 -114.799 68.214 
-75.9435 -121.39 67.2881 -75.9389 -122.695 68.0685 -76.0589 -119.553 66.7476 
-76.1329 -117.624 66.2049 -76.8303 -116.22 66.1963 -78.3463 -115.377 66.9991 
-79.7389 -114.551 67.8428 -76.6765 -122.087 67.3464 -76.7865 -123.084 68.2482 
-76.83 -120.604 66.8043 -77.0139 -118.851 66.3318 -77.4248 -117.292 65.9247 
-78.5465 -116.117 66.168 -79.8957 -115.1 66.8905 -80.8311 -114.028 67.4917 
-77.6708 -122.232 67.89 -77.7829 -123.101 68.727 -77.8407 -121.063 67.2895 
-78.1502 -119.649 66.9309 -78.5379 -118.241 66.5142 -79.3181 -116.979 66.167 
-80.3744 -115.771 66.2414 -81.1846 -114.548 66.6277 -81.7988 -113.437 67.1353 
-78.7142 -122.261 68.4216 -78.8221 -123.117 69.0884 -78.8652 -121.288 67.7626 
-79.2052 -120.191 67.3103 -79.6468 -118.99 66.9696 -80.3241 -117.753 66.4517 
-81.1701 -116.519 65.897 -81.7924 -115.264 65.7873 -82.2064 -114.061 66.2441 
-82.7865 -113.064 66.9952 -79.8588 -122.703 68.9348 -79.8885 -121.772 68.2887 
-81.1418 -122.334 68.702 -81.2678 -121.48 67.9546 -82.609 -121.98 68.4 
-80.1427 -120.87 67.5678 -82.7877 -121.242 67.5111 -84.0972 -121.552 68.0898 
-81.5375 -120.698 67.0951 -80.5542 -119.859 67.0214 -84.3439 -120.816 67.1751 
-85.4846 -121.005 67.8769 -83.0692 -120.392 66.6641 -82.024 -119.551 66.4393 
-81.2121 -118.567 66.4909 -85.8029 -120.161 67.0946 -86.7614 -120.29 67.8818 
-84.6217 -119.778 66.564 -83.5401 -118.967 66.0814 -82.7775 -117.973 65.6532 
-82.0539 -117.168 65.635 -87.0939 -119.269 67.3119 -87.8774 -119.298 68.1515 
-86.0367 -118.992 66.7402 -84.9136 -118.271 66.2477 -84.0571 -117.311 65.3533 
-83.3899 -116.517 64.7073 -82.6221 -115.881 65.0078 -88.2171 -118.116 67.7519 
-88.8231 -118.098 68.547 -87.3274 -117.991 67.0774 -86.209 -117.496 66.6756 
-85.1828 -116.711 65.9477 -84.3811 -115.982 64.93 -83.6428 -115.355 64.6884 
-82.8857 -114.672 65.372 -89.2938 -116.916 68.1481 -89.7761 -116.978 68.8112 
-88.58 -116.807 67.4737 -87.5655 -116.466 67.0943 -86.4906 -115.898 66.7588 
-85.5645 -115.327 66.0796 -84.7476 -114.814 65.589 -83.9965 -114.203 65.8191 
-83.3396 -113.544 66.4212 -90.4535 -115.934 68.2801 -90.8466 -116.122 68.8437 
-89.8865 -115.723 67.7121 -89.0073 -115.356 67.3927 -87.9705 -114.838 67.2828 
-87.0304 -114.331 67.0186 -86.1895 -113.911 66.6862 -85.3929 -113.476 66.722 
-84.7033 -112.991 67.0723 -84.1268 -112.569 67.4367 -84.844 -111.609 68.3033 
-85.4214 -111.734 67.985 -86.006 -110.57 68.6448 -86.0616 -111.903 67.5936 
-86.6359 -110.442 68.1665 -86.9811 -109.146 68.7359 -86.8571 -112.189 67.2478 
-87.4065 -110.38 67.6529 -87.7805 -108.947 68.2177 -88.0157 -107.692 68.8391 
-87.7438 -112.592 67.2507 -88.3686 -110.59 67.3769 -88.7751 -108.875 67.7831 
-89.0581 -107.682 68.5132 -89.1695 -106.396 69.0314 -88.679 -113.121 67.4692 
-89.4339 -111.083 67.4707 -89.9437 -109.045 67.554 -90.2042 -107.647 68.0945 
-90.2968 -106.539 68.7738 -90.212 -105.058 69.1847 -89.7421 -113.79 67.4956 
-90.5884 -111.853 67.5506 -91.224 -109.579 67.4722 -91.4531 -107.68 67.5949 
-91.4436 -106.488 68.1721 -91.3494 -105.217 68.8645 -91.1884 -103.676 69.3372 
-90.7547 -114.448 67.4996 -91.6917 -112.814 67.435 -92.4151 -110.614 67.4179 
-92.6714 -108.265 67.3835 -92.6001 -106.589 67.6561 -92.4995 -105.353 68.3725 
-92.3935 -103.903 69.0793 -92.2049 -102.524 69.5051 -91.4271 -114.918 67.8345 
-92.4305 -113.654 67.5238 -93.1837 -111.841 67.5207 -93.4984 -109.502 67.6608 
-93.505 -107.369 67.8517 -93.4975 -105.851 68.3165 -93.504 -104.427 68.9584 
-93.3785 -102.92 69.4003 -93.1116 -101.744 69.6829 -91.8053 -115.24 68.4101 
-92.7863 -114.213 68.0088 -93.5174 -112.788 67.9384 -93.8665 -110.801 68.2059 
-93.9874 -108.616 68.5297 -94.1405 -106.826 68.8455 -94.3272 -105.332 69.2389 
-94.3417 -103.771 69.5594 -94.1266 -102.337 69.7383 -93.7995 -101.33 70.012 
-85.0651 -110.804 68.9692 -86.0973 -109.505 69.2149 -85.093 -109.652 69.5761 
-86.9776 -107.86 69.2245 -85.9864 -108.055 69.6483 -84.9903 -108.273 70.0068 
-87.9923 -106.24 69.209 -86.8384 -106.292 69.5714 -85.8452 -106.608 70.0468 
-84.9588 -107.117 70.5984 -89.0857 -104.763 69.3115 -87.8651 -104.708 69.5994 
-86.7442 -105.022 70.1574 -85.8512 -105.611 70.8391 -85.0491 -106.274 71.5831 
-90.1088 -103.402 69.5474 -88.9724 -103.391 69.8772 -87.8222 -103.7 70.4703 
-86.7648 -104.199 71.1684 -85.8927 -104.831 71.8889 -85.0812 -105.497 72.5632 
-91.1368 -102.28 69.7897 -90.0187 -102.347 70.255 -88.9283 -102.63 70.9122 
-87.8148 -102.981 71.5744 -86.7209 -103.406 72.1816 -85.7924 -104.022 72.8207 
-84.9726 -104.741 73.3969 -92.144 -101.438 69.9756 -91.0161 -101.499 70.5507 
-89.8761 -101.721 71.299 -88.7932 -101.943 71.9725 -87.6673 -102.228 72.5115 
-86.5446 -102.687 73.0992 -85.611 -103.342 73.7377 -84.8442 -104.103 74.2944 
-93.001 -100.866 70.2875 -91.9804 -100.766 70.8814 -90.7784 -100.888 71.6565 
-89.5913 -101.03 72.35 -88.5072 -101.25 72.8858 -87.4098 -101.677 73.4456 
-86.3398 -102.233 74.0966 -85.4745 -102.883 74.7047 -84.7897 -103.645 75.2232 
-93.9403 -100.8 70.8081 -93.1274 -100.307 71.3223 -94.0395 -100.495 72.1518 
-93.2048 -99.9299 72.7666 -93.9904 -100.42 73.6964 -92.0138 -100.171 72.056 
-93.0996 -99.9262 74.1778 -93.7475 -100.516 75.0995 -91.9539 -99.8289 73.3737 
-90.6227 -100.26 72.7696 -92.7653 -100.21 75.5535 -93.4381 -100.715 76.4825 
-91.6688 -99.9455 74.6789 -90.3403 -99.9302 73.9712 -89.2802 -100.406 73.3646 
-92.3681 -100.52 77.1215 -93.12 -101.099 77.8553 -91.2092 -100.154 76.2626 
-89.9092 -99.828 75.4774 -88.8852 -99.9855 74.7042 -88.1405 -100.765 73.9799 
-92.0375 -100.94 78.5138 -92.7674 -101.672 78.9987 -90.8741 -100.357 77.8973 
-89.5578 -99.7855 77.2217 -88.5225 -99.6681 76.4103 -87.7589 -100.387 75.4595 
-87.0394 -101.375 74.6567 -91.7158 -101.557 79.5367 -92.3902 -102.277 79.984 
-90.7127 -100.912 79.047 -89.4895 -100.269 78.5422 -88.3881 -99.8854 77.9254 
-87.488 -100.268 77.0072 -86.7013 -101.172 76.0169 -86.0212 -102.037 75.2673 
-91.2873 -102.252 80.4971 -91.9416 -102.906 80.9058 -90.4584 -101.693 79.9931 
-89.4356 -101.229 79.448 -88.3543 -100.855 78.9444 -87.3224 -100.823 78.2847 
-86.427 -101.294 77.3511 -85.7497 -102.004 76.4555 -85.2355 -102.777 75.786 
-90.7637 -102.967 81.4387 -91.4184 -103.607 81.6703 -90.0261 -102.419 81.0649 
-89.1578 -102.051 80.5034 -88.147 -101.815 79.9239 -87.0733 -101.661 79.404 
-86.1259 -101.753 78.6938 -85.463 -102.199 77.764 -85.0085 -102.869 76.9251 
-84.5897 -103.63 76.2831 -94.5925 -101.748 70.3493 -94.7437 -101.354 71.349 
-95.403 -102.404 70.9296 -95.5909 -102.075 72.0783 -96.1632 -103.098 71.6261 
-94.7712 -101.283 72.8534 -96.3664 -102.705 72.8387 -96.6405 -104.037 72.3657 
-95.5471 -102.102 73.6127 -94.5685 -101.358 74.4568 -96.8082 -103.707 73.6604 
-96.7927 -105.562 73.203 -96.3008 -102.702 74.4065 -95.2912 -102.223 75.2324 
-94.2721 -101.408 75.9171 -96.9067 -105.452 74.6284 -96.8093 -107.264 74.1157 
-96.7573 -103.741 75.3633 -96.1255 -102.872 76.1148 -95.0501 -102.341 76.7115 
-94.0008 -101.606 77.2712 -96.8209 -107.251 75.6181 -96.7743 -108.673 75.0035 
-96.8232 -105.491 76.3648 -96.6285 -103.91 77.096 -95.9129 -103.159 77.5809 
-94.7296 -102.691 77.9841 -93.6456 -102.109 78.4963 -96.697 -108.714 76.5013 
-96.7517 -110.084 75.8483 -96.6946 -107.27 77.1842 -96.6566 -105.548 77.9019 
-96.3518 -104.214 78.4629 -95.4665 -103.626 78.8373 -94.2725 -103.19 79.2232 
-93.2618 -102.669 79.6386 -96.668 -110.195 77.2546 -96.7911 -111.645 76.628 
-96.6151 -108.845 77.8423 -96.5462 -107.364 78.4845 -96.3496 -105.796 79.1421 
-95.8447 -104.694 79.6825 -94.9297 -104.098 80.1038 -93.869 -103.618 80.4398 
-92.8882 -103.191 80.6894 -96.6624 -111.682 77.8364 -96.7652 -112.982 77.2677 
-96.5736 -110.359 78.3731 -96.4675 -109.067 78.9754 -96.2322 -107.649 79.6428 
[...]
CELL_DATA 2000
SCALARS Distance double
LOOKUP_TABLE default
155.518 154.872 155.102 155.065 154.391 154.554 154.541 154.822 154.959 
154.075 154.176 154.16 154.363 154.481 154.796 154.904 153.901 153.921 
153.869 154.007 154.093 154.366 154.5 154.723 154.686 153.906 153.814 
153.703 153.737 153.78 153.998 154.125 154.355 154.338 154.445 154.273 
153.996 153.872 153.72 153.642 153.612 153.715 153.77 153.962 153.889 
154.035 153.813 153.943 153.742 154.025 153.957 153.83 153.718 153.623 
153.595 153.545 153.617 153.484 153.565 153.327 153.429 153.228 153.412 
153.334 154.108 154.034 154.007 153.873 153.768 153.631 153.493 153.433 
153.284 153.263 153.09 153.074 152.937 152.989 152.95 153.111 153.143 
154.401 154.267 154.328 154.142 154.046 153.807 153.583 153.405 153.209 
153.147 153.03 152.994 152.906 152.865 152.806 152.838 152.827 152.972 
152.993 155.88 156.267 155.74 155.149 156.529 156.043 155.334 154.966 
154.526 156.619 156.173 155.341 154.987 154.422 154.329 154.093 156.757 
156.246 155.321 154.862 154.124 154.038 153.79 153.938 153.899 157.158 
156.523 155.641 154.949 154.081 153.716 153.373 153.533 153.652 153.871 
153.964 157.849 157.129 156.408 155.554 154.747 153.967 153.5 153.271 
153.415 153.636 153.937 154.047 154.112 158.663 157.958 157.388 156.557 
155.949 154.994 154.529 153.815 153.832 153.66 153.998 154.054 154.218 
154.166 154.119 159.429 158.797 158.315 157.611 157.173 156.341 155.983 
155.126 155.015 154.435 154.599 154.333 154.463 154.292 154.25 154.129 
154.109 160.137 159.555 159.134 158.527 158.179 157.529 157.26 156.545 
156.365 155.693 155.623 155.109 155.056 154.675 154.574 154.319 154.292 
154.203 154.336 160.404 160.583 160.125 159.437 160.894 160.371 159.676 
159.201 158.55 161.249 160.731 160.046 159.514 158.855 158.367 157.727 
161.544 161.086 160.422 159.9 159.197 158.685 158.012 157.542 156.896 
161.75 161.358 160.722 160.243 159.493 158.969 158.176 157.731 157.031 
156.665 156.065 161.833 161.529 160.924 160.508 159.768 159.231 158.355 
157.824 157.002 156.653 156.019 155.796 155.301 161.744 161.545 160.978 
160.661 159.98 159.503 158.682 158.07 157.231 156.694 156.047 155.721 
155.269 155.073 154.726 161.583 161.424 160.918 160.671 160.061 159.688 
158.984 158.454 157.727 157.114 156.523 155.993 155.612 155.215 154.961 
154.668 154.488 161.521 161.326 160.891 160.642 160.109 159.775 159.162 
158.744 158.121 157.632 157.087 156.59 156.2 155.753 155.513 155.117 
154.976 154.639 154.576 154.785 155.14 155.012 155.052 155.585 155.354 
155.257 155.084 154.87 156.186 155.811 155.576 155.254 154.967 154.756 
154.47 156.992 156.48 156.191 155.662 155.318 154.944 154.753 154.489 
154.283 157.955 157.372 157.111 156.442 156.067 155.471 155.24 154.895 
154.793 154.445 154.167 158.979 158.395 158.213 157.513 157.165 156.388 
156.004 155.451 155.244 154.93 154.712 154.297 153.908 159.951 159.434 
159.34 158.704 158.457 157.619 157.166 156.328 155.938 155.406 155.196 
154.815 154.553 154.061 153.724 160.767 160.361 160.323 159.821 159.676 
158.949 158.561 157.618 157.149 156.307 156.057 155.478 155.36 154.816 
154.6 154 153.756 161.428 161.109 161.103 160.724 160.637 160.091 
159.801 158.998 158.557 157.651 157.34 156.587 156.493 155.845 155.733 
155.031 154.81 154.135 153.963 154.667 154.911 154.752 154.547 154.704 
154.776 154.53 154.46 154.144 154.215 154.335 154.031 154.154 153.78 
153.841 153.518 153.852 153.802 153.366 153.475 153.098 153.28 153.016 
153.194 153.062 153.609 153.455 152.906 152.866 152.494 152.617 152.468 
152.686 152.697 152.896 152.925 153.359 153.19 152.678 152.547 152.24 
152.226 152.142 152.261 152.325 152.544 152.643 152.826 152.842 153.22 
153.009 152.622 152.46 152.266 152.177 152.123 152.102 152.092 152.196 
152.232 152.461 152.508 152.707 152.711 153.269 153.01 152.706 152.53 
152.389 152.287 152.225 152.149 152.067 152.031 151.964 152.062 152.086 
152.304 152.382 152.591 152.675 153.497 153.183 152.924 152.707 152.573 
152.432 152.329 152.223 152.102 152.022 151.93 151.909 151.912 151.991 
152.093 152.266 152.423 152.623 152.796 153.628 153.884 153.47 153.08 
154.418 153.851 153.359 153.003 152.713 155.029 154.425 153.84 153.342 
152.9 152.628 152.385 155.642 155.036 154.433 153.841 153.263 152.82 
152.419 152.255 152.079 156.332 155.697 155.102 154.444 153.789 153.199 
152.668 152.33 152.087 151.999 151.932 157.072 156.438 155.848 155.147 
154.459 153.758 153.157 152.656 152.36 152.129 152.072 151.963 151.964 
157.775 157.176 156.623 155.93 155.299 154.529 153.954 153.283 152.955 
152.534 152.45 152.22 152.224 152.077 152.126 158.426 157.864 157.369 
156.728 156.205 155.469 154.99 154.244 153.908 153.291 153.13 152.71 
152.673 152.416 152.46 152.317 152.441 159.023 158.508 158.066 157.489 
157.042 156.4 155.976 155.302 154.943 154.295 154.03 153.482 153.35 
152.96 152.974 152.731 152.851 152.703 152.859 154.151 155.213 154.55 
154.441 156.456 155.748 155.671 155.028 155.038 157.688 157.006 156.97 
156.343 156.352 155.69 155.674 159.022 158.26 158.216 157.608 157.66 
157.031 156.99 156.295 156.256 160.575 159.729 159.659 158.909 158.975 
158.334 158.371 157.656 157.594 156.89 156.91 162.059 161.32 161.283 
160.468 160.466 159.723 159.782 159.07 159.054 158.293 158.256 157.578 
157.634 163.37 162.723 162.736 162.035 161.99 161.236 161.202 160.49 
160.479 159.755 159.705 158.967 158.947 158.291 158.33 164.722 164.033 
164.042 163.393 163.379 162.678 162.602 161.88 161.824 161.135 161.098 
160.392 160.342 159.634 159.609 158.96 158.968 166.01 165.367 165.31 
164.674 164.656 164.011 163.961 163.253 163.161 162.454 162.382 161.715 
161.65 160.983 160.908 160.242 160.183 159.558 159.532 161.787 162.306 
161.854 161.49 162.827 162.362 161.911 161.49 161.017 163.229 162.796 
162.257 161.837 161.254 160.855 160.185 163.628 163.154 162.592 162.128 
161.476 161.023 160.284 159.845 159.02 164.231 163.645 163.089 162.511 
161.843 161.274 160.513 159.978 159.202 158.683 157.909 164.949 164.322 
163.708 163.061 162.344 161.706 160.92 160.298 159.538 158.978 158.288 
157.737 157.074 165.555 164.964 164.227 163.597 162.785 162.179 161.355 
160.735 159.922 159.348 158.615 158.115 157.417 156.926 156.232 165.969 
165.427 164.597 163.987 163.123 162.55 161.728 161.139 160.292 159.695 
158.875 158.369 157.604 157.152 156.386 155.957 155.236 166.196 165.727 
164.895 164.307 163.471 162.897 162.132 161.536 160.717 160.063 159.213 
158.622 157.859 157.347 156.625 156.117 155.413 154.961 154.363 162.075 
162.767 162.472 162.635 163.628 163.249 163.433 163.115 163.25 164.587 
164.146 164.299 163.965 164.124 163.727 163.736 165.568 165.08 165.149 
164.809 164.977 164.625 164.671 164.18 164.147 166.599 166.057 166.059 
165.639 165.793 165.472 165.587 165.139 165.137 164.636 164.704 167.675 
167.124 167.115 166.592 166.701 166.322 166.462 166.049 166.046 165.582 
165.629 165.252 165.406 168.689 168.198 168.183 167.651 167.681 167.254 
167.348 166.935 166.888 166.412 166.355 166.036 166.197 165.944 166.079 
169.594 169.172 169.141 168.642 168.58 168.151 168.174 167.798 167.755 
167.258 167.117 166.69 166.764 166.59 166.823 166.564 166.582 170.391 
170.04 170.022 169.544 169.418 168.953 168.888 168.539 168.528 168.12 
168.009 167.503 167.45 167.138 167.311 167.17 167.301 166.972 166.829 
170.82 171.24 170.89 170.443 171.228 171.133 170.68 170.341 169.794 
170.735 170.885 170.539 170.43 169.946 169.65 169.209 170.239 170.371 
170.178 170.197 169.874 169.733 169.38 169.153 168.822 170.069 170.108 
170.034 169.973 169.763 169.645 169.38 169.256 168.966 168.758 168.353 
169.832 170.013 170.004 169.987 169.802 169.639 169.366 169.225 168.961 
168.826 168.495 168.231 167.833 169.26 169.596 169.574 169.802 169.637 
169.654 169.369 169.243 168.93 168.789 168.491 168.333 168.051 167.817 
167.607 168.695 168.95 168.877 169.165 169.024 169.268 169.061 169.144 
168.825 168.736 168.358 168.253 167.954 167.911 167.722 167.653 167.488 
168.364 168.487 168.398 168.533 168.402 168.605 168.484 168.696 168.478 
168.524 168.125 168.047 167.644 167.655 167.399 167.51 167.293 167.342 
167.012 168.209 167.899 168.137 168.204 167.361 167.764 167.881 168.083 
168.147 166.562 167.148 167.415 167.745 167.841 168.042 168.175 165.585 
166.276 166.64 167.193 167.364 167.683 167.737 168.029 168.12 164.473 
165.2 165.485 166.234 166.417 166.994 166.999 167.423 167.376 167.781 
167.739 163.25 163.966 164.111 164.903 165.041 165.806 165.865 166.48 
166.454 166.926 166.88 167.288 167.271 162.049 162.703 162.817 163.509 
163.637 164.377 164.531 165.253 165.392 165.978 166.052 166.482 166.543 
166.924 167.04 160.972 161.558 161.707 162.313 162.468 163.099 163.278 
163.969 164.18 164.881 165.051 165.637 165.724 166.2 166.296 166.756 
166.898 160.01 160.543 160.69 161.268 161.427 162.022 162.17 162.795 
162.942 163.636 163.783 164.498 164.584 165.225 165.247 165.842 165.888 
166.484 166.549 168.095 167.714 167.877 167.753 167.248 167.406 167.205 
167.389 167.132 166.766 166.903 166.617 166.761 166.403 166.591 166.233 
166.035 166.293 165.931 166.118 165.687 165.827 165.385 165.603 165.242 
164.917 165.315 164.876 165.235 164.776 165.04 164.571 164.775 164.362 
164.609 164.225 163.704 164.088 163.641 164.031 163.593 163.979 163.55 
163.878 163.445 163.725 163.289 163.542 163.073 162.625 162.952 162.576 
162.881 162.489 162.811 162.416 162.77 162.352 162.699 162.235 162.545 
162.052 162.327 161.85 161.651 161.961 161.627 161.914 161.529 161.799 
161.38 161.675 161.251 161.574 161.131 161.445 160.982 161.278 160.834 
161.131 160.744 160.772 161.049 160.718 160.986 160.578 160.833 160.38 
160.657 160.232 160.53 160.134 160.412 160.015 160.271 159.886 160.153 
159.806 160.101 159.795 168.176 168.236 168.098 167.855 168.412 168.219 
167.994 167.767 167.469 168.569 168.403 168.168 167.951 167.644 167.387 
167.03 168.518 168.431 168.121 168.025 167.667 167.503 167.087 166.871 
166.35 168.311 168.263 167.898 167.842 167.433 167.355 166.882 166.778 
166.221 166.009 165.297 167.953 168.002 167.684 167.628 167.222 167.083 
166.573 166.45 165.889 165.764 165.093 164.838 164.074 167.355 167.539 
167.275 167.372 167.001 166.907 166.355 166.16 165.549 165.401 164.778 
164.596 163.89 163.623 162.925 166.689 166.874 166.602 166.819 166.47 
166.555 165.994 165.888 165.208 165.064 164.434 164.296 163.659 163.435 
162.754 162.511 161.901 166.162 166.255 165.958 166.12 165.782 165.916 
165.41 165.403 164.746 164.657 164.029 163.949 163.378 163.226 162.603 
162.356 161.728 161.517 160.991 165.805 165.104 165.493 165.553 164.206 
164.711 164.769 165.221 165.289 163.086 163.7 163.762 164.326 164.343 
164.854 164.842 161.801 162.479 162.532 163.201 163.227 163.806 163.74 
164.266 164.177 160.517 161.159 161.186 161.881 161.911 162.587 162.552 
163.126 163.045 163.57 163.511 159.44 159.948 159.918 160.515 160.479 
161.18 161.173 161.868 161.853 162.455 162.428 162.958 162.906 158.506 
158.933 158.806 159.284 159.167 159.764 159.759 160.466 160.532 161.223 
161.243 161.845 161.773 162.303 162.153 157.489 157.934 157.753 158.198 
158.087 158.577 158.613 159.196 159.324 159.953 160.011 160.61 160.531 
161.092 160.93 161.461 161.284 156.428 156.866 156.753 157.194 157.199 
157.646 157.768 158.244 158.392 158.888 158.925 159.42 159.322 159.835 
159.697 160.231 160.119 160.641 160.56 155.856 155.438 155.813 156.271 
155.347 155.584 156.046 156.359 156.845 155.178 155.459 155.842 156.192 
156.654 156.994 157.47 154.776 155.088 155.281 155.754 156.098 156.648 
157.076 157.557 158.003 154.341 154.603 154.701 155.067 155.314 155.872 
156.26 156.913 157.34 157.948 158.373 153.931 154.199 154.388 154.627 
154.919 155.241 155.662 156.123 156.596 157.16 157.62 158.226 158.68 
153.579 153.845 154.114 154.389 154.728 155.02 155.459 155.78 156.277 
156.632 157.139 157.564 158.073 158.583 159.086 153.368 153.58 153.841 
154.11 154.402 154.746 155.109 155.531 155.983 156.408 156.903 157.28 
157.791 158.159 158.675 159.092 159.59 153.2 153.404 153.641 153.866 
154.111 154.378 154.658 155.046 155.44 155.956 156.451 156.974 157.482 
157.923 158.406 158.79 159.257 159.639 160.088 160.231 159.394 159.92 
160.131 158.508 159.029 159.151 159.727 159.905 157.542 158.084 158.159 
158.704 158.823 159.447 159.667 156.461 157.044 157.153 157.726 157.876 
158.427 158.649 159.265 159.553 155.408 155.933 156.051 156.689 156.894 
157.508 157.733 158.323 158.592 159.207 159.49 154.629 154.983 155.044 
155.586 155.746 156.416 156.604 157.307 157.528 158.224 158.479 159.131 
159.378 154.096 154.334 154.323 154.679 154.733 155.258 155.389 156.065 
156.285 157.045 157.333 158.071 158.352 159.008 159.26 153.611 153.822 
153.74 154.004 153.97 154.343 154.434 154.954 155.199 155.854 156.204 
156.922 157.281 157.973 158.284 158.915 159.195 153.137 153.311 153.18 
153.398 153.311 153.619 153.671 154.113 154.338 154.905 155.244 155.889 
156.262 156.936 157.293 157.949 158.275 158.89 159.195 160.667 159.998 
160.654 161.29 159.279 159.982 160.652 161.304 161.958 158.511 159.236 
159.955 160.667 161.379 162.017 162.715 157.865 158.499 159.222 159.951 
160.735 161.449 162.226 162.854 163.597 157.492 157.966 158.625 159.247 
160.038 160.796 161.648 162.363 163.161 163.767 164.46 157.34 157.702 
158.26 158.708 159.397 160.105 160.981 161.767 162.594 163.274 163.963 
164.544 165.106 157.226 157.592 158.097 158.402 158.928 159.474 160.264 
161.063 161.911 162.657 163.328 163.955 164.495 165.066 165.513 156.938 
157.412 157.95 158.269 158.715 159.068 159.682 160.331 161.126 161.907 
162.601 163.276 163.811 164.403 164.855 165.394 165.751 156.48 157.011 
157.581 158.047 158.526 158.876 159.364 159.816 160.462 161.123 161.819 
162.516 163.106 163.725 164.212 164.75 165.137 165.599 165.877 161.258 
161.891 161.847 162.423 162.561 162.509 163.114 163.072 163.647 163.303 
163.208 163.835 163.793 164.392 164.288 164.781 164.132 163.976 164.549 
164.503 165.121 165.052 165.572 165.405 165.897 164.949 164.791 165.253 
165.167 165.733 165.733 166.325 166.232 166.786 166.618 167.214 165.617 
165.544 165.989 165.857 166.374 166.335 166.987 166.976 167.632 167.535 
168.155 168.002 168.547 166.053 166.116 166.638 166.584 167.141 167.063 
167.74 167.703 168.41 168.351 168.963 168.864 169.356 169.191 169.514 
166.25 166.433 166.972 167.113 167.685 167.766 168.391 168.443 169.076 
169.08 169.623 169.565 169.997 169.886 170.198 169.99 170.157 166.299 
166.52 167.001 167.271 167.778 168.051 168.552 168.81 169.294 169.507 
169.957 170.068 170.46 170.447 170.77 170.632 170.847 170.58 170.664 
161.102 162.279 161.546 161.307 163.496 162.777 162.546 161.809 161.609 
164.615 163.971 163.776 163.07 162.848 162.124 161.928 165.742 165.084 
164.941 164.277 164.071 163.348 163.087 162.391 162.171 167.055 166.304 
166.157 165.451 165.244 164.527 164.225 163.509 163.211 162.569 162.335 
168.336 167.632 167.386 166.662 166.364 165.651 165.298 164.589 164.23 
163.568 163.255 162.663 162.383 169.255 168.721 168.382 167.751 167.342 
166.68 166.265 165.596 165.188 164.53 164.131 163.516 163.13 162.588 
162.237 169.861 169.435 169.074 168.554 168.105 167.524 167.062 166.465 
166.013 165.405 164.935 164.319 163.836 163.262 162.83 162.347 162.013 
170.319 169.94 169.565 169.125 168.67 168.17 167.666 167.139 166.623 
166.094 165.581 165.03 164.523 163.946 163.491 162.95 162.605 162.151 
161.916 168.355 168.67 168.453 168.412 169.179 168.844 168.773 168.558 
168.576 169.743 169.424 169.354 169.037 169.054 168.808 168.81 170.082 
169.936 169.987 169.723 169.793 169.44 169.43 169.046 168.892 170.387 
170.268 170.462 170.327 170.471 170.201 170.142 169.724 169.469 169.021 
168.694 170.972 170.755 170.968 170.794 170.884 170.696 170.507 170.224 
169.807 169.47 168.994 168.666 168.235 171.488 171.381 171.502 171.306 
171.231 170.984 170.634 170.346 169.816 169.56 169.029 168.8 168.302 
168.065 167.599 171.466 171.618 171.621 171.611 171.406 171.221 170.805 
170.465 169.94 169.579 169.108 168.813 168.395 168.113 167.672 167.395 
166.966 170.996 171.292 171.227 171.403 171.162 171.173 170.795 170.612 
170.165 169.834 169.412 169.047 168.671 168.313 167.921 167.562 167.15 
166.831 166.461 
POINT_DATA 1002
SCALARS Distance double
LOOKUP_TABLE default
155.334 155.974 155.251 154.725 154.646 155.14 154.297 154.237 154.607 
155.134 154 153.994 154.19 154.654 154.93 153.776 153.937 153.837 
154.26 154.592 154.541 153.734 154.052 153.606 153.903 154.22 154.208 
154.075 153.838 154.104 153.595 153.644 153.77 153.685 153.551 153.606 
153.933 154.044 153.726 153.554 153.443 153.247 153.056 153.082 153.318 
154.131 154.155 153.964 153.621 153.31 153.106 152.924 152.835 152.936 
153.18 154.521 154.533 154.337 153.843 153.291 153.032 152.958 152.84 
152.747 152.804 152.997 156.42 155.554 156.83 155.75 157.01 154.702 
155.763 157.087 154.515 154.055 155.893 157.297 154.31 153.551 153.771 
156.387 157.794 154.647 153.291 153.283 153.909 157.211 158.544 155.631 
153.967 153.247 153.722 154.187 158.123 159.324 156.832 155.386 154.236 
154.019 154.26 154.214 158.945 160.02 157.882 156.807 155.759 155.056 
154.727 154.408 154.133 159.703 160.691 158.757 157.903 157.073 156.269 
155.549 154.897 154.423 154.324 160.82 159.854 161.079 160.182 161.425 
158.993 160.59 161.737 159.369 158.208 160.935 161.964 159.745 158.482 
157.35 161.181 162.111 160.054 158.684 157.367 156.382 161.3 162.093 
160.294 158.96 157.425 156.217 155.464 161.247 161.897 160.392 159.259 
157.829 156.442 155.485 154.863 161.133 161.723 160.379 159.417 158.279 
157.077 156.056 155.301 154.723 161.126 161.717 160.42 159.534 158.542 
157.548 156.644 155.91 155.334 154.875 154.95 155.216 154.997 155.518 
155.045 154.574 156.012 155.207 154.655 154.187 156.793 155.777 154.979 
154.63 154.038 157.784 156.766 155.666 155.082 154.673 153.797 158.867 
157.999 156.74 155.614 155.042 154.428 153.505 159.907 159.256 158.127 
156.639 155.568 154.982 154.256 153.415 160.761 160.308 159.471 158.094 
156.719 155.887 155.216 154.334 153.523 161.445 161.109 160.501 159.437 
158.146 157.158 156.438 155.548 154.551 153.816 154.79 154.547 154.259 
153.89 153.662 153.426 153.336 152.88 152.757 152.871 152.999 152.389 
152.22 152.435 152.791 152.781 152.26 152.077 152.136 152.412 152.733 
152.746 152.344 152.199 152.1 152.048 152.244 152.552 152.873 152.504 
152.325 152.156 151.951 151.899 152.121 152.478 153.154 152.748 152.473 
152.194 151.962 151.882 151.959 152.204 152.591 153.917 153.341 154.398 
153.816 155.043 152.925 154.419 155.627 153.289 152.493 155.064 156.238 
153.82 152.686 152.084 155.793 156.968 154.455 153.098 152.227 151.956 
156.558 157.695 155.198 153.729 152.651 152.21 152.057 157.278 158.356 
156.037 154.664 153.473 152.747 152.4 152.22 157.961 158.965 156.871 
155.71 154.597 153.658 152.991 152.634 152.531 158.601 159.505 157.638 
156.621 155.602 154.633 153.803 153.259 153.032 152.993 154.723 155.012 
155.906 156.328 157.136 155.676 157.557 158.374 157.028 156.355 158.853 
159.844 158.242 157.713 156.906 160.495 161.391 159.636 159.051 158.352 
157.527 162.081 162.71 161.28 160.487 159.81 159.002 158.241 163.383 
164.023 162.751 161.947 161.175 160.455 159.661 158.941 164.699 165.449 
164.049 163.342 162.523 161.778 161.064 160.304 159.585 165.958 166.627 
165.277 164.647 163.9 163.066 162.305 161.583 160.839 160.127 162.201 
161.92 162.8 162.37 163.314 161.447 162.707 163.669 161.697 160.622 
163.09 164.13 161.983 160.754 159.481 163.719 164.848 162.463 161.089 
159.702 158.427 164.403 165.6 163.005 161.569 160.108 158.809 157.631 
164.894 166.175 163.388 161.968 160.532 159.132 157.909 156.714 165.218 
166.518 163.685 162.301 160.921 159.427 158.071 156.836 155.612 162.31 
162.909 163.086 163.755 164.047 163.64 164.641 165.077 164.506 164.23 
165.527 166.103 165.286 165.144 164.646 166.544 167.155 166.109 165.99 
165.633 165.138 167.677 168.198 167.128 166.871 166.53 165.982 165.773 
168.723 169.15 168.152 167.767 167.41 166.731 166.359 166.464 169.647 
169.986 169.056 168.538 168.222 167.639 166.987 166.952 167.057 170.49 
170.7 169.932 169.269 168.862 168.505 167.888 167.48 167.506 167.346 