# vtk DataFile Version 4.0
vtk output
ASCII
DATASET POLYDATA
POINTS 1002 float
-80.1912 -115.167 75.8206 -79.6602 -116.23 75.3756 -79.8085 -115.84 74.4486 
-80.508 -114.758 74.8889 -80.0243 -115.387 73.5803 -80.8901 -114.04 76.2881 
-80.8732 -114.305 74.0303 -80.4373 -114.966 72.8011 -81.314 -113.558 75.4085 
-81.5962 -112.719 76.7395 -81.4208 -113.882 73.3199 -81.1614 -114.626 72.1466 
-81.7291 -113.033 74.6278 -82.1169 -112.188 75.9958 -82.3297 -111.299 77.2069 
-82.2396 -113.467 72.7106 -82.0547 -114.236 71.635 -82.3554 -112.545 73.9445 
-82.7036 -111.681 75.3231 -83.0645 -110.855 76.5623 -83.2055 -110.013 77.6554 
-83.108 -112.917 72.1603 -82.9746 -113.675 71.2247 -83.256 -112.032 73.2696 
-83.509 -111.178 74.5988 -83.8365 -110.354 75.8438 -84.042 -109.535 76.9448 
-84.0998 -108.743 78.0055 -83.9914 -112.252 71.7527 -84.0278 -113.025 70.9041 
-84.1529 -111.377 72.7069 -84.4071 -110.548 73.8636 -84.5946 -109.693 75.0322 
-84.6965 -108.785 76.0766 -84.7896 -107.992 77.1867 -84.8436 -107.296 78.2472 
-85.0838 -111.652 71.5292 -85.1923 -112.437 70.7325 -85.099 -110.72 72.3553 
-85.2454 -109.817 73.2965 -85.3475 -108.936 74.3434 -85.329 -107.952 75.2882 
-85.341 -107.078 76.2806 -85.4303 -106.426 77.4159 -85.4529 -105.83 78.4016 
-86.2648 -111.164 71.428 -86.2779 -111.93 70.7058 -86.2247 -110.231 72.1378 
-86.2054 -109.225 72.8666 -86.2031 -108.274 73.7719 -86.1743 -107.288 74.7074 
-86.1313 -106.364 75.579 -86.1238 -105.691 76.5841 -86.1096 -105.132 77.6358 
-86.0092 -104.554 78.5011 -87.3417 -110.674 71.3748 -87.2571 -111.423 70.7315 
-87.3544 -109.816 72.0077 -87.2889 -108.808 72.5685 -87.1848 -107.784 73.2419 
-87.1177 -106.792 74.1046 -87.1021 -105.872 74.999 -87.0605 -105.18 75.9264 
-86.9466 -104.647 76.92 -86.7722 -104.075 77.8321 -86.56 -103.501 78.594 
-79.3391 -117.13 74.4248 -79.388 -116.652 73.4937 -79.0535 -118.095 73.6692 
-79.0825 -117.477 72.6299 -78.7702 -118.996 73.0676 -79.4711 -116.049 72.533 
-78.9032 -118.259 71.6007 -78.5217 -119.811 72.2745 -78.93 -116.627 71.2097 
-79.7899 -115.513 71.5298 -78.8427 -119.164 70.3702 -78.4359 -120.683 71.2666 
-78.5805 -117.307 69.5773 -78.9802 -115.947 69.7753 -80.5416 -115.155 70.7892 
-78.9009 -120.244 69.5522 -78.5679 -121.563 70.5755 -78.7438 -118.406 68.5075 
-78.7011 -116.71 68.2597 -79.9157 -115.669 69.261 -81.7019 -114.804 70.4898 
-79.1679 -121.155 69.5305 -79.0307 -122.236 70.4956 -79.3622 -119.608 68.6989 
-79.5007 -117.909 68.1971 -80.2418 -116.564 68.5675 -81.7181 -115.453 69.5331 
-83.0798 -114.267 70.3147 -79.9187 -121.75 69.92 -79.992 -122.69 70.784 
-80.1902 -120.403 69.4838 -80.7559 -118.882 69.2238 -81.491 -117.569 69.0167 
-82.4765 -116.33 69.1726 -83.5364 -114.956 69.5875 -84.4207 -113.618 70.0904 
-81.1514 -122.194 70.3227 -81.2742 -123.011 71.1624 -81.2524 -120.918 70.022 
-81.8413 -119.43 70.0156 -82.6991 -118.211 69.5708 -83.4749 -117.141 68.9665 
-84.1606 -115.814 68.9273 -84.8461 -114.35 69.3719 -85.5536 -113.048 70.0054 
-82.4502 -122.534 70.6919 -82.4905 -123.221 71.5271 -82.4565 -121.38 70.2803 
-82.8298 -119.931 70.2384 -83.5838 -118.709 69.6989 -84.2961 -117.777 68.5817 
-84.7746 -116.691 68.0855 -85.2363 -115.318 68.5976 -85.8337 -113.892 69.4027 
-86.5359 -112.58 70.1027 -83.5913 -122.987 71.3416 -83.6197 -122.057 70.6307 
-84.717 -122.548 71.2232 -84.8776 -121.421 70.6057 -85.9877 -121.944 71.1704 
-83.8116 -120.725 70.3222 -86.3264 -120.877 70.5211 -87.3906 -121.311 71.15 
-85.3104 -120.255 70.079 -84.3838 -119.453 69.8129 -87.8492 -120.375 70.4892 
-88.8028 -120.614 71.1825 -86.8435 -119.944 69.7976 -85.9204 -119.278 69.0076 
-85.0699 -118.474 68.4747 -89.2586 -119.549 70.6567 -90.1142 -119.676 71.3477 
-88.1895 -119.249 69.9617 -87.1828 -118.777 68.9597 -86.3275 -118.171 67.8151 
-85.4997 -117.446 67.4728 -90.4707 -118.298 71.0487 -91.1847 -118.437 71.7488 
-89.4577 -118.039 70.4271 -88.2884 -117.632 69.77 -87.3646 -117.28 68.7698 
-86.5899 -116.871 67.9261 -85.8301 -116.166 67.9609 -91.5091 -116.899 71.632 
-92.1301 -117.133 72.253 -90.802 -116.694 70.9408 -89.7681 -116.38 70.4222 
-88.6558 -116.1 69.9679 -87.7889 -115.932 69.394 -87.0276 -115.502 69.0121 
-86.3385 -114.694 69.0731 -92.5917 -115.706 72.1063 -93.2585 -116.093 72.518 
-92.0953 -115.454 71.4851 -91.5007 -115.249 70.8125 -90.5002 -115 70.3627 
-89.3744 -114.764 70.1207 -88.4629 -114.439 69.9164 -87.6943 -113.828 69.794 
-87.0407 -113.109 69.8585 -93.8337 -114.835 72.2148 -94.5403 -115.339 72.4845 
-93.2854 -114.4 71.8344 -92.928 -114.11 71.2255 -92.3165 -113.844 70.5759 
-91.2293 -113.458 70.2218 -90.1157 -112.975 70.1505 -89.2562 -112.452 70.1481 
-88.5069 -111.958 70.2084 -87.8267 -111.609 70.4117 -88.3873 -110.306 71.1235 
-89.1814 -110.259 70.7805 -89.6723 -109.023 71.5217 -90.0308 -110.35 70.5667 
-90.658 -108.835 71.226 -90.8625 -107.749 71.7474 -90.8443 -110.72 70.4679 
-91.5764 -108.831 71.0893 -91.8422 -107.629 71.4459 -91.7054 -106.506 71.46 
-91.8155 -111.378 70.3622 -92.4457 -109.248 70.9188 -92.8105 -107.689 71.2655 
-92.6193 -106.412 71.0341 -92.4111 -105.17 70.9154 -92.9558 -112.083 70.4516 
-93.4886 -110.046 70.6165 -93.9566 -108.167 70.8594 -93.9174 -106.413 70.7251 
-93.521 -104.877 70.5028 -93.3544 -103.849 70.8834 -93.7352 -112.583 70.9858 
-94.4132 -110.795 70.7176 -95.1083 -108.966 70.4945 -95.489 -106.918 70.3387 
-95.2311 -104.837 70.2947 -94.7666 -103.475 70.6023 -94.4333 -102.795 71.3955 
-94.1217 -113.011 71.6148 -94.9114 -111.34 71.3297 -95.7763 -109.644 70.9054 
-96.5528 -107.797 70.4752 -96.7565 -105.575 70.3586 -96.4327 -103.69 70.624 
-95.9406 -102.661 71.1902 -95.4141 -102 71.9508 -94.6405 -113.594 71.9702 
-95.3777 -111.988 71.8336 -96.1384 -110.234 71.708 -96.9304 -108.564 71.3686 
-97.4098 -106.684 71.0439 -97.4685 -104.668 71.0905 -97.2725 -103.156 71.4416 
-96.8449 -102.187 71.9301 -96.26 -101.355 72.4846 -95.3513 -114.248 72.2102 
-96.0248 -112.799 72.1003 -96.5993 -111.035 72.2124 -97.1904 -109.307 72.2107 
-97.6434 -107.644 71.9646 -97.8699 -105.816 71.8647 -98.007 -104.083 72.0835 
-97.9374 -102.781 72.4165 -97.511 -101.781 72.7675 -96.9009 -100.899 73.167 
-88.4643 -109.501 71.7821 -89.6418 -108.139 72.1214 -88.4285 -108.534 72.3512 
-90.6964 -106.676 72.1245 -89.4832 -106.991 72.6006 -88.2738 -107.408 72.841 
-91.5923 -105.263 71.6995 -90.4847 -105.347 72.5334 -89.1796 -105.74 73.0113 
-88.0661 -106.297 73.4663 -92.5117 -104.059 71.5237 -91.535 -104.027 72.3779 
-90.1062 -104.154 73.0436 -88.8305 -104.669 73.6048 -87.9644 -105.316 74.3314 
-93.4201 -103.018 71.9927 -92.5302 -103.083 72.7171 -91.2123 -103.071 73.3221 
-89.712 -103.323 73.8837 -88.7077 -103.91 74.634 -87.9622 -104.593 75.3868 
-94.2262 -101.978 72.5245 -93.2258 -102.058 73.2601 -92.1627 -102.159 73.8649 
-90.8232 -102.351 74.4085 -89.6047 -102.758 75.1447 -88.7226 -103.397 75.9252 
-87.8654 -104.072 76.4906 -95.0624 -101.006 72.8303 -93.8726 -100.884 73.4741 
-92.7818 -101.017 74.1541 -91.6951 -101.325 74.7841 -90.5774 -101.72 75.5554 
-89.53 -102.238 76.4073 -88.561 -102.881 77.0438 -87.6215 -103.507 77.4571 
-95.8854 -100.328 73.2503 -94.7186 -99.9671 73.6386 -93.4863 -99.9504 74.2621 
-92.3192 -100.246 74.9677 -91.2669 -100.674 75.755 -90.241 -101.139 76.6353 
-89.2036 -101.683 77.3977 -88.2156 -102.291 77.9003 -87.3231 -102.893 78.2565 
-96.7755 -100.239 74.039 -95.8306 -99.6146 74.1611 -96.568 -99.7817 75.2943 
-95.6504 -99.2065 75.5862 -96.3388 -99.4824 76.9755 -94.6342 -99.3061 74.6023 
-95.3175 -99.0133 77.4827 -96.0959 -99.2555 78.8194 -94.4143 -99.036 76.2175 
-93.2635 -99.4164 75.3355 -94.9867 -98.9761 79.4313 -95.7758 -99.227 80.5648 
-94.1452 -99.0592 78.2188 -93.0376 -99.2941 77.0695 -91.9595 -99.7993 76.1694 
-94.7009 -99.1701 81.2126 -95.3756 -99.4829 82.1856 -93.9451 -99.2938 80.0482 
-92.8894 -99.4878 78.9599 -91.6406 -99.7008 77.8688 -90.7755 -100.242 77.0186 
-94.3059 -99.5496 82.8135 -94.9496 -99.9413 83.5619 -93.5733 -99.6134 81.6955 
-92.5665 -99.7461 80.6032 -91.2611 -99.7963 79.6189 -90.1905 -100.05 78.5909 
-89.619 -100.715 77.823 -93.7835 -100.089 84.0493 -94.4714 -100.546 84.601 
-92.9632 -100.002 83.1917 -91.8783 -99.9406 82.1664 -90.5832 -99.8121 81.2328 
-89.4914 -99.9447 80.2517 -88.8865 -100.46 79.2151 -88.5472 -101.279 78.4311 
-93.233 -100.785 84.9517 -93.9272 -101.244 85.4796 -92.3863 -100.601 84.3037 
-91.2375 -100.359 83.5275 -89.8924 -99.9586 82.6939 -88.7932 -99.883 81.7806 
-88.1934 -100.341 80.7027 -87.8835 -101.056 79.6413 -87.6078 -101.916 78.8352 
-92.7121 -101.531 85.7621 -93.3936 -101.961 86.2918 -91.9127 -101.327 85.1382 
-90.8624 -101.08 84.5047 -89.5825 -100.585 83.8363 -88.4323 -100.225 83.0318 
-87.7208 -100.447 82.0403 -87.3374 -101.066 80.9439 -87.0425 -101.779 79.9358 
-86.7784 -102.593 79.161 -97.6791 -101.214 73.812 -97.3526 -100.719 74.8536 
-98.155 -101.84 74.5559 -97.6023 -101.543 75.6675 -98.1597 -102.912 75.2371 
-97.0644 -100.355 76.3252 -97.4773 -102.796 76.4342 -97.6985 -104.465 76.0755 
-97.3766 -101.189 77.2999 -97.0133 -100.021 78.1265 -97.2556 -104.413 77.4356 
-97.3625 -106.02 77.1838 -97.4233 -102.396 78.2334 -97.5083 -100.834 79.1343 
-96.8939 -99.8329 79.8635 -97.6123 -105.803 78.5883 -97.7565 -106.948 78.2217 
-97.5484 -103.956 79.2588 -97.5546 -102.107 80.0154 -97.263 -100.856 80.6813 
-96.4186 -99.9894 81.4317 -98.4868 -106.523 79.5749 -98.5425 -107.526 79.1301 
-98.197 -105.283 80.181 -97.6718 -103.722 80.8429 -97.1686 -102.309 81.4414 
-96.6446 -101.24 82.1241 -95.8909 -100.401 82.9272 -99.0475 -107.212 80.4969 
-99.0658 -108.569 80.1393 -98.7981 -106.146 80.917 -98.1345 -105.11 81.5033 
-97.3234 -103.861 82.2194 -96.7556 -102.642 82.934 -96.2668 -101.674 83.6145 
-95.4878 -100.932 84.2127 -99.0527 -108.551 81.4136 -99.1813 -110.118 81.0916 
-98.7711 -107.223 81.6497 -98.2867 -106.263 82.0533 -97.6442 -105.247 82.8173 
-97.0615 -103.981 83.7106 -96.6077 -102.905 84.4037 -95.97 -102.147 84.8979 
-94.9991 -101.554 85.2703 -98.8071 -110.202 82.0816 -98.9976 -111.563 81.6863 
-98.4266 -108.781 82.3231 -97.9927 -107.623 82.6255 -97.6114 -106.634 83.2816 
[...]
CELL_DATA 2000
SCALARS Distance double
LOOKUP_TABLE default
158.488 157.872 158.198 158.237 157.33 157.615 157.68 157.976 157.968 
156.999 157.163 157.203 157.434 157.453 157.692 157.621 156.87 156.933 
156.918 157.024 157.036 157.234 157.261 157.408 157.358 156.751 156.799 
156.732 156.787 156.76 156.903 156.947 157.107 157.102 157.205 157.134 
156.632 156.634 156.521 156.571 156.505 156.638 156.604 156.77 156.661 
156.833 156.675 156.873 156.717 156.676 156.571 156.437 156.385 156.274 
156.343 156.243 156.37 156.16 156.284 156.018 156.236 156.049 156.331 
156.161 156.875 156.717 156.597 156.422 156.263 156.167 156.019 156.026 
155.834 155.841 155.592 155.644 155.485 155.67 155.593 155.802 155.668 
157.086 156.948 156.847 156.654 156.467 156.251 156.032 155.895 155.698 
155.629 155.442 155.397 155.28 155.314 155.297 155.39 155.354 155.423 
155.303 158.603 158.673 158.368 157.927 158.849 158.439 157.833 157.625 
157.285 158.982 158.55 157.711 157.403 156.872 156.962 156.843 159.109 
158.631 157.618 157.128 156.297 156.349 156.197 156.601 156.694 159.464 
158.878 157.955 157.172 156.229 155.843 155.615 155.918 156.207 156.581 
156.709 160.108 159.449 158.817 157.91 157.23 156.332 156.134 155.804 
156.194 156.296 156.657 156.697 156.738 160.984 160.282 159.866 159.06 
158.712 157.788 157.686 156.929 157.188 156.782 157.109 156.88 156.993 
156.811 156.81 162.017 161.298 160.952 160.223 159.979 159.274 159.167 
158.503 158.503 157.945 157.966 157.535 157.501 157.187 157.15 156.956 
156.98 163.027 162.373 162.036 161.335 161.042 160.416 160.22 159.676 
159.486 158.977 158.755 158.301 158.116 157.746 157.651 157.368 157.357 
157.164 157.197 163.434 163.67 163.206 162.462 163.852 163.396 162.66 
162.19 161.472 164.106 163.618 162.929 162.427 161.743 161.258 160.633 
164.42 163.952 163.328 162.794 162.115 161.566 160.858 160.409 159.807 
164.614 164.254 163.639 163.182 162.457 161.926 161.121 160.604 159.865 
159.517 158.973 164.579 164.338 163.694 163.355 162.591 162.15 161.356 
160.858 160.143 159.667 159.11 158.765 158.36 164.416 164.213 163.611 
163.333 162.657 162.253 161.577 161.119 160.566 160.087 159.632 159.131 
158.724 158.297 157.958 164.349 164.084 163.571 163.301 162.792 162.425 
161.885 161.44 160.94 160.524 160.086 159.673 159.211 158.763 158.317 
157.938 157.62 164.463 164.126 163.636 163.347 162.91 162.624 162.157 
161.785 161.228 160.829 160.249 159.923 159.359 159.061 158.526 158.23 
157.822 157.591 157.362 157.321 157.685 157.413 157.324 158.258 157.826 
157.658 157.427 157.316 159.012 158.446 158.186 157.83 157.685 157.401 
157.109 159.949 159.275 158.969 158.446 158.251 157.845 157.492 157.04 
156.518 161.023 160.323 160.024 159.343 159.098 158.527 158.146 157.516 
156.911 156.365 155.916 161.984 161.407 161.126 160.442 160.155 159.49 
159.137 158.363 157.788 156.967 156.466 155.961 155.819 162.744 162.286 
162.044 161.461 161.176 160.554 160.264 159.512 159.064 158.116 157.635 
156.808 156.608 156.125 156.138 163.514 163.06 162.906 162.348 162.12 
161.531 161.308 160.663 160.348 159.502 159.086 158.169 157.906 157.173 
157.127 156.576 156.555 164.387 163.928 163.863 163.295 163.128 162.51 
162.317 161.704 161.463 160.752 160.406 159.587 159.294 158.53 158.416 
157.746 157.699 157.061 156.985 157.157 157.165 157.09 156.919 157.099 
157.052 156.832 156.773 156.515 156.776 156.851 156.546 156.574 156.26 
156.259 155.993 156.16 156.349 156.016 156.138 155.774 155.867 155.577 
155.703 155.544 155.689 155.781 155.578 155.624 155.296 155.324 155.023 
155.182 155.065 155.301 155.267 155.66 155.576 155.524 155.434 155.239 
155.054 154.78 154.721 154.651 154.835 154.937 155.134 155.19 155.847 
155.675 155.56 155.494 155.348 155.183 154.954 154.736 154.646 154.62 
154.774 154.908 155.086 155.171 155.243 156.077 155.806 155.49 155.416 
155.175 155.173 154.953 154.899 154.763 154.728 154.777 154.849 154.987 
155.089 155.157 155.225 155.243 156.417 156.014 155.583 155.33 155.012 
154.93 154.721 154.745 154.63 154.702 154.679 154.788 154.818 154.944 
154.952 155.063 155.034 155.146 155.137 156.526 156.534 156.189 155.65 
156.857 156.332 155.729 155.392 155.006 157.422 156.795 156.19 155.649 
155.172 154.866 154.662 158.096 157.448 156.916 156.285 155.82 155.249 
154.915 154.634 154.577 158.848 158.201 157.763 157.128 156.74 156.065 
155.647 155.069 154.819 154.607 154.637 159.618 159.007 158.595 157.999 
157.596 156.973 156.48 155.83 155.362 154.929 154.747 154.666 154.738 
160.301 159.753 159.313 158.767 158.264 157.688 157.071 156.486 155.874 
155.4 155.018 154.798 154.721 154.742 154.83 160.902 160.384 159.941 
159.418 158.893 158.285 157.6 156.961 156.293 155.791 155.359 155.059 
154.889 154.772 154.782 154.82 154.913 161.483 160.971 160.543 160.03 
159.56 158.946 158.328 157.59 156.944 156.286 155.867 155.441 155.276 
155.024 154.987 154.863 154.91 154.922 155.034 157.168 158.187 157.485 
157.187 159.221 158.531 158.273 157.632 157.504 160.287 159.581 159.383 
158.766 158.721 158.1 158.08 161.559 160.772 160.618 159.936 159.964 
159.366 159.404 158.739 158.729 162.999 162.228 162.153 161.331 161.32 
160.634 160.681 160.049 160.037 159.382 159.397 164.352 163.71 163.754 
162.968 162.902 162.075 162.012 161.303 161.291 160.657 160.669 160.063 
160.126 165.673 165.028 165.07 164.438 164.38 163.63 163.491 162.699 
162.639 161.941 161.997 161.359 161.423 160.796 160.837 167.11 166.361 
166.257 165.611 165.512 164.912 164.806 164.135 164.053 163.35 163.378 
162.723 162.802 162.14 162.153 161.477 161.459 168.412 167.725 167.487 
166.768 166.559 165.948 165.863 165.321 165.292 164.695 164.671 164.057 
164.068 163.468 163.46 162.807 162.744 162.072 162.026 164.895 165.46 
164.939 164.367 165.867 165.412 164.815 164.291 163.619 166.269 165.782 
165.202 164.69 164.018 163.472 162.787 166.875 166.283 165.737 165.143 
164.49 163.878 163.141 162.596 161.885 167.524 166.925 166.331 165.735 
165.046 164.396 163.578 162.936 162.104 161.598 160.83 167.977 167.42 
166.625 166.135 165.321 164.829 163.952 163.352 162.451 161.846 161.041 
160.532 159.815 168.298 167.718 166.733 166.197 165.24 164.855 163.992 
163.583 162.733 162.203 161.411 160.856 160.168 159.636 159.001 168.566 
167.996 167 166.316 165.321 164.782 163.971 163.567 162.822 162.399 
161.645 161.189 160.482 160.017 159.355 158.871 158.239 168.69 168.239 
167.345 166.675 165.753 165.082 164.327 163.755 163.069 162.539 161.801 
161.331 160.604 160.212 159.535 159.144 158.485 158.065 157.45 165.284 
166.072 165.765 165.896 166.885 166.564 166.707 166.346 166.364 167.688 
167.365 167.527 167.189 167.273 166.809 166.799 168.494 168.14 168.3 
168.011 168.178 167.778 167.84 167.326 167.388 169.447 168.984 169.072 
168.743 168.913 168.638 168.78 168.383 168.481 168.001 168.087 170.54 
170.024 170.019 169.53 169.563 169.275 169.427 169.207 169.373 169.044 
169.171 168.694 168.689 171.493 171.097 171.069 170.506 170.383 169.929 
169.987 169.773 169.978 169.797 169.953 169.656 169.698 169.208 169.076 
172.15 171.919 171.933 171.479 171.307 170.773 170.708 170.376 170.529 
170.345 170.46 170.249 170.232 169.979 169.888 169.476 169.267 172.603 
172.461 172.505 172.21 172.066 171.617 171.474 171.098 171.133 170.896 
170.917 170.665 170.514 170.291 170.125 169.975 169.833 169.537 169.287 
172.845 173.018 172.897 172.699 172.903 172.917 172.705 172.609 172.271 
172.608 172.683 172.497 172.507 172.245 172.106 171.757 172.377 172.408 
172.264 172.277 172.099 172.057 171.837 171.676 171.427 172.238 172.255 
172.126 172.102 171.912 171.895 171.683 171.667 171.423 171.344 171.071 
171.946 172.053 171.86 171.916 171.654 171.674 171.389 171.415 171.106 
171.13 170.782 170.803 170.497 171.383 171.584 171.305 171.475 171.189 
171.313 171.039 171.095 170.797 170.782 170.445 170.421 170.14 170.195 
170.046 170.663 170.913 170.667 170.859 170.652 170.812 170.646 170.749 
170.545 170.537 170.259 170.182 169.933 169.915 169.8 169.876 169.812 
169.939 170.216 170.107 170.309 170.227 170.378 170.31 170.417 170.28 
170.305 170.05 170.012 169.73 169.728 169.534 169.624 169.485 169.598 
169.368 169.55 169.206 169.519 169.799 168.812 169.165 169.45 169.772 
169.998 168.221 168.645 168.902 169.353 169.625 169.948 170.109 167.493 
167.967 168.201 168.71 169.01 169.474 169.668 169.98 170.044 166.597 
167.177 167.432 167.981 168.287 168.807 169.025 169.422 169.466 169.776 
169.757 165.542 166.194 166.438 167.096 167.362 168.004 168.214 168.715 
168.738 169.093 169.047 169.402 169.413 164.516 165.129 165.32 165.977 
166.156 166.884 167.057 167.744 167.77 168.263 168.169 168.598 168.617 
169.077 169.199 163.538 164.122 164.288 164.872 164.996 165.623 165.747 
166.453 166.52 167.15 167.068 167.594 167.551 168.145 168.296 168.89 
169.086 162.541 163.118 163.275 163.86 163.982 164.533 164.611 165.198 
165.269 165.886 165.884 166.437 166.387 166.975 167.063 167.789 168.004 
168.706 168.876 169.286 168.853 169.006 168.957 168.738 168.719 168.663 
168.748 168.644 168.762 168.714 168.586 168.554 168.382 168.386 168.129 
168.332 168.532 168.267 168.371 168.061 168.104 167.731 167.75 167.367 
167.292 167.705 167.311 167.674 167.26 167.544 167.075 167.218 166.692 
166.821 166.366 166.12 166.504 166.065 166.459 166.04 166.478 166.061 
166.375 165.83 166.004 165.453 165.686 165.264 165.084 165.41 165.011 
165.281 164.876 165.239 164.904 165.287 164.857 165.087 164.547 164.739 
164.289 164.581 164.245 164.1 164.445 164.116 164.356 163.951 164.2 
163.836 164.175 163.797 164.094 163.604 163.827 163.35 163.62 163.257 
163.591 163.278 163.169 163.502 163.222 163.492 163.104 163.324 162.907 
163.17 162.758 163.045 162.571 162.833 162.35 162.645 162.255 162.598 
162.273 162.62 162.304 169.528 169.918 169.435 169.04 170.47 169.909 
169.411 169.026 168.857 170.792 170.431 169.905 169.447 169.14 168.936 
168.865 170.565 170.557 170.128 169.838 169.377 169.137 168.876 168.808 
168.506 170.005 170.164 169.906 169.878 169.427 169.215 168.735 168.635 
168.204 168.143 167.556 169.56 169.641 169.474 169.58 169.296 169.17 
168.638 168.414 167.84 167.73 167.158 167.045 166.398 169.272 169.285 
169.066 169.175 168.957 168.972 168.507 168.299 167.642 167.407 166.768 
166.629 166.018 165.9 165.297 168.891 168.961 168.656 168.749 168.429 
168.529 168.059 168.022 167.358 167.186 166.481 166.297 165.642 165.503 
164.889 164.802 164.245 168.346 168.485 168.153 168.255 167.844 167.926 
167.401 167.434 166.796 166.757 166.093 165.989 165.351 165.189 164.57 
164.411 163.847 163.768 163.291 167.9 167.063 167.576 167.689 166.006 
166.625 166.725 167.277 167.33 164.78 165.466 165.565 166.206 166.235 
166.807 166.796 163.523 164.205 164.316 164.991 165.038 165.642 165.604 
166.186 166.153 162.412 163.008 163.12 163.746 163.811 164.429 164.425 
164.996 164.97 165.545 165.524 161.534 162.019 162.112 162.616 162.634 
163.203 163.215 163.818 163.838 164.419 164.42 164.951 164.882 160.758 
161.203 161.256 161.68 161.643 162.093 162.069 162.622 162.673 163.286 
163.325 163.879 163.806 164.279 164.13 159.946 160.389 160.412 160.834 
160.813 161.198 161.184 161.605 161.654 162.169 162.23 162.774 162.73 
163.209 163.062 163.511 163.388 159.18 159.572 159.611 160.009 160.052 
160.435 160.5 160.864 160.927 161.295 161.309 161.729 161.679 162.136 
162.032 162.479 162.387 162.847 162.829 158.841 158.559 158.874 159.252 
158.243 158.573 158.922 159.286 159.689 157.812 158.157 158.486 158.92 
159.358 159.763 160.192 157.432 157.674 157.897 158.364 158.794 159.354 
159.82 160.253 160.624 157.186 157.331 157.397 157.721 157.995 158.601 
159.011 159.67 160.028 160.548 160.866 156.86 157.068 157.093 157.277 
157.398 157.793 158.094 158.707 159.074 159.736 160.102 160.711 161.104 
156.336 156.649 156.736 156.972 157.118 157.362 157.666 158.005 158.43 
158.887 159.379 159.932 160.446 161.009 161.48 155.764 156.074 156.18 
156.529 156.762 157.116 157.512 157.82 158.296 158.568 159.089 159.443 
160.02 160.47 161.023 161.469 161.929 155.314 155.53 155.607 155.947 
156.201 156.667 157.109 157.601 158.088 158.476 158.915 159.255 159.729 
160.14 160.672 161.105 161.606 161.983 162.423 162.623 161.771 162.347 
162.614 160.788 161.386 161.582 162.234 162.454 159.799 160.326 160.438 
161.096 161.303 162.008 162.242 158.942 159.353 159.374 159.933 160.116 
160.828 161.093 161.801 162.054 158.067 158.482 158.417 158.898 159.014 
159.673 159.932 160.641 160.872 161.577 161.808 157.022 157.493 157.379 
157.888 157.915 158.559 158.767 159.481 159.7 160.383 160.595 161.316 
161.596 156.042 156.421 156.305 156.792 156.777 157.39 157.524 158.256 
158.489 159.218 159.479 160.174 160.5 161.202 161.567 155.412 155.592 
155.485 155.819 155.808 156.279 156.353 156.985 157.204 157.975 158.331 
159.106 159.512 160.213 160.611 161.263 161.627 155.133 155.154 155.043 
155.193 155.185 155.466 155.521 155.938 156.119 156.753 157.159 157.966 
158.489 159.261 159.714 160.364 160.724 161.334 161.665 163.412 162.468 
163.209 163.73 161.502 162.266 162.891 163.614 164.231 160.657 161.348 
162.015 162.794 163.5 164.213 164.872 160.012 160.545 161.086 161.864 
162.582 163.438 164.143 164.864 165.512 159.658 159.975 160.289 160.865 
161.448 162.386 163.161 164.062 164.774 165.503 166.172 159.537 159.737 
159.937 160.173 160.566 161.265 162.075 163.033 163.896 164.736 165.471 
166.179 166.801 159.402 159.659 159.935 160.013 160.323 160.641 161.369 
162.104 163.058 163.892 164.722 165.461 166.116 166.748 167.227 159.198 
159.517 159.94 160.1 160.473 160.617 161.204 161.638 162.483 163.168 
164.005 164.725 165.413 166.064 166.6 167.13 167.52 159.059 159.348 
159.844 160.116 160.587 160.784 161.286 161.562 162.202 162.69 163.414 
164.045 164.729 165.377 165.969 166.541 167.016 167.466 167.837 164.044 
164.37 164.48 165.058 164.884 164.907 165.55 165.592 166.236 165.532 
165.525 166.231 166.233 166.965 166.927 167.626 166.174 166.186 166.884 
166.935 167.673 167.7 168.406 168.37 169.024 166.85 166.844 167.519 
167.549 168.226 168.298 168.961 169.042 169.688 169.707 170.265 167.447 
167.502 168.184 168.208 168.897 168.885 169.57 169.574 170.273 170.307 
170.934 170.873 171.271 167.768 167.936 168.56 168.753 169.464 169.583 
170.322 170.32 171.052 171 171.666 171.565 172.006 171.772 171.948 
167.969 168.12 168.648 168.92 169.563 169.914 170.61 170.899 171.538 
171.693 172.236 172.26 172.635 172.482 172.635 172.333 172.372 168.246 
168.323 168.802 168.976 169.541 169.857 170.458 170.86 171.382 171.772 
172.177 172.485 172.776 172.902 173.037 172.923 172.937 172.687 172.7 
164.057 165.068 164.503 164.345 166.196 165.561 165.453 164.801 164.582 
167.51 166.771 166.659 165.975 165.797 165.056 164.814 168.891 168.121 
167.932 167.208 167.004 166.276 165.985 165.264 165.024 170.129 169.437 
169.172 168.437 168.128 167.418 167.069 166.364 166.025 165.407 165.162 
171.049 170.514 170.205 169.555 169.16 168.468 168.074 167.385 167.018 
166.364 166.045 165.463 165.154 171.643 171.245 170.927 170.422 170.017 
169.406 168.983 168.343 167.966 167.33 166.978 166.347 165.983 165.373 
165 172.09 171.747 171.483 171.061 170.721 170.182 169.752 169.164 
168.737 168.179 167.792 167.227 166.837 166.224 165.841 165.227 164.908 
172.489 172.195 171.998 171.63 171.355 170.869 170.449 169.871 169.384 
168.839 168.412 167.924 167.555 167.033 166.687 166.107 165.814 165.228 
165.007 169.966 170.828 170.408 170.452 171.586 171.281 171.372 170.963 
170.99 172.052 171.893 171.919 171.703 171.649 171.345 171.187 172.294 
172.215 172.205 172.068 171.964 171.761 171.506 171.235 170.85 172.504 
172.439 172.534 172.379 172.364 172.086 171.877 171.5 171.105 170.725 
170.281 172.783 172.711 172.866 172.754 172.788 172.552 172.381 171.984 
171.631 171.128 170.705 170.238 169.881 173.053 173.008 173.097 173.027 
172.955 172.827 172.557 172.346 171.948 171.63 171.184 170.762 170.339 
169.925 169.592 173.127 173.176 173.212 173.178 173.054 172.9 172.583 
172.367 171.952 171.744 171.3 171.059 170.579 170.282 169.816 169.539 
169.151 172.919 173.08 173.111 173.194 173.135 173.028 172.804 172.512 
172.175 171.831 171.442 171.12 170.657 170.358 169.843 169.598 169.124 
168.953 168.554 
POINT_DATA 1002
SCALARS Distance double
LOOKUP_TABLE default
158.509 158.802 158.157 157.932 157.531 158.274 157.388 157.074 157.726 
157.91 157.033 156.897 157.195 157.445 157.514 156.877 156.843 156.85 
157.07 157.273 157.292 156.684 156.733 156.643 156.796 156.984 157.056 
157.059 156.491 156.679 156.394 156.485 156.54 156.465 156.51 156.587 
156.55 156.807 156.277 156.159 156.093 155.853 155.74 155.901 156 
156.801 157.024 156.447 156.07 155.833 155.582 155.346 155.375 155.509 
155.498 157.025 157.215 156.72 156.241 155.79 155.479 155.271 155.228 
155.293 155.266 155.148 158.854 158.096 159.072 158.154 159.324 157.253 
158.178 159.449 156.806 156.564 158.274 159.61 156.407 155.685 156.349 
158.755 160.032 156.841 155.443 155.726 156.556 159.564 160.732 158.135 
156.714 156.25 156.614 156.808 160.552 161.671 159.485 158.52 157.829 
157.493 157.227 156.951 161.672 162.711 160.636 159.822 159.166 158.52 
157.893 157.39 157.114 162.738 163.634 161.701 160.796 160.047 159.252 
158.497 157.963 157.605 157.358 163.933 162.948 164.13 163.111 164.317 
161.924 163.429 164.577 162.249 161.06 163.853 164.833 162.707 161.394 
160.127 164.08 164.932 162.989 161.679 160.294 159.176 164.007 164.801 
163 161.788 160.606 159.533 158.625 163.835 164.616 162.998 161.979 
160.971 160.129 159.241 158.312 163.804 164.631 163.077 162.307 161.377 
160.479 159.656 158.745 157.902 163.945 164.816 163.164 162.493 161.677 
160.637 159.64 158.79 158.052 157.518 157.235 157.494 157.249 157.941 
157.547 157.157 158.616 158.01 157.504 156.671 159.58 158.721 158.027 
156.949 155.938 160.762 159.739 158.841 157.576 156.214 155.602 161.789 
160.834 159.9 158.679 157.118 156.075 155.786 162.582 161.766 160.934 
159.964 158.557 157.236 156.518 156.114 163.439 162.702 161.899 161.096 
159.989 158.717 157.767 157.098 156.458 164.405 163.751 162.936 162.121 
161.174 160.06 159.109 158.373 157.628 156.873 157.017 156.897 156.588 
156.505 156.243 155.954 155.877 155.674 155.412 155.371 155.532 155.329 
154.893 154.77 155.059 155.598 155.447 154.947 154.508 154.681 155.078 
155.646 155.441 155.162 154.76 154.676 154.972 155.212 155.663 155.167 
154.922 154.78 154.756 154.905 155.088 155.176 155.925 155.166 154.707 
154.539 154.576 154.71 154.844 154.93 155.002 156.782 155.864 156.959 
156.176 157.44 155.15 156.774 158.056 155.625 154.747 157.519 158.718 
156.462 155.381 154.622 158.369 159.462 157.407 156.357 155.211 154.63 
159.193 160.203 158.226 157.161 155.93 154.952 154.665 159.865 160.839 
158.886 157.686 156.374 155.327 154.782 154.723 160.452 161.418 159.508 
158.289 156.831 155.681 155.075 154.816 154.811 161.047 161.987 160.132 
159.044 157.653 156.352 155.573 155.186 154.965 154.956 157.851 157.824 
158.889 158.884 159.894 158.117 159.969 161.004 159.302 158.749 161.348 
162.331 160.545 160.052 159.416 163.008 163.66 162.109 161.313 160.684 
160.015 164.466 164.934 163.791 162.81 161.917 161.278 160.717 165.687 
166.402 165.059 164.292 163.375 162.631 162.084 161.472 166.997 167.934 
166.091 165.388 164.741 164.047 163.458 162.866 162.123 168.248 169.057 
167.221 166.369 165.838 165.302 164.668 164.082 163.434 162.677 165.466 
164.95 165.967 165.324 166.313 164.176 165.712 166.786 164.574 163.31 
166.356 167.488 165.147 163.755 162.362 166.936 168.152 165.706 164.29 
162.694 161.261 167.176 168.609 165.768 164.497 163.078 161.588 160.281 
167.375 168.915 165.652 164.307 163.18 161.949 160.703 159.523 167.704 
169.083 165.925 164.39 163.217 162.073 160.92 159.826 158.718 165.576 
166.258 166.388 167.051 167.221 166.816 167.827 168.021 167.706 167.301 
168.576 168.89 168.504 168.331 167.894 169.489 169.965 169.156 169.086 
168.929 168.626 170.622 171.035 169.95 169.591 169.613 169.582 169.31 
171.636 171.811 170.952 170.254 170.123 170.204 170.08 169.71 172.314 
172.33 171.855 171.119 170.758 170.713 170.469 170.151 169.807 172.742 