# vtk DataFile Version 4.0
vtk output
ASCII
DATASET POLYDATA
POINTS 1002 float
-76.1229 -115.317 69.5944 -75.6136 -116.542 68.7242 -75.9048 -115.895 68.1757 
-76.6179 -114.731 69.0766 -76.4184 -115.347 67.6092 -76.821 -114.245 70.4501 
-77.3019 -114.278 68.5732 -77.1264 -114.919 67.1831 -77.523 -113.764 69.9314 
-77.7882 -113.316 71.3044 -78.1331 -113.866 68.1818 -78.0489 -114.525 66.9484 
-78.3239 -113.258 69.4594 -78.5785 -112.733 70.8044 -78.7562 -112.153 72.2318 
-79.202 -113.411 67.8934 -79.2277 -114.141 66.8296 -79.2574 -112.668 69.0613 
-79.3927 -112.045 70.3596 -79.5068 -111.42 71.7667 -79.5209 -110.807 73.1208 
-80.3933 -112.867 67.6793 -80.4618 -113.696 66.8036 -80.3654 -112.017 68.7003 
-80.3315 -111.337 69.9453 -80.3186 -110.733 71.3112 -80.3253 -110.158 72.6511 
-80.2962 -109.647 73.8562 -81.4762 -112.171 67.5314 -81.6043 -113.107 66.8445 
-81.3979 -111.256 68.3588 -81.3191 -110.585 69.5248 -81.228 -110.004 70.8443 
-81.2033 -109.451 72.1492 -81.2002 -108.988 73.3938 -81.1016 -108.531 74.5304 
-82.5715 -111.433 67.4183 -82.754 -112.462 66.8783 -82.3623 -110.444 68.0618 
-82.2191 -109.772 69.1121 -82.139 -109.205 70.3889 -82.0956 -108.579 71.6354 
-82.087 -108.093 72.894 -81.9964 -107.713 74.1065 -81.7661 -107.297 75.151 
-83.7488 -110.821 67.333 -83.8946 -111.856 66.8681 -83.4831 -109.813 67.8819 
-83.2333 -109.088 68.8012 -83.1105 -108.527 70.0045 -83.0369 -107.871 71.1856 
-82.9667 -107.282 72.3819 -82.8913 -106.904 73.6343 -82.7051 -106.555 74.7344 
-82.3972 -106.191 75.6199 -84.8317 -110.316 67.2695 -84.9086 -111.275 66.8236 
-84.6447 -109.407 67.8286 -84.4075 -108.661 68.6603 -84.2438 -108.053 69.7346 
-84.1239 -107.435 70.8349 -83.9565 -106.83 71.936 -83.8029 -106.378 73.1283 
-83.6691 -106.021 74.2665 -83.4355 -105.659 75.1888 -83.0916 -105.358 75.9682 
-75.1724 -117.295 67.4953 -75.4209 -116.651 66.7745 -74.5414 -117.78 66.1359 
-74.779 -117.134 65.2062 -73.9093 -117.916 64.585 -75.9724 -116.068 66.142 
-74.3202 -117.358 63.4452 -73.6653 -118.219 62.8 -75.4588 -116.54 64.5671 
-76.8045 -115.537 65.8147 -74.4268 -117.956 61.6583 -73.9792 -119.189 61.3527 
-75.2191 -116.96 62.94 -76.5039 -115.975 64.4223 -77.9402 -115.06 65.7341 
-74.9353 -119.101 60.7919 -74.6032 -120.389 61.1493 -75.433 -117.85 61.7374 
-76.4589 -116.61 63.2322 -77.9477 -115.521 64.5379 -79.3536 -114.687 65.7438 
-75.5519 -120.124 61.4133 -75.3592 -121.276 61.9738 -75.9247 -118.907 61.782 
-76.7841 -117.614 62.81 -78.2189 -116.258 63.722 -79.6651 -115.157 64.6419 
-80.7429 -114.273 65.8336 -76.4585 -120.863 62.4842 -76.3298 -122.031 62.7444 
-76.7938 -119.635 62.6093 -77.5648 -118.452 63.097 -78.8528 -117.169 63.4904 
-80.2025 -115.783 63.856 -81.1817 -114.689 64.762 -81.9713 -113.727 65.999 
-77.7087 -121.617 63.0017 -77.4604 -122.809 63.0684 -78.1451 -120.266 62.9984 
-78.8615 -119.012 63.052 -79.8822 -117.897 63.1372 -80.95 -116.567 63.3061 
-81.7442 -115.205 63.8954 -82.3987 -114.182 65.0319 -83.1503 -113.157 66.175 
-78.9302 -122.294 63.1513 -78.5316 -123.402 63.2528 -79.5194 -120.937 62.9268 
-80.2429 -119.577 62.5206 -81.0302 -118.484 62.2627 -81.7834 -117.366 62.5032 
-82.379 -115.979 63.2066 -82.902 -114.742 64.2445 -83.5529 -113.745 65.4022 
-84.2826 -112.595 66.2992 -79.7676 -123.084 63.438 -80.3904 -121.818 63.1422 
-81.033 -122.506 63.6585 -81.6762 -121.131 63.1155 -82.2888 -121.939 63.8198 
-81.1362 -120.37 62.4502 -82.8172 -120.604 63.2972 -83.6699 -121.583 63.9372 
-82.2979 -119.794 62.2337 -81.846 -119.133 61.6833 -84.204 -120.345 63.7313 
-85.1164 -121.201 64.2583 -83.3645 -119.432 62.8458 -82.9007 -118.747 61.7818 
-82.4767 -118.107 61.6816 -85.7354 -119.962 64.306 -86.356 -120.519 64.968 
-84.9112 -119.118 63.759 -84.1397 -118.282 62.9613 -83.5909 -117.585 62.3757 
-83.0397 -116.805 62.5921 -87.0565 -119.234 65.0511 -87.5084 -119.672 65.8332 
-86.5489 -118.531 64.4694 -85.8439 -117.594 64.0181 -85.0683 -116.781 63.6091 
-84.3292 -116.102 63.5325 -83.589 -115.377 63.8124 -88.3709 -118.391 65.8718 
-88.8821 -118.898 66.4937 -87.9049 -117.73 65.3001 -87.3693 -116.809 64.8653 
-86.675 -115.903 64.5552 -85.8964 -115.28 64.4879 -85.0627 -114.749 64.6777 
-84.2395 -114.192 64.9882 -89.8918 -117.69 66.4721 -90.3749 -118.28 66.8973 
-89.3069 -116.981 66.1484 -88.6911 -116.112 65.8812 -88.0248 -115.206 65.5934 
-87.333 -114.516 65.4086 -86.5918 -113.991 65.4549 -85.7533 -113.452 65.6485 
-84.945 -112.961 65.9321 -91.3735 -117.169 66.8224 -91.66 -117.786 67.2321 
-90.8544 -116.399 66.6132 -90.1992 -115.509 66.5496 -89.4643 -114.602 66.4676 
-88.7067 -113.831 66.3306 -87.9744 -113.176 66.2363 -87.1843 -112.513 66.2177 
-86.3289 -111.921 66.3018 -85.5541 -111.527 66.5246 -85.8515 -110.091 67.0519 
-86.6434 -110.255 66.7779 -86.9616 -109.021 67.4062 -87.5839 -110.671 66.6549 
-87.9875 -109.111 67.1052 -88.3217 -108.143 67.909 -88.5649 -111.391 66.6997 
-89.108 -109.512 66.9566 -89.5172 -108.195 67.5254 -89.6019 -107.288 68.4362 
-89.5078 -112.191 66.7444 -90.2353 -110.203 66.8847 -90.6624 -108.527 67.2292 
-90.747 -107.387 68.0289 -90.5493 -106.475 69.0125 -90.449 -112.997 66.724 
-91.3861 -111.003 66.7571 -91.8367 -109.135 67.0438 -91.8112 -107.817 67.7736 
-91.6481 -106.809 68.7383 -91.5333 -105.935 69.7574 -91.2899 -113.972 66.7144 
-92.3688 -112.011 66.7183 -92.9533 -110.029 67.0797 -92.9327 -108.591 67.8695 
-92.7455 -107.508 68.7444 -92.6922 -106.504 69.6428 -92.685 -105.642 70.5862 
-91.9312 -115.077 66.7605 -92.9383 -113.309 66.9047 -93.5659 -111.306 67.4289 
-93.7392 -109.693 68.3246 -93.7874 -108.47 69.11 -93.8487 -107.264 69.7768 
-93.7917 -106.253 70.5643 -93.567 -105.52 71.4242 -92.3918 -116.095 66.9483 
-93.2303 -114.626 67.2474 -93.7164 -112.775 67.9314 -93.95 -111.035 68.8872 
-94.3453 -109.644 69.6061 -94.8468 -108.233 70.0667 -94.9375 -106.919 70.6787 
-94.5579 -106.123 71.4963 -94.0365 -105.635 72.3534 -92.6237 -116.9 67.3564 
-93.3808 -115.694 67.7109 -93.7918 -114.077 68.4361 -93.9811 -112.355 69.379 
-94.4598 -110.899 70.0618 -95.3493 -109.485 70.4033 -95.9076 -107.956 70.8618 
-95.6581 -106.814 71.6249 -94.9848 -106.271 72.5086 -94.3505 -105.912 73.3743 
-85.7878 -109.244 67.6426 -86.9364 -108.338 68.2257 -85.649 -108.499 68.4654 
-88.1904 -107.429 68.8258 -86.7804 -107.587 69.1758 -85.4856 -107.768 69.4574 
-89.2311 -106.446 69.3726 -87.8067 -106.541 69.7523 -86.5488 -106.724 70.1452 
-85.3364 -107.059 70.5126 -90.2376 -105.638 70.0808 -88.7349 -105.596 70.4495 
-87.4289 -105.683 70.8547 -86.3105 -105.983 71.2723 -85.1126 -106.438 71.6262 
-91.5273 -105.089 70.9015 -89.9827 -104.84 71.3221 -88.4247 -104.833 71.7594 
-87.1614 -104.937 72.1607 -85.9911 -105.342 72.503 -84.824 -105.906 72.8144 
-92.6716 -104.764 71.666 -91.3865 -104.153 72.0336 -89.7493 -104.004 72.4639 
-88.1475 -103.987 72.868 -86.7635 -104.079 73.2357 -85.5928 -104.663 73.6047 
-84.5912 -105.429 73.9647 -93.2831 -104.799 72.527 -92.3469 -103.811 72.7504 
-91.0107 -103.306 73.0214 -89.3397 -103.257 73.3226 -87.6093 -103.115 73.6897 
-86.1906 -103.278 74.1475 -85.2112 -104.112 74.6045 -84.361 -105.019 74.9539 
-93.6059 -105.139 73.5731 -92.826 -104.036 73.7595 -91.8473 -103.162 73.9357 
-90.4992 -102.933 74.1236 -88.736 -102.805 74.3935 -86.9305 -102.566 74.8006 
-85.655 -102.926 75.2538 -84.8487 -103.876 75.5999 -84.0274 -104.739 75.8137 
-94.2224 -105.779 74.6234 -93.3783 -104.85 74.8887 -94.0745 -105.527 75.9283 
-93.0405 -104.675 76.1975 -93.7171 -105.393 77.0885 -92.4849 -103.765 75.1287 
-92.5325 -104.768 77.3241 -93.2526 -105.526 78.2773 -92.0175 -103.848 76.5294 
-91.4631 -103.123 75.3835 -92.0926 -104.983 78.6044 -92.949 -105.701 79.8052 
-91.4193 -104.094 77.7715 -90.9379 -103.343 77.0014 -90.0136 -102.933 75.6814 
-91.7369 -105.221 80.1594 -92.4969 -105.942 81.2194 -90.8314 -104.378 79.0235 
-90.2132 -103.548 78.3252 -89.3675 -102.998 77.4381 -88.0424 -102.616 76.0145 
-91.0203 -105.737 81.3324 -91.5645 -106.537 81.9703 -90.1789 -104.954 80.2753 
-89.4026 -104.062 79.2925 -88.5988 -103.285 78.6265 -87.3742 -102.755 77.6644 
-86.2298 -102.535 76.335 -90.013 -106.48 81.9939 -90.555 -107.316 82.4571 
-89.3337 -105.735 81.3056 -88.5897 -104.964 80.3 -87.829 -104.109 79.4117 
-86.7972 -103.399 78.7198 -85.7148 -103.048 77.7484 -85.1002 -103.204 76.5578 
-89.1918 -107.131 82.6808 -89.8172 -107.955 83.1365 -88.5276 -106.328 82.227 
-87.8211 -105.655 81.5035 -87.0851 -104.996 80.5238 -86.2053 -104.297 79.6634 
-85.2428 -103.813 78.856 -84.5669 -103.755 77.7893 -84.2503 -104.112 76.6694 
-88.5789 -107.691 83.4668 -89.1893 -108.485 83.8413 -87.8959 -106.797 83.1134 
-87.1576 -106.036 82.6356 -86.3813 -105.512 81.8429 -85.5411 -105.01 80.8989 
-84.6676 -104.512 80.0154 -83.9655 -104.291 79.0078 -83.5499 -104.427 77.818 
-83.3013 -104.815 76.7517 -95.0815 -106.468 73.9083 -95.0218 -106.35 75.2613 
-95.7912 -107.201 74.4833 -95.7412 -107.078 75.9176 -96.2202 -108.266 75.1263 
-94.8965 -106.089 76.6245 -96.1586 -108.228 76.617 -96.4261 -109.515 75.8693 
-95.5296 -106.916 77.3453 -94.4544 -106.027 77.8968 -96.3182 -109.64 77.3429 
-96.5736 -110.809 76.6426 -95.7751 -108.257 77.9891 -94.8942 -106.995 78.6587 
-93.9162 -106.221 79.2873 -96.1765 -111.062 77.9435 -96.4099 -112.174 77.2405 
-95.6481 -109.814 78.5031 -94.9284 -108.422 79.1461 -94.1941 -107.25 79.9846 
-93.4743 -106.454 80.7821 -95.6228 -112.431 78.2469 -95.7694 -113.473 77.5631 
-95.1979 -111.303 78.8715 -94.6945 -110.032 79.5604 -94.2083 -108.751 80.4236 
-93.6245 -107.674 81.3056 -92.7585 -106.925 81.8553 -94.9279 -113.721 78.4073 
-95.0015 -114.631 77.7762 -94.6505 -112.724 79.123 -94.3269 -111.612 80.0072 
-94.1026 -110.451 80.9996 -93.7269 -109.337 81.8777 -92.9261 -108.372 82.3897 
-91.7825 -107.703 82.5022 -94.3531 -114.95 78.6797 -94.3671 -115.743 78.0176 
-94.2238 -114.084 79.445 -93.9716 -113.094 80.39 -93.7784 -112.033 81.4645 
-93.6157 -110.979 82.4623 -93.1135 -109.948 83.0903 -92.1356 -109.044 83.2539 
-90.9448 -108.4 83.1771 -93.8089 -116.066 78.9908 -93.7863 -116.753 78.2308 
-93.7986 -115.311 79.8294 -93.6265 -114.426 80.729 -93.3269 -113.42 81.643 
[...]
CELL_DATA 2000
SCALARS Distance double
LOOKUP_TABLE default
153.702 153.229 153.467 153.549 152.969 153.117 153.254 153.448 153.632 
152.921 152.973 153.101 153.234 153.406 153.61 153.778 153.06 153.003 
153.063 153.109 153.205 153.368 153.476 153.681 153.738 153.289 153.16 
153.111 153.071 153.068 153.156 153.213 153.37 153.432 153.594 153.636 
153.449 153.299 153.097 153.037 152.922 152.992 152.983 153.116 153.157 
153.316 153.382 153.539 153.589 153.561 153.359 153.027 152.915 152.704 
152.771 152.717 152.86 152.844 153.008 153.028 153.242 153.283 153.473 
153.459 153.722 153.462 153.103 152.871 152.633 152.579 152.549 152.62 
152.634 152.715 152.72 152.869 152.935 153.135 153.182 153.317 153.281 
153.885 153.639 153.33 153.055 152.857 152.668 152.667 152.602 152.684 
152.644 152.699 152.694 152.79 152.882 153.017 153.117 153.179 153.209 
153.205 153.732 153.402 153.443 153.174 152.734 152.969 152.769 152.933 
152.84 151.975 152.212 152.11 152.432 152.449 152.692 152.769 151.798 
151.666 151.614 151.821 151.964 152.269 152.476 152.733 152.941 152.554 
151.963 151.905 151.689 151.893 151.962 152.274 152.483 152.829 153.03 
153.278 153.849 153.059 152.975 152.411 152.604 152.301 152.631 152.536 
152.91 152.993 153.346 153.43 153.59 155.247 154.45 154.344 153.659 
153.786 153.294 153.571 153.21 153.472 153.266 153.529 153.525 153.765 
153.746 153.808 156.598 155.854 155.731 155.018 155.018 154.471 154.618 
154.209 154.339 153.961 154.026 153.8 153.951 153.921 154.092 153.998 
154.012 157.775 157.146 156.987 156.316 156.154 155.569 155.507 155.102 
155.115 154.76 154.723 154.366 154.385 154.196 154.367 154.294 154.423 
154.236 154.192 158.276 158.637 158.163 157.504 158.86 158.417 157.731 
157.291 156.613 159.201 158.635 157.884 157.424 156.759 156.388 155.867 
159.798 159.12 158.381 157.712 157.06 156.567 156.101 155.772 155.424 
160.392 159.804 159.181 158.437 157.808 157.099 156.615 156.109 155.754 
155.398 155.053 160.804 160.354 159.83 159.245 158.639 157.946 157.375 
156.751 156.321 155.829 155.475 155.054 154.743 161.209 160.765 160.289 
159.804 159.241 158.661 158.051 157.458 156.964 156.45 156.096 155.613 
155.327 154.879 154.692 161.727 161.246 160.812 160.298 159.804 159.232 
158.682 158.08 157.592 157.069 156.713 156.255 155.945 155.502 155.221 
154.86 154.665 162.269 161.813 161.411 160.89 160.433 159.862 159.363 
158.755 158.272 157.71 157.302 156.828 156.432 156.008 155.581 155.237 
154.862 154.65 154.365 154.161 154.648 154.231 154.026 155.396 154.839 
154.598 154.201 154.185 156.352 155.743 155.499 154.912 154.824 154.493 
154.571 157.338 156.783 156.598 155.923 155.729 155.217 155.194 154.879 
154.9 158.353 157.827 157.725 157.051 156.826 156.178 156.058 155.586 
155.602 155.231 155.308 159.452 158.926 158.898 158.225 158.063 157.338 
157.239 156.606 156.655 156.123 156.27 155.825 156.038 160.551 160.069 
160.116 159.472 159.385 158.65 158.606 157.92 158.016 157.384 157.539 
156.956 157.147 156.673 156.891 161.561 161.158 161.274 160.714 160.678 
159.993 159.939 159.288 159.369 158.783 158.92 158.309 158.416 157.836 
157.976 157.504 157.683 162.42 162.115 162.265 161.827 161.824 161.235 
161.149 160.538 160.553 160.035 160.174 159.645 159.755 159.138 159.211 
158.629 158.767 158.294 158.491 153.847 153.753 153.645 153.374 153.97 
153.714 153.502 153.271 153.029 154.331 154.038 153.806 153.525 153.305 
153.041 152.867 154.591 154.329 154.011 153.78 153.506 153.312 153.123 
152.943 152.825 154.967 154.58 154.246 153.938 153.645 153.444 153.266 
153.139 153.034 152.899 152.812 155.68 155.126 154.814 154.321 154.047 
153.679 153.494 153.282 153.19 153.069 153.016 152.895 152.878 156.503 
155.928 155.561 155.001 154.653 154.192 153.889 153.559 153.306 153.149 
153.022 153.01 153.004 152.992 153.039 157.294 156.727 156.311 155.72 
155.281 154.773 154.379 153.956 153.541 153.222 152.898 152.854 152.792 
152.953 153.024 153.122 153.162 158.131 157.545 157.17 156.503 156.079 
155.448 155.109 154.547 154.215 153.633 153.257 152.842 152.685 152.678 
152.8 152.984 153.106 153.186 153.199 158.548 158.903 158.358 157.566 
159.211 158.677 157.854 157.288 156.468 159.529 158.968 158.211 157.631 
156.855 156.258 155.53 160.058 159.371 158.623 158.024 157.353 156.763 
156.039 155.403 154.649 160.728 160.01 159.189 158.489 157.771 157.234 
156.548 155.943 155.07 154.413 153.603 161.181 160.624 159.813 159.096 
158.257 157.632 156.905 156.358 155.539 154.855 153.981 153.386 152.883 
161.41 160.962 160.258 159.666 158.869 158.177 157.408 156.761 156.033 
155.358 154.622 153.929 153.423 152.972 152.895 161.702 161.22 160.59 
160.076 159.407 158.792 158.083 157.39 156.696 155.986 155.351 154.662 
154.176 153.63 153.419 153.135 153.162 162.09 161.594 160.984 160.462 
159.842 159.301 158.664 158.061 157.4 156.728 156.095 155.428 154.909 
154.346 154.001 153.621 153.458 153.282 153.239 159.183 160.304 159.703 
159.613 161.515 160.878 160.791 160.126 159.95 162.808 162.144 162.057 
161.342 161.173 160.446 160.268 164.131 163.475 163.401 162.648 162.454 
161.695 161.541 160.842 160.79 165.314 164.748 164.639 163.948 163.696 
162.955 162.749 162.096 162.05 161.445 161.431 166.146 165.742 165.57 
165.032 164.775 164.129 163.927 163.288 163.226 162.642 162.607 162.001 
161.855 166.699 166.393 166.255 165.836 165.685 165.162 165.106 164.517 
164.556 163.905 163.903 163.188 163.047 162.319 162.093 167.234 166.94 
166.93 166.552 166.543 166.096 166.152 165.685 165.809 165.27 165.317 
164.602 164.468 163.628 163.397 162.59 162.389 167.766 167.528 167.606 
167.303 167.372 166.991 167.026 166.634 166.669 166.311 166.312 165.858 
165.708 165.035 164.749 163.952 163.673 162.918 162.728 162.894 163.498 
163.079 162.756 164.033 163.623 163.273 162.824 162.331 164.598 164.13 
163.732 163.284 162.789 162.284 161.692 165.254 164.725 164.311 163.787 
163.341 162.791 162.276 161.682 161.154 165.97 165.436 165.081 164.486 
164.111 163.491 163.089 162.425 161.983 161.306 160.844 166.683 166.201 
165.932 165.346 165.004 164.365 163.988 163.333 162.924 162.238 161.752 
161.035 160.475 167.256 166.886 166.662 166.19 165.874 165.274 164.84 
164.193 163.715 163.101 162.576 161.912 161.28 160.56 159.914 167.588 
167.334 167.091 166.79 166.518 166.074 165.661 165.026 164.483 163.819 
163.261 162.631 162.023 161.335 160.683 159.982 159.418 167.758 167.554 
167.268 167.059 166.784 166.544 166.212 165.772 165.277 164.624 164.044 
163.345 162.766 162.074 161.487 160.785 160.238 159.572 159.118 163.033 
163.401 163.371 163.65 163.798 163.738 164.057 163.999 164.256 164.328 
164.188 164.535 164.464 164.833 164.684 164.928 164.956 164.78 165.121 
165.015 165.429 165.319 165.652 165.411 165.611 165.567 165.406 165.731 
165.622 165.977 165.891 166.19 166.062 166.271 166.06 166.238 166.206 
166.007 166.324 166.209 166.527 166.404 166.606 166.479 166.638 166.557 
166.76 166.651 166.866 166.887 166.656 166.921 166.788 167.119 166.972 
167.166 166.923 167.016 166.857 167.066 167.049 167.331 167.257 167.444 
167.369 167.237 167.398 167.312 167.586 167.525 167.755 167.543 167.614 
167.33 167.447 167.342 167.617 167.623 167.856 167.751 167.817 167.496 
167.513 167.591 167.608 167.772 167.835 168.04 168.021 168.114 167.919 
167.944 167.756 167.89 167.857 168.053 168.046 168.14 168.015 167.99 
167.47 167.44 167.504 167.608 167.505 167.516 167.663 167.69 167.837 
167.738 167.68 167.846 167.816 167.996 167.989 168.128 168.071 167.996 
168.172 168.079 168.222 168.168 168.286 168.253 168.258 168.351 168.324 
168.473 168.397 168.483 168.401 168.466 168.405 168.414 168.299 168.18 
168.418 168.488 168.565 168.578 168.616 168.597 168.649 168.6 168.613 
168.488 168.412 168.218 168.116 168.251 168.395 168.433 168.534 168.563 
168.632 168.701 168.736 168.767 168.692 168.603 168.448 168.343 168.205 
168.176 168.034 168.167 168.25 168.372 168.464 168.553 168.646 168.725 
168.763 168.769 168.666 168.575 168.427 168.35 168.286 168.25 168.22 
167.933 168.019 168.175 168.273 168.44 168.508 168.612 168.66 168.676 
168.699 168.605 168.566 168.426 168.377 168.306 168.292 168.256 168.221 
168.116 167.969 168.17 168.134 168.255 168.201 168.305 168.441 168.426 
168.513 167.909 168.183 168.322 168.476 168.539 168.591 168.621 167.427 
167.801 167.972 168.219 168.297 168.463 168.484 168.59 168.596 166.715 
167.259 167.512 167.851 167.975 168.174 168.22 168.364 168.37 168.496 
168.481 165.685 166.403 166.727 167.291 167.459 167.803 167.85 168.069 
168.097 168.254 168.269 168.371 168.354 164.664 165.342 165.728 166.395 
166.653 167.152 167.231 167.585 167.639 167.932 168.026 168.206 168.259 
168.306 168.306 163.863 164.435 164.859 165.475 165.863 166.374 166.586 
166.945 167.058 167.399 167.551 167.885 168.006 168.2 168.21 168.268 
168.233 163.102 163.662 164.043 164.668 165.095 165.674 166.001 166.402 
166.564 166.861 166.967 167.315 167.409 167.765 167.763 168.013 167.926 
168.087 168.005 167.856 167.652 167.841 167.99 167.204 167.524 167.629 
167.906 167.982 166.44 166.905 166.967 167.371 167.39 167.724 167.668 
165.456 165.989 165.992 166.506 166.458 166.937 166.856 167.254 167.12 
164.376 164.91 164.841 165.39 165.275 165.83 165.704 166.251 166.092 
166.564 166.327 163.247 163.77 163.656 164.192 164.044 164.578 164.404 
164.975 164.791 165.36 165.099 165.594 165.264 162.112 162.613 162.488 
163.008 162.861 163.362 163.157 163.665 163.452 164.006 163.778 164.302 
164.025 164.494 164.237 161.043 161.494 161.35 161.843 161.689 162.186 
161.975 162.445 162.201 162.699 162.487 163.012 162.818 163.307 163.124 
163.585 163.441 160.112 160.484 160.319 160.734 160.562 161.023 160.83 
161.284 161.052 161.498 161.278 161.768 161.597 162.122 161.982 162.494 
162.363 162.848 162.71 167.781 167.723 167.705 167.591 167.553 167.594 
167.377 167.391 167.132 167.092 167.262 166.959 167.033 166.651 166.736 
166.345 166.452 166.693 166.383 166.479 166.027 166.126 165.701 165.836 
165.399 165.7 166.018 165.779 165.902 165.46 165.489 165.056 165.169 
164.787 164.882 164.405 164.808 165.187 165.002 165.276 164.895 164.957 
164.476 164.547 164.142 164.268 163.826 163.867 163.315 163.925 164.239 
164.015 164.399 164.082 164.305 163.799 163.91 163.393 163.555 163.076 
163.22 162.679 162.733 162.164 163.155 163.369 163.05 163.381 163.066 
163.383 162.933 163.127 162.581 162.737 162.214 162.391 161.879 162.023 
161.496 161.584 161.082 162.425 162.605 162.215 162.445 162.057 162.347 
161.929 162.198 161.738 161.927 161.456 161.586 161.121 161.237 160.779 
160.895 160.455 160.554 160.144 161.884 160.927 161.491 161.642 159.835 
160.456 160.568 161.19 161.374 158.698 159.332 159.424 160.039 160.191 
160.904 161.169 157.555 158.206 158.338 158.922 159.075 159.729 160.029 
160.757 161.057 156.428 157.056 157.242 157.873 158.101 158.719 159.065 
159.721 160.083 160.691 160.9 155.604 156.034 156.259 156.839 157.19 
157.82 158.223 158.85 159.209 159.785 159.985 160.492 160.583 155.203 
155.446 155.683 156.066 156.449 156.992 157.397 157.998 158.281 158.866 
158.997 159.54 159.59 160.125 160.206 154.854 155.125 155.308 155.623 
155.88 156.323 156.591 157.121 157.27 157.83 157.871 158.454 158.488 
159.081 159.171 159.76 159.894 154.324 154.669 154.775 155.142 155.262 
155.685 155.807 156.269 156.323 156.793 156.798 157.316 157.379 157.969 
158.125 158.734 158.919 159.49 159.641 154.042 153.825 154.083 154.472 
153.859 153.95 154.268 154.531 154.956 154.011 154.07 154.337 154.443 
154.797 155.046 155.474 153.96 154.137 154.429 154.571 154.884 155.004 
155.336 155.558 155.945 153.791 153.971 154.234 154.515 154.854 155.082 
155.379 155.513 155.799 156.009 156.392 153.718 153.823 153.998 154.229 
154.521 154.865 155.196 155.481 155.777 155.96 156.305 156.527 156.996 
153.59 153.733 153.893 154.054 154.286 154.523 154.834 155.162 155.539 
155.868 156.292 156.546 157.03 157.258 157.797 153.361 153.527 153.711 
153.935 154.215 154.406 154.708 154.899 155.276 155.588 156.1 156.476 
157.035 157.337 157.873 158.105 158.618 153.233 153.316 153.489 153.717 
154.062 154.336 154.717 154.897 155.262 155.45 155.933 156.272 156.869 
157.257 157.819 158.134 158.621 158.873 159.325 159.603 158.879 159.409 
159.753 158.065 158.638 158.953 159.538 159.932 157.13 157.764 158.099 
158.716 159.102 159.732 160.17 156.212 156.812 157.191 157.844 158.271 
158.912 159.346 159.974 160.402 155.506 155.974 156.314 156.932 157.372 
158.058 158.505 159.153 159.567 160.189 160.619 154.87 155.294 155.509 
156.061 156.411 157.104 157.54 158.256 158.673 159.337 159.766 160.426 
160.914 154.134 154.561 154.692 155.215 155.481 156.124 156.538 157.261 
157.726 158.422 158.888 159.568 160.092 160.778 161.321 153.53 153.83 
153.971 154.405 154.689 155.241 155.676 156.33 156.872 157.545 158.096 
158.743 159.302 159.971 160.553 161.217 161.746 153.267 153.392 153.54 
153.818 154.117 154.552 155.001 155.572 156.147 156.793 157.413 158.043 
158.634 159.246 159.817 160.455 161.002 161.629 162.107 158.047 156.884 
157.703 158.164 155.576 156.469 156.966 157.842 158.376 154.223 155.154 
155.705 156.625 157.209 158.085 158.662 152.95 153.83 154.448 155.392 
156.042 156.938 157.605 158.453 159.105 152.204 152.764 153.457 154.26 
154.992 155.829 156.546 157.425 158.201 159.033 159.722 152.378 152.475 
153.201 153.622 154.427 154.993 155.713 156.429 157.222 158.115 158.935 
159.71 160.314 153.128 153.009 153.648 153.743 154.488 154.751 155.438 
155.834 156.547 157.22 158.076 158.898 159.656 160.297 160.818 153.792 
153.752 154.237 154.251 154.774 154.916 155.479 155.738 156.368 156.782 
157.553 158.175 158.996 159.654 160.308 160.831 161.33 154.118 154.219 
154.61 154.667 154.988 155.081 155.453 155.709 156.253 156.653 157.327 
157.814 158.534 159.094 159.762 160.317 160.862 161.352 161.81 158.73 
158.944 159.166 159.814 159.212 159.458 160.207 160.341 160.988 159.485 
159.744 160.556 160.773 161.496 161.578 162.21 159.867 160.038 160.865 
161.124 161.941 162.096 162.77 162.802 163.393 160.393 160.466 161.259 
161.487 162.42 162.616 163.407 163.405 163.985 163.941 164.476 160.877 
160.944 161.631 161.872 162.814 163.134 164.044 164.122 164.708 164.573 
165.005 164.954 165.447 161.322 161.363 161.96 162.16 162.958 163.37 
164.223 164.578 165.156 165.209 165.518 165.449 165.795 165.844 166.295 
161.845 161.85 162.457 162.526 163.199 163.431 164.089 164.469 164.987 
165.32 165.641 165.786 166.041 166.118 166.457 166.584 166.937 162.335 
162.393 163.025 163.085 163.724 163.769 164.288 164.377 164.798 165.029 
165.447 165.727 166.102 166.271 166.578 166.686 166.961 167.085 167.294 
158.838 159.838 159.298 159.208 160.95 160.327 160.224 159.645 159.516 
162.169 161.499 161.391 160.739 160.662 160.018 159.928 163.377 162.746 
162.644 161.96 161.867 161.221 161.163 160.515 160.467 164.495 163.944 
163.863 163.195 163.039 162.394 162.285 161.699 161.611 161.026 160.945 
165.528 165.054 165.019 164.38 164.189 163.516 163.343 162.756 162.644 
162.084 161.963 161.409 161.306 166.424 166.055 166.051 165.49 165.281 
164.62 164.395 163.791 163.657 163.096 162.98 162.407 162.294 161.747 
161.689 167.06 166.837 166.818 166.401 166.158 165.599 165.309 164.766 
164.569 164.064 163.91 163.387 163.248 162.728 162.654 162.162 162.161 
167.388 167.302 167.267 167.006 166.757 166.327 166.007 165.547 165.307 
164.872 164.682 164.226 164.047 163.592 163.483 163.064 163.042 162.631 
162.652 167.841 167.977 167.869 167.827 168.172 168.031 167.935 167.838 
167.693 168.26 168.157 167.944 167.863 167.624 167.55 167.241 168.131 
168.109 167.848 167.786 167.489 167.408 167.065 166.972 166.581 167.873 
167.906 167.731 167.695 167.493 167.349 167.042 166.839 166.438 166.273 
165.826 167.608 167.668 167.602 167.632 167.544 167.441 167.191 166.937 
166.53 166.234 165.754 165.51 165.005 167.41 167.456 167.415 167.501 
167.392 167.405 167.08 166.969 166.505 166.321 165.837 165.567 165.06 
164.742 164.23 167.333 167.314 167.22 167.275 167.085 167.115 166.676 
166.627 166.059 166.047 165.572 165.547 165.094 164.878 164.349 164.019 
163.499 167.344 167.27 167.097 167.066 166.822 166.786 166.373 166.233 
165.682 165.557 165.091 165.118 164.736 164.738 164.245 164.072 163.492 
163.248 162.725 
POINT_DATA 1002
SCALARS Distance double
LOOKUP_TABLE default
153.713 153.992 153.406 153.289 152.999 153.65 153.069 152.846 153.41 
153.842 153.01 152.915 153.229 153.585 153.914 153.093 153.18 153.095 
153.298 153.552 153.753 153.216 153.478 153.033 153.083 153.267 153.484 
153.676 153.212 153.663 152.872 152.869 153.006 153.205 153.462 153.633 
153.21 153.818 152.668 152.579 152.711 152.821 153.065 153.329 153.422 
153.366 153.989 152.741 152.498 152.578 152.619 152.728 153.018 153.206 
153.222 153.568 154.103 153.063 152.773 152.738 152.743 152.741 152.906 
153.132 153.204 153.194 153.805 153.125 153.281 152.506 152.421 152.683 
151.715 151.795 152.116 152.556 151.495 152.112 151.64 152.145 152.735 
152.285 153.268 151.939 152.109 152.578 153.183 153.627 154.653 153.015 
152.864 152.931 153.228 153.634 155.071 156.019 154.338 154.011 153.847 
153.648 153.72 153.948 156.476 157.303 155.651 155.073 154.78 154.398 
154.039 154.101 154.234 157.663 158.362 156.826 155.992 155.465 155.109 
154.668 154.454 154.552 154.489 158.803 158.026 159.083 158.146 159.355 
157.026 158.407 159.845 157.103 156.151 159.109 160.443 157.63 156.45 
155.705 159.863 160.874 158.575 157.222 156.177 155.387 160.33 161.214 
159.302 158.047 156.863 155.932 155.113 160.757 161.66 159.785 158.642 
157.473 156.565 155.8 155.076 161.327 162.197 160.357 159.277 158.133 
157.175 156.406 155.636 154.958 161.92 162.693 160.99 159.957 158.861 
157.828 156.91 155.988 155.125 154.51 153.876 154.314 153.892 155.083 
154.403 154.265 156.164 155.258 154.818 154.637 157.283 156.356 155.581 
155.189 154.881 158.379 157.524 156.605 155.994 155.629 155.418 159.544 
158.781 157.892 157.224 156.752 156.433 156.268 160.713 160.099 159.282 
158.649 158.179 157.688 157.322 157.085 161.777 161.337 160.604 159.938 
159.524 159.062 158.5 158.107 157.861 162.651 162.371 161.77 161.079 
160.648 160.354 159.855 159.281 158.916 158.697 153.497 153.757 153.257 
154.099 153.568 153.098 154.259 153.682 153.276 153 154.607 153.879 
153.38 153.148 152.96 155.359 154.484 153.785 153.325 153.105 152.991 
156.161 155.167 154.315 153.574 153.026 152.942 153.084 156.939 155.836 
154.844 153.984 153.073 152.601 152.838 153.156 157.838 156.736 155.668 
154.82 153.847 152.857 152.603 152.964 153.203 159.112 158.127 159.472 
158.435 159.727 157.003 158.743 160.119 157.457 156.107 159.254 160.806 
157.876 156.73 155.286 159.974 161.407 158.342 157.1 155.818 154.112 
160.493 161.645 158.974 157.459 156.162 154.643 153.195 160.751 161.838 
159.534 158.103 156.667 155.275 153.954 153.124 161.075 162.197 159.947 
158.745 157.405 156.021 154.762 153.815 153.323 161.512 162.564 160.366 
159.215 158.037 156.763 155.505 154.464 153.73 153.325 159.744 160.257 
160.913 161.467 162.168 160.653 162.799 163.462 161.909 160.961 164.167 
164.769 163.24 162.218 161.449 165.313 165.865 164.441 163.411 162.624 
162.082 166.054 166.523 165.349 164.542 163.834 163.225 162.516 166.605 
166.972 166.111 165.602 165.18 164.66 163.827 162.801 167.246 167.489 
166.943 166.582 166.279 165.974 165.321 164.26 163.134 167.852 167.959 
167.724 167.453 167.047 166.685 166.282 165.525 164.463 163.425 163.341 
163.25 163.907 163.718 164.478 162.857 164.201 165.121 163.284 162.232 
164.857 165.788 163.882 162.861 161.741 165.668 166.461 164.723 163.733 
162.678 161.535 166.48 167.115 165.652 164.643 163.592 162.506 161.219 
167.069 167.59 166.444 165.533 164.348 163.211 162.016 160.609 167.347 
167.83 166.863 166.253 165.202 163.905 162.672 161.385 160.059 163.069 
163.707 163.43 164.082 163.887 164.387 164.601 164.5 164.927 165.19 
165.246 165.128 165.522 165.843 165.928 165.849 165.729 166.104 166.311 
166.421 166.469 166.447 166.448 166.68 166.804 166.71 166.787 167.028 
167.078 167.139 167.243 167.44 167.263 167.08 167.336 167.633 167.5 
167.474 167.622 167.899 167.933 167.652 167.615 167.906 168.034 167.57 