# vtk DataFile Version 4.0
vtk output
ASCII
DATASET POLYDATA
POINTS 1002 float
-78.8138 -116.106 74.7957 -78.5156 -117.616 74.5336 -78.5892 -116.935 73.7206 
-79.0667 -115.445 74.0323 -78.8977 -116.267 72.8734 -79.234 -114.459 75.1488 
-79.6618 -114.948 73.3531 -79.4935 -115.775 72.1949 -79.7602 -114.017 74.4946 
-79.8531 -113.039 75.5949 -80.4455 -114.517 72.7939 -80.3789 -115.308 71.7619 
-80.535 -113.662 73.8857 -80.6019 -112.75 75.0389 -80.6996 -111.821 76.1236 
-81.3215 -113.919 72.3113 -81.5166 -114.667 71.4222 -81.276 -113.089 73.2651 
-81.3868 -112.226 74.3878 -81.5232 -111.31 75.5697 -81.6061 -110.389 76.623 
-82.4035 -113.234 71.935 -82.6815 -113.924 71.0976 -82.1573 -112.37 72.7982 
-82.1341 -111.42 73.7478 -82.249 -110.479 74.8814 -82.2968 -109.556 75.9793 
-82.2197 -108.663 76.953 -83.5726 -112.563 71.6696 -83.7261 -113.178 70.8413 
-83.3533 -111.735 72.546 -83.1712 -110.698 73.3508 -83.0679 -109.685 74.2939 
-82.956 -108.746 75.3181 -82.8091 -107.858 76.271 -82.6348 -107.012 77.2033 
-84.6684 -111.826 71.4213 -84.7676 -112.433 70.6726 -84.5094 -111.046 72.2744 
-84.2959 -110.008 72.994 -84.0597 -108.993 73.7739 -83.7902 -108.092 74.7446 
-83.5497 -107.218 75.6708 -83.373 -106.393 76.5536 -83.2083 -105.642 77.4707 
-85.7187 -111.052 71.1796 -85.8175 -111.711 70.5582 -85.5115 -110.274 71.9332 
-85.206 -109.227 72.5672 -84.916 -108.187 73.182 -84.6646 -107.333 74.0936 
-84.424 -106.51 75.0979 -84.2166 -105.715 75.9483 -84.024 -105.019 76.7831 
-83.8284 -104.422 77.65 -86.6598 -110.3 70.9609 -86.7269 -111.005 70.4437 
-86.4702 -109.542 71.6167 -86.1081 -108.535 72.2259 -85.7249 -107.451 72.747 
-85.4755 -106.556 73.4896 -85.2928 -105.744 74.487 -85.0615 -104.938 75.3758 
-84.7776 -104.258 76.114 -84.4858 -103.697 76.8915 -84.2436 -103.225 77.7039 
-78.2076 -118.515 73.8041 -78.346 -117.81 72.7983 -77.9086 -119.365 72.9207 
-78.1476 -118.631 71.6338 -77.7162 -120.29 71.8775 -78.6078 -117.101 71.7229 
-78.0005 -119.527 70.3865 -77.6899 -121.301 70.9688 -78.3431 -117.888 70.3695 
-79.1857 -116.586 71.0104 -78.0713 -120.704 69.5442 -77.9856 -122.401 70.4433 
-78.2962 -118.845 69.2722 -79.0376 -117.397 69.8875 -80.3366 -116.088 70.7927 
-78.7028 -122.076 69.3828 -78.8076 -123.457 70.2609 -78.8074 -120.181 68.9938 
-79.4022 -118.418 69.3924 -80.5695 -116.938 70.139 -81.7876 -115.391 70.6748 
-79.8601 -123.012 69.7653 -80.0305 -124.052 70.4648 -79.8927 -121.428 69.4371 
-80.3724 -119.574 69.5732 -81.2764 -117.919 69.9207 -82.2329 -116.276 70.1891 
-83.0081 -114.586 70.4222 -81.1326 -123.232 70.4024 -81.3164 -124.128 71.0185 
-81.1354 -122.013 70.0451 -81.5411 -120.395 69.8487 -82.2713 -118.767 69.6371 
-82.9527 -117.228 69.5987 -83.4724 -115.503 69.8326 -84.0535 -113.798 70.2025 
-82.343 -123.222 70.9434 -82.5201 -124.105 71.5611 -82.3448 -122.225 70.4409 
-82.6581 -120.919 69.9411 -83.226 -119.404 69.2087 -83.7553 -117.971 68.7172 
-84.124 -116.47 68.9896 -84.545 -114.727 69.6162 -85.1545 -113.054 70.1263 
-83.522 -123.34 71.2307 -83.6488 -124.203 71.8583 -83.5726 -122.478 70.6029 
-83.8264 -121.458 69.9755 -84.1901 -120.109 69.0942 -84.5156 -118.624 68.2458 
-84.7857 -117.21 68.224 -85.1383 -115.682 68.9497 -85.6458 -113.967 69.6551 
-86.218 -112.342 70.0923 -84.7176 -123.765 71.6291 -84.7859 -122.905 70.9076 
-85.9492 -123.155 71.4202 -86.175 -122.316 70.6963 -87.1695 -122.353 71.3966 
-85.0347 -122.067 70.2176 -87.3916 -121.445 70.7162 -88.2968 -121.445 71.4207 
-86.4368 -121.413 70.031 -85.2985 -120.954 69.4602 -88.5345 -120.364 70.71 
-89.4681 -120.378 71.3839 -87.5646 -120.313 70.0681 -86.5126 -120.065 69.3744 
-85.4177 -119.4 68.5911 -89.864 -119.184 70.6372 -90.6788 -119.14 71.3922 
-88.7859 -119.019 70.0544 -87.6093 -118.726 69.6249 -86.4709 -118.298 68.9451 
-85.5166 -117.748 68.229 -91.1985 -117.966 70.6815 -91.7869 -117.917 71.4538 
-90.2328 -117.773 70.0965 -88.9822 -117.332 69.8547 -87.7572 -116.911 69.5835 
-86.6953 -116.575 69.02 -85.8417 -116.199 68.6874 -92.3293 -116.708 70.8646 
-92.7942 -116.77 71.572 -91.5809 -116.477 70.3291 -90.4607 -115.988 70.1347 
-89.2996 -115.492 70.0094 -88.2506 -115.2 69.6373 -87.2511 -114.953 69.2971 
-86.3715 -114.532 69.3438 -93.3102 -115.411 71.1762 -93.7383 -115.66 71.8004 
-92.74 -115.05 70.6491 -91.8221 -114.554 70.4222 -90.7572 -114.054 70.3138 
-89.8178 -113.727 69.9534 -88.8374 -113.503 69.5452 -87.7848 -113.178 69.5086 
-86.8957 -112.738 69.7757 -94.1669 -114.185 71.5566 -94.5741 -114.63 72.0756 
-93.7344 -113.641 71.0045 -93.0674 -113.106 70.6061 -92.1095 -112.65 70.4205 
-91.1605 -112.29 70.1489 -90.246 -111.98 69.7303 -89.1592 -111.651 69.5518 
-88.0939 -111.324 69.748 -87.3057 -111.095 70.0948 -87.4697 -109.725 70.5619 
-88.0954 -109.593 70.1473 -88.1762 -108.266 70.6186 -89.0512 -109.658 69.8008 
-88.9439 -107.977 70.1793 -88.991 -106.83 70.7023 -90.2952 -109.992 69.6712 
-90.1306 -107.981 69.8752 -90.0255 -106.563 70.3153 -90.0303 -105.634 71.0867 
-91.4508 -110.485 69.8451 -91.4899 -108.408 69.7544 -91.3905 -106.565 70.0335 
-91.3016 -105.418 70.7564 -91.1633 -104.502 71.6726 -92.4859 -110.952 70.1293 
-92.6977 -109.1 69.8474 -92.6997 -107.026 69.9229 -92.6005 -105.31 70.4303 
-92.417 -104.174 71.2159 -92.0645 -103.13 71.9181 -93.5032 -111.339 70.4227 
-93.7945 -109.696 70.1538 -93.8205 -107.856 70.1605 -93.6787 -105.784 70.4616 
-93.482 -104.03 70.8804 -93.1806 -102.774 71.3828 -92.6849 -101.75 71.9778 
-94.2259 -111.818 70.9064 -94.6103 -110.111 70.7077 -94.7401 -108.556 70.7013 
-94.6127 -106.756 70.9547 -94.3951 -104.676 71.1524 -94.1912 -102.888 71.3199 
-93.8626 -101.675 71.7526 -93.3003 -100.822 72.4957 -94.6403 -112.515 71.5282 
-95.031 -110.694 71.4161 -95.2941 -109.043 71.362 -95.3681 -107.532 71.5382 
-95.2486 -105.731 71.7347 -95.0976 -103.697 71.8143 -94.9608 -102.088 72.0616 
-94.6031 -101.096 72.6477 -93.9679 -100.372 73.426 -95.0368 -113.265 72.0605 
-95.3823 -111.565 72.039 -95.6487 -109.727 72.0143 -95.8854 -108.078 72.0935 
-95.9874 -106.531 72.2516 -95.8961 -104.711 72.3826 -95.7823 -102.877 72.6042 
-95.6229 -101.606 73.0658 -95.1799 -100.829 73.6952 -94.4926 -100.136 74.3421 
-87.396 -108.962 71.1285 -88.1167 -107.453 71.2279 -87.1712 -108.061 71.7989 
-88.9283 -105.973 71.4416 -87.9251 -106.466 71.978 -86.7815 -106.962 72.4277 
-89.8732 -104.635 71.933 -88.7052 -104.87 72.2486 -87.5814 -105.391 72.7195 
-86.4333 -105.948 73.096 -90.8168 -103.265 72.3418 -89.4717 -103.318 72.5447 
-88.2849 -103.756 72.9333 -87.2268 -104.456 73.5122 -86.203 -105.067 74.0039 
-91.5367 -101.835 72.4723 -90.2174 -101.881 72.7998 -88.8964 -102.143 73.109 
-87.8183 -102.832 73.7401 -86.8664 -103.555 74.4311 -85.9193 -104.171 74.937 
-92.1144 -100.683 72.8504 -90.8869 -100.721 73.2762 -89.5893 -100.865 73.6221 
-88.3972 -101.283 74.105 -87.3974 -102.004 74.7567 -86.4147 -102.701 75.2807 
-85.5088 -103.398 75.6818 -92.776 -99.9713 73.6516 -91.5759 -99.8614 74.0428 
-90.3397 -99.9673 74.4392 -89.0951 -100.126 74.8131 -88.0262 -100.574 75.2766 
-86.9883 -101.317 75.7166 -85.9095 -102.035 76.0414 -85.069 -102.799 76.4132 
-93.4508 -99.5419 74.5016 -92.3579 -99.1756 74.7911 -91.1654 -99.1675 75.1437 
-89.8131 -99.2461 75.4708 -88.6135 -99.4255 75.8346 -87.6452 -100.014 76.2535 
-86.5472 -100.774 76.5845 -85.4424 -101.464 76.8584 -84.7069 -102.279 77.2366 
-94.2664 -99.4725 75.2605 -93.3374 -98.7445 75.4271 -94.0377 -98.7153 76.3055 
-93.2284 -97.9561 76.4485 -93.774 -98.2179 77.5996 -92.2901 -98.3665 75.6757 
-92.8588 -97.5594 77.796 -93.2762 -98.2204 78.9861 -92.022 -97.5728 76.6777 
-90.826 -98.3327 75.9586 -92.1027 -97.6925 79.3522 -92.5922 -98.4659 80.2856 
-91.346 -97.1745 78.174 -90.1585 -97.4959 76.9936 -89.191 -98.4113 76.2878 
-91.3265 -98.0867 80.7938 -92.0464 -98.6835 81.6202 -90.5671 -97.4013 79.9186 
-89.4382 -97.217 78.6207 -88.4698 -97.8257 77.4206 -88.0396 -98.8612 76.7546 
-90.7817 -98.5559 82.0769 -91.6339 -99.0162 83.0063 -90.0131 -98.0375 81.3326 
-89.0402 -97.7046 80.3337 -88.017 -97.933 79.0027 -87.4565 -98.6576 77.9459 
-87.0757 -99.6588 77.2356 -90.2524 -99.1356 83.3434 -91.1047 -99.5567 84.2918 
-89.4742 -98.7624 82.4662 -88.6737 -98.4816 81.6199 -87.7137 -98.5013 80.5184 
-86.9247 -98.8328 79.345 -86.3891 -99.4383 78.3848 -85.8657 -100.366 77.564 
-89.6452 -99.7713 84.6356 -90.4722 -100.127 85.4418 -88.829 -99.4865 83.6771 
-88.0577 -99.2024 82.7617 -87.1976 -99.0609 81.8167 -86.3537 -99.1712 80.7375 
-85.7208 -99.4967 79.6487 -85.2301 -100.147 78.6747 -84.8685 -101.151 77.8615 
-89.1099 -100.355 85.8079 -89.898 -100.636 86.4153 -88.2973 -100.187 84.9242 
-87.4946 -99.9412 83.9759 -86.6524 -99.6502 83.0865 -85.8416 -99.6021 82.1334 
-85.238 -99.8941 81.0271 -84.828 -100.441 79.9061 -84.5204 -101.235 78.9649 
-84.332 -102.215 78.2567 -95.2699 -100.406 74.8527 -94.9768 -99.7828 75.9115 
-95.8914 -100.69 75.5105 -95.6868 -100.143 76.8148 -96.4603 -101.117 76.3864 
-94.6797 -99.1577 77.2482 -96.3876 -100.662 77.8765 -96.9631 -101.854 77.4321 
-95.4542 -99.7154 78.3745 -94.3369 -98.891 78.7193 -96.8481 -101.512 78.9727 
-97.248 -102.802 78.5607 -96.1372 -100.432 79.4607 -95.059 -99.6293 79.8314 
-93.8183 -98.9857 80.0163 -97.1007 -102.607 80.1388 -97.3797 -103.895 79.7395 
-96.5204 -101.425 80.5675 -95.6228 -100.465 80.9064 -94.5173 -99.6982 81.1151 
-93.2907 -99.083 81.323 -97.2917 -103.844 81.2211 -97.4231 -105.244 80.7374 
-96.8588 -102.592 81.7419 -96.0115 -101.507 82.0704 -95.0197 -100.575 82.2514 
-94.0206 -99.7636 82.5366 -92.8855 -99.2276 82.8288 -97.2219 -105.259 81.9261 
-97.3029 -106.745 81.384 -97.0104 -103.893 82.5996 -96.3568 -102.737 83.0804 
-95.3394 -101.747 83.2217 -94.3613 -100.813 83.4762 -93.4574 -100.073 83.9231 
-92.3724 -99.6786 84.2019 -96.9365 -106.776 82.4227 -97.1122 -108.168 81.8988 
-96.7269 -105.374 83.0549 -96.2998 -104.17 83.613 -95.4756 -103.165 83.8446 
-94.4491 -102.178 84.0332 -93.5536 -101.271 84.5092 -92.7175 -100.65 85.0089 
-91.6774 -100.288 85.2987 -96.7382 -108.215 82.9985 -96.9551 -109.401 82.4582 
-96.3955 -106.898 83.4858 -95.9199 -105.692 83.8833 -95.2654 -104.692 84.1553 
[...]
CELL_DATA 2000
SCALARS Distance double
LOOKUP_TABLE default
158.294 157.531 157.776 157.504 157.036 157.168 157.018 157.109 156.908 
156.823 156.858 156.783 156.811 156.706 156.711 156.606 156.712 156.701 
156.549 156.596 156.456 156.538 156.414 156.476 156.345 156.638 156.585 
156.354 156.329 156.095 156.175 155.978 156.135 155.919 156.066 155.793 
156.583 156.529 156.344 156.222 155.973 155.871 155.63 155.658 155.425 
155.529 155.242 155.358 155.03 156.514 156.482 156.333 156.248 155.977 
155.823 155.496 155.406 155.129 155.12 154.855 154.873 154.606 154.647 
154.408 156.468 156.418 156.233 156.18 155.842 155.723 155.27 155.197 
154.816 154.838 154.542 154.567 154.294 154.315 154.081 154.134 153.951 
156.415 156.352 156.122 156.054 155.697 155.538 155.047 154.898 154.474 
154.465 154.18 154.234 153.967 154 153.719 153.779 153.528 153.647 
153.438 158.631 158.749 158.383 157.801 158.813 158.438 157.811 157.539 
157.138 158.984 158.489 157.768 157.464 157.036 156.981 156.844 159.531 
158.802 158.035 157.496 157.063 156.907 156.858 156.852 156.84 160.579 
159.66 159.025 158.129 157.753 157.227 157.26 157.049 157.139 156.938 
156.862 161.812 160.941 160.487 159.49 159.165 158.324 158.308 157.771 
157.841 157.42 157.309 156.952 156.782 162.856 162.156 161.764 160.967 
160.602 159.797 159.563 158.915 158.779 158.241 158.017 157.505 157.226 
156.86 156.693 163.714 163.098 162.709 162.076 161.687 161.011 160.595 
159.953 159.571 159.044 158.71 158.219 157.893 157.412 157.164 156.811 
156.684 164.51 163.915 163.548 162.958 162.631 161.993 161.59 160.869 
160.381 159.725 159.319 158.829 158.547 158.103 157.865 157.409 157.21 
156.838 156.686 164.805 164.933 164.538 163.877 165.038 164.692 164.094 
163.674 163.018 165.03 164.768 164.215 163.886 163.223 162.774 161.985 
164.893 164.688 164.089 163.878 163.195 162.868 161.991 161.556 160.674 
164.704 164.514 163.873 163.653 162.936 162.689 161.844 161.474 160.569 
160.205 159.505 164.505 164.339 163.745 163.469 162.752 162.439 161.677 
161.329 160.558 160.168 159.509 159.21 158.743 164.297 164.156 163.615 
163.371 162.686 162.343 161.615 161.262 160.587 160.231 159.628 159.297 
158.793 158.539 158.106 164.105 163.951 163.405 163.209 162.544 162.265 
161.537 161.23 160.55 160.26 159.636 159.36 158.775 158.54 158.017 
157.838 157.398 163.948 163.759 163.173 162.973 162.307 162.073 161.361 
161.104 160.411 160.164 159.498 159.26 158.591 158.383 157.761 157.632 
157.138 157.085 156.744 156.429 156.677 156.308 155.89 157.215 156.623 
156.069 155.704 155.32 158.061 157.306 156.687 156.041 155.592 155.235 
155.046 159.034 158.266 157.681 156.857 156.337 155.717 155.494 155.178 
155.14 159.99 159.279 158.794 157.963 157.426 156.624 156.24 155.729 
155.571 155.297 155.114 160.935 160.257 159.863 159.11 158.668 157.815 
157.348 156.576 156.204 155.71 155.406 155.085 154.721 161.879 161.22 
160.845 160.166 159.815 159.069 158.684 157.817 157.368 156.527 156.117 
155.491 155.184 154.735 154.505 162.808 162.179 161.813 161.139 160.783 
160.138 159.828 159.12 158.743 157.858 157.407 156.508 156.193 155.495 
155.392 154.851 154.85 163.679 163.124 162.828 162.145 161.779 161.092 
160.771 160.153 159.862 159.16 158.768 157.901 157.514 156.706 156.55 
155.934 155.96 155.417 155.455 156.253 155.761 156.003 155.935 155.202 
155.457 155.401 155.637 155.467 154.873 154.944 154.854 155.055 154.877 
155.053 154.792 154.867 154.732 154.485 154.535 154.345 154.486 154.264 
154.393 154.225 154.772 154.682 154.226 154.163 153.818 153.95 153.775 
153.948 153.819 153.967 153.931 154.358 154.379 153.879 153.816 153.316 
153.381 153.145 153.407 153.332 153.572 153.492 153.703 153.684 154.11 
153.977 153.6 153.481 153.069 152.967 152.692 152.804 152.751 153.017 
152.971 153.207 153.122 153.388 153.39 154.399 154.005 153.698 153.427 
153.175 152.936 152.704 152.561 152.463 152.541 152.542 152.707 152.644 
152.824 152.782 153.081 153.16 154.959 154.47 154.109 153.731 153.478 
153.194 152.946 152.695 152.47 152.381 152.315 152.398 152.377 152.458 
152.39 152.534 152.565 152.89 153.05 155.119 154.998 154.764 154.244 
154.994 154.662 154.136 153.952 153.564 155.247 154.761 154.124 153.831 
153.353 153.271 152.938 155.655 155.099 154.362 153.873 153.191 152.965 
152.523 152.577 152.361 156.136 155.552 154.87 154.237 153.491 152.935 
152.385 152.199 152.041 152.148 152.191 156.748 156.111 155.533 154.876 
154.275 153.524 152.987 152.405 152.216 152.038 152.135 152.181 152.284 
157.456 156.797 156.236 155.608 155.11 154.433 153.95 153.255 152.922 
152.465 152.374 152.222 152.227 152.244 152.269 158.143 157.522 156.968 
156.34 155.837 155.234 154.753 154.146 153.702 153.172 152.861 152.519 
152.371 152.231 152.233 152.254 152.405 158.751 158.204 157.716 157.101 
156.617 155.98 155.504 154.88 154.442 153.87 153.546 153.067 152.914 
152.56 152.6 152.412 152.63 152.602 152.921 155.724 156.623 155.997 
155.625 157.623 156.965 156.678 155.963 155.668 158.815 158.097 157.922 
157.16 156.939 156.162 155.974 160.129 159.394 159.26 158.506 158.346 
157.541 157.337 156.547 156.376 161.49 160.756 160.65 159.889 159.746 
158.957 158.759 157.943 157.732 156.955 156.818 162.875 162.155 162.106 
161.336 161.212 160.382 160.191 159.357 159.172 158.363 158.239 157.471 
157.426 164.139 163.493 163.433 162.768 162.662 161.876 161.65 160.795 
160.566 159.777 159.656 158.927 158.878 158.146 158.127 165.247 164.649 
164.52 163.951 163.823 163.199 162.956 162.194 161.867 161.095 160.871 
160.22 160.135 159.522 159.467 158.804 158.754 166.295 165.719 165.569 
164.968 164.784 164.207 163.965 163.338 163.013 162.305 162.006 161.345 
161.199 160.64 160.582 160.022 159.95 159.345 159.281 164.059 164.411 
163.95 163.273 164.699 164.278 163.586 163.042 162.231 164.907 164.514 
163.83 163.322 162.483 161.935 161.163 165.15 164.709 164.015 163.529 
162.72 162.183 161.381 160.909 160.226 165.553 165.025 164.311 163.743 
162.952 162.416 161.637 161.14 160.384 159.943 159.186 166.028 165.505 
164.795 164.129 163.284 162.675 161.897 161.394 160.618 160.104 159.273 
158.796 157.991 166.346 165.937 165.247 164.629 163.725 163.046 162.196 
161.657 160.89 160.354 159.517 158.949 158.169 157.689 157.056 166.454 
166.132 165.459 164.984 164.113 163.473 162.573 161.975 161.197 160.651 
159.865 159.267 158.508 157.978 157.401 156.959 156.479 166.487 166.165 
165.5 165.116 164.353 163.825 162.994 162.381 161.599 161.011 160.276 
159.676 158.95 158.38 157.77 157.321 156.832 156.431 155.949 164.534 
165.277 164.905 164.891 166.054 165.651 165.638 165.25 165.192 166.885 
166.457 166.46 166.045 166.031 165.565 165.464 167.689 167.266 167.316 
166.939 167.037 166.543 166.508 165.896 165.779 168.602 168.085 168.106 
167.761 167.96 167.613 167.693 167.082 166.952 166.262 166.162 169.736 
169.123 169.039 168.539 168.625 168.391 168.57 168.219 168.142 167.486 
167.284 166.65 166.565 170.749 170.264 170.132 169.519 169.355 168.961 
169.027 168.871 168.931 168.554 168.361 167.747 167.537 166.989 166.862 
171.337 171.066 170.937 170.487 170.211 169.692 169.52 169.25 169.28 
169.119 169.037 168.657 168.404 167.898 167.685 167.197 167.003 171.646 
171.445 171.28 171.042 170.796 170.414 170.146 169.771 169.632 169.411 
169.302 169.089 168.856 168.552 168.307 167.947 167.758 167.303 167.077 
171.725 171.583 171.526 171.282 171.411 171.336 171.07 171.073 170.824 
171.286 171.16 170.844 170.829 170.612 170.604 170.307 171.054 170.988 
170.595 170.576 170.359 170.409 170.202 170.109 169.808 170.536 170.615 
170.203 170.249 170.021 170.149 169.988 169.991 169.683 169.594 169.308 
170.032 170.082 169.734 169.777 169.557 169.756 169.658 169.762 169.462 
169.381 169.007 169.023 168.784 169.889 169.809 169.522 169.399 169.136 
169.253 169.197 169.404 169.24 169.195 168.854 168.748 168.515 168.536 
168.363 169.755 169.771 169.503 169.335 168.987 168.912 168.759 168.928 
168.866 168.971 168.767 168.695 168.487 168.415 168.269 168.197 167.953 
169.187 169.433 169.173 169.226 168.871 168.799 168.52 168.555 168.406 
168.548 168.375 168.488 168.268 168.34 168.123 168.124 167.819 167.719 
167.298 168.641 167.793 168.377 168.663 167.017 167.524 167.817 168.371 
168.527 166.214 166.719 166.964 167.555 167.823 168.24 168.305 165.207 
165.791 165.979 166.648 166.924 167.508 167.647 168.027 168.093 164.087 
164.703 164.865 165.557 165.772 166.47 166.582 167.175 167.231 167.768 
167.908 162.955 163.588 163.748 164.409 164.574 165.244 165.312 165.951 
165.987 166.674 166.865 167.561 167.808 161.798 162.449 162.593 163.26 
163.384 164.038 164.097 164.701 164.737 165.385 165.582 166.376 166.73 
167.466 167.708 160.706 161.309 161.435 162.069 162.156 162.805 162.873 
163.511 163.603 164.225 164.406 165.115 165.428 166.249 166.548 167.271 
167.38 159.751 160.283 160.418 160.967 161.06 161.615 161.696 162.306 
162.47 163.128 163.373 164.029 164.295 164.985 165.232 165.974 166.127 
166.81 166.828 168.4 167.92 167.956 167.613 167.736 167.667 167.384 
167.295 166.967 167.458 167.539 167.298 167.212 166.843 166.687 166.233 
166.641 166.998 166.669 166.888 166.413 166.455 165.861 165.795 165.192 
165.481 165.91 165.453 165.854 165.287 165.627 165.007 165.199 164.539 
164.598 163.997 164.372 164.714 164.243 164.553 163.998 164.331 163.804 
164.139 163.597 163.805 163.204 163.338 162.795 163.382 163.653 163.194 
163.443 162.928 163.173 162.694 162.991 162.535 162.805 162.261 162.453 
161.875 162.084 161.594 162.49 162.688 162.179 162.414 161.885 162.15 
161.646 161.944 161.456 161.75 161.213 161.455 160.884 161.112 160.609 
160.881 160.483 161.704 161.828 161.275 161.427 160.878 161.101 160.6 
160.88 160.394 160.672 160.16 160.407 159.893 160.128 159.671 159.924 
159.549 159.836 159.527 168.82 169.271 168.795 168.339 169.78 169.345 
168.919 168.39 168.039 170.136 169.89 169.525 168.989 168.471 168.05 
167.666 170.058 170.079 169.789 169.48 168.871 168.397 167.775 167.464 
166.899 169.713 169.805 169.556 169.518 169.006 168.668 167.95 167.532 
166.828 166.507 165.819 169.449 169.44 169.138 169.163 168.757 168.639 
168.027 167.677 166.921 166.491 165.747 165.396 164.716 169.216 169.178 
168.775 168.745 168.273 168.261 167.716 167.602 166.917 166.587 165.803 
165.393 164.679 164.353 163.739 168.892 168.875 168.435 168.373 167.827 
167.756 167.169 167.141 166.529 166.419 165.707 165.421 164.694 164.362 
163.746 163.449 162.894 168.548 168.518 168.103 168.037 167.539 167.391 
166.807 166.655 166.059 165.96 165.346 165.204 164.551 164.327 163.718 
163.469 162.928 162.65 162.122 168.211 167.444 167.827 167.748 166.446 
166.975 166.949 167.34 167.197 165.231 165.858 165.861 166.423 166.305 
166.688 166.446 163.983 164.601 164.567 165.2 165.119 165.662 165.441 
165.843 165.607 162.794 163.408 163.402 163.944 163.872 164.414 164.261 
164.746 164.526 164.985 164.824 161.677 162.282 162.359 162.865 162.781 
163.246 163.098 163.572 163.392 163.862 163.696 164.198 164.068 160.789 
161.272 161.324 161.806 161.668 162.137 161.931 162.427 162.237 162.728 
162.56 163.058 162.935 163.442 163.316 160.072 160.459 160.399 160.782 
160.571 160.975 160.735 161.222 161.037 161.554 161.379 161.893 161.744 
162.288 162.181 162.701 162.563 159.246 159.655 159.502 159.86 159.612 
159.94 159.71 160.101 159.956 160.404 160.253 160.71 160.533 161.054 
160.93 161.512 161.408 161.938 161.776 158.672 157.798 158.448 158.87 
157.049 157.544 157.92 158.597 158.981 156.643 156.889 157.154 157.691 
158.135 158.75 159.15 156.413 156.581 156.74 157.066 157.473 158.006 
158.487 159.018 159.432 155.925 156.266 156.414 156.72 157.021 157.448 
157.884 158.391 158.79 159.3 159.673 155.118 155.578 155.721 156.216 
156.48 156.979 157.349 157.827 158.182 158.638 158.964 159.489 159.892 
154.431 154.757 154.817 155.321 155.538 156.202 156.58 157.227 157.618 
158.094 158.427 158.841 159.24 159.766 160.283 154.008 154.214 154.235 
154.512 154.623 155.145 155.455 156.225 156.674 157.419 157.831 158.362 
158.748 159.211 159.692 160.237 160.78 153.566 153.833 153.922 154.118 
154.217 154.445 154.623 155.111 155.475 156.267 156.757 157.575 158.03 
158.67 159.093 159.651 160.116 160.699 161.164 161.117 160.074 160.609 
160.643 159.025 159.541 159.543 160.109 160.192 157.828 158.4 158.351 
158.977 159.051 159.7 159.885 156.409 157.025 156.912 157.664 157.774 
158.534 158.732 159.433 159.663 155.203 155.647 155.57 156.219 156.411 
157.214 157.511 158.268 158.505 159.198 159.417 154.564 154.779 154.841 
155.188 155.42 155.994 156.339 157.053 157.355 158.05 158.279 158.953 
159.182 154.201 154.37 154.426 154.682 154.789 155.18 155.344 155.928 
156.16 156.872 157.131 157.843 158.101 158.766 159.02 153.759 153.939 
153.79 154.107 153.992 154.417 154.352 154.888 154.949 155.637 155.864 
156.646 156.953 157.697 157.994 158.652 158.929 153.267 153.371 153.052 
153.29 153.055 153.439 153.337 153.825 153.881 154.469 154.706 155.413 
155.773 156.531 156.9 157.619 157.952 158.603 158.915 165.015 164.211 
164.917 165.507 163.317 164.056 164.628 165.373 165.953 162.27 163.075 
163.613 164.427 165.034 165.813 166.409 161.158 161.978 162.52 163.351 
163.973 164.841 165.499 166.287 166.879 160.247 160.955 161.537 162.283 
162.913 163.772 164.477 165.336 165.994 166.748 167.326 159.671 160.205 
160.738 161.362 161.956 162.76 163.493 164.351 165.059 165.842 166.481 
167.21 167.804 159.397 159.76 160.176 160.62 161.11 161.821 162.556 
163.422 164.184 164.962 165.61 166.346 166.963 167.692 168.225 159.307 
159.58 159.976 160.209 160.628 161.086 161.776 162.535 163.344 164.126 
164.797 165.503 166.086 166.81 167.345 168.03 168.407 159.207 159.518 
159.974 160.159 160.588 160.824 161.432 161.926 162.683 163.343 164.029 
164.702 165.286 165.965 166.498 167.154 167.572 168.14 168.397 165.639 
166.168 166.202 166.762 166.632 166.714 167.326 167.341 167.865 167.101 
167.184 167.845 167.905 168.518 168.463 168.945 167.566 167.665 168.353 
168.449 169.139 169.147 169.729 169.582 170.022 167.995 168.104 168.778 
168.928 169.644 169.759 170.398 170.359 170.862 170.671 171.034 168.465 
168.54 169.174 169.304 170.012 170.202 170.898 170.978 171.534 171.456 
171.875 171.643 171.859 168.855 168.983 169.561 169.678 170.339 170.544 
171.296 171.459 172.096 172.09 172.55 172.413 172.669 172.347 172.338 
168.956 169.209 169.71 169.935 170.503 170.791 171.499 171.799 172.432 
172.567 172.967 172.956 173.159 173.009 172.971 172.622 172.398 168.851 
169.143 169.573 169.888 170.367 170.758 171.349 171.801 172.321 172.651 
172.882 173.063 173.091 173.197 173.094 173.018 172.746 172.476 172.163 
165.5 166.6 165.901 165.6 167.677 166.991 166.652 165.961 165.64 
168.701 168.031 167.682 166.989 166.613 165.955 165.615 169.716 169.032 
168.653 167.974 167.577 166.91 166.511 165.874 165.495 170.679 170.011 
169.568 168.894 168.451 167.814 167.372 166.737 166.28 165.675 165.262 
171.429 170.859 170.339 169.716 169.201 168.61 168.146 167.546 167.055 
166.425 165.938 165.381 164.988 171.856 171.435 170.886 170.36 169.8 
169.264 168.781 168.256 167.793 167.194 166.691 166.066 165.618 165.098 
164.756 171.975 171.717 171.244 170.835 170.316 169.807 169.286 168.797 
168.322 167.844 167.365 166.812 166.333 165.764 165.377 164.888 164.583 
171.87 171.761 171.428 171.171 170.763 170.318 169.776 169.253 168.692 
168.25 167.765 167.357 166.901 166.431 166.012 165.527 165.195 164.74 
164.451 169.284 169.818 169.593 169.606 169.94 169.885 169.855 169.801 
169.901 170.162 169.989 169.938 169.859 169.919 170.016 170.141 170.814 
170.49 170.504 170.126 170.16 170.032 170.159 170.171 170.144 171.395 
171.234 171.309 170.903 170.904 170.539 170.629 170.376 170.371 170.127 
169.949 171.587 171.631 171.683 171.522 171.455 171.243 171.276 171.026 
170.993 170.591 170.392 169.993 169.768 171.706 171.756 171.864 171.748 
171.7 171.569 171.627 171.545 171.581 171.279 171.049 170.564 170.237 
169.839 169.56 171.912 171.959 172.231 172.086 172.2 171.931 172.075 
171.902 172.068 171.828 171.689 171.212 170.811 170.32 169.938 169.575 
169.248 172.053 172.184 172.563 172.563 172.822 172.605 172.77 172.51 
172.65 172.381 172.282 171.83 171.416 170.873 170.415 169.97 169.607 
169.248 168.922 
POINT_DATA 1002
SCALARS Distance double
LOOKUP_TABLE default
158.018 158.855 158.012 157.303 157.283 157.197 156.923 156.909 156.833 
156.699 156.749 156.818 156.684 156.608 156.516 156.543 156.78 156.362 
156.328 156.311 156.215 156.439 156.702 156.087 155.842 155.773 155.679 
155.491 156.453 156.6 156.148 155.69 155.367 155.142 154.91 154.693 
156.4 156.548 156.152 155.639 155.167 154.858 154.571 154.342 154.195 
156.311 156.551 155.994 155.386 154.791 154.494 154.279 154.037 153.87 
153.793 156.199 156.499 155.862 155.241 154.521 154.116 153.936 153.69 
153.436 153.283 153.241 159.029 158.113 159.11 158.097 159.237 157.228 
158.139 159.581 157.073 156.814 158.691 160.326 157.282 156.839 156.93 
159.968 161.447 158.419 157.565 157.384 157.112 161.41 162.582 160.088 
158.994 158.373 157.773 157.049 162.478 163.511 161.408 160.316 159.386 
158.586 157.699 156.935 163.308 164.326 162.345 161.313 160.164 159.17 
158.379 157.608 156.956 164.114 165.094 163.226 162.327 161.137 159.848 
158.942 158.327 157.668 157.01 165.21 164.294 165.299 164.485 165.332 
163.505 164.491 165.272 163.672 162.495 164.305 165.106 163.476 162.441 
161.042 164.137 164.873 163.183 162.153 160.942 159.727 164.013 164.635 
163.092 161.986 160.9 159.84 158.966 163.825 164.435 163.013 161.958 
160.908 159.962 159.091 158.331 163.598 164.286 162.794 161.829 160.831 
159.918 159.036 158.207 157.523 163.396 164.164 162.53 161.603 160.658 
159.749 158.832 157.912 157.172 156.727 156.066 156.137 155.472 156.566 
155.509 154.984 157.447 156.054 155.219 154.94 158.526 157.077 155.885 
155.382 155.104 159.568 158.293 156.915 155.925 155.413 154.833 160.551 
159.475 158.241 156.895 155.797 155.015 154.32 161.51 160.478 159.496 
158.321 156.893 155.667 154.873 154.324 162.501 161.433 160.443 159.549 
158.365 156.968 155.947 155.358 154.872 163.48 162.506 161.403 160.469 
159.57 158.373 157.207 156.5 156.025 155.47 155.748 155.154 155.305 
154.7 154.713 154.62 154.564 154.197 154.132 154.045 154.386 153.734 
153.528 153.673 153.747 153.925 153.334 152.886 153.027 153.303 153.433 
153.691 153.19 152.689 152.506 152.726 152.89 153.048 154.004 153.405 
152.935 152.493 152.396 152.51 152.538 152.764 154.539 153.789 153.246 
152.662 152.26 152.294 152.333 152.306 152.629 155.35 154.408 155.238 
154.343 155.403 153.662 154.54 155.801 153.493 152.91 154.96 156.209 
153.59 152.499 152.165 155.49 156.711 154.166 152.726 151.94 152.022 
156.135 157.402 154.977 153.687 152.556 152.159 152.23 156.859 158.112 
155.717 154.639 153.53 152.687 152.282 152.175 157.599 158.721 156.449 
155.348 154.276 153.307 152.596 152.243 152.286 158.294 159.24 157.259 
156.148 155.02 154.033 153.304 152.848 152.713 152.896 156.356 156.289 
157.226 157.383 158.262 156.365 158.65 159.536 157.736 156.72 160 
160.856 159.134 158.171 157.122 161.416 162.204 160.537 159.57 158.54 
157.537 162.848 163.579 162.06 161.041 159.964 159.016 158.168 164.056 
164.788 163.4 162.529 161.382 160.356 159.599 158.87 165.106 165.849 
164.402 163.67 162.672 161.55 160.71 160.101 159.432 166.205 166.834 
165.401 164.553 163.676 162.695 161.778 161.112 160.536 159.885 164.535 
163.837 164.864 164.136 165.101 162.788 164.311 165.313 163.047 161.62 
164.507 165.634 163.234 161.886 160.642 164.939 166.092 163.493 162.134 
160.895 159.62 165.49 166.508 163.962 162.404 161.16 159.803 158.399 
165.818 166.717 164.442 162.779 161.413 160.103 158.648 157.464 165.867 
166.783 164.698 163.205 161.741 160.442 159.055 157.825 156.916 164.906 
165.277 165.652 166.028 166.488 165.614 166.859 167.314 166.499 165.985 
167.63 168.13 167.465 167.151 166.394 168.5 169.182 168.193 168.227 
167.705 166.764 169.694 170.337 168.93 168.758 168.731 167.996 167.099 
170.766 171.147 169.94 169.202 169.129 168.941 168.153 167.364 171.288 
171.58 170.76 169.94 169.424 169.294 168.883 168.183 167.513 171.471 