# vtk DataFile Version 4.0
vtk output
ASCII
DATASET POLYDATA
POINTS 1002 float
-78.9643 -114.312 74.0267 -78.7458 -115.784 73.3617 -78.6839 -115.283 72.4848 
-79.0579 -113.698 73.1539 -78.6548 -114.555 71.6417 -79.2283 -112.706 74.6455 
-79.158 -112.852 72.2338 -78.7372 -113.691 70.7878 -79.4505 -111.991 73.7536 
-79.6181 -111.098 75.1514 -79.3913 -111.959 71.3406 -79.0547 -112.837 69.958 
-79.709 -111.123 72.8424 -80.0313 -110.36 74.2871 -80.2368 -109.439 75.6701 
-80.0128 -111.278 70.6199 -79.7611 -112.134 69.3048 -80.2589 -110.374 72.0493 
-80.6223 -109.61 73.4841 -80.9387 -108.739 74.8687 -81.1001 -107.791 76.1884 
-81.0421 -110.778 70.1038 -80.8329 -111.559 68.9257 -81.2517 -109.857 71.4473 
-81.4969 -108.975 72.7995 -81.7579 -108.062 74.1356 -81.8695 -107.044 75.4388 
-81.8786 -106.13 76.5842 -82.1245 -110.103 69.7067 -82.0702 -110.873 68.7471 
-82.3107 -109.232 70.9234 -82.489 -108.303 72.2078 -82.5829 -107.316 73.4588 
-82.5845 -106.245 74.714 -82.5128 -105.241 75.8835 -82.4094 -104.362 76.8914 
-83.1355 -109.165 69.4422 -83.2978 -110.003 68.6814 -83.1561 -108.297 70.4378 
-83.3036 -107.404 71.6228 -83.3642 -106.439 72.8331 -83.2941 -105.363 74.0071 
-83.1936 -104.34 75.1578 -83.0932 -103.487 76.2064 -82.9495 -102.71 77.159 
-84.2191 -108.28 69.3642 -84.4077 -109.13 68.6802 -84.1008 -107.393 70.1607 
-84.1197 -106.485 71.13 -84.147 -105.554 72.2326 -84.0838 -104.534 73.3314 
-83.9864 -103.508 74.4212 -83.8816 -102.657 75.4872 -83.7313 -101.956 76.4502 
-83.5348 -101.308 77.3535 -85.3209 -107.59 69.3581 -85.3616 -108.353 68.6576 
-85.26 -106.751 70.0923 -85.1993 -105.806 70.8682 -85.083 -104.816 71.746 
-84.9037 -103.806 72.6832 -84.7705 -102.802 73.6753 -84.6756 -101.925 74.7517 
-84.4919 -101.204 75.7692 -84.2186 -100.562 76.6408 -83.966 -100.009 77.4726 
-78.3062 -116.692 72.2109 -78.1066 -116.052 71.2915 -77.5861 -117.114 71.232 
-77.307 -116.327 70.1842 -76.8906 -117.404 70.2922 -77.9798 -115.264 70.4397 
-76.5803 -116.633 68.7584 -76.5029 -118.284 69.0403 -77.1115 -115.598 69.0171 
-78.0869 -114.429 69.4934 -76.2524 -117.607 66.96 -76.4814 -119.551 67.86 
-76.4723 -116.114 66.8906 -77.3735 -114.951 67.675 -78.57 -113.569 68.5608 
-76.544 -118.783 65.965 -76.9646 -120.434 67.4748 -76.5116 -117.17 64.9382 
-77.1092 -115.763 65.4373 -78.1878 -114.271 66.8472 -79.4904 -112.821 68.0461 
-77.518 -119.626 66.2855 -78.0227 -121.09 67.574 -77.2789 -118.187 64.8115 
-77.5356 -116.887 64.421 -78.2709 -115.314 65.5298 -79.429 -113.629 66.9711 
-80.8389 -112.22 67.9878 -78.8906 -120.452 66.8164 -79.3422 -121.865 67.5603 
-78.5065 -118.963 65.9282 -78.4612 -117.746 65.2855 -78.8779 -116.367 65.5185 
-79.7839 -114.615 66.4348 -81.1118 -112.991 67.3338 -82.4068 -111.524 68.0352 
-80.278 -121.264 66.9566 -80.6179 -122.421 67.5743 -79.8932 -119.79 66.614 
-79.6984 -118.396 66.3685 -79.9374 -117.021 66.1481 -80.6228 -115.37 66.2401 
-81.6906 -113.725 66.7512 -82.8765 -112.223 67.4118 -83.7921 -110.653 68.0477 
-81.5542 -121.681 67.0888 -81.7972 -122.508 67.851 -81.2648 -120.499 66.7113 
-81.0824 -119.094 66.6241 -81.2749 -117.571 66.358 -81.8306 -115.889 65.9456 
-82.5688 -114.276 66.0212 -83.4068 -112.855 66.6754 -84.1982 -111.339 67.417 
-84.8253 -109.733 68.0458 -82.8666 -121.911 67.7323 -82.6901 -121.092 66.9629 
-84.0722 -121.26 67.6438 -84.0116 -120.406 66.8692 -85.3305 -120.554 67.5527 
-82.54 -119.931 66.5713 -85.4143 -119.528 66.8143 -86.6095 -119.589 67.4906 
-84.0667 -119.144 66.3719 -82.6659 -118.393 66.273 -86.8651 -118.338 66.9143 
-87.9557 -118.324 67.5313 -85.5998 -118.079 66.4212 -84.3746 -117.423 65.8999 
-83.1424 -116.561 65.6973 -88.339 -116.851 67.1939 -89.191 -116.821 67.8173 
-87.1213 -116.732 66.8081 -85.8267 -116.308 66.2073 -84.7425 -115.547 65.4938 
-83.6748 -114.78 65.4257 -89.5664 -115.066 67.6671 -90.1562 -115.068 68.3923 
-88.6377 -115.026 67.2077 -87.3184 -114.872 66.8036 -86.0296 -114.474 66.1905 
-85.0196 -113.856 65.7833 -84.1657 -113.276 66.03 -90.5613 -113.209 68.257 
-91.1348 -113.338 68.9507 -89.8837 -113.128 67.6106 -88.9005 -113.038 67.122 
-87.6379 -112.867 66.7416 -86.3899 -112.55 66.5205 -85.4058 -112.113 66.5845 
-84.7267 -111.688 66.9343 -91.6711 -111.675 68.6573 -92.3218 -111.965 69.1833 
-90.9926 -111.501 68.0366 -90.228 -111.339 67.4443 -89.2823 -111.06 66.9743 
-88.1288 -110.708 66.7787 -86.9208 -110.383 66.8943 -85.9532 -110.111 67.1925 
-85.3238 -109.901 67.5976 -92.8778 -110.487 68.7376 -93.4887 -110.896 69.1591 
-92.2342 -110.231 68.2365 -91.5032 -110.024 67.7634 -90.6231 -109.623 67.3402 
-89.6201 -109.033 67.0275 -88.5259 -108.547 66.9814 -87.4278 -108.323 67.2179 
-86.538 -108.295 67.6441 -85.9072 -108.336 68.165 -86.3155 -107.138 69.0096 
-86.9568 -106.941 68.408 -87.3075 -105.758 69.3063 -87.7591 -106.722 67.8332 
-88.0527 -105.443 68.701 -88.1093 -103.994 69.426 -88.7345 -106.649 67.4654 
-88.9955 -105.178 68.2423 -89.0902 -103.731 68.9447 -88.8671 -102.095 69.4267 
-89.7724 -106.908 67.3498 -89.9704 -105.002 67.9284 -90.2779 -103.504 68.5642 
-90.2191 -101.991 69.0536 -89.8706 -100.545 69.6035 -90.9533 -107.565 67.4248 
-91.1113 -105.133 67.6373 -91.3701 -103.138 68.0053 -91.5878 -101.765 68.5469 
-91.3156 -100.443 69.2079 -90.8759 -99.2368 70.0072 -92.1916 -108.299 67.585 
-92.6522 -105.809 67.4233 -92.7105 -103.162 67.4104 -92.6862 -101.395 67.8072 
-92.5769 -100.227 68.6073 -92.1431 -99.0079 69.5217 -91.6523 -97.9386 70.4086 
-93.0944 -108.748 67.8557 -93.9616 -106.66 67.4596 -94.2772 -104.011 67.2417 
-93.9552 -101.694 67.4374 -93.6348 -100.17 68.0957 -93.413 -98.9172 68.9989 
-92.9749 -97.7462 69.9204 -92.4448 -96.8543 70.7952 -93.6442 -109.052 68.3165 
-94.5215 -107.275 67.8597 -95.2188 -105.09 67.5862 -95.2264 -102.789 67.6966 
-94.8137 -100.787 68.1365 -94.6219 -99.1431 68.7496 -94.4571 -97.7989 69.5164 
-93.9785 -96.8203 70.4021 -93.3604 -96.0999 71.2764 -94.14 -109.488 68.8397 
-94.7815 -107.811 68.489 -95.4876 -105.936 68.2235 -95.9433 -103.946 68.2323 
-95.8821 -101.867 68.5229 -95.713 -99.8351 68.8939 -95.6873 -98.1322 69.3619 
-95.4575 -96.9505 70.0922 -94.8908 -96.1829 70.9963 -94.2147 -95.5561 71.8467 
-86.3874 -106.351 69.8081 -87.3152 -104.724 70.0618 -86.384 -105.365 70.5674 
-87.9179 -102.659 70.0413 -87.2044 -103.508 70.792 -86.2095 -104.235 71.3208 
-88.6691 -100.834 70.1082 -87.7983 -101.502 70.8807 -86.8833 -102.32 71.5839 
-85.8319 -103.091 72.1144 -89.7911 -99.5325 70.5456 -88.7667 -99.9959 71.2462 
-87.5779 -100.506 71.8965 -86.3766 -101.161 72.3979 -85.4871 -101.998 72.9898 
-90.7422 -98.2454 71.0394 -89.8715 -98.7273 71.7901 -88.5978 -99.0526 72.4155 
-87.108 -99.3798 72.8236 -86.0396 -100.116 73.3571 -85.3559 -101.066 74.0843 
-91.4153 -96.9226 71.3891 -90.5601 -97.2493 72.1389 -89.43 -97.5885 72.8348 
-87.9847 -97.8559 73.2932 -86.7749 -98.423 73.8192 -85.9297 -99.3403 74.5721 
-85.1978 -100.304 75.2599 -92.1714 -95.8943 71.7712 -91.1207 -95.8516 72.3928 
-89.9796 -96.0415 73.0742 -88.6687 -96.4058 73.6292 -87.537 -96.9857 74.1999 
-86.5891 -97.772 74.9815 -85.6363 -98.6404 75.7214 -84.8299 -99.5852 76.2306 
-93.0389 -95.1941 72.2621 -91.8689 -94.8616 72.7524 -90.6547 -94.7834 73.3597 
-89.3408 -95.0869 73.9783 -88.2016 -95.7081 74.5895 -87.2621 -96.4492 75.3256 
-86.1822 -97.1511 76.0725 -85.1254 -97.9433 76.6238 -84.4339 -98.9564 77.0474 
-94.2509 -94.8602 72.772 -93.0325 -94.369 73.1832 -94.2017 -94.2739 73.9472 
-92.9025 -93.828 74.464 -94.024 -94.0375 75.6222 -91.742 -94.0247 73.7382 
-92.6506 -93.7676 76.3845 -93.7496 -94.0327 77.7285 -91.5061 -93.6913 75.2239 
-90.3489 -94.0956 74.4565 -92.3601 -93.8391 78.6215 -93.4448 -94.0761 79.6481 
-91.1622 -93.7698 77.3287 -90.009 -93.9251 76.1384 -88.9833 -94.604 75.2119 
-92.0174 -93.966 80.4136 -93.1021 -94.4614 81.059 -90.7358 -93.8031 79.4451 
-89.5509 -93.9411 78.2123 -88.6102 -94.4526 76.9707 -87.8725 -95.3473 75.9556 
-91.5784 -94.5823 81.7044 -92.7114 -95.2554 82.2864 -90.2532 -94.0524 81.0172 
-89.0663 -94.031 80.0325 -88.1827 -94.534 78.8143 -87.4264 -95.2279 77.5907 
-86.7277 -96.06 76.6465 -91.1426 -95.5383 82.9027 -92.2775 -96.0475 83.4761 
-89.8193 -94.9046 82.3017 -88.6777 -94.5873 81.4947 -87.8768 -94.9778 80.4039 
-87.0858 -95.5742 79.1831 -86.1713 -96.0256 78.0424 -85.459 -96.7571 77.1885 
-90.7699 -96.3917 84.015 -91.7955 -96.7542 84.4621 -89.5252 -95.9718 83.519 
-88.3853 -95.5818 82.8681 -87.5815 -95.698 81.9034 -86.8462 -96.1935 80.7339 
-85.9031 -96.5102 79.5473 -85.0226 -96.8627 78.4751 -84.5528 -97.7234 77.6465 
-90.4178 -97.1704 84.9231 -91.315 -97.5766 85.2258 -89.3021 -96.8882 84.5477 
-88.1629 -96.6074 84.0662 -87.2232 -96.5058 83.3062 -86.4479 -96.7384 82.26 
-85.652 -97.0562 81.1145 -84.8734 -97.3664 79.9844 -84.3219 -97.9539 78.957 
-84.0633 -98.9093 78.1235 -95.3505 -95.5217 72.0313 -95.3532 -94.9492 73.2143 
-96.2426 -95.7392 72.4359 -96.1823 -95.3424 73.9496 -96.8714 -96.4911 73.1889 
-95.2832 -94.5771 74.7547 -96.7119 -96.183 74.921 -97.4845 -97.7038 74.1595 
-96.071 -95.1423 75.8074 -95.0782 -94.4894 76.7307 -97.2068 -97.3455 75.8804 
-97.9708 -98.8904 75.04 -96.5431 -95.9772 76.8589 -95.8555 -95.1525 77.8133 
-94.7282 -94.504 78.7537 -97.5957 -98.6141 76.7645 -97.8685 -99.963 75.8573 
-97.0197 -97.115 77.7937 -96.4004 -96.064 78.7357 -95.4898 -95.3395 79.5771 
-94.3206 -94.7176 80.3766 -97.5787 -100.03 77.7541 -97.4361 -101.364 76.8246 
-97.4156 -98.5978 78.7335 -96.8991 -97.3357 79.6131 -96.1065 -96.4834 80.3971 
-95.0696 -95.7945 81.1326 -93.9499 -95.3321 81.7802 -97.4603 -101.694 78.7746 
-97.3655 -103.169 77.8292 -97.4802 -100.311 79.6628 -97.1404 -98.9943 80.4227 
-96.5148 -97.8773 81.2051 -95.7075 -97.032 82.0035 -94.7134 -96.3936 82.6678 
-93.5653 -96.0609 83.1425 -97.5714 -103.478 79.5731 -97.6133 -104.96 78.6416 
-97.4495 -102.075 80.404 -97.1102 -100.822 81.0588 -96.6141 -99.5753 81.7998 
-96.0709 -98.4471 82.6791 -95.3085 -97.6138 83.4122 -94.2416 -97.0509 83.9058 
-93.0276 -96.7654 84.235 -97.6723 -105.159 80.1114 -97.7081 -106.443 79.2326 
-97.4508 -103.793 80.9212 -97.0753 -102.589 81.5649 -96.6441 -101.42 82.2613 
[...]
CELL_DATA 2000
SCALARS Distance double
LOOKUP_TABLE default
156.591 155.742 156.103 155.909 154.772 155.192 155.034 155.389 155.176 
153.852 154.221 154.083 154.476 154.352 154.696 154.532 153.256 153.459 
153.393 153.648 153.634 153.944 153.914 154.158 154.048 153.079 153.124 
153.163 153.229 153.277 153.428 153.474 153.65 153.583 153.737 153.578 
153.065 153.065 153.072 153.124 153.118 153.205 153.159 153.278 153.141 
153.27 153.037 153.191 152.913 153.012 152.979 152.817 152.91 152.779 
152.934 152.768 152.906 152.655 152.771 152.472 152.609 152.317 152.467 
152.186 152.984 152.876 152.629 152.603 152.412 152.494 152.316 152.434 
152.184 152.267 151.965 152.054 151.789 151.915 151.69 151.811 151.597 
153.008 152.887 152.699 152.55 152.385 152.272 152.103 152.063 151.837 
151.839 151.558 151.601 151.351 151.45 151.249 151.363 151.152 151.264 
151.05 156.782 156.504 156.425 155.872 155.928 155.943 155.432 155.439 
154.89 155.461 155.274 154.671 154.813 154.37 154.439 153.953 155.506 
154.918 154.056 153.994 153.547 153.781 153.456 153.56 153.256 156.103 
155.197 154.183 153.629 153.089 153.068 152.888 153.044 152.933 153.041 
152.996 157.122 156.068 155.174 154.196 153.665 153.112 153.022 152.822 
152.904 152.861 152.982 153.009 153.092 158.397 157.35 156.66 155.538 
155.08 154.183 154.092 153.483 153.581 153.203 153.378 153.2 153.365 
153.229 153.236 159.618 158.727 158.162 157.142 156.696 155.755 155.539 
154.773 154.681 154.098 154.105 153.763 153.862 153.641 153.658 153.388 
153.274 160.567 159.874 159.379 158.557 158.101 157.26 156.903 156.123 
155.805 155.13 154.89 154.448 154.385 154.14 154.106 153.845 153.695 
153.393 153.226 160.84 160.913 160.512 159.744 161.019 160.615 159.871 
159.401 158.579 161.05 160.709 159.975 159.541 158.725 158.232 157.397 
160.946 160.688 159.99 159.617 158.788 158.329 157.435 156.994 156.183 
160.73 160.549 159.911 159.609 158.829 158.38 157.478 156.992 156.152 
155.784 155.167 160.334 160.258 159.64 159.472 158.754 158.412 157.581 
157.096 156.295 155.838 155.257 154.954 154.614 159.858 159.791 159.17 
159.094 158.411 158.238 157.471 157.156 156.388 156.012 155.385 155.086 
154.674 154.504 154.242 159.559 159.383 158.796 158.649 158.031 157.869 
157.178 156.953 156.208 155.958 155.257 155.059 154.494 154.407 154.011 
154.015 153.729 159.44 159.199 158.645 158.418 157.874 157.635 157.028 
156.733 156.019 155.719 154.988 154.776 154.148 154.064 153.61 153.645 
153.36 153.441 153.239 153.049 153.09 152.981 152.816 153.249 153.013 
152.796 152.707 152.403 153.702 153.256 152.979 152.754 152.492 152.229 
151.738 154.499 153.84 153.44 153.025 152.77 152.462 152.104 151.642 
151.183 155.591 154.802 154.283 153.579 153.133 152.738 152.423 152.095 
151.718 151.267 150.935 156.72 155.998 155.531 154.605 153.953 153.183 
152.687 152.32 152.007 151.732 151.386 151.04 150.747 157.618 157.072 
156.739 155.921 155.317 154.274 153.621 152.802 152.431 152.002 151.786 
151.445 151.188 150.835 150.629 158.373 157.89 157.609 157.005 156.563 
155.693 155.119 154.089 153.619 152.779 152.553 151.989 151.86 151.399 
151.28 150.863 150.802 159.173 158.66 158.387 157.819 157.469 156.816 
156.413 155.586 155.146 154.209 153.841 153.026 152.817 152.214 152.122 
151.648 151.623 151.193 151.201 152.944 152.782 152.842 152.719 152.304 
152.574 152.502 152.587 152.401 151.437 151.828 151.754 152.157 152.031 
152.19 152.004 150.783 150.94 150.824 151.247 151.212 151.593 151.445 
151.698 151.57 150.638 150.569 150.485 150.583 150.578 150.784 150.675 
150.955 150.842 151.205 151.191 150.534 150.53 150.497 150.521 150.476 
150.435 150.228 150.263 150.116 150.415 150.473 150.885 151.003 150.365 
150.358 150.262 150.406 150.288 150.334 150.016 149.951 149.688 149.818 
149.869 150.225 150.419 150.785 150.932 150.45 150.247 150.018 150.04 
149.833 149.938 149.623 149.654 149.376 149.474 149.464 149.728 149.873 
150.209 150.331 150.689 150.794 150.811 150.451 150.12 149.89 149.604 
149.525 149.264 149.257 149.083 149.17 149.186 149.381 149.467 149.696 
149.73 150.03 150.097 150.504 150.646 150.971 151.011 150.693 150.202 
151.325 150.793 150.205 149.931 149.564 152.061 151.305 150.655 150.087 
149.625 149.374 149.154 152.963 152.186 151.543 150.768 150.229 149.653 
149.337 149.088 149.025 153.756 153.061 152.429 151.687 151.079 150.395 
149.97 149.488 149.335 149.12 149.194 154.571 153.845 153.19 152.47 
151.835 151.186 150.727 150.196 149.943 149.565 149.483 149.327 149.406 
155.476 154.727 154.092 153.282 152.68 151.954 151.575 150.998 150.788 
150.264 150.058 149.655 149.535 149.442 149.538 156.287 155.634 155.093 
154.299 153.77 152.962 152.625 151.964 151.813 151.214 151.01 150.376 
150.135 149.696 149.686 149.621 149.88 156.98 156.415 155.979 155.31 
154.866 154.12 153.755 153.068 152.833 152.239 152.02 151.39 151.136 
150.515 150.424 150.036 150.238 150.148 150.507 151.479 152.348 151.805 
151.614 153.418 152.787 152.718 152.088 152.016 154.793 154.001 153.977 
153.324 153.374 152.696 152.762 156.308 155.468 155.351 154.652 154.738 
154.112 154.195 153.523 153.599 157.612 156.936 156.817 156.073 156.113 
155.477 155.584 154.929 154.963 154.305 154.364 158.756 158.204 158.293 
157.583 157.646 156.92 157.04 156.34 156.422 155.699 155.765 155.088 
155.208 160.135 159.506 159.755 159.095 159.231 158.492 158.575 157.848 
157.95 157.223 157.315 156.58 156.683 155.988 156.1 161.755 161.053 
161.258 160.59 160.715 160.016 160.046 159.345 159.4 158.733 158.817 
158.126 158.169 157.461 157.479 156.813 156.842 163.213 162.608 162.698 
162.05 162.092 161.425 161.437 160.758 160.794 160.138 160.199 159.545 
159.546 158.861 158.796 158.122 158.073 157.458 157.469 159.6 160.019 
159.468 158.769 160.453 159.877 159.099 158.542 157.809 160.823 160.298 
159.531 158.909 158.103 157.561 156.817 161.09 160.621 159.884 159.319 
158.464 157.87 157.023 156.511 155.667 161.375 160.865 160.083 159.57 
158.673 158.132 157.18 156.664 155.743 155.256 154.368 161.761 161.166 
160.285 159.711 158.807 158.281 157.394 156.834 155.927 155.352 154.487 
153.988 153.253 162.204 161.557 160.599 159.922 159.016 158.476 157.788 
157.232 156.521 155.777 154.959 154.244 153.532 153.039 152.51 162.702 
162.028 161.082 160.3 159.381 158.775 158.186 157.74 157.229 156.566 
155.801 154.939 154.141 153.449 152.882 152.436 152.022 163.211 162.576 
161.725 160.905 160.018 159.275 158.644 158.16 157.682 157.195 156.499 
155.767 154.902 154.138 153.446 152.881 152.414 152.001 151.609 160.132 
161.04 160.615 160.634 161.952 161.542 161.635 161.151 161.112 162.936 
162.489 162.615 162.171 162.192 161.617 161.483 163.927 163.458 163.555 
163.16 163.257 162.733 162.63 161.956 161.764 164.952 164.408 164.399 
164.015 164.162 163.799 163.839 163.194 163.02 162.265 162.1 166.127 
165.487 165.373 164.828 164.924 164.642 164.894 164.454 164.423 163.635 
163.439 162.66 162.529 167.292 166.697 166.556 165.872 165.817 165.413 
165.72 165.483 165.687 165.067 164.864 164.024 163.807 163.091 162.97 
168.262 167.787 167.664 167.028 166.827 166.299 166.399 166.223 166.502 
166.204 166.101 165.381 165.04 164.306 164.139 163.519 163.427 169.082 
168.681 168.598 168.056 167.818 167.225 167.073 166.774 166.885 166.789 
166.794 166.405 166.094 165.449 165.184 164.608 164.53 163.97 163.88 
169.505 169.983 169.539 169.033 170.361 170 169.461 168.938 168.265 
170.424 170.284 169.806 169.345 168.623 168.067 167.467 170.086 170.162 
169.799 169.585 168.918 168.417 167.765 167.371 167.089 169.665 169.736 
169.421 169.41 168.869 168.591 167.932 167.606 167.199 167.076 166.879 
169.437 169.413 169.096 169.033 168.562 168.41 167.832 167.631 167.171 
167.065 166.759 166.696 166.301 169.22 169.251 168.99 168.858 168.417 
168.184 167.671 167.472 167.066 166.966 166.679 166.578 166.236 166.022 
165.549 168.829 168.966 168.768 168.761 168.387 168.175 167.7 167.429 
167.038 166.874 166.61 166.514 166.233 166.056 165.669 165.377 164.933 
168.375 168.506 168.279 168.404 168.084 168.075 167.668 167.505 167.108 
166.912 166.586 166.447 166.131 166.013 165.633 165.466 165.02 164.78 
164.286 168.052 167.335 167.748 167.844 166.533 166.954 167.035 167.512 
167.628 165.713 166.149 166.187 166.651 166.771 167.271 167.321 164.606 
165.209 165.164 165.706 165.765 166.366 166.497 166.952 166.903 163.152 
163.88 163.785 164.467 164.479 165.235 165.424 166.085 166.161 166.523 
166.403 161.707 162.374 162.299 162.981 163.031 163.846 164.117 164.939 
165.13 165.691 165.625 165.975 165.842 160.413 161.015 160.978 161.594 
161.687 162.441 162.733 163.594 163.832 164.546 164.508 165.026 164.88 
165.346 165.254 159.173 159.766 159.767 160.375 160.477 161.172 161.384 
162.19 162.356 163.137 163.097 163.754 163.607 164.215 164.132 164.705 
164.637 158.038 158.583 158.628 159.219 159.338 159.987 160.13 160.832 
160.902 161.619 161.572 162.269 162.17 162.851 162.786 163.459 163.413 
164.019 163.909 168.092 167.995 167.841 167.389 167.676 167.632 167.092 
167.003 166.527 166.976 167.106 166.51 166.541 165.994 166.069 165.638 
166.029 166.279 165.738 165.839 165.227 165.35 164.831 165.044 164.516 
164.959 165.293 164.869 165.064 164.474 164.534 163.866 164.04 163.446 
163.71 163.072 163.821 164.175 163.759 164.119 163.602 163.76 163.024 
163.069 162.341 162.545 161.966 162.229 161.642 162.767 163.036 162.54 
162.91 162.403 162.735 162.064 162.195 161.418 161.52 160.9 161.143 
160.655 160.891 160.354 161.853 162.043 161.52 161.748 161.215 161.5 
160.906 161.139 160.449 160.597 159.945 160.146 159.633 159.898 159.405 
159.625 159.091 161.031 161.192 160.697 160.835 160.294 160.445 159.872 
160.048 159.444 159.612 159.004 159.189 158.643 158.886 158.395 158.648 
158.155 158.379 157.916 168.398 168.732 168.517 168.364 169.016 168.812 
168.691 168.458 168.133 169.232 169.033 168.811 168.673 168.366 168.059 
167.472 169.133 169.072 168.736 168.674 168.335 168.165 167.605 167.219 
166.473 168.7 168.76 168.427 168.463 168.128 168.062 167.558 167.272 
166.546 166.133 165.355 168.28 168.31 168.036 168.092 167.8 167.8 
167.34 167.165 166.488 166.154 165.385 164.998 164.249 167.957 167.968 
167.704 167.742 167.457 167.458 166.989 166.871 166.2 165.991 165.263 
164.991 164.275 163.92 163.223 167.562 167.616 167.309 167.387 167.066 
167.098 166.615 166.505 165.827 165.64 164.941 164.773 164.125 163.899 
163.236 162.916 162.269 167.087 167.157 166.805 166.903 166.543 166.628 
166.17 166.125 165.502 165.315 164.638 164.451 163.837 163.678 163.069 
162.853 162.223 161.959 161.382 166.683 165.906 166.33 166.382 164.979 
165.493 165.535 166.001 166.063 163.781 164.447 164.474 165.048 165.075 
165.625 165.645 162.288 163.093 163.134 163.849 163.87 164.522 164.526 
165.1 165.001 160.837 161.586 161.693 162.435 162.48 163.2 163.196 
163.87 163.785 164.342 164.166 159.795 160.345 160.491 161.089 161.11 
161.759 161.681 162.398 162.293 163.005 162.874 163.478 163.335 159.041 
159.48 159.545 160.007 159.926 160.432 160.249 160.849 160.693 161.42 
161.346 162.088 162.018 162.662 162.555 158.268 158.693 158.617 159.031 
158.841 159.275 159.064 159.532 159.399 159.961 159.97 160.629 160.683 
161.331 161.304 161.884 161.769 157.435 157.829 157.675 158.038 157.811 
158.2 158.035 158.464 158.413 158.88 158.952 159.479 159.611 160.155 
160.214 160.715 160.66 161.133 161.01 156.946 156.22 156.77 157.105 
155.491 156.014 156.334 156.875 157.218 154.823 155.301 155.646 156.155 
156.541 157.063 157.491 154.289 154.689 155.056 155.534 155.983 156.48 
156.977 157.465 157.958 153.801 154.201 154.59 155.046 155.543 156.002 
156.528 157.005 157.562 158.027 158.553 153.088 153.588 153.93 154.532 
155.044 155.599 156.108 156.578 157.107 157.614 158.197 158.672 159.202 
152.279 152.734 152.924 153.619 154.051 154.874 155.38 156.059 156.51 
157.088 157.608 158.21 158.761 159.278 159.745 151.672 151.979 152.075 
152.564 152.881 153.673 154.198 155.082 155.574 156.322 156.762 157.469 
157.974 158.664 159.147 159.712 160.125 151.167 151.457 151.588 151.9 
152.187 152.68 153.209 153.936 154.55 155.304 155.805 156.515 156.991 
157.743 158.262 158.976 159.446 160.03 160.442 160.449 159.396 159.986 
160.073 158.134 158.798 158.849 159.533 159.615 156.831 157.456 157.482 
158.211 158.314 159.035 159.139 155.673 156.222 156.265 156.9 157.045 
157.73 157.873 158.562 158.691 154.472 155.094 155.164 155.785 155.921 
156.546 156.674 157.316 157.428 158.114 158.258 153.188 153.837 153.897 
154.602 154.654 155.352 155.379 156.077 156.125 156.835 156.954 157.692 
157.892 152.153 152.624 152.633 153.256 153.237 153.93 153.897 154.648 
154.696 155.475 155.619 156.388 156.606 157.372 157.632 151.43 151.707 
151.594 152.049 151.995 152.56 152.579 153.223 153.362 154.084 154.329 
155.085 155.367 156.119 156.403 157.15 157.421 150.868 151.001 150.729 
151.046 150.944 151.438 151.54 152.116 152.342 152.944 153.217 153.88 
154.184 154.915 155.232 155.968 156.272 156.977 157.249 161.123 160.224 
161.036 161.708 159.101 160.038 160.752 161.61 162.382 158.015 158.947 
159.755 160.624 161.492 162.392 163.323 157.209 158.066 159.006 159.763 
160.698 161.558 162.615 163.48 164.407 156.637 157.434 158.477 159.192 
160.118 160.867 161.872 162.76 163.724 164.506 165.208 156.362 156.951 
157.936 158.665 159.562 160.3 161.167 161.99 162.847 163.693 164.403 
165.136 165.684 156.59 156.838 157.629 158.139 158.943 159.637 160.451 
161.244 162.055 162.837 163.564 164.284 164.907 165.574 166.103 157.076 
157.178 157.815 158.02 158.664 159.078 159.802 160.482 161.32 162.101 
162.912 163.594 164.286 164.878 165.463 166.021 166.484 157.322 157.537 
158.09 158.267 158.794 158.987 159.55 159.952 160.689 161.377 162.226 
162.98 163.73 164.353 164.937 165.453 165.91 166.383 166.733 161.731 
162.41 162.346 162.89 163.191 163.121 163.797 163.63 164.186 164.114 
163.992 164.745 164.621 165.26 164.992 165.476 165.057 164.921 165.604 
165.551 166.245 166.077 166.567 166.233 166.628 165.804 165.752 166.355 
166.343 167.078 167.033 167.632 167.334 167.72 167.348 167.718 166.33 
166.379 167.013 167.042 167.822 167.87 168.64 168.449 168.941 168.511 
168.856 168.435 168.693 166.732 166.849 167.507 167.623 168.375 168.545 
169.344 169.391 169.954 169.695 169.995 169.586 169.765 169.294 169.301 
167.022 167.188 167.781 167.983 168.629 168.905 169.584 169.853 170.365 
170.419 170.65 170.485 170.556 170.244 170.187 169.715 169.539 167.192 
167.38 167.888 168.124 168.666 168.969 169.534 169.874 170.337 170.56 
170.785 170.822 170.867 170.766 170.708 170.441 170.275 169.844 169.638 
161.545 162.642 161.912 161.607 163.852 163.047 162.703 161.993 161.704 
165.098 164.28 163.882 163.11 162.763 162.066 161.722 166.291 165.517 
165.106 164.289 163.852 163.097 162.669 161.99 161.576 167.385 166.678 
166.258 165.46 164.913 164.122 163.585 162.886 162.4 161.769 161.319 
168.236 167.645 167.127 166.447 165.777 165.042 164.38 163.714 163.162 
162.547 162.031 161.433 160.919 168.733 168.268 167.645 167.095 166.368 
165.729 165.012 164.398 163.809 163.239 162.694 162.1 161.539 160.956 
160.437 168.992 168.601 168.004 167.514 166.86 166.264 165.602 164.988 
164.409 163.844 163.309 162.728 162.178 161.583 161.087 160.524 160.121 
169.167 168.827 168.322 167.891 167.335 166.795 166.182 165.585 164.995 
164.433 163.909 163.35 162.847 162.256 161.808 161.235 160.877 160.325 
160.005 168.536 168.909 168.747 168.824 169.341 169.167 169.253 169.071 
169.183 169.675 169.61 169.81 169.626 169.783 169.521 169.553 169.947 
169.934 170.239 170.18 170.377 170.164 170.136 169.787 169.527 170.331 
170.262 170.566 170.556 170.76 170.64 170.543 170.252 169.889 169.513 
169.058 170.657 170.639 170.862 170.857 171.034 170.946 170.85 170.566 
170.196 169.809 169.358 168.984 168.595 170.636 170.792 170.938 171.026 
171.128 171.14 171.077 170.875 170.565 170.169 169.755 169.331 168.95 
168.588 168.262 170.305 170.597 170.751 170.936 170.997 171.101 171.062 
171.027 170.812 170.552 170.168 169.767 169.346 168.953 168.565 168.235 
167.876 169.845 170.201 170.425 170.682 170.799 170.929 170.939 170.968 
170.86 170.738 170.441 170.13 169.687 169.304 168.848 168.502 168.084 
167.787 167.403 
POINT_DATA 1002
SCALARS Distance double
LOOKUP_TABLE default
156.425 157.079 156.275 155.617 155.34 155.69 154.626 154.359 154.865 
154.979 153.685 153.519 153.945 154.251 154.373 153.182 153.075 153.321 
153.642 153.857 153.922 153.124 153.046 153.192 153.328 153.46 153.441 
153.379 153.033 153.125 153.068 153.104 153.055 152.917 152.761 152.607 
152.788 153.131 152.638 152.639 152.569 152.35 152.156 152.041 151.917 
152.717 153.114 152.391 152.215 152.101 151.889 151.663 151.555 151.482 
151.398 152.837 153.081 152.551 152.22 151.882 151.536 151.258 151.14 
151.06 150.919 150.836 156.998 156.007 156.51 155.315 155.962 154.976 
154.55 155.877 154.154 153.987 154.337 156.311 153.288 153.209 153.181 
154.948 157.053 153.272 152.717 152.752 152.875 156.204 158.112 154.373 
153.352 153.006 152.966 153.113 157.735 159.345 156.041 154.829 154.099 
153.647 153.531 153.458 159.102 160.408 157.651 156.398 155.395 154.557 
154.121 153.942 153.582 160.116 161.181 158.92 157.734 156.582 155.446 
154.677 154.366 154.019 153.489 161.225 160.199 161.32 160.329 161.413 
159.088 160.39 161.351 159.212 157.879 160.329 161.165 159.255 157.903 
156.529 160.162 160.869 159.25 157.988 156.55 155.386 159.752 160.389 
159.014 158.006 156.755 155.586 154.806 159.24 159.951 158.525 157.702 
156.715 155.703 154.875 154.348 158.965 159.766 158.189 157.386 156.453 
155.469 154.611 154.007 153.686 158.87 159.689 158.105 157.335 156.367 
155.246 154.261 153.583 153.248 153.153 152.92 152.875 152.658 152.924 
152.595 151.964 153.271 152.752 152.136 151.121 153.998 153.06 152.507 
151.677 150.759 155.169 153.69 152.658 152.112 151.372 150.682 156.466 
154.968 153.214 152.198 151.719 151.073 150.491 157.421 156.34 154.653 
153.004 152.097 151.55 150.946 150.456 158.15 157.263 156.094 154.616 
153.241 152.327 151.707 151.193 150.762 158.965 158.052 157.097 156.053 
154.774 153.514 152.614 152.051 151.63 151.215 152.775 152.297 152.44 
151.231 151.742 151.917 150.476 150.774 151.126 151.3 150.479 150.508 
150.461 150.446 150.787 150.436 150.584 150.344 149.889 150.021 150.62 
150.153 150.204 150.083 149.629 149.553 150.041 150.604 150.137 149.769 
149.533 149.258 149.249 149.597 149.988 150.409 150.459 149.77 149.279 
148.987 149.011 149.304 149.509 149.7 150.188 151.241 150.381 151.413 
150.59 151.978 149.647 151.352 152.86 150.03 149.202 152.354 153.681 
150.931 149.734 149.083 153.153 154.44 151.786 150.53 149.657 149.273 
153.945 155.333 152.477 151.249 150.409 149.772 149.413 154.908 156.19 
153.428 152.14 151.342 150.619 149.788 149.41 155.809 156.866 154.566 
153.321 152.417 151.688 150.728 149.896 149.758 156.574 157.503 155.559 
154.476 153.471 152.617 151.76 150.925 150.457 150.502 151.986 152.192 
152.869 153.304 154.085 152.662 154.62 155.681 154.011 153.453 156.109 
157.141 155.332 154.876 154.263 157.564 158.139 156.785 156.228 155.654 
154.975 158.917 159.22 158.406 157.751 157.143 156.472 155.853 160.387 
160.807 159.969 159.325 158.654 158.059 157.418 156.781 161.972 162.492 
161.421 160.759 160.061 159.491 158.906 158.187 157.472 163.366 163.787 
162.762 162.098 161.459 160.868 160.243 159.493 158.712 158.04 160.149 
159.295 160.618 159.724 161.023 158.284 160.151 161.3 158.723 157.308 
160.418 161.556 159.089 157.586 156.18 160.628 161.947 159.21 157.728 
156.234 154.821 160.931 162.411 159.304 157.917 156.548 155.008 153.636 
161.336 162.872 159.538 158.217 157.24 155.782 154.093 152.871 161.882 
163.359 160.034 158.578 157.77 156.68 154.946 153.388 152.391 160.563 
161.139 161.422 162.07 162.37 161.701 163.032 163.412 162.75 162.133 
163.935 164.441 163.704 163.323 162.442 164.855 165.565 164.412 164.378 
163.822 162.803 166.045 166.776 165.225 165.142 165.168 164.286 163.236 
167.274 167.83 166.354 165.881 166.144 165.755 164.558 163.634 168.26 
168.698 167.464 166.672 166.65 166.717 165.837 164.733 164.056 169.089 
169.464 168.449 167.547 167.007 167.005 166.667 165.785 165.039 164.498 