# vtk DataFile Version 4.0
vtk output
ASCII
DATASET POLYDATA
POINTS 1002 float
-80.3738 -115.562 73.2346 -79.9015 -116.519 72.8368 -79.8927 -115.918 72.082 
-80.4055 -114.905 72.534 -79.9723 -115.355 71.3278 -80.7823 -114.476 73.7795 
-80.579 -114.262 71.7456 -80.2792 -114.792 70.487 -80.9294 -113.734 73.0348 
-81.191 -113.147 74.4878 -81.0304 -113.617 70.9119 -80.9014 -114.241 69.6254 
-81.3185 -113.004 72.2101 -81.5847 -112.352 73.6914 -81.8443 -111.66 75.1861 
-81.7852 -113.048 70.2489 -81.7188 -113.75 69.0016 -81.9762 -112.383 71.5442 
-82.2861 -111.74 72.9612 -82.5381 -111.047 74.4479 -82.7844 -110.381 75.7005 
-82.661 -112.493 69.8031 -82.5422 -113.155 68.6291 -82.8111 -111.848 71.0956 
-83.1076 -111.258 72.4336 -83.4028 -110.622 73.8431 -83.5933 -109.94 75.0945 
-83.755 -109.293 76.1262 -83.5172 -111.768 69.4192 -83.3697 -112.344 68.3426 
-83.7035 -111.196 70.6872 -83.9236 -110.605 71.9444 -84.1623 -109.959 73.2292 
-84.3079 -109.244 74.499 -84.3891 -108.523 75.5634 -84.4863 -107.894 76.5674 
-84.3968 -110.992 69.1419 -84.2791 -111.553 68.207 -84.6116 -110.446 70.3308 
-84.7892 -109.801 71.5309 -84.8887 -109.029 72.6332 -84.9161 -108.207 73.7918 
-84.8869 -107.411 74.912 -84.8765 -106.726 75.917 -84.9259 -106.222 76.9602 
-85.3354 -110.378 69.0894 -85.2588 -110.97 68.2958 -85.5117 -109.769 70.1171 
-85.6893 -109.086 71.269 -85.7344 -108.263 72.2904 -85.6577 -107.352 73.2449 
-85.5377 -106.493 74.2665 -85.4114 -105.763 75.251 -85.3225 -105.209 76.2241 
-85.3019 -104.846 77.2804 -86.3008 -109.904 69.1854 -86.2466 -110.517 68.4836 
-86.3928 -109.186 70.0085 -86.5363 -108.446 71.0103 -86.6085 -107.692 72.0176 
-86.523 -106.842 72.8984 -86.3774 -105.985 73.7874 -86.2385 -105.253 74.711 
-86.0794 -104.66 75.5979 -85.9274 -104.223 76.5343 -85.8375 -103.95 77.5669 
-79.4445 -117.138 71.919 -79.4819 -116.567 70.9924 -79.1823 -117.897 70.7988 
-79.3131 -117.267 69.6721 -79.1151 -118.626 69.5909 -79.6508 -115.981 70.1104 
-79.1827 -117.839 68.2756 -78.8811 -119.215 68.4269 -79.4577 -116.512 68.6213 
-80.0535 -115.361 69.1597 -78.7728 -118.449 66.9112 -78.4986 -119.865 67.4072 
-79.0715 -116.942 66.9487 -79.7073 -115.736 67.549 -80.7122 -114.81 68.2875 
-78.6446 -119.353 65.8096 -78.691 -120.613 66.7662 -78.7291 -117.707 65.2896 
-79.2423 -116.112 65.7418 -80.3341 -115.164 66.8046 -81.5577 -114.342 67.8126 
-79.4549 -120.183 65.4202 -79.6653 -121.185 66.587 -79.2812 -118.799 64.3642 
-79.4602 -116.95 64.2869 -80.2897 -115.556 65.3413 -81.4857 -114.766 66.6499 
-82.5241 -113.701 67.6039 -80.6702 -120.562 65.7105 -80.7815 -121.548 66.6293 
-80.5194 -119.508 64.6766 -80.5507 -117.964 64.1035 -81.0589 -116.289 64.5438 
-81.967 -115.21 65.649 -82.8365 -114.225 66.6765 -83.547 -112.855 67.456 
-81.6288 -120.706 66.1885 -81.6746 -121.849 66.7294 -81.581 -119.658 65.5761 
-81.6444 -118.535 64.9693 -82.027 -117.083 64.7546 -82.7398 -115.779 65.1464 
-83.4535 -114.758 65.8817 -83.998 -113.478 66.6671 -84.5674 -112.071 67.4666 
-82.4389 -120.877 66.5695 -82.5085 -122.088 66.883 -82.4189 -119.691 66.2532 
-82.4889 -118.732 65.7585 -82.7747 -117.649 65.2077 -83.35 -116.359 64.9904 
-84.0108 -115.237 65.2896 -84.5146 -114.087 65.9435 -84.9724 -112.694 66.7597 
-85.5717 -111.443 67.6387 -83.4471 -121.501 66.9044 -83.4247 -120.161 66.6649 
-84.6928 -120.823 66.8854 -84.8023 -119.608 66.4089 -86.0965 -120.293 66.6089 
-83.4945 -119.071 66.1803 -86.2896 -119.357 65.8637 -87.375 -119.897 66.3086 
-85.0062 -118.777 65.4786 -83.6887 -118.201 65.3703 -87.5375 -118.996 65.7341 
-88.5359 -119.274 66.3705 -86.562 -118.512 64.9131 -85.3156 -117.779 64.4875 
-84.0996 -116.997 64.7157 -88.6447 -118.027 66.2465 -89.653 -118.156 66.8732 
-87.7608 -117.682 65.3457 -86.9043 -117.046 64.4217 -85.7389 -116.265 64.2581 
-84.6735 -115.651 64.7513 -89.7446 -116.576 67.0378 -90.5851 -116.653 67.6898 
-88.7426 -116.326 66.3166 -87.9838 -115.915 65.4548 -87.1966 -115.385 64.8782 
-86.1085 -114.851 64.9383 -85.1573 -114.439 65.3931 -90.84 -115.078 67.7947 
-91.4626 -115.099 68.4127 -89.8609 -114.948 67.1626 -88.8707 -114.713 66.5843 
-88.1524 -114.416 66.1108 -87.3438 -113.961 65.841 -86.3627 -113.44 65.8948 
-85.562 -113.027 66.2606 -92.0665 -113.768 68.1718 -92.5833 -113.814 68.6146 
-91.2719 -113.691 67.6714 -90.207 -113.475 67.2771 -89.226 -113.208 67.0561 
-88.4221 -112.813 66.8465 -87.5893 -112.265 66.6644 -86.7863 -111.833 66.7836 
-86.1323 -111.608 67.1944 -93.3624 -112.723 68.1068 -93.8299 -112.897 68.4126 
-92.7568 -112.516 67.7723 -91.9041 -112.109 67.5052 -90.8781 -111.655 67.4426 
-89.8702 -111.288 67.4694 -88.96 -110.916 67.3879 -88.1619 -110.623 67.39 
-87.4759 -110.549 67.6936 -86.8445 -110.562 68.1282 -87.3042 -109.654 69.0892 
-88.0414 -109.624 68.7455 -88.3839 -108.501 69.6261 -88.7912 -109.498 68.3319 
-89.2257 -108.449 69.3145 -89.3616 -107.032 70.0095 -89.6019 -109.4 68.0323 
-90.0896 -108.33 68.9327 -90.2054 -106.919 69.6737 -90.1707 -105.419 70.2098 
-90.5977 -109.401 67.8542 -91.0762 -108.148 68.5106 -91.1216 -106.865 69.2699 
-90.9775 -105.146 69.7867 -90.9046 -103.855 70.3628 -91.715 -109.53 67.6041 
-92.2145 -107.905 67.9846 -92.1764 -106.773 68.7281 -91.9148 -105.149 69.4142 
-91.771 -103.499 69.9406 -91.7106 -102.485 70.6622 -92.7258 -110.036 67.421 
-93.2255 -107.969 67.5369 -93.2159 -106.61 68.1158 -92.9625 -105.248 68.9422 
-92.7542 -103.512 69.6064 -92.6509 -102.182 70.2491 -92.5154 -101.359 71.0413 
-93.5137 -110.879 67.5222 -93.9324 -108.798 67.5112 -93.9961 -106.933 67.8808 
-93.9737 -105.39 68.5208 -93.8813 -103.692 69.1495 -93.6558 -102.126 69.7714 
-93.4451 -101.097 70.5263 -93.2168 -100.458 71.3702 -94.1266 -111.571 67.7806 
-94.497 -109.975 67.7804 -94.578 -108.034 68.1208 -94.7932 -106.06 68.5351 
-95.0456 -104.127 68.8768 -94.8738 -102.388 69.3204 -94.4503 -101.094 70.0103 
-94.1611 -100.269 70.8475 -93.9017 -99.8114 71.7567 -94.636 -111.962 68.0569 
-95.046 -110.805 68.0619 -95.1356 -109.22 68.4428 -95.3955 -107.225 68.8272 
-95.899 -105.061 69.019 -96.0304 -103.122 69.2889 -95.6025 -101.638 69.8578 
-95.1413 -100.539 70.6013 -94.8887 -99.8044 71.4071 -94.6037 -99.4374 72.3305 
-87.3285 -108.828 69.7829 -88.3588 -107.428 70.2562 -87.383 -107.909 70.5748 
-89.3145 -105.94 70.6297 -88.3876 -106.499 71.0268 -87.4729 -107.124 71.5271 
-90.1071 -104.479 70.9619 -89.2786 -105.107 71.4974 -88.3648 -105.712 71.9439 
-87.4252 -106.34 72.4658 -90.8156 -102.946 71.2827 -89.9407 -103.509 71.9615 
-89.0619 -104.058 72.4059 -88.144 -104.735 72.8322 -87.2495 -105.453 73.3635 
-91.5596 -101.536 71.6241 -90.531 -101.813 72.2912 -89.5977 -102.252 72.8301 
-88.7221 -102.912 73.2524 -87.9156 -103.827 73.8017 -87.1141 -104.687 74.3347 
-92.2692 -100.518 71.996 -91.1641 -100.565 72.6197 -90.1611 -100.849 73.1943 
-89.266 -101.416 73.7177 -88.4528 -102.19 74.3049 -87.767 -103.194 74.8841 
-86.9802 -104.082 75.2838 -92.9409 -99.8511 72.4431 -91.7972 -99.8145 73.1412 
-90.7651 -99.9083 73.7419 -89.8584 -100.345 74.2875 -88.9123 -100.885 74.8808 
-88.1557 -101.613 75.4631 -87.567 -102.674 75.885 -86.7858 -103.605 76.1937 
-93.6479 -99.4078 73.0305 -92.471 -99.2803 73.8316 -91.397 -99.0926 74.5137 
-90.5101 -99.2564 75.0314 -89.4772 -99.7265 75.5341 -88.4455 -100.255 76.0634 
-87.8449 -101.153 76.5011 -87.3603 -102.361 76.8416 -86.6098 -103.311 77.1894 
-94.7037 -99.1734 73.5493 -93.5354 -98.9758 74.4147 -94.607 -98.9454 75.075 
-93.361 -98.445 75.9175 -94.4325 -98.8382 76.5953 -92.3038 -98.4981 75.2451 
-93.2253 -98.2668 77.178 -94.3518 -99.0646 77.9423 -92.2499 -97.7331 76.537 
-91.3344 -98.1557 75.8222 -93.1383 -98.8092 78.4129 -94.3254 -99.4882 79.4229 
-92.1973 -97.9214 77.6197 -91.3007 -97.6918 76.9727 -90.3053 -98.5083 76.2637 
-93.0948 -99.4776 80.0427 -94.2295 -99.7946 81.1127 -92.0555 -98.9619 79.0023 
-91.0997 -98.4773 78.2038 -89.9778 -98.5283 77.4963 -88.9729 -99.2085 76.758 
-93.0871 -99.8936 81.7201 -94.0442 -100.157 82.5607 -91.9753 -99.7254 80.6907 
-90.8419 -99.5153 79.7708 -89.6765 -99.3712 78.9405 -88.6278 -99.4767 78.0725 
-88.0383 -100.065 77.2322 -92.9907 -100.489 82.9628 -93.795 -100.821 83.5697 
-91.9742 -100.323 82.1013 -90.7526 -100.106 81.2422 -89.5698 -99.9827 80.4244 
-88.6306 -100.127 79.5104 -88.0071 -100.55 78.5396 -87.6457 -101.331 77.6341 
-92.7426 -101.338 83.8004 -93.5055 -101.707 84.2548 -91.8688 -101.199 83.1056 
-90.7669 -100.956 82.3478 -89.6229 -100.642 81.6068 -88.7513 -100.702 80.8007 
-88.1375 -101.185 79.9086 -87.5983 -101.842 78.9751 -87.0808 -102.573 78.0441 
-92.4159 -102.277 84.3393 -93.1833 -102.742 84.6608 -91.616 -102.089 83.841 
-90.7062 -101.979 83.2339 -89.7162 -101.766 82.5567 -88.8498 -101.671 81.8201 
-88.1602 -101.922 81.0696 -87.4974 -102.373 80.2835 -86.8296 -102.867 79.3955 
-86.259 -103.39 78.4498 -95.5041 -99.472 72.5079 -95.6561 -99.2431 73.8518 
-96.2786 -99.8787 72.9592 -96.4239 -99.6311 74.384 -96.8769 -100.628 73.584 
-95.5892 -99.1606 75.5213 -97.0756 -100.45 75.1022 -97.378 -101.665 74.2846 
-96.4564 -99.6033 76.1843 -95.5435 -99.2789 77.2128 -97.5668 -101.699 75.8875 
-97.612 -102.993 75.0054 -97.1933 -100.497 76.968 -96.5891 -99.7591 78.0025 
-95.6113 -99.5628 78.797 -97.4736 -103.082 76.4755 -97.2768 -104.376 75.5547 
-97.4865 -101.811 77.5659 -97.214 -100.643 78.6998 -96.6041 -100.028 79.6766 
-95.5049 -99.8704 80.4648 -96.8655 -104.36 76.7951 -96.7384 -105.7 75.9397 
-97.1404 -103.177 77.8233 -97.1964 -102.017 79.0425 -96.9118 -101.036 80.2814 
-96.2186 -100.516 81.2766 -95.1505 -100.257 82.0345 -96.5184 -105.843 77.1861 
-96.6284 -107.219 76.4198 -96.7092 -104.603 78.1125 -96.9129 -103.6 79.2629 
-96.8199 -102.634 80.6202 -96.4432 -101.811 81.778 -95.7516 -101.255 82.5784 
-94.7903 -100.89 83.195 -96.6665 -107.652 77.7363 -96.8723 -108.855 76.9726 
-96.6565 -106.349 78.6626 -96.7972 -105.293 79.7106 -96.7832 -104.401 80.9515 
-96.5688 -103.48 82.1438 -96.1857 -102.688 82.9509 -95.4814 -102.109 83.538 
-94.5082 -101.747 84.0295 -96.8831 -109.343 78.1852 -97.0426 -110.234 77.3964 
-96.7722 -108.189 79.1755 -96.7896 -107.057 80.2175 -96.7748 -106.108 81.288 
[...]
CELL_DATA 2000
SCALARS Distance double
LOOKUP_TABLE default
157.597 156.833 157.242 157.304 156.136 156.495 156.526 156.925 156.939 
155.563 155.832 155.839 156.174 156.188 156.554 156.554 155.231 155.364 
155.39 155.596 155.678 155.934 156.029 156.282 156.344 155.06 155.141 
155.188 155.304 155.44 155.608 155.797 155.961 156.103 156.233 156.306 
154.835 154.961 155.004 155.149 155.248 155.423 155.545 155.751 155.815 
156.003 155.964 156.137 156.06 154.63 154.723 154.789 154.944 155.025 
155.184 155.185 155.371 155.277 155.515 155.321 155.581 155.332 155.637 
155.435 154.653 154.627 154.711 154.78 154.886 154.976 154.969 155.019 
154.874 154.946 154.737 154.874 154.638 154.836 154.627 154.92 154.796 
154.887 154.776 154.817 154.779 154.835 154.873 154.881 154.887 154.773 
154.711 154.541 154.495 154.357 154.362 154.261 154.327 154.284 154.459 
154.493 157.625 157.462 157.287 156.85 157.378 157.137 156.64 156.528 
156.152 157.226 156.994 156.384 156.272 155.851 155.844 155.559 157.009 
156.738 155.99 155.868 155.329 155.425 155.171 155.313 155.183 157.146 
156.633 155.83 155.456 154.785 154.779 154.532 154.828 154.842 155.056 
155.021 157.849 157.107 156.413 155.648 154.969 154.479 154.214 154.274 
154.456 154.73 154.868 154.947 154.859 158.754 158.02 157.476 156.612 
156.057 155.18 154.878 154.403 154.594 154.587 154.893 154.901 154.915 
154.794 154.678 159.544 158.909 158.423 157.725 157.28 156.477 156.139 
155.419 155.399 155.049 155.279 155.129 155.21 154.988 154.89 154.7 
154.68 160.24 159.647 159.167 158.578 158.172 157.573 157.227 156.598 
156.358 155.88 155.848 155.597 155.61 155.373 155.269 155.009 154.944 
154.806 154.891 160.479 160.542 160.123 159.404 160.731 160.238 159.497 
159.082 158.439 161.024 160.509 159.787 159.267 158.58 158.167 157.554 
161.295 160.843 160.167 159.625 158.875 158.35 157.645 157.263 156.695 
161.394 161.059 160.39 159.95 159.18 158.646 157.857 157.381 156.779 
156.476 156.106 161.277 161.053 160.366 160.039 159.297 158.877 158.152 
157.665 157.055 156.645 156.25 156.014 155.77 161.047 160.887 160.271 
159.975 159.304 158.953 158.356 157.974 157.438 157.006 156.523 156.177 
155.82 155.648 155.385 160.856 160.709 160.236 159.959 159.387 159.028 
158.481 158.159 157.659 157.319 156.778 156.414 155.934 155.686 155.389 
155.26 155.079 160.785 160.617 160.228 159.994 159.48 159.151 158.565 
158.253 157.702 157.428 156.884 156.573 156.083 155.809 155.528 155.356 
155.26 155.112 155.061 155.171 155.371 155.333 155.359 155.576 155.515 
155.592 155.474 155.312 155.984 155.756 155.812 155.707 155.58 155.302 
154.924 156.638 156.227 156.15 155.962 155.852 155.574 155.146 154.775 
154.322 157.391 156.871 156.613 156.302 156.133 155.87 155.485 155.039 
154.509 154.163 153.846 158.262 157.641 157.258 156.749 156.45 156.144 
155.828 155.433 154.944 154.466 154.078 153.802 153.645 159.233 158.602 
158.233 157.51 157.117 156.565 156.273 155.842 155.472 154.97 154.539 
154.124 153.87 153.666 153.575 160.058 159.577 159.33 158.616 158.26 
157.483 157.181 156.523 156.25 155.629 155.263 154.675 154.348 153.959 
153.819 153.639 153.642 160.672 160.333 160.212 159.689 159.442 158.726 
158.429 157.662 157.389 156.636 156.345 155.593 155.306 154.65 154.494 
154.054 154.077 153.845 153.985 155.07 155.194 155.067 154.925 155.053 
155.049 154.866 154.869 154.818 154.674 154.793 154.639 154.716 154.672 
154.771 154.797 154.18 154.383 154.336 154.474 154.442 154.564 154.567 
154.702 154.672 153.739 153.915 153.895 154.114 154.041 154.231 154.138 
154.353 154.305 154.49 154.421 153.497 153.547 153.418 153.59 153.44 
153.672 153.506 153.782 153.732 154.04 154.073 154.27 154.25 153.439 
153.382 153.186 153.171 152.992 153.089 152.981 153.167 153.167 153.457 
153.598 153.906 154.025 154.173 154.178 153.552 153.414 153.267 153.096 
152.941 152.852 152.814 152.846 152.882 153.018 153.13 153.421 153.616 
153.912 154.032 154.15 154.19 153.9 153.671 153.594 153.329 153.187 
152.97 152.899 152.831 152.83 152.848 152.845 152.991 153.111 153.445 
153.685 153.976 154.152 154.248 154.376 154.206 154.64 154.22 153.838 
155.097 154.594 154.065 153.728 153.343 155.68 155.02 154.341 153.89 
153.41 153.199 152.972 156.563 155.716 154.994 154.28 153.744 153.325 
153.06 152.918 152.844 157.627 156.751 156.123 155.213 154.707 153.951 
153.623 153.15 152.984 152.818 152.802 158.614 157.857 157.33 156.471 
155.994 155.139 154.753 153.993 153.705 153.168 153.082 152.88 153.043 
159.484 158.834 158.388 157.64 157.152 156.364 155.91 155.154 154.817 
154.129 153.996 153.486 153.627 153.386 153.694 160.271 159.693 159.32 
158.665 158.23 157.464 156.997 156.23 155.901 155.243 155.141 154.582 
154.667 154.222 154.406 154.118 154.285 160.974 160.445 160.092 159.545 
159.194 158.534 158.151 157.379 157.078 156.366 156.272 155.706 155.743 
155.263 155.298 154.885 154.888 154.575 154.57 154.515 155.305 154.926 
155.036 156.321 155.82 155.931 155.527 155.633 157.55 156.94 157.048 
156.54 156.741 156.238 156.363 158.913 158.279 158.418 157.798 158.02 
157.471 157.717 157.112 157.277 160.039 159.578 159.706 159.181 159.34 
158.799 159.024 158.492 158.705 158.095 158.257 160.795 160.463 160.537 
160.242 160.373 159.996 160.161 159.731 159.932 159.439 159.593 159.021 
159.148 161.732 161.217 161.318 160.971 161.213 160.911 161.188 160.815 
161.075 160.622 160.823 160.287 160.409 159.842 159.958 163.119 162.425 
162.595 162.003 162.344 161.902 162.335 161.923 162.305 161.83 162.106 
161.553 161.724 161.117 161.225 160.633 160.737 164.5 163.912 164.094 
163.471 163.763 163.228 163.625 163.174 163.559 163.102 163.393 162.873 
163.071 162.476 162.598 161.954 162.028 161.403 161.466 161.002 161.479 
161.014 160.563 161.949 161.441 160.871 160.458 159.86 162.284 161.784 
161.086 160.681 160.043 159.637 158.922 162.555 162.057 161.328 160.857 
160.173 159.766 159.075 158.638 157.873 162.841 162.373 161.762 161.215 
160.54 159.97 159.255 158.767 158.032 157.575 156.801 163.133 162.701 
162.207 161.735 161.139 160.491 159.716 159.051 158.298 157.767 157.045 
156.536 155.793 163.51 163.024 162.49 162.105 161.56 161.066 160.311 
159.611 158.794 158.147 157.466 156.895 156.22 155.627 154.985 163.991 
163.431 162.758 162.302 161.697 161.34 160.712 160.178 159.423 158.74 
158.045 157.418 156.808 156.181 155.571 154.967 154.501 164.465 163.904 
163.147 162.561 161.84 161.433 160.902 160.539 160.008 159.427 158.793 
158.094 157.486 156.826 156.272 155.643 155.178 154.638 154.355 161.321 
162.12 161.768 161.914 163.106 162.702 162.921 162.484 162.557 164.1 
163.704 163.934 163.555 163.702 163.14 163.031 165.099 164.655 164.828 
164.504 164.708 164.285 164.256 163.563 163.314 166.188 165.662 165.762 
165.371 165.601 165.262 165.38 164.797 164.594 163.804 163.513 167.258 
166.735 166.755 166.309 166.505 166.188 166.43 165.96 165.902 165.119 
164.805 163.99 163.75 168.247 167.762 167.725 167.242 167.337 167.047 
167.331 167.031 167.131 166.471 166.218 165.336 165.045 164.274 164.143 
169.208 168.775 168.773 168.208 168.17 167.782 167.986 167.825 168.078 
167.684 167.58 166.774 166.449 165.602 165.408 164.718 164.645 170.026 
169.737 169.811 169.28 169.134 168.588 168.561 168.347 168.605 168.497 
168.627 168.104 167.854 167.006 166.695 165.943 165.797 165.188 165.095 
170.409 170.684 170.544 170.235 170.507 170.593 170.326 170.108 169.537 
170.271 170.325 170.099 170.013 169.546 169.288 168.858 170.353 170.259 
170.087 169.873 169.538 169.297 169.071 168.891 168.852 170.468 170.452 
170.36 170.09 169.795 169.458 169.316 169.172 169.237 169.097 168.981 
170.25 170.427 170.364 170.313 169.985 169.737 169.479 169.395 169.391 
169.377 169.187 168.929 168.327 169.875 170.076 170.003 170.114 169.796 
169.717 169.364 169.374 169.264 169.365 169.145 168.981 168.345 167.948 
167.165 169.643 169.744 169.704 169.763 169.527 169.449 169.124 169.118 
169.004 169.14 169.007 168.911 168.378 167.976 167.245 166.83 166.214 
169.566 169.609 169.614 169.609 169.448 169.307 169.013 168.909 168.772 
168.873 168.824 168.822 168.447 168.098 167.433 166.981 166.368 166.015 
165.506 169.524 169.319 169.514 169.561 168.766 169.163 169.236 169.439 
169.33 168.036 168.496 168.599 168.941 168.85 169.037 168.86 167.331 
167.779 167.914 168.273 168.263 168.498 168.438 168.614 168.63 166.507 
167.044 167.22 167.643 167.688 167.95 167.928 168.181 168.248 168.521 
168.614 165.477 166.102 166.285 166.866 166.919 167.318 167.2 167.548 
167.464 167.91 167.866 168.297 168.132 164.361 165.001 165.139 165.797 
165.828 166.369 166.192 166.624 166.384 166.875 166.689 167.234 166.997 
167.464 167.114 163.198 163.838 163.92 164.58 164.583 165.174 165.022 
165.5 165.251 165.702 165.46 165.956 165.719 166.214 165.937 166.37 
166.075 162.05 162.644 162.685 163.32 163.307 163.911 163.797 164.318 
164.112 164.567 164.305 164.747 164.451 164.927 164.636 165.149 164.899 
165.392 165.175 169.463 169.248 169.32 169.185 168.847 168.951 168.67 
168.832 168.568 168.261 168.395 168.02 168.191 167.888 168.104 167.84 
167.668 167.783 167.463 167.566 167.329 167.481 167.289 167.433 167.18 
167.15 167.29 167.106 167.163 167.014 167.077 166.933 166.993 166.713 
166.756 166.371 166.473 166.772 166.629 166.822 166.603 166.738 166.478 
166.61 166.248 166.29 165.784 165.822 165.333 165.518 165.943 165.725 
166.112 165.733 166.031 165.558 165.872 165.415 165.66 165.118 165.2 
164.607 164.703 164.206 164.509 164.894 164.608 165.015 164.585 164.917 
164.381 164.725 164.264 164.641 164.18 164.413 163.821 163.933 163.338 
163.516 163.03 163.629 163.916 163.611 163.919 163.54 163.8 163.361 
163.61 163.229 163.538 163.175 163.44 162.924 163.073 162.458 162.611 
162.076 162.318 161.892 169.502 169.586 169.497 169.386 169.656 169.568 
169.443 169.35 169.108 169.639 169.57 169.381 169.342 169.15 169.008 
168.613 169.617 169.557 169.375 169.268 169.082 169.002 168.711 168.464 
167.997 169.489 169.538 169.409 169.307 169.082 168.965 168.72 168.545 
168.134 167.832 167.363 169.04 169.235 169.053 169.178 168.882 168.888 
168.576 168.526 168.151 167.933 167.401 167.132 166.619 168.46 168.618 
168.347 168.587 168.274 168.444 168.07 168.197 167.833 167.838 167.339 
167.119 166.494 166.263 165.691 168.015 168.053 167.758 167.894 167.637 
167.777 167.437 167.561 167.195 167.341 166.936 166.93 166.356 166.139 
165.497 165.28 164.722 167.632 167.65 167.328 167.397 167.135 167.238 
166.928 166.986 166.59 166.674 166.28 166.397 165.947 165.913 165.333 
165.134 164.544 164.349 163.849 167.256 166.406 166.882 166.935 165.342 
165.913 166.026 166.572 166.702 164.344 164.861 164.983 165.577 165.773 
166.352 166.474 163.387 163.931 164.022 164.557 164.697 165.319 165.463 
166.038 166.095 162.173 162.859 162.91 163.53 163.557 164.19 164.271 
164.922 165.016 165.613 165.714 160.927 161.566 161.618 162.276 162.316 
162.977 163.068 163.73 163.875 164.51 164.663 165.27 165.387 159.983 
160.475 160.597 161.102 161.25 161.805 162.016 162.618 162.852 163.447 
163.629 164.21 164.31 164.879 164.86 159.195 159.668 159.858 160.296 
160.492 160.942 161.181 161.7 161.943 162.493 162.637 163.178 163.208 
163.758 163.709 164.242 164.125 158.423 158.905 159.109 159.588 159.766 
160.233 160.397 160.895 161.039 161.568 161.62 162.14 162.088 162.614 
162.533 163.077 162.999 163.514 163.434 158.084 157.774 158.199 158.742 
157.392 157.848 158.376 158.845 159.39 156.961 157.414 157.929 158.435 
158.982 159.468 160.008 156.605 156.95 157.4 157.925 158.453 159.003 
159.536 160.055 160.588 156.445 156.632 156.922 157.344 157.807 158.39 
158.898 159.494 159.995 160.57 161.074 156.288 156.504 156.726 156.956 
157.318 157.747 158.247 158.815 159.325 159.91 160.4 160.989 161.484 
155.805 156.236 156.569 156.844 157.196 157.44 157.901 158.279 158.823 
159.301 159.83 160.344 160.863 161.413 161.934 155.152 155.646 156.069 
156.562 156.997 157.357 157.789 158.089 158.57 158.926 159.447 159.873 
160.406 160.882 161.426 161.928 162.447 154.757 155.079 155.473 155.968 
156.443 156.979 157.445 157.895 158.32 158.695 159.131 159.526 160.022 
160.475 161.017 161.491 162.021 162.474 162.946 163.079 162.175 162.762 
163.008 161.163 161.792 162.028 162.656 162.881 160.125 160.726 160.945 
161.618 161.874 162.508 162.727 159.192 159.691 159.841 160.494 160.773 
161.479 161.772 162.386 162.637 158.334 158.77 158.83 159.401 159.615 
160.333 160.631 161.363 161.618 162.279 162.507 157.372 157.835 157.828 
158.386 158.544 159.202 159.448 160.158 160.368 161.096 161.249 161.999 
162.152 156.332 156.795 156.767 157.336 157.493 158.144 158.379 159.025 
159.211 159.843 159.972 160.65 160.781 161.532 161.69 155.435 155.819 
155.843 156.328 156.489 157.085 157.284 157.927 158.084 158.721 158.86 
159.479 159.642 160.266 160.468 161.14 161.373 154.803 155.087 155.166 
155.539 155.672 156.138 156.243 156.793 156.859 157.506 157.632 158.348 
158.566 159.24 159.486 160.089 160.344 160.956 161.233 160.8 160.115 
160.778 161.391 159.338 160.063 160.706 161.371 162.001 158.495 159.249 
159.954 160.687 161.4 162.05 162.77 157.88 158.488 159.256 159.968 
160.8 161.5 162.326 162.946 163.746 157.772 158.131 158.907 159.424 
160.294 160.958 161.88 162.548 163.419 163.996 164.756 157.936 158.212 
158.946 159.281 160.068 160.564 161.453 162.104 163.022 163.668 164.483 
164.993 165.644 158.004 158.33 159.007 159.346 160.04 160.426 161.197 
161.728 162.588 163.231 164.069 164.675 165.376 165.835 166.386 158.018 
158.319 158.943 159.305 159.943 160.339 161.039 161.511 162.288 162.834 
163.592 164.185 164.864 165.45 166.02 166.497 166.952 158.135 158.353 
158.931 159.22 159.798 160.16 160.798 161.281 162.018 162.553 163.236 
163.729 164.293 164.836 165.367 165.965 166.433 166.942 167.29 161.38 
161.97 161.937 162.455 162.594 162.544 163.1 163.045 163.582 163.376 
163.25 163.868 163.769 164.379 164.246 164.807 164.324 164.131 164.747 
164.611 165.236 165.102 165.694 165.532 166.079 165.268 165.087 165.65 
165.504 166.051 165.918 166.451 166.361 166.912 166.792 167.272 166.079 
165.941 166.474 166.364 166.898 166.73 167.232 167.085 167.654 167.571 
168.107 167.927 168.269 166.792 166.677 167.193 167.128 167.719 167.598 
168.162 167.964 168.573 168.41 169.018 168.799 169.18 168.83 168.996 
167.386 167.338 167.85 167.821 168.418 168.381 168.948 168.85 169.396 
169.317 169.868 169.732 170.09 169.758 169.884 169.471 169.554 167.73 
167.817 168.321 168.402 168.965 169.011 169.499 169.473 169.85 169.871 
170.24 170.315 170.575 170.486 170.538 170.268 170.286 169.985 170.083 
161.195 162.31 161.607 161.309 163.434 162.751 162.514 161.775 161.5 
164.601 163.893 163.691 162.995 162.748 161.993 161.738 165.836 165.083 
164.84 164.157 163.938 163.227 162.934 162.201 161.939 167.019 166.297 
165.969 165.265 164.978 164.335 164.026 163.336 162.98 162.316 162.008 
167.972 167.378 167.017 166.329 165.925 165.279 164.902 164.292 163.88 
163.257 162.836 162.25 161.861 168.652 168.191 167.863 167.283 166.86 
166.19 165.731 165.089 164.635 164.036 163.554 162.977 162.496 161.966 
161.542 169.227 168.801 168.506 168.031 167.659 167.069 166.589 165.922 
165.41 164.765 164.268 163.657 163.157 162.573 162.11 161.61 161.261 
169.814 169.389 169.071 168.615 168.224 167.743 167.262 166.698 166.147 
165.527 165.004 164.391 163.93 163.307 162.88 162.266 161.911 161.406 
161.169 169.546 169.656 169.602 169.647 169.894 169.775 169.856 169.782 
169.809 170.199 170.043 170.07 170.002 170.019 169.9 169.816 170.393 
170.301 170.258 170.184 170.126 170.029 169.882 169.788 169.671 170.364 
170.388 170.408 170.371 170.332 170.162 169.987 169.804 169.649 169.61 
169.508 170.327 170.327 170.419 170.476 170.551 170.445 170.344 170.057 
169.919 169.694 169.602 169.455 169.242 170.526 170.401 170.449 170.468 
170.57 170.596 170.569 170.424 170.314 170.096 170.013 169.744 169.543 
169.188 168.828 170.686 170.616 170.592 170.551 170.612 170.612 170.601 
170.533 170.416 170.343 170.237 170.125 169.913 169.6 169.206 168.789 
168.383 170.437 170.574 170.522 170.61 170.644 170.687 170.67 170.584 
170.413 170.314 170.119 170.115 169.872 169.782 169.363 169.1 168.621 
168.322 167.935 
POINT_DATA 1002
SCALARS Distance double
LOOKUP_TABLE default
157.676 157.953 157.164 156.891 156.449 157.348 156.151 155.813 156.541 
156.933 155.536 155.345 155.835 156.193 156.542 155.217 155.136 155.425 
155.781 156.119 156.378 155.077 154.972 155.277 155.627 155.991 156.206 
156.338 154.841 154.7 155.101 155.374 155.642 155.819 155.871 155.977 
154.636 154.561 154.897 155.084 155.106 155.092 155.06 155.07 155.264 
154.688 154.717 154.814 154.954 154.876 154.649 154.477 154.382 154.432 
154.696 154.928 155.021 154.842 154.858 154.837 154.614 154.366 154.232 
154.173 154.253 154.532 157.761 156.94 157.688 156.786 157.664 156.198 
156.536 157.483 155.836 155.524 156.202 157.346 155.237 154.92 155.074 
156.357 157.737 154.936 154.188 154.497 154.963 157.23 158.582 155.657 
154.319 154.143 154.735 154.912 158.251 159.434 156.951 155.567 154.755 
154.891 155.061 154.778 159.044 160.155 157.977 156.916 155.94 155.508 
155.443 155.133 154.767 159.745 160.823 158.714 157.827 156.94 156.196 
155.845 155.548 155.132 154.939 160.871 159.757 161.003 159.959 161.234 
158.779 160.339 161.501 159.068 157.899 160.691 161.696 159.474 158.089 
156.953 160.793 161.698 159.69 158.381 157.107 156.282 160.673 161.467 
159.639 158.568 157.512 156.552 155.922 160.527 161.153 159.62 158.658 
157.848 156.959 156.065 155.481 160.453 160.967 159.735 158.813 157.978 
157.157 156.224 155.52 155.174 160.436 160.957 159.801 158.912 157.979 
157.158 156.345 155.689 155.383 155.229 155.267 155.508 155.308 155.662 
155.611 155.022 155.925 155.855 155.279 154.478 156.419 156.114 155.594 
154.573 153.921 157.047 156.382 155.91 154.958 154.002 153.619 157.908 
156.828 156.146 155.436 154.445 153.791 153.53 158.994 157.802 156.727 
155.95 155.037 154.142 153.682 153.515 159.941 159.057 157.924 156.897 
155.908 154.852 154.056 153.724 153.69 160.627 160.071 159.201 158.169 
157.108 156.025 155.046 154.385 154.125 154.143 155.011 154.834 154.76 
154.528 154.561 154.702 154.148 154.339 154.433 154.572 153.682 153.861 
153.928 154.06 154.29 153.346 153.233 153.232 153.365 153.778 154.158 
153.276 152.941 152.808 152.909 153.234 153.79 154.133 153.455 153.076 
152.811 152.826 152.917 153.245 153.818 154.149 153.872 153.462 153.029 
152.863 152.808 152.816 153.277 153.966 154.347 154.607 154.186 155.131 
154.471 155.695 153.544 154.897 156.452 153.66 153.031 155.801 157.44 
154.286 153.287 152.867 157.017 158.429 155.554 154.283 153.304 152.787 
158.129 159.287 156.847 155.586 154.397 153.422 153.041 159.088 160.079 
157.949 156.663 155.485 154.573 153.997 153.845 159.914 160.823 158.962 
157.783 156.547 155.674 155.18 154.828 154.548 160.6 161.501 159.764 
158.861 157.812 156.88 156.266 155.785 155.284 154.835 154.799 155.376 
155.743 156.343 156.879 156.078 157.601 158.174 157.205 156.945 159.065 
159.504 158.594 158.266 157.944 160.169 160.449 159.89 159.541 159.27 
158.906 160.776 161.166 160.673 160.562 160.386 160.144 159.732 161.715 
162.319 161.469 161.504 161.504 161.341 160.988 160.51 163.245 163.798 
162.831 162.738 162.767 162.65 162.332 161.854 161.312 164.696 165.009 
164.344 164.119 164.021 163.893 163.641 163.244 162.697 162.077 161.426 
160.992 162.022 161.312 162.515 160.313 161.529 162.811 160.421 159.401 
161.837 163.024 160.624 159.48 158.35 162.265 163.24 161.19 159.812 
158.478 157.274 162.604 163.562 161.757 160.476 158.868 157.553 156.312 
162.911 164.06 161.958 160.97 159.495 158.027 156.825 155.526 163.326 
164.59 162.041 161.096 160.077 158.705 157.408 156.196 154.994 161.586 
162.298 162.482 163.332 163.509 163.137 164.274 164.521 164.201 163.771 
165.174 165.605 165.04 164.888 164.113 166.211 166.752 165.905 165.862 
165.394 164.282 167.245 167.781 166.815 166.802 166.63 165.687 164.455 
168.263 168.7 167.67 167.531 167.666 167.101 165.874 164.812 169.364 
169.563 168.695 168.149 168.283 168.29 167.353 166.128 165.287 170.286 
170.232 169.786 168.926 168.614 168.923 168.673 167.542 166.419 165.689 