# vtk DataFile Version 4.0
vtk output
ASCII
DATASET POLYDATA
POINTS 1002 float
-77.5446 -114.262 70.9032 -76.4663 -114.951 70.0284 -77.1277 -114.677 69.5509 
-78.4089 -114.049 70.5575 -78.094 -114.498 69.2262 -78.7115 -113.424 71.8694 
-79.41 -113.761 70.3806 -79.3496 -114.404 69.2166 -79.5805 -113.041 71.6042 
-79.6336 -112.152 72.7922 -80.5858 -113.389 70.3615 -80.7407 -114.215 69.3542 
-80.5117 -112.497 71.4083 -80.4447 -111.532 72.4583 -80.3539 -110.556 73.5541 
-81.8677 -112.882 70.2866 -82.0486 -113.787 69.3572 -81.6584 -111.931 71.2542 
-81.4116 -110.909 72.1631 -81.235 -109.891 73.1365 -81.1696 -109.051 74.2357 
-83.0851 -112.243 70.1003 -83.279 -113.214 69.2901 -82.9149 -111.32 71.0248 
-82.6473 -110.414 71.9959 -82.3223 -109.349 72.8908 -82.1425 -108.397 73.8676 
-82.0033 -107.646 74.8897 -84.2558 -111.584 69.973 -84.5477 -112.567 69.2512 
-84.0486 -110.605 70.7397 -83.8866 -109.811 71.7467 -83.586 -108.855 72.7663 
-83.2734 -107.784 73.6633 -83.024 -106.926 74.5829 -82.6778 -106.177 75.4478 
-85.4638 -110.927 69.9035 -85.7707 -111.834 69.1865 -85.156 -109.91 70.5533 
-84.9687 -109.054 71.3988 -84.7417 -108.169 72.4202 -84.4113 -107.106 73.3328 
-84.1154 -106.206 74.2245 -83.7662 -105.506 75.1448 -83.3046 -104.821 75.9341 
-86.6433 -110.276 69.8278 -86.8438 -111.148 69.1843 -86.3682 -109.301 70.4484 
-86.1223 -108.396 71.1846 -85.8439 -107.475 72.0463 -85.4309 -106.38 72.817 
-85.0505 -105.439 73.6197 -84.7554 -104.833 74.6426 -84.3806 -104.276 75.6293 
-83.9407 -103.689 76.3892 -87.7256 -109.736 69.809 -87.8169 -110.659 69.3445 
-87.5624 -108.766 70.3417 -87.3599 -107.871 71.0547 -87.0727 -106.975 71.8655 
-86.571 -105.866 72.4944 -85.9896 -104.793 73.0677 -85.5818 -104.132 73.9865 
-85.2751 -103.685 75.1209 -84.9076 -103.169 76.0663 -84.5103 -102.67 76.7761 
-75.8532 -115.427 68.8064 -76.5323 -115.054 68.2079 -75.367 -115.897 67.3429 
-76.1715 -115.571 66.7354 -75.1772 -116.655 65.8161 -77.7083 -114.962 67.9352 
-76.1032 -116.53 65.5545 -75.2835 -117.911 64.9029 -77.5406 -115.58 66.7554 
-79.2617 -115.035 68.1341 -76.2983 -117.9 65.309 -75.636 -119.297 65.1518 
-77.5784 -116.517 66.0649 -79.2792 -115.624 67.1933 -80.8354 -114.915 68.3844 
-76.8895 -119.166 65.9532 -76.3373 -120.357 66.0556 -77.9719 -117.737 66.0371 
-79.4906 -116.355 66.4783 -80.9722 -115.409 67.3839 -82.2271 -114.5 68.4214 
-77.9024 -120.09 66.6299 -77.4018 -121.256 66.7136 -78.8276 -118.921 66.3216 
-80.119 -117.466 66.0336 -81.362 -116.053 66.4525 -82.4901 -114.991 67.4358 
-83.6083 -113.913 68.4273 -79.0682 -120.96 66.9072 -78.6056 -122.22 67.0113 
-79.8511 -119.895 66.535 -80.9851 -118.717 65.9101 -82.0816 -117.171 65.8904 
-83.0045 -115.668 66.684 -84.006 -114.409 67.5899 -85.007 -113.165 68.4061 
-80.1716 -121.867 67.0837 -79.7289 -123.059 67.3144 -80.8196 -120.78 66.7206 
-81.7828 -119.774 66.0973 -82.8344 -118.422 65.8267 -83.7128 -116.752 66.3707 
-84.5484 -115.139 67.1085 -85.4401 -113.697 67.691 -86.2275 -112.385 68.4075 
-81.1486 -122.589 67.4192 -80.6948 -123.598 67.7592 -81.7429 -121.572 67.0308 
-82.5581 -120.638 66.4916 -83.5085 -119.475 66.1032 -84.3897 -117.918 66.355 
-85.1731 -116.216 66.9646 -85.9368 -114.566 67.407 -86.6455 -113.077 67.8993 
-87.2629 -111.803 68.6407 -81.8769 -123.367 68.048 -82.4724 -122.394 67.6175 
-83.1467 -123.037 68.3545 -83.8934 -122.139 67.8912 -84.4949 -122.693 68.7143 
-83.253 -121.499 67.1163 -85.3111 -121.807 68.3585 -85.9641 -122.351 69.1718 
-84.799 -121.277 67.4172 -84.1604 -120.481 66.6286 -86.7675 -121.273 68.9843 
-87.5764 -121.853 69.6401 -86.2098 -120.754 68.0267 -85.6777 -120.026 67.0996 
-85.0348 -119.018 66.5501 -88.3182 -120.438 69.5355 -89.0882 -121.009 70.0958 
-87.5846 -119.876 68.7852 -86.9895 -119.224 67.9049 -86.4299 -118.33 67.257 
-85.8276 -117.281 67.0025 -89.7999 -119.416 70.0494 -90.3343 -119.917 70.6861 
-89.0602 -118.86 69.4518 -88.2975 -118.232 68.8362 -87.6991 -117.462 68.2356 
-87.191 -116.543 67.7713 -86.5957 -115.514 67.4945 -91.1585 -118.454 70.6878 
-91.49 -118.91 71.3654 -90.5922 -117.952 70.0709 -89.8107 -117.319 69.5809 
-89.09 -116.533 69.1641 -88.5537 -115.671 68.7132 -87.987 -114.747 68.2595 
-87.299 -113.802 67.9359 -92.4255 -117.686 71.2938 -92.6018 -118.163 71.942 
-92.1076 -117.176 70.631 -91.5157 -116.533 70.0735 -90.7651 -115.69 69.6758 
-90.0928 -114.755 69.3516 -89.453 -113.884 69.0484 -88.6942 -113.06 68.7727 
-87.9154 -112.316 68.5924 -93.4823 -117.062 71.7581 -93.5092 -117.576 72.4278 
-93.4357 -116.484 71.022 -93.1698 -115.792 70.3712 -92.5743 -114.948 69.9239 
-91.8079 -113.978 69.6207 -91.0351 -113.045 69.43 -90.2089 -112.279 69.3696 
-89.3189 -111.621 69.3319 -88.499 -111.055 69.2849 -88.8278 -109.674 69.7821 
-89.7139 -110.109 69.7611 -89.997 -108.539 70.0627 -90.7203 -110.663 69.7178 
-91.123 -108.954 69.9935 -91.2614 -107.331 70.3451 -91.7139 -111.355 69.652 
-92.2618 -109.559 69.9621 -92.6018 -107.765 70.2906 -92.6156 -106.279 70.7931 
-92.6368 -112.289 69.7495 -93.2134 -110.498 70.1376 -93.6807 -108.567 70.4862 
-93.9402 -106.849 70.8653 -93.8938 -105.479 71.4044 -93.5392 -113.351 69.9707 
-94.0629 -111.701 70.4762 -94.3418 -109.817 71.0232 -94.6825 -107.85 71.3072 
-94.8752 -106.214 71.712 -94.7923 -104.852 72.288 -94.2634 -114.33 70.2326 
-94.8921 -112.821 70.6392 -94.9496 -111.171 71.4721 -95.062 -109.184 71.998 
-95.391 -107.267 72.3264 -95.5262 -105.706 72.8585 -95.4096 -104.394 73.4353 
-94.5396 -115.21 70.7768 -95.401 -113.788 70.8753 -95.6174 -112.302 71.6465 
-95.5797 -110.497 72.5043 -95.882 -108.481 72.9937 -96.2111 -106.731 73.4785 
-96.2198 -105.285 74.0504 -96.0428 -104.075 74.5521 -94.4343 -115.982 71.6472 
-95.3796 -114.684 71.643 -95.9566 -113.277 72.1266 -96.1061 -111.648 72.9562 
-96.3765 -109.72 73.5792 -96.8159 -107.869 74.0159 -96.9663 -106.302 74.5342 
-96.8596 -104.915 75.0659 -96.6631 -103.787 75.5722 -94.2655 -116.612 72.539 
-95.0902 -115.442 72.7059 -95.8451 -114.123 73.0828 -96.277 -112.645 73.7053 
-96.5933 -110.914 74.2921 -97.0486 -109.128 74.6851 -97.3164 -107.524 75.0759 
-97.2898 -106.007 75.5628 -97.2369 -104.599 76.0935 -97.1102 -103.54 76.6537 
-88.7409 -108.562 70.1386 -89.8228 -107.312 70.4713 -88.5797 -107.526 70.7458 
-90.9804 -106.1 70.8922 -89.578 -106.241 71.1977 -88.3572 -106.605 71.6009 
-92.3428 -105.051 71.3573 -90.6756 -104.965 71.5538 -89.2892 -105.212 71.976 
-87.928 -105.541 72.3194 -93.6635 -104.197 72.0009 -92.008 -103.874 71.9725 
-90.3214 -103.914 72.2554 -88.7717 -104.118 72.6344 -87.2379 -104.36 72.8385 
-94.5695 -103.604 73.0316 -93.2325 -103.138 72.8675 -91.4766 -103.063 73.0223 
-89.7362 -103.135 73.3246 -88.0711 -103.213 73.5132 -86.5982 -103.513 73.6508 
-95.2207 -103.288 74.2303 -94.1047 -102.737 74.0845 -92.5207 -102.563 74.2374 
-90.7359 -102.564 74.4942 -89.049 -102.484 74.6176 -87.4544 -102.531 74.6483 
-86.162 -102.983 74.8075 -95.858 -103.091 75.371 -94.7905 -102.505 75.2508 
-93.4182 -102.119 75.3294 -91.7267 -101.948 75.5039 -90.0012 -101.792 75.5812 
-88.3836 -101.649 75.5765 -86.9052 -101.839 75.6538 -85.7573 -102.44 75.8593 
-96.4062 -102.914 76.5251 -95.3448 -102.355 76.4011 -94.1422 -101.77 76.3177 
-92.7106 -101.302 76.2809 -90.9902 -101.046 76.2526 -89.2562 -100.885 76.2397 
-87.6772 -100.868 76.3054 -86.3334 -101.223 76.4737 -85.314 -101.911 76.6643 
-97.0361 -103.005 77.8343 -96.0063 -102.46 77.7214 -96.5217 -102.749 79.1031 
-95.1684 -102.178 78.9471 -95.5386 -102.707 80.2015 -94.7707 -101.808 77.5464 
-94.207 -101.991 80.0694 -94.5195 -102.63 81.2183 -94.0138 -101.348 78.7393 
-93.5953 -101.039 77.332 -93.4762 -101.805 81.275 -93.7838 -102.459 82.4379 
-93.2468 -101.118 80.0512 -92.8933 -100.588 78.601 -92.0604 -100.546 77.1764 
-92.751 -101.743 82.5953 -93.068 -102.429 83.7339 -92.3367 -101.075 81.4277 
-91.8559 -100.563 80.1875 -91.0858 -100.326 78.6241 -90.1092 -100.408 77.1431 
-91.7301 -102.016 83.7341 -92.1375 -102.66 84.7774 -91.1422 -101.261 82.5756 
-90.5204 -100.605 81.5297 -89.8218 -100.369 80.3278 -89.0016 -100.294 78.6861 
-88.2591 -100.357 77.1917 -90.6028 -102.493 84.6127 -91.1046 -103.027 85.5597 
-89.9432 -101.799 83.4847 -89.2825 -100.858 82.4217 -88.649 -100.285 81.5042 
-87.9361 -100.219 80.2755 -87.2373 -100.229 78.6415 -86.7134 -100.478 77.2832 
-89.5412 -102.906 85.39 -90.0557 -103.439 86.218 -88.9229 -102.399 84.3549 
-88.3128 -101.545 83.2733 -87.71 -100.606 82.3231 -87.0137 -100.181 81.3662 
-86.3096 -100.205 80.0408 -85.8025 -100.435 78.5389 -85.5068 -101.007 77.3962 
-88.5041 -103.262 86.1063 -89.0111 -103.909 86.7572 -87.9364 -102.794 85.2131 
-87.386 -102.233 84.2058 -86.813 -101.425 83.2205 -86.114 -100.703 82.2566 
-85.4033 -100.439 81.1272 -84.9369 -100.614 79.7619 -84.7284 -101.093 78.4511 
-84.6111 -101.814 77.4719 -97.4358 -104.039 77.5419 -97.4522 -103.51 78.8887 
-97.453 -105.064 78.648 -97.5012 -104.533 80.0039 -97.5398 -106.583 79.7569 
-97.008 -103.312 80.166 -97.366 -105.973 80.9391 -97.9114 -108.027 80.5085 
-97.0794 -104.225 81.1884 -96.0046 -103.322 81.213 -97.2295 -107.388 81.5791 
-97.9495 -109.021 80.9654 -96.7628 -105.452 82.041 -96.109 -104.146 82.2046 
-94.8843 -103.3 82.2755 -96.8914 -108.65 82.165 -97.2346 -109.954 81.5372 
-96.373 -106.861 82.7202 -95.8454 -105.3 83.0351 -94.9602 -104.242 83.2602 
-93.9679 -103.248 83.5447 -96.2852 -109.956 82.8068 -96.364 -111.145 82.2248 
-95.9496 -108.384 83.3312 -95.482 -106.745 83.7074 -94.7855 -105.518 84.0509 
-93.9228 -104.402 84.4679 -93.1135 -103.31 84.7796 -95.6337 -111.222 83.3052 
-95.7327 -112.332 82.757 -95.3616 -109.872 83.8177 -94.9957 -108.299 84.305 
-94.5128 -106.918 84.7942 -93.8154 -105.767 85.2742 -93.0442 -104.557 85.6387 
-92.1958 -103.543 85.738 -94.9525 -112.264 83.6276 -95.0842 -113.292 83.1058 
-94.6578 -111.125 84.1439 -94.347 -109.788 84.7712 -94.1058 -108.375 85.4902 
-93.7054 -107.122 86.0665 -93.015 -105.957 86.3865 -92.1691 -104.82 86.5043 
-91.1862 -103.943 86.4389 -94.1892 -113.14 83.8918 -94.3046 -114.097 83.371 
-93.9357 -112.136 84.4147 -93.6835 -111.074 85.0938 -93.5925 -109.877 85.9662 
[...]
CELL_DATA 2000
SCALARS Distance double
LOOKUP_TABLE default
153.915 153.994 154.097 154.407 154.322 154.277 154.532 154.559 154.65 
154.83 154.645 154.711 154.643 154.6 154.58 154.421 155.254 155.054 
154.947 154.788 154.611 154.49 154.262 154.212 154.031 155.479 155.299 
155.108 154.957 154.765 154.577 154.335 154.14 153.944 153.884 153.773 
155.645 155.433 155.164 155.02 154.836 154.732 154.539 154.329 154.085 
153.895 153.724 153.662 153.498 155.8 155.583 155.257 155.051 154.798 
154.727 154.539 154.454 154.166 154.007 153.72 153.628 153.43 153.363 
153.151 155.923 155.724 155.425 155.175 154.896 154.726 154.513 154.397 
154.083 153.937 153.554 153.497 153.249 153.275 153.112 153.056 152.881 
156.117 155.881 155.629 155.371 155.129 154.903 154.712 154.491 154.195 
153.902 153.475 153.274 152.976 153.009 152.895 152.972 152.858 152.823 
152.676 153.609 153.06 153.373 153.577 152.676 152.845 153.085 153.505 
153.967 152.884 152.699 152.954 153.173 153.761 154.135 154.676 153.882 
153.312 153.501 153.329 153.869 154.082 154.714 154.933 155.288 155.348 
154.611 154.723 154.184 154.494 154.351 154.841 154.99 155.401 155.479 
155.625 156.849 156.127 156.209 155.542 155.665 155.155 155.371 155.199 
155.518 155.57 155.817 155.794 155.861 158.279 157.569 157.603 156.966 
157.036 156.401 156.458 155.936 156.083 155.836 156.06 155.989 156.134 
156.028 156.03 159.64 158.942 158.904 158.276 158.321 157.719 157.761 
157.135 157.185 156.655 156.761 156.414 156.513 156.304 156.337 156.168 
156.137 160.831 160.212 160.132 159.524 159.535 158.961 159.01 158.412 
158.44 157.839 157.866 157.32 157.331 156.872 156.867 156.54 156.559 
156.324 156.346 161.368 161.922 161.342 160.726 162.506 161.933 161.394 
160.766 160.185 163.16 162.571 162.091 161.486 160.944 160.27 159.67 
163.828 163.241 162.729 162.168 161.617 160.997 160.359 159.705 159.073 
164.327 163.824 163.221 162.714 162.1 161.564 160.9 160.315 159.654 
159.065 158.46 164.589 164.19 163.573 163.108 162.47 161.969 161.325 
160.792 160.157 159.604 158.983 158.427 157.844 164.807 164.433 163.921 
163.46 162.892 162.366 161.771 161.231 160.643 160.103 159.505 158.938 
158.322 157.784 157.265 165.123 164.746 164.343 163.892 163.414 162.874 
162.311 161.734 161.142 160.592 160.012 159.466 158.879 158.302 157.759 
157.26 156.879 165.451 165.111 164.739 164.347 163.908 163.425 162.886 
162.312 161.7 161.107 160.499 159.954 159.396 158.867 158.35 157.818 
157.384 156.944 156.645 156.605 157.374 156.894 156.707 158.306 157.764 
157.585 157.008 156.752 159.316 158.743 158.59 157.974 157.756 157.111 
156.912 160.459 159.834 159.762 159.092 158.955 158.236 158.082 157.403 
157.31 161.717 161.084 161.11 160.413 160.36 159.573 159.431 158.66 
158.549 157.879 157.817 162.911 162.354 162.406 161.795 161.784 161.046 
160.891 160.064 159.89 159.147 159.07 158.411 158.378 163.926 163.467 
163.5 162.995 162.993 162.393 162.269 161.505 161.307 160.519 160.422 
159.716 159.706 159.027 159.034 164.767 164.393 164.433 163.999 164.02 
163.519 163.47 162.821 162.671 161.921 161.804 161.092 161.06 160.379 
160.355 159.689 159.689 165.484 165.172 165.236 164.87 164.919 164.503 
164.511 163.979 163.888 163.229 163.109 162.433 162.359 161.698 161.621 
160.959 160.886 160.282 160.285 156.23 156.221 156.033 155.668 156.198 
155.968 155.569 155.457 155.176 156.31 155.956 155.513 155.356 155.088 
155.019 154.781 156.668 156.159 155.602 155.31 154.95 154.884 154.584 
154.549 154.183 157.175 156.593 155.952 155.469 154.959 154.732 154.343 
154.261 153.814 153.772 153.356 157.753 157.143 156.546 155.935 155.412 
154.919 154.523 154.175 153.784 153.505 153.118 153.012 152.833 158.428 
157.796 157.276 156.636 156.19 155.577 155.217 154.657 154.312 153.788 
153.429 153.038 152.835 152.736 152.765 159.142 158.536 158.056 157.428 
156.99 156.392 155.978 155.416 154.972 154.429 153.95 153.475 153.093 
152.844 152.703 152.723 152.738 159.825 159.275 158.835 158.222 157.747 
157.143 156.637 156.069 155.51 154.975 154.385 153.904 153.375 153.041 
152.707 152.619 152.504 152.604 152.577 160.091 160.214 159.811 159.104 
160.212 159.847 159.046 158.706 157.962 160.099 159.754 158.923 158.581 
157.763 157.484 156.764 160.099 159.684 158.919 158.504 157.704 157.306 
156.494 156.231 155.545 160.275 159.802 159.057 158.59 157.828 157.357 
156.529 156.064 155.241 154.986 154.361 160.464 160.01 159.194 158.715 
157.863 157.443 156.622 156.178 155.318 154.846 154.071 153.841 153.336 
160.578 160.162 159.34 158.826 157.888 157.405 156.539 156.176 155.388 
154.974 154.166 153.735 153.106 152.937 152.642 160.633 160.251 159.498 
159.002 158.137 157.537 156.662 156.147 155.393 154.997 154.289 153.872 
153.221 152.887 152.522 152.447 152.397 160.657 160.297 159.591 159.173 
158.422 157.882 157.083 156.463 155.697 155.142 154.47 154.012 153.443 
153.069 152.697 152.485 152.387 152.375 152.455 160.7 161.772 161.12 
160.914 163.101 162.287 162.073 161.353 161.017 164.562 163.65 163.289 
162.526 162.172 161.384 160.924 165.746 164.97 164.443 163.674 163.248 
162.51 162.065 161.268 160.858 166.501 165.95 165.465 164.732 164.258 
163.542 163.139 162.4 162.021 161.276 160.99 167.136 166.683 166.389 
165.722 165.296 164.565 164.195 163.485 163.168 162.442 162.151 161.444 
161.183 167.806 167.397 167.189 166.635 166.279 165.607 165.263 164.583 
164.322 163.617 163.354 162.614 162.324 161.601 161.298 168.338 168.016 
167.776 167.359 167.047 166.521 166.241 165.655 165.458 164.806 164.592 
163.846 163.548 162.768 162.429 161.683 161.345 168.66 168.415 168.16 
167.844 167.589 167.209 167.044 166.602 166.505 165.948 165.775 165.072 
164.755 163.978 163.589 162.821 162.438 161.708 161.355 165.899 166.475 
166.011 165.66 167.096 166.6 166.232 165.755 165.379 167.766 167.258 
166.875 166.344 165.933 165.443 164.992 168.415 167.966 167.587 167.005 
166.504 165.963 165.441 164.959 164.387 168.856 168.56 168.204 167.681 
167.123 166.529 165.96 165.413 164.844 164.3 163.68 169.017 168.854 
168.481 168.129 167.592 167.11 166.626 166.069 165.594 164.915 164.316 
163.625 162.979 169.041 168.91 168.507 168.243 167.73 167.433 167.087 
166.763 166.461 165.848 165.253 164.399 163.616 162.888 162.191 169.014 
168.904 168.54 168.274 167.791 167.511 167.184 167.058 166.855 166.582 
166.041 165.323 164.399 163.545 162.671 162.044 161.4 168.878 168.838 
168.543 168.355 167.939 167.641 167.247 167.069 166.777 166.688 166.207 
165.833 164.963 164.247 163.297 162.575 161.864 161.316 160.804 166.143 
166.743 166.556 166.774 167.362 167.199 167.461 167.223 167.419 167.909 
167.793 168.084 167.915 168.121 167.864 168.048 168.447 168.306 168.599 
168.492 168.726 168.524 168.651 168.432 168.599 169.086 168.885 169.136 
168.99 169.231 169.074 169.178 168.957 169.007 168.868 168.98 169.617 
169.513 169.702 169.526 169.653 169.504 169.574 169.405 169.387 169.209 
169.221 169.131 169.171 169.754 169.864 170.048 169.99 169.99 169.829 
169.775 169.669 169.648 169.534 169.506 169.37 169.372 169.263 169.24 
169.613 169.821 170.054 170.171 170.217 170.094 169.969 169.811 169.767 
169.71 169.74 169.65 169.635 169.492 169.446 169.303 169.213 169.476 
169.642 169.89 170.094 170.267 170.273 170.225 170.043 169.953 169.835 
169.862 169.824 169.841 169.741 169.663 169.509 169.383 169.229 169.07 
169.488 169.609 169.656 169.891 169.638 169.762 170.009 170.091 170.264 
169.528 169.716 169.932 170.101 170.237 170.319 170.274 169.406 169.58 
169.737 169.9 169.976 170.144 170.114 170.163 170.024 169.303 169.491 
169.644 169.716 169.693 169.789 169.729 169.887 169.836 169.925 169.88 
169.015 169.311 169.477 169.621 169.551 169.551 169.389 169.472 169.434 
169.64 169.686 169.837 169.834 168.568 168.881 168.993 169.293 169.263 
169.377 169.201 169.214 169.119 169.255 169.325 169.548 169.6 169.735 
169.662 168.203 168.418 168.499 168.761 168.816 169.018 168.966 169.036 
168.945 169.015 169.024 169.197 169.244 169.423 169.372 169.476 169.35 
167.892 168.096 168.214 168.402 168.543 168.694 168.771 168.841 168.813 
168.847 168.799 168.906 168.883 169.048 168.976 169.121 168.99 169.115 
168.989 167.672 167.383 167.757 168.096 166.855 167.43 167.946 168.238 
168.496 166.142 166.811 167.453 168.012 168.422 168.614 168.737 165.45 
166.078 166.723 167.428 168.001 168.435 168.636 168.746 168.752 164.714 
165.364 165.961 166.692 167.352 167.956 168.315 168.56 168.592 168.673 
168.686 163.834 164.536 165.098 165.873 166.55 167.299 167.824 168.236 
168.378 168.488 168.485 168.602 168.691 162.995 163.652 164.198 164.941 
165.592 166.426 167.059 167.708 168.002 168.26 168.247 168.361 168.37 
168.583 168.703 162.27 162.88 163.414 164.074 164.669 165.443 166.063 
166.844 167.243 167.752 167.789 168.027 167.958 168.186 168.246 168.55 
168.692 161.579 162.171 162.676 163.31 163.839 164.538 165.065 165.816 
166.209 166.855 166.978 167.404 167.373 167.69 167.74 168.068 168.234 
168.554 168.726 167.349 166.582 166.959 166.908 165.705 166.089 165.961 
166.402 166.303 164.72 165.162 165.032 165.448 165.336 165.749 165.633 
163.464 164.04 163.903 164.453 164.357 164.823 164.711 165.107 164.988 
162.07 162.649 162.438 163.116 162.967 163.657 163.508 164.096 163.905 
164.402 164.214 160.828 161.282 161.014 161.591 161.382 162.078 161.892 
162.631 162.417 163.103 162.87 163.484 163.282 159.727 160.105 159.828 
160.283 160.075 160.597 160.428 161.026 160.875 161.527 161.375 162.032 
161.893 162.529 162.423 158.695 159.024 158.727 159.152 158.953 159.421 
159.272 159.757 159.643 160.163 160.071 160.631 160.548 161.153 161.095 
161.729 161.692 157.78 158.03 157.702 158.07 157.858 158.316 158.172 
158.659 158.536 159.035 158.917 159.433 159.316 159.872 159.789 160.407 
160.376 161.026 161.014 167.446 167.436 167.248 166.774 167.24 167.2 
166.739 166.502 165.926 166.628 166.822 166.403 166.361 165.765 165.568 
164.904 165.8 166.056 165.657 165.811 165.234 165.231 164.537 164.408 
163.648 165.097 165.259 164.84 164.982 164.435 164.533 163.904 163.912 
163.212 163.077 162.314 164.412 164.58 164.127 164.225 163.68 163.748 
163.189 163.247 162.687 162.644 162.006 161.81 161.112 163.56 163.784 
163.295 163.469 162.921 163.033 162.487 162.575 162.073 162.127 161.606 
161.527 160.905 160.686 160.022 162.712 162.879 162.37 162.562 162.054 
162.238 161.738 161.875 161.368 161.479 160.984 161.056 160.526 160.454 
159.845 159.632 159.006 162.021 162.092 161.581 161.692 161.235 161.404 
161.005 161.154 160.71 160.788 160.296 160.382 159.922 159.995 159.521 
159.442 158.893 158.67 158.109 161.499 160.474 161.006 161.017 159.288 
159.92 159.995 160.56 160.666 158.025 158.71 158.889 159.542 159.752 
160.312 160.481 156.951 157.556 157.831 158.479 158.791 159.41 159.618 
160.128 160.208 156.239 156.713 157.041 157.555 157.868 158.455 158.673 
159.216 159.264 159.746 159.757 155.665 156.123 156.399 156.844 157.042 
157.553 157.713 158.246 158.316 158.791 158.814 159.298 159.379 154.961 
155.457 155.609 156.094 156.192 156.697 156.828 157.334 157.467 157.915 
158.009 158.432 158.521 158.985 159.054 154.285 154.686 154.793 155.22 
155.347 155.835 156.077 156.565 156.819 157.214 157.356 157.702 157.753 
158.149 158.141 158.584 158.501 153.961 154.159 154.326 154.559 154.763 
155.124 155.476 155.941 156.299 156.688 156.83 157.102 157.04 157.344 
157.212 157.614 157.459 157.905 157.735 154.057 154.439 154.27 154.342 
154.646 154.586 154.602 154.526 154.715 154.417 154.572 154.59 154.679 
154.862 154.975 155.374 154.041 154.218 154.211 154.427 154.566 154.911 
155.307 155.657 156.118 153.783 153.905 153.887 154.015 154.053 154.387 
154.684 155.258 155.685 156.194 156.517 153.44 153.614 153.595 153.746 
153.759 153.938 154.102 154.514 154.848 155.444 155.759 156.323 156.572 
153.017 153.17 153.108 153.359 153.417 153.666 153.798 154.056 154.261 
154.642 154.898 155.419 155.707 156.297 156.632 152.751 152.791 152.714 
152.878 152.96 153.248 153.41 153.711 153.856 154.149 154.309 154.678 
154.936 155.443 155.819 156.418 156.843 152.601 152.618 152.582 152.637 
152.729 152.887 153.053 153.288 153.435 153.703 153.854 154.169 154.419 
154.817 155.198 155.693 156.148 156.7 157.147 157.179 156.221 156.804 
157.078 155.297 155.864 156.178 156.808 157.221 154.468 154.966 155.289 
155.934 156.388 157.045 157.538 153.808 154.172 154.444 155.064 155.553 
156.233 156.75 157.398 157.908 153.362 153.583 153.762 154.259 154.736 
155.411 155.943 156.602 157.097 157.755 158.265 153.048 153.21 153.317 
153.648 154.019 154.61 155.139 155.797 156.286 156.928 157.429 158.107 
158.643 152.769 152.922 152.998 153.23 153.455 153.912 154.377 155.012 
155.567 156.184 156.727 157.33 157.914 158.548 159.139 152.564 152.659 
152.7 152.885 153.026 153.363 153.735 154.29 154.89 155.531 156.189 
156.768 157.412 157.954 158.6 159.15 159.77 152.486 152.485 152.466 
152.586 152.719 152.974 153.326 153.75 154.323 154.908 155.609 156.249 
156.957 157.541 158.207 158.724 159.356 159.852 160.445 161.053 159.859 
160.651 160.937 158.446 159.327 159.631 160.447 160.684 156.935 157.822 
158.114 159.042 159.342 160.168 160.46 155.397 156.262 156.521 157.486 
157.862 158.79 159.167 160.012 160.42 153.943 154.721 154.965 155.901 
156.323 157.318 157.812 158.733 159.215 160.058 160.54 152.979 153.467 
153.741 154.462 154.902 155.828 156.415 157.403 158.006 158.897 159.45 
160.25 160.77 152.827 152.944 153.318 153.628 154.102 154.656 155.267 
156.099 156.809 157.728 158.393 159.224 159.815 160.561 161.097 153.219 
153.154 153.612 153.66 154.2 154.333 154.906 155.286 155.968 156.658 
157.386 158.203 158.866 159.647 160.226 160.929 161.415 153.685 153.609 
154.011 154.08 154.629 154.702 155.242 155.314 155.853 156.127 156.752 
157.32 157.989 158.718 159.332 160.059 160.569 161.221 161.62 161.74 
161.655 162.057 162.744 161.441 161.922 162.684 163.104 163.87 161.286 
161.75 162.619 163.071 163.943 164.322 165.118 161.286 161.703 162.638 
163.09 164.028 164.429 165.255 165.566 166.277 161.372 161.755 162.647 
163.112 163.996 164.46 165.226 165.621 166.301 166.646 167.31 161.547 
161.859 162.686 163.091 163.897 164.337 165.041 165.467 166.123 166.562 
167.265 167.667 168.297 161.819 162.061 162.853 163.167 163.976 164.301 
165.03 165.331 166.003 166.369 167.103 167.559 168.251 168.586 168.994 
162.069 162.306 163.021 163.326 164.098 164.434 165.173 165.445 166.075 
166.334 166.96 167.364 168.015 168.445 168.886 169.099 169.237 162.212 
162.468 163.078 163.394 164.045 164.444 165.101 165.495 166.035 166.343 
166.774 167.132 167.602 168.081 168.515 168.888 169.098 169.233 169.289 
161.924 162.96 162.457 162.48 164.122 163.572 163.618 163.03 163.044 
165.353 164.808 164.898 164.259 164.26 163.633 163.684 166.503 166.026 
166.137 165.554 165.573 164.918 164.931 164.324 164.387 167.579 167.141 
167.261 166.733 166.745 166.167 166.157 165.576 165.577 164.995 164.939 
168.537 168.177 168.288 167.809 167.78 167.243 167.18 166.672 166.616 
166.101 165.967 165.386 165.175 169.11 168.943 168.997 168.702 168.641 
168.197 168.062 167.581 167.452 166.995 166.825 166.312 166.062 165.505 
165.295 169.276 169.254 169.287 169.197 169.185 168.924 168.794 168.375 
168.18 167.737 167.546 167.092 166.878 166.362 166.159 165.648 165.538 
169.347 169.331 169.43 169.407 169.523 169.391 169.375 169.04 168.855 
168.414 168.207 167.782 167.624 167.175 167.028 166.528 166.407 165.927 
165.851 167.774 168.12 167.895 167.755 168.415 168.182 168.002 167.801 
167.523 168.718 168.43 168.113 167.918 167.561 167.367 166.891 168.964 
168.675 168.269 167.995 167.573 167.335 166.856 166.606 166.088 169.121 
168.868 168.48 168.17 167.748 167.426 166.965 166.634 166.155 165.859 
165.408 169.246 169.013 168.621 168.342 167.892 167.608 167.131 166.811 
166.294 165.97 165.479 165.214 164.734 169.346 169.142 168.727 168.44 
167.926 167.658 167.157 166.915 166.399 166.098 165.55 165.255 164.729 
164.474 163.927 169.376 169.238 168.901 168.595 168.112 167.731 167.258 
166.953 166.547 166.235 165.767 165.382 164.858 164.5 163.982 163.665 
163.131 169.345 169.28 169.088 168.849 168.485 168.055 167.605 167.19 
166.828 166.49 166.127 165.716 165.229 164.757 164.23 163.813 163.312 
162.948 162.457 
POINT_DATA 1002
SCALARS Distance double
LOOKUP_TABLE default
154.23 153.806 153.716 154.35 153.922 154.647 154.567 154.485 154.687 
154.623 154.891 155.122 154.682 154.438 154.209 155.157 155.492 154.801 
154.358 153.998 153.893 155.255 155.697 154.922 154.581 154.072 153.77 
153.663 155.353 155.893 154.89 154.702 154.342 153.849 153.56 153.278 
155.51 156.004 154.915 154.597 154.327 153.838 153.481 153.256 152.926 
155.665 156.106 155.106 154.673 154.276 153.653 153.178 153.094 152.992 
152.73 155.879 156.372 155.35 154.938 154.531 153.783 152.996 152.759 
152.837 152.751 152.55 153.31 153.101 152.777 152.663 152.596 153.5 
152.845 153.218 153.362 154.428 153.878 154.555 153.788 154.464 155.257 
155.405 156.088 154.893 154.81 155.257 155.694 156.892 157.571 156.336 
155.773 155.538 155.765 155.999 158.247 159.022 157.676 157.103 156.506 
156.212 156.21 156.2 159.56 160.343 158.91 158.384 157.804 157.253 
156.826 156.509 156.306 160.736 161.418 160.105 159.595 159.055 158.466 
157.887 157.285 156.811 156.564 161.954 161.34 162.475 161.989 163.057 
160.857 162.67 163.756 161.617 160.363 163.301 164.432 162.222 161.017 
159.702 163.744 164.811 162.624 161.458 160.232 159.033 164.019 164.943 
162.961 161.831 160.693 159.554 158.367 164.342 165.142 163.407 162.314 
161.175 160.069 158.9 157.705 164.757 165.473 163.933 162.907 161.719 
160.54 159.434 158.308 157.269 165.108 165.775 164.357 163.44 162.317 
161.07 159.895 158.864 157.884 157.005 156.443 157.238 156.445 158.176 
157.346 156.471 159.196 158.406 157.522 156.749 160.417 159.68 158.785 
157.945 157.242 161.77 161.148 160.259 159.254 158.453 157.761 162.981 
162.472 161.735 160.684 159.738 159.023 158.354 163.987 163.537 162.975 
162.101 161.141 160.391 159.707 159.043 164.841 164.477 164.051 163.391 
162.526 161.75 161.043 160.319 159.707 165.572 165.299 164.987 164.502 
163.777 163.028 162.304 161.519 160.822 160.328 155.78 155.685 155.247 
155.718 155.143 154.879 156.018 155.076 154.637 154.243 156.525 155.318 
154.489 153.909 153.295 157.148 155.969 154.956 154.132 153.317 152.749 
157.888 156.795 155.814 154.891 153.921 153.056 152.706 158.679 157.604 
156.575 155.551 154.481 153.454 152.777 152.633 159.442 158.388 157.254 
156.087 154.898 153.78 152.897 152.453 152.433 160.506 159.487 160.652 
159.406 160.582 158.248 159.276 160.442 158.091 156.954 159.337 160.522 
158.148 156.878 155.655 159.551 160.756 158.288 157.052 155.664 154.411 
159.727 160.913 158.31 156.995 155.826 154.473 153.337 159.851 160.973 
158.445 156.915 155.712 154.63 153.404 152.583 159.931 160.998 158.714 
157.256 155.818 154.654 153.586 152.68 152.31 159.967 161.009 158.877 
157.678 156.319 154.958 153.801 152.946 152.471 152.385 161.267 161.588 
162.466 162.812 164.031 161.821 164.111 165.548 162.948 161.751 165.256 
166.437 163.967 162.832 161.614 166.164 166.907 164.981 163.831 162.756 
161.696 166.983 167.524 166.026 164.886 163.873 162.879 161.883 167.689 
168.21 166.902 165.914 164.995 164.105 163.084 162.01 168.153 168.655 
167.491 166.753 166.062 165.323 164.352 163.212 162.067 168.441 168.889 
167.891 167.389 166.996 166.463 165.543 164.372 163.188 162.061 166.351 
166.114 166.962 166.728 167.601 165.857 167.449 168.253 166.453 165.493 
168.201 168.796 167.117 165.948 164.888 168.689 169.09 167.73 166.528 
165.41 164.242 168.787 169.179 167.974 167.08 166.277 165.102 163.611 
168.767 169.181 167.972 167.251 166.938 166.172 164.488 162.753 168.769 
169.095 168.089 167.317 166.99 166.64 165.313 163.4 161.865 166.307 
167.012 166.913 167.676 167.502 167.7 168.207 168.022 168.374 168.295 
168.695 168.629 168.901 168.909 168.755 169.338 169.299 169.382 169.417 
169.213 169.059 169.909 169.65 169.865 169.72 169.592 169.361 169.249 
170.039 169.579 170.203 169.909 169.703 169.654 169.507 169.366 169.851 
169.413 170.277 170.176 169.826 169.779 169.794 169.609 169.367 169.667 