# vtk DataFile Version 4.0
vtk output
ASCII
DATASET POLYDATA
POINTS 1002 float
-79.2675 -115.485 74.596 -79.1965 -116.663 74.2209 -79.2408 -116.1 73.401 
-79.5832 -115.011 73.8227 -79.5614 -115.663 72.4936 -79.5295 -114.251 74.9501 
-80.2206 -114.689 73.045 -80.1086 -115.379 71.7251 -80.1819 -113.914 74.2942 
-80.1878 -113.127 75.3872 -80.9187 -114.404 72.3927 -80.8311 -115.122 71.265 
-80.9764 -113.609 73.6572 -80.9388 -112.793 74.8529 -81.0494 -112.07 75.9366 
-81.6395 -113.993 71.9218 -81.749 -114.752 71.0029 -81.6621 -113.146 73.0462 
-81.687 -112.323 74.27 -81.6815 -111.506 75.4107 -81.7506 -110.737 76.4557 
-82.5686 -113.46 71.5878 -82.7429 -114.196 70.7547 -82.4074 -112.53 72.5659 
-82.422 -111.679 73.6885 -82.4279 -110.857 74.791 -82.3585 -109.965 75.8837 
-82.2955 -109.159 76.8988 -83.586 -112.818 71.3273 -83.6399 -113.471 70.5451 
-83.3761 -111.925 72.2334 -83.2633 -111.01 73.284 -83.2542 -110.211 74.2443 
-83.131 -109.317 75.2327 -82.9986 -108.464 76.3321 -82.9445 -107.866 77.3178 
-84.5055 -112.083 71.1591 -84.5107 -112.731 70.4769 -84.3725 -111.328 71.956 
-84.1824 -110.411 72.9376 -84.0842 -109.562 73.8517 -83.9199 -108.718 74.6634 
-83.7032 -107.845 75.6552 -83.6698 -107.251 76.7339 -83.709 -106.896 77.6785 
-85.4452 -111.389 71.1153 -85.4984 -112.101 70.531 -85.3438 -110.735 71.7846 
-85.1342 -109.887 72.5913 -84.9492 -108.93 73.442 -84.7754 -108.069 74.2163 
-84.4884 -107.218 75.0522 -84.2932 -106.517 76.0286 -84.3284 -106.139 77.026 
-84.346 -105.859 77.9633 -86.4773 -110.804 71.1346 -86.5569 -111.545 70.6244 
-86.3786 -110.201 71.7413 -86.1682 -109.459 72.4065 -85.9034 -108.451 73.0939 
-85.7099 -107.482 73.8163 -85.4794 -106.667 74.6223 -85.1403 -105.911 75.4805 
-84.9094 -105.352 76.35 -84.8501 -105.028 77.2699 -84.7576 -104.749 78.2117 
-79.0437 -117.406 73.2908 -79.0973 -116.835 72.2672 -78.9053 -118.211 72.2561 
-78.9109 -117.654 70.9786 -78.8111 -119.138 71.1728 -79.3266 -116.385 71.2079 
-78.6765 -118.581 69.6314 -78.672 -120.171 70.0637 -79.0728 -117.188 69.792 
-79.8791 -116.079 70.4858 -78.6012 -119.654 68.4624 -78.7428 -121.248 69.2028 
-78.9445 -118.127 68.4105 -79.783 -116.833 69.1429 -80.8123 -115.783 70.1877 
-79.1787 -120.752 67.9942 -79.4411 -122.147 68.9812 -79.2745 -119.207 67.5575 
-79.9228 -117.692 67.9295 -80.8899 -116.397 68.9099 -81.8742 -115.315 69.9807 
-80.3387 -121.45 68.4068 -80.5407 -122.684 69.2679 -80.2347 -120.093 67.7431 
-80.4682 -118.57 67.5095 -81.1052 -117.029 67.8264 -81.9447 -115.752 68.6996 
-82.8247 -114.645 69.7394 -81.4308 -121.681 69.1217 -81.5699 -123.038 69.5915 
-81.3558 -120.438 68.6053 -81.4091 -119.198 68.0274 -81.7409 -117.706 67.5837 
-82.3167 -116.249 67.7521 -83.012 -115.087 68.629 -83.7677 -113.953 69.6728 
-82.2974 -121.905 69.5883 -82.504 -123.425 69.7866 -82.2447 -120.556 69.3192 
-82.3967 -119.571 68.7048 -82.7673 -118.424 67.8719 -83.2574 -116.933 67.4707 
-83.7384 -115.639 67.9251 -84.2438 -114.575 68.895 -84.8451 -113.37 69.8265 
-83.2148 -122.345 69.7866 -83.4676 -123.784 69.956 -83.0949 -120.902 69.6157 
-83.2806 -119.961 69.0439 -83.7878 -119.177 68.0592 -84.3845 -117.856 67.3684 
-84.8165 -116.318 67.5678 -85.1158 -115.157 68.4076 -85.4865 -114.1 69.3219 
-85.9964 -112.821 70.0555 -84.3853 -123.278 69.9813 -84.2144 -121.833 69.7609 
-85.5363 -122.761 69.942 -85.5135 -121.453 69.5607 -86.7883 -122.206 69.8973 
-84.2374 -120.623 69.3171 -86.8372 -120.997 69.4082 -87.8925 -121.488 70.0218 
-85.6544 -120.486 68.8191 -84.658 -119.925 68.3173 -87.9867 -120.273 69.5215 
-88.9051 -120.573 70.2357 -86.9475 -120.011 68.7275 -86.0843 -119.702 67.805 
-85.3209 -118.914 67.3283 -89.1752 -119.316 69.7484 -90.0655 -119.532 70.3541 
-88.0881 -119.074 69.2127 -87.1899 -118.862 68.3053 -86.5452 -118.198 67.4378 
-85.8196 -117.166 67.3052 -90.4618 -118.153 69.9922 -91.2128 -118.353 70.5424 
-89.362 -117.854 69.75 -88.2703 -117.602 69.3535 -87.4707 -117.061 68.5444 
-86.8315 -116.203 68.0597 -86.0733 -115.553 68.1613 -91.598 -116.803 70.364 
-92.1112 -117.042 70.9345 -90.7335 -116.455 70.0609 -89.6507 -116.164 69.9384 
-88.673 -115.775 69.5485 -87.8713 -115.122 69.0744 -87.1491 -114.617 68.9837 
-86.3581 -114.391 69.1342 -92.5816 -115.51 70.7406 -92.9163 -115.81 71.2973 
-92.0452 -115.118 70.271 -91.2077 -114.723 70.007 -90.2468 -114.366 69.8049 
-89.3251 -113.899 69.6057 -88.465 -113.472 69.5966 -87.6487 -113.297 69.7382 
-86.8121 -113.139 69.88 -93.5477 -114.513 70.93 -93.7963 -114.861 71.4595 
-93.2403 -114.1 70.416 -92.6866 -113.571 70.0109 -91.8558 -113.018 69.747 
-90.9117 -112.517 69.6691 -89.969 -112.124 69.8403 -89.0574 -111.939 70.1125 
-88.1783 -111.871 70.2945 -87.3277 -111.734 70.4316 -87.5703 -110.456 70.981 
-88.4019 -110.447 70.7588 -88.541 -109.34 71.2744 -89.3232 -110.434 70.5722 
-89.391 -109.158 70.9435 -89.3959 -108.176 71.5001 -90.3171 -110.441 70.2664 
-90.3882 -109.025 70.6085 -90.311 -107.924 71.0266 -90.2457 -106.904 71.7673 
-91.3487 -110.625 69.8488 -91.4844 -108.957 70.1523 -91.4069 -107.731 70.513 
-91.2638 -106.67 71.2405 -91.1265 -105.63 72.1303 -92.3999 -111.137 69.6536 
-92.5991 -109.159 69.7644 -92.5546 -107.63 70.0186 -92.372 -106.509 70.6676 
-92.1359 -105.455 71.6362 -91.9028 -104.523 72.4635 -93.3681 -111.947 69.81 
-93.6896 -109.895 69.7537 -93.6797 -107.928 69.8505 -93.5067 -106.569 70.3191 
-93.2145 -105.47 71.1686 -92.9377 -104.414 72.0076 -92.6766 -103.552 72.7497 
-94.0278 -112.787 70.1586 -94.5428 -110.999 70.0216 -94.6828 -108.817 70.054 
-94.6235 -107.055 70.3902 -94.4135 -105.84 71.0751 -94.1491 -104.64 71.7441 
-93.9299 -103.532 72.3587 -93.6122 -102.698 73.1364 -94.357 -113.41 70.628 
-95.0047 -111.999 70.424 -95.3421 -109.999 70.4278 -95.5081 -107.956 70.6888 
-95.5266 -106.48 71.2744 -95.386 -105.204 71.8712 -95.2222 -103.891 72.291 
-94.9683 -102.861 72.8791 -94.4878 -102.134 73.7018 -94.5735 -113.857 71.185 
-95.2493 -112.706 70.9712 -95.6797 -111.075 70.9548 -96.0097 -109.089 71.1172 
-96.2786 -107.346 71.5296 -96.3304 -105.912 72.1087 -96.2347 -104.501 72.5424 
-96.0524 -103.312 72.9581 -95.6423 -102.533 73.6402 -95.0186 -101.947 74.431 
-87.488 -109.799 71.5485 -88.4258 -108.693 71.9275 -87.3251 -109.155 72.2267 
-89.2331 -107.347 72.233 -88.1657 -107.841 72.6328 -87.0043 -108.187 72.8615 
-90.0405 -105.877 72.4943 -88.8523 -106.246 72.834 -87.7079 -106.67 73.1706 
-86.6748 -107.047 73.4743 -90.8557 -104.607 72.7718 -89.5538 -104.706 72.9347 
-88.2788 -105.055 73.2766 -87.3315 -105.615 73.8176 -86.4713 -106.148 74.2854 
-91.5878 -103.566 73.1432 -90.308 -103.487 73.286 -88.9547 -103.586 73.5039 
-87.9309 -104.185 74.1444 -87.1557 -104.91 74.8447 -86.1885 -105.415 75.2276 
-92.38 -102.587 73.6148 -91.056 -102.473 73.9277 -89.7556 -102.423 74.1505 
-88.6933 -102.847 74.6747 -87.8446 -103.669 75.4069 -86.8657 -104.305 75.8652 
-85.7692 -104.739 76.0671 -93.2762 -101.789 74.1152 -91.8971 -101.583 74.4973 
-90.5642 -101.558 74.8461 -89.5016 -101.842 75.3466 -88.6315 -102.514 75.9871 
-87.6007 -103.246 76.4559 -86.4081 -103.742 76.6717 -85.4449 -104.253 76.8992 
-94.0257 -101.387 74.6819 -92.8083 -100.971 74.9354 -91.4565 -100.913 75.289 
-90.2278 -101.177 75.8541 -89.2792 -101.632 76.5118 -88.33 -102.239 77.0057 
-87.1416 -102.837 77.2821 -86.0055 -103.333 77.5221 -85.2423 -103.936 77.854 
-94.7606 -101.578 75.4333 -93.865 -100.859 75.5482 -94.5451 -101.192 76.6133 
-93.794 -100.478 76.8089 -94.4668 -100.918 78.1442 -92.7047 -100.479 75.7744 
-93.6641 -100.391 78.6541 -94.2803 -101 79.8195 -92.5743 -100.259 77.2959 
-91.2433 -100.623 76.3292 -93.2272 -100.714 80.3386 -93.8325 -101.414 81.1214 
-92.1815 -100.287 79.2873 -90.8188 -100.413 78.0227 -89.8468 -100.946 77.0779 
-92.6496 -101.387 81.2911 -93.3421 -101.903 82.181 -91.6101 -100.762 80.6297 
-90.2203 -100.339 79.748 -89.2021 -100.553 78.5921 -88.762 -101.32 77.6504 
-92.1588 -102.114 82.231 -92.8891 -102.39 83.4031 -91.1559 -101.69 81.3584 
-89.8081 -100.953 80.817 -88.633 -100.524 79.9755 -88.0613 -100.989 78.8846 
-87.6733 -101.939 77.9808 -91.627 -102.664 83.5245 -92.323 -102.952 84.5338 
-90.7402 -102.483 82.4285 -89.579 -101.994 81.7527 -88.363 -101.312 81.1302 
-87.5166 -101.217 80.1436 -86.9784 -101.827 79.123 -86.4669 -102.605 78.2734 
-90.9892 -103.168 84.6224 -91.648 -103.612 85.2658 -90.2182 -102.929 83.7011 
-89.2522 -102.684 82.9225 -88.1454 -102.239 82.2962 -87.1461 -101.935 81.3861 
-86.3968 -102.095 80.3215 -85.8459 -102.56 79.432 -85.4763 -103.185 78.6299 
-90.3748 -103.833 85.306 -90.9936 -104.335 85.735 -89.7021 -103.454 84.6448 
-88.8567 -103.17 83.9333 -87.8507 -102.874 83.3286 -86.8462 -102.633 82.5519 
-85.9728 -102.593 81.4944 -85.3048 -102.748 80.526 -84.9344 -103.16 79.7435 
-84.8218 -103.888 78.9699 -95.6832 -102.345 74.8868 -95.3441 -102.095 76.1412 
-96.2541 -102.785 75.5422 -96.0098 -102.537 76.9287 -96.836 -103.283 76.2976 
-95.1376 -101.743 77.5448 -96.7039 -103.006 77.6513 -97.2277 -104.124 77.055 
-95.9307 -102.2 78.3974 -95.0891 -101.542 79.1131 -96.9738 -103.945 78.3518 
-97.2473 -105.365 77.8021 -96.6215 -102.805 79.1795 -95.9063 -102.161 79.9916 
-94.8841 -101.743 80.6536 -96.8822 -105.338 79.1571 -97.1479 -106.682 78.5795 
-96.7731 -103.977 80.0693 -96.5318 -102.992 80.985 -95.6552 -102.466 81.6037 
-94.4459 -102.089 82.0125 -96.8452 -106.743 80.0082 -97.0594 -107.929 79.3379 
-96.7024 -105.488 80.9828 -96.71 -104.279 82.0183 -96.2448 -103.357 82.6648 
-95.1427 -102.753 83.032 -93.9618 -102.416 83.32 -96.7613 -108.075 80.7463 
-96.8784 -109.216 80.0272 -96.6242 -106.914 81.6597 -96.6592 -105.778 82.7015 
-96.4543 -104.68 83.4599 -95.6101 -103.746 83.8254 -94.4979 -103.166 84.1494 
-93.4256 -102.95 84.4572 -96.5946 -109.485 81.3984 -96.7369 -110.557 80.7043 
-96.4279 -108.319 82.1459 -96.4201 -107.227 83.0006 -96.3289 -106.247 83.8036 
-95.7265 -105.257 84.2977 -94.7916 -104.401 84.5978 -93.834 -103.913 84.9393 
-92.7799 -103.704 85.2159 -96.5794 -110.89 82.0248 -96.7616 -111.822 81.3603 
-96.3359 -109.796 82.6573 -96.1757 -108.671 83.2898 -96.0079 -107.738 83.9513 
[...]
CELL_DATA 2000
SCALARS Distance double
LOOKUP_TABLE default
157.872 157.239 157.472 157.314 156.861 157.006 156.965 157.041 156.935 
156.708 156.77 156.786 156.837 156.786 156.809 156.777 156.68 156.663 
156.601 156.661 156.586 156.659 156.556 156.652 156.562 156.692 156.627 
156.444 156.434 156.29 156.38 156.243 156.346 156.163 156.284 156.082 
156.631 156.596 156.387 156.3 156.099 156.098 155.961 156.015 155.829 
155.875 155.665 155.752 155.602 156.513 156.497 156.33 156.255 156.037 
155.969 155.791 155.783 155.581 155.573 155.329 155.375 155.237 155.379 
155.366 156.515 156.426 156.301 156.221 156.035 155.927 155.699 155.63 
155.393 155.351 155.072 155.058 154.839 154.972 154.918 155.171 155.179 
156.679 156.514 156.409 156.285 156.161 155.991 155.762 155.578 155.317 
155.2 154.962 154.876 154.651 154.628 154.49 154.647 154.615 154.893 
154.854 158.101 158.115 157.827 157.364 158.161 157.803 157.265 157.114 
156.845 158.277 157.824 157.179 156.977 156.677 156.697 156.651 158.593 
157.975 157.268 156.924 156.603 156.558 156.565 156.639 156.712 159.366 
158.525 157.863 157.225 156.878 156.6 156.572 156.582 156.69 156.746 
156.779 160.46 159.566 159.005 158.143 157.742 157.116 156.921 156.655 
156.634 156.659 156.688 156.752 156.699 161.465 160.692 160.171 159.376 
158.939 158.166 157.804 157.185 156.963 156.676 156.647 156.633 156.658 
156.66 156.608 162.32 161.609 161.063 160.397 159.975 159.311 158.947 
158.213 157.892 157.261 157.15 156.821 156.918 156.768 156.854 156.691 
156.686 163.17 162.451 161.897 161.22 160.827 160.247 159.991 159.356 
159.087 158.359 158.158 157.58 157.61 157.275 157.416 157.144 157.208 
156.912 156.907 163.479 163.615 163.092 162.23 163.855 163.297 162.455 
161.91 161.184 164.062 163.571 162.797 162.239 161.537 161.027 160.414 
164.128 163.747 163.036 162.577 161.902 161.42 160.766 160.269 159.578 
164.102 163.79 163.135 162.762 162.104 161.703 161.008 160.552 159.814 
159.336 158.645 164.019 163.766 163.148 162.829 162.196 161.843 161.15 
160.715 159.97 159.524 158.899 158.496 158.039 163.824 163.649 163.04 
162.791 162.16 161.882 161.23 160.849 160.141 159.697 159.114 158.761 
158.393 158.074 157.786 163.58 163.434 162.873 162.653 162.038 161.792 
161.17 160.885 160.239 159.876 159.297 158.979 158.6 158.367 158.083 
157.822 157.516 163.439 163.257 162.792 162.554 162.016 161.719 161.116 
160.813 160.191 159.903 159.329 159.087 158.65 158.481 158.153 157.988 
157.662 157.452 157.138 157.008 157.452 157.111 156.904 157.915 157.54 
157.233 156.938 156.712 158.385 157.977 157.626 157.255 156.933 156.684 
156.455 158.98 158.472 158.074 157.634 157.257 156.926 156.652 156.43 
156.235 159.823 159.185 158.746 158.142 157.714 157.269 156.961 156.676 
156.473 156.255 156.085 160.85 160.179 159.812 159.016 158.56 157.863 
157.535 157.079 156.894 156.574 156.419 156.149 156.003 161.834 161.272 
161.037 160.248 159.824 158.932 158.566 157.867 157.724 157.208 157.119 
156.651 156.545 156.168 156.098 162.624 162.205 162.06 161.454 161.11 
160.269 159.866 159.056 158.879 158.247 158.207 157.596 157.511 156.927 
156.875 156.423 156.438 163.283 162.934 162.849 162.395 162.163 161.485 
161.122 160.345 160.096 159.441 159.361 158.76 158.657 158.019 157.904 
157.344 157.341 156.886 156.94 156.739 156.702 156.64 156.476 156.572 
156.596 156.472 156.414 156.223 156.302 156.39 156.255 156.312 156.074 
156.043 155.753 156.013 156.054 155.804 155.916 155.62 155.721 155.393 
155.456 155.205 155.821 155.768 155.383 155.377 154.979 155.109 154.834 
155.017 154.844 154.969 154.844 155.727 155.608 155.196 155.024 154.545 
154.506 154.271 154.469 154.474 154.666 154.634 154.686 154.579 155.78 
155.572 155.202 154.944 154.496 154.268 154.037 154.078 154.19 154.388 
154.492 154.545 154.448 154.429 154.363 156.06 155.726 155.359 155.042 
154.657 154.369 154.157 154.052 154.152 154.25 154.42 154.465 154.419 
154.348 154.244 154.277 154.371 156.532 156.101 155.711 155.302 154.941 
154.614 154.418 154.25 154.289 154.296 154.431 154.458 154.461 154.378 
154.276 154.213 154.238 154.363 154.567 156.74 156.824 156.454 155.855 
157.171 156.618 155.965 155.573 155.067 157.862 157.159 156.506 155.864 
155.314 154.909 154.588 158.602 157.94 157.288 156.557 155.9 155.299 
154.88 154.574 154.443 159.199 158.613 157.96 157.298 156.536 155.869 
155.235 154.846 154.585 154.489 154.469 159.831 159.212 158.606 157.94 
157.222 156.48 155.749 155.17 154.752 154.556 154.465 154.474 154.439 
160.5 159.894 159.337 158.668 158.07 157.289 156.64 155.842 155.351 
154.841 154.666 154.487 154.438 154.381 154.301 161.025 160.516 159.969 
159.396 158.849 158.192 157.63 156.859 156.328 155.619 155.283 154.841 
154.702 154.479 154.417 154.295 154.295 161.425 160.981 160.475 159.972 
159.454 158.905 158.388 157.77 157.249 156.578 156.115 155.53 155.22 
154.835 154.702 154.507 154.535 154.444 154.591 157.31 158.253 157.677 
157.478 159.261 158.683 158.557 157.927 157.826 160.336 159.733 159.658 
159.06 159.02 158.416 158.463 161.471 160.833 160.773 160.201 160.244 
159.662 159.73 159.136 159.197 162.658 161.998 161.973 161.385 161.525 
160.956 161.095 160.451 160.487 159.827 159.818 163.853 163.229 163.273 
162.676 162.886 162.323 162.519 161.86 161.881 161.152 161.102 160.429 
160.429 164.975 164.428 164.499 163.969 164.168 163.682 163.874 163.274 
163.251 162.517 162.39 161.704 161.658 161.057 161.065 166.086 165.556 
165.617 165.108 165.229 164.819 164.976 164.517 164.494 163.828 163.641 
162.937 162.821 162.229 162.198 161.637 161.58 167.257 166.718 166.791 
166.221 166.274 165.791 165.885 165.479 165.499 164.973 164.828 164.161 
164.01 163.374 163.313 162.73 162.66 162.071 161.96 163.645 164.159 
163.674 163.227 164.698 164.188 163.641 163.165 162.555 165.087 164.617 
163.986 163.52 162.829 162.341 161.585 165.384 164.889 164.197 163.764 
163.082 162.613 161.888 161.348 160.636 165.726 165.179 164.459 163.971 
163.345 162.889 162.252 161.72 161.04 160.496 159.877 166.038 165.525 
164.848 164.328 163.754 163.259 162.7 162.15 161.474 160.896 160.201 
159.726 159.107 166.339 165.84 165.231 164.752 164.22 163.743 163.219 
162.671 162.011 161.364 160.608 160.023 159.354 158.914 158.349 166.763 
166.214 165.626 165.142 164.612 164.169 163.625 163.152 162.51 161.917 
161.174 160.512 159.826 159.253 158.721 158.257 157.809 167.239 166.689 
166.075 165.562 164.992 164.525 163.934 163.476 162.824 162.331 161.637 
161.073 160.41 159.824 159.278 158.747 158.299 157.825 157.411 164.001 
164.767 164.42 164.548 165.602 165.224 165.36 165.033 165.153 166.449 
166.039 166.126 165.826 165.979 165.633 165.648 167.313 166.861 166.867 
166.541 166.705 166.443 166.591 166.142 166.075 168.187 167.727 167.716 
167.307 167.458 167.181 167.445 167.117 167.218 166.626 166.482 169.041 
168.608 168.637 168.204 168.319 167.981 168.237 167.978 168.198 167.766 
167.713 167.021 166.778 169.917 169.483 169.516 169.102 169.14 168.79 
168.911 168.696 168.917 168.677 168.762 168.229 168.058 167.299 167.058 
170.781 170.363 170.373 169.959 169.939 169.534 169.509 169.237 169.361 
169.255 169.454 169.2 169.211 168.602 168.429 167.645 167.475 171.45 
171.132 171.13 170.789 170.797 170.362 170.293 169.845 169.824 169.611 
169.766 169.715 169.847 169.597 169.526 168.968 168.792 168.084 167.922 
171.651 171.794 171.642 171.439 171.975 171.864 171.808 171.535 171.235 
171.948 171.975 171.914 171.857 171.595 171.245 170.739 171.48 171.642 
171.397 171.642 171.383 171.393 170.914 170.61 170.142 170.992 171.041 
170.712 170.906 170.687 170.919 170.617 170.602 170.242 170.086 169.924 
170.802 170.741 170.531 170.453 170.332 170.372 170.257 170.271 170.061 
170.047 169.935 169.968 169.943 170.501 170.604 170.445 170.433 170.316 
170.293 170.205 170.129 169.939 169.857 169.711 169.803 169.783 169.89 
169.724 169.88 170.14 169.948 170.15 169.962 170.141 169.998 170.085 
169.888 169.818 169.616 169.591 169.536 169.637 169.549 169.529 169.155 
169.261 169.484 169.353 169.558 169.425 169.627 169.524 169.716 169.617 
169.703 169.582 169.566 169.488 169.483 169.397 169.362 169.072 168.884 
168.359 168.97 168.701 168.927 169.089 168.387 168.732 168.968 169.098 
169.23 167.732 168.336 168.766 169.053 169.197 169.244 169.337 166.834 
167.517 167.99 168.634 168.88 169.157 169.182 169.315 169.404 166.064 
166.599 166.891 167.599 167.846 168.483 168.581 169.003 169.092 169.36 
169.453 165.343 165.85 166.027 166.533 166.666 167.271 167.423 168.095 
168.312 168.887 169.079 169.377 169.428 164.382 165.018 165.221 165.724 
165.816 166.253 166.36 166.926 167.162 167.876 168.137 168.765 168.871 
169.237 169.21 163.298 163.961 164.178 164.802 164.922 165.433 165.52 
166.01 166.16 166.747 166.916 167.592 167.675 168.325 168.285 168.805 
168.701 162.352 162.915 163.112 163.713 163.843 164.428 164.534 165.114 
165.256 165.811 165.909 166.427 166.423 166.994 166.939 167.579 167.485 
168.087 167.933 168.849 168.605 168.657 168.551 168.396 168.437 168.217 
168.28 168.084 168.039 168.188 167.934 167.921 167.527 167.627 167.326 
167.342 167.672 167.479 167.593 167.203 167.15 166.733 166.808 166.531 
166.393 166.805 166.615 166.961 166.676 166.806 166.403 166.383 166.017 
166.09 165.858 165.377 165.777 165.517 165.944 165.642 166.03 165.627 
165.87 165.383 165.549 165.128 165.364 165.064 164.348 164.721 164.416 
164.813 164.46 164.864 164.42 164.795 164.266 164.609 164.084 164.437 
164.001 164.392 164.036 163.39 163.697 163.385 163.731 163.408 163.741 
163.336 163.611 163.136 163.415 162.977 163.303 162.927 163.273 162.927 
163.299 162.983 162.579 162.812 162.507 162.773 162.487 162.776 162.447 
162.674 162.271 162.458 162.098 162.338 162.068 162.331 162.058 162.308 
162.019 162.322 162.074 169.024 169.226 168.971 168.744 169.498 169.155 
168.824 168.669 168.489 169.856 169.447 168.969 168.69 168.38 168.334 
168.092 170.037 169.765 169.229 168.842 168.359 168.175 167.848 167.81 
167.428 169.744 169.749 169.292 169.044 168.504 168.206 167.756 167.581 
167.164 167.049 166.55 169.174 169.285 168.913 168.915 168.446 168.284 
167.76 167.531 166.997 166.806 166.269 166.129 165.572 168.723 168.742 
168.358 168.418 167.988 168.013 167.505 167.414 166.813 166.625 166.006 
165.841 165.267 165.138 164.57 168.407 168.368 167.943 167.914 167.448 
167.463 166.984 167.002 166.476 166.379 165.782 165.596 165.017 164.852 
164.316 164.163 163.634 168.024 168.036 167.616 167.562 167.089 167.005 
166.531 166.497 166.064 166.026 165.55 165.403 164.857 164.656 164.116 
163.94 163.427 163.274 162.797 167.606 166.823 167.25 167.248 165.992 
166.466 166.502 166.857 166.751 165.01 165.585 165.636 166.079 165.989 
166.307 166.17 163.741 164.445 164.462 165.078 165.004 165.473 165.356 
165.736 165.664 162.375 163.071 163.068 163.756 163.698 164.331 164.261 
164.818 164.763 165.228 165.152 161.296 161.833 161.914 162.455 162.471 
163.027 163.019 163.621 163.604 164.189 164.114 164.611 164.463 160.522 
160.964 161.12 161.533 161.607 162.004 162.013 162.472 162.434 162.964 
162.864 163.429 163.291 163.828 163.681 159.727 160.213 160.297 160.762 
160.737 161.169 161.062 161.51 161.35 161.815 161.597 162.116 161.931 
162.541 162.441 163.044 162.966 158.791 159.294 159.24 159.758 159.577 
160.092 159.844 160.383 160.132 160.652 160.366 160.846 160.597 161.164 
161.086 161.752 161.774 162.384 162.369 158.272 157.554 158.113 158.579 
157.025 157.37 157.669 158.32 158.801 156.885 157.006 157.2 157.518 
157.89 158.522 159.051 156.767 156.964 157.237 157.352 157.668 157.888 
158.32 158.851 159.393 156.261 156.668 157.012 157.383 157.779 157.949 
158.271 158.422 158.782 159.222 159.674 155.702 156.029 156.264 156.84 
157.298 157.866 158.268 158.504 158.718 158.846 159.119 159.508 159.95 
155.485 155.597 155.684 156.023 156.366 157.065 157.6 158.234 158.587 
158.836 159.045 159.201 159.58 159.941 160.509 155.36 155.472 155.502 
155.602 155.757 156.181 156.656 157.375 157.914 158.491 158.852 159.158 
159.522 159.788 160.314 160.674 161.272 155.046 155.267 155.305 155.429 
155.494 155.721 156.053 156.564 157.109 157.739 158.245 158.781 159.226 
159.661 160.148 160.535 161.053 161.429 161.915 162.061 161.245 161.766 
161.98 160.311 160.89 161.099 161.668 161.909 159.247 159.844 159.992 
160.668 160.897 161.569 161.819 158.169 158.726 158.803 159.472 159.684 
160.433 160.708 161.421 161.646 157.099 157.654 157.764 158.357 158.577 
159.237 159.537 160.259 160.584 161.259 161.523 156.087 156.588 156.734 
157.356 157.6 158.229 158.497 159.147 159.483 160.198 160.578 161.229 
161.533 155.421 155.683 155.722 156.273 156.476 157.182 157.429 158.116 
158.379 159.097 159.46 160.226 160.595 161.251 161.513 155.121 155.173 
155.057 155.345 155.442 156.023 156.294 156.995 157.305 158.003 158.351 
159.09 159.483 160.222 160.556 161.19 161.445 154.859 154.896 154.719 
154.829 154.84 155.166 155.413 155.961 156.354 156.998 157.43 158.085 
158.522 159.18 159.596 160.232 160.594 161.173 161.499 163.818 162.988 
163.766 164.444 162.09 162.901 163.577 164.342 164.955 161.107 161.965 
162.63 163.431 164.071 164.829 165.452 160.169 161.017 161.784 162.539 
163.215 163.945 164.625 165.373 166.029 159.52 160.255 161.17 161.851 
162.604 163.214 163.895 164.576 165.273 165.978 166.573 159.135 159.761 
160.648 161.323 162.084 162.685 163.314 163.914 164.539 165.217 165.815 
166.466 166.935 158.852 159.373 160.071 160.72 161.36 162.049 162.624 
163.287 163.837 164.488 165.028 165.677 166.155 166.761 167.163 158.702 
159.082 159.65 160.118 160.642 161.235 161.789 162.488 163.087 163.773 
164.347 164.95 165.453 166.009 166.452 166.999 167.401 158.662 158.974 
159.537 159.833 160.332 160.673 161.195 161.717 162.362 163.032 163.716 
164.344 164.933 165.438 165.921 166.379 166.806 167.281 167.654 164.479 
165.073 165.056 165.526 165.594 165.61 166.098 166.031 166.441 166.136 
166.152 166.737 166.666 167.193 167.035 167.533 166.707 166.735 167.4 
167.386 168.051 167.929 168.525 168.288 168.779 167.178 167.261 167.892 
168.003 168.712 168.776 169.411 169.283 169.698 169.431 169.696 167.498 
167.634 168.184 168.358 169.003 169.247 169.905 170.005 170.432 170.253 
170.472 170.182 170.369 167.742 167.904 168.453 168.597 169.172 169.405 
170.053 170.309 170.874 170.897 171.261 171.015 171.289 170.934 171.168 
167.968 168.145 168.734 168.88 169.445 169.592 170.18 170.409 171.023 
171.233 171.748 171.753 172.096 171.878 172.079 171.724 171.788 168.151 
168.344 168.903 169.116 169.666 169.848 170.37 170.554 171.084 171.325 
171.827 172.04 172.372 172.423 172.515 172.389 172.306 172.06 171.898 
164.291 165.377 164.719 164.429 166.275 165.715 165.503 164.876 164.619 
167.281 166.616 166.393 165.84 165.635 165.042 164.769 168.477 167.733 
167.413 166.738 166.479 165.93 165.67 165.102 164.776 169.436 168.869 
168.536 167.824 167.43 166.761 166.407 165.866 165.534 165.012 164.676 
170.099 169.651 169.382 168.835 168.431 167.739 167.266 166.604 166.198 
165.67 165.337 164.865 164.544 170.791 170.287 169.968 169.511 169.146 
168.613 168.155 167.501 167.026 166.385 165.992 165.473 165.14 164.683 
164.332 171.373 170.933 170.486 170.026 169.584 169.161 168.731 168.258 
167.797 167.22 166.757 166.17 165.764 165.253 164.882 164.418 164.056 
171.572 171.319 170.846 170.454 169.942 169.533 169.066 168.687 168.241 
167.824 167.356 166.866 166.411 165.896 165.497 164.994 164.643 164.17 
163.876 169.305 169.954 169.6 169.574 170.553 170.266 170.226 169.888 
169.883 170.901 170.756 170.691 170.448 170.423 170.196 170.221 171.274 
171.123 171.132 170.846 170.753 170.574 170.567 170.442 170.349 171.811 
171.655 171.805 171.434 171.324 170.93 170.815 170.631 170.504 170.347 
170.031 172.079 172.104 172.26 172.118 172.063 171.641 171.432 171.001 
170.793 170.48 170.186 169.894 169.496 171.983 172.113 172.211 172.332 
172.367 172.24 172.063 171.678 171.394 170.941 170.627 170.186 169.834 
169.437 169.096 171.907 171.985 172.146 172.242 172.388 172.393 172.328 
172.126 171.841 171.494 171.129 170.715 170.334 169.895 169.526 169.124 
168.789 171.904 172.009 172.248 172.307 172.491 172.476 172.449 172.296 
172.006 171.752 171.333 171.057 170.624 170.315 169.879 169.529 169.103 
168.765 168.371 
POINT_DATA 1002
SCALARS Distance double
LOOKUP_TABLE default
157.697 158.346 157.575 157.148 156.998 157.101 156.875 156.716 156.877 
156.833 156.724 156.688 156.765 156.723 156.782 156.583 156.773 156.501 
156.497 156.456 156.453 156.53 156.777 156.226 156.148 156.09 155.951 
155.849 156.487 156.633 156.151 155.929 155.812 155.592 155.46 155.502 
156.377 156.536 156.132 155.835 155.614 155.323 155.078 155.178 155.422 
156.372 156.643 156.159 155.82 155.448 155.121 154.778 154.665 154.916 
155.201 156.531 156.868 156.329 156 155.473 155.037 154.734 154.446 
154.364 154.567 154.799 158.385 157.523 158.439 157.453 158.595 156.825 
157.43 158.81 156.659 156.554 157.69 159.283 156.69 156.468 156.679 
158.604 160.212 157.3 156.65 156.607 156.792 159.885 161.285 158.528 
157.403 156.716 156.585 156.693 160.911 162.202 159.72 158.572 157.442 
156.735 156.626 156.66 161.715 163.045 160.565 159.645 158.629 157.611 
157.109 157.022 156.884 162.595 163.873 161.384 160.535 159.797 158.842 
158.026 157.7 157.532 157.214 163.972 162.713 164.163 163.019 164.385 
161.637 163.313 164.492 162.064 160.915 163.44 164.454 162.359 161.286 
160.101 163.479 164.377 162.489 161.469 160.273 159.072 163.446 164.238 
162.524 161.579 160.409 159.234 158.396 163.269 163.97 162.41 161.551 
160.567 159.455 158.658 158.131 163.068 163.708 162.287 161.423 160.545 
159.614 158.83 158.317 157.808 162.999 163.613 162.313 161.452 160.478 
159.558 158.825 158.303 157.845 157.339 156.821 157.178 156.718 157.603 
156.922 156.5 158.034 157.247 156.634 156.237 158.566 157.627 156.903 
156.426 156.05 159.44 158.24 157.282 156.704 156.295 155.915 160.627 
159.375 158.071 157.257 156.727 156.241 155.859 161.741 160.747 159.354 
158.277 157.643 156.99 156.409 156.033 162.565 161.878 160.71 159.54 
158.823 158.16 157.388 156.832 156.453 163.241 162.744 161.871 160.79 
159.963 159.302 158.512 157.816 157.378 156.993 156.573 156.503 156.345 
156.174 156.094 155.79 155.757 155.486 155.286 155.109 155.503 154.894 
154.561 154.661 154.766 155.411 154.68 154.068 154.19 154.576 154.564 
155.453 154.748 154.064 153.985 154.403 154.502 154.283 155.699 154.93 
154.3 154.111 154.366 154.496 154.265 154.187 156.155 155.281 154.616 
154.344 154.415 154.515 154.376 154.191 154.339 157.076 156.133 157.266 
156.457 157.792 155.307 157.233 158.565 155.833 154.809 158.025 159.219 
156.612 155.264 154.575 158.598 159.782 157.261 155.74 154.707 154.48 
159.258 160.457 157.964 156.444 155.068 154.488 154.432 159.972 161.076 
158.785 157.464 156.017 154.972 154.546 154.342 160.504 161.497 159.436 
158.33 157.099 155.872 155.011 154.556 154.358 160.945 161.838 159.978 
158.951 157.885 156.768 155.71 154.944 154.611 154.64 157.864 158.096 
158.801 159.155 159.829 158.424 160.219 160.965 159.604 159.036 161.319 
162.132 160.784 160.349 159.809 162.549 163.297 162.056 161.74 161.199 
160.457 163.847 164.42 163.43 163.177 162.644 161.803 161.05 165.021 
165.487 164.636 164.444 164.006 163.108 162.262 161.666 166.162 166.613 
165.672 165.384 165.105 164.375 163.444 162.761 162.17 167.381 167.78 
166.833 166.321 165.952 165.444 164.669 163.919 163.263 162.549 164.085 
163.699 164.696 164.173 165.227 163.055 164.454 165.584 163.335 162.1 
164.635 165.939 163.506 162.408 161.16 164.969 166.275 163.778 162.758 
161.596 160.369 165.338 166.506 164.243 163.248 162.102 160.729 159.511 
165.68 166.835 164.68 163.744 162.671 161.268 159.833 158.722 166.13 
167.328 165.072 164.089 163.046 161.818 160.439 159.208 158.235 164.31 
164.868 165.128 165.679 166.004 165.538 166.439 166.908 166.265 166.139 
167.241 167.796 166.925 166.931 166.707 168.15 168.618 167.761 167.692 
167.717 167.236 169.06 169.45 168.704 168.496 168.529 168.351 167.557 
169.944 170.361 169.548 169.174 169.07 169.156 168.784 167.838 170.788 
171.197 170.39 169.884 169.474 169.544 169.666 169.19 168.265 171.415 