# vtk DataFile Version 4.0
vtk output
ASCII
DATASET POLYDATA
POINTS 1002 float
-76.6927 -109.143 67.4288 -76.4345 -110.45 67.1487 -76.497 -109.982 66.0484 
-77.003 -108.809 66.4413 -76.8822 -109.668 65.1152 -77.284 -107.998 67.8201 
-77.7257 -108.671 65.7082 -77.7554 -109.56 64.4964 -77.8358 -107.746 66.954 
-78.0911 -106.864 68.1788 -78.7683 -108.518 65.2195 -78.8023 -109.338 64.0289 
-78.6861 -107.518 66.3316 -78.7238 -106.408 67.4037 -78.8336 -105.294 68.4799 
-79.7571 -108.078 64.7747 -79.763 -108.84 63.6172 -79.6785 -107.109 65.8991 
-79.585 -105.924 66.851 -79.5484 -104.656 67.8191 -79.5753 -103.582 68.9337 
-80.7785 -107.512 64.4457 -80.8418 -108.297 63.414 -80.7447 -106.566 65.5462 
-80.648 -105.436 66.4892 -80.5577 -104.192 67.3322 -80.5092 -103.104 68.3693 
-80.503 -102.291 69.5026 -82.0233 -106.95 64.3054 -82.0934 -107.796 63.3973 
-82.0144 -106.025 65.27 -81.9074 -104.972 66.1892 -81.6953 -103.755 66.9511 
-81.5624 -102.643 67.8282 -81.4881 -101.773 68.8882 -81.3806 -101.009 69.8764 
-83.2306 -106.254 64.1789 -83.3068 -107.226 63.4243 -83.2244 -105.308 64.9677 
-83.1613 -104.361 65.8234 -82.8401 -103.159 66.5586 -82.4811 -101.921 67.2749 
-82.3153 -100.956 68.2157 -82.1772 -100.154 69.1941 -81.9697 -99.4061 70.0589 
-84.284 -105.481 64.0367 -84.4362 -106.573 63.4812 -84.1664 -104.422 64.6163 
-84.1126 -103.515 65.3652 -83.8789 -102.408 66.1214 -83.4135 -101.095 66.7485 
-83.0651 -100.028 67.5404 -82.8927 -99.2427 68.5306 -82.6807 -98.5416 69.4456 
-82.4273 -97.9375 70.2676 -85.3212 -104.749 63.9452 -85.513 -105.862 63.5472 
-85.0786 -103.617 64.3361 -84.9134 -102.657 64.9193 -84.766 -101.647 65.6629 
-84.4284 -100.411 66.3029 -84.0077 -99.3091 66.9572 -83.7307 -98.5538 67.8802 
-83.5111 -97.928 68.8838 -83.2279 -97.336 69.7501 -82.9442 -96.8578 70.5321 
-76.2868 -111.454 66.2186 -76.2825 -110.897 64.9446 -76.0262 -112.338 65.1492 
-76.0204 -111.733 63.6293 -75.6908 -113.205 63.9801 -76.6673 -110.529 63.8818 
-75.8597 -112.681 62.3058 -75.6491 -114.303 63.1245 -76.4346 -111.393 62.41 
-77.5655 -110.379 63.2213 -76.1769 -113.885 61.6991 -76.2126 -115.476 62.9736 
-76.4835 -112.464 61.2003 -77.4249 -111.241 61.8617 -78.69 -110.056 62.8219 
-77.059 -114.944 62.0837 -77.2376 -116.336 63.2709 -77.1229 -113.658 61.0218 
-77.7474 -112.308 60.9953 -78.8168 -110.813 61.729 -79.8731 -109.465 62.5466 
-78.2834 -115.627 62.7521 -78.4426 -116.947 63.5746 -78.2358 -114.531 61.6539 
-78.6189 -113.418 60.9416 -79.4118 -111.802 61.0425 -80.2729 -110.117 61.5932 
-81.1428 -108.902 62.4259 -79.6352 -116.286 63.1561 -79.6474 -117.521 63.8379 
-79.5937 -115.152 62.2401 -79.8 -114.257 61.2554 -80.3386 -112.957 60.801 
-80.9374 -111.056 60.9395 -81.5846 -109.478 61.5128 -82.429 -108.419 62.4731 
-80.8731 -117.004 63.4044 -80.7251 -117.96 64.1473 -80.9549 -115.851 62.5871 
-81.1037 -114.864 61.592 -81.4715 -113.902 60.8502 -81.8806 -112.257 60.7034 
-82.2616 -110.284 60.9872 -82.872 -108.915 61.6848 -83.6947 -107.882 62.6638 
-81.8748 -117.501 63.6843 -81.6672 -118.149 64.4968 -82.0772 -116.517 62.9253 
-82.2885 -115.383 62.0543 -82.6377 -114.434 61.194 -83.0508 -113.247 60.7855 
-83.3395 -111.366 60.8679 -83.6585 -109.544 61.2867 -84.2296 -108.341 62.0476 
-84.9248 -107.24 62.9161 -82.7323 -117.869 64.3208 -82.9775 -117.178 63.5097 
-83.9388 -117.477 64.1937 -84.2171 -116.6 63.4935 -85.2996 -116.922 64.1701 
-83.2511 -116.04 62.7969 -85.5873 -115.833 63.5986 -86.6771 -116.17 64.2365 
-84.544 -115.278 62.895 -83.6298 -114.813 61.9657 -86.893 -114.901 63.781 
-87.8753 -115.095 64.4449 -85.8746 -114.417 63.0885 -85.0377 -114.018 62.1035 
-84.1689 -113.764 61.2141 -88.059 -113.625 64.1323 -88.9589 -113.674 64.7879 
-87.0786 -113.365 63.4477 -86.3003 -113.077 62.4194 -85.6501 -112.806 61.4193 
-84.6333 -112.252 60.9647 -89.3861 -112.162 64.4508 -90.2027 -112.263 65.0208 
-88.3559 -111.967 63.9489 -87.3977 -111.825 63.1125 -86.7847 -111.659 61.9968 
-86.0813 -111.108 61.3339 -84.8951 -110.258 61.2177 -90.9987 -110.97 64.4468 
-91.6055 -111.17 65.0481 -90.0416 -110.622 64.0693 -88.8351 -110.377 63.7054 
-87.847 -110.342 62.9622 -87.1757 -110.027 62.1482 -86.3274 -109.288 61.8021 
-85.213 -108.651 61.8391 -92.4943 -110.027 64.376 -92.8404 -110.246 65.1026 
-91.8347 -109.602 63.8251 -90.7487 -109.136 63.5927 -89.4824 -108.956 63.4285 
-88.4279 -108.815 63.0126 -87.5626 -108.296 62.5798 -86.6517 -107.699 62.4715 
-85.7262 -107.393 62.637 -93.5193 -109.008 64.5864 -93.7079 -109.259 65.3398 
-93.1576 -108.614 63.8378 -92.4733 -108.084 63.3165 -91.438 -107.648 63.1859 
-90.2207 -107.347 63.1908 -89.0359 -106.904 63.0411 -87.9908 -106.367 62.9138 
-87.0895 -106.068 63.0284 -86.2752 -105.978 63.2887 -86.472 -104.344 63.7547 
-87.3204 -104.306 63.4602 -87.4051 -102.655 63.7572 -88.2187 -104.271 63.1411 
-88.3143 -102.476 63.3939 -88.2346 -100.999 63.6916 -89.3633 -104.529 62.9874 
-89.4063 -102.394 63.0488 -89.2825 -100.883 63.3439 -89.0908 -99.3922 63.7378 
-90.7764 -105.116 62.9867 -90.882 -102.678 62.8931 -90.6794 -100.913 63.0743 
-90.4662 -99.4437 63.4751 -90.2477 -97.8096 63.9124 -92.1213 -105.767 62.9473 
-92.436 -103.377 62.8829 -92.3255 -101.239 63.0032 -92.1095 -99.5887 63.3061 
-91.8635 -97.9181 63.7009 -91.5008 -96.476 64.1596 -93.0976 -106.38 63.0736 
-93.5423 -104.245 63.0399 -93.7078 -101.975 63.1405 -93.659 -99.995 63.3572 
-93.4224 -98.2166 63.6718 -92.9723 -96.6322 64.0544 -92.4388 -95.5704 64.5726 
-93.6961 -106.975 63.6579 -94.1337 -105.025 63.603 -94.5343 -102.909 63.5607 
-94.8039 -100.815 63.6203 -94.7366 -98.8889 63.8842 -94.28 -97.1807 64.2375 
-93.7058 -95.843 64.6532 -93.1799 -94.9576 65.2413 -94.0413 -107.49 64.4909 
-94.4683 -105.675 64.4571 -94.9595 -103.769 64.2941 -95.4721 -101.812 64.1144 
-95.7118 -99.8562 64.2191 -95.4541 -98.055 64.5642 -94.9143 -96.5057 64.957 
-94.4198 -95.311 65.4432 -93.9164 -94.5182 66.1039 -94.2468 -107.913 65.2683 
-94.7134 -106.288 65.2523 -95.23 -104.581 65.1098 -95.7902 -102.809 64.8555 
-96.2208 -100.904 64.7697 -96.2959 -99.0252 64.9699 -95.9833 -97.3454 65.3202 
-95.5387 -95.9245 65.7706 -95.0937 -94.8821 66.3639 -94.5064 -94.2572 67.0687 
-86.2239 -103.157 64.0507 -87.1178 -101.479 64.0505 -85.9202 -102.038 64.444 
-87.9053 -99.6773 64.0456 -86.7779 -100.266 64.5051 -85.6948 -100.975 65.0947 
-88.7833 -97.8824 64.168 -87.5549 -98.327 64.5667 -86.493 -99.0754 65.196 
-85.4606 -99.7989 65.8288 -89.9616 -96.4834 64.4437 -88.4593 -96.7298 64.8081 
-87.2203 -97.2739 65.3498 -86.1651 -97.9988 65.9883 -85.0865 -98.6785 66.5102 
-91.0979 -95.5466 64.8372 -89.5493 -95.6979 65.2425 -88.0261 -95.9165 65.7282 
-86.7611 -96.3736 66.2985 -85.7299 -97.1294 66.8644 -84.7128 -97.8907 67.3844 
-91.9538 -94.7924 65.434 -90.5003 -94.8172 65.8133 -88.9138 -94.8381 66.2709 
-87.3914 -94.9384 66.7624 -86.2089 -95.5006 67.3089 -85.3212 -96.4489 67.9045 
-84.4186 -97.2849 68.4583 -92.7011 -94.208 66.2718 -91.2552 -94.0117 66.5869 
-89.7253 -93.8911 66.9788 -88.1715 -93.8489 67.3798 -86.7557 -94.0789 67.8177 
-85.7454 -94.8188 68.3681 -84.967 -95.8362 68.9738 -84.0992 -96.6799 69.4495 
-93.3467 -93.9286 67.24 -91.9178 -93.5878 67.5168 -90.4505 -93.2841 67.8509 
-89.0209 -93.167 68.1859 -87.545 -93.2504 68.5186 -86.2512 -93.5722 68.9162 
-85.3626 -94.3039 69.4249 -84.603 -95.2857 69.9312 -83.7471 -96.1508 70.2921 
-94.1845 -93.946 68.2522 -92.8294 -93.612 68.488 -93.5984 -93.6571 69.6066 
-92.2095 -93.2007 69.8743 -93.0123 -93.1559 71.0494 -91.3571 -93.1389 68.7915 
-91.7159 -92.5418 71.3344 -92.4644 -92.7107 72.4746 -90.9021 -92.5366 70.1589 
-89.9874 -92.7415 69.1072 -91.118 -92.1944 72.7416 -91.7388 -92.846 73.7251 
-90.4375 -91.7706 71.6021 -89.5545 -92.0336 70.4568 -88.5238 -92.6711 69.4232 
-90.2444 -92.5549 73.9633 -90.9618 -93.2466 74.8861 -89.6322 -91.5611 73.053 
-88.8315 -91.2771 71.9347 -87.8469 -91.9788 70.7952 -86.9288 -92.8048 69.7522 
-89.4735 -92.959 75.1471 -90.3592 -93.4126 76.1914 -88.761 -92.052 74.37 
-87.9773 -91.2887 73.4542 -87.0257 -91.4664 72.2883 -86.209 -92.2701 71.1203 
-85.6851 -93.1843 70.131 -88.929 -93.1574 76.4487 -89.7756 -93.6847 77.4803 
-88.1696 -92.5429 75.5791 -87.4201 -91.9799 74.7822 -86.4916 -91.8408 73.7432 
-85.6268 -92.2031 72.5286 -85.1164 -92.9481 71.4145 -84.842 -94.0347 70.5571 
-88.3512 -93.6404 77.6965 -89.0885 -94.3469 78.4684 -87.6065 -93.0312 76.7967 
-86.9122 -92.6717 75.9417 -86.0942 -92.6183 75.0192 -85.1966 -92.7438 73.8827 
-84.5686 -93.1336 72.6976 -84.2514 -93.978 71.7043 -84.0083 -95.0897 70.9335 
-87.7147 -94.4135 78.721 -88.43 -95.108 79.2111 -86.9232 -93.7884 77.9753 
-86.1762 -93.3767 77.1124 -85.4134 -93.2471 76.2297 -84.5677 -93.2672 75.201 
-83.8874 -93.4543 74.0006 -83.5562 -94.0632 72.881 -83.3738 -95.0228 71.9805 
-83.1575 -95.9939 71.2161 -95.3183 -94.3982 67.7178 -94.9629 -94.0638 69.0805 
-95.8989 -94.7056 68.6292 -95.5563 -94.3675 70.1395 -96.2361 -95.3604 69.7832 
-94.4312 -93.7153 70.5444 -95.926 -95.1176 71.2907 -96.4176 -96.3406 70.9909 
-95.1284 -94.1092 71.5767 -93.8826 -93.2882 72.014 -96.0996 -96.1793 72.4095 
-96.5753 -97.4671 72.1486 -95.4561 -95.0982 72.6042 -94.5277 -93.9894 72.9756 
-93.2103 -93.166 73.4386 -96.2969 -97.3106 73.5878 -96.7599 -98.7532 73.3374 
-95.5221 -96.2372 73.7069 -94.7164 -95.1759 73.9965 -93.7733 -94.0254 74.5085 
-92.4617 -93.3987 74.8186 -96.5264 -98.6188 74.7633 -96.7975 -100.187 74.4317 
-95.7377 -97.2856 74.9087 -94.7926 -96.2093 75.1137 -94.0703 -95.0299 75.6628 
-93.2056 -93.9792 76.1951 -91.8585 -93.5521 76.2832 -96.4228 -100.094 75.5858 
-96.5618 -101.577 75.18 -95.8916 -98.5984 75.8679 -95.0075 -97.2613 76.1206 
-94.2526 -96.0468 76.6161 -93.6512 -94.8681 77.3341 -92.6512 -94.0769 77.7327 
-91.2084 -93.811 77.6532 -95.9536 -101.525 76.0126 -96.1944 -102.863 75.6414 
-95.5623 -100.148 76.3597 -94.9606 -98.7699 76.7813 -94.3033 -97.4623 77.3064 
-93.7195 -96.2544 77.9497 -92.9194 -95.2836 78.5015 -91.6994 -94.7478 78.6687 
-90.3321 -94.5235 78.5658 -95.4627 -102.85 76.3522 -95.8449 -104.083 76.0348 
-94.9975 -101.612 76.6524 -94.544 -100.401 77.153 -94.1183 -99.1786 77.8371 
[...]
CELL_DATA 2000
SCALARS Distance double
LOOKUP_TABLE default
148.666 148.075 148.257 148.174 147.945 147.916 147.885 147.961 147.942 
148.115 148.007 147.943 147.849 147.732 147.748 147.57 148.171 148.147 
148.034 147.937 147.7 147.588 147.283 147.248 146.967 148.193 148.14 
148.047 147.965 147.745 147.577 147.258 147.076 146.81 146.736 146.618 
148.402 148.244 148.18 148.035 147.892 147.683 147.402 147.144 146.86 
146.707 146.554 146.539 146.451 148.636 148.459 148.3 148.179 147.999 
147.856 147.527 147.282 146.84 146.676 146.337 146.367 146.122 146.221 
145.955 148.784 148.583 148.251 148.146 147.841 147.815 147.431 147.286 
146.716 146.515 145.986 145.973 145.632 145.751 145.465 145.57 145.288 
148.904 148.651 148.202 148.003 147.592 147.534 147.159 147.082 146.567 
146.346 145.788 145.63 145.287 145.303 145.123 145.166 144.994 145.011 
144.859 148.984 149.115 148.744 148.244 149.102 148.765 148.243 148.093 
147.953 149.268 148.757 148.208 148.031 147.902 147.974 148.073 150.061 
149.204 148.616 148.132 147.978 147.926 148.043 148.12 148.185 151.331 
150.317 149.745 148.901 148.677 148.238 148.303 148.161 148.249 148.197 
148.235 152.632 151.688 151.182 150.252 149.981 149.249 149.185 148.677 
148.661 148.374 148.417 148.33 148.446 153.869 153.011 152.575 151.689 
151.404 150.625 150.483 149.774 149.596 148.99 148.871 148.586 148.685 
148.632 148.765 155.018 154.276 153.913 153.069 152.758 151.978 151.809 
151.093 150.891 150.103 149.815 149.189 149.12 148.901 149.062 148.978 
149.051 155.949 155.377 155.085 154.364 154.025 153.263 153.021 152.347 
152.186 151.446 151.16 150.316 150.056 149.485 149.522 149.317 149.468 
149.285 149.271 156.298 156.576 156.151 155.51 156.85 156.411 155.745 
155.269 154.505 157.098 156.66 155.947 155.471 154.72 154.23 153.508 
157.194 156.84 156.111 155.656 154.911 154.45 153.786 153.333 152.686 
157.041 156.817 156.116 155.763 155.028 154.63 153.973 153.589 152.932 
152.48 151.694 156.821 156.621 155.985 155.704 155.009 154.686 154.024 
153.709 153.046 152.653 151.867 151.36 150.565 156.792 156.52 155.971 
155.635 155.005 154.66 154.042 153.729 153.127 152.759 152.077 151.579 
150.894 150.387 149.914 156.9 156.621 156.132 155.754 155.159 154.745 
154.158 153.8 153.258 152.897 152.305 151.854 151.245 150.783 150.332 
149.971 149.728 156.901 156.708 156.22 155.922 155.323 154.938 154.318 
153.951 153.376 153.041 152.42 152.046 151.373 151.023 150.47 150.24 
149.876 149.726 149.451 149.183 149.573 149.155 148.668 150.063 149.53 
148.989 148.545 148 150.899 150.142 149.522 148.901 148.367 147.909 
147.414 152.013 151.164 150.536 149.65 149.103 148.439 148.048 147.481 
147.07 153.088 152.345 151.833 150.872 150.308 149.424 149.038 148.325 
147.989 147.301 146.958 154.073 153.419 153.041 152.197 151.687 150.758 
150.318 149.483 149.134 148.354 147.991 147.283 147.018 155.062 154.432 
154.104 153.367 152.94 152.103 151.676 150.82 150.456 149.606 149.245 
148.41 148.096 147.412 147.267 155.956 155.397 155.072 154.409 154.027 
153.294 152.921 152.139 151.801 150.974 150.64 149.762 149.437 148.606 
148.409 147.754 147.728 156.664 156.208 155.917 155.34 155.008 154.358 
154.042 153.337 153.03 152.276 151.959 151.15 150.821 149.986 149.721 
148.975 148.872 148.281 148.317 148.807 148.274 148.384 148.032 147.631 
147.783 147.451 147.591 147.349 146.968 147.094 146.758 146.963 146.723 
146.97 146.837 146.482 146.447 146.022 146.207 145.961 146.271 146.104 
146.423 146.23 146.36 146.116 145.646 145.587 145.313 145.502 145.365 
145.657 145.49 145.745 145.524 146.507 146.175 145.764 145.479 145.153 
145.046 144.851 144.981 144.884 145.1 145.006 145.175 145.096 146.79 
146.424 146.043 145.715 145.328 145.05 144.678 144.585 144.372 144.541 
144.52 144.768 144.795 144.953 144.964 147.255 146.804 146.401 146.006 
145.585 145.235 144.789 144.509 144.148 144.104 144 144.248 144.338 
144.637 144.694 144.863 144.85 147.878 147.369 146.967 146.45 146.027 
145.557 145.164 144.747 144.406 144.088 143.884 143.841 143.868 144.116 
144.243 144.522 144.566 144.725 144.717 148.137 148.222 147.864 147.204 
148.247 147.905 147.204 146.861 146.201 148.262 147.897 147.191 146.841 
146.167 145.871 145.303 148.4 147.945 147.193 146.804 146.115 145.828 
145.254 145.026 144.546 148.698 148.158 147.354 146.844 146.056 145.716 
145.103 144.928 144.448 144.294 143.951 149.072 148.499 147.724 147.117 
146.314 145.763 145.092 144.772 144.322 144.172 143.891 143.823 143.783 
149.516 148.91 148.191 147.577 146.904 146.247 145.646 145.043 144.614 
144.213 144.006 143.833 143.85 143.869 144.08 150.046 149.422 148.742 
148.117 147.532 146.933 146.445 145.816 145.388 144.789 144.512 144.128 
144.103 143.998 144.166 144.23 144.438 150.59 150.007 149.384 148.743 
148.164 147.578 147.099 146.565 146.109 145.561 145.138 144.687 144.484 
144.283 144.342 144.33 144.48 144.523 144.644 148.722 149.659 149.082 
148.854 150.717 150.072 149.851 149.211 148.921 151.94 151.217 151.003 
150.283 150.003 149.282 148.973 153.247 152.488 152.281 151.519 151.259 
150.465 150.169 149.399 149.143 154.65 153.829 153.6 152.81 152.567 
151.779 151.516 150.701 150.454 149.667 149.463 156.131 155.291 155.023 
154.151 153.857 153.063 152.831 152.072 151.876 151.073 150.88 150.056 
149.864 157.397 156.699 156.409 155.573 155.197 154.354 154.071 153.343 
153.199 152.491 152.353 151.544 151.352 150.495 150.309 158.312 157.76 
157.443 156.79 156.408 155.652 155.328 154.591 154.424 153.76 153.649 
152.95 152.759 151.97 151.741 150.937 150.768 159.079 158.549 158.203 
157.649 157.311 156.724 156.471 155.831 155.672 155.002 154.865 154.175 
153.964 153.247 152.978 152.261 152.037 151.347 151.208 156.943 157.198 
156.797 156.227 157.582 157.099 156.511 156.041 155.398 158.077 157.544 
156.967 156.417 155.761 155.212 154.506 158.628 158.061 157.455 156.894 
156.194 155.61 154.826 154.271 153.5 159.156 158.587 157.875 157.309 
156.515 155.961 155.086 154.535 153.665 153.186 152.4 159.503 159.015 
158.22 157.648 156.762 156.195 155.277 154.723 153.809 153.303 152.465 
152.041 151.271 159.62 159.237 158.471 157.94 157.055 156.448 155.54 
154.936 154.05 153.477 152.636 152.129 151.36 150.926 150.21 159.6 
159.297 158.622 158.178 157.388 156.794 155.926 155.278 154.424 153.8 
152.989 152.397 151.64 151.109 150.44 149.976 149.384 159.449 159.236 
158.629 158.319 157.638 157.151 156.342 155.71 154.858 154.221 153.43 
152.822 152.09 151.5 150.85 150.32 149.775 149.304 148.827 157.367 
158.07 157.714 157.692 158.803 158.473 158.538 158.112 158.101 159.521 
159.21 159.315 158.973 159.016 158.571 158.585 160.273 159.896 159.96 
159.69 159.791 159.46 159.532 159.102 159.161 161.23 160.701 160.697 
160.332 160.462 160.191 160.357 160.029 160.162 159.723 159.759 162.339 
161.757 161.724 161.193 161.295 160.928 161.134 160.834 161.006 160.662 
160.718 160.254 160.138 163.356 162.858 162.798 162.247 162.225 161.803 
161.913 161.609 161.714 161.411 161.415 161.067 160.947 160.482 160.23 
164.205 163.788 163.649 163.158 162.936 162.554 162.465 162.245 162.226 
161.999 161.905 161.625 161.483 161.154 160.945 160.485 160.179 164.893 
164.529 164.289 163.826 163.438 163.038 162.779 162.587 162.501 162.36 
162.233 162.006 161.826 161.584 161.414 161.104 160.846 160.381 160.016 
165.133 164.965 164.903 164.424 164.639 164.63 164.188 164.044 163.521 
164.507 164.459 164.194 163.933 163.5 163.232 162.89 164.259 164.393 
164.286 164.135 163.835 163.462 163.131 162.827 162.63 163.52 163.885 
163.739 164.006 163.767 163.747 163.364 163.122 162.747 162.559 162.304 
162.79 163.039 162.833 163.168 162.95 163.281 162.954 163.056 162.596 
162.529 162.137 162.099 161.849 162.427 162.523 162.39 162.451 162.298 
162.461 162.315 162.476 162.206 162.224 161.89 161.87 161.628 161.645 
161.452 161.972 162.204 162.117 162.208 162.089 162.118 162.062 162.095 
162.018 161.968 161.754 161.657 161.397 161.388 161.142 161.19 160.893 
161.123 161.531 161.405 161.759 161.63 161.87 161.77 161.934 161.847 
161.898 161.672 161.577 161.183 161.1 160.673 160.725 160.315 160.436 
160.023 160.482 159.652 160.287 160.802 159.073 159.575 160.073 160.665 
161.138 158.419 159.002 159.382 159.951 160.385 160.98 161.373 157.313 
158.105 158.408 159.103 159.395 160.108 160.507 161.177 161.487 156.029 
156.838 157.154 157.932 158.181 158.949 159.267 160.112 160.466 161.172 
161.305 154.834 155.574 155.886 156.657 156.962 157.708 158.01 158.801 
159.102 159.922 160.084 160.761 160.734 153.669 154.368 154.616 155.394 
155.717 156.514 156.855 157.606 157.861 158.566 158.67 159.367 159.376 
160.066 160.088 152.599 153.213 153.429 154.133 154.441 155.246 155.604 
156.416 156.679 157.374 157.451 158.041 158.039 158.676 158.767 159.489 
159.664 151.666 152.216 152.447 153.046 153.352 154.042 154.385 155.141 
155.41 156.136 156.261 156.882 156.932 157.499 157.625 158.255 158.495 
159.182 159.42 160.159 159.432 159.568 159.254 158.688 158.827 158.471 
158.762 158.658 157.758 158.01 157.666 157.988 157.834 158.212 158.045 
156.71 157.022 156.745 157.137 156.954 157.33 157.042 157.379 156.961 
155.726 156.013 155.734 156.155 155.964 156.372 156.021 156.316 155.826 
156.135 155.677 154.71 155.029 154.656 155.074 154.787 155.255 154.881 
155.239 154.73 155.023 154.558 154.904 154.516 153.559 153.926 153.515 
153.925 153.545 153.988 153.567 153.992 153.493 153.874 153.39 153.781 
153.382 153.771 153.391 152.474 152.776 152.412 152.784 152.441 152.791 
152.366 152.699 152.208 152.578 152.103 152.534 152.136 152.592 152.245 
152.654 152.319 151.662 151.823 151.495 151.783 151.513 151.799 151.421 
151.638 151.151 151.388 150.92 151.264 150.889 151.329 151.028 151.488 
151.209 151.631 151.361 160.631 161.046 160.611 160.005 161.046 160.937 
160.521 160.023 159.311 160.687 160.72 160.45 160.36 159.768 159.217 
158.341 160.562 160.339 159.959 160.038 159.649 159.469 158.683 158.105 
157.21 160.746 160.353 159.768 159.598 159.224 159.197 158.668 158.334 
157.514 156.967 156.181 160.581 160.429 159.796 159.528 158.993 158.859 
158.399 158.236 157.588 157.201 156.401 155.928 155.154 159.983 160.032 
159.471 159.387 158.761 158.635 158.055 157.953 157.358 157.156 156.431 
156.063 155.239 154.804 153.992 159.498 159.461 158.96 158.92 158.325 
158.25 157.609 157.54 156.928 156.847 156.232 156.018 155.308 154.898 
154.104 153.634 152.9 159.261 159.126 158.625 158.496 157.929 157.798 
157.164 157.05 156.425 156.371 155.821 155.763 155.22 154.98 154.334 
153.869 153.176 152.678 152.091 158.958 158.08 158.471 158.273 156.962 
157.465 157.307 157.724 157.509 155.848 156.324 156.177 156.657 156.458 
156.893 156.679 154.78 155.264 155.116 155.553 155.358 155.783 155.566 
156.028 155.887 153.562 154.161 154.099 154.57 154.403 154.754 154.524 
154.911 154.784 155.298 155.285 152.352 152.919 152.938 153.52 153.453 
153.865 153.638 153.945 153.769 154.219 154.227 154.779 154.773 151.42 
151.821 151.746 152.298 152.221 152.796 152.599 153.028 152.789 153.222 
153.161 153.717 153.714 154.218 154.02 150.57 150.931 150.694 151.108 
150.856 151.418 151.188 151.794 151.588 152.153 152.063 152.638 152.623 
153.144 152.97 153.342 152.964 149.6 150.005 149.75 150.078 149.744 
150.109 149.832 150.349 150.238 150.871 150.902 151.529 151.571 152.091 
151.974 152.333 152.012 152.271 151.898 149.016 148.431 148.865 149.194 
148.116 148.393 148.609 148.977 149.2 147.709 148.062 148.245 148.516 
148.656 148.972 149.24 147.073 147.493 147.738 148.137 148.353 148.601 
148.857 149.18 149.661 146.665 146.89 147.109 147.537 147.867 148.284 
148.64 148.966 149.44 149.812 150.421 146.484 146.62 146.702 146.967 
147.17 147.643 147.96 148.54 148.962 149.536 150.047 150.559 151.082 
146.02 146.319 146.338 146.586 146.601 146.921 147.002 147.57 147.825 
148.637 149.046 149.882 150.308 150.996 151.368 145.353 145.7 145.774 
146.113 146.17 146.411 146.422 146.694 146.816 147.379 147.744 148.599 
149.075 149.949 150.339 151.071 151.355 144.888 145.106 145.217 145.539 
145.72 146.012 146.173 146.343 146.513 146.714 147.059 147.526 148.074 
148.769 149.318 150.015 150.409 151.019 151.301 151.171 150.326 150.806 
150.969 149.297 149.91 150.108 150.686 150.942 148.149 148.824 149.054 
149.725 149.951 150.59 150.782 147.218 147.759 147.997 148.618 148.796 
149.458 149.601 150.287 150.439 146.61 146.969 147.098 147.584 147.652 
148.243 148.333 149.03 149.207 149.93 150.174 146.09 146.357 146.252 
146.634 146.504 147.036 147.038 147.744 147.956 148.722 149.045 149.774 
150.144 145.529 145.738 145.484 145.731 145.468 145.859 145.81 146.457 
146.717 147.509 147.919 148.69 149.123 149.849 150.292 145.037 145.167 
144.944 145.051 144.827 144.996 144.991 145.414 145.748 146.404 146.894 
147.616 148.098 148.834 149.308 150.04 150.497 144.749 144.786 144.637 
144.665 144.519 144.574 144.597 144.845 145.183 145.663 146.166 146.741 
147.218 147.852 148.319 149.039 149.525 150.251 150.692 156.284 155.429 
156.121 156.617 154.388 155.205 155.772 156.491 157.05 153.248 154.146 
154.79 155.599 156.197 156.928 157.507 152.029 153.002 153.688 154.578 
155.226 156.036 156.64 157.38 157.967 150.828 151.782 152.499 153.432 
154.109 155.012 155.691 156.508 157.131 157.85 158.415 150.045 150.747 
151.486 152.284 152.99 153.882 154.637 155.544 156.261 157.031 157.614 
158.279 158.78 149.84 150.272 150.974 151.487 152.157 152.862 153.64 
154.523 155.306 156.137 156.748 157.454 157.948 158.608 159.058 149.807 
150.195 150.824 151.171 151.714 152.187 152.858 153.606 154.376 155.192 
155.806 156.53 157 157.712 158.164 158.851 159.233 149.601 150.053 
150.618 151 151.442 151.808 152.318 152.895 153.572 154.306 154.914 
155.597 156.048 156.726 157.165 157.892 158.305 158.959 159.222 156.836 
157.234 157.29 157.871 157.729 157.787 158.46 158.487 159.181 158.253 
158.354 159.13 159.178 159.946 159.922 160.608 158.758 158.916 159.81 
159.923 160.773 160.747 161.443 161.328 161.879 159.161 159.387 160.296 
160.561 161.455 161.553 162.23 162.146 162.66 162.509 162.911 159.444 
159.689 160.46 160.842 161.629 161.977 162.592 162.747 163.217 163.215 
163.617 163.465 163.727 159.685 159.899 160.536 160.852 161.491 161.887 
162.452 162.809 163.329 163.581 164.092 164.13 164.495 164.244 164.397 
159.813 160.058 160.614 160.878 161.444 161.742 162.317 162.632 163.25 
163.59 164.262 164.511 165.055 165.001 165.263 164.91 164.983 159.712 
160.029 160.485 160.825 161.317 161.672 162.219 162.566 163.168 163.536 
164.183 164.569 165.134 165.371 165.679 165.625 165.682 165.394 165.336 
156.829 157.817 157.229 157.124 159.076 158.328 158.168 157.551 157.442 
160.446 159.655 159.407 158.668 158.484 157.874 157.721 161.672 160.959 
160.644 159.884 159.567 158.906 158.669 158.092 157.823 162.684 162.075 
161.744 161.027 160.624 159.925 159.579 158.984 158.652 158.066 157.661 
163.44 162.952 162.631 162.033 161.619 160.928 160.508 159.86 159.465 
158.852 158.407 157.802 157.381 164.008 163.568 163.226 162.778 162.388 
161.828 161.364 160.736 160.259 159.637 159.15 158.533 158.09 157.543 
157.255 164.559 164.097 163.716 163.286 162.899 162.451 161.97 161.444 
160.895 160.339 159.814 159.249 158.796 158.255 157.941 157.488 157.304 
164.975 164.608 164.202 163.773 163.344 162.901 162.394 161.912 161.331 
160.84 160.312 159.843 159.429 158.949 158.634 158.168 157.933 157.523 
157.312 161.189 161.935 161.56 161.437 162.398 162.138 161.931 161.605 
161.324 162.89 162.593 162.501 162.099 161.861 161.413 161.103 163.62 
163.239 163.243 162.802 162.711 162.173 162.017 161.396 161.204 164.219 
163.945 163.824 163.504 163.349 162.997 162.837 162.395 162.203 161.633 
161.384 164.502 164.348 164.154 163.904 163.63 163.394 163.116 162.911 
162.609 162.343 161.944 161.556 161.069 164.853 164.668 164.66 164.3 
164.151 163.732 163.52 163.14 162.865 162.539 162.148 161.818 161.307 
160.947 160.409 165.309 165.188 165.369 165.026 165.034 164.52 164.392 
163.812 163.575 163.007 162.665 162.131 161.704 161.21 160.769 160.329 
159.94 165.441 165.557 165.739 165.673 165.67 165.374 165.146 164.678 
164.28 163.757 163.291 162.767 162.296 161.767 161.335 160.832 160.474 
160.022 159.716 
POINT_DATA 1002
SCALARS Distance double
LOOKUP_TABLE default
148.468 149.168 148.366 147.941 147.923 148.118 147.89 148.027 147.83 
147.884 148.111 148.212 147.834 147.538 147.294 148.124 148.183 147.875 
147.401 146.92 146.694 148.122 148.282 147.904 147.464 146.916 146.603 
146.563 148.336 148.595 148.09 147.691 147.06 146.61 146.457 146.338 
148.453 148.867 148.121 147.795 147.103 146.367 146.042 145.873 145.659 
148.435 149.057 147.873 147.536 146.97 146.083 145.517 145.345 145.182 
145.026 148.469 149.192 147.708 147.2 146.747 145.992 145.297 145.053 
144.976 144.83 144.726 149.421 148.449 149.48 148.372 149.459 147.914 
148.445 149.906 147.814 147.987 149.265 151.016 148.142 147.984 148.168 
150.673 152.307 149.299 148.594 148.339 148.246 152.088 153.505 150.788 
149.859 149.107 148.544 148.469 153.444 154.661 152.196 151.233 150.362 
149.326 148.751 148.841 154.726 155.672 153.572 152.51 151.69 150.628 
149.496 149.118 149.234 155.735 156.444 154.796 153.711 152.847 152.027 
150.831 149.847 149.607 149.569 156.718 156.002 157.011 156.225 157.318 
155.011 156.44 157.539 155.181 153.97 156.546 157.5 155.352 154.204 
153.188 156.41 157.218 155.397 154.34 153.381 152.232 156.239 157.01 
155.31 154.327 153.412 152.352 151.025 156.317 157.056 155.364 154.349 
153.456 152.519 151.368 150.296 156.497 157.151 155.588 154.532 153.602 
152.723 151.681 150.692 150.016 156.48 157.076 155.686 154.7 153.73 
152.806 151.742 150.705 150.022 149.6 148.766 149.106 148.14 149.472 
148.397 147.468 150.26 148.844 147.867 146.914 151.503 149.857 148.615 
147.669 146.635 152.738 151.268 149.807 148.699 147.609 146.636 153.797 
152.595 151.207 149.948 148.761 147.609 146.812 154.804 153.716 152.516 
151.313 150.114 148.864 147.818 147.175 155.707 154.712 153.658 152.595 
151.5 150.311 149.139 148.272 147.741 156.441 155.607 154.709 153.764 
152.738 151.644 150.512 149.516 148.832 148.379 147.924 147.29 147.146 
146.529 146.461 146.57 145.905 145.639 145.791 145.959 145.817 145.225 
145.083 145.228 145.29 146.078 145.403 144.838 144.64 144.79 144.944 
146.386 145.67 144.917 144.285 144.2 144.579 144.868 146.854 145.968 
145.125 144.334 143.833 143.973 144.47 144.75 147.518 146.534 145.585 
144.788 144.102 143.722 143.913 144.353 144.601 148.516 147.564 148.591 
147.565 148.591 146.49 147.541 148.658 146.474 145.542 147.64 148.906 
146.403 145.473 144.754 147.933 149.257 146.493 145.278 144.565 144.034 
148.312 149.652 146.929 145.524 144.483 143.927 143.719 148.77 150.128 
147.494 146.292 145.129 144.237 143.859 143.979 149.37 150.643 148.089 
147.017 146.032 145.009 144.295 144.161 144.365 150.013 151.118 148.773 
147.633 146.653 145.648 144.763 144.4 144.471 144.608 149.274 149.46 
150.247 150.512 151.397 149.587 151.747 152.68 150.754 149.674 153.041 
154.023 152.059 150.97 149.869 154.427 155.503 153.333 152.314 151.269 
150.23 155.948 156.947 154.697 153.545 152.639 151.726 150.688 157.207 
158.042 156.076 154.823 153.851 153.114 152.223 151.15 158.036 158.862 
157.091 156.062 155.104 154.321 153.517 152.541 151.536 158.753 159.627 
157.824 157.024 156.332 155.586 154.692 153.686 152.711 151.866 157.316 
156.637 157.645 157.018 158.087 155.882 157.53 158.619 156.356 155.049 
158.039 159.231 156.8 155.431 154.004 158.496 159.747 157.094 155.659 
154.177 152.822 158.809 159.958 157.362 155.839 154.341 152.916 151.662 
158.953 159.956 157.658 156.152 154.636 153.182 151.816 150.608 158.988 
159.863 157.932 156.581 155.054 153.592 152.2 150.91 149.808 157.712 
158.12 158.382 158.924 159.107 158.577 159.605 159.858 159.423 159.054 
160.232 160.737 160.049 159.907 159.639 161.142 161.818 160.723 160.623 
160.547 160.306 162.316 162.889 161.721 161.446 161.34 161.139 160.714 
163.375 163.81 162.71 162.25 162.049 161.761 161.353 160.781 164.184 
164.626 163.394 162.708 162.444 162.193 161.768 161.335 160.724 164.783 
165.275 163.906 163.018 162.617 162.45 162.062 161.654 161.258 160.562 