# vtk DataFile Version 4.0
vtk output
ASCII
DATASET POLYDATA
POINTS 1002 float
-77.5033 -113.001 71.3445 -77.0879 -114.145 70.9329 -77.2515 -113.702 70.2688 
-77.7953 -112.51 70.7467 -77.2508 -113.016 69.4106 -77.944 -111.556 71.7877 
-77.9841 -111.75 69.9458 -77.4635 -112.336 68.4652 -78.3299 -110.879 71.2115 
-78.4102 -109.744 72.2912 -78.5804 -111.114 69.158 -78.3617 -111.938 67.8372 
-78.824 -110.132 70.5359 -78.9208 -108.983 71.7321 -79.0641 -107.977 72.9164 
-79.6956 -110.692 68.7173 -79.6794 -111.549 67.63 -79.7774 -109.644 69.9608 
-79.785 -108.436 71.1682 -79.8711 -107.395 72.3943 -80.0858 -106.626 73.6636 
-80.8485 -110.057 68.5337 -80.8932 -110.807 67.5403 -80.844 -109.115 69.5805 
-80.825 -107.914 70.6069 -80.8678 -106.814 71.7802 -81.0192 -106.01 73.1076 
-81.0648 -105.22 74.2997 -82.0137 -109.191 68.3855 -82.0615 -109.944 67.4512 
-81.8715 -108.291 69.3022 -81.7005 -107.064 70.1083 -81.6472 -105.854 71.075 
-81.7012 -104.962 72.3522 -81.6957 -104.169 73.5904 -81.5151 -103.286 74.5836 
-83.2938 -108.391 68.2627 -83.2657 -109.201 67.4487 -83.1246 -107.458 69.0789 
-82.7667 -106.172 69.7833 -82.4838 -104.83 70.5598 -82.3451 -103.81 71.655 
-82.199 -102.945 72.8145 -81.9861 -102.073 73.7897 -81.7428 -101.298 74.6739 
-84.374 -107.547 68.1191 -84.3215 -108.406 67.4596 -84.2924 -106.641 68.8369 
-83.9798 -105.428 69.5299 -83.6224 -104.09 70.2485 -83.3772 -103.051 71.2051 
-83.1223 -102.168 72.2593 -82.8001 -101.232 73.154 -82.4882 -100.419 73.9944 
-82.2211 -99.8366 74.8864 -85.1692 -106.517 67.8609 -85.1969 -107.434 67.3466 
-85.1128 -105.669 68.5047 -84.9175 -104.629 69.201 -84.6249 -103.399 69.8819 
-84.3988 -102.389 70.7187 -84.212 -101.617 71.7433 -83.9375 -100.766 72.6799 
-83.5962 -99.9229 73.5029 -83.25 -99.301 74.3741 -82.9235 -98.861 75.2617 
-76.6878 -114.948 70.0207 -76.6768 -114.299 69.0962 -76.1252 -115.722 68.8506 
-76.105 -114.961 67.6189 -75.6975 -116.629 67.5258 -76.6034 -113.538 68.0091 
-75.7798 -115.885 65.97 -75.6324 -117.718 66.2387 -76.1535 -114.217 66.3883 
-77.0326 -113.014 67.1036 -75.8784 -117.075 64.5498 -76.023 -118.85 65.373 
-76.0604 -115.182 64.6843 -76.9369 -113.831 65.6874 -78.3206 -112.798 66.741 
-76.6017 -118.289 64.1166 -76.8784 -119.79 65.2796 -76.5039 -116.395 63.5914 
-77.2064 -114.753 64.356 -78.5745 -113.651 65.6763 -79.8626 -112.371 66.7016 
-77.7851 -119.144 64.7815 -77.9996 -120.437 65.704 -77.5808 -117.563 63.9086 
-77.9445 -115.772 63.8878 -79.0703 -114.376 64.7992 -80.2414 -113.119 65.801 
-81.1299 -111.527 66.6133 -78.9491 -119.546 65.6844 -79.1478 -120.887 66.1617 
-78.8526 -118.269 65.0273 -79.0999 -116.756 64.4723 -79.8969 -115.114 64.5048 
-80.8412 -113.662 65.0029 -81.549 -112.211 65.6826 -82.3124 -110.661 66.5532 
-80.0043 -119.773 66.3021 -80.299 -121.227 66.5479 -79.949 -118.536 65.8752 
-80.2878 -117.449 65.136 -80.9951 -116.023 64.4943 -81.7398 -114.28 64.3514 
-82.2415 -112.711 64.7528 -82.7502 -111.349 65.6347 -83.5171 -109.923 66.6755 
-81.1382 -120.049 66.721 -81.4904 -121.481 66.8978 -81.0082 -118.724 66.3621 
-81.3345 -117.816 65.5131 -82.0591 -116.871 64.4541 -82.7709 -115.251 63.8352 
-83.1522 -113.359 63.964 -83.4278 -111.898 64.7752 -83.952 -110.634 65.9132 
-84.633 -109.105 66.8405 -82.5377 -120.857 67.0712 -82.2743 -119.38 66.8479 
-83.7302 -120.223 67.1108 -83.6549 -118.791 66.7268 -85.0212 -119.523 66.9926 
-82.3601 -118.196 66.1301 -85.1526 -118.148 66.5319 -86.4641 -118.678 66.9223 
-83.9094 -117.72 65.7831 -82.9392 -117.444 64.8582 -86.7463 -117.343 66.4946 
-87.9716 -117.681 67.061 -85.4156 -116.997 65.7779 -84.4553 -116.826 64.6198 
-83.686 -116.278 63.7941 -88.2935 -116.268 66.6676 -89.2129 -116.377 67.4076 
-86.9364 -115.957 66.0621 -85.7327 -115.745 65.1998 -84.9203 -115.284 64.1384 
-84.1082 -114.297 63.6483 -89.6179 -114.76 67.072 -90.2867 -114.769 67.8203 
-88.4847 -114.577 66.4576 -87.1169 -114.371 65.9934 -86.018 -114.043 65.3531 
-85.165 -113.287 64.6305 -84.2977 -112.43 64.3952 -90.9481 -113.134 67.4947 
-91.5325 -113.3 68.108 -90.049 -112.938 66.9412 -88.781 -112.756 66.6019 
-87.5001 -112.577 66.3877 -86.4631 -112.163 66.0023 -85.5706 -111.539 65.5899 
-84.715 -111.01 65.5567 -92.3468 -111.846 67.7181 -92.7751 -112.193 68.323 
-91.6892 -111.474 67.2269 -90.6508 -111.109 66.9188 -89.3857 -110.806 66.8139 
-88.1999 -110.514 66.7266 -87.1716 -110.138 66.5121 -86.2167 -109.73 66.3724 
-85.339 -109.381 66.5072 -93.4758 -110.811 67.9359 -93.6989 -111.23 68.6505 
-93.1195 -110.315 67.3327 -92.4316 -109.736 66.9247 -91.3603 -109.125 66.7604 
-90.1079 -108.598 66.7636 -88.8933 -108.2 66.739 -87.7693 -107.875 66.6596 
-86.7306 -107.609 66.7094 -85.8476 -107.455 66.9691 -85.9918 -105.684 67.3583 
-86.8011 -105.533 66.9348 -86.9346 -104.026 67.4699 -87.8558 -105.615 66.7168 
-87.8709 -103.869 67.1169 -88.1441 -102.689 67.9764 -89.1214 -105.88 66.7033 
-89.0456 -103.961 66.9894 -89.1118 -102.511 67.6636 -89.3148 -101.173 68.4041 
-90.5589 -106.287 66.6791 -90.576 -104.245 66.927 -90.4395 -102.501 67.4152 
-90.3611 -100.766 67.8309 -90.1769 -99.2187 68.2239 -91.9928 -106.921 66.5919 
-92.2252 -104.741 66.7872 -92.1412 -102.764 67.2202 -91.9013 -100.695 67.3873 
-91.4874 -98.8137 67.5292 -91.0238 -97.6216 68.1634 -93.1312 -107.756 66.709 
-93.4455 -105.512 66.8677 -93.4668 -103.361 67.3406 -93.3826 -101.21 67.4943 
-93.0367 -99.106 67.4381 -92.4995 -97.6168 67.9208 -92.0646 -96.7903 68.9592 
-93.8122 -108.588 67.1694 -94.0882 -106.438 67.393 -94.0289 -104.213 67.9849 
-94.0632 -102.122 68.2928 -94.0887 -100.058 68.1739 -93.7735 -98.2683 68.3848 
-93.3676 -97.03 69.1527 -93.0455 -96.1648 70.0301 -94.1291 -109.288 67.8571 
-94.4498 -107.34 68.1128 -94.3692 -105.179 68.7499 -94.3343 -103.12 69.2398 
-94.6057 -101.161 69.2081 -94.6764 -99.2765 69.2145 -94.3759 -97.6627 69.6818 
-94.0775 -96.4081 70.2831 -93.7859 -95.4571 70.7863 -94.2954 -109.867 68.6381 
-94.7565 -108.157 68.8026 -94.9075 -106.194 69.2516 -94.8879 -104.165 69.7522 
-95.1333 -102.167 69.8964 -95.4596 -100.254 69.8796 -95.3414 -98.5202 70.1832 
-94.9647 -97.0136 70.6825 -94.6777 -95.7813 71.0788 -94.3468 -94.8878 71.448 
-85.9158 -104.788 67.9515 -86.9587 -103.199 68.2889 -85.8166 -103.895 68.7199 
-88.2366 -101.699 68.8213 -86.8298 -102.145 69.0798 -85.5537 -102.72 69.4126 
-89.1788 -99.8611 68.9567 -87.8945 -100.328 69.3414 -86.3381 -100.754 69.5598 
-85.2104 -101.525 70.0668 -89.8004 -98.0179 68.8501 -88.6179 -98.4812 69.4236 
-87.1294 -98.84 69.6992 -85.7709 -99.5375 70.1695 -84.9818 -100.674 71.0152 
-90.6899 -96.8217 69.3452 -89.3161 -97.0615 69.8589 -87.9285 -97.3331 70.2006 
-86.4872 -97.7753 70.5654 -85.4792 -98.748 71.3036 -84.8272 -99.9452 72.1457 
-91.8062 -96.0143 70.2669 -90.2699 -96.0419 70.6907 -88.8023 -96.244 71.0722 
-87.4247 -96.5784 71.397 -86.1904 -97.1633 71.9108 -85.3612 -98.1626 72.6142 
-84.6083 -99.2056 73.1822 -92.7355 -95.2021 70.9573 -91.2304 -95.0874 71.3582 
-89.6395 -95.1736 71.8076 -88.2846 -95.5282 72.2064 -87.0449 -96.0251 72.6667 
-85.974 -96.7196 73.255 -85.1617 -97.7001 73.8166 -84.2862 -98.6302 74.1734 
-93.3983 -94.5295 71.5287 -92.0156 -94.3008 71.8592 -90.4259 -94.1934 72.3163 
-89.0064 -94.378 72.777 -87.7793 -94.8651 73.2788 -86.6129 -95.4935 73.86 
-85.6356 -96.3351 74.4418 -84.814 -97.3526 74.8876 -83.8985 -98.22 75.1312 
-94.2707 -94.2855 72.3954 -93.0238 -93.9323 72.5795 -93.9078 -93.9715 73.8454 
-92.4773 -93.6009 74.1114 -93.3105 -93.9071 75.5297 -91.4786 -93.6363 72.9504 
-91.9157 -93.4573 75.8339 -92.7263 -93.9157 77.1547 -90.9844 -93.2164 74.4434 
-89.9374 -93.475 73.3946 -91.4124 -93.4207 77.5813 -92.2963 -93.9288 78.7574 
-90.4729 -93.0826 76.1925 -89.4784 -93.0554 74.8818 -88.5296 -93.7046 73.9152 
-90.8973 -93.5702 79.3214 -91.7854 -94.1815 80.2261 -89.8231 -93.2267 78.0798 
-88.7907 -93.0694 76.6914 -87.8885 -93.3472 75.439 -87.1772 -94.2875 74.5167 
-90.2424 -94.0928 80.7595 -91.0332 -94.8399 81.3982 -89.1528 -93.6185 79.8214 
-87.9957 -93.3911 78.5408 -87.0676 -93.4372 77.1381 -86.4256 -94.009 75.9397 
-85.9824 -95.1118 75.1002 -89.5214 -94.9359 81.8628 -90.3006 -95.6229 82.495 
-88.5393 -94.332 81.1279 -87.4074 -93.9166 80.1207 -86.4068 -93.8393 78.7915 
-85.7424 -94.1837 77.4068 -85.3296 -95.0222 76.3369 -85.0514 -96.1968 75.5889 
-88.9332 -95.7824 82.9176 -89.7765 -96.277 83.6401 -87.9917 -95.2792 82.1579 
-86.9823 -94.7644 81.3449 -86.002 -94.5271 80.2936 -85.2627 -94.7368 78.9678 
-84.779 -95.3119 77.6646 -84.4327 -96.2133 76.6846 -84.1637 -97.2669 75.9142 
-88.4758 -96.5303 83.9424 -89.3306 -96.9215 84.6344 -87.5469 -96.2052 83.1347 
-86.6366 -95.816 82.3415 -85.7265 -95.5154 81.497 -84.9049 -95.5536 80.4561 
-84.2886 -95.8758 79.1911 -83.8328 -96.4102 77.94 -83.4769 -97.19 76.928 
-83.1886 -98.062 76.0731 -95.1111 -95.0727 72.106 -95.1265 -94.5521 73.3516 
-95.7956 -95.661 73.0624 -95.789 -95.1802 74.4785 -96.2565 -96.6031 74.094 
-94.7745 -94.3605 74.9541 -96.1183 -96.1305 75.4959 -96.5537 -97.7331 75.0353 
-95.3891 -95.0604 75.9652 -94.1077 -94.4544 76.5657 -96.3275 -97.3302 76.4889 
-96.8265 -98.9766 75.9623 -95.7017 -96.0747 76.894 -94.7029 -95.2714 77.456 
-93.492 -94.5772 78.1462 -96.58 -98.7303 77.6117 -96.8651 -100.377 76.9408 
-96.0215 -97.3422 78.0362 -95.1372 -96.3069 78.4764 -94.0797 -95.4676 79.1023 
-93.0035 -94.7045 79.7112 -96.6244 -100.289 78.6401 -96.6418 -101.977 77.8918 
-96.3551 -98.7874 79.1985 -95.6126 -97.5179 79.6485 -94.5445 -96.524 80.1507 
-93.4536 -95.7761 80.5963 -92.3105 -95.1856 80.9981 -96.4828 -101.988 79.4016 
-96.5362 -103.673 78.7142 -96.3516 -100.395 79.9944 -95.8603 -98.9587 80.5287 
-94.9244 -97.7919 81.0638 -93.7782 -97.0297 81.4408 -92.6213 -96.4676 81.733 
-91.4688 -95.9404 82.1316 -96.3918 -103.721 79.983 -96.5578 -105.227 79.3288 
-96.1189 -102.155 80.5366 -95.6476 -100.651 81.0504 -94.9462 -99.3438 81.6358 
-93.9921 -98.4237 82.1148 -92.8743 -97.8014 82.432 -91.8038 -97.1634 82.867 
-90.8131 -96.5686 83.3678 -96.2479 -105.281 80.4308 -96.3911 -106.492 79.7241 
-95.9022 -103.906 81.0182 -95.3211 -102.463 81.4857 -94.6834 -101.096 82.0248 
[...]
CELL_DATA 2000
SCALARS Distance double
LOOKUP_TABLE default
153.598 152.954 153.288 153.114 152.107 152.551 152.489 152.719 152.395 
151.624 151.83 151.841 152.056 151.826 151.935 151.637 151.711 151.643 
151.652 151.643 151.517 151.485 151.307 151.348 151.303 151.854 151.791 
151.701 151.63 151.452 151.349 151.152 151.142 151.096 151.215 151.225 
151.837 151.81 151.645 151.599 151.278 151.202 150.807 150.86 150.601 
150.847 150.671 150.93 150.632 151.886 151.797 151.641 151.517 151.152 
150.96 150.453 150.376 149.978 150.149 149.855 150.13 149.754 149.996 
149.53 151.909 151.836 151.628 151.522 151.145 150.9 150.387 150.133 
149.745 149.667 149.443 149.46 149.198 149.216 148.891 148.963 148.685 
151.7 151.688 151.35 151.362 150.947 150.836 150.308 150.105 149.67 
149.565 149.346 149.303 149.126 149.004 148.79 148.658 148.511 148.466 
148.411 153.739 153.532 153.431 152.957 153.269 153.081 152.493 152.469 
152.023 153.249 152.833 152.138 151.986 151.582 151.642 151.52 153.673 
152.966 152.175 151.763 151.4 151.371 151.436 151.525 151.695 154.637 
153.68 152.887 152.089 151.697 151.42 151.603 151.649 151.935 151.894 
151.972 155.916 154.919 154.28 153.204 152.76 152.05 152.146 151.975 
152.296 152.21 152.269 152.072 151.982 157.112 156.252 155.751 154.775 
154.349 153.409 153.27 152.716 152.846 152.595 152.621 152.379 152.255 
152.055 152 158.131 157.361 156.862 156.112 155.734 154.949 154.678 
153.94 153.765 153.224 153.078 152.724 152.588 152.36 152.304 152.144 
152.104 159.095 158.332 157.796 157.097 156.723 156.111 155.86 155.214 
154.921 154.209 153.859 153.269 153.047 152.72 152.69 152.502 152.48 
152.242 152.059 159.453 159.596 159.054 158.16 159.759 159.226 158.349 
157.825 157.087 159.91 159.415 158.606 158.073 157.356 156.893 156.28 
160.077 159.612 158.855 158.344 157.631 157.176 156.508 156.074 155.361 
160.129 159.787 159.042 158.575 157.823 157.391 156.658 156.23 155.413 
154.979 154.189 159.901 159.73 159.031 158.685 157.918 157.523 156.793 
156.36 155.58 155.062 154.289 153.85 153.299 159.625 159.465 158.863 
158.599 157.9 157.564 156.893 156.517 155.868 155.364 154.712 154.156 
153.654 153.235 152.954 159.559 159.313 158.791 158.5 157.887 157.549 
156.903 156.582 155.96 155.621 154.999 154.593 154.021 153.638 153.212 
152.945 152.66 159.58 159.329 158.82 158.528 157.943 157.593 156.917 
156.565 155.854 155.57 154.857 154.624 153.915 153.717 153.069 152.946 
152.428 152.409 152.046 151.573 151.864 151.371 150.857 152.467 151.779 
151.193 150.762 150.525 153.322 152.522 151.914 151.273 150.948 150.631 
150.496 154.32 153.494 152.941 152.16 151.755 151.184 150.85 150.478 
150.041 155.426 154.605 154.141 153.302 152.896 152.13 151.667 150.957 
150.368 149.822 149.315 156.594 155.814 155.415 154.562 154.16 153.334 
152.882 151.983 151.39 150.485 150.015 149.391 149.286 157.682 157.009 
156.649 155.835 155.397 154.575 154.152 153.285 152.807 151.812 151.383 
150.491 150.369 149.787 149.91 158.597 158.044 157.737 157.015 156.583 
155.779 155.357 154.551 154.176 153.298 152.941 152.021 151.79 151.03 
150.984 150.445 150.45 159.384 158.909 158.678 158.059 157.714 156.96 
156.577 155.778 155.437 154.641 154.34 153.519 153.247 152.439 152.239 
151.545 151.424 150.869 150.787 151.359 150.668 150.968 150.971 150.371 
150.42 150.365 150.615 150.58 150.316 150.297 150.088 150.106 149.9 
150.123 149.963 149.776 150.035 149.711 149.783 149.317 149.417 149.12 
149.444 149.354 149.002 149.245 148.956 149.164 148.651 148.732 148.274 
148.563 148.514 148.982 149.079 148.963 148.755 148.551 148.51 148.199 
148.132 147.738 147.799 147.714 148.14 148.365 148.836 148.927 149.545 
149.1 148.844 148.504 148.272 148.008 147.772 147.569 147.465 147.548 
147.745 148.136 148.375 148.694 148.679 150.024 149.655 149.263 148.899 
148.526 148.24 147.976 147.772 147.636 147.531 147.581 147.712 147.943 
148.215 148.37 148.514 148.477 150.33 149.987 149.549 149.196 148.729 
148.424 148.055 147.893 147.697 147.643 147.578 147.621 147.708 147.899 
148.085 148.285 148.379 148.428 148.406 150.44 150.507 150.147 149.6 
150.807 150.273 149.561 149.248 148.731 151.241 150.621 149.826 149.3 
148.642 148.385 148.015 151.769 151.102 150.315 149.66 148.927 148.436 
147.958 147.794 147.638 152.386 151.702 150.948 150.228 149.482 148.836 
148.25 147.864 147.606 147.545 147.539 153.008 152.359 151.655 150.928 
150.185 149.459 148.799 148.237 147.842 147.597 147.541 147.544 147.671 
153.636 153.005 152.368 151.666 150.966 150.211 149.544 148.858 148.391 
147.938 147.799 147.648 147.791 147.811 148.035 154.333 153.692 153.117 
152.424 151.809 151.053 150.459 149.705 149.264 148.636 148.439 148.057 
148.115 148.001 148.19 148.204 148.349 155.048 154.429 153.899 153.228 
152.696 151.969 151.471 150.717 150.331 149.632 149.398 148.833 148.741 
148.405 148.437 148.337 148.401 148.399 148.407 150.999 152.099 151.392 
151.193 153.416 152.64 152.464 151.724 151.572 154.745 153.969 153.775 
153.046 152.892 152.158 152.013 156.106 155.295 155.079 154.334 154.189 
153.477 153.354 152.625 152.52 157.552 156.735 156.57 155.724 155.599 
154.809 154.723 153.981 153.903 153.172 153.105 158.958 158.22 158.154 
157.322 157.213 156.335 156.223 155.401 155.314 154.558 154.472 153.751 
153.681 160.33 159.621 159.575 158.847 158.731 157.929 157.75 156.922 
156.76 155.973 155.851 155.106 155.015 154.311 154.269 161.683 160.99 
160.885 160.178 160.005 159.286 159.063 158.33 158.118 157.376 157.209 
156.47 156.358 155.647 155.603 154.928 154.937 162.801 162.249 162.115 
161.443 161.215 160.484 160.228 159.528 159.329 158.654 158.488 157.785 
157.635 156.947 156.869 156.235 156.231 155.607 155.622 159.76 160.162 
159.678 159.071 160.671 160.113 159.478 158.919 158.181 161.28 160.663 
160.005 159.378 158.593 157.955 157.105 161.849 161.222 160.457 159.858 
159.003 158.365 157.435 156.813 155.944 162.299 161.669 160.753 160.169 
159.246 158.681 157.723 157.115 156.195 155.646 154.839 162.647 162.033 
161.044 160.395 159.453 158.89 158.016 157.416 156.534 155.922 155.094 
154.56 153.79 162.866 162.339 161.376 160.697 159.748 159.154 158.364 
157.789 156.997 156.343 155.512 154.875 154.067 153.516 152.773 162.95 
162.533 161.666 161.037 160.098 159.489 158.692 158.16 157.404 156.815 
155.991 155.341 154.501 153.864 153.077 152.537 151.882 162.98 162.633 
161.887 161.337 160.472 159.861 159.057 158.496 157.73 157.17 156.363 
155.773 154.965 154.344 153.57 152.94 152.245 151.727 151.187 160.211 
161.015 160.638 160.67 161.793 161.465 161.555 161.137 161.188 162.495 
162.208 162.352 162.028 162.157 161.735 161.836 163.206 162.875 163.027 
162.792 163.024 162.715 162.918 162.462 162.533 164.083 163.629 163.739 
163.469 163.726 163.518 163.767 163.477 163.619 163.132 163.077 165.133 
164.585 164.632 164.24 164.404 164.16 164.319 164.134 164.225 164 
163.998 163.562 163.399 166.169 165.638 165.596 165.137 165.146 164.804 
164.825 164.583 164.583 164.411 164.397 164.21 164.128 163.752 163.529 
166.977 166.555 166.421 165.992 165.853 165.465 165.357 165.059 165.03 
164.796 164.79 164.562 164.508 164.261 164.122 163.765 163.519 167.475 
167.185 167.01 166.667 166.452 166.065 165.838 165.518 165.424 165.234 
165.248 165.036 164.972 164.671 164.517 164.216 164.038 163.698 163.476 
167.585 167.567 167.456 167.171 167.51 167.434 167.161 167.009 166.632 
167.417 167.376 167.11 166.971 166.57 166.384 165.976 167.225 167.275 
167.04 166.916 166.496 166.288 165.884 165.758 165.526 166.743 166.97 
166.777 166.797 166.378 166.2 165.757 165.648 165.457 165.461 165.372 
166.054 166.334 166.153 166.369 166.032 166.021 165.572 165.486 165.22 
165.3 165.211 165.28 165.091 165.543 165.679 165.495 165.689 165.501 
165.628 165.358 165.314 165.035 165.026 164.875 164.979 164.811 164.853 
164.58 165.212 165.286 165.11 165.183 165.073 165.196 165.125 165.16 
165 164.919 164.733 164.696 164.54 164.55 164.348 164.336 164.095 
164.769 164.937 164.773 164.872 164.727 164.855 164.778 164.924 164.805 
164.845 164.623 164.592 164.373 164.358 164.162 164.143 163.915 163.878 
163.599 164.412 163.889 164.254 164.447 163.263 163.649 163.799 164.233 
164.414 162.404 162.869 162.926 163.47 163.695 164.205 164.441 161.317 
161.881 161.968 162.548 162.79 163.392 163.694 164.233 164.45 160.162 
160.768 160.995 161.631 161.962 162.54 162.838 163.39 163.638 164.16 
164.293 159.097 159.663 159.899 160.626 161.023 161.723 162.013 162.549 
162.722 163.26 163.451 163.963 164.074 158.147 158.65 158.768 159.451 
159.755 160.6 160.887 161.599 161.694 162.281 162.405 163.038 163.247 
163.772 163.875 157.204 157.708 157.758 158.316 158.471 159.228 159.47 
160.284 160.406 161.104 161.164 161.879 162.071 162.807 163.007 163.551 
163.609 156.194 156.735 156.786 157.306 157.385 157.993 158.165 158.886 
159.06 159.765 159.87 160.571 160.731 161.517 161.745 162.499 162.641 
163.208 163.233 164.218 163.827 163.919 163.748 163.667 163.641 163.52 
163.535 163.291 163.479 163.501 163.327 163.372 163.134 163.037 162.545 
162.764 163.029 162.678 162.955 162.611 162.745 162.18 162.076 161.372 
161.569 161.973 161.492 161.932 161.477 161.879 161.313 161.48 160.754 
160.75 160.089 160.34 160.709 160.259 160.638 160.19 160.589 160.098 
160.421 159.831 159.998 159.394 159.49 158.997 159.229 159.565 159.184 
159.509 159.106 159.408 158.952 159.244 158.74 159.005 158.487 158.709 
158.238 158.431 158.027 158.209 158.516 158.151 158.483 158.077 158.375 
157.885 158.16 157.639 157.927 157.418 157.713 157.234 157.537 157.112 
157.409 157.026 157.309 157.552 157.182 157.473 157.067 157.339 156.834 
157.082 156.548 156.83 156.342 156.641 156.177 156.474 156.037 156.371 
155.983 156.34 155.979 164.485 164.845 164.446 164.088 165.377 164.929 
164.595 164.153 163.918 165.881 165.516 165.215 164.741 164.435 164.054 
163.781 166.061 165.892 165.515 165.202 164.745 164.452 164.025 163.735 
163.168 165.808 165.823 165.366 165.225 164.614 164.447 163.869 163.741 
163.111 162.829 162.021 165.331 165.392 164.976 164.933 164.35 164.17 
163.533 163.4 162.792 162.632 161.895 161.566 160.746 164.929 164.905 
164.509 164.52 164.05 163.923 163.308 163.098 162.471 162.299 161.649 
161.405 160.647 160.317 159.576 164.63 164.54 164.056 164.05 163.572 
163.563 162.968 162.84 162.149 161.99 161.321 161.153 160.466 160.205 
159.486 159.187 158.533 164.283 164.208 163.65 163.588 163.042 163.032 
162.453 162.398 161.72 161.599 160.91 160.792 160.153 159.996 159.356 
159.107 158.475 158.199 157.632 163.858 162.956 163.354 163.221 162.01 
162.436 162.308 162.694 162.576 160.845 161.418 161.296 161.759 161.612 
162.043 161.929 159.315 160.051 159.916 160.588 160.438 160.999 160.824 
161.323 161.17 157.875 158.505 158.382 159.056 158.933 159.643 159.505 
160.125 159.952 160.497 160.359 156.863 157.327 157.278 157.703 157.572 
158.127 158.033 158.701 158.61 159.24 159.137 159.71 159.622 155.914 
156.41 156.34 156.745 156.529 156.931 156.743 157.29 157.227 157.878 
157.864 158.491 158.446 159.004 158.895 154.9 155.361 155.143 155.627 
155.302 155.799 155.529 156.071 155.978 156.586 156.627 157.252 157.278 
157.845 157.765 158.258 158.086 154.122 154.387 154.089 154.385 154.032 
154.466 154.272 154.839 154.856 155.452 155.56 156.125 156.187 156.715 
156.658 157.142 156.986 157.438 157.26 153.77 153.184 153.53 153.584 
152.496 152.89 152.913 153.262 153.414 151.821 152.221 152.439 152.738 
152.962 153.289 153.714 151.454 151.684 152.006 152.362 152.777 153.079 
153.558 153.866 154.441 151.308 151.449 151.575 151.902 152.243 152.763 
153.236 153.73 154.235 154.638 155.16 150.754 151.135 151.101 151.4 
151.456 151.973 152.263 153.007 153.426 154.16 154.604 155.2 155.661 
149.687 150.274 150.333 150.779 150.821 151.2 151.376 151.923 152.295 
153.055 153.532 154.347 154.838 155.556 156.025 148.776 149.211 149.372 
149.907 150.145 150.613 150.919 151.303 151.709 152.154 152.683 153.302 
153.899 154.621 155.184 155.871 156.347 148.42 148.567 148.691 149.062 
149.35 149.899 150.329 150.881 151.375 151.819 152.357 152.776 153.384 
153.889 154.516 155.091 155.648 156.219 156.678 156.716 155.728 156.336 
156.56 154.674 155.328 155.555 156.179 156.396 153.59 154.252 154.461 
155.11 155.255 155.917 156.083 152.487 153.113 153.206 153.892 153.957 
154.671 154.786 155.536 155.753 151.319 151.894 151.794 152.481 152.456 
153.246 153.38 154.206 154.474 155.27 155.577 150.118 150.615 150.411 
151.016 150.976 151.729 151.938 152.799 153.171 154.02 154.386 155.147 
155.447 149.126 149.464 149.311 149.762 149.822 150.43 150.728 151.483 
151.918 152.745 153.161 153.954 154.273 155.006 155.298 148.572 148.719 
148.668 148.922 149.049 149.498 149.809 150.432 150.817 151.549 151.93 
152.715 153.056 153.822 154.143 154.887 155.237 148.407 148.435 148.436 
148.522 148.587 148.86 149.045 149.546 149.806 150.455 150.746 151.489 
151.828 152.61 152.98 153.747 154.133 154.88 155.265 159.782 158.817 
159.704 160.472 157.736 158.67 159.438 160.353 161.045 156.554 157.514 
158.249 159.238 159.989 160.881 161.548 155.418 156.339 157.097 158.048 
158.852 159.804 160.587 161.439 162.195 154.537 155.325 156.129 156.98 
157.82 158.741 159.618 160.512 161.351 162.181 162.95 154.038 154.62 
155.374 156.095 156.902 157.775 158.683 159.606 160.499 161.35 162.121 
162.89 163.481 153.934 154.287 154.946 155.452 156.163 156.892 157.761 
158.679 159.609 160.506 161.294 162.058 162.65 163.305 163.732 154.069 
154.282 154.878 155.188 155.821 156.29 157.041 157.783 158.678 159.586 
160.419 161.23 161.842 162.498 162.952 163.531 163.908 154.127 154.356 
154.865 155.173 155.762 156.1 156.705 157.178 157.883 158.642 159.443 
160.312 160.979 161.697 162.156 162.755 163.129 163.703 164.033 160.544 
161.228 161.222 161.849 161.788 161.852 162.492 162.495 163.095 162.31 
162.386 163.089 163.131 163.821 163.782 164.358 163.014 163.02 163.829 
163.822 164.602 164.559 165.21 165.048 165.452 163.769 163.819 164.689 
164.693 165.494 165.411 166.006 165.849 166.225 165.989 166.21 164.177 
164.404 165.175 165.409 166.125 166.206 166.644 166.528 166.741 166.595 
166.808 166.659 166.906 164.296 164.564 165.145 165.528 166.097 166.459 
166.809 166.912 166.997 166.941 167.072 167.084 167.378 167.35 167.597 
164.436 164.624 165.104 165.357 165.814 166.171 166.539 166.814 166.981 
167.06 167.186 167.253 167.529 167.642 167.906 167.89 167.947 164.569 
164.767 165.232 165.381 165.791 165.971 166.355 166.566 166.88 167.02 
167.273 167.361 167.645 167.745 167.992 168.04 168.099 168.021 167.896 
160.347 161.678 160.854 160.502 162.918 162.147 161.807 160.986 160.612 
164.092 163.339 162.95 162.19 161.783 161.026 160.668 165.086 164.416 
163.95 163.237 162.782 162.088 161.709 161.046 160.752 165.858 165.272 
164.803 164.151 163.696 163.04 162.638 162.001 161.651 161.065 160.733 
166.644 166.045 165.627 164.972 164.566 163.942 163.557 162.91 162.468 
161.846 161.396 160.868 160.434 167.38 166.871 166.458 165.814 165.358 
164.765 164.355 163.771 163.279 162.624 162.071 161.465 160.994 160.491 
160.117 167.723 167.45 167.015 166.533 165.961 165.43 164.876 164.394 
163.851 163.32 162.759 162.166 161.698 161.133 160.806 160.293 160.046 
167.673 167.574 167.168 166.881 166.305 165.866 165.225 164.765 164.171 
163.738 163.228 162.78 162.378 161.89 161.592 161.073 160.825 160.311 
160.075 164.833 165.328 165.117 165.168 165.671 165.53 165.597 165.445 
165.571 166.134 165.887 165.904 165.756 165.847 165.814 165.985 166.794 
166.464 166.442 166.129 166.16 166.026 166.18 166.172 166.237 167.333 
167.128 167.185 166.829 166.855 166.499 166.587 166.401 166.459 166.302 
166.11 167.606 167.571 167.754 167.572 167.668 167.308 167.314 166.948 
166.909 166.605 166.412 166.073 165.71 167.73 167.785 168.011 168.015 
168.136 167.972 167.891 167.594 167.403 167.084 166.834 166.465 166.133 
165.715 165.361 167.79 167.877 168.068 168.147 168.21 168.196 168.03 
167.89 167.574 167.385 167.046 166.814 166.472 166.159 165.816 165.435 
165.093 167.825 167.92 168.068 168.13 168.112 168.114 167.893 167.823 
167.488 167.378 167.024 166.881 166.526 166.349 165.998 165.778 165.422 
165.118 164.73 
POINT_DATA 1002
SCALARS Distance double
LOOKUP_TABLE default
153.487 153.93 153.382 152.999 152.487 152.862 152.173 151.668 152.3 
152.029 151.657 151.554 151.701 151.484 151.404 151.729 151.859 151.58 
151.279 151.165 151.346 151.794 151.917 151.589 151.196 150.991 151.141 
151.195 151.727 151.877 151.423 150.832 150.404 150.417 150.463 150.246 
151.795 151.995 151.41 150.633 149.903 149.638 149.52 149.285 149.065 
151.727 152.013 151.368 150.665 149.872 149.471 149.23 148.851 148.544 
148.451 151.331 151.762 150.997 150.483 149.786 149.359 149.216 148.939 
148.585 148.408 148.379 153.91 153.006 153.684 152.559 153.571 151.919 
152.375 153.808 151.487 151.346 152.723 154.494 151.434 151.288 151.682 
153.826 155.593 152.116 151.548 151.984 152.148 155.341 156.816 153.674 
152.493 152.405 152.507 152.159 156.603 157.92 155.313 154.066 153.259 
152.883 152.479 152.136 157.563 158.914 156.424 155.471 154.503 153.54 
152.82 152.474 152.31 158.521 159.853 157.309 156.442 155.675 154.592 
153.454 152.874 152.729 152.409 159.989 158.654 160.147 158.881 160.253 
157.514 159.114 160.367 157.828 156.73 159.362 160.509 158.094 156.977 
155.824 159.495 160.389 158.274 157.108 155.894 154.528 159.312 160.007 
158.293 157.194 156.086 154.77 153.575 159.083 159.791 158.201 157.215 
156.281 155.246 154.13 153.265 159.073 159.818 158.226 157.243 156.264 
155.349 154.413 153.529 152.851 159.1 159.825 158.293 157.318 156.2 
155.11 154.124 153.221 152.467 151.975 150.99 151.158 150.431 151.723 
150.706 150.444 152.631 151.396 150.749 150.302 153.739 152.461 151.416 
150.393 149.435 154.979 153.715 152.522 151.074 149.646 148.872 156.274 
155.001 153.772 152.36 150.743 149.66 149.332 157.442 156.237 154.961 
153.728 152.337 151.075 150.375 150.028 158.402 157.373 156.146 154.971 
153.834 152.656 151.645 150.937 150.389 159.23 158.407 157.368 156.224 
155.122 154.07 153.019 152.055 151.283 150.69 150.59 150.246 150.265 
150.211 149.815 149.629 149.599 149.331 148.814 148.925 148.706 148.571 
148.06 147.957 148.668 148.693 148.26 147.773 147.39 147.802 148.632 
149.282 148.566 147.997 147.553 147.461 147.981 148.519 149.659 148.855 
148.163 147.774 147.587 147.703 148.153 148.445 149.915 149.078 148.261 
147.748 147.575 147.58 147.847 148.262 148.435 150.716 149.813 150.995 
150.016 151.415 148.86 150.438 151.876 149.031 148.041 150.995 152.44 
149.516 148.241 147.599 151.675 153.049 150.182 148.757 147.759 147.468 
152.36 153.62 150.935 149.445 148.203 147.573 147.591 153.041 154.253 
151.707 150.261 148.934 148.044 147.788 148.001 153.786 154.964 152.527 
151.195 149.927 148.936 148.344 148.22 148.357 154.539 155.642 153.374 
152.189 151.033 150.038 149.227 148.658 148.44 148.411 151.592 151.871 
152.837 153.214 154.201 152.311 154.498 155.54 153.617 152.754 155.853 
156.931 154.891 154.064 153.248 157.427 158.306 156.434 155.476 154.635 
153.83 158.933 159.643 158.109 157.099 156.098 155.213 154.378 160.292 
161.06 159.505 158.584 157.573 156.613 155.732 154.938 161.625 162.369 
160.743 159.774 158.839 157.948 157.069 156.276 155.598 162.759 163.28 
161.965 160.941 159.977 159.179 158.341 157.5 156.836 156.263 160.229 
159.58 160.68 160.083 161.256 158.774 160.653 161.934 159.283 157.728 
161.082 162.536 159.642 158.092 156.492 161.395 162.971 159.791 158.318 
156.77 155.329 161.739 163.238 160.006 158.572 157.168 155.673 154.285 
162.045 163.32 160.352 158.893 157.633 156.195 154.673 153.249 162.239 
163.295 160.719 159.229 157.961 156.623 155.161 153.676 152.31 160.585 
161.105 161.361 161.933 162.09 161.632 162.607 162.794 162.524 162.322 
163.232 163.6 163.252 163.305 163.134 164.062 164.594 163.93 164.006 
163.998 163.73 165.106 165.704 164.735 164.553 164.407 164.279 163.991 
166.11 166.7 165.577 165.133 164.797 164.554 164.364 164.033 166.861 
167.375 166.298 165.691 165.253 165.046 164.776 164.392 163.948 167.325 
167.729 166.85 166.213 165.617 165.41 165.293 164.851 164.314 163.856 