# vtk DataFile Version 4.0
vtk output
ASCII
DATASET POLYDATA
POINTS 1002 float
-77.6707 -114.198 67.8312 -77.0938 -115.213 67.2487 -77.5372 -114.95 66.4957 
-78.0527 -113.658 67.0885 -78.0167 -114.52 65.7989 -78.3279 -112.977 68.5036 
-78.5353 -113.007 66.384 -78.5317 -113.936 65.1569 -78.6944 -112.192 67.7888 
-79.0214 -111.524 69.1707 -79.2513 -112.432 65.7923 -79.2994 -113.351 64.6047 
-79.3384 -111.533 67.1728 -79.6317 -110.841 68.5587 -79.8514 -110.045 69.7944 
-80.2797 -111.958 65.3536 -80.3622 -112.815 64.251 -80.3112 -111.075 66.6887 
-80.5785 -110.376 68.0728 -80.7657 -109.588 69.2896 -80.8027 -108.623 70.3964 
-81.4573 -111.434 65.1199 -81.5317 -112.264 64.1847 -81.4337 -110.566 66.2937 
-81.6326 -109.838 67.6005 -81.7978 -109.057 68.8354 -81.7236 -108.021 69.9248 
-81.7094 -107.093 70.955 -82.7239 -110.872 65.1217 -82.7954 -111.728 64.3195 
-82.627 -109.955 66.087 -82.6685 -109.097 67.1886 -82.7724 -108.262 68.3409 
-82.6443 -107.226 69.4568 -82.5021 -106.21 70.4668 -82.4833 -105.463 71.4064 
-84.0955 -110.342 65.2269 -84.1032 -111.21 64.4803 -83.9915 -109.398 66.0881 
-83.8731 -108.428 67.0382 -83.8453 -107.489 68.0058 -83.6595 -106.467 69.0091 
-83.402 -105.432 69.9868 -83.3011 -104.629 70.8997 -83.1191 -103.937 71.7734 
-85.3368 -109.744 65.2711 -85.2403 -110.605 64.5743 -85.3359 -108.828 66.079 
-85.1906 -107.865 66.9813 -85.0671 -106.891 67.8575 -84.8496 -105.898 68.7035 
-84.4615 -104.868 69.5437 -84.2093 -103.996 70.3872 -84.0388 -103.31 71.2628 
-83.6626 -102.605 72.1092 -86.3042 -109.009 65.2139 -86.174 -109.882 64.5869 
-86.3922 -108.13 65.9411 -86.3003 -107.227 66.7551 -86.1396 -106.268 67.5746 
-85.963 -105.311 68.3806 -85.5913 -104.342 69.1566 -85.1543 -103.41 69.9017 
-84.873 -102.665 70.7178 -84.5914 -102.05 71.596 -84.1813 -101.452 72.3959 
-76.9248 -116.126 66.2519 -77.3764 -115.868 65.4424 -76.7596 -117.012 65.2304 
-76.923 -116.506 64.2596 -76.287 -117.625 64.0934 -77.7552 -115.369 64.7191 
-76.1388 -116.892 62.8126 -75.7217 -118.285 62.8738 -77.0888 -115.83 63.3755 
-78.2519 -114.699 64.0432 -75.8022 -117.73 61.4576 -75.7675 -119.471 61.9785 
-76.5112 -116.332 61.7893 -77.8344 -115.224 62.6786 -79.2057 -114.087 63.5037 
-76.4774 -119.151 60.9038 -76.5836 -120.814 61.7675 -76.8273 -117.428 60.728 
-77.8928 -115.981 61.3802 -79.2591 -114.778 62.3401 -80.4659 -113.557 63.2727 
-77.7108 -120.359 61.1947 -77.723 -121.664 62.0568 -77.8629 -118.676 60.7419 
-78.5323 -116.97 60.8835 -79.6958 -115.56 61.4523 -80.8235 -114.302 62.3027 
-81.7896 -113.009 63.3352 -78.9629 -120.99 61.7761 -78.8979 -122.06 62.4902 
-79.055 -119.559 61.2936 -79.3565 -117.86 61.1119 -80.2402 -116.283 61.1293 
-81.4103 -114.947 61.4734 -82.3506 -113.691 62.3708 -83.1784 -112.447 63.517 
-80.1102 -121.301 62.3606 -80.044 -122.325 62.9283 -80.2553 -120.137 61.8129 
-80.4305 -118.723 61.3714 -80.9744 -117.15 61.063 -82.021 -115.611 60.9696 
-83.0535 -114.225 61.4551 -83.786 -113.017 62.5547 -84.4692 -111.853 63.7165 
-81.1553 -121.516 62.9099 -81.1229 -122.572 63.3247 -81.3631 -120.498 62.3074 
-81.6824 -119.448 61.5612 -82.1503 -118.198 60.9781 -82.8786 -116.652 60.7583 
-83.7166 -114.973 60.9764 -84.3985 -113.518 61.758 -84.951 -112.347 62.8886 
-85.537 -111.176 63.8896 -82.1834 -122.086 63.4935 -82.3162 -120.975 63.0293 
-83.3747 -121.541 63.6292 -83.632 -120.451 62.9891 -84.6847 -121.051 63.7035 
-82.7229 -120.002 62.1396 -85.051 -119.941 62.9893 -86.0789 -120.557 63.8639 
-84.246 -119.448 61.9236 -83.3699 -119.049 61.1617 -86.4941 -119.313 63.2628 
-87.5159 -119.81 64.1202 -85.6459 -118.732 62.1709 -85.0138 -118.439 61.2039 
-84.0387 -117.807 60.7714 -87.9611 -118.399 63.6866 -88.8814 -118.663 64.4203 
-86.9155 -117.877 62.8712 -86.1539 -117.571 62.0363 -85.4569 -117.133 61.4024 
-84.5578 -116.069 61.0208 -89.4064 -117.165 64.1574 -90.0831 -117.277 64.8586 
-88.3895 -116.827 63.554 -87.292 -116.532 63.0084 -86.396 -116.187 62.5009 
-85.656 -115.285 61.979 -85.0128 -114.18 61.6249 -90.7446 -115.79 64.6872 
-91.212 -115.918 65.3826 -90.0131 -115.53 64.0895 -88.9304 -115.21 63.6317 
-87.764 -114.892 63.2711 -86.8197 -114.246 62.904 -86.1316 -113.313 62.5627 
-85.5505 -112.642 62.5249 -91.9947 -114.477 65.1586 -92.3626 -114.709 65.8054 
-91.501 -114.183 64.5335 -90.6619 -113.75 64.0649 -89.5394 -113.3 63.767 
-88.4889 -112.825 63.5297 -87.6473 -112.207 63.3047 -86.8826 -111.643 63.2462 
-86.1568 -111.335 63.4769 -93.1647 -113.34 65.5027 -93.4614 -113.687 66.0982 
-92.8122 -112.987 64.875 -92.1872 -112.482 64.4012 -91.202 -111.86 64.1913 
-90.1534 -111.31 64.0962 -89.2921 -110.848 63.9237 -88.462 -110.417 63.7783 
-87.5574 -110.102 63.8747 -86.7546 -109.949 64.1971 -87.1547 -108.46 64.885 
-87.8874 -108.425 64.4637 -88.2261 -106.878 65.1336 -88.8516 -108.565 64.1827 
-89.0887 -106.718 64.6697 -89.3376 -105.31 65.3851 -89.8415 -108.902 64.2269 
-90.1046 -106.796 64.4049 -90.263 -104.987 64.8654 -90.3731 -103.765 65.5887 
-90.7719 -109.356 64.448 -91.2479 -107.155 64.4794 -91.4136 -104.926 64.4906 
-91.3963 -103.348 64.9836 -91.2968 -102.304 65.6849 -91.8431 -109.956 64.4867 
-92.5605 -107.771 64.5835 -92.9654 -105.305 64.3969 -92.8278 -103.271 64.5014 
-92.5097 -102.048 65.0941 -92.2554 -101.123 65.8749 -92.9641 -110.739 64.4461 
-93.8451 -108.665 64.4991 -94.5296 -106.171 64.4102 -94.5397 -103.799 64.4216 
-94.0741 -102.194 64.809 -93.6363 -101.134 65.513 -93.2981 -100.228 66.4341 
-93.732 -111.488 64.7248 -94.6908 -109.694 64.612 -95.4725 -107.414 64.5612 
-95.7136 -104.933 64.6905 -95.4831 -102.919 65.0592 -95.1303 -101.492 65.5831 
-94.713 -100.391 66.325 -94.2266 -99.5596 67.2825 -94.0964 -112.035 65.3361 
-95.0405 -110.561 65.1652 -95.8146 -108.694 65.0721 -96.1702 -106.411 65.201 
-96.2165 -104.155 65.5853 -96.2429 -102.294 66.0305 -96.0802 -100.854 66.5435 
-95.5511 -99.8326 67.297 -94.909 -99.146 68.1875 -94.3191 -112.494 66.0054 
-95.18 -111.218 65.902 -95.9495 -109.712 65.8272 -96.4326 -107.808 65.8817 
-96.6202 -105.633 66.1559 -96.8187 -103.507 66.5375 -96.9938 -101.69 66.9413 
-96.7408 -100.374 67.5192 -96.0827 -99.5341 68.3035 -95.4114 -98.9123 69.0993 
-87.2712 -107.516 65.5508 -88.2639 -105.953 65.8299 -87.2545 -106.617 66.2806 
-89.255 -104.361 66.0407 -88.0483 -104.951 66.438 -87.0374 -105.606 66.9979 
-90.1465 -102.693 66.1739 -88.8081 -103.11 66.5132 -87.6425 -103.701 67.0373 
-86.819 -104.529 67.7912 -91.0125 -101.187 66.353 -89.5817 -101.334 66.7163 
-88.256 -101.751 67.1915 -87.3584 -102.573 67.9582 -86.5702 -103.55 68.6961 
-92.0265 -100.095 66.8397 -90.5287 -100.049 67.2142 -89.0363 -100.259 67.641 
-87.9597 -100.869 68.3142 -87.0938 -101.723 69.0296 -86.1246 -102.611 69.5375 
-93.0608 -99.3364 67.6378 -91.6505 -99.2189 67.9976 -90.0532 -99.2912 68.3374 
-88.7232 -99.6624 68.8367 -87.6745 -100.212 69.4555 -86.6138 -100.882 69.9652 
-85.6522 -101.755 70.3579 -93.8921 -98.8099 68.4823 -92.6901 -98.5697 68.8137 
-91.1644 -98.4736 69.1195 -89.6313 -98.6251 69.4812 -88.3463 -98.9749 69.9691 
-87.1316 -99.4162 70.4692 -86.0598 -100.122 70.8965 -85.2779 -101.111 71.2742 
-94.5348 -98.448 69.2898 -93.5249 -98.0358 69.5292 -92.1661 -97.7307 69.8134 
-90.5846 -97.6363 70.1592 -89.1272 -97.8279 70.5875 -87.7831 -98.2096 71.0497 
-86.553 -98.7757 71.4719 -85.6416 -99.6412 71.8415 -84.9344 -100.629 72.1562 
-95.3592 -98.3351 70.1978 -94.4971 -97.7305 70.3197 -95.3124 -97.6287 71.4745 
-94.3484 -97.021 71.591 -95.062 -97.1951 72.9874 -93.3061 -97.2317 70.5093 
-93.9085 -96.7748 73.1905 -94.5292 -97.2921 74.6151 -92.8587 -96.6405 71.7854 
-91.688 -96.9207 70.8269 -93.2134 -96.8697 74.9491 -93.8141 -97.4682 76.1441 
-92.2052 -96.5432 73.4182 -91.0604 -96.5081 72.1323 -90.027 -96.9189 71.2767 
-92.3938 -96.8536 76.6499 -92.981 -97.5367 77.5284 -91.4946 -96.5653 75.2693 
-90.425 -96.5703 73.7726 -89.4355 -96.7252 72.6357 -88.5342 -97.265 71.7755 
-91.6134 -97.1658 78.0631 -92.2146 -97.9978 78.7473 -90.8233 -96.7139 76.9864 
-89.8244 -96.7564 75.6051 -88.8589 -96.9633 74.2745 -87.9646 -97.2461 73.1371 
-87.1381 -97.8425 72.2043 -91.0154 -98.1444 79.0354 -91.6473 -98.8467 79.7176 
-90.2589 -97.5304 78.1305 -89.2416 -97.218 77.08 -88.215 -97.2597 75.9576 
-87.4171 -97.5146 74.6856 -86.6878 -97.9505 73.4519 -86.0344 -98.654 72.5295 
-90.4365 -99.1629 79.7703 -91.0769 -99.6464 80.4691 -89.6933 -98.6467 78.8835 
-88.6626 -98.0589 77.9793 -87.5164 -97.6578 77.1859 -86.7448 -97.7422 76.1753 
-86.2793 -98.2199 74.8156 -85.7277 -98.841 73.6062 -85.2036 -99.6261 72.7932 
-89.7093 -99.8689 80.5004 -90.36 -100.362 81.1002 -88.9765 -99.421 79.7242 
-88.0267 -98.8546 78.8531 -86.8903 -98.2529 78.0934 -86.0329 -98.0704 77.3214 
-85.687 -98.5036 76.1551 -85.3608 -99.1409 74.7873 -84.7919 -99.7343 73.7289 
-84.334 -100.483 73.0109 -96.224 -99.1546 69.6885 -96.1217 -98.5803 71.0319 
-96.9355 -99.5551 70.5224 -96.7819 -99.0749 72.0611 -97.3867 -100.222 71.5744 
-95.9285 -97.9902 72.5297 -97.2742 -99.9152 73.1898 -97.5631 -101.275 72.7218 
-96.422 -98.7432 73.6547 -95.4771 -97.8197 74.1403 -97.513 -101.089 74.3139 
-97.5521 -102.672 73.7531 -96.9226 -99.7913 74.8314 -95.8727 -98.7323 75.2896 
-94.8847 -98.0452 75.6892 -97.4183 -102.568 75.2802 -97.469 -104.304 74.6106 
-97.2342 -101.032 75.9507 -96.4662 -99.7243 76.5075 -95.3541 -98.838 76.7778 
-94.2199 -98.2132 77.034 -97.2305 -104.349 76.0798 -97.4269 -106.057 75.4044 
-97.1202 -102.639 76.76 -96.7756 -101.04 77.4481 -95.8883 -99.8159 77.8591 
-94.7018 -99.0815 77.9795 -93.4324 -98.4749 78.2872 -97.1709 -106.172 76.76 
-97.343 -107.68 76.0698 -96.8966 -104.542 77.3358 -96.5235 -102.907 77.8831 
-95.8775 -101.454 78.4453 -94.9659 -100.405 78.828 -93.9001 -99.6602 79.1224 
-92.7428 -99.083 79.4964 -97.0097 -107.7 77.2163 -97.0532 -108.986 76.4838 
-96.7271 -106.279 77.8169 -96.1644 -104.835 78.2108 -95.4231 -103.461 78.6367 
-94.7161 -102.242 79.2334 -94.0729 -101.203 79.8247 -93.2444 -100.34 80.2714 
-92.1813 -99.8002 80.4988 -96.5731 -108.92 77.4422 -96.5908 -110.031 76.7331 
-96.3667 -107.68 78.1178 -95.8482 -106.41 78.5873 -95.0771 -105.189 78.9331 
[...]
CELL_DATA 2000
SCALARS Distance double
LOOKUP_TABLE default
152.906 152.501 152.658 152.597 152.045 152.173 152.003 152.271 152.222 
151.701 151.739 151.578 151.714 151.694 151.934 151.915 151.613 151.544 
151.461 151.457 151.522 151.623 151.718 151.77 151.723 151.725 151.594 
151.526 151.462 151.514 151.578 151.674 151.713 151.633 151.591 151.423 
151.992 151.794 151.701 151.564 151.517 151.531 151.522 151.601 151.44 
151.434 151.139 151.17 150.938 152.377 152.135 152.043 151.806 151.706 
151.554 151.471 151.424 151.255 151.193 150.894 150.846 150.585 150.645 
150.437 152.679 152.498 152.382 152.168 152.034 151.809 151.675 151.489 
151.323 151.137 150.872 150.692 150.433 150.374 150.202 150.204 149.999 
152.756 152.664 152.484 152.384 152.183 152.047 151.815 151.668 151.425 
151.266 150.969 150.762 150.429 150.28 150.035 150.016 149.834 149.815 
149.601 153.032 153.191 152.984 152.701 153.079 153.005 152.686 152.589 
152.262 152.673 152.61 152.189 152.339 152.078 152.098 151.843 152.747 
152.26 151.744 151.736 151.58 151.772 151.713 151.765 151.691 153.795 
152.83 152.314 151.715 151.609 151.482 151.632 151.671 151.791 151.76 
151.812 155.246 154.24 153.767 152.806 152.59 151.992 152.103 151.87 
152.08 151.962 152.103 151.985 152.096 156.492 155.687 155.268 154.354 
153.982 153.179 153.028 152.55 152.619 152.381 152.507 152.347 152.476 
152.343 152.481 157.512 156.837 156.484 155.72 155.338 154.513 154.2 
153.518 153.396 152.975 153.002 152.771 152.865 152.73 152.848 152.731 
152.809 158.43 157.808 157.483 156.835 156.527 155.794 155.52 154.751 
154.577 153.904 153.835 153.354 153.368 153.11 153.187 153.06 153.117 
152.983 152.945 158.806 159.047 158.565 157.865 159.337 158.817 158.12 
157.649 156.961 159.718 159.144 158.432 157.927 157.29 156.794 156.087 
160.105 159.547 158.793 158.251 157.637 157.18 156.583 155.986 155.245 
160.313 159.886 159.136 158.6 157.947 157.526 156.995 156.508 155.813 
155.146 154.41 160.288 160.015 159.361 158.908 158.238 157.812 157.253 
156.856 156.194 155.637 154.857 154.296 153.735 160.174 159.973 159.435 
159.096 158.463 158.058 157.434 157.054 156.395 155.932 155.189 154.671 
154.079 153.704 153.415 160.103 159.903 159.429 159.162 158.574 158.214 
157.546 157.17 156.499 156.104 155.438 154.987 154.416 154.026 153.677 
153.441 153.27 160.103 159.88 159.434 159.182 158.645 158.304 157.65 
157.252 156.579 156.203 155.594 155.225 154.68 154.322 153.881 153.625 
153.327 153.208 153.018 152.813 153.098 152.774 152.462 153.652 153.167 
152.776 152.395 152.081 154.44 153.854 153.408 152.815 152.356 152.002 
151.707 155.334 154.726 154.317 153.586 153.012 152.374 151.923 151.608 
151.323 156.33 155.693 155.402 154.635 154.127 153.235 152.669 151.994 
151.65 151.293 151.096 157.435 156.787 156.601 155.852 155.503 154.546 
154.02 153.034 152.618 151.908 151.74 151.284 151.234 158.467 157.912 
157.781 157.118 156.867 156.002 155.558 154.534 154.09 153.16 152.932 
152.222 152.172 151.641 151.673 159.29 158.861 158.771 158.247 158.063 
157.346 156.977 156.054 155.615 154.675 154.385 153.573 153.453 152.762 
152.734 152.177 152.22 159.988 159.621 159.575 159.154 159.051 158.484 
158.233 157.442 157.064 156.16 155.833 154.999 154.809 154.076 153.975 
153.324 153.295 152.748 152.788 152.648 152.286 152.433 152.361 151.909 
152.047 151.965 152.133 152.055 151.534 151.658 151.478 151.647 151.501 
151.742 151.639 151.098 151.211 150.889 151.031 150.713 151.014 150.881 
151.265 151.198 150.784 150.756 150.348 150.367 149.932 150.136 149.947 
150.39 150.398 150.822 150.752 150.87 150.608 150.218 149.986 149.576 
149.504 149.32 149.559 149.605 150 150.012 150.34 150.225 151.296 
150.899 150.574 150.155 149.805 149.459 149.26 149.193 149.192 149.364 
149.359 149.612 149.549 149.833 149.792 151.831 151.411 151.111 150.67 
150.321 149.875 149.566 149.297 149.14 149.102 148.989 149.075 148.968 
149.189 149.191 149.509 149.571 152.381 151.954 151.632 151.209 150.826 
150.378 149.957 149.59 149.27 149.089 148.878 148.817 148.661 148.725 
148.706 148.95 149.05 149.352 149.401 152.603 152.666 152.346 151.803 
152.811 152.394 151.748 151.477 150.923 153.185 152.612 151.855 151.408 
150.725 150.51 149.991 153.656 153.053 152.232 151.606 150.805 150.37 
149.778 149.614 149.26 153.983 153.465 152.667 152.037 151.223 150.617 
149.976 149.572 149.175 149.026 148.827 154.353 153.799 153.108 152.493 
151.79 151.151 150.55 149.982 149.539 149.136 148.857 148.697 148.592 
154.985 154.346 153.76 153.077 152.457 151.785 151.218 150.623 150.164 
149.648 149.304 148.917 148.752 148.588 148.637 155.63 155.057 154.494 
153.836 153.183 152.487 151.824 151.227 150.706 150.237 149.882 149.466 
149.253 148.927 148.905 148.78 148.948 156.072 155.605 155.027 154.488 
153.804 153.157 152.402 151.765 151.154 150.692 150.352 150.01 149.82 
149.48 149.351 149.102 149.106 149.077 149.228 153.163 154.166 153.531 
153.291 155.318 154.625 154.394 153.694 153.487 156.602 155.873 155.682 
154.896 154.689 153.979 153.876 157.964 157.234 157.116 156.294 156.088 
155.269 155.133 154.449 154.361 159.331 158.607 158.537 157.777 157.623 
156.757 156.55 155.745 155.585 154.884 154.696 160.761 159.988 159.898 
159.172 159.062 158.274 158.054 157.196 156.946 156.139 155.926 155.185 
155.025 162.185 161.44 161.31 160.54 160.377 159.626 159.397 158.613 
158.343 157.533 157.312 156.512 156.376 155.632 155.599 163.292 162.742 
162.589 161.901 161.643 160.888 160.573 159.833 159.553 158.846 158.663 
157.939 157.826 157.064 156.988 156.268 156.227 163.983 163.626 163.461 
162.973 162.681 162.039 161.659 160.947 160.622 159.968 159.808 159.211 
159.145 158.485 158.386 157.651 157.515 156.81 156.681 160.379 160.926 
160.422 159.984 161.542 160.989 160.492 159.991 159.479 162.147 161.577 
161.009 160.477 159.887 159.389 158.71 162.728 162.133 161.476 160.922 
160.263 159.76 159.029 158.476 157.622 163.298 162.686 161.956 161.341 
160.613 160.089 159.343 158.787 157.919 157.306 156.422 163.769 163.221 
162.482 161.829 161.05 160.449 159.671 159.089 158.213 157.599 156.701 
156.136 155.358 164.039 163.626 162.944 162.348 161.558 160.913 160.089 
159.447 158.551 157.899 156.998 156.415 155.645 155.153 154.503 164.136 
163.845 163.257 162.77 162.004 161.388 160.536 159.881 158.998 158.31 
157.447 156.788 156.053 155.493 154.88 154.382 153.825 164.14 163.933 
163.441 163.056 162.349 161.784 160.941 160.308 159.471 158.816 158.034 
157.353 156.652 156.01 155.406 154.836 154.289 153.776 153.285 160.732 
161.475 161.167 161.318 162.239 161.941 162.125 161.809 161.97 162.995 
162.698 162.873 162.599 162.786 162.474 162.615 163.767 163.438 163.577 
163.309 163.469 163.221 163.41 163.117 163.244 164.608 164.198 164.288 
163.996 164.107 163.848 164.001 163.811 164.03 163.755 163.851 165.603 
165.055 165.037 164.681 164.756 164.474 164.57 164.355 164.562 164.426 
164.63 164.329 164.324 166.651 166.049 165.885 165.421 165.435 165.126 
165.22 164.946 165.083 164.914 165.109 164.96 165.016 164.68 164.539 
167.4 166.95 166.696 166.231 166.169 165.835 165.924 165.617 165.67 
165.41 165.47 165.338 165.376 165.203 165.088 164.76 164.551 167.687 
167.455 167.198 166.889 166.79 166.534 166.579 166.302 166.241 165.915 
165.764 165.579 165.511 165.439 165.362 165.184 165.004 164.7 164.492 
167.619 167.386 167.418 167.23 167.179 167.225 167.151 167.125 166.994 
166.935 167.015 166.989 167.08 167.064 167.004 166.846 166.706 166.767 
166.714 166.857 166.809 166.925 166.727 166.708 166.379 166.489 166.556 
166.492 166.589 166.491 166.569 166.302 166.345 165.983 166.037 165.748 
166.174 166.285 166.217 166.357 166.275 166.313 166.069 165.981 165.676 
165.635 165.466 165.525 165.472 165.876 165.932 165.801 165.975 165.87 
166.03 165.823 165.825 165.575 165.515 165.406 165.398 165.401 165.416 
165.378 165.607 165.624 165.385 165.505 165.328 165.518 165.303 165.448 
165.198 165.324 165.18 165.323 165.26 165.346 165.229 165.246 165.05 
165.143 165.23 164.893 165.031 164.818 164.995 164.82 164.938 164.713 
164.828 164.646 164.872 164.757 165.002 164.837 164.978 164.739 164.795 
164.54 164.643 163.804 164.257 164.421 163.205 163.513 163.727 164.181 
164.441 162.66 162.972 163.169 163.614 163.977 164.349 164.551 161.823 
162.295 162.5 163.063 163.497 163.965 164.222 164.435 164.479 160.901 
161.387 161.636 162.279 162.758 163.414 163.762 164.102 164.131 164.295 
164.347 160.133 160.58 160.829 161.399 161.819 162.536 162.919 163.489 
163.579 163.881 163.88 164.181 164.366 159.26 159.822 160.053 160.611 
160.903 161.54 161.814 162.477 162.612 163.145 163.182 163.615 163.748 
164.198 164.424 158.172 158.842 159.093 159.74 159.973 160.576 160.721 
161.322 161.42 162.048 162.179 162.78 162.974 163.51 163.739 164.204 
164.377 157.119 157.747 158.013 158.689 158.925 159.561 159.682 160.238 
160.299 160.88 161.043 161.713 162.003 162.663 162.96 163.501 163.71 
164.123 164.23 164.633 164.253 164.233 163.79 163.714 163.865 163.619 
163.563 163.268 162.894 163.271 163.23 163.427 163.258 163.155 162.779 
161.841 162.322 162.251 162.782 162.64 162.919 162.475 162.439 161.849 
160.775 161.202 160.972 161.539 161.265 161.835 161.382 161.745 161.156 
161.296 160.785 159.742 160.121 159.838 160.261 159.914 160.352 159.936 
160.397 160.002 160.398 160.032 160.278 159.948 158.684 159.045 158.746 
159.159 158.851 159.183 158.805 159.121 158.817 159.236 159.01 159.409 
159.1 159.392 159.015 157.69 157.975 157.618 158.028 157.725 158.135 
157.772 158.111 157.744 158.134 157.84 158.296 157.95 158.355 157.903 
158.271 157.847 156.851 157.04 156.647 156.94 156.598 156.973 156.605 
156.995 156.601 157.012 156.641 157.079 156.684 157.099 156.644 157.045 
156.629 157.064 156.761 165.15 165.578 165.212 164.714 165.521 165.453 
165.003 164.629 164.016 165.184 165.239 164.95 164.781 164.181 163.79 
163.111 165.001 164.93 164.694 164.66 164.238 163.928 163.228 162.802 
162.104 164.925 164.78 164.387 164.373 164.001 163.899 163.295 162.933 
162.172 161.768 161.077 164.643 164.576 164.023 163.979 163.459 163.495 
162.928 162.83 162.113 161.817 161.068 160.732 160.05 164.179 164.19 
163.653 163.552 162.922 162.873 162.264 162.284 161.669 161.596 160.936 
160.704 160.022 159.705 159.036 163.666 163.732 163.296 163.206 162.6 
162.416 161.759 161.656 161.071 161.064 160.527 160.472 159.901 159.683 
159.046 158.716 158.079 163.117 163.223 162.84 162.846 162.3 162.144 
161.47 161.27 160.626 160.53 159.989 159.993 159.497 159.46 158.914 
158.717 158.11 157.801 157.223 162.689 161.851 162.32 162.363 160.753 
161.326 161.3 161.868 161.799 159.44 160.072 159.984 160.639 160.561 
161.153 160.981 158.265 158.792 158.731 159.29 159.216 159.832 159.726 
160.284 160.129 157.421 157.835 157.825 158.193 158.077 158.541 158.427 
158.997 158.907 159.482 159.438 156.469 157.013 156.952 157.349 157.104 
157.464 157.217 157.718 157.608 158.228 158.237 158.872 158.928 155.166 
155.835 155.715 156.288 155.981 156.4 156.067 156.524 156.404 156.987 
157.053 157.683 157.791 158.4 158.424 154.002 154.514 154.472 155.003 
154.85 155.255 155.048 155.44 155.432 155.937 156.113 156.646 156.794 
157.309 157.332 157.838 157.721 153.331 153.615 153.702 154.046 154.108 
154.38 154.367 154.629 154.726 155.136 155.375 155.846 155.988 156.403 
156.36 156.774 156.63 157.072 156.883 153.102 152.924 153.18 153.496 
152.603 152.978 153.354 153.615 153.884 152.127 152.526 152.874 153.327 
153.619 153.915 154.125 151.745 152.004 152.199 152.669 152.985 153.482 
153.807 154.154 154.493 151.49 151.681 151.821 152.08 152.326 152.761 
153.137 153.686 154.154 154.613 155.086 151.09 151.389 151.604 151.846 
152.048 152.27 152.49 152.923 153.306 153.989 154.478 155.115 155.546 
150.476 150.837 150.988 151.456 151.673 152.024 152.149 152.394 152.556 
153.035 153.419 154.179 154.65 155.38 155.778 149.878 150.123 150.065 
150.57 150.738 151.373 151.616 152.042 152.21 152.48 152.763 153.223 
153.716 154.384 154.904 155.569 156.006 149.465 149.558 149.398 149.661 
149.762 150.335 150.72 151.366 151.765 152.184 152.52 152.83 153.279 
153.706 154.261 154.792 155.307 155.856 156.29 156.283 155.354 155.897 
156.072 154.385 154.963 155.137 155.703 155.936 153.431 153.981 154.126 
154.703 154.864 155.53 155.824 152.582 153.044 153.115 153.647 153.763 
154.402 154.665 155.42 155.808 151.671 152.152 152.15 152.652 152.752 
153.332 153.614 154.309 154.713 155.456 155.88 150.537 151.089 151.101 
151.68 151.788 152.358 152.597 153.273 153.63 154.374 154.734 155.496 
155.863 149.578 149.969 150.063 150.642 150.832 151.399 151.545 152.174 
152.392 153.171 153.468 154.286 154.608 155.423 155.79 149.216 149.295 
149.403 149.78 150.038 150.51 150.655 151.124 151.237 151.876 152.176 
152.987 153.423 154.225 154.679 155.428 155.867 149.257 149.169 149.168 
149.324 149.51 149.848 150.029 150.365 150.498 150.901 151.218 151.853 
152.426 153.184 153.807 154.5 155.035 155.653 156.112 158.919 157.975 
158.759 159.413 156.966 157.773 158.394 159.249 159.932 155.821 156.735 
157.367 158.218 158.882 159.74 160.381 154.538 155.559 156.317 157.211 
157.894 158.714 159.377 160.186 160.816 153.594 154.421 155.321 156.197 
156.962 157.765 158.465 159.257 159.981 160.732 161.413 153.421 153.856 
154.752 155.39 156.173 156.868 157.582 158.376 159.178 159.991 160.771 
161.443 162.068 153.589 153.869 154.601 155.049 155.753 156.238 156.864 
157.513 158.287 159.158 160.005 160.804 161.444 162.036 162.465 153.514 
153.838 154.38 154.862 155.521 155.963 156.536 156.952 157.571 158.258 
159.047 159.923 160.611 161.334 161.762 162.301 162.6 153.291 153.566 
153.991 154.481 155.143 155.701 156.357 156.75 157.27 157.675 158.255 
158.94 159.598 160.393 160.916 161.563 161.924 162.422 162.719 159.624 
160.198 160.248 160.916 160.744 160.846 161.536 161.555 162.16 161.174 
161.346 162.034 162.122 162.725 162.745 163.296 161.567 161.73 162.435 
162.568 163.219 163.288 163.916 163.905 164.436 162.091 162.16 162.87 
162.982 163.716 163.821 164.592 164.619 165.284 165.113 165.546 162.671 
162.724 163.402 163.479 164.214 164.339 165.167 165.315 166.093 166.035 
166.526 166.208 166.52 163.029 163.203 163.866 164.012 164.707 164.832 
165.565 165.775 166.515 166.685 167.191 167.09 167.342 167.088 167.342 
163.126 163.391 164.028 164.33 164.998 165.23 165.841 166.051 166.63 
166.884 167.344 167.482 167.701 167.662 167.782 167.715 167.862 163.18 
163.409 163.966 164.32 164.924 165.301 165.82 166.129 166.538 166.829 
167.175 167.435 167.654 167.782 167.855 167.894 167.913 167.949 167.921 
159.533 160.781 160.022 159.778 162.026 161.285 161.016 160.266 160.055 
163.186 162.5 162.227 161.483 161.231 160.552 160.407 164.278 163.637 
163.385 162.661 162.347 161.661 161.464 160.889 160.757 165.266 164.675 
164.46 163.811 163.521 162.779 162.482 161.852 161.653 161.132 160.906 
166.219 165.628 165.425 164.849 164.649 163.969 163.649 162.903 162.558 
161.937 161.631 161.121 160.8 167.177 166.624 166.423 165.816 165.576 
164.985 164.647 163.99 163.531 162.845 162.396 161.802 161.43 160.938 
160.627 167.815 167.504 167.297 166.77 166.369 165.783 165.289 164.745 
164.218 163.661 163.145 162.566 162.142 161.599 161.278 160.798 160.545 
167.878 167.859 167.614 167.363 166.85 166.384 165.738 165.23 164.649 
164.181 163.71 163.231 162.845 162.335 162.027 161.513 161.259 160.77 
160.552 165.451 165.843 165.774 165.838 166.024 166.008 166.021 165.921 
165.727 166.286 166.192 166.217 166.062 165.904 165.67 165.409 166.604 
166.513 166.584 166.382 166.325 166.002 165.863 165.503 165.351 166.826 
166.792 166.859 166.742 166.685 166.47 166.365 166.081 165.959 165.589 
165.385 167.059 167.011 167.078 166.96 166.839 166.68 166.488 166.388 
166.207 166.063 165.787 165.479 165.085 167.318 167.278 167.398 167.246 
167.164 166.875 166.649 166.42 166.217 166.104 165.848 165.675 165.268 
164.985 164.532 167.545 167.523 167.67 167.585 167.593 167.324 167.157 
166.772 166.577 166.252 166.062 165.771 165.452 165.122 164.689 164.381 
163.963 167.777 167.736 167.844 167.8 167.831 167.708 167.604 167.323 
167.112 166.753 166.524 166.159 165.864 165.448 165.028 164.599 164.142 
163.813 163.409 
POINT_DATA 1002
SCALARS Distance double
LOOKUP_TABLE default
152.867 153.078 152.777 152.334 152.398 152.596 151.792 151.951 151.89 
152.188 151.481 151.678 151.468 151.733 151.831 151.481 151.688 151.43 
151.675 151.754 151.59 151.622 151.874 151.484 151.638 151.718 151.436 
151.25 151.895 152.216 151.594 151.482 151.455 151.157 150.831 150.739 
152.304 152.619 151.938 151.596 151.344 150.975 150.558 150.371 150.206 
152.579 152.848 152.272 151.902 151.535 151.099 150.55 150.198 150.043 
149.755 152.572 152.855 152.31 151.976 151.576 151.171 150.644 150.1 
149.813 149.652 149.4 153.247 152.933 153.399 152.689 153.154 152.442 
151.991 152.877 151.891 151.908 151.916 153.452 151.332 151.523 151.716 
153.127 154.809 151.904 151.599 151.782 151.884 154.789 156.144 153.39 
152.48 152.238 152.229 152.206 156.131 157.204 154.888 153.671 152.939 
152.686 152.615 152.615 157.179 158.156 156.146 154.983 153.951 153.307 
153.02 152.968 152.967 158.091 159.047 157.184 156.257 155.326 154.461 
153.743 153.349 153.252 153.138 159.283 158.323 159.538 158.595 159.882 
157.445 158.96 160.314 157.745 156.683 159.372 160.632 158.053 157.118 
155.953 159.66 160.651 158.381 157.411 156.459 155.031 159.74 160.479 
158.689 157.65 156.703 155.426 154.119 159.706 160.343 158.866 157.843 
156.816 155.674 154.476 153.65 159.666 160.305 158.921 157.943 156.862 
155.831 154.82 153.961 153.427 159.675 160.335 158.966 158.054 156.959 
155.927 155.034 154.194 153.495 153.066 152.524 152.739 152.131 153.274 
152.322 151.796 154.101 152.858 151.896 151.435 155.051 153.809 152.378 
151.502 151.039 156.112 155.055 153.527 152.109 151.346 150.909 157.3 
156.401 155.067 153.474 152.277 151.604 151.196 158.388 157.663 156.547 
155.067 153.733 152.791 152.127 151.701 159.234 158.696 157.837 156.554 
155.229 154.199 153.373 152.706 152.255 159.959 159.536 158.926 157.941 
156.704 155.572 154.659 153.896 153.287 152.824 152.209 151.808 151.885 
151.378 151.254 151.371 150.827 150.468 150.424 150.854 150.41 149.813 
149.523 149.901 150.447 150.511 149.742 149.182 149.261 149.659 149.937 
150.996 150.221 149.46 149.143 149.178 149.248 149.468 151.542 150.798 
149.949 149.294 148.99 148.805 148.857 149.253 152.068 151.29 150.393 
149.535 148.989 148.663 148.52 148.747 149.155 152.919 152.055 153.028 
152.102 153.308 151.091 152.431 153.819 151.037 150.053 152.915 154.239 
151.357 150.026 149.262 153.248 154.466 151.845 150.476 149.434 148.835 
153.687 154.911 152.393 151.139 150.045 149.145 148.598 154.444 155.604 
153.153 151.829 150.694 149.761 149.014 148.65 155.126 156.162 153.915 
152.484 151.164 150.264 149.628 149.122 148.947 155.531 156.527 154.426 
153.074 151.651 150.652 150.145 149.694 149.242 149.132 153.749 153.929 
154.824 155.126 156.008 154.129 156.487 157.315 155.437 154.504 157.904 
158.679 156.963 155.87 155.029 159.243 160.079 158.47 157.443 156.341 
155.389 160.65 161.561 159.808 158.915 157.808 156.691 155.703 162.116 
162.882 161.169 160.16 159.122 158.102 157.145 156.285 163.233 163.764 
162.422 161.342 160.225 159.32 158.574 157.765 156.917 163.886 164.302 
163.268 162.358 161.28 160.366 159.745 159.121 158.276 157.355 160.848 
160.463 161.472 161.037 162.122 159.98 161.577 162.747 160.418 159.267 
162.08 163.362 160.779 159.6 158.227 162.621 163.916 161.173 159.896 
158.541 156.995 163.133 164.264 161.7 160.285 158.838 157.269 155.847 
163.487 164.373 162.219 160.764 159.226 157.599 156.136 154.957 163.681 
164.359 162.61 161.189 159.663 158.114 156.638 155.391 154.298 161.02 
161.639 161.77 162.42 162.534 162.321 163.145 163.313 163.06 162.983 
163.864 164.131 163.729 163.626 163.628 164.606 165.094 164.401 164.198 
164.187 164.281 165.47 166.252 165.043 164.832 164.688 164.818 164.797 
166.432 167.273 165.758 165.511 165.325 165.243 165.273 164.985 167.15 
167.782 166.511 166.245 166.024 165.669 165.504 165.357 164.926 167.436 