# vtk DataFile Version 4.0
vtk output
ASCII
DATASET POLYDATA
POINTS 1002 float
-78.4056 -112.288 75.1056 -78.1771 -113.745 74.6826 -78.2499 -113.014 73.6931 
-78.4794 -111.44 74.1216 -78.4716 -112.321 72.8011 -78.6677 -110.661 75.5233 
-78.901 -110.799 73.2729 -79.0306 -111.834 72.1175 -78.8682 -109.882 74.6028 
-79.0151 -108.98 75.983 -79.7404 -110.469 72.7161 -79.906 -111.48 71.6663 
-79.5492 -109.405 73.8783 -79.5856 -108.435 75.215 -79.6896 -107.517 76.528 
-80.7148 -110.113 72.3594 -80.8748 -110.941 71.3573 -80.5316 -109.052 73.4189 
-80.5374 -108.017 74.6106 -80.6268 -107.14 75.905 -80.7141 -106.351 77.1742 
-81.6517 -109.352 71.9585 -81.8087 -110.059 71.0034 -81.5038 -108.42 73.0178 
-81.4779 -107.368 74.101 -81.5736 -106.529 75.3025 -81.5875 -105.765 76.5902 
-81.625 -105.012 77.8305 -82.6399 -108.347 71.5419 -82.7504 -109.073 70.6639 
-82.5259 -107.53 72.5454 -82.3715 -106.5 73.5806 -82.3572 -105.62 74.6956 
-82.3517 -104.906 75.942 -82.2663 -104.098 77.2094 -82.2446 -103.357 78.3734 
-83.7281 -107.481 71.3721 -83.7995 -108.248 70.5719 -83.6616 -106.723 72.2033 
-83.4301 -105.753 73.0989 -83.2337 -104.771 74.1469 -83.1764 -104.032 75.3259 
-83.0698 -103.295 76.5485 -82.947 -102.517 77.7409 -82.8657 -101.894 78.8307 
-84.8929 -106.786 71.3968 -84.9735 -107.559 70.6674 -84.8071 -106.038 72.0687 
-84.553 -105.132 72.7427 -84.2502 -104.105 73.6466 -84.1148 -103.275 74.7731 
-84.0072 -102.609 75.9332 -83.8339 -101.921 77.0816 -83.6995 -101.303 78.2192 
-83.5487 -100.795 79.2444 -86.0471 -106.102 71.3548 -86.1461 -106.877 70.7316 
-85.9045 -105.326 71.9381 -85.6065 -104.433 72.4654 -85.2239 -103.414 73.171 
-84.9993 -102.538 74.1886 -84.8763 -101.897 75.3269 -84.6598 -101.283 76.4314 
-84.4493 -100.692 77.5373 -84.3165 -100.221 78.6174 -84.122 -99.7996 79.553 
-78.0443 -114.713 73.5442 -78.0967 -114.095 72.5116 -77.8665 -115.66 72.3009 
-77.6239 -115.084 71.1555 -77.5158 -116.302 71.1681 -78.1816 -113.47 71.6101 
-76.919 -115.631 69.6667 -77.303 -116.714 70.2784 -77.3681 -114.444 70.0143 
-78.6754 -112.925 70.8834 -76.8398 -116.054 68.5249 -77.6202 -117.499 69.6935 
-76.7253 -115.035 68.3136 -78.0334 -113.86 69.315 -79.7569 -112.402 70.5432 
-77.755 -116.974 68.4105 -78.3273 -118.727 69.5615 -77.3515 -115.646 67.6762 
-78.1206 -114.627 68.2308 -79.7891 -113.33 69.5595 -81.0776 -111.718 70.4938 
-79.0753 -118.116 69.1115 -79.3111 -119.703 69.8399 -78.9077 -116.567 68.4112 
-79.2967 -115.379 68.3613 -80.493 -114.207 69.1963 -81.6414 -112.646 69.9571 
-82.2286 -110.802 70.2554 -80.4972 -118.874 69.7218 -80.6675 -120.164 70.1945 
-80.4712 -117.453 69.2393 -80.7063 -116.148 68.8221 -81.4733 -114.891 68.9841 
-82.4244 -113.439 69.474 -82.9349 -111.685 69.6708 -83.2333 -109.834 69.9145 
-81.9835 -119.257 69.9336 -82.1346 -120.395 70.435 -81.9171 -118.023 69.4391 
-81.9885 -116.82 68.7403 -82.4023 -115.506 68.2804 -83.1149 -113.993 68.5095 
-83.6509 -112.364 68.9363 -83.9203 -110.646 69.2783 -84.3204 -108.977 69.8664 
-83.2911 -119.495 70.0401 -83.3452 -120.55 70.6292 -83.253 -118.352 69.4557 
-83.2629 -117.27 68.5925 -83.4655 -116.084 67.6628 -83.8995 -114.596 67.4586 
-84.3121 -112.962 68.0379 -84.585 -111.337 68.7242 -84.9472 -109.721 69.3482 
-85.5184 -108.199 70.0539 -84.354 -119.978 70.4578 -84.4154 -118.859 69.8237 
-85.4404 -119.293 70.366 -85.5753 -118.189 69.6969 -86.6275 -118.618 70.3408 
-84.476 -117.72 69.0272 -86.7479 -117.451 69.6468 -87.7909 -117.808 70.3739 
-85.7085 -116.962 68.8113 -84.6223 -116.578 67.9155 -87.8776 -116.429 69.7667 
-88.8952 -116.585 70.5628 -86.8227 -115.988 68.9676 -85.8981 -115.629 67.9306 
-84.9037 -115.218 67.1815 -89.0767 -115.045 70.2026 -90.0524 -115.093 70.8738 
-87.915 -114.781 69.5612 -86.8862 -114.525 68.7124 -86.033 -114.224 67.8114 
-85.1352 -113.613 67.5221 -90.4221 -113.517 70.6589 -91.2853 -113.67 71.1353 
-89.3044 -113.343 70.2854 -88.0575 -113.233 69.7098 -86.9713 -113.112 68.9562 
-86.0823 -112.629 68.457 -85.2896 -111.897 68.4181 -91.8091 -112.085 70.8367 
-92.5088 -112.386 71.3483 -90.9102 -111.814 70.5517 -89.7654 -111.64 70.211 
-88.4757 -111.554 69.6825 -87.3185 -111.291 69.3046 -86.4165 -110.718 69.1907 
-85.6669 -110.135 69.1971 -93.099 -110.857 70.9312 -93.5913 -111.218 71.5988 
-92.4303 -110.477 70.452 -91.55 -110.079 70.1136 -90.425 -109.727 69.7833 
-89.1841 -109.451 69.6167 -88.0623 -109.124 69.6886 -87.139 -108.745 69.7712 
-86.3128 -108.438 69.8438 -94.1596 -109.82 71.1395 -94.4352 -110.194 71.8716 
-93.713 -109.405 70.4808 -93.0291 -108.86 69.998 -92.1188 -108.212 69.7056 
-91.0567 -107.685 69.6738 -89.9252 -107.377 69.8958 -88.827 -107.175 70.1173 
-87.8391 -107.026 70.2336 -86.9504 -106.937 70.4145 -87.185 -105.599 71.016 
-88.0593 -105.513 70.6713 -88.122 -104.152 71.1815 -89.0935 -105.499 70.4828 
-89.0712 -103.973 70.8426 -89.0421 -102.658 71.4233 -90.3026 -105.576 70.3159 
-90.2823 -103.904 70.5912 -90.1279 -102.386 71.0078 -90.0444 -101.22 71.7477 
-91.5093 -105.765 70.0062 -91.644 -103.957 70.2982 -91.4584 -102.224 70.5336 
-91.1951 -100.834 71.182 -90.9519 -99.8861 72.1002 -92.5703 -106.23 69.7646 
-92.8147 -104.181 69.9991 -92.7766 -102.238 70.1103 -92.4487 -100.613 70.5731 
-92.0404 -99.5003 71.5655 -91.6755 -98.7177 72.6277 -93.5471 -107.038 69.8589 
-93.8086 -104.807 69.9598 -93.8514 -102.54 69.9908 -93.6671 -100.666 70.2077 
-93.2749 -99.3225 71.05 -92.8294 -98.4076 72.2065 -92.3976 -97.6833 73.2756 
-94.3601 -107.879 70.2693 -94.7487 -105.818 70.2406 -94.8337 -103.38 70.2436 
-94.7763 -101.155 70.3033 -94.6209 -99.4419 70.7928 -94.2598 -98.2228 71.7424 
-93.7189 -97.3966 72.8331 -93.1284 -96.7311 73.8614 -94.8365 -108.497 70.9067 
-95.391 -106.792 70.7517 -95.6518 -104.589 70.7065 -95.7039 -102.243 70.7742 
-95.7608 -100.125 71.0385 -95.6732 -98.4 71.5947 -95.1884 -97.2482 72.4571 
-94.4523 -96.5557 73.508 -93.7366 -95.9601 74.5161 -95.0383 -108.967 71.671 
-95.6343 -107.52 71.4571 -96.0722 -105.686 71.3308 -96.2634 -103.559 71.4129 
-96.3984 -101.369 71.6865 -96.537 -99.2666 72.0415 -96.3374 -97.6023 72.5776 
-95.6876 -96.6271 73.451 -94.9034 -96.038 74.4926 -94.2167 -95.4445 75.3997 
-87.0302 -104.739 71.5741 -87.9132 -103.191 71.7617 -86.7391 -103.796 72.1152 
-88.8238 -101.685 72.1257 -87.5101 -102.118 72.388 -86.2663 -102.715 72.7074 
-89.7703 -100.316 72.5519 -88.3516 -100.63 72.8567 -86.9542 -101.027 73.1237 
-85.863 -101.733 73.5834 -90.592 -99.0289 73.0315 -89.2397 -99.3308 73.4025 
-87.782 -99.6649 73.7319 -86.5745 -100.253 74.1486 -85.6679 -101.069 74.7332 
-91.3012 -97.8509 73.6973 -90.0468 -98.0785 74.0755 -88.6659 -98.4288 74.456 
-87.3919 -98.9727 74.8616 -86.3054 -99.6657 75.3566 -85.4126 -100.462 75.9145 
-91.9903 -96.7758 74.3599 -90.7445 -96.8909 74.7907 -89.4098 -97.1544 75.1749 
-88.1594 -97.6249 75.5637 -86.983 -98.2183 76.0097 -85.8931 -98.9066 76.5225 
-85.0801 -99.7897 77.0536 -92.6423 -95.8144 74.9308 -91.4035 -95.7906 75.3527 
-90.035 -95.9343 75.737 -88.7395 -96.2613 76.1096 -87.6001 -96.7682 76.55 
-86.485 -97.3907 77.0731 -85.5312 -98.2253 77.6329 -84.8828 -99.2763 78.173 
-93.2352 -95.0796 75.6113 -92.0702 -94.8699 75.8957 -90.7159 -94.9013 76.2398 
-89.3227 -95.1159 76.6197 -88.122 -95.5298 77.0676 -87.0883 -96.1473 77.5952 
-86.1184 -96.9079 78.1489 -85.3329 -97.8707 78.6982 -84.7327 -98.9279 79.193 
-94.0941 -94.7418 76.5243 -93.0235 -94.2674 76.6323 -93.8742 -94.0139 77.7226 
-92.6782 -93.6284 77.9138 -93.4322 -93.4861 79.1553 -91.7209 -94.1078 76.8967 
-92.1764 -93.3102 79.5661 -92.8887 -93.2812 80.8654 -91.2911 -93.657 78.3199 
-90.2404 -94.2415 77.3052 -91.6342 -93.2683 81.3425 -92.3854 -93.408 82.5463 
-90.7699 -93.502 80.0516 -89.7548 -93.9004 78.8352 -88.7922 -94.562 77.8017 
-91.0189 -93.5224 83.0025 -91.757 -93.8416 84.0473 -90.1372 -93.5598 81.7314 
-89.1557 -93.79 80.5069 -88.2611 -94.3259 79.3794 -87.5997 -95.1657 78.3535 
-90.2556 -94.032 84.6301 -90.9718 -94.4007 85.4693 -89.42 -93.9335 83.4008 
-88.4341 -93.9103 82.0956 -87.5833 -94.2354 80.9767 -87.0334 -95.0485 79.8887 
-86.5929 -95.9708 78.8842 -89.5554 -94.6154 86.0716 -90.2979 -95.0242 86.6685 
-88.796 -94.5335 85.0486 -87.8417 -94.4186 83.7353 -86.8942 -94.3774 82.5221 
-86.3115 -94.9256 81.4071 -85.9956 -95.8858 80.2872 -85.6804 -96.8601 79.3706 
-89.0656 -95.3596 87.0472 -89.8337 -95.885 87.4894 -88.3432 -95.2053 86.2808 
-87.4913 -95.1698 85.1846 -86.4897 -95.0052 84.0204 -85.6849 -95.1041 82.89 
-85.26 -95.7844 81.6934 -85.0594 -96.7861 80.6171 -84.9098 -97.865 79.8334 
-88.6655 -96.3726 87.6881 -89.4563 -96.952 88.083 -87.9212 -96.0387 87.069 
-87.1727 -95.964 86.1946 -86.2866 -95.9031 85.2145 -85.3754 -95.8409 84.2194 
-84.6946 -96.0884 83.0723 -84.3366 -96.7645 81.8653 -84.2279 -97.7425 80.9074 
-84.2065 -98.8213 80.2039 -95.023 -95.5226 76.0641 -94.9156 -94.8674 77.3989 
-95.7143 -95.7385 76.9892 -95.5735 -95.1255 78.4119 -96.2031 -96.1265 77.9768 
-94.6484 -94.1919 78.7126 -95.988 -95.6467 79.4309 -96.4992 -96.9456 78.9605 
-95.2402 -94.6552 79.8005 -94.1353 -93.7946 80.2592 -96.2488 -96.6963 80.4899 
-96.6364 -98.2651 79.9786 -95.639 -95.5067 80.9383 -94.7252 -94.5709 81.4417 
-93.5883 -93.783 82.0171 -96.4132 -98.1259 81.5298 -96.612 -99.7196 80.9001 
-95.9539 -96.7144 82.0601 -95.1431 -95.6385 82.5751 -94.152 -94.7718 83.1083 
-93.0483 -94.1113 83.5849 -96.4057 -99.6234 82.3864 -96.5193 -101.165 81.6503 
-96.1405 -98.1265 83.0099 -95.4064 -96.8354 83.5124 -94.4397 -95.8826 84.0208 
-93.5128 -95.1908 84.4858 -92.3537 -94.6616 84.9494 -96.2706 -101.263 83.0689 
-96.4776 -102.768 82.3538 -96.0631 -99.7704 83.7207 -95.5027 -98.3704 84.2298 
-94.5757 -97.2031 84.7453 -93.7452 -96.3905 85.2745 -92.8671 -95.788 85.7424 
-91.6147 -95.2748 86.232 -96.1011 -103.025 83.6045 -96.4177 -104.4 82.992 
-95.7816 -101.587 84.1886 -95.3702 -100.219 84.7314 -94.6767 -98.9755 85.3191 
-93.9076 -97.9213 85.9257 -93.1991 -97.1139 86.4217 -92.2308 -96.4787 86.8507 
-90.9977 -96.0297 87.2473 -95.8564 -104.584 83.9336 -96.1905 -105.746 83.409 
-95.4262 -103.274 84.4272 -95.0416 -101.967 84.996 -94.6313 -100.794 85.7125 
[...]
CELL_DATA 2000
SCALARS Distance double
LOOKUP_TABLE default
155.363 154.424 154.77 154.569 153.808 153.935 153.704 153.992 153.8 
153.65 153.566 153.352 153.363 153.232 153.381 153.281 153.664 153.566 
153.371 153.241 153.102 153.081 153.066 153.116 153.151 153.476 153.507 
153.278 153.241 153.005 152.995 152.893 152.983 152.971 153.088 153.095 
153.132 153.202 152.973 153.019 152.736 152.759 152.53 152.673 152.561 
152.768 152.651 152.861 152.732 152.962 152.925 152.778 152.756 152.54 
152.474 152.22 152.253 152.115 152.28 152.185 152.349 152.218 152.391 
152.28 153.066 152.929 152.831 152.717 152.541 152.386 152.122 152.023 
151.853 151.913 151.858 151.965 151.902 151.992 151.944 152.059 152.045 
153.252 153.102 152.956 152.823 152.582 152.414 152.067 151.93 151.656 
151.679 151.571 151.69 151.62 151.725 151.65 151.78 151.754 151.904 
151.881 155.642 155.737 155.373 154.748 155.63 155.39 154.8 154.523 
154.071 155.285 155.067 154.41 154.382 153.988 153.955 153.775 155.302 
154.718 153.913 153.822 153.517 153.711 153.696 153.795 153.767 156.23 
155.166 154.363 153.695 153.51 153.423 153.705 153.784 153.964 153.848 
153.714 157.688 156.54 155.93 154.818 154.673 154.033 154.433 154.19 
154.568 154.261 154.182 153.751 153.443 159.043 158.109 157.656 156.625 
156.371 155.531 155.639 155.181 155.411 155.039 154.928 154.377 153.981 
153.477 153.203 160.151 159.393 158.964 158.161 157.765 157.006 156.719 
156.193 156.039 155.715 155.48 155.064 154.632 154.1 153.735 153.343 
153.239 161.06 160.407 159.952 159.267 158.804 158.105 157.642 157.015 
156.621 156.172 155.858 155.49 155.146 154.704 154.371 153.934 153.765 
153.463 153.441 161.34 161.362 160.992 160.257 161.432 161.028 160.282 
159.881 159.114 161.511 161.112 160.327 159.901 159.085 158.698 157.925 
161.435 161.124 160.309 159.911 159.073 158.672 157.873 157.513 156.837 
161.223 160.983 160.229 159.866 159.078 158.682 157.95 157.541 156.858 
156.514 155.985 161.014 160.792 160.155 159.831 159.143 158.752 158.094 
157.687 157.051 156.63 156.025 155.724 155.254 160.865 160.634 160.045 
159.788 159.161 158.838 158.176 157.822 157.168 156.803 156.168 155.811 
155.252 154.996 154.555 160.782 160.529 159.943 159.69 159.071 158.799 
158.11 157.809 157.103 156.815 156.171 155.889 155.329 155.049 154.593 
154.354 154.001 160.727 160.481 159.927 159.642 159.035 158.717 158.03 
157.695 156.987 156.696 156.077 155.841 155.323 155.094 154.649 154.428 
154.071 153.883 153.625 153.483 153.851 153.52 153.225 154.38 153.939 
153.573 153.189 152.85 155.031 154.532 154.143 153.624 153.206 152.815 
152.531 155.739 155.21 154.832 154.263 153.773 153.234 152.824 152.512 
152.295 156.601 155.972 155.575 154.963 154.443 153.822 153.286 152.827 
152.506 152.287 152.149 157.687 156.968 156.57 155.807 155.274 154.523 
153.952 153.337 152.946 152.574 152.428 152.222 152.174 158.793 158.133 
157.822 156.979 156.479 155.537 154.981 154.148 153.752 153.165 152.996 
152.629 152.587 152.336 152.304 159.726 159.198 158.98 158.264 157.853 
156.911 156.397 155.409 155.011 154.188 153.978 153.373 153.281 152.861 
152.827 152.52 152.491 160.508 160.061 159.88 159.326 159.008 158.25 
157.811 156.9 156.498 155.597 155.322 154.525 154.347 153.707 153.628 
153.167 153.179 152.81 152.836 153.266 152.993 153.072 152.913 152.594 
152.701 152.504 152.636 152.439 152.296 152.324 152.061 152.133 151.862 
152.036 151.833 152.116 152.098 151.814 151.749 151.402 151.443 151.236 
151.452 151.413 151.99 151.948 151.698 151.581 151.241 151.127 150.912 
150.979 151.006 151.224 151.36 151.985 151.875 151.646 151.511 151.233 
151.08 150.882 150.827 150.811 150.922 151.04 151.26 151.4 152.068 
151.912 151.658 151.503 151.221 151.086 150.864 150.813 150.699 150.752 
150.728 150.905 150.985 151.261 151.405 152.198 151.991 151.689 151.512 
151.171 151.035 150.725 150.689 150.484 150.546 150.427 150.557 150.558 
150.81 150.981 151.301 151.52 152.479 152.16 151.822 151.558 151.197 
150.987 150.645 150.519 150.282 150.284 150.191 150.273 150.292 150.447 
150.611 150.893 151.164 151.472 151.683 152.629 152.61 152.347 151.859 
152.678 152.328 151.773 151.567 151.169 152.987 152.507 151.968 151.584 
151.119 150.909 150.595 153.546 152.962 152.443 151.929 151.442 151.016 
150.62 150.409 150.222 154.222 153.601 153.044 152.469 151.94 151.427 
150.988 150.606 150.366 150.192 150.16 154.917 154.304 153.751 153.111 
152.525 151.929 151.438 151.01 150.752 150.489 150.427 150.271 150.321 
155.595 155.014 154.546 153.895 153.348 152.617 152.065 151.483 151.164 
150.861 150.781 150.609 150.644 150.512 150.646 156.284 155.713 155.307 
154.72 154.278 153.557 153.029 152.269 151.849 151.327 151.163 150.92 
150.935 150.831 150.969 150.916 151.152 157.026 156.437 156.03 155.471 
155.081 154.475 154.036 153.312 152.878 152.176 151.894 151.403 151.317 
151.092 151.175 151.157 151.362 151.41 151.634 153.159 154.126 153.513 
153.246 155.162 154.546 154.301 153.613 153.327 156.258 155.607 155.418 
154.729 154.481 153.768 153.598 157.563 156.805 156.672 155.937 155.807 
155.041 154.915 154.186 154.157 158.982 158.219 158.119 157.329 157.25 
156.463 156.393 155.611 155.56 154.835 154.845 160.29 159.622 159.559 
158.819 158.696 157.917 157.788 157.051 156.974 156.264 156.215 155.52 
155.51 161.572 160.909 160.883 160.202 160.084 159.319 159.123 158.372 
158.265 157.603 157.582 156.903 156.863 156.166 156.154 162.882 162.208 
162.137 161.474 161.367 160.658 160.501 159.731 159.626 158.911 158.922 
158.255 158.262 157.549 157.511 156.812 156.825 163.969 163.41 163.224 
162.624 162.436 161.842 161.719 161.087 161.022 160.33 160.299 159.607 
159.576 158.899 158.846 158.171 158.149 157.502 157.551 160.878 161.257 
160.794 160.244 161.749 161.198 160.569 160.077 159.395 162.28 161.709 
160.993 160.404 159.622 159.104 158.278 162.656 162.155 161.368 160.777 
159.877 159.311 158.439 157.924 157.056 162.953 162.448 161.643 161.064 
160.107 159.511 158.587 158.081 157.242 156.733 155.9 163.342 162.773 
161.994 161.368 160.472 159.79 158.882 158.274 157.464 156.938 156.151 
155.623 154.866 163.748 163.183 162.399 161.78 160.96 160.278 159.448 
158.734 157.948 157.286 156.547 155.938 155.23 154.685 154.087 164.052 
163.551 162.752 162.166 161.353 160.768 159.996 159.359 158.58 157.883 
157.133 156.459 155.794 155.173 154.607 154.065 153.618 164.194 163.807 
163.054 162.5 161.691 161.131 160.393 159.844 159.101 158.475 157.699 
157.053 156.37 155.784 155.228 154.671 154.184 153.674 153.26 161.337 
162.173 161.75 161.753 163.006 162.614 162.668 162.229 162.284 163.851 
163.476 163.615 163.199 163.307 162.83 162.866 164.747 164.358 164.549 
164.182 164.36 163.902 163.951 163.392 163.307 165.672 165.257 165.371 
165.053 165.237 164.912 165.016 164.513 164.45 163.803 163.656 166.665 
166.203 166.23 165.813 165.864 165.606 165.739 165.473 165.517 164.997 
164.9 164.207 164.073 167.679 167.239 167.309 166.762 166.691 166.209 
166.211 165.998 166.114 165.899 165.889 165.41 165.271 164.626 164.462 
168.462 168.164 168.267 167.852 167.777 167.163 166.967 166.497 166.46 
166.29 166.302 166.116 165.977 165.611 165.405 164.9 164.688 168.898 
168.73 168.758 168.593 168.539 168.14 167.862 167.304 167.03 166.656 
166.533 166.348 166.199 166.014 165.791 165.549 165.325 164.969 164.721 
169.015 169.087 168.973 168.884 169.226 169.073 168.927 168.852 168.673 
169.213 169.152 168.874 168.801 168.518 168.464 168.053 168.775 168.922 
168.61 168.621 168.261 168.23 167.839 167.716 167.251 168.171 168.346 
168.106 168.222 167.93 167.958 167.638 167.551 167.167 166.992 166.647 
167.836 167.873 167.673 167.73 167.51 167.595 167.369 167.384 167.059 
166.93 166.542 166.435 166.171 167.609 167.655 167.441 167.422 167.16 
167.191 166.978 167.071 166.823 166.795 166.404 166.28 165.923 165.922 
165.728 167.151 167.323 167.087 167.159 166.84 166.86 166.602 166.69 
166.513 166.553 166.252 166.131 165.739 165.655 165.399 165.473 165.313 
166.59 166.762 166.508 166.662 166.33 166.437 166.157 166.302 166.17 
166.293 166.097 166.016 165.617 165.461 165.085 165.107 164.883 165.016 
164.78 166.268 165.726 166.016 166.083 165.117 165.4 165.36 165.754 
165.848 164.472 164.765 164.701 165.014 165.1 165.541 165.744 163.786 
164.151 164.167 164.424 164.535 164.899 165.211 165.614 165.895 162.867 
163.406 163.477 163.872 163.976 164.382 164.665 165.128 165.412 165.775 
165.853 161.677 162.322 162.343 162.959 163.019 163.641 163.815 164.432 
164.571 165.086 165.039 165.444 165.288 160.464 161.06 161.022 161.66 
161.701 162.445 162.614 163.363 163.446 164.037 163.918 164.405 164.258 
164.736 164.69 159.321 159.874 159.847 160.398 160.448 161.114 161.313 
162.07 162.23 162.859 162.809 163.278 163.198 163.692 163.777 164.297 
164.469 158.185 158.744 158.756 159.306 159.374 159.965 160.114 160.796 
160.95 161.627 161.668 162.221 162.207 162.715 162.82 163.389 163.604 
164.164 164.342 166.285 166.292 166.131 165.825 166.237 166.124 165.765 
165.627 165.245 165.825 165.879 165.433 165.433 164.974 164.925 164.504 
165.016 165.22 164.738 164.898 164.402 164.479 163.987 164.062 163.664 
163.97 164.248 163.769 164.056 163.626 163.812 163.307 163.404 162.913 
163.099 162.681 162.862 163.149 162.643 162.985 162.581 162.935 162.475 
162.659 162.072 162.229 161.721 161.988 161.529 161.827 162.085 161.568 
161.838 161.35 161.75 161.29 161.661 161.063 161.29 160.674 160.948 
160.483 160.797 160.348 160.868 161.12 160.642 160.832 160.282 160.53 
160.02 160.381 159.86 160.172 159.58 159.854 159.351 159.704 159.302 
159.632 159.194 159.932 160.191 159.754 159.953 159.422 159.562 159.018 
159.229 158.762 159.032 158.561 158.797 158.315 158.594 158.184 158.539 
158.148 158.473 158.041 166.57 167.011 166.707 166.581 167.469 167.178 
167.059 166.767 166.59 167.846 167.599 167.46 167.21 167.006 166.678 
166.271 168.176 167.931 167.717 167.492 167.219 166.982 166.554 166.171 
165.521 168.347 168.195 167.866 167.634 167.217 167.027 166.556 166.32 
165.685 165.27 164.486 168.015 168.109 167.692 167.602 167.04 166.888 
166.323 166.181 165.563 165.304 164.536 164.134 163.33 167.295 167.493 
167.048 167.154 166.58 166.557 165.962 165.88 165.277 165.102 164.38 
164.074 163.275 162.933 162.206 166.664 166.743 166.309 166.416 165.939 
165.998 165.484 165.471 164.919 164.807 164.156 163.904 163.157 162.833 
162.11 161.824 161.193 166.227 166.21 165.776 165.796 165.385 165.421 
164.978 164.982 164.458 164.408 163.802 163.662 162.991 162.737 162.054 
161.749 161.109 160.838 160.254 165.823 164.952 165.394 165.364 163.888 
164.453 164.485 164.953 164.954 162.581 163.27 163.302 163.952 163.981 
164.514 164.502 161.151 161.883 161.927 162.658 162.706 163.38 163.362 
163.951 163.903 159.897 160.552 160.725 161.369 161.489 162.096 162.091 
162.684 162.628 163.258 163.207 158.94 159.495 159.739 160.315 160.457 
160.989 160.956 161.452 161.355 161.938 161.905 162.543 162.467 158.144 
158.638 158.765 159.312 159.306 159.877 159.74 160.288 160.124 160.694 
160.634 161.26 161.226 161.794 161.635 157.337 157.811 157.816 158.276 
158.129 158.614 158.418 158.975 158.847 159.447 159.407 160.023 159.992 
160.568 160.431 160.93 160.709 156.426 156.921 156.902 157.322 157.171 
157.518 157.345 157.761 157.723 158.251 158.288 158.843 158.808 159.342 
159.187 159.7 159.483 159.994 159.81 155.861 155.088 155.787 156.333 
154.218 154.929 155.48 156.184 156.602 153.483 154.001 154.46 155.227 
155.736 156.406 156.802 153.238 153.406 153.679 154.215 154.755 155.508 
156.096 156.721 157.225 153.28 153.36 153.561 153.712 154.095 154.601 
155.214 155.956 156.583 157.228 157.762 152.998 153.312 153.595 153.764 
154.018 154.198 154.563 155.072 155.615 156.384 156.934 157.667 158.159 
152.465 152.842 153.114 153.553 153.824 154.122 154.346 154.607 154.951 
155.45 155.954 156.67 157.194 157.95 158.445 152.123 152.323 152.433 
152.848 153.065 153.603 153.889 154.335 154.682 155.036 155.496 155.916 
156.456 157.02 157.573 158.243 158.767 151.935 152.036 152 152.198 
152.253 152.706 152.983 153.628 154.089 154.696 155.215 155.66 156.171 
156.548 157.071 157.533 158.088 158.652 159.184 159.27 158.211 158.861 
159.086 157.223 157.808 157.996 158.624 158.762 156.298 156.827 156.904 
157.489 157.575 158.22 158.337 155.205 155.777 155.703 156.301 156.291 
156.98 157.124 157.836 158.05 153.879 154.476 154.305 154.959 154.905 
155.639 155.811 156.607 156.886 157.618 157.859 152.669 153.106 152.941 
153.544 153.578 154.285 154.515 155.307 155.636 156.42 156.69 157.398 
157.618 151.985 152.124 151.988 152.369 152.485 153.092 153.388 154.104 
154.445 155.185 155.477 156.198 156.448 157.16 157.448 151.818 151.747 
151.588 151.689 151.722 152.138 152.383 153.027 153.347 154.049 154.353 
155.04 155.326 156.013 156.323 157.047 157.392 151.793 151.712 151.505 
151.452 151.328 151.498 151.57 152.04 152.277 152.94 153.26 153.971 
154.313 154.982 155.311 155.966 156.295 156.998 157.322 161.602 160.685 
161.484 162.111 159.609 160.494 161.159 161.977 162.637 158.431 159.419 
160.166 161.021 161.759 162.557 163.28 157.243 158.296 159.189 160.072 
160.833 161.666 162.422 163.238 163.926 156.388 157.264 158.25 159.122 
159.881 160.709 161.405 162.286 162.978 163.802 164.362 156.147 156.666 
157.523 158.232 158.962 159.739 160.423 161.261 161.976 162.812 163.464 
164.19 164.727 156.263 156.564 157.181 157.623 158.227 158.858 159.561 
160.349 161.151 161.941 162.693 163.381 164.026 164.647 165.23 156.333 
156.62 157.141 157.402 157.894 158.276 158.897 159.551 160.362 161.175 
161.987 162.716 163.386 164.009 164.596 165.196 165.715 156.282 156.609 
157.169 157.414 157.914 158.132 158.664 159.046 159.724 160.387 161.159 
161.946 162.637 163.348 163.91 164.535 165.012 165.592 165.96 162.229 
162.803 162.803 163.322 163.35 163.383 163.996 163.935 164.437 163.989 
163.981 164.657 164.64 165.268 165.127 165.616 164.635 164.656 165.345 
165.355 166.069 166 166.572 166.329 166.715 165.043 165.191 165.86 
165.992 166.711 166.778 167.384 167.246 167.641 167.353 167.656 165.362 
165.505 166.153 166.359 167.072 167.291 167.917 167.943 168.346 168.182 
168.518 168.279 168.59 165.844 165.896 166.528 166.643 167.348 167.571 
168.257 168.385 168.829 168.765 169.088 169.005 169.341 169.164 169.33 
166.298 166.393 166.968 167.051 167.669 167.851 168.531 168.714 169.206 
169.193 169.439 169.397 169.618 169.645 169.768 169.63 169.511 166.475 
166.689 167.167 167.351 167.822 168.058 168.618 168.909 169.399 169.512 
169.7 169.639 169.676 169.696 169.717 169.762 169.64 169.528 169.289 
162.049 163.097 162.398 162.059 164.168 163.44 163.09 162.407 162.114 
165.292 164.534 164.162 163.445 163.141 162.492 162.21 166.361 165.651 
165.261 164.53 164.165 163.492 163.155 162.52 162.133 167.312 166.655 
166.271 165.588 165.172 164.481 164.034 163.381 162.923 162.31 161.852 
168.221 167.567 167.135 166.497 166.049 165.409 164.897 164.215 163.676 
163.038 162.566 161.993 161.586 168.914 168.379 167.828 167.239 166.7 
166.149 165.619 165.008 164.436 163.786 163.292 162.71 162.332 161.781 
161.44 169.14 168.842 168.267 167.788 167.184 166.686 166.146 165.631 
165.085 164.502 163.99 163.43 163.049 162.533 162.212 161.67 161.348 
169.05 168.918 168.497 168.144 167.624 167.143 166.625 166.126 165.636 
165.11 164.636 164.099 163.703 163.213 162.891 162.405 162.08 161.564 
161.244 166.756 167.278 167.054 167.174 167.729 167.57 167.647 167.474 
167.603 167.984 167.924 168.032 167.915 168.005 167.866 167.978 168.35 
168.201 168.369 168.261 168.402 168.263 168.363 168.218 168.33 168.976 
168.727 168.89 168.681 168.867 168.695 168.813 168.62 168.672 168.527 
168.526 169.4 169.311 169.4 169.228 169.346 169.194 169.3 169.09 
169.035 168.81 168.651 168.511 168.238 169.366 169.48 169.524 169.534 
169.572 169.556 169.641 169.536 169.449 169.158 168.851 168.569 168.208 
168.017 167.596 169.218 169.343 169.439 169.506 169.561 169.616 169.719 
169.76 169.758 169.553 169.246 168.836 168.416 168.07 167.703 167.42 
167.039 169.207 169.296 169.491 169.508 169.613 169.598 169.681 169.747 
169.802 169.772 169.557 169.236 168.786 168.376 167.973 167.645 167.312 
166.989 166.63 
POINT_DATA 1002
SCALARS Distance double
LOOKUP_TABLE default
155.195 155.93 154.968 154.151 154.158 154.365 153.502 153.77 153.466 
153.575 153.433 153.754 153.128 153.108 153.165 153.518 153.727 153.169 
153.015 153.082 153.212 153.282 153.426 153.044 152.81 152.861 152.977 
153.103 152.905 153.072 152.741 152.433 152.355 152.474 152.511 152.588 
152.807 153.014 152.631 152.257 151.979 152.02 152.069 152.08 152.178 
152.973 153.218 152.721 152.276 151.839 151.748 151.813 151.832 151.926 
152.035 153.121 153.424 152.78 152.252 151.681 151.456 151.516 151.536 
151.587 151.756 151.857 156.031 155.124 156.06 154.99 155.843 154.293 
154.372 155.643 153.872 153.811 154.141 156.125 153.229 153.46 153.828 
155.233 157.336 153.717 153.589 154.076 153.997 157.053 158.677 155.507 
154.8 154.918 154.719 153.837 158.6 159.854 157.319 156.291 155.833 
155.489 154.582 153.53 159.731 160.871 158.567 157.412 156.461 155.831 
155.126 154.193 153.49 160.623 161.688 159.507 158.342 157.178 156.232 
155.519 154.8 154.126 153.687 161.71 160.644 161.734 160.708 161.857 
159.496 160.773 161.906 159.503 158.26 160.696 161.707 159.462 158.258 
157.105 160.55 161.416 159.445 158.332 157.263 156.211 160.416 161.216 
159.505 158.485 157.472 156.423 155.449 160.276 161.108 159.451 158.533 
157.518 156.523 155.568 154.746 160.208 161.035 159.35 158.42 157.387 
156.416 155.587 154.842 154.199 160.206 160.945 159.372 158.388 157.287 
156.296 155.531 154.863 154.252 153.771 153.259 153.538 152.883 154.034 
153.152 152.52 154.709 153.694 152.779 152.301 155.4 154.395 153.238 
152.463 152.128 156.23 155.103 153.841 152.787 152.276 152.051 157.393 
156.095 154.632 153.39 152.667 152.347 152.13 158.623 157.457 155.892 
154.427 153.446 152.882 152.538 152.249 159.603 158.718 157.391 155.914 
154.697 153.796 153.169 152.778 152.452 160.378 159.663 158.648 157.401 
156.186 155.088 154.16 153.557 153.205 152.856 152.842 152.385 152.291 
152.074 151.729 151.574 151.925 151.449 151.035 151.107 151.798 151.376 
150.906 150.802 151.115 151.781 151.365 150.966 150.78 150.857 151.154 
151.831 151.368 150.936 150.699 150.626 150.71 151.098 151.897 151.343 
150.809 150.439 150.32 150.344 150.627 151.223 152.134 151.438 150.816 
150.315 150.099 150.161 150.376 150.835 151.44 152.902 152.011 152.922 
152.056 153.061 151.257 152.408 153.496 151.446 150.661 152.988 154.158 
151.938 150.948 150.259 153.662 154.851 152.487 151.403 150.62 150.227 
154.404 155.501 153.192 151.904 151.015 150.629 150.431 155.143 156.146 
154.096 152.762 151.537 150.947 150.774 150.732 155.855 156.856 154.926 
153.817 152.512 151.504 151.045 150.993 151.186 156.602 157.621 155.635 
154.685 153.61 152.517 151.667 151.243 151.296 151.608 153.725 153.918 
154.738 154.986 155.767 154.004 156.071 156.941 155.2 154.243 157.407 
158.346 156.542 155.682 154.823 158.911 159.695 158.043 157.17 156.332 
155.529 160.265 160.917 159.507 158.543 157.656 156.936 156.183 161.551 
162.253 160.838 159.911 158.921 158.22 157.592 156.818 162.827 163.57 
162.039 161.231 160.367 159.594 158.956 158.241 157.475 163.837 164.505 
163.011 162.262 161.669 161.034 160.273 159.502 158.798 158.177 161.314 
160.694 161.766 161.138 162.348 159.88 161.646 162.85 160.201 158.789 
161.974 163.15 160.489 158.948 157.586 162.227 163.489 160.736 159.104 
157.716 156.433 162.611 163.935 161.152 159.538 158.012 156.674 155.354 
163.009 164.307 161.584 160.154 158.661 157.18 155.796 154.547 163.343 
164.512 161.91 160.573 159.27 157.817 156.408 155.184 154.096 161.756 
162.185 162.582 163.081 163.361 162.741 163.99 164.206 163.779 163.405 
164.882 165.157 164.781 164.526 163.928 165.737 166.126 165.5 165.435 
165.092 164.338 166.75 167.125 166.207 165.891 165.897 165.568 164.801 
167.846 168.071 167.335 166.537 166.214 166.239 165.868 165.149 168.581 
168.739 168.38 167.623 166.747 166.425 166.249 165.821 165.25 168.876 
169.084 168.822 168.421 167.547 166.802 166.377 165.977 165.582 165.149 