# vtk DataFile Version 4.0
vtk output
ASCII
DATASET POLYDATA
POINTS 1002 float
-79.261 -111.789 75.2275 -78.961 -113.002 74.7639 -78.8738 -112.485 73.9192 
-79.2506 -111.174 74.3539 -78.902 -111.955 73.0442 -79.6351 -110.516 75.7154 
-79.4356 -110.594 73.415 -79.2774 -111.528 72.1952 -79.8902 -109.978 74.8405 
-80.2962 -109.432 76.2548 -79.9825 -110.162 72.5313 -79.9892 -111.191 71.5159 
-80.2886 -109.459 73.8747 -80.8518 -109.023 75.43 -81.2144 -108.416 76.8012 
-80.7854 -109.799 71.9183 -80.8088 -110.824 71.061 -80.854 -108.953 72.9876 
-81.2819 -108.395 74.4883 -81.7679 -107.819 75.9952 -81.9582 -107.057 77.2049 
-81.6512 -109.325 71.5333 -81.6795 -110.34 70.7081 -81.627 -108.42 72.407 
-81.7521 -107.636 73.6146 -82.0849 -106.898 75.0841 -82.3825 -106.201 76.3859 
-82.4796 -105.485 77.4728 -82.5585 -108.712 71.1551 -82.649 -109.711 70.3914 
-82.5508 -107.837 72.0276 -82.5636 -106.984 73.0072 -82.6352 -106.091 74.2559 
-82.8414 -105.369 75.5758 -83.0611 -104.773 76.7202 -83.1354 -104.121 77.7535 
-83.5071 -108.071 70.7897 -83.6172 -109.004 70.1623 -83.4852 -107.24 71.656 
-83.5263 -106.43 72.5761 -83.5331 -105.537 73.5992 -83.5869 -104.794 74.8225 
-83.7539 -104.22 76.0072 -83.8653 -103.579 77.053 -83.821 -102.9 78.025 
-84.4363 -107.495 70.5455 -84.5041 -108.381 70.047 -84.3894 -106.654 71.3094 
-84.4058 -105.848 72.206 -84.4112 -104.971 73.0821 -84.3929 -104.197 74.1085 
-84.4422 -103.601 75.2483 -84.486 -102.946 76.2863 -84.4137 -102.234 77.2474 
-84.281 -101.676 78.1762 -85.3159 -106.988 70.4156 -85.3451 -107.901 70.021 
-85.27 -106.067 71.0234 -85.2548 -105.224 71.8622 -85.229 -104.364 72.6922 
-85.1489 -103.525 73.5368 -85.0924 -102.843 74.533 -85.0441 -102.184 75.5161 
-84.9096 -101.471 76.4022 -84.746 -100.909 77.3041 -84.6513 -100.601 78.2327 
-78.5949 -113.845 73.7708 -78.5583 -113.397 72.8588 -78.2514 -114.739 72.7712 
-78.3623 -114.3 71.6991 -77.9546 -115.702 71.8004 -78.7123 -112.961 71.9278 
-78.198 -115.135 70.4064 -77.7139 -116.667 70.8389 -78.5427 -113.77 70.5467 
-79.1549 -112.533 71.062 -78.0313 -115.999 69.1917 -77.7006 -117.425 70.0094 
-78.2387 -114.34 68.9379 -78.8135 -113.069 69.5143 -79.8284 -112.068 70.3987 
-78.1427 -116.878 68.4328 -78.1195 -117.905 69.4602 -78.0911 -115.19 67.6538 
-78.4256 -113.381 67.812 -79.479 -112.401 68.8724 -80.7212 -111.645 70.0054 
-78.8234 -117.545 68.1566 -78.9619 -118.344 69.1352 -78.5999 -116.363 67.1235 
-78.6139 -114.33 66.6928 -79.4143 -112.699 67.413 -80.7256 -112.081 68.7857 
-81.849 -111.215 69.8376 -79.9132 -117.92 68.2266 -80.006 -118.86 69.0102 
-79.7336 -117.122 67.2879 -79.5447 -115.634 66.5414 -79.9283 -113.647 66.6702 
-81.0315 -112.472 67.7812 -82.1808 -111.778 69.0155 -82.9936 -110.537 69.7506 
-80.9854 -118.138 68.5984 -81.0243 -119.305 69.1183 -80.9499 -117.21 67.9566 
-80.7626 -116.261 67.2419 -80.8024 -114.732 66.907 -81.55 -113.161 67.3368 
-82.6043 -112.112 68.2419 -83.3884 -111.045 69.0681 -83.9602 -109.698 69.6351 
-81.8786 -118.336 69.0622 -81.9553 -119.576 69.3483 -81.9171 -117.119 68.7218 
-81.8535 -116.229 68.2066 -81.7855 -115.266 67.7234 -82.2228 -113.904 67.5568 
-83.1185 -112.515 67.7312 -83.8574 -111.302 68.1956 -84.3349 -110.138 68.877 
-84.8209 -109.008 69.5449 -82.8004 -118.971 69.4393 -82.79 -117.562 69.2467 
-83.8438 -118.219 69.4236 -83.9347 -116.95 68.944 -85.0917 -117.575 69.0472 
-82.8566 -116.378 68.8503 -85.2573 -116.7 68.0801 -86.262 -117.063 68.6458 
-84.0701 -116.076 68.2125 -82.8628 -115.572 68.3214 -86.4508 -116.336 67.6362 
-87.2661 -116.389 68.7419 -85.506 -115.969 67.2082 -84.3151 -115.237 67.6957 
-83.1389 -114.535 67.9259 -87.5228 -115.449 68.1538 -88.4035 -115.481 69.1213 
-86.8088 -115.298 67.1436 -85.9613 -114.679 67.0215 -84.9289 -113.774 67.4483 
-83.9121 -113.016 67.6106 -88.7214 -114.31 68.8458 -89.7001 -114.46 69.3709 
-87.9517 -114.105 68.0309 -87.2819 -113.621 67.3518 -86.5236 -112.782 67.1303 
-85.5961 -111.95 67.1597 -84.6246 -111.462 67.498 -89.9983 -113.102 69.2227 
-90.9462 -113.305 69.5913 -89.1235 -112.844 68.8007 -88.3688 -112.459 68.275 
-87.6295 -111.79 67.7097 -86.8219 -110.994 67.2669 -85.8897 -110.428 67.3264 
-84.9936 -110.201 68.0186 -91.2795 -111.819 69.5323 -92.1528 -112.104 69.8777 
-90.348 -111.538 69.2501 -89.4999 -111.269 68.988 -88.6678 -110.814 68.6063 
-87.8238 -110.16 68.1177 -86.9835 -109.621 67.9104 -86.1342 -109.342 68.2869 
-85.3864 -109.184 68.9758 -92.5929 -110.647 69.8116 -93.3461 -111.068 70.0807 
-91.6479 -110.253 69.6121 -90.7222 -109.974 69.4755 -89.8484 -109.644 69.2728 
-88.9603 -109.117 68.9389 -88.1244 -108.642 68.7318 -87.3556 -108.442 68.918 
-86.6031 -108.344 69.3591 -85.9172 -108.156 69.7548 -86.2199 -106.802 70.2426 
-86.9433 -106.999 70.061 -87.1409 -105.346 70.4184 -87.7445 -107.086 69.7817 
-87.9994 -105.402 70.2422 -88.1384 -103.84 70.696 -88.539 -107.07 69.4145 
-88.9191 -105.405 69.9761 -89.1453 -103.839 70.5042 -89.3395 -102.683 71.1866 
-89.3699 -107.267 69.271 -89.8313 -105.424 69.6516 -90.1856 -103.848 70.1923 
-90.4343 -102.589 70.8941 -90.5263 -101.515 71.5864 -90.3153 -107.795 69.493 
-90.8283 -105.736 69.6085 -91.2323 -103.891 69.8654 -91.4376 -102.423 70.392 
-91.4632 -101.173 71.0297 -91.2887 -100.01 71.6565 -91.2915 -108.318 69.7379 
-91.9152 -106.323 69.8084 -92.3995 -104.179 69.7764 -92.5286 -102.307 69.9377 
-92.3551 -100.848 70.3472 -92.1016 -99.6599 70.9595 -91.8507 -98.6946 71.6857 
-92.2911 -108.725 69.7923 -92.9942 -106.946 69.848 -93.5979 -104.798 69.7486 
-93.822 -102.594 69.7282 -93.5958 -100.855 69.947 -93.2115 -99.6246 70.4278 
-92.922 -98.6516 71.1561 -92.7055 -97.89 71.9576 -93.3126 -109.23 69.8288 
-94.031 -107.626 69.7626 -94.6507 -105.665 69.6447 -95.0042 -103.422 69.6539 
-94.9643 -101.428 69.8891 -94.671 -100.044 70.3049 -94.3506 -99.0288 70.9209 
-94.061 -98.1178 71.6863 -93.7562 -97.3759 72.4427 -94.1366 -109.838 69.9892 
-94.862 -108.402 69.838 -95.4302 -106.638 69.7155 -95.8048 -104.556 69.7747 
-95.9392 -102.479 70.0597 -95.8671 -100.832 70.4579 -95.6872 -99.6717 70.9565 
-95.4133 -98.7003 71.6173 -95.0441 -97.7882 72.3488 -94.6212 -97.0581 73.0439 
-86.1716 -105.685 70.6446 -87.0922 -104.187 70.9221 -86.1457 -104.693 71.3623 
-88.1551 -102.928 71.3779 -87.1083 -103.349 71.7608 -86.1362 -103.852 72.2578 
-89.3362 -101.824 71.8923 -88.1275 -102.194 72.1995 -87.0665 -102.586 72.6552 
-86.0397 -102.982 73.1034 -90.2989 -100.329 72.1628 -89.0549 -100.727 72.503 
-87.9479 -101.228 72.9698 -86.9376 -101.681 73.5444 -85.9118 -102.149 74.0311 
-90.9369 -98.8055 72.2593 -89.7662 -99.0061 72.666 -88.6614 -99.4974 73.1395 
-87.8166 -100.267 73.8902 -86.8457 -100.881 74.5642 -85.7979 -101.42 75.0181 
-91.6638 -97.8325 72.4599 -90.459 -97.835 72.9128 -89.2576 -97.9868 73.3574 
-88.4488 -98.7071 74.1009 -87.7262 -99.6521 74.9649 -86.6417 -100.205 75.4956 
-85.5757 -100.688 75.8717 -92.6598 -97.2047 72.8474 -91.3871 -97.1892 73.3363 
-90.0087 -97.1219 73.824 -88.9259 -97.3721 74.4275 -88.2426 -98.2514 75.2321 
-87.4069 -99.1087 75.8921 -86.2697 -99.567 76.2742 -85.3142 -100.095 76.7107 
-93.6427 -96.7275 73.3889 -92.4373 -96.6534 73.8925 -91.0201 -96.5778 74.4798 
-89.639 -96.4978 75.0366 -88.6309 -96.9009 75.6326 -87.8769 -97.7946 76.265 
-86.9889 -98.5831 76.7517 -85.9939 -99.1522 77.1609 -85.1889 -99.8064 77.6754 
-94.7212 -96.6384 73.9753 -93.6932 -96.3073 74.4511 -94.7198 -96.4121 75.2128 
-93.6117 -96.0975 75.8528 -94.6375 -96.3399 76.7754 -92.3763 -96.1837 75.119 
-93.4282 -96.1338 77.4324 -94.4489 -96.3899 78.4938 -92.2356 -95.9639 76.5628 
-90.8566 -96.0486 75.7825 -93.1636 -96.3688 79 -94.1404 -96.7009 80.0629 
-92.0335 -96.1517 77.9784 -90.6879 -95.9404 77.1211 -89.4056 -96.0679 76.3044 
-92.7905 -96.7816 80.4961 -93.6757 -97.3229 81.281 -91.7405 -96.5312 79.4733 
-90.4457 -96.3449 78.4973 -89.141 -96.167 77.6346 -88.2846 -96.6296 76.8486 
-92.268 -97.3664 81.7978 -93.0768 -98.044 82.2429 -91.3571 -96.8993 81.0932 
-90.1439 -96.7616 80.1674 -88.8274 -96.6521 79.2355 -87.9167 -96.7773 78.3073 
-87.4251 -97.552 77.4345 -91.7318 -98.0685 82.8241 -92.525 -98.7346 83.1223 
-90.9649 -97.4324 82.4355 -89.9585 -97.1104 81.7778 -88.6693 -97.0857 80.9466 
-87.6502 -97.1985 80.0096 -87.0911 -97.6587 78.9488 -86.5809 -98.4178 77.9376 
-91.3674 -98.8311 83.7006 -92.1292 -99.4541 83.9392 -90.6504 -98.2175 83.4109 
-89.8731 -97.7743 82.9049 -88.7776 -97.6494 82.2207 -87.6246 -97.7347 81.4629 
-86.8709 -98.0196 80.5252 -86.3289 -98.5651 79.4264 -85.7167 -99.1834 78.4233 
-91.1497 -99.5958 84.5532 -91.8251 -100.207 84.6801 -90.4106 -99.0526 84.3189 
-89.6935 -98.6586 83.8246 -88.8392 -98.4966 83.132 -87.7419 -98.4862 82.4765 
-86.736 -98.5558 81.7952 -86.0477 -98.8503 80.8718 -85.4856 -99.37 79.8252 
-84.9784 -99.9522 78.9192 -95.5147 -97.3944 73.3354 -95.5559 -97.069 74.4313 
-96.1781 -97.9879 73.777 -96.215 -97.7144 75.0681 -96.6783 -98.7107 74.4392 
-95.5923 -96.8513 75.8585 -96.708 -98.4747 75.8852 -97.1235 -99.6405 75.3215 
-96.3097 -97.3895 76.6743 -95.5758 -96.6695 77.6408 -96.9958 -99.566 76.7669 
-97.4082 -100.864 76.1845 -96.727 -98.2358 77.5414 -96.3094 -97.1809 78.5751 
-95.387 -96.7403 79.4957 -97.1016 -100.984 77.5331 -97.4793 -102.255 76.9211 
-96.8332 -99.6768 78.2953 -96.643 -98.3261 79.3409 -96.0735 -97.4834 80.3391 
-94.996 -97.2957 80.9306 -97.2004 -102.472 78.2398 -97.4914 -103.746 77.693 
-96.8567 -101.308 78.9232 -96.6854 -100.026 79.8762 -96.3705 -98.8044 80.908 
-95.6139 -98.1989 81.5844 -94.4304 -98.0894 81.922 -97.3107 -104.012 78.9286 
-97.4694 -105.258 78.416 -96.9247 -102.792 79.5407 -96.6648 -101.647 80.3593 
-96.4319 -100.401 81.3581 -95.9289 -99.3979 82.1764 -95.0379 -98.9592 82.6007 
-93.8009 -98.8284 82.8389 -97.2887 -105.54 79.4348 -97.3419 -106.59 78.8848 
-96.9426 -104.289 80.0809 -96.6377 -103.119 80.8785 -96.4454 -101.988 81.8363 
-96.0827 -100.878 82.7347 -95.4087 -100.106 83.3045 -94.4063 -99.7429 83.5618 
-93.2157 -99.5711 83.7143 -97.1275 -106.876 79.763 -97.1462 -107.691 79.1751 
-96.8594 -105.782 80.466 -96.5857 -104.633 81.3234 -96.4576 -103.582 82.3003 
[...]
CELL_DATA 2000
SCALARS Distance double
LOOKUP_TABLE default
155.385 154.564 154.931 154.878 153.876 154.127 154.109 154.493 154.567 
153.492 153.551 153.497 153.804 153.999 154.378 154.56 153.37 153.297 
153.145 153.286 153.405 153.812 154.028 154.397 154.426 153.318 153.218 
153.001 153.001 152.929 153.192 153.265 153.694 153.69 154.052 153.886 
153.233 153.14 152.908 152.868 152.712 152.774 152.705 152.933 152.921 
153.249 153.206 153.481 153.371 153.144 153.036 152.801 152.766 152.629 
152.616 152.508 152.537 152.509 152.666 152.727 152.939 152.963 153.12 
153.055 153.111 152.97 152.737 152.676 152.544 152.532 152.402 152.392 
152.283 152.372 152.365 152.563 152.551 152.739 152.621 152.78 152.621 
153.171 152.989 152.741 152.631 152.461 152.435 152.281 152.26 152.079 
152.113 151.99 152.154 152.051 152.25 152.051 152.234 152 152.228 
152.078 155.536 155.526 155.264 154.746 155.575 155.277 154.791 154.522 
154.089 155.646 155.302 154.737 154.524 154.13 153.965 153.692 155.765 
155.34 154.569 154.309 153.772 153.806 153.589 153.641 153.514 156.061 
155.532 154.696 154.157 153.373 153.249 152.975 153.282 153.338 153.519 
153.474 156.61 156.006 155.362 154.58 153.774 153.106 152.681 152.676 
152.898 153.255 153.526 153.565 153.501 157.383 156.734 156.292 155.525 
154.939 153.97 153.459 152.838 152.958 153.024 153.52 153.666 153.84 
153.636 153.476 158.255 157.595 157.193 156.54 156.132 155.299 154.835 
153.964 153.818 153.431 153.755 153.778 154.042 153.958 153.873 153.594 
153.403 159.079 158.45 158.004 157.408 157.029 156.406 156.037 155.3 
155.02 154.409 154.395 154.127 154.214 154.106 154.039 153.889 153.738 
153.53 153.42 159.346 159.339 158.977 158.265 159.345 158.968 158.263 
157.922 157.282 159.427 159.03 158.364 157.974 157.36 157.009 156.388 
159.547 159.168 158.563 158.156 157.578 157.172 156.591 156.157 155.528 
159.674 159.314 158.742 158.369 157.793 157.407 156.806 156.395 155.773 
155.339 154.817 159.795 159.456 158.889 158.534 157.938 157.569 156.91 
156.532 155.83 155.481 154.878 154.649 154.312 159.824 159.54 158.969 
158.656 158.069 157.706 157.05 156.623 155.901 155.485 154.836 154.578 
154.176 154.14 153.974 159.792 159.524 158.948 158.677 158.12 157.825 
157.234 156.823 156.157 155.662 155.06 154.649 154.28 154.065 153.92 
153.865 153.778 159.822 159.52 158.957 158.654 158.111 157.849 157.317 
156.998 156.387 155.958 155.367 154.964 154.592 154.318 154.162 153.979 
153.879 153.734 153.583 153.432 153.822 153.526 153.207 154.16 153.919 
153.637 153.22 152.823 154.513 154.237 153.993 153.633 153.271 152.877 
152.667 155.157 154.675 154.398 153.992 153.694 153.333 153.134 152.861 
152.78 156.13 155.49 155.172 154.563 154.248 153.785 153.539 153.248 
153.034 152.838 152.558 157.085 156.508 156.225 155.529 155.16 154.488 
154.107 153.619 153.242 152.947 152.561 152.368 152.009 157.913 157.418 
157.22 156.604 156.263 155.514 155.049 154.313 153.846 153.262 152.888 
152.482 152.245 151.965 151.861 158.794 158.293 158.179 157.601 157.353 
156.631 156.218 155.384 154.939 154.137 153.841 153.176 153.083 152.558 
152.602 152.185 152.283 159.7 159.236 159.171 158.616 158.432 157.748 
157.419 156.611 156.231 155.393 155.125 154.376 154.306 153.679 153.744 
153.191 153.291 152.8 152.903 153.15 152.849 152.886 152.659 152.479 
152.519 152.328 152.432 152.344 152.406 152.273 152.131 152.146 152.098 
152.192 152.155 152.551 152.372 152.187 152.08 151.996 151.999 151.927 
151.989 151.934 152.319 152.371 152.053 152.049 151.819 151.873 151.746 
151.796 151.701 151.777 151.799 151.794 151.915 151.555 151.642 151.295 
151.477 151.358 151.573 151.543 151.621 151.587 151.689 151.777 151.636 
151.526 151.257 151.166 150.833 150.875 150.784 151.086 151.235 151.478 
151.502 151.534 151.467 151.608 151.683 151.987 151.664 151.468 151.172 
150.909 150.661 150.505 150.585 150.75 151.098 151.279 151.44 151.361 
151.357 151.285 151.47 151.604 152.557 152.158 151.968 151.602 151.403 
151.006 150.789 150.536 150.515 150.649 150.84 151.122 151.206 151.284 
151.238 151.244 151.329 151.505 151.75 152.843 153.167 152.721 152.246 
153.71 153.133 152.594 152.155 151.678 154.423 153.756 153.158 152.575 
152 151.543 151.051 155.207 154.504 153.884 153.206 152.567 151.945 
151.362 150.925 150.643 155.984 155.296 154.684 153.975 153.347 152.617 
151.993 151.36 150.989 150.708 150.771 156.667 156.048 155.472 154.795 
154.215 153.476 152.891 152.138 151.705 151.188 151.116 150.98 151.133 
157.271 156.707 156.203 155.586 155.081 154.387 153.88 153.125 152.71 
152.043 151.874 151.464 151.496 151.301 151.328 157.917 157.357 156.938 
156.348 155.943 155.293 154.881 154.162 153.792 153.096 152.878 152.323 
152.262 151.846 151.824 151.501 151.496 158.629 158.083 157.737 157.153 
156.819 156.2 155.864 155.195 154.864 154.18 153.911 153.305 153.143 
152.654 152.563 152.149 152.11 151.78 151.859 153.357 154.321 153.772 
153.704 155.382 154.807 154.783 154.229 154.271 156.557 155.928 155.936 
155.366 155.437 154.896 155.003 157.864 157.173 157.156 156.549 156.638 
156.097 156.243 155.69 155.813 159.185 158.496 158.471 157.823 157.914 
157.338 157.516 156.962 157.117 156.521 156.603 160.501 159.812 159.81 
159.158 159.257 158.662 158.822 158.252 158.397 157.816 157.881 157.264 
157.263 161.838 161.162 161.145 160.482 160.547 159.975 160.104 159.546 
159.652 159.073 159.128 158.518 158.504 157.867 157.834 163.013 162.461 
162.418 161.779 161.774 161.207 161.323 160.793 160.916 160.333 160.401 
159.775 159.784 159.123 159.085 158.433 158.43 163.905 163.51 163.496 
162.957 162.933 162.391 162.512 162.012 162.193 161.627 161.712 161.069 
161.057 160.398 160.334 159.682 159.631 159.031 159.064 160.148 160.621 
160.169 159.656 161.008 160.579 160.033 159.562 158.893 161.366 160.895 
160.261 159.827 159.118 158.655 157.865 161.708 161.197 160.464 159.999 
159.273 158.826 158.055 157.557 156.73 161.976 161.48 160.727 160.222 
159.511 159.027 158.31 157.785 157.01 156.453 155.687 162.267 161.762 
161.098 160.56 159.932 159.388 158.735 158.142 157.399 156.792 156.073 
155.524 154.893 162.752 162.203 161.669 161.07 160.532 159.933 159.357 
158.704 157.989 157.278 156.544 155.946 155.357 154.853 154.331 163.358 
162.836 162.384 161.765 161.223 160.588 160.003 159.37 158.696 157.968 
157.217 156.504 155.872 155.324 154.827 154.338 153.85 163.853 163.439 
162.993 162.46 161.857 161.238 160.557 159.957 159.273 158.645 157.925 
157.225 156.549 155.909 155.372 154.838 154.363 153.863 153.408 160.505 
161.123 160.87 160.964 161.774 161.481 161.599 161.336 161.42 162.578 
162.205 162.339 162.026 162.204 161.861 161.92 163.478 163.081 163.207 
162.838 163.025 162.703 162.873 162.432 162.389 164.391 163.987 164.075 
163.691 163.812 163.514 163.717 163.396 163.465 162.899 162.714 165.333 
164.904 164.936 164.51 164.564 164.25 164.487 164.252 164.485 164.019 
163.944 163.206 162.973 166.225 165.833 165.841 165.373 165.363 164.98 
165.21 165.031 165.433 165.122 165.232 164.52 164.299 163.491 163.334 
166.963 166.661 166.708 166.28 166.233 165.784 165.874 165.682 166.047 
165.978 166.219 165.785 165.607 164.834 164.565 163.873 163.813 167.569 
167.341 167.444 167.113 167.097 166.645 166.585 166.263 166.379 166.355 
166.548 166.481 166.403 165.963 165.663 165.037 164.84 164.307 164.267 
167.913 168.381 168.06 167.819 168.703 168.473 168.222 167.889 167.498 
168.755 168.653 168.391 168.189 167.79 167.431 166.971 168.579 168.561 
168.308 168.241 167.896 167.647 167.201 166.883 166.614 168.382 168.35 
168.142 168.119 167.88 167.725 167.336 167.062 166.755 166.625 166.583 
168.286 168.223 168.047 167.999 167.837 167.741 167.467 167.219 166.898 
166.708 166.562 166.565 166.452 168.129 168.138 167.954 167.927 167.764 
167.723 167.537 167.378 167.128 166.896 166.69 166.545 166.361 166.264 
165.914 167.758 167.882 167.701 167.764 167.592 167.619 167.448 167.408 
167.204 167.082 166.865 166.704 166.46 166.262 165.916 165.665 165.215 
167.311 167.462 167.34 167.454 167.321 167.395 167.224 167.251 167.028 
167.021 166.774 166.739 166.452 166.333 165.95 165.731 165.291 165.026 
164.61 167.077 166.867 167.021 167.133 166.621 166.82 166.895 167.053 
167.126 166.11 166.459 166.501 166.737 166.733 166.964 166.988 165.286 
165.773 165.772 166.151 166.075 166.42 166.389 166.726 166.739 164.156 
164.759 164.698 165.224 165.143 165.616 165.606 166.033 166.074 166.444 
166.486 162.825 163.466 163.382 164.011 164.014 164.621 164.749 165.261 
165.38 165.766 165.817 166.167 166.168 161.586 162.142 162.117 162.716 
162.833 163.502 163.775 164.415 164.62 165.073 165.066 165.424 165.341 
165.735 165.637 160.551 161.031 161.076 161.606 161.777 162.403 162.686 
163.388 163.596 164.187 164.122 164.548 164.345 164.781 164.644 165.106 
164.979 159.603 160.07 160.132 160.658 160.809 161.398 161.583 162.244 
162.362 163.011 162.927 163.446 163.212 163.685 163.528 164.051 163.996 
164.462 164.357 166.976 166.748 166.815 166.762 166.516 166.563 166.447 
166.579 166.484 166.209 166.254 165.988 166.134 165.926 166.144 165.932 
165.683 165.811 165.434 165.565 165.224 165.439 165.165 165.44 165.13 
164.821 165.098 164.709 164.916 164.531 164.708 164.36 164.602 164.29 
164.543 164.096 163.747 164.091 163.685 164.025 163.63 163.929 163.53 
163.784 163.396 163.66 163.23 163.413 162.833 162.715 163.008 162.553 
162.884 162.431 162.836 162.409 162.804 162.364 162.703 162.251 162.514 
162.002 162.138 161.575 161.81 162.04 161.574 161.794 161.307 161.611 
161.185 161.576 161.174 161.566 161.151 161.497 161.064 161.306 160.829 
160.963 160.494 160.985 161.185 160.742 160.902 160.439 160.624 160.23 
160.486 160.141 160.437 160.08 160.401 160.041 160.358 159.976 160.206 
159.782 159.937 159.525 167.135 167.371 167.121 166.894 167.651 167.391 
167.163 166.918 166.724 167.936 167.687 167.491 167.227 167.037 166.779 
166.526 168.196 167.966 167.707 167.481 167.235 167.055 166.773 166.502 
166.057 168.159 168.1 167.691 167.528 167.116 167.048 166.688 166.593 
166.095 165.829 165.178 167.533 167.763 167.321 167.308 166.77 166.74 
166.29 166.305 165.805 165.69 165.028 164.782 164.08 166.616 166.943 
166.617 166.766 166.284 166.302 165.831 165.848 165.377 165.319 164.718 
164.542 163.875 163.66 163.034 165.9 166.114 165.885 166.061 165.696 
165.77 165.324 165.366 164.908 164.902 164.364 164.238 163.62 163.434 
162.84 162.655 162.107 165.402 165.53 165.305 165.445 165.136 165.211 
164.773 164.812 164.324 164.378 163.879 163.871 163.317 163.193 162.617 
162.45 161.917 161.758 161.262 165.036 164.295 164.76 164.901 163.413 
163.956 164.131 164.611 164.705 162.437 163.029 163.194 163.753 163.822 
164.294 164.287 161.314 161.971 162.097 162.727 162.756 163.292 163.232 
163.754 163.753 160.057 160.744 160.825 161.521 161.541 162.147 162.084 
162.633 162.628 163.225 163.298 158.835 159.459 159.506 160.185 160.228 
160.889 160.895 161.484 161.51 162.105 162.191 162.787 162.814 157.815 
158.323 158.374 158.933 159 159.616 159.688 160.306 160.367 160.982 
161.05 161.665 161.687 162.241 162.169 156.991 157.422 157.494 157.938 
158.013 158.516 158.616 159.171 159.257 159.835 159.889 160.489 160.505 
161.089 161.044 161.57 161.485 156.233 156.651 156.707 157.119 157.157 
157.607 157.693 158.198 158.311 158.815 158.889 159.386 159.421 159.94 
159.943 160.463 160.427 160.923 160.859 155.821 155.307 155.795 156.264 
154.906 155.261 155.688 156.202 156.684 154.786 154.944 155.247 155.636 
156.147 156.68 157.239 154.637 154.835 155.042 155.296 155.762 156.224 
156.868 157.35 157.917 154.121 154.498 154.699 155.045 155.421 155.884 
156.498 157.02 157.62 158.035 158.503 153.537 153.882 154.073 154.512 
154.82 155.383 155.886 156.538 157.11 157.67 158.14 158.558 158.98 
153.157 153.388 153.533 153.872 154.151 154.66 155.101 155.764 156.309 
157.003 157.522 158.099 158.547 159.009 159.453 152.776 153.037 153.175 
153.44 153.718 154.09 154.54 155.043 155.586 156.189 156.746 157.385 
157.906 158.491 158.965 159.465 159.919 152.328 152.633 152.833 153.114 
153.408 153.747 154.21 154.631 155.18 155.633 156.164 156.676 157.201 
157.792 158.31 158.899 159.383 159.903 160.347 160.413 159.41 159.995 
160.126 158.302 158.917 159.053 159.676 159.829 157.205 157.788 157.939 
158.589 158.822 159.439 159.655 156.239 156.755 156.898 157.5 157.76 
158.432 158.711 159.317 159.547 155.299 155.826 155.938 156.495 156.683 
157.347 157.61 158.302 158.537 159.176 159.413 154.282 154.822 154.889 
155.479 155.603 156.251 156.462 157.156 157.399 158.088 158.348 159.034 
159.34 153.396 153.807 153.832 154.374 154.5 155.139 155.368 156.042 
156.317 156.979 157.276 157.956 158.29 158.988 159.308 152.756 153.025 
153.026 153.422 153.551 154.087 154.342 154.984 155.297 155.956 156.267 
156.924 157.242 157.929 158.239 158.921 159.165 152.206 152.433 152.416 
152.739 152.846 153.264 153.468 154.011 154.291 154.936 155.24 155.912 
156.205 156.878 157.156 157.831 158.078 158.731 158.937 159.637 158.819 
159.571 160.203 157.932 158.707 159.396 160.14 160.767 157.162 157.834 
158.516 159.303 160.019 160.739 161.433 156.679 157.175 157.768 158.436 
159.163 159.959 160.77 161.524 162.356 156.438 156.823 157.353 157.8 
158.437 159.131 160.022 160.864 161.841 162.579 163.423 156.27 156.638 
157.187 157.517 158.098 158.571 159.433 160.19 161.255 162.064 162.974 
163.595 164.225 156.118 156.47 157.044 157.394 158.004 158.378 159.157 
159.739 160.717 161.476 162.36 163.05 163.646 164.2 164.616 156.044 
156.337 156.894 157.249 157.874 158.278 158.991 159.496 160.309 160.948 
161.72 162.373 162.941 163.525 163.94 164.477 164.825 156.056 156.302 
156.819 157.118 157.683 158.083 158.727 159.231 159.937 160.511 161.201 
161.771 162.349 162.866 163.338 163.828 164.243 164.703 165.031 160.255 
160.828 160.814 161.34 161.385 161.383 161.973 161.944 162.484 162.087 
162.011 162.69 162.655 163.341 163.199 163.708 163.024 162.846 163.559 
163.48 164.255 164.152 164.772 164.469 164.841 164 163.825 164.448 
164.36 165.058 165.032 165.669 165.512 165.929 165.561 165.833 164.734 
164.681 165.218 165.16 165.753 165.739 166.346 166.302 166.8 166.585 
166.909 166.525 166.739 165.148 165.241 165.801 165.831 166.443 166.424 
167.055 166.992 167.565 167.418 167.83 167.536 167.736 167.322 167.373 
165.334 165.518 166.076 166.267 166.893 167.04 167.674 167.709 168.234 
168.154 168.508 168.332 168.482 168.18 168.148 167.755 167.658 165.428 
165.609 166.06 166.344 166.871 167.23 167.791 168.088 168.509 168.619 
168.814 168.783 168.822 168.698 168.629 168.382 168.257 167.926 167.828 
160.067 161.161 160.447 160.087 162.262 161.543 161.197 160.456 160.084 
163.355 162.625 162.262 161.554 161.189 160.461 160.118 164.397 163.672 
163.277 162.597 162.264 161.565 161.217 160.499 160.187 165.407 164.691 
164.305 163.616 163.316 162.645 162.338 161.609 161.263 160.559 160.278 
166.328 165.689 165.308 164.64 164.3 163.665 163.343 162.687 162.32 
161.624 161.277 160.635 160.369 166.958 166.497 166.093 165.544 165.107 
164.531 164.095 163.543 163.117 162.551 162.141 161.563 161.22 160.668 
160.378 167.283 166.966 166.581 166.17 165.717 165.204 164.7 164.168 
163.694 163.196 162.766 162.278 161.893 161.414 161.092 160.609 160.323 
167.515 167.238 166.914 166.574 166.187 165.741 165.279 164.751 164.291 
163.767 163.357 162.854 162.473 162.001 161.675 161.246 160.988 160.549 
160.32 167.37 167.859 167.623 167.638 168.234 168.089 168.071 167.856 
167.85 168.406 168.364 168.321 168.173 168.102 167.993 168.043 168.592 
168.553 168.594 168.404 168.326 168.172 168.225 168.205 168.328 168.861 
168.842 169.026 168.818 168.802 168.5 168.489 168.368 168.455 168.435 
168.362 168.983 169.07 169.247 169.223 169.223 169.01 168.877 168.658 
168.516 168.434 168.201 168.149 167.716 168.84 169.018 169.078 169.22 
169.167 169.195 169.025 168.92 168.643 168.458 168.054 167.879 167.377 
167.267 166.757 168.5 168.73 168.763 168.933 168.903 168.995 168.925 
168.927 168.785 168.606 168.271 167.905 167.424 167.071 166.623 166.419 
166.063 168.061 168.327 168.425 168.632 168.71 168.811 168.854 168.876 
168.874 168.781 168.61 168.28 167.881 167.392 166.942 166.526 166.171 
165.912 165.62 
POINT_DATA 1002
SCALARS Distance double
LOOKUP_TABLE default
155.328 155.825 155.007 154.464 154.226 154.847 153.696 153.711 154.173 
154.685 153.252 153.519 153.548 154.283 154.718 153.125 153.472 153.063 
153.612 154.197 154.367 153.065 153.422 152.82 152.909 153.281 153.597 
153.7 152.939 153.345 152.726 152.598 152.616 152.874 153.151 153.267 
152.831 153.261 152.639 152.53 152.404 152.516 152.798 152.946 152.956 
152.823 153.253 152.564 152.434 152.249 152.204 152.382 152.478 152.443 
152.469 152.895 153.368 152.511 152.313 152.102 151.891 151.881 151.895 
151.785 151.776 151.993 155.78 155.009 155.793 155.032 155.905 154.337 
154.975 156.063 154.208 153.852 154.988 156.25 153.75 153.365 153.557 
155.364 156.572 153.739 152.637 152.93 153.536 156.084 157.177 154.64 
152.947 152.468 153.306 153.743 156.944 158.032 155.853 154.327 153.108 
153.306 153.955 153.827 157.811 158.925 156.827 155.719 154.464 153.887 
154.079 154.097 153.7 158.616 159.7 157.588 156.675 155.722 154.88 
154.422 154.148 153.877 153.641 159.723 158.594 159.702 158.611 159.724 
157.586 158.758 159.802 157.728 156.769 158.946 159.895 157.988 157.023 
155.985 159.106 160.025 158.178 157.217 156.184 155.157 159.244 160.12 
158.323 157.317 156.203 155.109 154.374 159.261 160.097 158.406 157.485 
156.355 155.149 154.256 153.903 159.219 160.066 158.371 157.589 156.634 
155.487 154.547 154.042 153.822 159.281 160.124 158.377 157.593 156.776 
155.758 154.862 154.372 154.078 153.743 153.19 153.65 152.786 154.036 
153.232 152.457 154.311 153.64 152.949 152.6 154.858 154.033 153.418 
153.042 152.704 155.863 154.805 153.912 153.293 152.775 152.2 156.893 
155.928 154.755 153.66 152.781 152.134 151.696 157.776 157.001 155.87 
154.532 153.352 152.537 152.068 151.823 158.733 158.035 157.033 155.76 
154.533 153.642 153.073 152.667 152.364 159.7 159.085 158.182 157.048 
155.891 154.955 154.323 153.837 153.371 152.977 152.576 152.199 152.214 
152.168 152.031 152.056 152.355 152.045 151.916 151.815 152.06 151.753 
151.665 151.663 151.63 151.491 151.12 151.02 151.398 151.575 151.562 
151.394 150.891 150.492 150.846 151.467 151.471 151.374 151.779 151.236 
150.606 150.422 150.987 151.388 151.229 151.257 152.334 151.797 151.182 
150.584 150.544 150.995 151.238 151.25 151.486 153.219 152.612 153.674 
153.116 154.345 152.061 153.811 155.118 152.553 151.392 154.587 155.919 
153.26 151.894 150.805 155.386 156.65 154.083 152.703 151.386 150.78 
156.113 157.24 154.922 153.647 152.331 151.405 151.17 156.772 157.804 
155.727 154.598 153.403 152.4 151.823 151.501 157.497 158.451 156.549 
155.558 154.49 153.488 152.749 152.22 151.758 158.301 159.138 157.415 
156.496 155.541 154.566 153.683 153 152.474 152.101 153.877 154.221 
154.869 155.335 155.945 154.797 156.507 157.224 155.969 155.55 157.792 
158.581 157.174 156.777 156.407 159.119 159.858 158.507 158.069 157.706 
157.242 160.462 161.186 159.852 159.417 158.987 158.503 157.902 161.843 
162.489 161.134 160.66 160.241 159.734 159.15 158.462 163.054 163.499 
162.362 161.831 161.483 161.029 160.443 159.76 159.037 163.98 164.238 
163.458 162.983 162.728 162.373 161.739 160.993 160.252 159.606 160.622 
160.186 161.056 160.498 161.472 159.417 160.719 161.912 159.572 158.371 
160.966 162.252 159.712 158.543 157.256 161.226 162.454 159.994 158.832 
157.561 156.218 161.611 162.743 160.465 159.342 158.037 156.603 155.403 
162.261 163.256 161.14 159.997 158.737 157.199 155.835 154.835 162.994 
163.826 161.9 160.633 159.384 157.974 156.481 155.305 154.345 160.774 
161.219 161.382 161.846 162.098 161.736 162.676 162.964 162.5 162.38 
163.606 163.868 163.343 163.235 163.007 164.493 164.815 164.13 163.968 
163.951 163.442 165.409 165.777 164.912 164.656 164.84 164.668 163.728 
166.315 166.585 165.804 165.378 165.601 165.863 165.17 164.007 167.088 
167.221 166.725 166.176 166.072 166.473 166.327 165.331 164.36 167.717 
167.771 167.531 167.039 166.546 166.525 166.65 166.237 165.424 164.738 