# vtk DataFile Version 4.0
vtk output
ASCII
DATASET POLYDATA
POINTS 1002 float
-80.0348 -111.974 69.8845 -79.5396 -113.057 69.5193 -79.7309 -112.749 68.6205 
-80.4899 -111.699 69.0317 -80.2261 -112.499 67.7533 -80.7583 -110.838 70.3032 
-81.1249 -111.318 68.2272 -80.8853 -112.139 67.0341 -81.2995 -110.384 69.5057 
-81.3358 -109.337 70.729 -81.7308 -110.714 67.612 -81.5963 -111.565 66.5163 
-81.8957 -109.758 68.7825 -81.8435 -108.645 70.0111 -81.7328 -107.494 71.1267 
-82.4078 -110.029 67.1424 -82.4514 -110.876 66.039 -82.502 -109.062 68.2496 
-82.557 -108.009 69.3971 -82.4355 -106.859 70.4874 -82.4317 -105.853 71.5674 
-83.3456 -109.397 66.6279 -83.4371 -110.163 65.6085 -83.3264 -108.44 67.7394 
-83.4093 -107.432 68.8726 -83.4067 -106.39 69.906 -83.3562 -105.39 70.9579 
-83.3934 -104.552 72.126 -84.4011 -108.74 66.2436 -84.4944 -109.469 65.4357 
-84.322 -107.779 67.156 -84.3227 -106.739 68.2362 -84.2967 -105.724 69.2877 
-84.2088 -104.78 70.2863 -84.1525 -103.941 71.4455 -84.1008 -103.18 72.6328 
-85.4905 -108.039 66.144 -85.6202 -108.814 65.4241 -85.2957 -106.995 66.7885 
-85.16 -105.87 67.5726 -85.0453 -104.809 68.5686 -84.8775 -103.853 69.5906 
-84.7405 -103.038 70.6595 -84.65 -102.322 71.8303 -84.5502 -101.668 72.8963 
-86.5736 -107.298 66.0537 -86.6481 -108.103 65.3328 -86.3199 -106.197 66.6371 
-86.0103 -105 67.1464 -85.7842 -103.928 67.886 -85.6058 -102.983 68.9139 
-85.4565 -102.162 69.9893 -85.3203 -101.464 71.0392 -85.1581 -100.833 72.0721 
-84.995 -100.276 72.9937 -87.4629 -106.454 65.7745 -87.4325 -107.253 65.1413 
-87.3265 -105.415 66.3928 -87.0002 -104.245 66.873 -86.6618 -103.2 67.3904 
-86.4448 -102.333 68.262 -86.3377 -101.562 69.3878 -86.2351 -100.877 70.4392 
-86.0225 -100.245 71.3702 -85.7298 -99.6433 72.2577 -85.4591 -99.122 73.0762 
-79.2751 -113.989 68.5958 -79.4044 -113.606 67.5492 -79.0409 -114.96 67.6002 
-79.1094 -114.474 66.2604 -78.7927 -115.992 66.5146 -79.857 -113.312 66.5479 
-78.7872 -115.405 64.8059 -78.6617 -117.174 65.4177 -79.4444 -114.056 65.0311 
-80.5575 -112.927 65.7926 -78.748 -116.636 63.6678 -78.9732 -118.439 64.6303 
-79.1026 -114.895 63.5702 -80.2151 -113.592 64.3281 -81.4751 -112.316 65.2904 
-79.4008 -118.08 63.3905 -79.771 -119.465 64.4673 -79.4014 -116.155 62.9859 
-80.1946 -114.387 63.3324 -81.4251 -112.948 64.0691 -82.5244 -111.524 64.8769 
-80.4929 -119.063 63.9064 -80.7778 -119.996 64.8533 -80.4659 -117.439 63.421 
-80.9413 -115.475 63.3493 -81.7955 -113.737 63.4708 -82.6972 -112.135 63.8833 
-83.5951 -110.686 64.6221 -81.6187 -119.295 64.6906 -81.8798 -120.147 65.4143 
-81.6864 -118.021 64.182 -82.1042 -116.34 63.8152 -82.6816 -114.693 63.4248 
-83.2504 -113.006 63.2726 -83.9142 -111.299 63.7124 -84.7635 -109.941 64.5707 
-82.782 -119.247 65.325 -83.0512 -120.176 65.8772 -82.8355 -118.121 64.7499 
-83.2008 -116.779 64.0886 -83.6575 -115.481 63.3633 -84.0771 -114.035 62.8561 
-84.5465 -112.219 62.948 -85.1868 -110.531 63.6534 -85.9461 -109.263 64.5699 
-83.9756 -119.298 65.7123 -84.1595 -120.197 66.2063 -84.0315 -118.303 65.0719 
-84.3107 -117.214 64.2033 -84.6167 -116.15 63.2721 -84.9077 -114.928 62.6109 
-85.3066 -113.23 62.4757 -85.8154 -111.356 62.9391 -86.3644 -109.796 63.7681 
-86.9188 -108.509 64.5688 -85.154 -119.692 66.1429 -85.2293 -118.818 65.4818 
-86.3991 -119.207 65.9159 -86.6706 -118.372 65.0405 -87.7481 -118.544 65.6435 
-85.4998 -117.906 64.5405 -88.0209 -117.662 64.7334 -88.958 -117.558 65.5249 
-86.982 -117.563 64.0035 -85.7491 -116.955 63.4826 -89.1891 -116.601 64.702 
-90.047 -116.397 65.5397 -88.2515 -116.741 63.9301 -87.0816 -116.434 63.2499 
-85.8684 -115.726 62.7354 -90.3304 -115.312 64.8211 -91.1269 -115.084 65.6595 
-89.417 -115.43 64.1317 -88.3029 -115.153 63.6021 -87.1301 -114.592 62.9896 
-86.1339 -113.961 62.4904 -91.4574 -113.696 65.1285 -92.1283 -113.517 65.9027 
-90.631 -113.832 64.4278 -89.5643 -113.551 64.0048 -88.46 -112.981 63.599 
-87.5004 -112.472 63.0662 -86.632 -111.962 62.757 -92.5535 -111.95 65.4538 
-93.1037 -111.981 66.0759 -91.8926 -112.002 64.822 -90.9243 -111.844 64.3909 
-89.8473 -111.423 64.0875 -88.9175 -111.005 63.7657 -88.0134 -110.615 63.4879 
-87.1093 -110.177 63.4508 -93.7045 -110.556 65.5084 -94.1869 -110.799 66.0684 
-93.2007 -110.358 64.983 -92.3754 -110.095 64.6379 -91.2705 -109.754 64.3853 
-90.2889 -109.477 64.171 -89.3747 -109.214 64.079 -88.3582 -108.874 64.0747 
-87.4924 -108.61 64.2015 -94.8221 -109.526 65.4312 -95.2625 -109.881 66.0316 
-94.4287 -109.148 64.8784 -93.795 -108.673 64.5465 -92.719 -108.152 64.3535 
-91.5919 -107.796 64.1671 -90.6633 -107.589 64.1413 -89.6434 -107.336 64.2962 
-88.5973 -107.127 64.4644 -87.8715 -107.129 64.7124 -88.1444 -105.739 65.2001 
-88.6992 -105.489 64.7359 -88.9116 -104.067 65.1212 -89.6515 -105.446 64.4034 
-89.6979 -103.826 64.6114 -89.7959 -102.498 65.0823 -90.8163 -105.667 64.0732 
-90.8441 -103.867 64.2025 -90.8097 -102.322 64.6202 -90.7734 -101.017 65.1861 
-91.8354 -105.941 63.8456 -91.9855 -104.137 63.8198 -91.9922 -102.356 64.2516 
-91.8824 -100.758 64.7846 -91.7237 -99.5784 65.3439 -92.9604 -106.291 63.9217 
-93.0903 -104.466 63.6377 -93.1364 -102.526 63.8696 -93.0358 -100.587 64.368 
-92.8227 -99.2051 64.863 -92.525 -98.3127 65.5712 -94.2442 -106.901 64.1469 
-94.4293 -104.979 63.7875 -94.4641 -102.872 63.6672 -94.3317 -100.639 63.861 
-94.0214 -98.9402 64.2904 -93.6452 -97.9805 65.0168 -93.2045 -97.1485 65.9545 
-95.104 -107.598 64.4625 -95.5123 -105.709 64.1687 -95.729 -103.539 63.8961 
-95.7548 -101.163 63.6815 -95.4429 -99.0972 63.8267 -94.9306 -97.8296 64.5057 
-94.4123 -96.9512 65.4896 -93.8679 -96.021 66.384 -95.5121 -108.161 65.0134 
-95.9945 -106.414 64.7511 -96.3569 -104.374 64.4996 -96.6816 -102.128 64.1188 
-96.6997 -99.8911 63.952 -96.2721 -98.1687 64.3832 -95.6806 -97.001 65.2463 
-95.112 -96.0188 66.1226 -94.5216 -95.1625 66.8296 -95.894 -108.636 65.7012 
-96.3121 -107.022 65.4638 -96.6092 -105.156 65.2491 -96.9846 -103.168 64.9059 
-97.2995 -101.051 64.6398 -97.2129 -99.0664 64.8344 -96.7527 -97.5168 65.447 
-96.21 -96.3117 66.1595 -95.6837 -95.3597 66.8199 -95.1025 -94.6967 67.4603 
-88.1857 -104.794 65.7908 -88.9254 -103.076 65.7329 -88.0556 -103.694 66.4148 
-89.747 -101.474 65.7641 -88.8112 -102.018 66.4395 -87.7422 -102.606 66.9635 
-90.6454 -99.9774 65.925 -89.6167 -100.449 66.6166 -88.5469 -101.043 67.1887 
-87.427 -101.713 67.6834 -91.4819 -98.6093 66.1996 -90.4282 -98.9921 66.933 
-89.3523 -99.5218 67.585 -88.2523 -100.23 68.1483 -87.2504 -100.96 68.782 
-92.1531 -97.2859 66.5711 -91.1213 -97.5867 67.2796 -90.076 -98.0485 67.9651 
-88.9736 -98.6701 68.5813 -88.0004 -99.4841 69.2758 -87.148 -100.267 69.9543 
-92.7584 -95.9587 66.8961 -91.6924 -96.1475 67.5255 -90.6744 -96.5937 68.2043 
-89.5564 -97.1168 68.8386 -88.5011 -97.826 69.5379 -87.716 -98.7822 70.3197 
-86.9314 -99.6193 70.938 -93.4 -94.9234 67.186 -92.2708 -94.9162 67.7089 
-91.2247 -95.2555 68.3899 -90.0949 -95.7211 69.0784 -88.9104 -96.2323 69.7344 
-88.017 -97.0982 70.4992 -87.3418 -98.1607 71.2645 -86.5565 -98.9867 71.8262 
-94.0411 -94.3755 67.7042 -92.8909 -94.1638 68.1193 -91.8101 -94.2534 68.7547 
-90.6799 -94.6099 69.4858 -89.4173 -94.9976 70.1227 -88.3485 -95.5967 70.7557 
-87.6189 -96.596 71.5066 -86.9252 -97.615 72.1944 -86.149 -98.3983 72.6854 
-94.9926 -94.2573 68.5515 -93.8129 -93.8774 68.8767 -94.7358 -93.8737 70.0527 
-93.4927 -93.3599 70.4844 -94.3242 -93.5049 71.6928 -92.6276 -93.6024 69.4036 
-93.1509 -93.0005 72.1888 -93.8963 -93.3722 73.3515 -92.3363 -93.1186 71.0549 
-91.4685 -93.7205 70.1078 -92.8504 -93.1588 73.9505 -93.5788 -93.5058 75.2206 
-92.0189 -93.0789 72.739 -91.0319 -93.4268 71.6572 -90.1101 -94.0961 70.7668 
-92.4565 -93.5368 75.8943 -93.2537 -93.731 77.0752 -91.5446 -93.4516 74.5751 
-90.4578 -93.5249 73.2877 -89.4703 -93.8701 72.1719 -88.7869 -94.546 71.3157 
-91.8532 -93.861 77.6221 -92.7734 -94.1957 78.4726 -90.8174 -93.6872 76.5197 
-89.7113 -93.6346 75.214 -88.7852 -93.8349 73.8516 -88.2282 -94.3971 72.7224 
-87.873 -95.3452 71.9721 -91.2127 -94.4592 78.8595 -92.1934 -94.9794 79.4954 
-90.0947 -94.0311 78.0549 -89.0148 -93.7758 77.0631 -88.1472 -93.8859 75.7826 
-87.6405 -94.4173 74.4107 -87.3586 -95.2817 73.3652 -87.1162 -96.3973 72.695 
-90.6889 -95.3268 79.8494 -91.6069 -95.827 80.3918 -89.6183 -94.8409 79.1552 
-88.6034 -94.4486 78.3882 -87.7528 -94.3782 77.4195 -87.1098 -94.714 76.1126 
-86.7047 -95.3578 74.8188 -86.4619 -96.2519 73.8976 -86.2913 -97.3194 73.2474 
-90.2456 -96.1499 80.7594 -91.0524 -96.5817 81.1903 -89.2985 -95.7633 80.1368 
-88.3491 -95.4165 79.4158 -87.5088 -95.2438 78.6283 -86.7527 -95.3401 77.5573 
-86.1277 -95.6753 76.2323 -85.7702 -96.2758 75.0779 -85.6386 -97.1485 74.2641 
-85.5653 -98.149 73.6342 -95.9753 -94.7809 67.9706 -95.9115 -94.3729 69.3587 
-96.6542 -95.0374 68.7982 -96.5769 -94.6123 70.3941 -97.076 -95.6327 69.904 
-95.6445 -94.0943 71.0091 -96.8874 -95.2646 71.5616 -97.3716 -96.6694 71.1278 
-96.2746 -94.4955 72.0497 -95.1691 -93.979 72.6565 -97.0705 -96.4706 72.7265 
-97.6021 -97.9654 72.2657 -96.5232 -95.2958 73.1634 -95.8392 -94.6188 73.7412 
-94.7031 -93.9711 74.4806 -97.3128 -97.9025 73.7894 -97.6292 -99.3113 73.2925 
-96.698 -96.5135 74.2764 -96.2347 -95.4158 74.9314 -95.4902 -94.6136 75.7447 
-94.3768 -93.9621 76.5015 -97.447 -99.2864 74.7772 -97.4987 -100.727 74.281 
-96.9772 -97.8983 75.2872 -96.514 -96.4952 76.0179 -96.0347 -95.4286 76.8892 
-95.1314 -94.6745 77.6242 -93.9992 -94.2373 78.1351 -97.3738 -100.706 75.6455 
-97.4141 -102.194 75.1342 -97.0991 -99.3386 76.1629 -96.7082 -97.9079 76.9013 
-96.2963 -96.6876 77.7477 -95.5533 -95.864 78.4165 -94.5307 -95.2779 78.8876 
-93.4324 -94.9801 79.249 -97.2208 -102.19 76.292 -97.367 -103.57 75.7561 
-96.9652 -100.857 76.8521 -96.6756 -99.5049 77.6237 -96.368 -98.2741 78.446 
-95.7181 -97.3813 79.0292 -94.7435 -96.6968 79.4491 -93.7772 -96.1504 79.8528 
-92.7661 -95.8682 80.1866 -97.0759 -103.621 76.7933 -97.2564 -104.797 76.2408 
-96.7782 -102.387 77.3897 -96.5008 -101.111 78.202 -96.3086 -99.8862 79.0602 
[...]
CELL_DATA 2000
SCALARS Distance double
LOOKUP_TABLE default
153.43 153.035 153.191 153.16 152.753 152.872 152.809 152.941 152.781 
152.457 152.564 152.427 152.553 152.31 152.405 152.045 152.173 152.234 
152.048 152.135 151.904 151.953 151.624 151.62 151.312 151.978 151.981 
151.805 151.811 151.632 151.639 151.425 151.36 151.133 151.089 150.985 
151.906 151.85 151.669 151.62 151.408 151.414 151.188 151.191 150.937 
150.944 150.755 150.84 150.735 151.982 151.856 151.615 151.484 151.145 
151.118 150.771 150.834 150.475 150.575 150.252 150.425 150.188 150.413 
150.203 152.061 151.945 151.637 151.433 150.967 150.811 150.354 150.341 
149.962 150.033 149.722 149.841 149.608 149.781 149.586 149.783 149.575 
151.927 151.905 151.56 151.408 150.901 150.665 150.15 149.996 149.635 
149.614 149.41 149.447 149.327 149.369 149.263 149.306 149.172 149.244 
149.083 153.598 153.692 153.417 153.093 153.78 153.443 153.025 152.949 
152.772 153.926 153.448 152.867 152.781 152.583 152.65 152.524 154.45 
153.68 152.928 152.592 152.321 152.399 152.362 152.42 152.293 155.521 
154.525 153.797 152.97 152.609 152.296 152.288 152.277 152.256 152.214 
152.09 156.754 155.838 155.303 154.259 153.864 153.042 152.924 152.483 
152.449 152.233 152.15 152.05 151.993 157.772 157.056 156.624 155.787 
155.371 154.492 154.197 153.451 153.241 152.679 152.498 152.184 152.127 
152.036 152.075 158.621 157.992 157.559 156.907 156.472 155.774 155.378 
154.68 154.333 153.639 153.305 152.725 152.531 152.246 152.253 152.173 
152.196 159.41 158.813 158.407 157.783 157.393 156.735 156.362 155.704 
155.354 154.68 154.307 153.625 153.303 152.789 152.655 152.404 152.375 
152.247 152.134 159.693 159.873 159.44 158.751 160.073 159.667 158.999 
158.516 157.783 160.11 159.827 159.227 158.805 158.081 157.542 156.779 
159.95 159.774 159.231 158.967 158.297 157.833 157.01 156.496 155.729 
159.694 159.567 159.027 158.866 158.203 157.897 157.042 156.618 155.739 
155.364 154.616 159.32 159.259 158.699 158.594 157.917 157.687 156.846 
156.506 155.637 155.293 154.532 154.23 153.6 158.867 158.823 158.274 
158.21 157.569 157.381 156.614 156.309 155.547 155.215 154.55 154.212 
153.641 153.332 152.901 158.562 158.426 157.917 157.807 157.228 157.053 
156.346 156.094 155.385 155.143 154.53 154.27 153.702 153.412 152.937 
152.736 152.46 158.466 158.242 157.746 157.556 157.007 156.788 156.097 
155.829 155.077 154.885 154.229 154.117 153.509 153.355 152.771 152.643 
152.23 152.248 152.051 151.727 151.809 151.503 151.054 152.269 151.719 
151.193 150.834 150.415 152.966 152.309 151.734 151.167 150.716 150.322 
149.984 153.668 153.012 152.437 151.816 151.323 150.79 150.381 149.969 
149.645 154.546 153.793 153.256 152.556 152.047 151.435 150.928 150.408 
149.965 149.614 149.32 155.664 154.865 154.406 153.551 153.047 152.243 
151.672 150.969 150.417 149.932 149.579 149.317 149.106 156.679 156.028 
155.646 154.824 154.333 153.413 152.819 151.882 151.275 150.512 150.115 
149.666 149.489 149.191 149.015 157.487 156.97 156.644 155.973 155.506 
154.69 154.125 153.176 152.583 151.619 151.174 150.433 150.232 149.737 
149.621 149.196 149.035 158.259 157.776 157.509 156.896 156.473 155.755 
155.256 154.443 153.925 153.015 152.559 151.682 151.393 150.684 150.529 
149.96 149.842 149.341 149.257 151.643 150.945 151.31 151.25 150.253 
150.563 150.498 150.82 150.624 149.746 149.922 149.816 150.082 149.925 
150.144 149.907 149.387 149.473 149.324 149.491 149.367 149.535 149.381 
149.533 149.415 149.109 149.145 148.987 149.08 148.966 149.086 148.997 
149.123 149.092 149.232 149.247 148.875 148.875 148.682 148.758 148.615 
148.73 148.617 148.764 148.747 148.948 149.018 149.178 149.22 148.664 
148.609 148.315 148.388 148.183 148.333 148.152 148.321 148.2 148.479 
148.525 148.864 148.945 149.142 149.143 148.601 148.412 148.043 148.002 
147.762 147.87 147.69 147.823 147.626 147.835 147.784 148.196 148.313 
148.724 148.782 149.005 148.99 148.836 148.485 148.127 147.874 147.641 
147.57 147.451 147.464 147.312 147.341 147.228 147.461 147.565 148.005 
148.174 148.541 148.59 148.817 148.838 149.004 149.175 148.775 148.25 
149.441 148.973 148.376 148.053 147.697 149.81 149.267 148.673 148.251 
147.848 147.618 147.443 150.482 149.797 149.251 148.67 148.238 147.839 
147.543 147.377 147.233 151.355 150.637 150.105 149.403 148.883 148.299 
147.855 147.498 147.226 147.127 147.092 152.112 151.479 150.885 150.228 
149.582 148.939 148.345 147.845 147.491 147.228 147.191 147.154 147.394 
152.772 152.155 151.515 150.879 150.201 149.561 148.949 148.375 147.996 
147.611 147.556 147.399 147.604 147.636 147.977 153.449 152.826 152.23 
151.537 150.94 150.241 149.745 149.092 148.754 148.231 148.098 147.808 
147.885 147.838 148.05 148.157 148.404 154.089 153.526 153.017 152.345 
151.833 151.121 150.704 150.027 149.712 149.092 148.849 148.379 148.279 
148.075 148.163 148.186 148.382 148.494 148.701 149.536 150.478 149.926 
149.793 151.529 150.938 150.868 150.275 150.125 152.756 152.048 151.976 
151.387 151.315 150.647 150.505 154.185 153.364 153.219 152.539 152.53 
151.896 151.849 151.127 151.116 155.641 154.843 154.668 153.865 153.824 
153.17 153.23 152.544 152.557 151.852 151.934 156.986 156.278 156.162 
155.35 155.249 154.526 154.589 153.948 154.011 153.307 153.323 152.656 
152.709 158.26 157.596 157.52 156.794 156.696 155.962 155.972 155.323 
155.391 154.721 154.717 154.022 154.014 153.369 153.389 159.455 158.83 
158.728 158.082 158.005 157.345 157.347 156.707 156.748 156.082 156.053 
155.358 155.301 154.652 154.64 154.023 154.03 160.51 159.953 159.841 
159.242 159.175 158.585 158.609 158.03 158.061 157.418 157.345 156.645 
156.531 155.882 155.83 155.237 155.22 154.63 154.613 158.675 159.088 
158.575 157.894 159.398 158.904 158.111 157.614 156.807 159.635 159.138 
158.316 157.783 156.904 156.425 155.592 160.038 159.443 158.648 158.018 
157.119 156.538 155.645 155.178 154.324 160.62 159.991 159.195 158.448 
157.471 156.772 155.788 155.243 154.35 153.899 153.044 160.968 160.514 
159.658 158.968 157.859 157.11 156.01 155.388 154.454 153.962 153.14 
152.673 151.898 160.92 160.636 159.748 159.224 158.089 157.414 156.313 
155.658 154.742 154.16 153.362 152.835 152.086 151.617 150.956 160.769 
160.492 159.679 159.219 158.224 157.619 156.669 156.037 155.222 154.58 
153.804 153.167 152.409 151.856 151.185 150.754 150.209 160.717 160.4 
159.695 159.251 158.44 157.875 157.084 156.484 155.75 155.119 154.352 
153.678 152.902 152.27 151.604 151.073 150.537 150.104 149.654 159.132 
159.918 159.58 159.635 160.679 160.349 160.474 160.098 160.045 161.53 
161.1 161.213 160.917 160.987 160.491 160.339 162.505 161.948 161.944 
161.639 161.79 161.435 161.408 160.81 160.7 163.556 162.901 162.724 
162.324 162.431 162.203 162.306 161.868 161.797 161.229 161.197 164.726 
163.99 163.715 163.104 163.067 162.794 162.967 162.707 162.716 162.245 
162.132 161.651 161.528 165.904 165.226 164.965 164.19 163.992 163.479 
163.577 163.337 163.456 163.095 162.964 162.471 162.246 161.784 161.507 
166.763 166.319 166.109 165.433 165.117 164.451 164.311 163.95 164.03 
163.776 163.723 163.272 163.008 162.475 162.184 161.678 161.368 167.192 
166.976 166.811 166.387 166.059 165.464 165.125 164.638 164.512 164.266 
164.243 163.955 163.778 163.282 163 162.435 162.164 161.603 161.322 
167.28 167.246 167.195 166.941 167.144 167.134 166.889 166.747 166.288 
166.916 167.002 166.808 166.704 166.261 165.987 165.418 166.471 166.657 
166.515 166.58 166.209 165.994 165.455 165.153 164.734 166.005 166.129 
165.96 166.16 165.914 165.898 165.454 165.226 164.82 164.63 164.386 
165.686 165.722 165.517 165.63 165.454 165.538 165.236 165.168 164.814 
164.694 164.413 164.294 163.974 165.269 165.402 165.235 165.313 165.136 
165.163 164.895 164.884 164.583 164.581 164.31 164.261 163.913 163.745 
163.266 164.677 164.898 164.781 164.984 164.829 164.903 164.605 164.57 
164.226 164.25 163.981 164.042 163.722 163.642 163.158 162.951 162.414 
164.205 164.334 164.215 164.44 164.322 164.507 164.255 164.279 163.914 
163.896 163.584 163.645 163.345 163.36 162.907 162.784 162.218 162.054 
161.523 164.008 163.653 163.846 163.923 163.055 163.391 163.428 163.768 
163.941 162.087 162.614 162.656 163.134 163.263 163.73 163.859 160.978 
161.552 161.611 162.189 162.325 162.921 163.07 163.541 163.572 159.961 
160.512 160.559 161.086 161.186 161.848 162.058 162.684 162.809 163.226 
163.257 158.836 159.498 159.53 160.039 160.019 160.639 160.817 161.574 
161.788 162.397 162.465 162.907 162.934 157.479 158.247 158.291 158.912 
158.831 159.429 159.506 160.274 160.495 161.252 161.332 161.936 161.889 
162.446 162.403 156.172 156.865 156.939 157.598 157.576 158.189 158.243 
158.962 159.153 159.918 160.007 160.663 160.582 161.205 161.12 161.761 
161.699 155.111 155.668 155.76 156.338 156.39 156.971 157.059 157.719 
157.89 158.606 158.703 159.339 159.275 159.862 159.785 160.421 160.41 
161.047 161.035 164.071 164.093 163.985 163.73 163.806 163.858 163.529 
163.509 163.095 163.078 163.279 162.84 163.039 162.555 162.632 162.065 
162.119 162.345 161.794 162.088 161.575 161.843 161.277 161.421 160.871 
161.05 161.303 160.7 160.964 160.424 160.74 160.203 160.472 159.93 
160.184 159.741 159.915 160.202 159.621 159.866 159.286 159.578 159.031 
159.34 158.784 159.106 158.608 158.99 158.548 158.868 159.125 158.602 
158.811 158.204 158.432 157.842 158.148 157.608 157.936 157.419 157.77 
157.29 157.686 157.207 157.943 158.164 157.667 157.849 157.244 157.389 
156.758 156.981 156.462 156.782 156.34 156.649 156.196 156.486 156.04 
156.365 155.944 157.079 157.265 156.747 156.928 156.343 156.476 155.864 
156 155.478 155.715 155.31 155.613 155.221 155.495 155.077 155.332 
154.947 155.235 154.906 164.269 164.592 164.395 164.305 164.879 164.688 
164.567 164.38 164.117 165.094 164.911 164.715 164.563 164.301 164.042 
163.532 165.212 165.072 164.772 164.599 164.241 164.096 163.638 163.333 
162.654 165.064 165.082 164.751 164.581 164.053 163.886 163.365 163.262 
162.661 162.358 161.571 164.623 164.757 164.476 164.453 163.909 163.679 
163.047 162.901 162.338 162.202 161.506 161.178 160.371 164.218 164.258 
163.966 164.051 163.622 163.503 162.889 162.664 162.076 161.897 161.295 
161.04 160.312 159.97 159.258 164.003 163.917 163.53 163.54 163.128 
163.126 162.584 162.466 161.842 161.677 161.054 160.85 160.185 159.902 
159.224 158.922 158.312 163.769 163.689 163.215 163.142 162.653 162.629 
162.108 162.065 161.444 161.339 160.66 160.539 159.884 159.733 159.111 
158.886 158.298 158.027 157.471 163.419 162.588 162.96 162.835 161.712 
162.073 161.939 162.33 162.22 160.777 161.184 161.043 161.437 161.334 
161.727 161.638 159.51 160.104 159.974 160.507 160.398 160.831 160.663 
161.078 160.927 158.094 158.696 158.551 159.235 159.128 159.758 159.545 
160.016 159.74 160.235 160.074 157.047 157.428 157.23 157.751 157.634 
158.327 158.242 158.83 158.628 159.066 158.89 159.402 159.332 156.199 
156.544 156.3 156.605 156.422 156.929 156.986 157.606 157.686 158.12 
158.067 158.4 158.34 158.761 158.69 155.165 155.628 155.414 155.741 
155.531 155.905 155.948 156.521 156.737 157.282 157.342 157.693 157.574 
157.888 157.737 158.118 157.951 154.149 154.58 154.481 154.852 154.743 
155.094 155.113 155.592 155.735 156.307 156.334 156.824 156.632 157.03 
156.763 157.156 156.916 157.331 157.122 153.717 153.369 153.687 154.02 
152.976 153.344 153.641 153.999 154.351 152.236 152.791 153.156 153.638 
154.027 154.383 154.794 151.444 151.943 152.358 153.017 153.497 154.026 
154.431 154.843 155.305 151.065 151.301 151.615 152.174 152.682 153.348 
153.755 154.309 154.646 155.23 155.687 150.838 151.023 151.133 151.489 
151.811 152.447 152.865 153.508 153.825 154.41 154.767 155.461 155.915 
150.349 150.662 150.647 150.933 150.956 151.479 151.763 152.513 152.932 
153.6 153.985 154.567 154.995 155.649 156.098 149.702 150.055 150.059 
150.338 150.235 150.568 150.632 151.304 151.722 152.599 153.112 153.83 
154.247 154.83 155.243 155.857 156.282 149.136 149.424 149.466 149.749 
149.716 149.924 149.911 150.287 150.585 151.348 151.927 152.815 153.33 
154.044 154.428 155.045 155.448 156.071 156.497 156.459 155.357 155.941 
156.043 154.267 154.792 154.819 155.485 155.603 153.114 153.667 153.644 
154.271 154.392 155.058 155.186 151.724 152.395 152.413 153.109 153.271 
153.927 154.099 154.692 154.847 150.436 150.994 151.07 151.818 152.027 
152.785 152.957 153.615 153.754 154.393 154.618 149.739 149.965 149.972 
150.519 150.679 151.44 151.598 152.357 152.467 153.206 153.413 154.185 
154.485 149.446 149.482 149.303 149.568 149.556 150.121 150.263 150.979 
151.163 151.892 152.142 152.924 153.273 154.061 154.38 149.157 149.17 
148.865 148.963 148.793 149.122 149.212 149.789 150.065 150.723 151.045 
151.736 152.111 152.866 153.252 153.978 154.291 148.879 148.858 148.569 
148.562 148.353 148.486 148.499 148.896 149.146 149.738 150.061 150.711 
151.039 151.749 152.125 152.874 153.254 153.944 154.271 159.967 159.2 
159.949 160.719 158.307 159.106 159.87 160.735 161.527 157.313 158.15 
158.845 159.766 160.568 161.464 162.122 156.286 157.161 157.864 158.71 
159.455 160.391 161.128 161.963 162.535 155.399 156.238 157.055 157.806 
158.513 159.315 160.067 160.943 161.664 162.421 163.004 154.811 155.515 
156.36 157.061 157.762 158.463 159.205 160.007 160.816 161.596 162.272 
162.922 163.389 154.496 155.05 155.816 156.422 157.074 157.713 158.418 
159.209 160.046 160.851 161.566 162.206 162.667 163.201 163.501 154.288 
154.755 155.466 155.973 156.58 157.076 157.67 158.373 159.142 160.024 
160.743 161.479 161.92 162.468 162.758 163.258 163.524 154.084 154.498 
155.149 155.649 156.236 156.661 157.127 157.641 158.226 159.024 159.706 
160.542 161.02 161.661 161.948 162.497 162.777 163.305 163.575 160.56 
161.372 161.194 161.667 162.213 162.074 162.555 162.326 162.764 162.777 
162.805 163.323 163.213 163.674 163.454 163.902 163.161 163.242 163.8 
163.852 164.417 164.349 164.843 164.615 165.027 163.632 163.674 164.276 
164.32 164.957 165.003 165.547 165.455 165.798 165.598 165.86 163.969 
164.129 164.734 164.839 165.436 165.51 165.979 165.971 166.187 166.106 
166.219 166.174 166.342 164.01 164.289 164.838 165.124 165.647 165.854 
166.201 166.252 166.344 166.288 166.3 166.312 166.455 166.53 166.733 
164.009 164.251 164.763 165.071 165.586 165.876 166.226 166.343 166.431 
166.381 166.394 166.369 166.535 166.609 166.877 166.926 167.115 164.045 
164.259 164.739 165 165.53 165.807 166.243 166.372 166.541 166.483 
166.52 166.481 166.646 166.725 166.998 167.076 167.28 167.269 167.336 
160.367 161.417 160.751 160.51 162.504 161.817 161.571 160.931 160.7 
163.631 162.924 162.693 162.028 161.769 161.081 160.738 164.725 164.043 
163.757 163.114 162.823 162.144 161.718 161 160.548 165.63 165.067 
164.691 164.064 163.657 163.058 162.587 161.926 161.389 160.729 160.258 
166.263 165.865 165.511 164.901 164.386 163.769 163.258 162.674 162.154 
161.53 160.994 160.382 159.879 166.709 166.427 166.157 165.639 165.126 
164.483 163.941 163.333 162.834 162.239 161.7 161.079 160.508 159.92 
159.404 167.048 166.835 166.595 166.199 165.713 165.158 164.576 164.002 
163.439 162.878 162.29 161.707 161.104 160.526 159.998 159.464 159.063 
167.231 167.097 166.845 166.556 166.059 165.612 164.957 164.476 163.811 
163.347 162.696 162.2 161.591 161.078 160.596 160.095 159.747 159.248 
158.972 164.349 164.792 164.593 164.71 165.429 165.173 165.259 164.995 
165.068 165.949 165.824 165.969 165.66 165.659 165.332 165.326 166.272 
166.252 166.47 166.312 166.289 165.946 165.802 165.509 165.417 166.598 
166.523 166.665 166.632 166.629 166.444 166.259 165.959 165.732 165.482 
165.259 166.96 166.827 166.818 166.731 166.684 166.616 166.542 166.37 
166.215 165.877 165.603 165.235 164.906 167.228 167.13 167.089 166.909 
166.788 166.651 166.623 166.583 166.629 166.434 166.284 165.792 165.447 
164.929 164.605 167.363 167.336 167.332 167.183 167.033 166.819 166.693 
166.635 166.692 166.727 166.711 166.464 166.144 165.619 165.211 164.715 
164.414 167.374 167.407 167.379 167.331 167.153 167.005 166.77 166.673 
166.588 166.665 166.655 166.667 166.425 166.148 165.69 165.278 164.857 
164.489 164.157 
POINT_DATA 1002
SCALARS Distance double
LOOKUP_TABLE default
153.362 153.73 153.202 153.015 152.892 153.109 152.714 152.659 152.706 
152.535 152.326 152.392 152.248 151.983 151.625 151.989 152.144 151.837 
151.636 151.26 151.059 151.819 151.978 151.614 151.454 151.192 150.955 
150.947 151.762 151.986 151.435 151.183 150.935 150.691 150.625 150.64 
151.827 152.139 151.263 150.746 150.391 150.105 149.966 149.981 149.994 
151.876 152.175 151.215 150.431 149.892 149.609 149.461 149.403 149.379 
149.358 151.671 151.942 151.139 150.354 149.672 149.348 149.279 149.248 
149.143 148.999 148.896 153.866 153.189 154.026 153.12 154.199 152.771 
153.031 154.554 152.458 152.528 153.463 155.339 152.295 152.218 152.349 
154.775 156.453 153.155 152.384 152.272 152.157 156.287 157.525 154.849 
153.594 152.803 152.278 152.022 157.36 158.433 156.229 155.04 153.963 
152.963 152.26 152.106 158.186 159.249 157.136 156.058 155.043 153.997 
152.96 152.381 152.279 159.007 159.977 158.032 157.018 156.017 155.006 
153.924 153.032 152.559 152.292 160.097 159.218 160.308 159.481 160.436 
158.303 159.57 160.329 158.635 157.308 159.427 160.097 158.7 157.558 
156.168 159.182 159.809 158.475 157.439 156.133 154.921 158.791 159.365 
158.131 157.153 155.955 154.832 153.852 158.321 158.919 157.716 156.869 
155.828 154.867 153.961 153.12 158.043 158.727 157.393 156.583 155.595 
154.741 153.99 153.164 152.535 157.961 158.716 157.238 156.397 155.317 
154.327 153.627 152.919 152.237 151.924 151.32 151.271 150.579 151.657 
150.658 150.013 152.358 151.194 150.301 149.644 153.057 151.902 150.881 
149.969 149.329 154.002 152.717 151.53 150.383 149.549 149.086 155.284 
153.94 152.492 151.003 149.872 149.322 148.916 156.409 155.252 153.814 
152.161 150.669 149.809 149.34 148.794 157.266 156.263 155.009 153.56 
152.033 150.825 150.067 149.46 148.855 158.104 157.162 155.999 154.764 
153.457 152.193 151.164 150.359 149.711 149.209 150.944 150.173 150.384 
149.587 149.696 149.701 149.194 149.196 149.215 149.233 148.917 148.856 
148.854 148.929 149.122 148.628 148.509 148.487 148.518 148.801 149.14 
148.289 148.035 148.01 147.966 148.124 148.656 149.045 148.158 147.686 
147.569 147.498 147.421 147.813 148.475 148.832 148.447 147.781 147.459 
147.331 147.112 147.157 147.732 148.321 148.623 149.358 148.526 149.647 
148.75 149.931 147.857 149.125 150.379 148.151 147.544 149.892 151.179 
148.74 147.829 147.263 150.847 152.044 149.583 148.334 147.409 147.013 
151.552 152.746 150.263 148.909 147.802 147.269 147.298 152.171 153.403 
150.828 149.52 148.424 147.77 147.636 147.883 152.908 154.041 151.617 
150.38 149.338 148.506 148.026 148 148.273 153.632 154.597 152.515 
151.371 150.366 149.436 148.61 148.206 148.289 148.589 150.045 150.38 
151.011 151.427 152.153 150.803 152.57 153.549 151.936 151.212 153.979 
155.032 153.114 152.544 151.796 155.524 156.373 154.507 153.855 153.297 
152.585 156.941 157.65 156.025 155.221 154.696 154.045 153.343 158.203 
158.932 157.421 156.646 156.055 155.427 154.683 154.02 159.36 160.078 
158.627 157.974 157.425 156.768 155.968 155.255 154.648 160.426 161.031 
159.743 159.161 158.697 158.066 157.204 156.426 155.811 155.204 159.208 
158.417 159.643 158.654 159.901 157.265 158.865 160.144 157.436 156.016 
159.326 160.651 157.76 156.167 154.758 160 161.212 158.265 156.396 
154.811 153.489 160.333 161.362 158.644 156.675 154.966 153.594 152.343 
160.217 161.184 158.7 156.93 155.341 153.926 152.573 151.348 160.079 
161.048 158.747 157.236 155.85 154.481 153.009 151.652 150.56 159.477 
160.058 160.223 160.771 161.049 160.596 161.485 162.061 161.389 160.979 
162.305 163.156 162.047 161.941 161.312 163.25 164.269 162.625 162.627 
162.357 161.731 164.458 165.455 163.444 163.138 163.144 162.656 162.014 
165.769 166.492 164.675 163.863 163.737 163.494 162.749 161.98 166.701 
167.1 165.861 164.822 164.256 164.103 163.579 162.702 161.875 167.132 