# vtk DataFile Version 4.0
vtk output
ASCII
DATASET POLYDATA
POINTS 1002 float
-78.2646 -113.815 74.2396 -77.5396 -114.703 73.6506 -77.8412 -114.339 72.8222 
-78.6107 -113.301 73.5422 -78.2171 -113.902 72.1096 -78.9582 -112.58 74.9501 
-79.1279 -112.785 72.9522 -78.8453 -113.442 71.6105 -79.4161 -112.001 74.3645 
-79.6646 -111.177 75.6437 -79.8965 -112.266 72.5161 -79.7882 -112.953 71.3346 
-80.0939 -111.491 73.8239 -80.3343 -110.705 75.0943 -80.5189 -109.884 76.2357 
-80.8417 -111.661 72.1802 -80.8801 -112.362 71.1617 -80.9198 -110.905 73.3458 
-81.1048 -110.161 74.5447 -81.2704 -109.357 75.7058 -81.368 -108.474 76.7904 
-81.8379 -110.957 71.8655 -81.9736 -111.654 70.9653 -81.8074 -110.2 72.9124 
-81.9052 -109.407 74.0369 -82.0045 -108.575 75.1754 -82.0396 -107.664 76.2803 
-82.0661 -106.82 77.3192 -82.8907 -110.264 71.6273 -83.0594 -110.969 70.8178 
-82.7791 -109.515 72.5696 -82.7988 -108.641 73.6111 -82.8474 -107.734 74.7016 
-82.8209 -106.813 75.7527 -82.799 -105.998 76.7671 -82.787 -105.376 77.7731 
-84.0517 -109.707 71.5646 -84.1629 -110.418 70.8294 -83.9096 -108.946 72.4233 
-83.8472 -108.008 73.3222 -83.8521 -107.058 74.2974 -83.7917 -106.16 75.288 
-83.7056 -105.345 76.2156 -83.662 -104.731 77.1792 -83.5861 -104.247 78.176 
-85.2523 -109.244 71.6072 -85.2737 -109.922 70.9127 -85.139 -108.479 72.4293 
-85.0057 -107.472 73.1893 -84.9313 -106.461 73.952 -84.8324 -105.614 74.8546 
-84.6706 -104.805 75.7692 -84.546 -104.105 76.6525 -84.4437 -103.579 77.5974 
-84.2924 -103.122 78.525 -86.3473 -108.742 71.621 -86.3222 -109.382 70.9512 
-86.2762 -108.008 72.4143 -86.1156 -106.987 73.1008 -85.9652 -105.89 73.6802 
-85.8289 -105.022 74.4219 -85.6215 -104.247 75.34 -85.3973 -103.475 76.2349 
-85.2271 -102.859 77.1027 -85.0495 -102.382 77.9789 -84.8285 -101.962 78.779 
-77.0645 -115.292 72.5662 -77.281 -114.912 71.617 -76.6747 -115.973 71.3937 
-76.7378 -115.508 70.3135 -76.4127 -116.834 70.1103 -77.6562 -114.47 70.8544 
-76.5427 -116.35 68.8324 -76.4093 -117.937 68.8274 -77.2425 -115.065 69.5077 
-78.4907 -114.049 70.4233 -76.9415 -117.507 67.543 -76.7327 -119.095 68.0598 
-77.4158 -115.97 68.163 -78.4163 -114.741 69.3097 -79.7159 -113.632 70.338 
-77.6418 -118.621 67.2918 -77.3386 -120.03 68.1916 -78.0802 -117.107 67.4873 
-78.7936 -115.683 68.5449 -79.8658 -114.433 69.5523 -81.0207 -113.091 70.3081 
-78.4192 -119.435 68.0862 -78.278 -120.787 68.7789 -78.7439 -118.047 67.9325 
-79.2934 -116.631 68.4237 -80.188 -115.308 68.9967 -81.2748 -113.968 69.5176 
-82.2513 -112.421 70.1477 -79.4489 -120.074 68.9294 -79.4776 -121.47 69.2102 
-79.5447 -118.708 68.7535 -79.8589 -117.35 68.636 -80.5654 -115.998 68.483 
-81.5694 -114.752 68.6132 -82.5424 -113.353 69.2855 -83.3745 -111.768 70.1101 
-80.6174 -120.592 69.3351 -80.6282 -121.96 69.4703 -80.6785 -119.232 69.1659 
-80.8517 -117.967 68.6842 -81.2781 -116.613 67.9552 -82.0068 -115.294 67.6582 
-82.8479 -114.087 68.3374 -83.6553 -112.683 69.4463 -84.4648 -111.168 70.2827 
-81.628 -120.942 69.5728 -81.5704 -122.187 69.7719 -81.7948 -119.638 69.3097 
-82.0558 -118.509 68.6684 -82.3897 -117.338 67.7159 -82.8237 -115.938 67.1184 
-83.3795 -114.6 67.5716 -84.0401 -113.367 68.7823 -84.7932 -111.974 69.8213 
-85.5913 -110.55 70.4283 -82.4977 -121.568 69.9677 -82.6805 -120.284 69.6425 
-83.6315 -120.959 70.0947 -83.9088 -119.731 69.5617 -84.988 -120.423 70.0701 
-83.0281 -119.104 69.0156 -85.2684 -119.229 69.4795 -86.3778 -119.759 70.0563 
-84.3192 -118.683 68.7878 -83.467 -118.114 68.0654 -86.6521 -118.48 69.6184 
-87.6363 -118.786 70.2843 -85.6011 -118.114 68.9757 -84.7941 -117.656 68.1215 
-83.8838 -116.844 67.3137 -88.0421 -117.423 69.975 -88.826 -117.645 70.6882 
-86.959 -117.131 69.4046 -86.0508 -116.784 68.7639 -85.279 -116.107 67.9488 
-84.2988 -115.221 67.4249 -89.4185 -116.283 70.3829 -90.008 -116.509 71.0646 
-88.451 -115.957 69.8358 -87.4005 -115.558 69.3737 -86.6354 -114.997 68.8056 
-85.8191 -114.283 68.3848 -84.8294 -113.727 68.4167 -90.6623 -115.107 70.7841 
-91.1312 -115.365 71.4008 -89.9532 -114.817 70.2699 -88.9054 -114.384 69.9487 
-87.9823 -113.806 69.5458 -87.2951 -113.185 69.1431 -86.4515 -112.685 69.1549 
-85.5132 -112.334 69.4889 -91.7643 -113.904 71.1912 -92.1947 -114.256 71.7372 
-91.3166 -113.622 70.6621 -90.5363 -113.248 70.412 -89.506 -112.669 70.2638 
-88.6607 -112.035 69.9052 -87.9519 -111.525 69.6477 -87.1138 -111.152 69.7997 
-86.2651 -110.842 70.1334 -92.8328 -112.858 71.5517 -93.216 -113.316 72.0355 
-92.5235 -112.46 70.9827 -92.0789 -112.038 70.5921 -91.2531 -111.44 70.5168 
-90.2293 -110.76 70.4386 -89.3267 -110.234 70.1989 -88.5147 -109.885 70.1047 
-87.6989 -109.633 70.2936 -86.9515 -109.469 70.6123 -87.3206 -108.345 71.3593 
-88.007 -108.283 70.9797 -88.2303 -107.164 71.8113 -88.8124 -108.32 70.6631 
-89.0003 -107.039 71.4392 -89.1207 -105.825 72.1232 -89.7679 -108.455 70.4694 
-89.9735 -106.98 71.0407 -90.0497 -105.733 71.7702 -90.0678 -104.32 72.2838 
-90.8754 -108.756 70.4161 -91.2026 -107.025 70.6369 -91.2183 -105.692 71.3274 
-91.1379 -104.287 72.0138 -90.9735 -102.718 72.4628 -92.031 -109.396 70.4002 
-92.4902 -107.423 70.4228 -92.5271 -105.892 71.0101 -92.3976 -104.409 71.7762 
-92.1913 -102.723 72.2547 -91.8402 -101.248 72.6371 -92.9443 -110.247 70.4678 
-93.4932 -108.296 70.5276 -93.5921 -106.591 71.1386 -93.5839 -104.95 71.873 
-93.5642 -103.042 72.195 -93.2866 -101.301 72.4041 -92.7895 -100.156 72.8688 
-93.4531 -110.996 70.8417 -94.1408 -109.315 70.8928 -94.3152 -107.601 71.511 
-94.3798 -105.872 72.2787 -94.655 -103.824 72.4694 -94.7315 -101.753 72.4206 
-94.3387 -100.317 72.752 -93.7302 -99.5256 73.4249 -93.7488 -111.616 71.443 
-94.6021 -110.225 71.3977 -94.9766 -108.608 71.7942 -95.0196 -106.84 72.5268 
-95.2942 -104.838 72.8603 -95.6799 -102.644 72.7738 -95.6447 -100.857 72.96 
-95.1497 -99.8312 73.5538 -94.4914 -99.2688 74.274 -94.0337 -112.194 72.0074 
-94.9289 -111.009 71.9423 -95.55 -109.56 72.0906 -95.7183 -107.807 72.6159 
-95.8308 -105.876 73.1239 -96.1751 -103.791 73.2746 -96.4169 -101.807 73.4326 
-96.2417 -100.413 73.9099 -95.7183 -99.6636 74.5402 -95.056 -99.2046 75.1626 
-87.2983 -107.626 72.1222 -88.1485 -106.215 72.4547 -87.1581 -106.642 72.8267 
-89.0096 -104.57 72.5696 -87.959 -104.966 72.972 -86.9538 -105.426 73.3702 
-89.8867 -102.855 72.7169 -88.7822 -103.194 73.1073 -87.737 -103.748 73.5829 
-86.7781 -104.387 74.0124 -90.6703 -101.302 72.9744 -89.5705 -101.558 73.4203 
-88.5031 -102.095 73.9579 -87.5203 -102.816 74.4661 -86.5658 -103.559 74.9245 
-91.4855 -100.108 73.2505 -90.314 -100.244 73.7626 -89.2085 -100.611 74.3405 
-88.1789 -101.217 74.9069 -87.2226 -101.954 75.4383 -86.2764 -102.722 75.901 
-92.4316 -99.3154 73.7223 -91.1825 -99.2716 74.2079 -89.9581 -99.4163 74.7481 
-88.7747 -99.7809 75.257 -87.7766 -100.409 75.8034 -86.8895 -101.199 76.3755 
-86.0162 -102.025 76.8158 -93.3287 -98.8914 74.4736 -92.1311 -98.5989 74.8909 
-90.8568 -98.4941 75.3909 -89.4713 -98.5997 75.801 -88.2678 -99.0377 76.2172 
-87.397 -99.8312 76.773 -86.5965 -100.698 77.3182 -85.7776 -101.526 77.7017 
-94.0315 -98.7435 75.3178 -92.961 -98.2392 75.6612 -91.7853 -97.8735 76.1205 
-90.3539 -97.7323 76.4997 -88.8875 -97.8928 76.8162 -87.8183 -98.5256 77.2645 
-87.0474 -99.4393 77.7954 -86.255 -100.283 78.219 -85.4811 -101.089 78.5211 
-94.9124 -98.8962 76.1494 -93.8913 -98.2875 76.3985 -94.7239 -98.5189 77.354 
-93.754 -97.7887 77.6309 -94.5174 -98.1641 78.7611 -92.837 -97.6552 76.7742 
-93.5787 -97.4266 79.0078 -94.236 -98.0045 80.2065 -92.6645 -97.1782 77.9061 
-91.5105 -97.2587 77.1416 -93.1837 -97.3988 80.4931 -93.784 -98.1309 81.5499 
-92.3206 -97.0471 79.2345 -91.1039 -96.9497 78.1777 -89.8356 -97.1594 77.4566 
-92.5273 -97.7434 81.8695 -93.1731 -98.5425 82.6885 -91.6841 -97.314 80.8058 
-90.5296 -97.1196 79.61 -89.2706 -97.0171 78.6357 -88.3345 -97.4736 77.9035 
-91.7911 -98.3807 82.9554 -92.4581 -99.1854 83.6415 -90.9213 -97.824 82.166 
-89.8277 -97.5444 81.2294 -88.661 -97.2808 80.2176 -87.7729 -97.3963 79.2734 
-87.3136 -98.265 78.4576 -91.0859 -99.1288 83.9732 -91.7256 -99.8558 84.5853 
-90.2436 -98.4937 83.2247 -89.1758 -98.0415 82.4454 -88.0345 -97.6676 81.6607 
-87.1183 -97.5559 80.7335 -86.6408 -98.1165 79.7265 -86.446 -99.1844 78.8704 
-90.4618 -99.7519 85.0551 -91.1117 -100.386 85.5296 -89.667 -99.2022 84.3391 
-88.655 -98.7118 83.4638 -87.5242 -98.2233 82.6869 -86.5193 -97.9459 81.9109 
-85.9097 -98.2204 80.911 -85.6952 -99.0272 79.8981 -85.6135 -100.057 79.1256 
-89.9559 -100.254 85.9735 -90.6404 -100.871 86.3063 -89.1755 -99.8009 85.4225 
-88.2308 -99.4606 84.5748 -87.1724 -99.0383 83.6861 -86.1571 -98.6534 82.9152 
-85.4216 -98.7059 82.0126 -85.0921 -99.259 80.9384 -85.0073 -100.076 80.0185 
-84.9456 -101.008 79.3554 -95.9635 -99.4527 75.6889 -95.8349 -99.166 76.8063 
-96.8158 -99.77 76.2946 -96.7314 -99.4855 77.6299 -97.4173 -100.4 77.0444 
-95.5995 -98.8864 78.224 -97.3583 -100.161 78.6276 -97.6013 -101.552 78.0531 
-96.4707 -99.3445 79.2162 -95.2767 -98.7401 79.7528 -97.5387 -101.391 79.7213 
-97.5325 -103.068 79.1884 -97.0964 -100.126 80.2188 -96.0579 -99.4052 80.7005 
-94.8728 -98.7971 81.1615 -97.4291 -102.977 80.6579 -97.5094 -104.683 80.1169 
-97.2725 -101.386 81.1479 -96.6615 -100.242 81.6209 -95.5791 -99.5648 82.0828 
-94.3748 -99.0161 82.449 -97.2807 -104.678 81.3108 -97.4764 -106.284 80.7471 
-97.1243 -103.034 81.9202 -96.8707 -101.538 82.5277 -96.162 -100.434 83.0615 
-95.0159 -99.8089 83.4046 -93.7219 -99.4485 83.5417 -97.1053 -106.341 81.8326 
-97.247 -107.74 81.2245 -96.9254 -104.826 82.5504 -96.7656 -103.306 83.2656 
-96.3574 -101.87 83.8622 -95.4701 -100.813 84.2609 -94.2319 -100.313 84.4028 
-92.9201 -100.088 84.4429 -96.8284 -107.802 82.3194 -96.8639 -108.943 81.6285 
-96.7242 -106.493 83.0901 -96.5451 -105.123 83.7711 -96.1583 -103.71 84.2722 
-95.4769 -102.362 84.6995 -94.5313 -101.435 85.0387 -93.3776 -100.998 85.2066 
-92.1818 -100.711 85.3326 -96.4501 -108.992 82.7075 -96.4324 -109.918 81.9594 
-96.4222 -107.897 83.4907 -96.247 -106.695 84.1113 -95.7743 -105.439 84.4767 
[...]
CELL_DATA 2000
SCALARS Distance double
LOOKUP_TABLE default
155.651 155.152 155.472 155.568 154.785 155.011 155.107 155.344 155.348 
154.639 154.736 154.823 154.968 155.016 155.159 155.146 154.623 154.639 
154.654 154.741 154.768 154.897 154.898 155.004 154.935 154.59 154.58 
154.497 154.554 154.497 154.623 154.556 154.701 154.562 154.69 154.506 
154.572 154.514 154.395 154.388 154.285 154.336 154.226 154.32 154.155 
154.252 154.059 154.185 154.041 154.714 154.572 154.493 154.376 154.282 
154.198 154.091 154.068 153.941 153.935 153.787 153.814 153.726 153.827 
153.807 154.995 154.823 154.791 154.604 154.508 154.304 154.155 154.025 
153.899 153.837 153.71 153.666 153.561 153.594 153.559 153.671 153.651 
155.25 155.121 155.089 154.931 154.798 154.562 154.315 154.111 153.898 
153.815 153.663 153.619 153.465 153.451 153.337 153.412 153.342 153.468 
153.379 155.551 155.234 155.245 155.025 154.995 154.89 154.599 154.724 
154.625 155.014 154.683 154.29 154.312 154.26 154.449 154.512 155.5 
154.892 154.467 154.197 154.18 154.222 154.411 154.513 154.624 156.446 
155.652 155.291 154.715 154.714 154.45 154.688 154.608 154.799 154.713 
154.722 157.676 156.812 156.508 155.781 155.722 155.231 155.361 155.082 
155.229 155.026 155.041 154.822 154.749 158.988 158.14 157.824 157.056 
156.855 156.247 156.126 155.73 155.685 155.462 155.436 155.217 155.145 
154.895 154.861 160.152 159.406 159.039 158.305 157.98 157.298 156.956 
156.392 156.112 155.8 155.708 155.567 155.555 155.352 155.32 155.079 
155.105 161.051 160.43 160.023 159.379 159.008 158.343 157.958 157.254 
156.869 156.292 156.111 155.838 155.891 155.75 155.807 155.58 155.568 
155.334 155.354 161.338 161.452 161.033 160.339 161.672 161.179 160.463 
160.041 159.355 161.95 161.441 160.714 160.228 159.539 159.088 158.356 
162.128 161.702 161.009 160.53 159.868 159.364 158.627 158.071 157.289 
162.189 161.847 161.199 160.788 160.147 159.706 159.014 158.439 157.658 
157.064 156.463 162.221 161.924 161.329 160.946 160.295 159.907 159.248 
158.795 158.095 157.533 156.943 156.467 156.168 162.214 161.967 161.441 
161.099 160.491 160.07 159.429 158.996 158.377 157.929 157.394 156.971 
156.61 156.283 156.063 162.171 161.945 161.463 161.205 160.691 160.318 
159.728 159.26 158.654 158.205 157.675 157.312 156.894 156.615 156.289 
156.064 155.796 162.189 161.928 161.462 161.223 160.762 160.486 159.945 
159.559 158.926 158.488 157.877 157.514 157.013 156.757 156.363 156.175 
155.872 155.719 155.51 155.455 155.726 155.517 155.406 156.15 155.815 
155.635 155.434 155.258 156.763 156.293 156.041 155.717 155.532 155.272 
154.992 157.609 156.995 156.682 156.197 155.977 155.635 155.401 155.018 
154.632 158.665 157.96 157.628 156.963 156.723 156.221 156.039 155.562 
155.234 154.687 154.252 159.716 159.07 158.784 158.046 157.825 157.167 
157.045 156.42 156.173 155.465 155.056 154.39 154.046 160.587 160.082 
159.901 159.247 159.069 158.384 158.277 157.596 157.395 156.597 156.209 
155.376 155.027 154.362 154.228 161.348 160.934 160.883 160.354 160.249 
159.617 159.478 158.822 158.606 157.86 157.488 156.636 156.268 155.493 
155.341 154.742 154.788 162.102 161.726 161.762 161.333 161.312 160.757 
160.613 159.965 159.726 159.023 158.697 157.908 157.565 156.777 156.589 
155.929 155.937 155.396 155.5 155.327 155.297 155.28 155.171 155.065 
155.132 154.968 155.024 154.81 154.655 154.742 154.46 154.619 154.359 
154.494 154.235 154.18 154.229 153.86 154.002 153.735 153.932 153.744 
153.912 153.779 153.754 153.738 153.359 153.432 153.194 153.354 153.247 
153.44 153.392 153.564 153.531 153.562 153.408 153.067 153.035 152.817 
152.903 152.799 152.982 152.947 153.164 153.142 153.338 153.316 153.783 
153.433 153.136 152.924 152.714 152.639 152.481 152.555 152.475 152.683 
152.676 152.918 152.935 153.137 153.172 154.367 153.875 153.591 153.202 
152.983 152.707 152.486 152.335 152.167 152.232 152.23 152.465 152.556 
152.784 152.869 153.055 153.15 155.088 154.563 154.26 153.78 153.523 
153.115 152.844 152.491 152.213 152.041 151.95 152.074 152.192 152.44 
152.567 152.768 152.849 153.045 153.148 155.395 155.59 155.167 154.557 
155.857 155.368 154.713 154.326 153.772 156.248 155.675 154.957 154.485 
153.846 153.521 153 156.735 156.116 155.373 154.787 154.057 153.589 
152.951 152.688 152.254 157.241 156.629 155.919 155.281 154.55 153.912 
153.207 152.714 152.239 152.042 151.911 157.741 157.147 156.469 155.853 
155.176 154.51 153.816 153.15 152.619 152.2 152.059 151.966 152.123 
158.264 157.683 157.04 156.42 155.757 155.129 154.455 153.808 153.207 
152.684 152.392 152.186 152.248 152.278 152.473 158.792 158.249 157.677 
157.049 156.41 155.739 155.072 154.416 153.8 153.239 152.824 152.501 
152.402 152.355 152.477 152.565 152.739 159.278 158.787 158.28 157.714 
157.148 156.472 155.853 155.124 154.548 153.879 153.47 152.977 152.821 
152.57 152.646 152.6 152.797 152.849 153.061 155.995 157.001 156.409 
156.232 158.095 157.477 157.36 156.707 156.555 159.342 158.665 158.607 
157.92 157.823 157.109 156.985 160.745 160.009 159.964 159.24 159.165 
158.435 158.328 157.591 157.473 162.188 161.435 161.353 160.618 160.52 
159.791 159.685 158.953 158.835 158.093 157.967 163.553 162.827 162.699 
161.979 161.879 161.155 161.06 160.319 160.208 159.457 159.319 158.572 
158.44 164.744 164.109 163.987 163.304 163.239 162.535 162.469 161.718 
161.588 160.819 160.646 159.898 159.728 159.017 158.898 165.682 165.201 
165.139 164.559 164.514 163.877 163.783 163.079 162.875 162.135 161.891 
161.172 160.969 160.273 160.124 159.46 159.368 166.366 166.042 166.037 
165.615 165.564 165.042 164.867 164.245 163.933 163.266 162.954 162.319 
162.121 161.49 161.365 160.694 160.587 159.925 159.84 162.533 163.062 
162.615 162.221 163.531 163.121 162.74 162.287 161.807 164.076 163.598 
163.206 162.758 162.25 161.752 161.113 164.804 164.218 163.76 163.226 
162.681 162.153 161.465 160.924 160.185 165.506 164.945 164.389 163.79 
163.16 162.585 161.871 161.279 160.478 159.925 159.141 165.976 165.539 
164.955 164.367 163.635 163.028 162.251 161.669 160.847 160.248 159.402 
158.848 158.061 166.23 165.915 165.411 164.888 164.161 163.496 162.654 
162.016 161.175 160.588 159.752 159.165 158.377 157.827 157.142 166.344 
166.116 165.689 165.299 164.663 164.048 163.226 162.498 161.642 160.957 
160.156 159.537 158.805 158.231 157.595 157.057 156.512 166.415 166.209 
165.8 165.508 164.933 164.477 163.733 163.097 162.279 161.553 160.772 
160.06 159.366 158.73 158.135 157.575 157.059 156.534 156.062 162.89 
163.66 163.319 163.408 164.422 164.09 164.14 163.799 163.863 165.104 
164.8 164.848 164.519 164.58 164.265 164.412 165.828 165.479 165.525 
165.199 165.285 164.996 165.197 164.928 165.178 166.679 166.271 166.323 
165.927 165.999 165.684 165.883 165.685 165.972 165.733 165.92 167.612 
167.165 167.232 166.798 166.828 166.424 166.513 166.287 166.519 166.4 
166.59 166.348 166.372 168.623 168.115 168.126 167.69 167.691 167.262 
167.237 166.892 166.977 166.83 166.988 166.866 166.902 166.65 166.57 
169.577 169.089 168.982 168.527 168.481 168.081 168.04 167.625 167.586 
167.283 167.338 167.19 167.241 167.076 167.02 166.766 166.655 170.181 
169.874 169.697 169.294 169.183 168.826 168.808 168.423 168.36 167.938 
167.867 167.57 167.567 167.386 167.367 167.167 167.088 166.83 166.725 
170.285 170.247 170.176 169.897 170.235 170.159 169.971 169.78 169.47 
170.259 170.179 170.031 169.898 169.692 169.455 169.15 170.215 170.175 
169.97 169.905 169.699 169.618 169.344 169.113 168.707 169.948 170.029 
169.758 169.738 169.456 169.482 169.227 169.17 168.797 168.565 168.147 
169.366 169.598 169.35 169.429 169.137 169.184 168.974 168.992 168.737 
168.599 168.251 168.031 167.748 168.734 168.955 168.801 168.964 168.765 
168.86 168.699 168.766 168.603 168.556 168.299 168.132 167.862 167.698 
167.497 168.396 168.471 168.399 168.508 168.411 168.505 168.367 168.467 
168.306 168.376 168.155 168.125 167.865 167.768 167.535 167.428 167.219 
168.274 168.284 168.225 168.266 168.2 168.236 168.105 168.143 167.962 
168.026 167.816 167.876 167.65 167.669 167.45 167.413 167.191 167.104 
166.869 168.145 167.805 168.042 168.112 167.299 167.65 167.792 168.019 
168.066 166.667 167.106 167.301 167.637 167.735 167.938 167.941 165.823 
166.407 166.667 167.122 167.312 167.589 167.625 167.774 167.757 164.753 
165.457 165.776 166.402 166.666 167.12 167.213 167.441 167.389 167.557 
167.552 163.646 164.361 164.67 165.381 165.6 166.259 166.338 166.838 
166.785 167.108 167.059 167.335 167.374 162.539 163.255 163.512 164.213 
164.328 165.004 164.998 165.675 165.666 166.276 166.314 166.773 166.848 
167.173 167.23 161.385 162.095 162.31 163.011 163.099 163.714 163.693 
164.301 164.367 165.055 165.272 165.92 166.137 166.604 166.707 167.008 
167.007 160.312 160.934 161.123 161.789 161.923 162.531 162.603 163.149 
163.302 163.911 164.23 164.903 165.228 165.813 165.974 166.401 166.412 
166.718 166.667 168.133 167.859 167.914 167.69 167.328 167.48 167.192 
167.348 167.113 166.56 166.801 166.468 166.709 166.444 166.693 166.44 
165.595 165.916 165.523 165.834 165.487 165.857 165.552 165.887 165.53 
164.478 164.857 164.427 164.771 164.317 164.721 164.324 164.786 164.39 
164.8 164.388 163.341 163.704 163.285 163.629 163.156 163.5 163.046 
163.465 163.078 163.541 163.171 163.609 163.259 162.324 162.611 162.183 
162.493 162.045 162.365 161.924 162.261 161.884 162.281 161.96 162.387 
162.063 162.498 162.169 161.445 161.666 161.204 161.434 160.962 161.263 
160.839 161.181 160.801 161.167 160.823 161.219 160.879 161.296 160.949 
161.387 161.047 160.649 160.84 160.379 160.523 160.024 160.232 159.811 
160.116 159.758 160.101 159.744 160.1 159.738 160.122 159.778 160.188 
159.879 160.3 160.016 168.313 168.563 168.368 168.132 168.665 168.55 
168.289 168.067 167.642 168.473 168.459 168.1 168.045 167.607 167.426 
166.872 168.086 168.11 167.662 167.666 167.199 167.196 166.687 166.544 
165.911 167.583 167.67 167.254 167.223 166.736 166.708 166.231 166.213 
165.653 165.494 164.799 166.908 167.099 166.785 166.853 166.408 166.323 
165.799 165.736 165.207 165.142 164.525 164.341 163.657 166.193 166.373 
166.086 166.307 165.953 165.986 165.441 165.34 164.752 164.683 164.111 
164.017 163.41 163.234 162.631 165.605 165.691 165.349 165.564 165.258 
165.426 164.963 164.944 164.356 164.265 163.688 163.603 163.034 162.935 
162.376 162.249 161.721 165.075 165.131 164.737 164.869 164.531 164.705 
164.31 164.399 163.904 163.879 163.343 163.243 162.678 162.554 161.991 
161.912 161.405 161.342 160.876 164.601 163.754 164.213 164.292 162.843 
163.351 163.435 163.917 164.024 161.829 162.389 162.43 162.969 163.035 
163.608 163.72 160.746 161.336 161.362 161.896 161.916 162.516 162.631 
163.262 163.356 159.596 160.23 160.283 160.824 160.829 161.387 161.507 
162.151 162.305 162.88 162.89 158.349 159.018 159.089 159.719 159.771 
160.34 160.456 161.065 161.219 161.815 161.83 162.331 162.219 157.236 
157.798 157.921 158.544 158.722 159.319 159.504 160.072 160.206 160.745 
160.728 161.218 161.082 161.582 161.478 156.518 156.899 157.128 157.589 
157.889 158.4 158.662 159.169 159.297 159.766 159.719 160.142 159.997 
160.447 160.364 160.894 160.9 156.109 156.399 156.673 157.022 157.31 
157.716 157.914 158.349 158.389 158.829 158.732 159.152 159.005 159.427 
159.352 159.839 159.871 160.402 160.44 155.998 155.91 156.161 156.546 
155.593 155.932 156.311 156.675 157.091 155.256 155.513 155.751 156.211 
156.586 157.102 157.519 155.02 155.198 155.305 155.601 155.844 156.369 
156.755 157.389 157.824 154.649 154.917 155.053 155.263 155.452 155.738 
156.065 156.556 157.012 157.646 158.113 154.18 154.466 154.635 154.953 
155.192 155.482 155.804 156.101 156.527 156.947 157.453 157.986 158.457 
153.91 154.07 154.172 154.451 154.647 155.071 155.405 155.848 156.255 
156.637 157.097 157.494 157.997 158.428 158.901 153.75 153.874 153.926 
154.065 154.147 154.451 154.699 155.229 155.639 156.222 156.671 157.165 
157.633 158.069 158.566 158.967 159.45 153.47 153.658 153.721 153.865 
153.925 154.069 154.211 154.537 154.881 155.453 155.943 156.579 157.074 
157.635 158.116 158.611 159.093 159.531 159.989 160.098 159.151 159.697 
159.788 158.136 158.689 158.756 159.309 159.401 157.042 157.623 157.699 
158.279 158.403 158.972 159.173 155.847 156.452 156.527 157.193 157.376 
158.005 158.23 158.828 159.108 154.803 155.279 155.35 155.993 156.219 
156.936 157.206 157.871 158.126 158.764 159.057 154.198 154.446 154.522 
154.949 155.157 155.784 156.086 156.792 157.08 157.749 158.021 158.691 
159.016 153.876 154.007 154.003 154.27 154.35 154.81 155.019 155.669 
155.977 156.683 157.008 157.678 158.021 158.689 159.068 153.564 153.659 
153.495 153.708 153.609 153.985 154.021 154.596 154.823 155.555 155.925 
156.672 157.083 157.762 158.17 158.808 159.208 153.265 153.296 153.041 
153.145 152.947 153.198 153.148 153.596 153.762 154.414 154.791 155.57 
156.056 156.821 157.294 157.965 158.385 158.99 159.377 161.556 160.654 
161.436 162.008 159.475 160.394 160.98 161.811 162.339 158.192 159.143 
159.762 160.68 161.264 162.093 162.65 157.056 157.938 158.633 159.506 
160.177 161.018 161.687 162.49 163.154 156.212 156.974 157.746 158.523 
159.249 160.029 160.77 161.586 162.325 163.09 163.712 155.73 156.32 
157.114 157.779 158.483 159.177 159.875 160.687 161.429 162.252 162.865 
163.56 163.994 155.571 155.974 156.7 157.25 157.919 158.488 159.103 
159.796 160.491 161.312 161.956 162.686 163.135 163.747 164.121 155.622 
155.854 156.419 156.862 157.498 158.005 158.622 159.151 159.81 160.457 
161.149 161.826 162.382 162.96 163.389 163.937 164.364 155.828 155.909 
156.309 156.588 157.135 157.601 158.254 158.768 159.441 159.954 160.624 
161.173 161.787 162.319 162.815 163.307 163.737 164.246 164.65 162.148 
162.652 162.673 163.17 163.044 163.16 163.729 163.718 164.221 163.396 
163.543 164.212 164.282 164.898 164.848 165.392 163.902 163.985 164.726 
164.807 165.541 165.563 166.223 166.102 166.601 164.423 164.549 165.322 
165.416 166.216 166.26 166.974 166.915 167.418 167.225 167.551 164.653 
164.931 165.676 165.941 166.738 166.918 167.611 167.622 168.044 167.899 
168.132 167.978 168.246 164.751 165.037 165.714 166.076 166.775 167.172 
167.804 168.063 168.417 168.387 168.493 168.384 168.594 168.61 169.009 
164.975 165.178 165.812 166.062 166.629 166.98 167.518 167.946 168.362 
168.575 168.716 168.665 168.792 168.831 169.217 169.379 169.805 165.212 
165.419 166.019 166.209 166.707 166.877 167.32 167.61 168.103 168.426 
168.804 168.88 169.077 169.041 169.332 169.469 169.875 170.049 170.282 
162.003 163.03 162.388 162.142 164.068 163.425 163.228 162.586 162.388 
165.169 164.473 164.249 163.647 163.482 162.864 162.656 166.315 165.593 
165.286 164.639 164.426 163.871 163.655 163.058 162.778 167.308 166.696 
166.39 165.703 165.432 164.801 164.541 163.949 163.637 163.062 162.754 
168.136 167.625 167.396 166.774 166.511 165.856 165.551 164.866 164.495 
163.858 163.518 162.99 162.72 169.014 168.506 168.299 167.7 167.39 
166.823 166.48 165.862 165.432 164.751 164.346 163.75 163.46 162.958 
162.705 169.82 169.4 169.136 168.543 168.09 167.535 167.093 166.604 
166.157 165.603 165.168 164.592 164.27 163.734 163.476 162.949 162.684 
170.223 170.005 169.667 169.219 168.662 168.126 167.584 167.104 166.647 
166.189 165.779 165.312 164.987 164.522 164.26 163.751 163.482 162.942 
162.691 168.378 168.503 168.494 168.625 168.834 168.677 168.803 168.761 
168.814 169.434 169.123 169.126 168.964 168.995 168.888 168.753 169.987 
169.706 169.534 169.265 169.126 169.019 168.888 168.729 168.425 170.262 
170.116 169.901 169.6 169.316 169.111 168.926 168.811 168.554 168.328 
167.902 170.324 170.288 170.182 169.943 169.702 169.377 169.156 168.91 
168.685 168.444 168.054 167.739 167.229 170.295 170.305 170.258 170.172 
170.028 169.798 169.548 169.232 168.915 168.614 168.233 167.914 167.439 
167.069 166.569 170.298 170.27 170.149 170.128 169.949 169.934 169.664 
169.508 169.058 168.781 168.283 168.036 167.592 167.315 166.86 166.484 
166.022 170.337 170.279 170.05 169.949 169.636 169.657 169.389 169.41 
169.022 168.826 168.283 168.017 167.546 167.368 166.972 166.741 166.286 
165.943 165.469 
POINT_DATA 1002
SCALARS Distance double
LOOKUP_TABLE default
155.815 155.824 155.32 155.286 154.857 155.609 154.897 154.608 155.145 
155.297 154.71 154.606 154.87 155.04 155.108 154.607 154.662 154.652 
154.79 154.87 154.834 154.479 154.635 154.412 154.435 154.45 154.373 
154.318 154.433 154.654 154.281 154.168 154.083 153.941 153.869 153.941 
154.634 154.86 154.42 154.152 153.96 153.788 153.638 153.676 153.808 
154.98 155.151 154.764 154.348 153.972 153.771 153.577 153.472 153.534 
153.614 155.238 155.365 155.055 154.582 154.021 153.709 153.514 153.31 
153.235 153.26 153.267 155.515 154.904 155.288 154.483 155.22 154.417 
154.352 155.476 154.041 154.33 154.853 156.174 154.205 154.302 154.61 
155.931 157.236 155.093 154.851 154.92 154.875 157.272 158.523 156.323 
155.755 155.482 155.291 154.963 158.628 159.816 157.575 156.669 155.96 
155.619 155.405 155.073 159.776 160.868 158.716 157.653 156.552 155.83 
155.683 155.584 155.308 160.649 161.639 159.647 158.665 157.562 156.5 
156.007 155.99 155.854 155.549 161.727 160.723 161.907 160.911 162.201 
159.757 161.215 162.436 160.019 158.846 161.459 162.494 160.358 159.23 
157.809 161.592 162.485 160.551 159.536 158.281 156.887 161.7 162.481 
160.7 159.64 158.576 157.437 156.514 161.726 162.439 160.903 159.875 
158.779 157.784 156.969 156.354 161.675 162.403 160.993 160.183 159.133 
158.058 157.191 156.53 155.992 161.71 162.459 161.008 160.29 159.37 
158.282 157.3 156.557 156.009 155.621 155.383 155.553 155.287 155.889 
155.468 155.023 156.438 155.802 155.331 154.628 157.255 156.359 155.778 
155.102 154.171 158.353 157.283 156.534 155.813 154.795 153.797 159.496 
158.509 157.688 156.918 155.793 154.585 153.761 160.469 159.742 158.96 
158.187 157.085 155.756 154.744 154.184 161.33 160.854 160.154 159.324 
158.313 157.071 155.982 155.301 154.883 162.141 161.82 161.266 160.423 
159.438 158.347 157.282 156.506 156.007 155.61 155.224 154.89 154.797 
154.319 154.176 154.109 153.747 153.519 153.518 153.612 153.3 153.037 
153.033 153.195 153.376 153.133 152.774 152.647 152.725 152.927 153.131 
153.409 152.87 152.504 152.3 152.404 152.702 152.976 154.036 153.333 
152.753 152.208 151.999 152.293 152.679 152.958 154.772 153.975 153.266 
152.518 151.921 151.935 152.355 152.672 152.921 155.804 154.926 156.042 
155.138 156.395 154.079 155.497 156.856 154.241 153.222 156 157.353 
154.626 153.308 152.33 156.537 157.838 155.223 153.809 152.51 151.883 
157.07 158.318 155.804 154.507 153.141 152.214 152.086 157.665 158.811 
156.389 155.083 153.782 152.703 152.264 152.399 158.274 159.294 157.096 
155.748 154.388 153.235 152.54 152.408 152.63 158.795 159.747 157.775 
156.575 155.24 154.018 153.162 152.766 152.768 152.999 156.571 156.853 
157.582 157.999 158.707 157.23 159.291 160.032 158.534 157.707 160.708 
161.501 159.898 159.066 158.214 162.103 162.968 161.253 160.413 159.581 
158.715 163.416 164.282 162.585 161.803 160.967 160.079 159.166 164.633 
165.32 163.917 163.222 162.387 161.413 160.451 159.569 165.654 166.076 
165.133 164.498 163.633 162.609 161.656 160.803 160.003 166.399 166.626 
166.062 165.499 164.609 163.561 162.697 162.014 161.279 160.48 163.001 
162.707 163.481 163.18 163.938 162.338 163.68 164.614 162.762 161.655 
164.363 165.437 163.241 162.047 160.698 165.038 166.047 163.772 162.474 
161.097 159.645 165.536 166.351 164.295 162.842 161.441 160.009 158.56 
165.864 166.481 164.839 163.356 161.769 160.319 158.933 157.642 166.007 
166.547 165.201 163.955 162.375 160.79 159.365 158.121 157.025 163.214 
163.747 164.025 164.505 164.74 164.175 165.161 165.417 164.884 164.688 
165.863 166.21 165.558 165.421 165.486 166.744 167.089 166.366 166.079 
166.155 166.279 167.667 168.084 167.29 166.833 166.635 166.773 166.723 
168.598 169.191 168.119 167.67 167.215 167.089 167.107 166.881 169.484 
170.06 168.871 168.46 167.997 167.551 167.379 167.244 166.941 170.081 
170.407 169.532 169.152 168.818 168.271 167.784 167.542 167.321 167.006 