# vtk DataFile Version 4.0
vtk output
ASCII
DATASET POLYDATA
POINTS 1002 float
-79.0038 -114.188 75.7522 -78.7592 -115.533 75.3824 -78.7619 -114.948 74.4928 
-79.1596 -113.594 74.8822 -78.8812 -114.315 73.5452 -79.6539 -112.978 76.1302 
-79.5579 -113.034 74.0036 -79.1825 -113.633 72.5831 -80.0767 -112.495 75.3082 
-80.5223 -111.871 76.5412 -80.1481 -112.494 73.0981 -79.7097 -113.025 71.6447 
-80.6795 -111.995 74.5184 -81.0492 -111.34 75.7783 -81.2542 -110.506 76.9964 
-80.794 -111.933 72.2301 -80.4684 -112.561 70.9207 -81.2518 -111.36 73.6716 
-81.5926 -110.636 75.0344 -81.7246 -109.715 76.2661 -81.8506 -108.768 77.4053 
-81.4765 -111.252 71.5868 -81.3192 -111.983 70.4523 -81.7496 -110.546 72.8702 
-82.0556 -109.751 74.223 -82.2337 -108.832 75.5336 -82.3087 -107.881 76.682 
-82.3456 -106.946 77.7159 -82.2019 -110.434 71.1054 -82.0902 -111.17 70.051 
-82.3844 -109.69 72.2637 -82.6141 -108.861 73.4631 -82.8247 -107.986 74.7665 
-82.9188 -107.131 75.9764 -82.8762 -106.226 76.9839 -82.7572 -105.328 77.9761 
-82.9692 -109.69 70.6656 -82.8626 -110.424 69.7351 -83.158 -108.944 71.7453 
-83.3556 -108.123 72.8142 -83.5288 -107.258 73.9975 -83.6251 -106.46 75.2514 
-83.5739 -105.64 76.2769 -83.4227 -104.764 77.1878 -83.3141 -104.043 78.1982 
-83.8442 -109.141 70.3631 -83.784 -109.912 69.6249 -83.9598 -108.308 71.2658 
-84.0892 -107.452 72.2105 -84.2066 -106.595 73.2456 -84.2988 -105.79 74.457 
-84.2924 -105.01 75.5592 -84.1706 -104.2 76.4314 -84.0588 -103.496 77.3415 
-84.0622 -103.052 78.3685 -84.7949 -108.655 70.2342 -84.7797 -109.481 69.652 
-84.7942 -107.707 70.9116 -84.7961 -106.767 71.6853 -84.8281 -105.924 72.5822 
-84.9104 -105.151 73.6694 -84.9776 -104.391 74.7937 -84.9266 -103.629 75.7285 
-84.8062 -102.945 76.5769 -84.7577 -102.47 77.5173 -84.8142 -102.227 78.5105 
-78.645 -116.55 74.457 -78.7069 -116.027 73.4258 -78.3257 -117.488 73.4617 
-78.5497 -117.017 72.3649 -77.602 -118.134 72.4835 -78.7788 -115.307 72.3785 
-78.0983 -117.627 71.364 -77.0047 -118.645 71.5212 -78.6524 -116.141 71.2493 
-78.9175 -114.387 71.3122 -77.7265 -118.128 70.2592 -77.1657 -119.388 70.5905 
-78.2821 -116.601 70.0298 -78.6242 -114.967 70.0338 -79.3632 -113.66 70.3622 
-77.8102 -118.939 69.1286 -77.796 -120.264 69.8103 -77.9029 -117.162 68.5999 
-78.1706 -115.364 68.5909 -79.0171 -114.2 69.0959 -80.2712 -113.26 69.7851 
-78.3224 -119.825 68.3457 -78.4837 -120.919 69.2304 -78.0066 -118.177 67.4732 
-77.9555 -116.108 67.2273 -78.7677 -114.692 67.8002 -80.1685 -113.88 68.6991 
-81.3239 -112.682 69.4369 -79.1903 -120.354 68.0998 -79.3366 -121.295 68.9302 
-78.7988 -119.129 67.1849 -78.4967 -117.25 66.6675 -79.0265 -115.461 66.8788 
-80.3223 -114.399 67.6562 -81.4871 -113.298 68.4885 -82.2146 -111.799 69.1288 
-80.204 -120.487 68.3567 -80.3395 -121.472 69.0144 -79.9296 -119.497 67.6153 
-79.6342 -118.107 67.0447 -79.8791 -116.397 66.7981 -80.8348 -114.999 66.9749 
-81.8513 -113.799 67.5826 -82.5146 -112.384 68.3166 -83.0931 -111.016 68.9823 
-81.1053 -120.417 68.8895 -81.2933 -121.503 69.3429 -80.9376 -119.408 68.3146 
-80.8064 -118.367 67.7719 -80.9607 -117.087 67.2967 -81.5806 -115.695 66.9032 
-82.3585 -114.326 66.9358 -82.9448 -112.894 67.52 -83.4627 -111.554 68.2974 
-84.1058 -110.47 69.0198 -82.0406 -120.712 69.5033 -81.8577 -119.497 69.059 
-82.9541 -119.851 69.4958 -82.9945 -118.715 68.8389 -84.3265 -119.211 69.0596 
-81.8607 -118.486 68.4459 -84.6722 -118.41 68.1533 -85.8968 -118.772 68.5477 
-83.3215 -117.974 68.038 -82.0737 -117.58 67.8256 -86.2622 -118.101 67.7483 
-87.1212 -118.07 68.5295 -85.1145 -117.821 67.3409 -83.7579 -117.187 67.307 
-82.5282 -116.429 67.1646 -87.3611 -117.064 67.9813 -88.1076 -116.949 68.8338 
-86.5835 -117.047 67.1414 -85.4919 -116.554 66.769 -84.2008 -115.715 66.7132 
-83.1114 -114.912 66.7105 -88.4134 -115.653 68.3346 -89.2039 -115.754 69.0462 
-87.7483 -115.532 67.4492 -86.979 -115.135 66.8131 -85.8727 -114.461 66.6068 
-84.6197 -113.762 66.6496 -83.6191 -113.237 66.9528 -89.631 -114.47 68.6552 
-90.3695 -114.638 69.2656 -88.9639 -114.235 67.9186 -88.2775 -113.769 67.341 
-87.3851 -113.133 67.1023 -86.2129 -112.534 67.068 -85.0243 -112.08 67.2586 
-84.1104 -111.78 67.736 -90.8606 -113.389 69.1076 -91.5299 -113.543 69.5826 
-90.2106 -113.224 68.5219 -89.4822 -112.856 68.0623 -88.6031 -112.285 67.9005 
-87.5816 -111.706 67.8469 -86.4945 -111.227 67.8471 -85.5185 -110.889 68.1194 
-84.7383 -110.67 68.5888 -92.062 -112.262 69.5027 -92.6828 -112.533 69.8156 
-91.4431 -112.043 69.0678 -90.7139 -111.751 68.6729 -89.7686 -111.326 68.5428 
-88.72 -110.872 68.5633 -87.7258 -110.44 68.5215 -86.844 -110.06 68.589 
-86.0834 -109.805 68.9159 -85.4031 -109.645 69.3178 -85.7545 -108.38 70.0099 
-86.4344 -108.447 69.6728 -86.6482 -106.916 70.2458 -87.1521 -108.561 69.2967 
-87.3989 -106.874 69.8888 -87.5698 -105.427 70.3694 -87.9676 -108.805 69.0517 
-88.2764 -106.927 69.5332 -88.467 -105.305 69.9669 -88.6367 -104.098 70.5403 
-88.9493 -109.111 68.9894 -89.3326 -107.098 69.302 -89.5743 -105.322 69.6234 
-89.6479 -103.899 70.0986 -89.728 -102.717 70.8541 -90.1121 -109.426 68.8989 
-90.5525 -107.319 69.1445 -90.8285 -105.502 69.4393 -90.8263 -103.931 69.7967 
-90.7785 -102.504 70.3984 -90.7692 -101.44 71.2255 -91.2876 -109.847 68.8296 
-91.8334 -107.69 68.9586 -92.1175 -105.83 69.3114 -92.0809 -104.168 69.6821 
-91.9695 -102.509 70.033 -91.8775 -101.263 70.7107 -91.7678 -100.582 71.6 
-92.2003 -110.348 69.036 -92.9055 -108.332 68.9304 -93.2921 -106.426 69.1608 
-93.3244 -104.594 69.5887 -93.2798 -102.656 69.7741 -93.1779 -101.132 70.1426 
-92.9162 -100.346 71.0112 -92.6337 -99.8751 71.9997 -92.8587 -110.831 69.4198 
-93.6409 -109.109 69.1786 -94.1832 -107.288 69.1605 -94.4113 -105.34 69.4913 
-94.5424 -103.147 69.6459 -94.5783 -101.249 69.7364 -94.2856 -100.188 70.3996 
-93.7873 -99.6287 71.4463 -93.3752 -99.0686 72.3857 -93.4579 -111.316 69.7358 
-94.2168 -109.866 69.5201 -94.8311 -108.201 69.3866 -95.2414 -106.309 69.559 
-95.5385 -104.124 69.733 -95.7259 -102.003 69.7396 -95.5827 -100.546 70.1243 
-95.0905 -99.7162 71.0446 -94.5365 -99.0399 71.998 -94.0988 -98.3581 72.7465 
-85.7098 -107.324 70.54 -86.6054 -105.813 70.7435 -85.6353 -106.252 71.158 
-87.6396 -104.489 70.9901 -86.5999 -104.875 71.4502 -85.5965 -105.342 71.9655 
-88.7399 -103.149 71.356 -87.7085 -103.632 71.8752 -86.6172 -104.069 72.3994 
-85.6356 -104.566 72.9802 -89.754 -101.688 71.721 -88.6757 -102.136 72.237 
-87.6258 -102.683 72.8028 -86.6339 -103.236 73.4167 -85.7317 -103.791 74.0891 
-90.7833 -100.65 72.1075 -89.5948 -100.766 72.5531 -88.4103 -101.112 73.0651 
-87.4901 -101.739 73.7178 -86.6528 -102.421 74.4427 -85.7519 -103.017 75.1272 
-91.7778 -99.9575 72.5965 -90.697 -99.9366 73.106 -89.3576 -99.9421 73.5599 
-88.2348 -100.312 74.1067 -87.4426 -101.049 74.8231 -86.5825 -101.751 75.5299 
-85.6302 -102.328 76.0871 -92.5799 -99.0875 73.0299 -91.7076 -99.1419 73.7243 
-90.5015 -99.135 74.3059 -89.1872 -99.2533 74.7576 -88.1997 -99.795 75.332 
-87.3671 -100.566 76.0489 -86.4165 -101.218 76.6335 -85.5063 -101.813 77.0663 
-93.271 -98.1795 73.3196 -92.4382 -98.2107 74.1023 -91.4212 -98.3164 74.8683 
-90.1655 -98.412 75.3784 -89.003 -98.7278 75.8299 -88.1001 -99.4035 76.5075 
-87.2149 -100.161 77.1994 -86.2944 -100.833 77.6723 -85.4945 -101.52 78.0634 
-94.3126 -97.685 73.4913 -93.3428 -97.506 74.2036 -94.4429 -97.3547 74.6701 
-93.2898 -97.2583 75.5458 -94.4392 -97.3189 76.4477 -92.2982 -97.5815 75.1097 
-93.2123 -97.2144 77.3303 -94.3754 -97.3332 78.3265 -92.0572 -97.2799 76.4138 
-91.0963 -97.6902 75.8301 -93.1744 -97.2065 79.0525 -94.2358 -97.6159 79.759 
-91.9114 -97.065 78.0773 -90.7258 -97.2399 77.0501 -89.8043 -97.8334 76.3183 
-93.0645 -97.6035 80.4241 -94.0152 -98.2973 81.0087 -91.8253 -97.0938 79.7662 
-90.4615 -97.0028 78.813 -89.4087 -97.4489 77.7397 -88.7174 -98.3343 76.9879 
-92.9147 -98.3275 81.7542 -93.8308 -98.9053 82.413 -91.6993 -97.7265 81.1514 
-90.2757 -97.3529 80.5725 -89.0989 -97.524 79.6682 -88.3889 -98.2046 78.6053 
-87.8313 -99.1624 77.8078 -92.7735 -98.9378 83.1271 -93.6182 -99.3608 83.6724 
-91.6228 -98.592 82.4052 -90.2189 -98.2501 81.8276 -88.9621 -98.1783 81.2575 
-88.1504 -98.5305 80.3257 -87.5637 -99.1848 79.2606 -86.9349 -100.002 78.3964 
-92.5296 -99.5779 84.216 -93.2734 -100.063 84.5206 -91.5431 -99.3481 83.6045 
-90.3023 -99.1597 82.905 -89.0399 -99.0161 82.342 -88.0513 -99.1212 81.6807 
-87.3315 -99.5026 80.7038 -86.6965 -100.1 79.6727 -86.0733 -100.815 78.8066 
-92.2107 -100.476 84.9426 -92.9153 -101.047 85.1122 -91.3476 -100.169 84.55 
-90.3277 -99.9851 83.9566 -89.1943 -99.7856 83.3575 -88.0686 -99.7033 82.8186 
-87.1102 -99.8908 82.096 -86.3993 -100.35 81.1068 -85.8522 -100.987 80.1048 
-85.331 -101.637 79.2494 -95.1361 -98.3698 72.8206 -95.4103 -97.8578 73.7534 
-96.1029 -98.7691 73.1904 -96.2879 -98.4242 74.374 -96.7332 -99.4691 73.7874 
-95.5325 -97.6609 75.2729 -96.7058 -99.3494 75.1711 -97.1291 -100.431 74.4976 
-96.2598 -98.3368 76.1342 -95.4862 -97.6144 77.289 -96.9294 -100.617 75.9918 
-97.452 -101.683 75.303 -96.533 -99.4833 76.9624 -96.1703 -98.3486 78.0883 
-95.3554 -97.7378 79.0421 -97.1825 -102.015 76.8214 -97.5485 -103.143 76.1296 
-96.7608 -100.934 77.6883 -96.5258 -99.6454 78.7283 -96.0564 -98.677 79.6439 
-95.0929 -98.358 80.3567 -97.3528 -103.399 77.6146 -97.4394 -104.714 76.8346 
-97.1389 -102.3 78.4139 -96.8783 -101.132 79.3344 -96.4998 -100.032 80.257 
-95.7698 -99.4192 81.0263 -94.7965 -99.1289 81.7442 -97.4568 -104.935 78.324 
-97.4115 -106.353 77.4325 -97.467 -103.664 79.1542 -97.2708 -102.538 79.969 
-96.8358 -101.465 80.8824 -96.2404 -100.634 81.7324 -95.4708 -100.084 82.4499 
-94.5628 -99.6346 83.1265 -97.5728 -106.648 78.9382 -97.5099 -107.957 78.0027 
-97.621 -105.294 79.825 -97.4793 -104.069 80.5716 -97.0673 -102.965 81.3977 
-96.5535 -101.984 82.3084 -95.9765 -101.238 83.0268 -95.1787 -100.673 83.589 
-94.2213 -100.243 84.1169 -97.6217 -108.283 79.4086 -97.5727 -109.39 78.5127 
-97.6186 -107.037 80.3119 -97.4551 -105.783 81.0551 -97.1155 -104.629 81.7852 
[...]
CELL_DATA 2000
SCALARS Distance double
LOOKUP_TABLE default
157.342 156.523 156.861 156.796 155.77 156.117 156.159 156.5 156.585 
155.132 155.475 155.64 155.977 156.11 156.377 156.381 154.679 154.943 
155.124 155.477 155.59 155.885 155.808 156.036 155.838 154.381 154.549 
154.591 154.901 154.916 155.251 155.125 155.387 155.136 155.36 155.067 
154.057 154.202 154.121 154.341 154.269 154.533 154.423 154.679 154.505 
154.7 154.451 154.593 154.304 153.742 153.834 153.756 153.897 153.824 
153.976 153.885 154.068 153.979 154.159 154 154.096 153.847 153.912 
153.699 153.663 153.621 153.552 153.594 153.51 153.598 153.476 153.611 
153.504 153.689 153.565 153.695 153.474 153.529 153.31 153.414 153.345 
153.812 153.669 153.53 153.455 153.277 153.29 153.101 153.199 153.05 
153.22 153.106 153.266 153.098 153.176 152.973 153.051 152.953 153.141 
153.194 157.651 157.845 157.456 156.809 157.813 157.621 156.994 156.571 
155.938 157.514 157.491 156.985 156.681 155.937 155.617 155.107 157.37 
157.198 156.677 156.486 155.717 155.472 154.85 154.804 154.566 157.701 
157.22 156.492 156.119 155.26 155.049 154.441 154.488 154.313 154.437 
154.382 158.295 157.672 156.844 156.143 155.184 154.672 154.086 154.067 
154.057 154.257 154.335 154.336 154.19 158.921 158.3 157.609 156.776 
155.918 155.026 154.433 154.006 154.047 154.118 154.345 154.362 154.279 
154.104 153.879 159.574 158.972 158.431 157.689 157.05 156.111 155.555 
154.769 154.652 154.357 154.538 154.455 154.444 154.251 154.058 153.861 
153.766 160.22 159.643 159.126 158.517 158.005 157.28 156.808 156.022 
155.736 155.152 155.091 154.771 154.706 154.462 154.309 154.099 154.029 
153.893 153.934 160.385 160.2 159.94 159.258 160.126 159.772 159.097 
158.843 158.199 160.357 159.877 159.253 158.826 158.242 157.869 157.205 
160.646 160.241 159.7 159.191 158.611 158.089 157.446 156.935 156.253 
160.618 160.412 159.872 159.565 158.912 158.467 157.701 157.202 156.446 
156.008 155.43 160.413 160.241 159.639 159.475 158.775 158.519 157.688 
157.315 156.463 156.093 155.42 155.196 154.792 160.327 160.074 159.508 
159.244 158.628 158.323 157.631 157.253 156.524 156.107 155.473 155.156 
154.743 154.603 154.364 160.353 160.084 159.614 159.29 158.796 158.398 
157.865 157.405 156.857 156.356 155.845 155.379 155.012 154.693 154.498 
154.31 154.185 160.397 160.149 159.708 159.443 158.969 158.646 158.12 
157.738 157.2 156.78 156.272 155.838 155.42 155.06 154.804 154.561 
154.423 154.234 154.119 154.076 154.372 154.141 153.875 154.732 154.439 
154.147 153.814 153.436 155.301 154.869 154.549 154.12 153.72 153.369 
153.071 156.085 155.532 155.174 154.623 154.215 153.739 153.4 153.082 
152.877 156.959 156.353 155.963 155.337 154.938 154.366 154.012 153.521 
153.24 152.915 152.76 157.868 157.246 156.861 156.185 155.813 155.191 
154.858 154.25 153.894 153.375 153.13 152.839 152.797 158.75 158.176 
157.846 157.154 156.813 156.148 155.836 155.167 154.759 154.093 153.711 
153.266 153.131 152.952 153.001 159.539 159.055 158.818 158.184 157.892 
157.213 156.918 156.207 155.797 155.018 154.556 153.913 153.673 153.334 
153.33 153.176 153.206 160.27 159.853 159.72 159.169 158.951 158.307 
158.047 157.337 156.987 156.158 155.726 154.903 154.62 154.032 154.003 
153.641 153.691 153.411 153.405 153.87 153.611 153.671 153.474 153.173 
153.287 153.085 153.212 153.091 152.884 152.919 152.776 152.828 152.721 
152.857 152.854 152.726 152.744 152.668 152.665 152.595 152.6 152.59 
152.708 152.807 152.582 152.587 152.468 152.532 152.441 152.507 152.458 
152.536 152.576 152.728 152.857 152.663 152.528 152.357 152.293 152.117 
152.202 152.122 152.312 152.332 152.518 152.58 152.767 152.848 152.935 
152.753 152.637 152.376 152.172 151.977 151.862 151.923 152.007 152.226 
152.35 152.518 152.575 152.718 152.766 153.094 152.998 152.927 152.748 
152.591 152.275 152.097 151.88 151.911 151.978 152.185 152.339 152.48 
152.549 152.616 152.69 152.799 153.173 153.066 152.967 152.924 152.822 
152.668 152.475 152.22 152.089 151.998 152.108 152.229 152.43 152.528 
152.655 152.675 152.809 152.859 153.066 153.243 153.42 153.141 152.971 
153.999 153.453 153.139 152.936 152.831 154.848 154.156 153.664 153.194 
152.894 152.734 152.533 155.7 155.005 154.416 153.768 153.233 152.83 
152.487 152.349 152.161 156.574 155.849 155.264 154.526 153.908 153.262 
152.795 152.423 152.254 152.129 152.168 157.562 156.8 156.251 155.44 
154.867 154.073 153.615 152.982 152.8 152.443 152.517 152.366 152.508 
158.5 157.816 157.319 156.516 155.989 155.152 154.736 153.994 153.792 
153.23 153.22 152.864 152.938 152.734 152.783 159.274 158.7 158.284 
157.587 157.118 156.324 155.907 155.157 154.902 154.279 154.155 153.658 
153.607 153.244 153.239 152.983 152.989 159.993 159.456 159.114 158.515 
158.133 157.433 157.035 156.303 155.98 155.329 155.109 154.558 154.412 
153.958 153.899 153.543 153.552 153.254 153.281 153.584 154.452 153.904 
153.842 155.56 154.944 154.924 154.371 154.494 156.732 156.117 156.155 
155.579 155.716 155.185 155.383 158.027 157.362 157.433 156.842 156.995 
156.447 156.617 156.084 156.245 159.424 158.741 158.823 158.181 158.339 
157.745 157.922 157.343 157.506 156.941 157.121 160.765 160.135 160.239 
159.61 159.77 159.14 159.322 158.697 158.882 158.27 158.467 157.883 
158.097 162.095 161.478 161.63 161.021 161.204 160.581 160.751 160.12 
160.288 159.675 159.851 159.254 159.418 158.845 158.994 163.485 162.872 
163.069 162.444 162.628 161.998 162.139 161.514 161.645 161.05 161.194 
160.608 160.723 160.13 160.205 159.642 159.723 164.788 164.259 164.449 
163.872 164.006 163.386 163.466 162.849 162.942 162.362 162.491 161.918 
162.017 161.408 161.449 160.839 160.881 160.326 160.415 160.67 161.205 
160.689 160.156 161.755 161.217 160.618 160.074 159.419 162.227 161.692 
161.019 160.484 159.766 159.245 158.517 162.668 162.094 161.335 160.795 
160.031 159.536 158.761 158.262 157.443 163.145 162.529 161.713 161.094 
160.283 159.759 158.99 158.487 157.647 157.102 156.213 163.582 162.997 
162.199 161.531 160.684 160.056 159.275 158.734 157.961 157.378 156.541 
155.922 155.151 163.932 163.392 162.633 162.025 161.207 160.535 159.719 
159.088 158.333 157.747 157.011 156.387 155.679 155.062 154.502 164.294 
163.739 162.991 162.426 161.665 161.055 160.27 159.607 158.828 158.185 
157.47 156.881 156.229 155.65 155.06 154.529 154.08 164.736 164.16 
163.438 162.825 162.095 161.5 160.787 160.167 159.433 158.757 158.034 
157.39 156.753 156.181 155.602 155.061 154.526 154.077 153.682 161.041 
161.77 161.459 161.605 162.537 162.196 162.345 162.064 162.203 163.363 
162.96 163.066 162.791 162.994 162.687 162.774 164.326 163.842 163.919 
163.545 163.767 163.49 163.707 163.298 163.325 165.395 164.893 164.975 
164.486 164.651 164.305 164.571 164.249 164.409 163.894 163.853 166.421 
165.981 166.067 165.562 165.612 165.19 165.38 165.107 165.358 164.983 
165.05 164.436 164.313 167.37 166.977 167.071 166.601 166.562 166.078 
166.122 165.846 166.133 165.919 166.154 165.661 165.623 164.889 164.699 
168.266 167.898 168.003 167.569 167.521 166.985 166.896 166.517 166.716 
166.607 166.969 166.73 166.838 166.224 166.063 165.272 165.06 169.037 
168.726 168.801 168.445 168.412 167.922 167.769 167.28 167.289 167.104 
167.399 167.373 167.585 167.289 167.186 166.574 166.339 165.617 165.426 
169.42 169.783 169.47 169.162 170.067 169.771 169.457 169.161 168.766 
170.398 170.075 169.743 169.421 169.021 168.663 168.156 170.567 170.382 
170.048 169.732 169.321 168.933 168.469 168.05 167.673 170.279 170.328 
169.997 169.903 169.502 169.236 168.809 168.43 168.119 167.781 167.692 
169.854 169.897 169.561 169.613 169.279 169.263 168.939 168.75 168.458 
168.205 168.059 167.883 167.803 169.66 169.595 169.302 169.224 168.966 
168.969 168.807 168.793 168.607 168.461 168.226 168.077 167.856 167.757 
167.436 169.419 169.463 169.257 169.16 168.937 168.821 168.684 168.667 
168.572 168.525 168.299 168.147 167.822 167.681 167.315 167.17 166.685 
168.89 169.101 168.957 169.069 168.873 168.839 168.609 168.571 168.392 
168.409 168.189 168.126 167.772 167.621 167.219 167.054 166.614 166.39 
165.854 168.493 167.985 168.342 168.595 167.557 167.834 168.026 168.43 
168.597 167.088 167.356 167.409 167.801 167.941 168.332 168.379 166.339 
166.732 166.711 167.119 167.191 167.621 167.713 168.08 168.131 165.304 
165.797 165.796 166.316 166.427 166.894 167.012 167.402 167.487 167.85 
167.89 164.254 164.714 164.718 165.306 165.496 166.096 166.26 166.708 
166.739 167.128 167.119 167.519 167.464 163.244 163.695 163.659 164.221 
164.378 165.064 165.225 165.821 165.784 166.254 166.144 166.62 166.551 
166.995 166.901 162.14 162.649 162.588 163.147 163.207 163.875 163.955 
164.619 164.545 165.114 164.953 165.513 165.425 165.986 165.922 166.392 
166.27 161.017 161.524 161.476 162.03 162.044 162.662 162.675 163.3 
163.216 163.796 163.652 164.239 164.147 164.772 164.711 165.299 165.171 
165.672 165.479 168.358 168.195 168.124 167.903 168.2 168.11 167.905 
167.769 167.574 167.921 168.061 167.881 167.815 167.548 167.442 167.157 
167.192 167.542 167.341 167.541 167.184 167.257 166.858 166.863 166.401 
166.296 166.662 166.407 166.737 166.342 166.59 166.134 166.329 165.856 
165.923 165.368 165.329 165.688 165.372 165.725 165.339 165.626 165.167 
165.427 164.989 165.222 164.768 164.847 164.322 164.282 164.629 164.243 
164.628 164.236 164.594 164.141 164.427 163.951 164.252 163.835 164.118 
163.673 163.799 163.279 163.314 163.583 163.167 163.48 163.072 163.443 
163.02 163.359 162.867 163.173 162.698 163.059 162.637 162.968 162.485 
162.671 162.126 162.492 162.697 162.304 162.506 162.104 162.356 161.967 
162.259 161.837 162.106 161.647 161.934 161.513 161.854 161.441 161.741 
161.263 161.463 160.969 168.682 169.126 168.72 168.466 169.545 169.148 
168.789 168.514 168.332 169.827 169.496 169.034 168.725 168.356 168.239 
167.967 169.904 169.697 169.257 168.924 168.435 168.176 167.772 167.68 
167.284 169.715 169.662 169.322 169.123 168.675 168.319 167.818 167.53 
167.091 166.938 166.48 169.356 169.373 169.062 169.065 168.705 168.514 
167.969 167.629 167.05 166.8 166.294 166.127 165.584 168.951 168.981 
168.633 168.698 168.357 168.361 167.848 167.646 166.966 166.709 166.08 
165.914 165.347 165.184 164.581 168.436 168.534 168.161 168.23 167.856 
167.918 167.473 167.399 166.79 166.559 165.9 165.678 165.09 164.925 
164.36 164.18 163.612 167.788 167.956 167.602 167.709 167.313 167.391 
166.975 166.995 166.508 166.378 165.796 165.549 164.952 164.715 164.154 
163.965 163.431 163.258 162.756 167.303 166.54 167.003 167.134 165.709 
166.212 166.31 166.769 166.841 164.64 165.279 165.349 165.877 165.914 
166.42 166.475 163.266 164.042 164.128 164.795 164.818 165.41 165.464 
166.024 166.037 161.888 162.616 162.759 163.494 163.575 164.232 164.275 
164.915 164.942 165.504 165.394 160.844 161.387 161.561 162.206 162.352 
162.987 163.006 163.637 163.61 164.275 164.193 164.749 164.554 160.064 
160.493 160.606 161.132 161.233 161.81 161.795 162.357 162.259 162.881 
162.8 163.447 163.333 163.883 163.721 159.25 159.692 159.689 160.173 
160.15 160.685 160.622 161.156 161.066 161.607 161.556 162.128 162.098 
162.656 162.585 163.099 162.999 158.307 158.773 158.712 159.186 159.104 
159.583 159.494 159.997 159.961 160.494 160.532 161.053 161.088 161.562 
161.537 162.003 161.945 162.427 162.356 157.755 157.203 157.681 158.172 
156.91 157.232 157.643 158.106 158.564 156.64 156.961 157.28 157.64 
158.019 158.48 158.93 156.107 156.564 156.875 157.27 157.609 157.998 
158.431 158.903 159.43 155.303 155.865 156.186 156.739 157.094 157.569 
158.004 158.476 159.037 159.518 160.086 154.439 154.965 155.219 155.879 
156.235 156.897 157.321 157.952 158.48 159.091 159.654 160.168 160.647 
153.822 154.17 154.372 154.897 155.244 155.923 156.371 157.106 157.607 
158.349 158.873 159.566 160.045 160.612 161.027 153.565 153.758 154.015 
154.282 154.654 155.092 155.601 156.203 156.77 157.44 157.995 158.686 
159.221 159.887 160.384 160.958 161.408 153.493 153.66 153.996 154.158 
154.551 154.781 155.29 155.673 156.286 156.782 157.403 157.945 158.549 
159.134 159.731 160.316 160.862 161.381 161.846 161.929 160.959 161.56 
161.731 159.846 160.528 160.739 161.341 161.512 158.677 159.377 159.623 
160.304 160.513 161.12 161.323 157.543 158.214 158.444 159.153 159.396 
160.075 160.292 160.933 161.155 156.45 157.087 157.272 157.958 158.178 
158.907 159.156 159.862 160.093 160.746 160.969 155.481 156.029 156.181 
156.788 156.952 157.657 157.905 158.674 158.956 159.668 159.91 160.558 
160.815 154.735 155.156 155.273 155.751 155.862 156.457 156.662 157.405 
157.714 158.494 158.791 159.495 159.751 160.423 160.708 154.127 154.473 
154.535 154.915 154.974 155.443 155.596 156.22 156.498 157.248 157.576 
158.339 158.63 159.338 159.595 160.292 160.548 153.562 153.861 153.879 
154.207 154.236 154.624 154.74 155.243 155.465 156.095 156.39 157.12 
157.442 158.19 158.482 159.179 159.429 160.101 160.323 160.833 160.159 
160.84 161.559 159.528 160.163 160.879 161.594 162.37 158.96 159.571 
160.278 160.951 161.751 162.455 163.244 158.313 158.948 159.641 160.36 
161.141 161.858 162.687 163.369 164.17 157.782 158.244 158.882 159.643 
160.457 161.235 162.05 162.784 163.634 164.337 165.145 157.811 157.908 
158.446 158.958 159.842 160.58 161.471 162.162 162.985 163.722 164.56 
165.279 165.975 158.21 158.185 158.651 158.815 159.615 160.13 161.082 
161.685 162.533 163.141 163.945 164.627 165.352 165.981 166.494 158.401 
158.574 159.048 159.15 159.74 160.041 160.821 161.347 162.181 162.764 
163.561 164.135 164.859 165.395 165.961 166.432 166.848 158.259 158.621 
159.146 159.399 159.875 160.113 160.653 161.059 161.751 162.347 163.133 
163.765 164.495 165.016 165.591 166.001 166.447 166.824 167.217 161.413 
162.203 162.066 162.571 163.027 162.896 163.449 163.262 163.732 163.852 
163.72 164.299 164.159 164.692 164.452 164.881 164.717 164.525 165.059 
164.967 165.581 165.446 165.962 165.636 165.998 165.691 165.43 165.896 
165.718 166.343 166.3 166.934 166.73 167.12 166.713 166.972 166.546 
166.396 166.882 166.643 167.25 167.129 167.826 167.674 168.115 167.764 
167.964 167.579 167.774 167.028 167.084 167.627 167.575 168.202 168.115 
168.808 168.639 169.094 168.722 168.883 168.476 168.617 168.3 168.465 
167.316 167.433 167.98 168.118 168.737 168.875 169.514 169.533 169.953 
169.683 169.802 169.375 169.455 169.104 169.262 168.94 169.032 167.65 
167.725 168.243 168.381 168.938 169.157 169.702 169.922 170.305 170.317 
170.444 170.199 170.236 169.92 170.02 169.712 169.79 169.431 169.408 
161.12 162.254 161.456 160.98 163.416 162.629 162.192 161.342 160.915 
164.532 163.787 163.414 162.606 162.192 161.352 161.042 165.581 164.87 
164.499 163.787 163.392 162.605 162.19 161.468 161.188 166.564 165.888 
165.483 164.805 164.395 163.693 163.233 162.517 162.096 161.489 161.152 
167.438 166.835 166.432 165.755 165.302 164.62 164.16 163.475 163.042 
162.379 161.996 161.377 161.014 168.134 167.633 167.222 166.624 166.124 
165.479 164.987 164.351 163.93 163.306 162.928 162.28 161.896 161.249 
160.9 168.644 168.221 167.779 167.281 166.767 166.208 165.692 165.116 
164.654 164.105 163.696 163.143 162.729 162.129 161.727 161.145 160.841 
169.013 168.65 168.213 167.766 167.291 166.791 166.314 165.775 165.295 
164.751 164.284 163.778 163.342 162.846 162.444 161.925 161.592 161.091 
160.851 168.995 169.567 169.354 169.447 169.888 169.839 169.992 169.812 
169.888 170.109 170.078 170.259 170.221 170.337 170.184 170.171 170.498 
170.371 170.498 170.416 170.536 170.494 170.536 170.365 170.228 170.794 
170.775 170.87 170.72 170.775 170.673 170.742 170.647 170.57 170.322 
170.051 170.684 170.895 171.056 171.05 171.059 170.933 170.91 170.82 
170.757 170.602 170.365 170.062 169.71 170.369 170.664 170.896 171.077 
171.122 171.11 170.992 170.917 170.756 170.685 170.451 170.285 169.935 
169.663 169.279 170.047 170.337 170.544 170.809 170.879 171.011 170.914 
170.907 170.719 170.643 170.391 170.27 169.924 169.755 169.339 169.134 
168.708 169.646 169.96 170.08 170.375 170.392 170.632 170.576 170.726 
170.631 170.631 170.432 170.268 169.921 169.699 169.261 169.07 168.609 
168.451 168.011 
POINT_DATA 1002
SCALARS Distance double
LOOKUP_TABLE default
157.174 157.851 157.006 156.408 156.16 156.812 155.789 155.367 156.286 
156.663 155.276 154.76 155.861 156.188 156.297 154.801 154.483 155.303 
155.614 155.63 155.594 154.371 154.295 154.607 154.845 154.924 154.863 
154.75 153.948 153.935 154.053 154.154 154.277 154.322 154.174 153.994 
153.627 153.67 153.698 153.728 153.781 153.886 153.799 153.573 153.535 
153.572 153.752 153.463 153.374 153.332 153.408 153.407 153.221 153.14 
153.363 153.69 154 153.335 153.04 152.896 152.928 152.99 152.904 
152.798 152.925 153.298 158.101 157.267 158.17 157.429 157.845 156.291 
157.204 157.498 156.326 155.198 156.899 157.717 155.934 154.897 154.461 
157.05 158.34 155.531 154.32 154.112 154.375 157.63 158.919 155.855 
154.17 153.776 154.291 154.346 158.354 159.494 156.844 155.057 154.078 
154.294 154.458 154.039 159.07 160.161 157.871 156.435 155.176 154.707 
154.619 154.261 153.879 159.699 160.803 158.612 157.536 156.458 155.579 
154.993 154.512 154.161 154.052 160.657 159.466 160.479 159.375 160.529 
158.452 159.734 160.815 158.655 157.624 160.18 160.948 159.191 157.992 
156.727 160.114 160.797 159.327 158.223 156.894 155.725 159.818 160.629 
158.99 158.014 156.836 155.667 154.877 159.782 160.575 158.929 157.969 
156.918 155.827 154.932 154.427 159.9 160.591 159.165 158.299 157.332 
156.328 155.384 154.725 154.348 159.962 160.642 159.268 158.478 157.588 
156.686 155.806 155.076 154.618 154.308 153.924 154.197 153.51 154.509 
153.742 153.062 155.029 154.116 153.308 152.847 155.77 154.734 153.802 
153.096 152.695 156.611 155.519 154.571 153.67 152.96 152.63 157.548 
156.435 155.492 154.517 153.503 152.934 152.833 158.511 157.489 156.522 
155.499 154.267 153.369 153.095 153.078 159.392 158.56 157.633 156.604 
155.295 154.112 153.543 153.359 153.186 160.211 159.563 158.734 157.78 
156.582 155.307 154.445 154.026 153.693 153.341 153.404 152.953 152.904 
152.748 152.634 152.632 152.643 152.618 152.541 152.603 152.428 152.341 
152.37 152.471 152.661 152.53 152.118 151.901 152.101 152.43 152.656 
152.899 152.485 151.919 151.774 152.153 152.475 152.6 153.022 152.866 
152.427 151.952 152.014 152.395 152.576 152.677 152.995 152.888 152.718 
152.287 152.032 152.284 152.618 152.776 152.979 153.396 153.034 153.832 
153.497 154.673 152.892 154.304 155.575 153.198 152.598 155.141 156.388 
153.808 152.7 152.169 156.021 157.315 154.634 153.287 152.407 152.191 
157.067 158.306 155.668 154.304 153.262 152.739 152.628 158.078 159.119 
156.816 155.488 154.422 153.696 153.231 152.961 158.906 159.799 157.871 
156.672 155.565 154.724 154.051 153.545 153.217 159.666 160.518 158.772 
157.761 156.675 155.703 154.904 154.285 153.873 153.57 154.017 154.302 
155.038 155.493 156.15 154.981 156.712 157.336 156.266 155.907 158.041 
158.709 157.552 157.174 156.776 159.478 160.09 158.956 158.514 158.083 
157.664 160.843 161.367 160.4 159.957 159.499 159.067 158.672 162.23 
162.694 161.824 161.391 160.909 160.461 160.027 159.559 163.698 164.068 
163.283 162.782 162.247 161.783 161.34 160.806 160.251 165.015 165.286 
164.639 164.099 163.522 163.061 162.634 162.081 161.462 160.931 161.161 
160.699 161.759 161.196 162.315 159.964 161.569 162.802 160.297 159.04 
161.916 163.293 160.525 159.275 157.972 162.382 163.764 160.847 159.482 
158.218 156.756 162.851 164.138 161.369 159.843 158.505 157.165 155.706 
163.194 164.47 161.861 160.399 158.922 157.578 156.294 155.039 163.558 
164.858 162.229 160.911 159.506 158.061 156.777 155.62 154.526 161.324 
161.898 162.093 162.602 162.92 162.54 163.364 163.81 163.236 163.211 
164.356 164.818 164.042 164.028 163.885 165.51 165.861 165.064 164.852 
164.839 164.507 166.576 166.829 166.118 165.66 165.634 165.607 165.042 
167.528 167.756 167.112 166.462 166.25 166.519 166.339 165.494 168.413 
168.63 168.07 167.386 166.846 167.059 167.335 166.843 165.856 169.137 
169.346 168.856 168.314 167.613 167.415 167.731 167.694 167.026 166.139 