# vtk DataFile Version 4.0
vtk output
ASCII
DATASET POLYDATA
POINTS 1002 float
-79.4693 -111.105 73.0162 -79.1146 -112.316 72.5291 -79.2672 -111.837 71.6025 
-79.87 -110.718 72.1521 -79.6583 -111.394 70.7277 -79.9012 -109.813 73.4543 
-80.4424 -110.328 71.3313 -80.2545 -111.006 69.8887 -80.5165 -109.468 72.6686 
-80.5332 -108.527 73.9376 -81.0566 -109.856 70.5239 -80.9351 -110.574 69.096 
-81.1688 -109.025 71.9194 -81.2685 -108.083 73.2347 -81.4966 -107.305 74.5718 
-81.7772 -109.258 69.7991 -81.7376 -110.013 68.4903 -81.8894 -108.471 71.2321 
-82.0168 -107.53 72.553 -82.2477 -106.682 73.8987 -82.5052 -106.023 75.2204 
-82.7301 -108.592 69.3027 -82.7017 -109.352 68.1628 -82.8946 -107.886 70.7051 
-82.9697 -106.994 71.9633 -83.0593 -106.023 73.1899 -83.2511 -105.276 74.543 
-83.28 -104.538 75.7019 -83.8189 -107.922 69.0488 -83.8099 -108.661 68.0369 
-84.0284 -107.269 70.3368 -84.1021 -106.442 71.5108 -83.999 -105.395 72.5335 
-84.0147 -104.484 73.7751 -84.0488 -103.722 75.042 -83.8879 -102.887 76.0031 
-85.0219 -107.274 68.9742 -85.0759 -107.983 68.0793 -85.0861 -106.589 70.0406 
-85.1051 -105.727 71.0835 -84.9238 -104.646 71.9822 -84.7576 -103.63 73.0159 
-84.7178 -102.813 74.2483 -84.5908 -102.014 75.3221 -84.3632 -101.247 76.1914 
-86.3149 -106.647 69.0425 -86.3739 -107.33 68.2811 -86.1834 -105.887 69.8303 
-86.0239 -104.905 70.6407 -85.8065 -103.778 71.4704 -85.5541 -102.731 72.3744 
-85.3792 -101.882 73.4422 -85.2308 -101.134 74.5277 -85.0068 -100.406 75.4755 
-84.7853 -99.8202 76.3878 -87.4903 -106.009 69.1406 -87.5116 -106.671 68.4971 
-87.2882 -105.194 69.7125 -86.9985 -104.118 70.2837 -86.7382 -102.967 71.0024 
-86.474 -101.951 71.8476 -86.1891 -101.082 72.7636 -85.9558 -100.336 73.762 
-85.7504 -99.6863 74.7607 -85.5207 -99.1187 75.7089 -85.3179 -98.704 76.6702 
-78.8608 -113.204 71.3744 -78.9317 -112.614 70.3308 -78.7381 -114.192 70.1458 
-78.7363 -113.508 68.9202 -78.7501 -115.305 68.8753 -79.2795 -112.105 69.3456 
-78.6082 -114.499 67.4187 -78.6483 -116.389 67.5986 -78.8943 -112.885 67.7492 
-79.8993 -111.717 68.4524 -78.5137 -115.547 66.0676 -78.5516 -117.395 66.6297 
-78.5497 -113.723 66.0383 -79.4534 -112.405 66.8168 -80.7645 -111.325 67.7808 
-78.9638 -116.716 65.3647 -79.0225 -118.335 66.2399 -78.7797 -114.827 64.733 
-79.2718 -113.145 65.1434 -80.6477 -111.995 66.4265 -81.8591 -110.81 67.4655 
-80.1415 -117.654 65.4789 -80.1576 -119.028 66.2774 -79.9709 -116.071 64.5473 
-79.9802 -114.224 64.1746 -80.8946 -112.676 65.1291 -82.1665 -111.535 66.5131 
-83.0299 -110.166 67.3483 -81.4321 -118.005 66.0183 -81.4664 -119.416 66.5136 
-81.4115 -116.71 65.3497 -81.3332 -115.253 64.504 -81.7054 -113.549 64.4806 
-82.6609 -112.175 65.5438 -83.5361 -110.95 66.579 -84.2328 -109.431 67.2714 
-82.4774 -118.129 66.5287 -82.6126 -119.674 66.8479 -82.4812 -116.784 66.2029 
-82.5653 -115.729 65.4163 -82.8307 -114.373 64.6343 -83.4421 -112.834 64.8433 
-84.144 -111.572 65.7513 -84.7554 -110.217 66.5696 -85.4986 -108.66 67.3668 
-83.4489 -118.425 66.8504 -83.617 -119.884 67.197 -83.4137 -117.016 66.5648 
-83.5943 -116.067 65.9024 -83.997 -115.087 64.8908 -84.5389 -113.597 64.446 
-85.0283 -112.122 65.01 -85.4139 -110.858 65.9283 -85.9443 -109.405 66.7763 
-86.7252 -107.896 67.6535 -84.5787 -119.262 67.2212 -84.5372 -117.887 66.7508 
-85.829 -118.714 67.1125 -85.9504 -117.648 66.342 -87.1831 -118.172 66.986 
-84.6763 -116.812 66.0799 -87.3299 -117.265 66.1213 -88.4248 -117.429 67.0595 
-86.2171 -116.834 65.3508 -85.1123 -115.989 65.0288 -88.5682 -116.362 66.4494 
-89.6867 -116.418 67.3086 -87.507 -116.257 65.4062 -86.6968 -115.676 64.4885 
-85.7324 -114.601 64.2298 -89.9728 -115.104 67.0019 -90.9455 -115.11 67.7351 
-88.6716 -115.007 66.2853 -87.7588 -114.617 65.2713 -87.1582 -113.735 64.4962 
-86.1925 -112.768 64.5105 -91.3918 -113.637 67.5678 -92.0425 -113.592 68.3434 
-90.1833 -113.573 67.0686 -88.829 -113.253 66.5483 -88.0409 -112.6 65.8069 
-87.3918 -111.825 65.3954 -86.3979 -111.25 65.5287 -92.6628 -112.107 68.0641 
-93.2217 -112.2 68.7823 -91.8173 -112.035 67.5037 -90.486 -111.814 67.2543 
-89.2705 -111.377 66.9362 -88.4769 -110.798 66.5447 -87.6447 -110.244 66.4042 
-86.7091 -109.795 66.5153 -94.006 -110.801 68.2694 -94.5782 -111.085 68.8733 
-93.3638 -110.549 67.7073 -92.3619 -110.238 67.4926 -91.1086 -109.849 67.433 
-90.04 -109.408 67.2344 -89.1213 -108.927 67.0804 -88.178 -108.481 67.1493 
-87.3604 -108.14 67.3666 -95.3171 -109.73 68.301 -95.7748 -110.102 68.8881 
-94.8143 -109.329 67.7537 -94.087 -108.817 67.5264 -93.0001 -108.218 67.5784 
-91.8051 -107.663 67.5386 -90.7447 -107.212 67.3888 -89.7506 -106.877 67.4459 
-88.8451 -106.7 67.7636 -88.124 -106.661 68.1564 -88.5189 -105.493 68.9403 
-89.2342 -105.262 68.4721 -89.386 -104.037 69.0855 -90.0773 -105.042 67.9176 
-90.2434 -103.668 68.5328 -90.241 -102.352 69.0995 -91.0683 -105.01 67.5409 
-91.1999 -103.309 67.9603 -91.2627 -102.035 68.6084 -91.201 -100.699 69.208 
-92.197 -105.292 67.5108 -92.2888 -103.178 67.5897 -92.3573 -101.739 68.1065 
-92.3621 -100.525 68.812 -92.146 -99.2143 69.3984 -93.5349 -105.932 67.5748 
-93.6894 -103.508 67.4372 -93.6737 -101.607 67.6185 -93.65 -100.33 68.2988 
-93.4328 -99.102 69.014 -93.0369 -97.8979 69.6982 -94.8401 -106.831 67.5002 
-95.2617 -104.398 67.3766 -95.2896 -101.975 67.2977 -95.1328 -100.227 67.7278 
-94.8601 -98.9866 68.504 -94.4515 -97.8146 69.3037 -94.0031 -96.8715 70.2457 
-95.6822 -107.689 67.5674 -96.3458 -105.551 67.5028 -96.6364 -103.001 67.4135 
-96.5486 -100.687 67.5562 -96.2458 -99.0702 68.1342 -95.8599 -97.864 68.9213 
-95.4194 -96.8816 69.8847 -94.9541 -96.1885 70.9944 -96.1212 -108.317 68.0208 
-96.775 -106.522 67.9594 -97.2439 -104.274 67.9585 -97.4494 -101.845 67.9762 
-97.357 -99.7698 68.2666 -97.0935 -98.2433 68.8599 -96.7044 -97.1339 69.6908 
-96.1941 -96.3447 70.7579 -95.685 -95.7176 71.8205 -96.4586 -108.8 68.676 
-97.004 -107.241 68.6149 -97.4789 -105.369 68.6325 -97.8962 -103.223 68.6148 
-98.11 -101.032 68.7317 -98.0907 -99.119 69.1541 -97.8638 -97.6945 69.8337 
-97.3581 -96.751 70.7532 -96.711 -96.0539 71.7946 -96.1902 -95.3615 72.6935 
-88.3736 -104.676 69.471 -89.1386 -102.949 69.5541 -88.0608 -103.545 69.9287 
-89.9993 -101.102 69.6324 -88.8432 -101.666 70.1036 -87.759 -102.307 70.5437 
-90.9436 -99.4606 69.8066 -89.7409 -99.9639 70.358 -88.5863 -100.628 70.9109 
-87.4945 -101.291 71.383 -91.8031 -98.0517 70.1097 -90.6213 -98.4803 70.6599 
-89.4139 -99.1212 71.2839 -88.2288 -99.7806 71.8064 -87.1433 -100.397 72.2655 
-92.6833 -96.9159 70.695 -91.4241 -97.1644 71.1687 -90.2175 -97.6177 71.7177 
-88.97 -98.2062 72.2551 -87.8066 -98.8482 72.7356 -86.8032 -99.546 73.226 
-93.6903 -96.1028 71.4657 -92.2871 -96.1382 71.8933 -90.995 -96.3097 72.3375 
-89.8002 -96.7147 72.8598 -88.6206 -97.3527 73.4009 -87.547 -98.1023 73.8873 
-86.5861 -98.8858 74.3193 -94.6514 -95.452 72.194 -93.2708 -95.3047 72.5542 
-91.7965 -95.2802 72.9482 -90.5586 -95.5221 73.4703 -89.4517 -96.1091 74.0931 
-88.3659 -96.8708 74.67 -87.3508 -97.6393 75.0852 -86.3791 -98.3769 75.3883 
-95.4205 -94.8784 72.9069 -94.2693 -94.552 73.1417 -92.7336 -94.4235 73.4901 
-91.2885 -94.5626 74.0084 -90.1202 -95.0436 74.6271 -89.0092 -95.7471 75.2381 
-87.9779 -96.4995 75.7505 -87.0502 -97.2389 76.1133 -86.1305 -97.9586 76.3893 
-96.2516 -94.6562 73.7557 -95.4706 -94.0632 73.8852 -96.3872 -94.0057 74.9981 
-95.3926 -93.5734 75.2562 -96.3087 -93.8232 76.5756 -94.0882 -93.7963 74.1654 
-94.8935 -93.7307 77.0866 -95.7798 -94.1244 78.3015 -93.6664 -93.595 75.7785 
-92.3526 -93.8536 74.6954 -94.1167 -94.115 78.8717 -95.1105 -94.5098 79.8211 
-92.9818 -93.8843 77.7378 -91.8665 -93.7795 76.4476 -90.8647 -94.166 75.3179 
-93.5763 -94.3935 80.3259 -94.6409 -94.9346 81.1723 -92.375 -94.088 79.4527 
-91.337 -93.8672 78.3644 -90.3556 -93.9558 76.9688 -89.5436 -94.6871 75.856 
-93.2367 -94.9068 81.7035 -94.1692 -95.5729 82.492 -92.003 -94.3478 80.9264 
-90.8386 -93.9713 80.1294 -89.7882 -93.8764 78.8442 -88.8494 -94.3512 77.3361 
-88.3019 -95.3839 76.3532 -92.7321 -95.7007 82.9905 -93.5102 -96.3361 83.5915 
-91.6024 -95.025 82.3145 -90.3225 -94.4524 81.667 -89.225 -94.228 80.6951 
-88.3144 -94.4625 79.1679 -87.6845 -95.1938 77.7429 -87.3608 -96.2291 76.8354 
-92.0999 -96.5292 83.9617 -92.8133 -97.156 84.353 -91.1161 -95.8928 83.4581 
-89.8562 -95.2827 82.8571 -88.752 -95.0002 82.0776 -88.014 -95.1685 80.8781 
-87.435 -95.6179 79.4255 -86.9429 -96.2845 78.1967 -86.5269 -97.1054 77.2409 
-91.5344 -97.3974 84.6851 -92.2215 -98.0507 84.9522 -90.6863 -96.8068 84.3283 
-89.5761 -96.26 83.772 -88.4997 -95.9468 83.0049 -87.8207 -96.0655 82.04 
-87.3434 -96.4189 80.8858 -86.7648 -96.8043 79.6929 -86.1584 -97.3014 78.589 
-85.6644 -97.951 77.5672 -96.8991 -95.6175 73.2127 -96.9233 -95.0007 74.5138 
-97.7177 -96.0389 73.8763 -97.6695 -95.568 75.379 -98.5262 -96.5229 74.6157 
-97.0294 -94.5011 75.9728 -98.4851 -96.2334 76.3229 -99.0117 -97.2988 75.5157 
-97.6565 -95.3046 76.9922 -96.8992 -94.4756 77.6096 -99.0692 -97.2387 77.3903 
-99.1069 -98.744 76.5509 -98.4365 -96.2896 78.0822 -97.4184 -95.5004 78.6068 
-96.3861 -94.8412 79.2108 -99.0095 -98.8262 78.2441 -98.8939 -100.535 77.3712 
-98.9909 -97.5462 79.0949 -98.1276 -96.7061 79.6387 -96.9015 -95.932 80.0677 
-95.8121 -95.2776 80.6437 -98.3404 -100.594 78.5905 -98.5323 -102.058 77.9405 
-98.6372 -99.1135 79.5097 -98.531 -97.9778 80.4339 -97.5156 -97.108 80.9883 
-96.3564 -96.3315 81.4573 -95.3208 -95.7821 82.0395 -97.8572 -102.179 78.9164 
-98.4453 -103.402 78.6327 -97.7647 -100.779 79.4876 -98.0512 -99.4045 80.6347 
-97.795 -98.3139 81.7432 -96.9056 -97.4622 82.3644 -95.8647 -96.8025 82.8612 
-94.7238 -96.4361 83.3226 -98.0532 -103.698 79.6129 -98.7306 -104.83 79.4477 
-97.4504 -102.432 79.8072 -97.3692 -101.038 80.6924 -97.4945 -99.7884 82.1097 
-97.2021 -98.805 83.1576 -96.4099 -98.0243 83.6845 -95.2792 -97.4983 84.0403 
-94.0049 -97.249 84.2522 -98.4452 -105.158 80.3441 -98.9527 -106.181 80.0429 
-97.7188 -104.028 80.5167 -97.2164 -102.738 81.1181 -97.163 -101.494 82.3679 
[...]
CELL_DATA 2000
SCALARS Distance double
LOOKUP_TABLE default
153.964 153.398 153.651 153.566 152.984 153.196 153.186 153.302 153.18 
152.633 152.828 152.828 152.974 152.885 152.975 152.943 152.32 152.469 
152.463 152.626 152.562 152.675 152.631 152.809 152.87 152.14 152.198 
152.236 152.352 152.367 152.414 152.36 152.464 152.483 152.711 152.698 
152.126 152.103 152.18 152.255 152.34 152.335 152.243 152.22 152.12 
152.278 152.232 152.424 152.238 152.281 152.18 152.23 152.253 152.29 
152.301 152.115 152.062 151.776 151.856 151.677 151.894 151.696 151.847 
151.542 152.584 152.422 152.404 152.312 152.205 152.16 151.87 151.814 
151.418 151.433 151.126 151.289 151.062 151.251 150.97 151.109 150.837 
152.885 152.736 152.63 152.46 152.197 152.034 151.653 151.535 151.139 
151.078 150.749 150.782 150.546 150.663 150.461 150.579 150.385 150.504 
150.39 154.112 154.075 153.815 153.414 154.168 153.757 153.22 153.137 
152.909 154.321 153.818 153.081 152.894 152.587 152.685 152.566 154.532 
153.934 153.031 152.68 152.222 152.316 152.265 152.417 152.335 155.157 
154.349 153.478 152.757 152.159 151.974 151.968 152.166 152.296 152.313 
152.241 156.238 155.329 154.686 153.643 153.03 152.266 152.156 152.044 
152.355 152.41 152.526 152.34 152.263 157.345 156.534 156.04 155.102 
154.574 153.545 153.213 152.588 152.75 152.629 152.89 152.732 152.711 
152.428 152.392 158.287 157.553 157.03 156.328 155.878 155.062 154.634 
153.815 153.642 153.202 153.338 153.145 153.201 152.924 152.852 152.603 
152.654 159.156 158.43 157.871 157.206 156.805 156.178 155.845 155.118 
154.813 154.156 154.057 153.678 153.714 153.428 153.388 153.09 153.065 
152.878 152.958 159.448 159.579 159.053 158.203 159.877 159.303 158.488 
157.914 157.182 160.148 159.655 158.929 158.336 157.598 157.017 156.309 
160.277 159.886 159.207 158.743 158.018 157.466 156.68 156.103 155.335 
160.315 159.995 159.327 158.929 158.197 157.749 156.95 156.432 155.637 
155.117 154.496 160.229 160.009 159.408 159.045 158.327 157.876 157.116 
156.637 155.916 155.434 154.841 154.421 154.018 160.08 159.895 159.369 
159.101 158.456 158.044 157.335 156.858 156.21 155.747 155.198 154.773 
154.322 153.986 153.641 160.05 159.8 159.293 159.047 158.475 158.151 
157.496 157.091 156.441 156.036 155.455 155.079 154.565 154.233 153.824 
153.568 153.29 160.099 159.823 159.309 159.029 158.485 158.176 157.551 
157.194 156.5 156.151 155.466 155.175 154.564 154.331 153.862 153.687 
153.402 153.261 153.115 153.091 153.259 153.093 152.876 153.548 153.229 
152.924 152.735 152.369 154.109 153.56 153.109 152.791 152.451 152.217 
151.847 154.982 154.234 153.655 153.077 152.685 152.376 152.118 151.822 
151.499 156.099 155.266 154.688 153.824 153.314 152.752 152.502 152.177 
151.953 151.571 151.272 157.262 156.505 156.066 155.082 154.516 153.612 
153.228 152.68 152.483 152.082 151.854 151.426 151.253 158.27 157.673 
157.385 156.536 156.037 155.002 154.478 153.609 153.299 152.721 152.541 
152.075 151.95 151.556 151.574 159.126 158.632 158.42 157.772 157.383 
156.498 155.978 154.994 154.567 153.741 153.523 152.9 152.817 152.333 
152.361 151.997 152.107 159.923 159.464 159.284 158.735 158.439 157.735 
157.332 156.46 156.046 155.138 154.859 154.07 153.968 153.338 153.365 
152.872 152.97 152.569 152.665 152.967 152.726 152.82 152.633 152.145 
152.362 152.122 152.3 152.034 151.545 151.691 151.417 151.632 151.372 
151.597 151.379 151.132 151.153 150.878 150.995 150.811 150.974 150.828 
151.009 150.887 150.881 150.814 150.542 150.585 150.436 150.545 150.435 
150.555 150.439 150.59 150.513 150.912 150.695 150.438 150.353 150.192 
150.233 150.098 150.191 150.048 150.175 150.076 150.262 150.263 151.297 
150.937 150.688 150.406 150.194 150.065 149.913 149.905 149.802 149.852 
149.816 149.912 149.943 150.107 150.188 151.823 151.436 151.149 150.76 
150.436 150.152 149.926 149.815 149.749 149.744 149.791 149.812 149.903 
149.937 150.02 150.107 150.185 152.327 151.947 151.621 151.209 150.808 
150.423 150.1 149.887 149.774 149.747 149.778 149.826 149.895 149.951 
150.015 150.051 150.104 150.152 150.237 152.532 152.662 152.305 151.773 
153.069 152.505 151.85 151.476 150.922 153.743 153.047 152.324 151.69 
151.031 150.637 150.2 154.4 153.737 153.023 152.306 151.593 150.952 
150.425 150.067 149.855 155.018 154.352 153.652 152.986 152.29 151.614 
150.971 150.425 150.05 149.838 149.788 155.779 155.046 154.357 153.629 
152.963 152.29 151.628 150.985 150.417 150.028 149.818 149.789 149.848 
156.546 155.871 155.221 154.44 153.766 153.018 152.407 151.69 151.129 
150.498 150.172 149.88 149.901 149.897 150.009 157.145 156.592 156.009 
155.314 154.644 153.877 153.276 152.554 152.115 151.407 151.127 150.523 
150.474 150.143 150.24 150.11 150.17 157.682 157.171 156.683 156.075 
155.498 154.763 154.19 153.47 153.096 152.463 152.278 151.65 151.547 
150.974 150.943 150.539 150.545 150.306 150.325 153.041 154.018 153.409 
153.258 155.178 154.514 154.394 153.746 153.714 156.425 155.769 155.722 
155.01 154.992 154.344 154.395 157.81 157.13 157.22 156.468 156.473 
155.709 155.722 155.056 155.068 159.202 158.563 158.707 158.045 158.112 
157.292 157.234 156.428 156.398 155.704 155.703 160.283 159.757 159.759 
159.348 159.438 158.864 158.789 157.979 157.85 157.075 157.061 156.383 
156.432 161.284 160.666 160.494 160.112 160.144 159.881 159.919 159.401 
159.293 158.551 158.476 157.761 157.777 157.126 157.148 162.625 161.803 
161.59 160.898 160.853 160.481 160.658 160.36 160.493 159.944 159.939 
159.213 159.186 158.465 158.429 157.765 157.716 164.051 163.274 163.076 
162.213 162.091 161.422 161.594 161.202 161.528 161.118 161.283 160.654 
160.63 159.887 159.798 159.06 158.964 158.284 158.225 160.325 160.732 
160.253 159.672 161.25 160.684 160.059 159.526 158.842 161.926 161.273 
160.615 159.966 159.213 158.622 157.815 162.536 161.903 161.142 160.507 
159.668 159.022 158.142 157.525 156.628 162.922 162.33 161.446 160.89 
159.979 159.391 158.45 157.846 156.932 156.331 155.471 163.249 162.617 
161.739 161.158 160.311 159.686 158.764 158.115 157.224 156.646 155.856 
155.282 154.569 163.651 162.984 162.175 161.56 160.861 160.192 159.371 
158.568 157.692 156.998 156.29 155.728 155.115 154.53 153.956 164.044 
163.422 162.603 162.022 161.349 160.802 160.083 159.322 158.45 157.623 
156.89 156.25 155.703 155.129 154.59 154.002 153.508 164.281 163.767 
162.888 162.346 161.563 161.148 160.484 159.967 159.211 158.455 157.695 
156.956 156.367 155.752 155.219 154.63 154.093 153.559 153.116 160.778 
161.624 161.213 161.238 162.554 162.116 162.162 161.696 161.755 163.508 
163.098 163.171 162.673 162.758 162.306 162.454 164.282 164.001 164.133 
163.713 163.814 163.357 163.561 163.11 163.215 164.907 164.653 164.825 
164.587 164.73 164.377 164.572 164.213 164.42 163.873 163.785 165.768 
165.308 165.428 165.2 165.401 165.17 165.332 165.086 165.31 165.002 
165.077 164.407 164.175 166.928 166.299 166.272 165.861 166.023 165.792 
165.963 165.736 165.894 165.713 165.877 165.549 165.489 164.785 164.526 
167.991 167.431 167.24 166.71 166.659 166.383 166.525 166.338 166.473 
166.257 166.357 166.157 166.185 165.845 165.697 165.082 164.83 168.675 
168.31 168.043 167.533 167.254 166.909 166.908 166.801 166.972 166.832 
166.9 166.642 166.589 166.333 166.219 165.924 165.736 165.258 164.987 
168.859 168.893 168.718 168.269 168.993 168.769 168.317 167.99 167.486 
169.179 168.984 168.613 168.171 167.709 167.35 167.117 169.147 169.156 
168.92 168.574 168.157 167.735 167.526 167.267 167.229 168.862 169.004 
168.824 168.732 168.338 168.11 167.838 167.676 167.565 167.377 167.188 
168.593 168.708 168.521 168.496 168.115 168.05 167.762 167.777 167.602 
167.552 167.265 167.09 166.75 168.303 168.44 168.268 168.234 167.905 
167.812 167.599 167.615 167.513 167.485 167.206 167.037 166.643 166.531 
166.257 167.868 168.052 167.877 167.956 167.683 167.666 167.51 167.536 
167.505 167.467 167.239 167.007 166.579 166.385 166.062 166.046 165.82 
167.43 167.556 167.34 167.477 167.226 167.355 167.202 167.374 167.326 
167.431 167.205 167.052 166.558 166.317 165.862 165.801 165.501 165.535 
165.18 167.169 166.655 166.928 166.974 166.147 166.41 166.435 166.726 
166.842 165.609 165.948 166.024 166.248 166.363 166.667 166.898 164.74 
165.31 165.439 165.813 165.902 166.227 166.441 166.808 167.063 163.472 
164.197 164.295 164.966 165.057 165.618 165.742 166.239 166.38 166.837 
166.874 162.186 162.838 162.879 163.611 163.754 164.528 164.699 165.353 
165.392 165.923 165.84 166.335 166.172 161.039 161.627 161.694 162.295 
162.479 163.206 163.483 164.202 164.284 164.82 164.67 165.16 165.021 
165.539 165.47 159.88 160.507 160.636 161.236 161.431 162.074 162.335 
163.017 163.112 163.659 163.455 163.93 163.726 164.328 164.335 164.96 
165.052 158.751 159.358 159.511 160.162 160.352 161.022 161.21 161.88 
161.929 162.479 162.243 162.673 162.349 162.928 162.841 163.647 163.759 
164.539 164.633 167.205 167.097 167.024 166.714 166.689 166.791 166.429 
166.426 166.104 165.88 166.163 165.76 165.924 165.511 165.694 165.398 
164.936 165.245 164.85 165.083 164.616 164.88 164.507 164.842 164.482 
163.986 164.291 163.898 164.148 163.702 163.938 163.532 163.837 163.475 
163.785 163.317 162.868 163.242 162.787 163.138 162.717 163.031 162.647 
162.912 162.53 162.787 162.367 162.587 162.09 161.627 162.011 161.524 
161.927 161.51 161.949 161.603 161.987 161.597 161.874 161.415 161.65 
161.163 161.383 160.891 160.497 160.805 160.372 160.708 160.325 160.724 
160.39 160.83 160.462 160.845 160.384 160.676 160.164 160.415 159.903 
160.16 159.681 159.559 159.794 159.424 159.694 159.366 159.662 159.324 
159.652 159.279 159.648 159.242 159.595 159.147 159.423 158.94 159.169 
158.697 158.953 158.545 167.434 167.638 167.497 167.341 167.736 167.632 
167.458 167.307 166.962 167.785 167.675 167.404 167.289 166.88 166.703 
166.148 167.711 167.649 167.296 167.16 166.666 166.5 165.936 165.761 
165.185 167.393 167.443 167.088 167.002 166.498 166.299 165.725 165.529 
165.001 164.832 164.278 166.86 166.994 166.64 166.684 166.232 166.131 
165.579 165.372 164.807 164.632 164.084 163.898 163.233 166.223 166.381 
166.005 166.131 165.715 165.772 165.28 165.187 164.576 164.403 163.766 
163.622 162.958 162.755 162.007 165.576 165.718 165.343 165.473 165.078 
165.194 164.757 164.785 164.201 164.084 163.387 163.241 162.564 162.425 
161.747 161.532 160.844 164.992 165.095 164.739 164.846 164.468 164.571 
164.15 164.22 163.686 163.638 162.97 162.835 162.165 162.038 161.432 
161.279 160.678 160.458 159.876 164.585 163.84 164.244 164.295 162.91 
163.407 163.435 163.919 163.985 161.792 162.368 162.376 162.945 162.995 
163.55 163.612 160.573 161.195 161.199 161.804 161.826 162.447 162.484 
163.093 163.097 159.26 159.919 159.908 160.566 160.57 161.225 161.237 
161.874 161.852 162.465 162.386 157.95 158.563 158.499 159.186 159.182 
159.907 159.919 160.594 160.559 161.18 161.113 161.706 161.621 156.788 
157.305 157.209 157.79 157.763 158.467 158.48 159.206 159.165 159.842 
159.782 160.432 160.392 160.987 160.925 155.733 156.218 156.129 156.603 
156.519 157.098 157.066 157.745 157.707 158.401 158.365 159.069 159.08 
159.753 159.738 160.315 160.221 154.775 155.22 155.139 155.564 155.421 
155.902 155.815 156.401 156.399 157.027 157.078 157.723 157.816 158.47 
158.531 159.126 159.076 159.595 159.47 154.328 153.771 154.22 154.587 
153.281 153.609 153.862 154.391 154.801 153.106 153.24 153.466 153.76 
154.161 154.673 155.206 153.105 153.207 153.468 153.593 153.994 154.268 
154.831 155.257 155.865 152.837 153.086 153.24 153.519 153.826 154.176 
154.688 155.069 155.664 156.034 156.619 152.276 152.602 152.602 152.992 
153.131 153.685 154.09 154.743 155.311 155.851 156.406 156.804 157.357 
151.624 151.969 152.037 152.345 152.509 152.905 153.273 153.903 154.477 
155.231 155.826 156.461 156.981 157.479 157.998 151 151.355 151.599 
151.936 152.301 152.565 153.002 153.313 153.85 154.383 155.002 155.691 
156.269 156.925 157.431 158.007 158.489 150.573 150.85 151.175 151.569 
152.045 152.44 152.937 153.234 153.691 153.996 154.503 154.977 155.568 
156.172 156.755 157.358 157.874 158.43 158.892 158.949 157.961 158.573 
158.813 156.853 157.542 157.828 158.486 158.769 155.672 156.374 156.659 
157.423 157.729 158.417 158.676 154.632 155.209 155.433 156.18 156.486 
157.27 157.54 158.258 158.531 153.812 154.246 154.354 154.966 155.233 
156.006 156.34 157.089 157.403 158.127 158.469 152.997 153.416 153.405 
153.91 154.082 154.794 155.151 155.923 156.288 157.018 157.362 158.088 
158.413 152.054 152.509 152.479 152.957 153.073 153.694 153.987 154.732 
155.052 155.836 156.134 156.93 157.218 157.976 158.226 151.153 151.556 
151.577 152.046 152.19 152.74 152.972 153.599 153.811 154.518 154.739 
155.571 155.862 156.714 156.997 157.752 157.994 150.53 150.787 150.82 
151.208 151.336 151.849 152.028 152.601 152.748 153.331 153.494 154.195 
154.517 155.353 155.762 156.554 156.899 157.584 157.879 159.846 158.977 
159.809 160.526 157.957 158.854 159.575 160.414 161.039 156.857 157.765 
158.503 159.416 160.13 160.913 161.546 155.929 156.719 157.515 158.392 
159.263 160.088 160.878 161.553 162.274 155.434 156.022 156.823 157.525 
158.436 159.296 160.268 161.024 161.863 162.437 163.173 155.219 155.734 
156.501 157.001 157.761 158.492 159.441 160.355 161.311 162.062 162.818 
163.353 163.963 154.968 155.516 156.29 156.761 157.43 157.93 158.706 
159.485 160.421 161.333 162.157 162.891 163.46 163.997 164.413 154.734 
155.217 155.968 156.495 157.185 157.651 158.333 158.888 159.689 160.442 
161.26 162.064 162.693 163.357 163.759 164.279 164.568 154.638 155 
155.651 156.136 156.789 157.312 157.955 158.512 159.204 159.826 160.536 
161.216 161.85 162.523 163.007 163.58 163.916 164.384 164.649 160.524 
161.194 161.155 161.669 161.733 161.777 162.342 162.272 162.788 162.274 
162.335 163.05 163.012 163.662 163.507 164.106 162.962 162.969 163.797 
163.816 164.616 164.499 165.194 164.956 165.498 163.767 163.72 164.509 
164.577 165.398 165.417 166.133 166.027 166.562 166.271 166.579 164.512 
164.497 165.203 165.262 166.007 166.074 166.762 166.803 167.379 167.245 
167.56 167.185 167.331 164.957 165.09 165.768 165.895 166.598 166.651 
167.293 167.337 167.955 167.957 168.384 168.121 168.27 167.855 167.985 
165.081 165.337 165.976 166.273 166.952 167.149 167.728 167.819 168.347 
168.439 168.876 168.819 168.988 168.702 168.745 168.444 168.571 165.108 
165.356 165.917 166.281 166.886 167.259 167.77 168.041 168.442 168.656 
168.981 169.108 169.247 169.183 169.159 169.007 169.019 168.885 168.931 
160.291 161.477 160.73 160.413 162.598 161.89 161.628 160.898 160.637 
163.831 163.042 162.765 162.059 161.796 161.104 160.837 165.127 164.31 
163.934 163.179 162.867 162.19 161.894 161.233 160.934 166.183 165.504 
165.086 164.334 163.93 163.218 162.866 162.218 161.869 161.247 160.909 
166.969 166.427 166.09 165.428 165.019 164.275 163.838 163.141 162.717 
162.092 161.672 161.111 160.737 167.693 167.201 166.93 166.36 165.973 
165.295 164.797 164.086 163.59 162.919 162.464 161.841 161.44 160.896 
160.573 168.352 167.933 167.629 167.118 166.639 166.064 165.484 164.896 
164.372 163.779 163.352 162.709 162.34 161.694 161.391 160.814 160.572 
168.735 168.469 168.091 167.671 167.068 166.548 165.878 165.389 164.877 
164.449 164.108 163.605 163.286 162.665 162.343 161.715 161.435 160.868 
160.622 167.563 167.904 167.726 167.738 168.274 168.059 167.997 167.854 
167.857 168.553 168.37 168.296 168.136 168.131 167.994 167.983 168.812 
168.617 168.578 168.439 168.464 168.315 168.286 168.091 167.955 169.104 
168.911 168.882 168.744 168.807 168.665 168.596 168.366 168.135 167.919 
167.625 169.225 169.158 169.117 169.034 169.076 168.986 168.88 168.632 
168.284 168.018 167.644 167.467 167.102 169.155 169.19 169.17 169.163 
169.17 169.166 169.071 168.875 168.514 168.171 167.741 167.48 167.114 
166.912 166.513 169.098 169.137 169.162 169.159 169.18 169.198 169.174 
169.052 168.814 168.472 168.098 167.71 167.347 167.012 166.626 166.329 
165.897 169.037 169.103 169.131 169.152 169.192 169.222 169.253 169.187 
169.053 168.803 168.515 168.152 167.807 167.39 166.98 166.55 166.092 
165.737 165.313 
POINT_DATA 1002
SCALARS Distance double
LOOKUP_TABLE default
153.891 154.353 153.654 153.414 153.131 153.398 153.05 152.778 153.1 
153.047 152.663 152.465 152.777 152.785 153.003 152.287 152.215 152.447 
152.471 152.645 152.968 152.1 152.113 152.331 152.331 152.286 152.527 
152.605 152.103 152.168 152.345 152.352 152.053 152.03 152.146 151.969 
152.277 152.405 152.319 152.213 151.789 151.494 151.514 151.434 151.228 
152.593 152.761 152.349 151.956 151.449 151.024 150.866 150.812 150.671 
150.617 152.86 153.042 152.444 151.804 151.207 150.769 150.462 150.316 
150.26 150.229 150.327 154.333 153.462 154.435 153.381 154.694 152.823 
153.385 154.89 152.484 152.461 153.533 155.178 152.18 152.011 152.331 
154.34 155.957 152.564 151.74 152.165 152.4 155.693 157.069 154.03 
152.5 152.237 152.673 152.514 156.844 158.126 155.588 154.11 153.035 
152.987 153.016 152.609 157.692 159.048 156.558 155.491 154.305 153.592 
153.44 153.152 152.803 158.553 159.871 157.371 156.489 155.561 154.578 
154.008 153.698 153.321 153.077 159.921 158.686 160.133 159.093 160.408 
157.687 159.467 160.572 158.231 156.881 159.624 160.64 158.535 157.291 
155.873 159.728 160.584 158.634 157.427 156.137 154.909 159.721 160.387 
158.781 157.573 156.355 155.265 154.355 159.584 160.277 158.809 157.787 
156.653 155.629 154.708 153.912 159.545 160.334 158.757 157.866 156.844 
155.837 154.909 154.089 153.481 159.596 160.372 158.791 157.913 156.883 
155.783 154.789 154.006 153.5 153.233 153.004 153.05 152.579 153.145 
152.583 151.951 153.539 152.652 152.125 151.472 154.385 153.05 152.36 
151.877 151.153 155.642 154.046 152.854 152.301 151.689 150.98 156.999 
155.567 153.945 152.892 152.264 151.617 151.168 158.114 157.051 155.501 
153.995 153.015 152.352 151.888 151.672 158.996 158.157 156.949 155.492 
154.218 153.339 152.765 152.435 152.218 159.805 159.058 158.108 156.945 
155.707 154.656 153.914 153.42 153.058 152.723 152.601 151.912 151.86 
151.218 151.13 151.134 150.777 150.646 150.664 150.693 150.517 150.339 
150.332 150.316 150.314 150.594 150.209 150.036 149.934 149.902 150.018 
151.056 150.42 149.958 149.753 149.728 149.824 149.993 151.584 150.811 
150.084 149.742 149.76 149.891 150.002 150.072 152.044 151.238 150.381 
149.841 149.745 149.834 149.965 150.084 150.161 152.832 152.041 153.118 
152.36 153.732 151.154 153.054 154.449 151.564 150.383 153.714 155.044 
152.308 150.916 149.985 154.303 155.712 152.943 151.626 150.381 149.791 
155.128 156.502 153.645 152.307 150.958 149.921 149.749 155.988 157.153 
154.552 153.107 151.813 150.625 149.978 149.982 156.638 157.648 155.406 
153.978 152.749 151.79 150.974 150.475 150.27 157.229 158.172 156.184 
154.909 153.686 152.856 152.193 151.48 150.879 150.491 153.571 153.828 
154.66 155.06 155.817 154.297 156.434 157.029 155.677 155.008 157.932 
158.476 157.298 156.448 155.715 159.286 159.853 158.908 158.134 157.126 
156.357 160.141 160.862 159.856 159.554 158.682 157.744 157.085 161.001 
161.993 160.346 160.237 159.971 159.23 158.458 157.793 162.42 163.466 
161.352 160.867 160.88 160.635 159.956 159.146 158.351 163.939 164.75 
162.871 162.053 161.869 161.844 161.374 160.563 159.686 158.857 160.801 
160.158 161.24 160.659 161.854 159.365 161.311 162.617 159.88 158.398 
161.786 163.21 160.335 158.795 157.238 162.002 163.56 160.559 159.051 
157.51 156.054 162.299 163.897 160.923 159.459 157.793 156.38 155.141 
162.766 164.3 161.467 160.201 158.463 156.83 155.668 154.54 163.208 
164.632 161.841 160.745 159.311 157.586 156.261 155.184 154.052 161.164 
161.678 162.034 162.64 162.992 162.174 163.668 163.87 163.21 162.895 
164.47 164.512 164.267 163.972 163.821 164.983 165.233 165.03 164.899 
164.851 164.592 165.715 166.361 165.593 165.588 165.517 165.569 165.077 
166.825 167.604 166.283 166.2 166.11 166.062 166.008 165.388 167.87 
168.505 167.03 166.672 166.711 166.607 166.408 166.145 165.565 168.558 
168.966 167.706 167.032 167.028 167.184 166.916 166.451 166.067 165.582 