# vtk DataFile Version 4.0
vtk output
ASCII
DATASET POLYDATA
POINTS 1002 float
-77.4908 -112.395 73.2768 -77.0028 -113.371 73.0215 -77.2267 -113.051 72.1504 
-77.7283 -111.89 72.3691 -77.5934 -112.739 71.1094 -77.9381 -111.095 73.6156 
-78.0374 -111.258 71.3053 -77.9966 -112.217 70.0229 -78.1991 -110.344 72.6624 
-78.425 -109.512 74.1588 -78.3528 -110.464 70.2934 -78.3973 -111.459 69.0938 
-78.5352 -109.546 71.6779 -78.8938 -108.836 73.2755 -79.2028 -108.111 74.7659 
-78.8811 -109.768 69.5069 -78.9916 -110.773 68.401 -79.0366 -108.88 70.8391 
-79.5068 -108.296 72.4519 -79.9402 -107.705 74.0235 -80.1405 -106.907 75.2609 
-79.807 -109.289 68.921 -79.8716 -110.239 67.8941 -79.934 -108.436 70.1957 
-80.3025 -107.828 71.6843 -80.6739 -107.196 73.2253 -80.844 -106.341 74.5502 
-80.8728 -105.437 75.656 -80.8088 -108.692 68.4353 -80.8093 -109.606 67.5157 
-80.9935 -107.898 69.6753 -81.2438 -107.235 71.0376 -81.3802 -106.433 72.3741 
-81.385 -105.44 73.6562 -81.3758 -104.503 74.8458 -81.3948 -103.752 75.9459 
-81.6689 -107.895 68.0524 -81.7213 -108.861 67.2815 -81.8226 -107.089 69.1814 
-82.0437 -106.424 70.5011 -82.1116 -105.587 71.726 -81.9993 -104.524 72.8425 
-81.9023 -103.562 73.9602 -81.8946 -102.829 75.0782 -81.8926 -102.212 76.1218 
-82.6275 -107.224 67.877 -82.7279 -108.204 67.2326 -82.6432 -106.367 68.7905 
-82.7544 -105.645 69.9646 -82.8675 -104.854 71.1921 -82.8547 -103.89 72.301 
-82.7306 -102.944 73.2998 -82.6217 -102.18 74.304 -82.5393 -101.52 75.324 
-82.4389 -100.915 76.2842 -83.7473 -106.76 67.9032 -83.7926 -107.67 67.3183 
-83.6947 -105.923 68.6313 -83.6549 -105.12 69.5379 -83.6985 -104.276 70.6096 
-83.7879 -103.404 71.7532 -83.7468 -102.541 72.7839 -83.5546 -101.731 73.691 
-83.3457 -101.001 74.6221 -83.1687 -100.352 75.5773 -83.014 -99.8335 76.4828 
-76.7029 -114.169 72.0637 -76.9681 -113.894 70.9765 -76.5814 -115.139 70.6791 
-76.6879 -114.681 69.3905 -76.4088 -115.984 69.2067 -77.3625 -113.598 69.8017 
-76.1656 -115.266 67.7864 -75.9411 -116.65 68.0462 -76.8823 -114.177 68.1273 
-77.8205 -113.05 68.703 -75.6312 -116.012 66.4437 -75.6097 -117.566 67.0844 
-76.1749 -114.703 66.3818 -77.3033 -113.575 67.0425 -78.3315 -112.281 67.8531 
-75.8435 -117.157 65.486 -76.0086 -118.656 66.3985 -75.9916 -115.708 64.9656 
-76.8053 -114.254 65.333 -78.0406 -112.878 66.3706 -79.0805 -111.588 67.3074 
-76.8829 -118.114 65.368 -76.9852 -119.384 66.3697 -76.8692 -116.816 64.5376 
-77.1791 -115.285 64.3435 -78.0424 -113.58 65.0273 -79.1803 -112.186 66.1309 
-80.1063 -111.004 66.9771 -78.0998 -118.612 65.9299 -78.1402 -119.819 66.682 
-78.1656 -117.341 65.2331 -78.3282 -116.006 64.6816 -78.7673 -114.355 64.5491 
-79.6202 -112.736 65.1041 -80.5301 -111.554 66.0173 -81.1777 -110.353 66.7461 
-79.2371 -119.045 66.3007 -79.3659 -120.242 66.7924 -79.2519 -117.618 65.9611 
-79.4138 -116.305 65.55 -79.7356 -114.959 64.9376 -80.3431 -113.371 64.5932 
-81.1316 -111.992 65.0177 -81.7543 -110.912 65.8741 -82.2077 -109.643 66.6251 
-80.3948 -119.5 66.2662 -80.5987 -120.55 66.7534 -80.261 -118.094 66.0027 
-80.3024 -116.745 65.7577 -80.5627 -115.593 65.2015 -81.0589 -114.193 64.4636 
-81.735 -112.578 64.2534 -82.3494 -111.303 64.878 -82.79 -110.237 65.8377 
-83.2329 -108.983 66.6613 -81.683 -120.077 66.4344 -81.4826 -118.927 65.8854 
-82.7956 -119.379 66.2673 -82.7122 -118.326 65.4985 -83.9535 -118.641 66.2184 
-81.3705 -117.615 65.4476 -84.0631 -117.689 65.3001 -85.1401 -117.866 66.2364 
-82.7717 -117.287 64.7187 -81.4993 -116.494 64.9323 -85.2881 -116.751 65.4567 
-86.2495 -116.914 66.3373 -84.2802 -116.584 64.486 -83.0776 -116.155 64.0486 
-81.9055 -115.228 64.2522 -86.2629 -115.552 65.8684 -87.2623 -115.76 66.615 
-85.4473 -115.276 64.969 -84.6558 -114.994 64.0587 -83.5536 -114.342 63.6615 
-82.4886 -113.375 63.8063 -87.2922 -114.306 66.4403 -88.3232 -114.453 67.1185 
-86.372 -113.945 65.7127 -85.7931 -113.503 64.8118 -85.041 -112.904 64.0498 
-83.9698 -112.173 63.814 -83.0424 -111.607 64.1541 -88.623 -113.003 67.0515 
-89.5485 -113.154 67.594 -87.5905 -112.756 66.4498 -86.8202 -112.392 65.687 
-86.156 -111.825 64.9303 -85.2294 -111.141 64.5385 -84.2462 -110.647 64.6526 
-83.4639 -110.412 65.1689 -90.1453 -111.759 67.3486 -90.8975 -112.079 67.7292 
-89.1824 -111.47 66.9667 -88.2139 -111.247 66.4591 -87.3307 -110.942 65.8707 
-86.383 -110.442 65.4992 -85.4067 -109.915 65.5018 -84.5895 -109.542 65.7942 
-83.9025 -109.271 66.2302 -91.6227 -110.752 67.2525 -92.1908 -111.23 67.6088 
-90.8356 -110.254 67.0387 -89.8766 -109.866 66.8599 -88.8351 -109.589 66.597 
-87.7554 -109.299 66.3564 -86.7152 -108.928 66.3056 -85.8371 -108.535 66.447 
-85.1265 -108.201 66.7158 -84.4669 -107.927 67.0316 -84.8749 -106.556 67.7836 
-85.5946 -106.629 67.4538 -85.9498 -105.301 68.1905 -86.3295 -106.752 67.116 
-86.7354 -105.121 67.711 -86.906 -103.891 68.4896 -87.1904 -106.964 66.8961 
-87.6411 -105.023 67.2761 -87.8387 -103.643 67.927 -87.8835 -102.484 68.8193 
-88.2439 -107.209 66.8127 -88.7178 -105.028 67.0214 -88.9159 -103.476 67.4445 
-88.9295 -102.342 68.3482 -88.9124 -101.089 69.1785 -89.4533 -107.518 66.8148 
-89.9567 -105.195 66.8638 -90.133 -103.39 67.0551 -90.0354 -102.185 67.8483 
-89.9352 -100.92 68.7591 -89.8086 -99.5696 69.3431 -90.6724 -107.998 66.8381 
-91.288 -105.745 66.7553 -91.5114 -103.634 66.7484 -91.3401 -102.112 67.3157 
-91.0921 -100.794 68.2373 -90.8972 -99.3604 68.8778 -90.631 -98.1993 69.4668 
-91.7228 -108.651 66.8339 -92.4527 -106.667 66.7412 -92.8153 -104.436 66.7308 
-92.7524 -102.46 67.0463 -92.4837 -100.918 67.8228 -92.2148 -99.475 68.5277 
-91.9131 -98.1756 69.0739 -91.5479 -97.3389 69.9336 -92.5198 -109.381 66.9187 
-93.2557 -107.676 66.8587 -93.6798 -105.567 67.0486 -93.7964 -103.328 67.3144 
-93.7256 -101.443 67.8164 -93.5459 -99.9326 68.4845 -93.2463 -98.5785 69.013 
-92.861 -97.5225 69.6648 -92.4758 -96.8773 70.6906 -93.0679 -110.051 67.2445 
-93.7589 -108.562 67.175 -94.1424 -106.678 67.5081 -94.3262 -104.482 67.9001 
-94.4879 -102.363 68.2019 -94.5741 -100.637 68.6622 -94.4171 -99.2126 69.1998 
-94.0403 -98.0149 69.708 -93.6217 -97.1493 70.4486 -93.2587 -96.5654 71.4532 
-84.8723 -105.705 68.4483 -85.8852 -104.418 68.9196 -84.7641 -104.834 69.1898 
-86.7721 -102.839 69.2584 -85.6922 -103.333 69.6274 -84.6473 -103.824 70.0208 
-87.7649 -101.273 69.5476 -86.5463 -101.61 69.9408 -85.5231 -102.178 70.4145 
-84.662 -102.841 71.0628 -88.7739 -99.8005 69.779 -87.5264 -100.102 70.2317 
-86.3289 -100.572 70.7872 -85.4539 -101.267 71.4733 -84.676 -101.991 72.2039 
-89.579 -98.3905 70.0212 -88.4602 -98.7314 70.5863 -87.2449 -99.148 71.211 
-86.1485 -99.7106 71.9008 -85.293 -100.412 72.5764 -84.4699 -101.128 73.1936 
-90.381 -97.3414 70.5419 -89.2117 -97.5135 71.1241 -88.103 -97.7763 71.6909 
-86.9918 -98.203 72.3577 -85.9067 -98.7817 72.9929 -84.9704 -99.4821 73.5628 
-84.1491 -100.274 74.1263 -91.3647 -96.7163 71.3205 -90.0583 -96.6553 71.8425 
-88.8179 -96.658 72.225 -87.7794 -96.9046 72.7737 -86.7334 -97.4184 73.4575 
-85.6194 -98.0148 74.0358 -84.6648 -98.7356 74.5818 -83.8911 -99.5769 75.1255 
-92.3585 -96.2619 72.0736 -91.1135 -96.01 72.5506 -89.6741 -95.8195 72.8095 
-88.4559 -95.9039 73.2136 -87.5055 -96.3812 73.9215 -86.4642 -96.9736 74.5835 
-85.3506 -97.5502 75.0975 -84.4401 -98.2716 75.6205 -83.7017 -99.0847 76.105 
-93.4554 -96.0291 72.5673 -92.4902 -95.5299 73.1049 -93.5174 -95.4181 73.7022 
-92.4258 -94.7148 74.1039 -93.3154 -95.0455 74.9035 -91.0591 -95.1008 73.4206 
-92.0893 -94.4289 75.3569 -92.9166 -95.3089 76.2023 -90.8514 -94.3042 74.5527 
-89.4718 -94.9861 73.7921 -91.6037 -95.0298 76.8006 -92.5261 -96.0102 77.5471 
-90.5112 -94.2978 76.1563 -89.3 -94.5029 75.379 -88.2652 -95.4027 74.541 
-91.1664 -95.9031 78.176 -92.1819 -96.5709 78.9496 -90.1077 -95.0857 77.6648 
-89.1033 -94.6734 77.1627 -88.1208 -95.1387 76.2867 -87.2487 -96.079 75.3161 
-90.8441 -96.4496 79.6014 -91.8003 -96.9777 80.3742 -89.7568 -95.9057 78.9149 
-88.7608 -95.3008 78.4799 -87.7967 -95.129 77.8298 -86.85 -95.7463 76.7836 
-86.0359 -96.6743 75.8106 -90.5783 -96.9044 81.1242 -91.4303 -97.5059 81.6872 
-89.5279 -96.465 80.3633 -88.4119 -95.993 79.7165 -87.3175 -95.5196 79.138 
-86.2947 -95.6376 78.2157 -85.4967 -96.4315 77.1338 -84.909 -97.3573 76.2787 
-90.3262 -97.4817 82.5029 -91.1581 -98.084 82.8417 -89.3319 -97.0179 81.9195 
-88.1897 -96.6458 81.2016 -87.0113 -96.2447 80.5443 -85.9301 -96.1224 79.7442 
-85.0963 -96.6131 78.6683 -84.5166 -97.412 77.6256 -84.0677 -98.2106 76.7962 
-90.0862 -98.0661 83.5969 -90.9406 -98.6079 83.8205 -89.0974 -97.6118 83.2085 
-87.9959 -97.2809 82.594 -86.8873 -97.0369 81.8708 -85.8861 -96.9737 81.1055 
-85.0447 -97.2793 80.1833 -84.353 -97.8302 79.1184 -83.7795 -98.3926 78.0928 
-83.3323 -99.0274 77.214 -94.1461 -96.6976 71.5757 -94.3144 -96.2543 72.814 
-95.1232 -97.0096 71.8736 -95.2527 -96.715 73.3137 -96.1661 -97.5064 72.4395 
-94.2712 -95.8944 74.2257 -96.2129 -97.3206 74.0803 -96.7869 -98.3259 73.2559 
-95.0804 -96.5728 74.9656 -93.9628 -95.853 75.6676 -96.7432 -98.2413 74.9759 
-96.7863 -99.6676 74.1939 -95.9581 -97.3229 75.8026 -94.7119 -96.6824 76.527 
-93.6218 -96.2409 77.0544 -96.7949 -99.6961 75.8869 -96.7244 -101.378 75.0793 
-96.5481 -98.4209 76.6863 -95.644 -97.5606 77.4172 -94.4722 -96.9982 78.0163 
-93.3734 -96.7342 78.4865 -96.7629 -101.458 76.716 -96.8459 -103.066 75.8208 
-96.6792 -99.9704 77.6059 -96.3583 -98.7982 78.3825 -95.4651 -97.886 79.0489 
-94.245 -97.3728 79.5435 -93.0046 -97.1668 79.9336 -96.7643 -103.216 77.417 
-96.8691 -104.613 76.4895 -96.5872 -101.733 78.3952 -96.5086 -100.355 79.2461 
-96.1348 -99.1484 79.9789 -95.0931 -98.2952 80.5403 -93.7455 -97.9343 80.8691 
-92.5036 -97.739 81.2071 -96.7631 -104.873 78.046 -96.7755 -106.083 77.1573 
-96.5933 -103.552 79.0003 -96.4035 -102.139 79.8293 -96.1793 -100.759 80.5338 
-95.5379 -99.621 81.1945 -94.4168 -98.9713 81.65 -93.199 -98.6679 81.9417 
-92.1198 -98.379 82.341 -96.738 -106.345 78.584 -96.6931 -107.426 77.753 
-96.6982 -105.234 79.4737 -96.451 -103.994 80.2478 -96.016 -102.638 80.8377 
[...]
CELL_DATA 2000
SCALARS Distance double
LOOKUP_TABLE default
153.995 153.417 153.655 153.531 152.75 152.987 152.753 153.059 152.891 
151.974 152.202 151.904 152.218 152.094 152.46 152.439 151.351 151.453 
151.209 151.432 151.449 151.797 151.977 152.252 152.336 151.088 151.045 
150.92 150.982 151.104 151.349 151.613 151.892 152.005 152.173 152.076 
150.953 150.91 150.817 150.869 150.96 151.133 151.257 151.492 151.44 
151.673 151.436 151.671 151.404 150.765 150.734 150.565 150.691 150.691 
150.908 150.885 151.061 150.852 150.995 150.682 150.89 150.617 150.896 
150.681 150.721 150.578 150.38 150.399 150.357 150.524 150.503 150.647 
150.491 150.519 150.276 150.295 150.112 150.225 150.103 150.28 150.15 
150.919 150.684 150.533 150.372 150.319 150.286 150.273 150.324 150.276 
150.299 150.185 150.133 149.996 149.955 149.846 149.881 149.783 149.875 
149.781 154.107 154.091 153.912 153.563 153.966 153.808 153.425 153.36 
152.977 153.666 153.497 152.966 153.052 152.736 152.726 152.272 153.526 
153.141 152.449 152.443 152.103 152.311 152.047 152.019 151.618 153.993 
153.269 152.559 152.124 151.718 151.703 151.562 151.699 151.553 151.501 
151.277 154.973 154.096 153.509 152.697 152.285 151.742 151.562 151.398 
151.405 151.424 151.411 151.316 151.17 156.063 155.239 154.758 153.905 
153.519 152.711 152.415 151.809 151.7 151.46 151.536 151.468 151.462 
151.258 151.073 157.084 156.341 155.87 155.112 154.701 153.961 153.59 
152.853 152.532 151.985 151.881 151.67 151.712 151.571 151.495 151.201 
151.036 157.993 157.322 156.822 156.114 155.642 154.987 154.6 153.943 
153.551 152.877 152.544 152.094 151.984 151.811 151.799 151.624 151.541 
151.247 151.168 158.292 158.294 157.914 157.115 158.308 157.905 157.106 
156.696 155.931 158.392 157.977 157.228 156.759 156.015 155.596 154.919 
158.4 158.057 157.348 156.933 156.209 155.758 155.031 154.611 153.899 
158.26 157.985 157.252 156.957 156.222 155.887 155.093 154.687 153.864 
153.496 152.814 158.119 157.832 157.105 156.8 156.071 155.786 155.009 
154.649 153.803 153.424 152.732 152.491 152.11 158.075 157.769 157.134 
156.756 156.105 155.725 155.066 154.635 153.924 153.452 152.846 152.506 
152.178 152.024 151.886 158.116 157.809 157.254 156.884 156.308 155.906 
155.344 154.884 154.311 153.782 153.267 152.803 152.48 152.195 152.027 
151.872 151.703 158.202 157.897 157.361 157.024 156.46 156.113 155.553 
155.186 154.626 154.211 153.681 153.267 152.849 152.526 152.242 152.028 
151.802 151.631 151.391 151.285 151.671 151.395 151.231 152.1 151.755 
151.486 151.237 151.008 152.688 152.223 151.868 151.475 151.167 150.948 
150.733 153.459 152.884 152.463 151.911 151.523 151.171 150.971 150.752 
150.574 154.359 153.723 153.267 152.583 152.111 151.602 151.339 151.058 
150.882 150.617 150.324 155.316 154.683 154.291 153.512 153.02 152.303 
151.947 151.491 151.276 150.947 150.648 150.29 149.939 156.27 155.687 
155.433 154.67 154.266 153.394 152.989 152.259 152.006 151.48 151.254 
150.751 150.47 150.016 149.87 157.203 156.677 156.528 155.868 155.582 
154.742 154.341 153.46 153.136 152.412 152.229 151.597 151.42 150.796 
150.678 150.206 150.29 158.08 157.618 157.518 156.955 156.742 156.029 
155.671 154.823 154.44 153.634 153.398 152.717 152.578 151.913 151.785 
151.174 151.164 150.752 150.906 151.007 151.029 150.916 150.676 150.866 
150.894 150.715 150.611 150.415 150.547 150.62 150.436 150.502 150.302 
150.319 150.211 150.291 150.281 149.999 150.08 149.871 150.026 149.944 
150.111 150.126 150.004 150.012 149.685 149.681 149.44 149.55 149.504 
149.743 149.823 150.039 150.075 149.64 149.67 149.412 149.419 149.2 
149.226 149.137 149.306 149.358 149.637 149.696 149.918 149.891 149.607 
149.454 149.28 149.209 149.046 149.032 148.911 148.991 148.938 149.136 
149.13 149.411 149.417 149.675 149.672 150.071 149.724 149.577 149.287 
149.096 148.927 148.778 148.777 148.718 148.8 148.769 148.901 148.916 
149.151 149.228 149.491 149.567 150.714 150.34 150.174 149.758 149.465 
149.094 148.836 148.689 148.648 148.678 148.735 148.743 148.778 148.819 
148.916 149.09 149.241 149.456 149.578 151.029 151.235 150.916 150.434 
151.356 150.998 150.387 150.143 149.59 151.698 151.13 150.42 150.034 
149.446 149.245 148.864 152.443 151.663 150.962 150.286 149.747 149.291 
149.007 148.78 148.711 153.345 152.548 151.895 151.09 150.581 149.914 
149.641 149.189 149.11 148.86 148.853 154.175 153.452 152.83 152.071 
151.525 150.841 150.426 149.893 149.616 149.285 149.128 148.947 148.863 
154.998 154.303 153.752 153.002 152.454 151.737 151.223 150.596 150.146 
149.699 149.414 149.175 149.065 148.934 148.946 155.843 155.186 154.72 
153.98 153.48 152.704 152.207 151.443 151.001 150.331 150.058 149.589 
149.531 149.245 149.303 149.135 149.256 156.62 156.036 155.608 154.949 
154.478 153.749 153.28 152.514 152.13 151.382 151.167 150.515 150.474 
149.959 149.997 149.627 149.688 149.485 149.593 151.408 152.213 151.773 
151.713 153.303 152.717 152.682 152.117 151.998 154.584 153.939 153.921 
153.249 153.185 152.498 152.424 155.884 155.256 155.281 154.591 154.546 
153.813 153.79 153.088 153.142 157.262 156.589 156.677 155.997 156.026 
155.265 155.26 154.518 154.584 153.91 154.009 158.749 158.035 158.133 
157.448 157.577 156.835 156.893 156.078 156.112 155.36 155.424 154.747 
154.807 160.179 159.52 159.597 158.924 159.052 158.39 158.5 157.745 
157.747 156.928 156.902 156.15 156.165 155.498 155.561 161.482 160.904 
161.023 160.375 160.467 159.816 159.883 159.229 159.208 158.481 158.385 
157.624 157.566 156.858 156.885 156.255 156.349 162.655 162.162 162.334 
161.773 161.881 161.222 161.216 160.527 160.437 159.771 159.655 158.995 
158.915 158.246 158.235 157.582 157.632 157.029 157.108 158.525 159.007 
158.522 157.977 159.431 158.958 158.367 157.872 157.199 159.894 159.369 
158.748 158.219 157.486 156.962 156.147 160.499 159.887 159.244 158.63 
157.865 157.251 156.393 155.815 154.956 161.112 160.493 159.783 159.146 
158.345 157.678 156.802 156.132 155.271 154.674 153.922 161.567 160.993 
160.202 159.611 158.758 158.13 157.236 156.576 155.702 155.067 154.293 
153.746 153.083 161.922 161.359 160.563 159.98 159.139 158.508 157.62 
156.977 156.111 155.496 154.698 154.129 153.417 152.918 152.284 162.278 
161.719 160.983 160.391 159.633 158.963 158.125 157.413 156.588 155.929 
155.183 154.567 153.869 153.287 152.662 152.159 151.649 162.644 162.12 
161.45 160.873 160.18 159.532 158.761 158.023 157.239 156.515 155.834 
155.16 154.538 153.863 153.272 152.653 152.179 151.679 151.348 158.905 
159.604 159.333 159.437 160.358 160.076 160.25 159.883 159.925 161.265 
160.922 161.149 160.759 160.852 160.385 160.416 162.213 161.86 162.078 
161.71 161.83 161.363 161.431 160.951 161.041 163.096 162.724 162.877 
162.583 162.714 162.328 162.415 161.985 162.13 161.666 161.743 164.084 
163.594 163.699 163.353 163.509 163.164 163.274 162.911 163.097 162.746 
162.92 162.381 162.324 165.177 164.633 164.713 164.268 164.439 164.026 
164.13 163.724 163.874 163.61 163.87 163.531 163.6 162.931 162.738 
166.131 165.656 165.668 165.268 165.404 165.02 165.083 164.607 164.594 
164.267 164.443 164.31 164.503 164.132 164.033 163.308 163.052 166.923 
166.484 166.395 166.053 166.116 165.867 165.93 165.531 165.398 164.937 
164.865 164.698 164.84 164.778 164.802 164.428 164.206 163.554 163.305 
167.326 167.679 167.221 166.729 167.939 167.534 167.052 166.706 166.434 
168.048 167.746 167.335 167.046 166.797 166.531 166.277 168.086 167.833 
167.471 167.275 167.027 166.838 166.511 166.216 165.736 168.043 167.869 
167.475 167.332 167.073 166.964 166.621 166.356 165.839 165.513 165.103 
167.676 167.712 167.33 167.267 167.007 166.956 166.69 166.464 166.003 
165.643 165.262 165.047 164.951 167.108 167.253 166.995 167.035 166.813 
166.848 166.654 166.547 166.157 165.84 165.401 165.183 164.996 164.979 
164.892 166.767 166.827 166.684 166.706 166.506 166.572 166.363 166.41 
166.039 165.893 165.375 165.2 164.844 164.858 164.67 164.72 164.408 
166.644 166.66 166.53 166.494 166.253 166.242 165.949 166.004 165.623 
165.611 165.11 165.02 164.605 164.604 164.377 164.428 164.168 164.098 
163.646 166.49 165.965 166.328 166.352 165.153 165.676 165.774 166.086 
166.022 164.273 164.85 165.033 165.434 165.402 165.678 165.616 163.313 
163.968 164.225 164.713 164.733 165.022 164.904 165.222 165.173 162.171 
162.905 163.164 163.829 163.909 164.325 164.2 164.491 164.369 164.734 
164.682 160.99 161.684 161.869 162.615 162.703 163.332 163.277 163.729 
163.666 164.016 164.016 164.318 164.331 159.873 160.499 160.611 161.287 
161.335 162.005 161.991 162.635 162.687 163.266 163.397 163.798 163.891 
164.123 164.17 158.766 159.364 159.429 160.051 160.077 160.685 160.675 
161.311 161.386 162.118 162.317 163.016 163.162 163.636 163.63 163.932 
163.879 157.687 158.237 158.261 158.855 158.879 159.478 159.503 160.091 
160.163 160.822 160.98 161.743 161.888 162.608 162.594 163.142 162.99 
163.424 163.262 166.415 165.949 166.099 165.81 165.297 165.477 165.122 
165.305 164.936 164.686 164.825 164.495 164.612 164.24 164.382 164.021 
164.05 164.256 164.015 164.114 163.775 163.784 163.362 163.457 163.053 
163.12 163.492 163.267 163.583 163.28 163.372 162.879 162.859 162.319 
162.418 161.944 162.019 162.408 162.123 162.61 162.328 162.681 162.194 
162.3 161.667 161.706 161.128 161.268 160.801 161.047 161.323 160.984 
161.396 161.108 161.554 161.135 161.423 160.815 160.953 160.319 160.456 
159.926 160.132 159.695 160.183 160.411 160.015 160.312 159.955 160.339 
159.942 160.292 159.753 159.988 159.364 159.556 158.982 159.215 158.74 
159.014 158.595 159.308 159.543 159.102 159.345 158.896 159.208 158.773 
159.122 158.644 158.925 158.361 158.565 157.989 158.215 157.726 158.017 
157.612 157.916 157.538 166.555 166.679 166.532 166.241 166.918 166.736 
166.518 166.171 165.698 167.166 167.013 166.812 166.5 166.042 165.588 
165.047 167.14 167.113 166.86 166.712 166.269 165.912 165.326 164.915 
164.348 166.855 166.892 166.572 166.565 166.149 166.001 165.464 165.146 
164.519 164.132 163.462 166.518 166.552 166.22 166.203 165.795 165.748 
165.291 165.155 164.592 164.273 163.567 163.143 162.412 166.114 166.194 
165.874 165.866 165.437 165.385 164.919 164.873 164.364 164.219 163.568 
163.234 162.49 162.092 161.423 165.588 165.712 165.357 165.439 164.986 
164.993 164.486 164.465 163.945 163.891 163.296 163.119 162.418 162.122 
161.423 161.121 160.517 165.001 165.11 164.69 164.813 164.351 164.442 
163.951 163.988 163.484 163.462 162.912 162.801 162.16 161.954 161.264 
161.028 160.38 160.171 159.603 164.518 163.573 164.077 164.14 162.633 
163.114 163.166 163.689 163.777 161.636 162.163 162.181 162.703 162.774 
163.325 163.407 160.349 161.025 161.005 161.634 161.675 162.293 162.381 
162.945 162.984 158.913 159.623 159.644 160.349 160.427 161.124 161.243 
161.883 161.936 162.473 162.423 157.641 158.271 158.387 159.049 159.223 
159.896 160.063 160.713 160.768 161.352 161.264 161.797 161.646 156.507 
157.107 157.26 157.91 158.114 158.765 158.899 159.524 159.506 160.1 
159.942 160.522 160.318 160.908 160.732 155.474 156.024 156.173 156.809 
156.972 157.629 157.68 158.299 158.19 158.773 158.56 159.135 158.917 
159.52 159.363 159.985 159.869 154.663 155.089 155.224 155.757 155.885 
156.465 156.49 157.049 156.953 157.476 157.319 157.822 157.672 158.192 
158.094 158.662 158.611 159.196 159.139 154.327 153.896 154.351 154.822 
153.298 153.831 154.319 154.855 155.386 152.769 153.198 153.668 154.257 
154.783 155.377 155.902 152.484 152.73 153.059 153.569 154.097 154.723 
155.262 155.847 156.34 152.197 152.442 152.613 152.983 153.403 154.007 
154.584 155.213 155.734 156.275 156.732 151.657 152.045 152.24 152.563 
152.855 153.324 153.824 154.481 155.059 155.683 156.17 156.678 157.116 
150.95 151.418 151.71 152.145 152.454 152.841 153.228 153.741 154.289 
154.949 155.53 156.127 156.612 157.093 157.552 150.31 150.71 150.975 
151.507 151.874 152.386 152.773 153.227 153.696 154.244 154.845 155.471 
156.055 156.6 157.098 157.568 158.06 149.893 150.148 150.351 150.779 
151.146 151.709 152.16 152.712 153.186 153.715 154.266 154.847 155.444 
156.027 156.566 157.092 157.586 158.083 158.577 158.685 157.654 158.259 
158.441 156.584 157.177 157.294 157.953 158.164 155.471 156.07 156.143 
156.774 156.949 157.679 157.976 154.305 154.912 154.986 155.618 155.772 
156.472 156.754 157.527 157.846 153.151 153.72 153.761 154.42 154.565 
155.286 155.534 156.301 156.579 157.351 157.585 152.047 152.565 152.573 
153.201 153.346 154.051 154.271 155.032 155.261 156.041 156.244 157.016 
157.217 151.034 151.484 151.527 152.098 152.288 152.908 153.12 153.777 
153.977 154.7 154.915 155.679 155.928 156.694 156.977 150.264 150.581 
150.641 151.137 151.336 151.917 152.104 152.688 152.844 153.477 153.701 
154.417 154.736 155.483 155.843 156.571 156.915 149.798 149.966 149.963 
150.322 150.417 150.936 151.031 151.619 151.715 152.356 152.557 153.269 
153.609 154.36 154.761 155.496 155.873 156.563 156.883 158.519 157.621 
158.384 158.988 156.657 157.471 158.138 158.891 159.594 155.707 156.567 
157.386 158.142 158.949 159.647 160.465 154.875 155.712 156.692 157.506 
158.47 159.156 160.032 160.643 161.446 154.455 155.081 156.088 156.862 
157.902 158.696 159.651 160.299 161.091 161.626 162.337 154.503 154.908 
155.831 156.386 157.331 158.073 159.052 159.836 160.679 161.285 161.967 
162.483 163.148 154.608 154.976 155.773 156.223 157.019 157.571 158.451 
159.191 160.099 160.805 161.526 162.082 162.694 163.244 163.852 154.558 
154.917 155.566 156.055 156.746 157.26 157.996 158.634 159.493 160.219 
161.002 161.604 162.188 162.723 163.253 163.833 164.325 154.505 154.777 
155.319 155.751 156.387 156.895 157.548 158.135 158.869 159.589 160.358 
161.045 161.647 162.188 162.647 163.178 163.623 164.19 164.582 159.148 
159.668 159.694 160.239 160.312 160.29 160.929 160.853 161.41 161.168 
161.068 161.772 161.656 162.291 162.122 162.706 162.074 161.974 162.682 
162.58 163.243 163.07 163.669 163.474 163.997 162.904 162.822 163.485 
163.446 164.12 164.018 164.628 164.45 164.966 164.707 165.046 163.717 
163.619 164.238 164.186 164.857 164.831 165.501 165.399 165.957 165.701 
166.052 165.657 165.841 164.441 164.402 164.986 164.919 165.542 165.532 
166.223 166.218 166.838 166.678 167.075 166.705 166.909 166.44 166.583 
164.892 164.989 165.519 165.554 166.098 166.152 166.787 166.868 167.482 
167.457 167.891 167.669 167.919 167.528 167.67 167.192 167.256 165.096 
165.272 165.736 165.887 166.358 166.534 167.1 167.299 167.861 167.963 
168.375 168.328 168.613 168.425 168.602 168.237 168.253 167.748 167.612 
159.009 160.066 159.382 159.045 161.175 160.445 160.107 159.391 159.043 
162.435 161.616 161.233 160.453 160.085 159.391 159.07 163.702 162.908 
162.471 161.615 161.146 160.395 160.026 159.395 159.059 164.684 164.05 
163.603 162.818 162.26 161.444 160.953 160.286 159.916 159.319 158.936 
165.425 164.879 164.465 163.824 163.303 162.524 161.951 161.196 160.714 
160.101 159.7 159.131 158.742 166.154 165.596 165.201 164.616 164.157 
163.485 162.931 162.176 161.589 160.882 160.381 159.812 159.422 158.921 
158.603 166.785 166.293 165.849 165.315 164.803 164.23 163.668 163.04 
162.447 161.751 161.185 160.522 160.097 159.566 159.288 158.827 158.604 
167.083 166.748 166.236 165.828 165.244 164.753 164.137 163.625 163.073 
162.523 162.034 161.392 160.976 160.344 160.069 159.543 159.361 158.884 
158.699 166.675 166.791 166.715 166.742 167.211 166.953 166.975 166.84 
166.959 167.944 167.625 167.676 167.284 167.347 167.158 167.27 168.42 
168.358 168.486 168.124 168.09 167.705 167.687 167.441 167.364 168.478 
168.637 168.817 168.728 168.665 168.389 168.232 167.915 167.714 167.409 
167.147 168.506 168.683 168.925 168.901 168.877 168.731 168.586 168.364 
168.111 167.779 167.428 167.103 166.777 168.505 168.771 169.116 169.094 
169.108 168.916 168.807 168.623 168.434 168.144 167.762 167.379 166.952 
166.675 166.336 168.254 168.675 169.063 169.239 169.269 169.161 168.996 
168.834 168.643 168.427 168.07 167.695 167.198 166.838 166.422 166.196 
165.849 167.797 168.267 168.586 168.961 168.993 169.126 168.923 168.902 
168.639 168.542 168.177 167.92 167.405 167.058 166.577 166.3 165.931 
165.706 165.335 
POINT_DATA 1002
SCALARS Distance double
LOOKUP_TABLE default
153.942 154.289 153.759 153.267 153.232 153.388 152.469 152.556 152.528 
152.763 151.587 151.785 151.663 152.098 152.464 150.995 151.28 151.053 
151.639 152.201 152.349 150.867 151.124 150.906 151.362 151.844 151.977 
151.909 150.748 150.994 150.844 151.139 151.279 151.205 151.134 151.176 
150.467 150.842 150.49 150.749 150.775 150.51 150.338 150.385 150.487 
150.432 150.895 150.248 150.342 150.426 150.279 150.045 149.958 149.973 
149.994 150.731 151.137 150.442 150.274 150.211 150.2 150.082 149.867 
149.719 149.664 149.691 154.277 153.705 154.297 153.427 154.178 153.148 
152.891 153.934 152.586 152.481 152.602 154.045 151.859 151.872 151.797 
153.164 154.774 151.917 151.386 151.437 151.433 154.354 155.794 153.013 
151.929 151.38 151.409 151.397 155.573 156.826 154.352 153.196 152.127 
151.602 151.603 151.39 156.626 157.803 155.415 154.339 153.241 152.233 
151.814 151.724 151.377 157.54 158.639 156.303 155.211 154.253 153.163 
152.242 151.902 151.778 151.475 158.7 157.505 158.68 157.532 158.715 
156.283 157.687 158.777 156.467 155.299 157.712 158.714 156.65 155.513 
154.288 157.532 158.539 156.515 155.505 154.268 153.044 157.43 158.391 
156.359 155.346 154.183 152.968 152.193 157.492 158.348 156.485 155.475 
154.382 153.213 152.363 151.984 157.594 158.41 156.682 155.762 154.801 
153.757 152.838 152.244 151.86 157.694 158.506 156.802 155.903 155.002 
154.082 153.212 152.503 151.987 151.565 151.16 151.467 151.071 151.818 
151.179 150.779 152.358 151.437 150.893 150.534 153.093 151.95 151.191 
150.835 150.361 154.004 152.717 151.676 151.156 150.661 149.958 155.053 
153.828 152.524 151.648 151.032 150.258 149.608 156.114 155.14 153.837 
152.611 151.767 150.97 150.188 149.82 157.121 156.356 155.256 153.938 
152.865 152.061 151.235 150.615 150.44 158.043 157.395 156.481 155.283 
154.106 153.229 152.448 151.675 151.204 151.078 150.862 150.755 150.534 
150.334 150.225 150.154 149.983 149.688 149.708 149.976 149.699 149.379 
149.261 149.552 149.949 149.36 149.185 149.044 149.112 149.416 149.73 
149.4 149.088 148.873 148.824 148.886 149.094 149.435 149.958 149.38 
148.826 148.639 148.697 148.73 148.931 149.324 150.628 149.941 149.08 
148.607 148.703 148.809 148.802 149.02 149.385 151.386 150.739 151.585 
150.673 151.813 149.753 150.908 152.376 149.683 148.91 151.71 153.249 
150.275 149.291 148.829 152.689 154.102 151.291 150.184 149.454 149.054 
153.569 154.859 152.238 151.052 150.047 149.353 148.985 154.487 155.652 
153.205 151.925 150.695 149.702 149.195 149.022 155.423 156.458 154.253 
152.986 151.714 150.601 149.878 149.526 149.368 156.229 157.176 155.174 
154.012 152.846 151.835 151.07 150.479 149.992 149.707 151.765 152.173 
152.705 153.278 153.929 152.598 154.615 155.212 153.876 153.086 155.946 
156.499 155.287 154.481 153.806 157.327 157.966 156.762 156.033 155.27 
154.68 158.819 159.47 158.26 157.713 156.937 156.133 155.463 160.277 
160.797 159.7 159.203 158.59 157.718 156.858 156.176 161.643 162.01 
161.155 160.551 159.899 159.139 158.3 157.543 156.938 162.838 163.12 
162.526 161.964 161.137 160.281 159.55 158.896 158.267 157.692 159.028 
158.498 159.498 158.881 159.918 157.726 159.313 160.455 158.055 156.683 
159.897 161.149 158.526 157.019 155.484 160.437 161.755 159.021 157.494 
155.899 154.437 160.794 162.16 159.381 157.88 156.342 154.87 153.576 
161.13 162.484 159.772 158.272 156.717 155.282 153.946 152.732 161.548 
162.808 160.279 158.853 157.259 155.797 154.477 153.187 152.072 159.185 
159.791 159.841 160.6 160.636 160.363 161.536 161.627 161.318 160.88 
162.421 162.595 162.281 161.896 161.524 163.163 163.534 163.054 162.812 
162.542 162.33 164.09 164.632 163.849 163.631 163.385 163.369 163.064 
165.182 165.721 164.87 164.602 164.164 164.081 164.165 163.576 166.069 
166.606 165.756 165.592 165.061 164.565 164.691 164.658 163.869 166.78 