# vtk DataFile Version 4.0
vtk output
ASCII
DATASET POLYDATA
POINTS 1002 float
-103.601 -85.3618 80.3339 -103.673 -84.6463 79.2229 -104.121 -84.6073 80.0762 
-104.153 -85.5024 81.2085 -104.744 -84.765 80.942 -103.734 -86.4607 81.4724 
-104.906 -85.8593 82.0709 -105.453 -84.9682 81.8727 -104.376 -86.7631 82.3586 
-104.194 -87.9254 82.5621 -105.648 -86.1715 83.0583 -106.058 -85.1401 82.9522 
-105.132 -87.1472 83.3163 -104.87 -88.2582 83.5285 -104.82 -89.4387 83.725 
-106.154 -86.3563 84.2985 -106.581 -85.3912 84.1389 -105.78 -87.4513 84.4909 
-105.527 -88.6147 84.7033 -105.392 -89.8563 84.9433 -105.232 -91.0336 85.2689 
-106.642 -86.6273 85.5722 -107.255 -85.7894 85.2084 -106.265 -87.7734 85.8237 
-106.104 -89.0574 85.9963 -105.903 -90.364 86.298 -105.62 -91.6978 86.7328 
-105.494 -93.0152 87.0564 -107.437 -87.158 86.5085 -108.071 -86.3401 86.0502 
-106.918 -88.2704 86.9378 -106.7 -89.6283 87.1829 -106.479 -90.9654 87.4747 
-106.1 -92.3139 87.9748 -105.942 -93.7419 88.3448 -106.146 -95.099 88.3931 
-108.326 -87.8583 87.2231 -108.783 -86.979 86.8532 -107.818 -88.8821 87.6949 
-107.467 -90.1776 88.0867 -107.179 -91.5404 88.4356 -106.797 -92.8732 88.8833 
-106.623 -94.2921 89.2254 -106.873 -95.701 89.2345 -107.222 -96.8989 89.1182 
-108.975 -88.4615 88.0631 -109.312 -87.5365 87.7503 -108.585 -89.4196 88.4472 
-108.231 -90.5938 88.8272 -107.927 -91.9795 89.2157 -107.621 -93.4261 89.644 
-107.481 -94.8947 89.9384 -107.698 -96.3315 89.9377 -108.045 -97.6012 89.8075 
-108.18 -98.6419 89.8105 -109.442 -88.8675 88.9768 -109.77 -87.9513 88.6129 
-109.107 -89.8257 89.3329 -108.805 -90.9647 89.6253 -108.579 -92.3874 89.8969 
-108.436 -94.0048 90.2385 -108.398 -95.6366 90.5477 -108.54 -97.1491 90.6522 
-108.778 -98.4848 90.6198 -108.88 -99.6373 90.6446 -108.768 -100.606 90.7789 
-104.062 -83.9521 78.6756 -104.526 -83.8858 79.5943 -104.529 -83.2139 78.1683 
-104.964 -83.0221 79.1806 -105.146 -82.4154 77.6981 -105.081 -83.8406 80.6064 
-105.613 -82.1105 78.7485 -105.884 -81.554 77.1961 -105.446 -82.7577 80.3381 
-105.699 -83.8391 81.7161 -106.455 -81.3181 78.259 -106.546 -80.6531 76.7105 
-106.204 -81.9108 79.9221 -106.13 -82.7932 81.4977 -106.383 -84.1151 82.8336 
-107.215 -80.5973 77.8814 -107.182 -79.9011 76.3287 -107.2 -81.3494 79.4389 
-107.07 -82.1779 80.9967 -107.05 -83.3475 82.4959 -107.17 -84.6362 83.895 
-107.996 -79.9557 77.6114 -108.068 -79.4804 75.991 -108.005 -80.6747 79.1528 
-108.04 -81.6094 80.532 -107.984 -82.727 81.9806 -107.924 -83.9361 83.5261 
-107.972 -85.1143 84.9093 -108.997 -79.5389 77.3191 -109.132 -79.2679 75.6971 
-108.789 -79.9574 78.9589 -108.719 -80.7822 80.3537 -108.736 -81.9263 81.6794 
-108.614 -83.0867 83.2323 -108.537 -84.2495 84.7387 -108.648 -85.5714 85.8961 
-109.989 -79.2896 77.0982 -110.077 -79.0339 75.5465 -109.711 -79.5097 78.7582 
-109.442 -80.0574 80.2694 -109.386 -81.1054 81.6021 -109.277 -82.2657 83.0753 
-109.057 -83.3315 84.6531 -109.049 -84.6004 85.9211 -109.215 -86.116 86.8644 
-110.754 -79.0486 77.0178 -110.809 -78.7482 75.5238 -110.569 -79.2675 78.6371 
-110.297 -79.6419 80.1825 -110.161 -80.5072 81.5299 -110.072 -81.6815 82.8849 
-109.805 -82.734 84.4121 -109.594 -83.8019 85.8215 -109.646 -85.1831 86.8816 
-109.759 -86.6747 87.7588 -111.429 -78.6976 76.4747 -111.369 -78.9876 78.1525 
-112.152 -78.7337 77.5353 -112.157 -79.0784 79.3138 -113.024 -79.0171 78.6119 
-111.22 -79.3159 79.8352 -112.992 -79.6402 80.3007 -113.703 -79.8118 79.6147 
-112.026 -79.7047 80.9027 -111.05 -80.0125 81.2907 -113.53 -80.8421 81.1549 
-114.042 -81.1091 80.5972 -112.729 -80.7009 81.7228 -111.824 -80.8189 82.2161 
-110.945 -81.2097 82.5944 -113.972 -82.2377 82.2019 -114.44 -82.5231 81.7253 
-113.305 -82.0572 82.6682 -112.475 -82.0114 83.1281 -111.631 -82.1989 83.5851 
-110.724 -82.4601 84.0562 -114.553 -83.4743 83.4185 -114.923 -83.8815 82.8815 
-114.003 -83.2514 83.9702 -113.227 -83.199 84.4107 -112.321 -83.3203 84.7443 
-111.385 -83.4674 85.1471 -110.42 -83.5525 85.5935 -114.896 -84.8376 84.4365 
-115.109 -85.3191 83.8543 -114.53 -84.5058 85.1654 -113.951 -84.3705 85.7848 
-113.111 -84.478 86.0956 -112.148 -84.6633 86.2933 -111.195 -84.7238 86.6045 
-110.318 -84.8201 86.8748 -114.885 -86.5064 85.3277 -115.02 -86.9144 84.7883 
-114.664 -86.1761 86.061 -114.315 -85.9068 86.8016 -113.731 -85.8257 87.2574 
-112.901 -85.9585 87.4475 -111.991 -86.0652 87.6266 -111.121 -86.0961 87.836 
-110.352 -86.2807 87.9061 -114.855 -88.3354 86.3565 -114.951 -88.6396 85.8405 
-114.727 -88.0601 86.9825 -114.519 -87.7237 87.6454 -114.151 -87.3987 88.1606 
-113.535 -87.286 88.4693 -112.71 -87.3404 88.6786 -111.841 -87.3679 88.8345 
-111.03 -87.4168 88.8979 -110.325 -87.627 88.8255 -110.063 -88.9504 89.6102 
-110.734 -88.7759 89.7644 -110.509 -90.3808 90.4253 -111.531 -88.7099 89.8473 
-111.281 -90.4582 90.4931 -111.142 -92.6305 90.9847 -112.422 -88.7062 89.8522 
-112.121 -90.5332 90.6159 -111.931 -92.9384 91.0306 -111.778 -95.3354 91.6555 
-113.335 -88.7046 89.68 -113.01 -90.579 90.6498 -112.722 -93.1303 91.168 
-112.544 -95.6969 91.7993 -112.356 -97.7 92.7191 -114.076 -88.8519 89.3636 
-113.803 -90.721 90.4092 -113.449 -93.3396 91.1144 -113.32 -96.0205 91.8793 
-113.221 -98.0783 92.945 -113.077 -99.9404 93.6857 -114.552 -89.2697 88.9741 
-114.372 -91.0835 90.0446 -113.958 -93.6422 90.8131 -113.9 -96.4129 91.685 
-114.078 -98.5476 92.8933 -114.01 -100.499 93.8039 -113.93 -102.951 93.9368 
-114.829 -89.7644 88.4728 -114.814 -91.5784 89.6564 -114.389 -93.9092 90.4479 
-114.206 -96.6653 91.3303 -114.597 -99.0069 92.5596 -114.787 -101.075 93.5838 
-114.675 -103.677 93.8616 -114.729 -106.63 93.6641 -114.952 -90.1271 87.8902 
-115.123 -92.021 89.1826 -114.911 -94.0978 90.0122 -114.563 -96.6094 90.8669 
-114.792 -99.2001 92.0848 -115.199 -101.57 93.1582 -115.218 -104.208 93.5828 
-115.241 -107.245 93.5161 -115.463 -110.039 93.4018 -114.994 -90.3842 87.2997 
-115.219 -92.3242 88.6287 -115.303 -94.2553 89.5069 -115.053 -96.4088 90.2928 
-114.973 -99.0275 91.4509 -115.304 -101.823 92.6001 -115.546 -104.598 93.1933 
-115.647 -107.483 93.3066 -115.903 -110.304 93.2661 -116.153 -112.629 93.2579 
-109.717 -90.0151 90.044 -110.219 -91.8699 90.8635 -109.406 -91.2819 90.3944 
-110.917 -94.5579 91.5306 -109.992 -93.6265 91.2454 -109.208 -92.8537 90.608 
-111.591 -97.2601 92.4325 -110.82 -96.5599 92.0676 -110.014 -95.6264 91.4579 
-109.218 -94.7148 90.7848 -112.277 -99.6417 93.4006 -111.635 -99.3247 92.9967 
-111.052 -98.7355 92.3552 -110.305 -97.7579 91.5937 -109.362 -96.6399 91.0306 
-113.183 -102.622 93.8131 -112.456 -102.288 93.6368 -111.89 -101.871 93.2747 
-111.313 -101.011 92.5631 -110.476 -99.725 91.8383 -109.48 -98.3655 91.2717 
-114.19 -106.44 93.6918 -113.436 -105.966 93.7842 -112.645 -105.381 93.8593 
-111.947 -104.453 93.5464 -111.205 -102.999 92.8651 -110.36 -101.366 92.1824 
-109.537 -99.839 91.4564 -115.062 -110.12 93.5261 -114.385 -109.656 93.757 
-113.535 -108.901 94.0344 -112.669 -107.926 94.0624 -111.803 -106.451 93.6663 
-110.943 -104.604 93.1136 -110.165 -102.804 92.4984 -109.5 -101.141 91.6313 
-115.751 -112.975 93.4217 -115.082 -112.65 93.6752 -114.311 -111.823 93.9257 
-113.552 -110.83 94.0006 -112.694 -109.585 93.7955 -111.728 -107.869 93.47 
-110.802 -105.938 93.1718 -110 -104.07 92.6662 -109.341 -102.265 91.7832 
-116.484 -115.084 93.0938 -115.794 -115.223 93.3004 -116.452 -117.337 92.5678 
-115.605 -117.13 92.6901 -116.297 -119.228 91.6539 -114.971 -114.544 93.4837 
-115.552 -118.564 91.6452 -116.26 -120.389 90.4947 -114.897 -116.085 92.6552 
-114.322 -113.418 93.5023 -115.581 -119.314 90.4988 -116.078 -120.89 89.0694 
-114.966 -117.189 91.582 -114.372 -114.692 92.5503 -113.656 -112.205 93.3544 
-115.333 -119.577 89.4843 -115.63 -120.939 87.8367 -114.855 -117.715 90.779 
-114.236 -115.531 91.7423 -113.586 -113.19 92.5217 -112.708 -110.693 93.1652 
-114.839 -119.359 88.9781 -115.115 -120.231 87.5861 -114.439 -117.786 90.2466 
-113.875 -115.817 91.2074 -113.289 -113.63 91.9082 -112.588 -111.316 92.5272 
-111.643 -108.747 93.0812 -114.164 -118.385 88.9934 -114.449 -118.81 88.0213 
-113.801 -117.305 89.8987 -113.391 -115.652 90.6339 -112.964 -113.581 91.2734 
-112.407 -111.384 91.902 -111.539 -109.156 92.5807 -110.601 -106.683 92.9642 
-113.31 -116.914 88.9399 -113.585 -117.22 88.2549 -113.004 -116.197 89.5821 
-112.732 -114.985 90.1104 -112.49 -113.225 90.647 -112.105 -111.149 91.2647 
-111.355 -109.114 91.9649 -110.382 -107.003 92.5095 -109.665 -104.632 92.449 
-112.496 -115.337 88.5985 -112.762 -115.604 88.1233 -112.257 -114.761 89.1531 
-112.057 -113.844 89.7079 -111.852 -112.481 90.2714 -111.543 -110.713 90.8472 
-110.979 -108.833 91.4201 -110.137 -106.924 91.9122 -109.35 -104.814 92.0148 
-108.938 -102.601 91.5396 -116.686 -113.388 93.0513 -117.01 -115.985 92.6012 
-117.055 -113.754 92.6655 -117.189 -116.537 91.8414 -117.153 -113.815 91.9798 
-116.967 -118.542 91.6936 -117.07 -116.737 90.8997 -117.064 -113.601 91.1799 
-117.177 -119.38 90.5602 -116.935 -120.565 90.5201 -116.94 -116.288 90.2052 
-116.803 -113.039 90.6912 -117.27 -119.521 89.4742 -117.485 -121.389 89.1053 
-116.935 -121.621 89.0394 -116.693 -115.027 90.0223 -116.295 -112.049 90.4568 
-117.28 -118.384 89.0027 -117.911 -121.11 87.9987 -117.614 -122.186 87.3865 
-116.538 -121.93 87.245 -116.181 -113.302 89.9137 -115.759 -110.518 90.0154 
-116.807 -116.248 89.1457 -117.698 -119.329 87.9264 -117.927 -121.417 86.6788 
-117.013 -121.953 85.8834 -115.904 -121.413 86.2344 -115.699 -111.269 89.5046 
-115.386 -108.361 89.3398 -116.04 -113.972 89.2454 -116.695 -116.843 88.4941 
-117.305 -119.403 87.3539 -117.052 -120.676 86.1169 -116.144 -120.691 85.7103 
-115.267 -119.983 86.6323 -115.295 -108.726 88.9868 -114.989 -105.785 88.6902 
-115.468 -111.541 89.0489 -115.706 -114.304 88.7985 -116.161 -116.911 88.244 
-116.401 -118.643 87.3298 -116.024 -119.189 86.4984 -115.284 -118.979 86.5666 
-114.455 -118.296 87.4236 -114.737 -105.844 88.5017 -114.44 -103.261 88.0805 
-114.956 -108.611 88.737 -115.093 -111.394 88.7111 -115.298 -114.014 88.5034 
[...]
CELL_DATA 2000
SCALARS Distance double
LOOKUP_TABLE default
155.07 155.92 155.671 156.162 156.969 156.663 157.187 156.936 157.62 
158.065 157.787 158.359 158.065 158.746 158.553 159.377 159.145 158.89 
159.512 159.259 159.962 159.742 160.578 160.405 161.299 160.299 159.997 
160.649 160.419 161.194 160.989 161.863 161.671 162.614 162.414 163.392 
161.566 161.218 161.892 161.625 162.462 162.262 163.18 162.986 163.933 
163.753 164.749 164.589 165.63 162.85 162.525 163.213 162.928 163.757 
163.558 164.474 164.296 165.214 165.044 166.001 165.886 166.906 166.81 
167.812 164.034 163.781 164.454 164.211 164.966 164.796 165.651 165.527 
166.432 166.296 167.247 167.122 168.146 168.045 169.072 168.935 169.87 
165.072 164.89 165.533 165.35 166.04 165.898 166.692 166.614 167.533 
167.474 168.487 168.396 169.465 169.34 170.411 170.244 171.245 171.008 
171.905 154.635 154.268 154.751 155.436 153.946 154.389 155.039 155.602 
156.393 153.707 154.092 154.668 155.171 155.916 156.574 157.428 153.522 
153.906 154.501 154.878 155.585 156.119 156.999 157.65 158.542 153.375 
153.775 154.504 154.846 155.601 155.963 156.848 157.35 158.323 158.864 
159.769 153.431 153.739 154.534 154.899 155.711 156.071 156.923 157.338 
158.274 158.756 159.693 160.164 161.042 153.787 153.955 154.698 154.969 
155.74 156.117 156.93 157.375 158.225 158.708 159.576 160.078 160.94 
161.433 162.284 154.264 154.386 155.069 155.212 155.899 156.155 156.937 
157.335 158.183 158.628 159.458 159.923 160.753 161.269 162.119 162.641 
163.461 154.67 154.825 155.489 155.61 156.257 156.403 157.145 157.424 
158.292 158.654 159.513 159.872 160.687 161.103 161.947 162.448 163.292 
163.783 164.538 155.085 156.051 155.688 155.937 157.228 156.755 157.015 
156.56 156.758 158.573 158.036 158.298 157.749 157.979 157.443 157.684 
159.961 159.42 159.692 159.107 159.355 158.775 159.064 158.51 158.839 
161.453 160.862 161.197 160.568 160.853 160.224 160.539 159.959 160.3 
159.734 160.046 163.058 162.444 162.844 162.188 162.553 161.847 162.188 
161.51 161.855 161.225 161.528 160.915 161.198 164.529 164.013 164.415 
163.86 164.277 163.626 163.995 163.264 163.592 162.862 163.17 162.466 
162.76 162.104 162.438 165.827 165.382 165.802 165.35 165.805 165.286 
165.69 165.049 165.371 164.645 164.931 164.186 164.473 163.75 164.06 
163.404 163.758 167.188 166.715 167.221 166.753 167.277 166.781 167.238 
166.666 167.017 166.362 166.642 165.937 166.187 165.467 165.712 165.027 
165.293 164.679 164.969 165.765 166.144 166.327 167.14 166.615 166.782 
167.656 167.831 168.824 167.134 167.318 168.251 168.423 169.472 169.7 
170.895 167.607 167.849 168.83 169.049 170.132 170.385 171.617 171.9 
173.162 167.986 168.296 169.295 169.588 170.686 171.012 172.276 172.628 
173.955 174.205 175.438 168.251 168.647 169.669 170.008 171.083 171.469 
172.739 173.219 174.621 175.002 176.318 176.503 177.743 168.353 168.87 
169.96 170.364 171.407 171.788 172.983 173.547 174.974 175.566 176.954 
177.324 178.584 178.819 180.117 168.305 168.913 170.078 170.609 171.665 
172.06 173.123 173.664 175.007 175.752 177.195 177.805 179.095 179.505 
180.77 181.149 182.476 168.216 168.828 170.003 170.646 171.739 172.227 
173.196 173.696 174.863 175.631 177.062 177.882 179.254 179.858 181.113 
181.616 182.897 183.377 184.592 165.817 167.187 166.427 166.325 168.912 
167.966 167.883 167.001 166.9 171.059 169.951 169.931 168.808 168.723 
167.696 167.63 173.358 172.26 172.354 171.132 171.123 169.837 169.789 
168.61 168.591 175.609 174.572 174.771 173.651 173.798 172.492 172.523 
171.106 171.08 169.745 169.7 177.971 176.901 177.206 176.112 176.431 
175.237 175.412 174.004 173.979 172.472 172.356 170.919 170.775 180.519 
179.447 179.898 178.725 179.152 177.951 178.246 176.9 176.902 175.389 
175.191 173.665 173.422 171.969 171.73 183.006 182.082 182.622 181.51 
181.916 180.733 181.006 179.721 179.723 178.25 177.996 176.45 176.132 
174.63 174.311 172.864 172.546 185.121 184.437 184.927 184.037 184.289 
183.282 183.386 182.295 182.217 180.931 180.624 179.162 178.77 177.285 
176.908 175.437 175.036 173.593 173.189 186.296 187.647 186.754 186.069 
188.482 187.821 187.095 186.237 185.348 188.865 188.404 187.629 186.982 
186.093 185.318 184.364 188.74 188.552 187.793 187.33 186.436 185.846 
184.917 184.21 183.155 188.155 188.22 187.573 187.334 186.473 186.037 
185.087 184.557 183.507 182.812 181.568 187.361 187.564 187.035 186.979 
186.172 185.904 184.925 184.542 183.474 182.97 181.77 181.063 179.727 
186.355 186.702 186.181 186.311 185.504 185.421 184.415 184.186 183.092 
182.762 181.61 181.122 179.863 179.173 177.84 185.019 185.5 184.904 
185.239 184.415 184.551 183.558 183.505 182.421 182.237 181.116 180.819 
179.627 179.158 177.853 177.223 175.893 183.465 183.982 183.34 183.781 
183.009 183.308 182.415 182.529 181.53 181.474 180.401 180.226 179.083 
178.78 177.521 177.063 175.731 175.19 173.93 186.511 187.038 187.26 
187.939 187.071 187.584 188.39 188.521 188.893 186.662 187.395 188.317 
188.797 189.373 189.336 189.387 185.991 186.836 187.827 188.575 189.351 
189.667 189.852 189.608 189.274 185.06 186.018 186.947 187.912 188.775 
189.467 189.779 189.848 189.482 189.151 188.553 183.747 184.858 185.612 
186.742 187.514 188.582 188.997 189.503 189.176 189.086 188.394 188.192 
187.591 182.056 183.31 183.945 185.135 185.744 186.992 187.474 188.412 
188.286 188.545 187.875 187.814 187.148 187.127 186.551 180.056 181.431 
182.039 183.298 183.804 185.059 185.533 186.699 186.834 187.483 187.041 
187.175 186.519 186.553 185.961 185.98 185.305 177.878 179.283 179.844 
181.224 181.673 182.994 183.376 184.659 184.879 185.886 185.696 186.203 
185.665 185.849 185.243 185.321 184.661 184.625 183.823 168.538 169.62 
169.495 170.348 170.629 170.596 171.469 171.347 172.096 171.448 171.531 
172.432 172.403 173.171 172.985 173.597 172.254 172.349 173.355 173.354 
174.252 174.097 174.894 174.579 175.345 173.241 173.301 174.483 174.44 
175.563 175.375 176.444 176.117 177.156 176.697 177.646 174.309 174.426 
175.789 175.783 177.131 176.951 178.248 177.928 179.17 178.723 179.798 
179.178 179.967 175.321 175.544 177.065 177.192 178.719 178.662 180.082 
179.848 181.145 180.788 181.91 181.367 182.189 181.409 181.951 176.249 
176.574 178.199 178.468 180.089 180.213 181.668 181.595 182.827 182.613 
183.672 183.326 184.184 183.591 184.207 183.346 183.787 177.016 177.462 
179.096 179.508 181.092 181.405 182.805 182.945 184.089 184.045 184.991 
184.831 185.659 185.358 186.037 185.479 185.966 185.135 185.457 167.683 
166.773 167.692 168.672 165.739 166.706 167.608 168.656 169.637 164.517 
165.529 166.359 167.471 168.396 169.514 170.422 163.362 164.272 165.024 
166.1 166.966 168.15 169.065 170.219 171.148 162.394 163.195 163.86 
164.78 165.556 166.667 167.578 168.791 169.781 170.984 172.028 161.406 
162.202 162.786 163.643 164.306 165.3 166.141 167.308 168.315 169.575 
170.657 171.907 173.002 160.424 161.142 161.649 162.496 163.101 164.053 
164.813 165.907 166.861 168.103 169.182 170.477 171.565 172.84 173.924 
159.641 160.2 160.646 161.377 161.982 162.858 163.602 164.604 165.5 
166.663 167.706 168.984 170.062 171.348 172.397 173.698 174.771 159.03 
159.487 159.897 160.497 161.104 161.857 162.604 163.472 164.314 165.34 
166.318 167.522 168.58 169.842 170.859 172.127 173.127 174.469 175.502 
158.818 158.869 159.101 159.723 159.136 159.287 160.004 160.208 160.988 
159.589 159.679 160.442 160.616 161.477 161.646 162.508 160.074 160.19 
160.95 161.111 161.98 162.173 163.081 163.248 164.186 160.416 160.639 
161.429 161.623 162.487 162.683 163.641 163.847 164.896 165.069 166.176 
160.703 160.956 161.848 162.097 163.051 163.247 164.292 164.49 165.673 
165.874 167.119 167.249 168.449 161.225 161.371 162.362 162.586 163.674 
163.89 165.041 165.246 166.502 166.73 168.043 168.231 169.481 169.57 
170.716 161.986 162.058 163.076 163.235 164.371 164.586 165.791 166.03 
167.301 167.567 168.877 169.126 170.399 170.566 171.769 171.831 172.972 
162.715 162.832 163.822 163.993 165.105 165.324 166.523 166.776 168.043 
168.33 169.649 169.932 171.256 171.475 172.777 172.904 174.17 174.176 
175.364 163.353 164.81 164.218 164.569 166.688 165.909 166.35 165.602 
165.966 168.926 168.035 168.532 167.625 168.046 167.136 167.473 171.25 
170.384 170.963 170.002 170.487 169.438 169.809 168.755 169.072 173.783 
172.856 173.619 172.592 173.228 172.084 172.561 171.334 171.688 170.479 
170.77 176.707 175.711 176.724 175.556 176.402 175.099 175.755 174.36 
174.83 173.384 173.687 172.282 172.486 179.505 178.749 179.902 178.869 
179.84 178.537 179.296 177.815 178.376 176.785 177.131 175.479 175.635 
174.047 174.119 181.568 181.227 182.32 181.752 182.681 181.801 182.532 
181.33 181.844 180.372 180.658 179.009 179.097 177.375 177.336 175.668 
175.592 182.913 182.844 183.789 183.608 184.401 184.042 184.701 184.071 
184.53 183.506 183.664 182.29 182.221 180.678 180.511 178.892 178.672 
177.041 176.805 162.903 162.633 163.235 164.277 162.449 163.02 164.129 
164.783 166.095 162.318 162.909 164.089 164.737 166.126 166.829 168.313 
162.061 162.759 163.973 164.711 166.131 166.897 168.395 169.107 170.586 
161.665 162.439 163.671 164.507 165.916 166.801 168.295 169.122 170.611 
171.362 172.953 161.295 162.056 163.34 164.181 165.597 166.497 167.995 
168.908 170.447 171.323 172.972 173.851 175.674 161.031 161.739 163.049 
163.888 165.347 166.216 167.72 168.599 170.173 171.109 172.813 173.801 
175.614 176.61 178.398 160.898 161.514 162.768 163.595 165.067 165.981 
167.504 168.375 169.923 170.843 172.538 173.573 175.35 176.405 178.084 
179.081 180.532 160.908 161.417 162.575 163.309 164.726 165.657 167.197 
168.13 169.654 170.577 172.196 173.238 174.957 176.035 177.626 178.62 
179.967 180.88 181.987 162.023 160.572 161.443 161.721 159.072 159.924 
160.208 161.133 161.473 157.809 158.46 158.684 159.58 159.94 160.909 
161.293 156.856 157.326 157.432 158.139 158.446 159.351 159.705 160.678 
161.006 155.799 156.347 156.36 156.975 157.14 157.904 158.137 159.034 
159.275 160.274 160.555 154.479 155.136 155.125 155.801 155.843 156.566 
156.635 157.441 157.56 158.497 158.73 159.789 160.137 153.268 153.853 
153.897 154.512 154.517 155.172 155.16 155.9 155.956 156.81 157.021 
158.004 158.377 159.451 159.9 152.357 152.833 152.942 153.422 153.421 
153.901 153.847 154.45 154.512 155.278 155.509 156.398 156.786 157.781 
158.278 159.323 159.838 151.64 152.045 152.153 152.574 152.544 152.912 
152.789 153.244 153.278 153.943 154.197 154.997 155.372 156.272 156.759 
157.769 158.336 159.36 159.912 151.338 151.032 151.361 151.771 150.812 
151.003 151.256 151.694 152.046 150.798 150.799 150.836 151.101 151.343 
151.85 152.226 150.836 150.801 150.741 150.775 150.935 151.239 151.697 
152.177 152.774 150.872 150.842 150.881 150.816 151.003 151.09 151.61 
151.913 152.647 153.027 153.784 151.294 151.086 151.3 151.125 151.432 
151.376 151.931 152.08 152.833 153.097 153.885 154.192 154.98 152.227 
151.843 152.155 151.82 152.204 151.991 152.567 152.564 153.318 153.439 
154.234 154.417 155.247 155.503 156.382 153.284 152.908 153.218 152.849 
153.222 152.912 153.457 153.325 154.091 154.087 154.942 154.967 155.864 
155.961 156.925 157.09 158.034 154.22 153.903 154.202 153.893 154.263 
153.96 154.468 154.274 155.014 154.963 155.857 155.84 156.773 156.772 
157.743 157.799 158.758 158.828 159.682 154.817 155.896 155.152 154.854 
157.383 156.433 156.124 155.289 155.006 159.169 158.108 157.81 156.776 
156.482 155.547 155.311 161.073 159.972 159.693 158.592 158.308 157.231 
157.013 156.028 155.925 163.195 161.991 161.76 160.563 160.335 159.18 
159.002 157.912 157.833 156.831 156.814 165.548 164.31 164.205 162.859 
162.721 161.394 161.27 160.033 159.956 158.846 158.829 157.798 157.775 
167.796 166.712 166.728 165.459 165.392 164 163.877 162.475 162.332 
161.05 160.964 159.852 159.826 158.779 158.749 169.82 168.869 168.93 
167.874 167.844 166.632 166.497 165.135 164.908 163.508 163.289 162.027 
161.914 160.824 160.774 159.745 159.699 171.813 170.867 170.949 169.964 
169.977 168.914 168.829 167.624 167.424 166.071 165.809 164.428 164.209 
162.957 162.821 161.727 161.625 160.625 160.538 161.292 162.448 162.201 
162.976 163.793 163.522 164.452 164.153 165.169 165.34 165.059 166.178 
165.841 166.973 166.599 167.697 166.995 166.745 167.986 167.699 168.924 
168.534 169.665 169.201 170.225 168.583 168.416 169.696 169.517 170.817 
170.511 171.719 171.263 172.388 171.814 172.862 169.971 169.926 171.242 
171.18 172.562 172.378 173.709 173.356 174.622 174.11 175.29 174.617 
175.67 171.137 171.217 172.594 172.665 174.125 174.084 175.494 175.303 
176.63 176.302 177.508 177.008 178.033 177.368 178.246 172.145 172.32 
173.745 173.939 175.432 175.548 176.955 176.943 178.221 178.1 179.236 
178.972 179.915 179.476 180.262 179.697 180.423 173.037 173.287 174.72 
175.003 176.472 176.706 178.058 178.191 179.389 179.432 180.499 180.424 
181.341 181.096 181.872 181.477 182.173 181.684 182.334 154.031 153.592 
153.515 152.932 153.097 153.025 152.445 152.43 151.988 152.723 152.558 
152.021 151.98 151.615 151.639 151.391 152.693 152.349 151.837 151.674 
151.384 151.366 151.201 151.202 151.054 152.932 152.503 151.985 151.662 
151.344 151.229 151.075 151.064 150.948 150.936 150.833 153.169 152.778 
152.224 151.86 151.431 151.239 151.017 150.968 150.844 150.834 150.737 
150.748 150.705 153.378 152.987 152.38 152.008 151.467 151.254 150.973 
150.928 150.832 150.797 150.718 150.668 150.606 150.631 150.639 153.691 
153.245 152.651 152.178 151.595 151.256 150.932 150.862 150.829 150.844 
150.838 150.747 150.682 150.589 150.582 150.606 150.702 154.104 153.643 
153.14 152.595 152.058 151.531 151.15 150.89 150.82 150.829 150.875 
150.87 150.827 150.73 150.713 150.657 150.784 150.805 151.029 154.063 
153.021 153.635 153.88 152.111 152.641 152.932 153.557 153.943 151.463 
151.834 152.094 152.662 153.083 153.737 154.239 151.05 151.27 151.434 
151.888 152.3 152.926 153.486 154.145 154.754 150.827 150.925 151.019 
151.308 151.693 152.231 152.864 153.493 154.215 154.817 155.532 150.774 
150.811 150.931 151.041 151.405 151.768 152.432 152.99 153.777 154.373 
155.161 155.718 156.444 150.784 150.845 151.076 151.125 151.525 151.695 
152.337 152.711 153.472 153.98 154.734 155.319 156.044 156.613 157.247 
150.862 150.91 151.24 151.344 151.84 151.971 152.616 152.812 153.525 
153.811 154.502 154.917 155.592 156.135 156.772 157.316 157.828 151.154 
151.09 151.436 151.537 152.092 152.291 152.964 153.159 153.838 154.009 
154.654 154.86 155.485 155.803 156.413 156.839 157.375 157.82 158.236 
154.713 154.536 154.942 155.676 154.601 154.872 155.608 156.007 156.855 
154.91 155.066 155.787 156.057 156.901 157.3 158.21 155.396 155.457 
156.158 156.331 157.114 157.413 158.292 158.69 159.594 156.081 156.008 
156.635 156.723 157.44 157.657 158.466 158.802 159.72 160.115 161.073 
156.938 156.761 157.285 157.232 157.88 157.999 158.782 159.031 159.966 
160.32 161.363 161.721 162.716 157.748 157.607 158.095 157.949 158.552 
158.535 159.319 159.445 160.391 160.661 161.738 162.086 163.127 163.399 
164.258 158.318 158.307 158.808 158.736 159.339 159.3 160.075 160.11 
161.008 161.162 162.169 162.475 163.502 163.807 164.675 164.854 165.571 
158.68 158.755 159.258 159.323 159.931 160.017 160.775 160.871 161.695 
161.797 162.663 162.882 163.828 164.142 165.042 165.27 166.035 166.156 
166.886 161.898 161.146 161.176 160.43 160.404 160.397 159.694 159.698 
158.988 159.93 159.775 159.136 159.062 158.479 158.4 157.834 159.687 
159.454 158.803 158.639 158.102 158.015 157.536 157.434 156.939 159.392 
159.229 158.537 158.344 157.689 157.609 157.074 157.088 156.549 156.502 
155.872 158.96 158.88 158.252 158.073 157.356 157.164 156.498 156.488 
155.906 155.954 155.269 155.234 154.503 158.545 158.46 157.932 157.804 
157.19 156.921 156.233 156.001 155.399 155.314 154.694 154.601 153.876 
153.813 153.204 158.313 158.141 157.63 157.507 156.965 156.776 156.146 
155.871 155.25 155.009 154.423 154.193 153.529 153.305 152.67 152.632 
152.221 158.314 158.041 157.518 157.279 156.71 156.519 155.905 155.721 
155.095 154.898 154.286 154.051 153.409 153.116 152.472 152.25 151.768 
151.777 151.508 
POINT_DATA 1002
SCALARS Distance double
LOOKUP_TABLE default
155.44 154.53 155.243 156.332 156.188 156.715 157.47 157.25 157.762 
158.386 158.643 158.306 158.966 159.513 160.234 159.725 159.408 160.171 
160.751 161.472 162.192 160.863 160.629 161.365 162.049 162.794 163.581 
164.408 162.166 161.907 162.65 163.375 164.12 164.888 165.782 166.703 
163.504 163.142 163.971 164.652 165.397 166.127 166.99 167.948 168.788 
164.699 164.263 165.161 165.768 166.535 167.365 168.252 169.198 170.071 
170.753 165.709 165.244 166.193 166.768 167.542 168.524 169.574 170.571 
171.464 172.202 172.761 154.135 154.878 153.794 154.498 153.548 155.744 
154.234 153.343 155.275 156.73 154.145 153.083 155.129 156.354 157.915 
154.102 152.943 155.269 156.409 157.783 159.272 154.176 153.177 155.329 
156.538 157.824 159.217 160.592 154.516 153.671 155.406 156.488 157.767 
159.088 160.428 161.804 154.976 154.147 155.72 156.575 157.752 159.033 
160.257 161.577 162.98 155.355 154.511 156.139 156.916 157.947 159.18 
160.33 161.478 162.789 164.11 155.391 156.321 156.445 157.503 157.739 
157.223 158.869 159.115 158.524 158.193 160.278 160.494 159.932 159.611 
159.392 161.819 162.051 161.498 161.132 160.879 160.632 163.466 163.66 
163.251 162.914 162.523 162.167 161.788 164.916 165.015 164.866 164.717 
164.357 163.899 163.447 163.048 166.221 166.251 166.274 166.279 166.077 
165.681 165.216 164.758 164.377 167.678 167.64 167.769 167.795 167.645 
167.333 166.916 166.431 165.95 165.554 166.5 166.931 167.991 167.467 
168.574 169.913 168.059 169.231 170.618 172.159 168.576 169.86 171.312 
172.929 174.403 168.982 170.334 171.873 173.652 175.288 176.628 169.316 
170.713 172.212 174.143 176.073 177.599 179.009 169.502 171.067 172.45 
174.296 176.489 178.305 179.857 181.499 169.475 171.264 172.67 174.257 
176.476 178.627 180.362 182.105 183.836 169.336 171.204 172.754 174.171 
176.168 178.549 180.595 182.393 184.201 185.746 167.073 168.837 167.74 
171.11 169.851 168.582 173.516 172.44 171.082 169.709 175.8 175.001 
173.959 172.532 171.006 178.284 177.542 176.756 175.527 173.884 172.183 
181.063 180.362 179.565 178.426 176.762 174.932 173.157 183.697 183.117 
182.282 181.182 179.569 177.663 175.808 173.975 185.787 185.304 184.455 
183.428 182.048 180.261 178.391 176.532 174.607 187.36 187.121 188.468 
187.88 189.108 186.291 188.232 189.262 186.782 185.215 188.169 188.795 
186.984 185.55 183.994 187.701 187.976 186.855 185.585 184.133 182.401 
187.021 187.092 186.389 185.279 183.915 182.381 180.533 185.999 185.982 
185.529 184.6 183.37 181.997 180.459 178.6 184.522 184.557 184.194 
183.527 182.551 181.349 180.007 178.421 176.542 182.869 182.971 182.63 
182.207 181.515 180.528 179.33 177.916 176.229 174.425 186.433 187.995 
186.694 188.074 186.454 189.109 187.668 185.877 189.219 189.798 186.976 
185.134 188.851 189.992 189.771 185.956 184.1 187.921 189.564 189.785 
188.894 184.526 182.623 186.362 188.271 189.164 188.58 187.71 182.788 
180.763 184.525 186.353 187.808 187.892 187.155 186.584 180.75 178.664 
182.587 184.307 185.946 186.755 186.483 185.924 185.379 178.444 176.532 
180.344 182.098 183.732 184.966 185.375 185.144 184.664 183.943 168.644 
170.509 169.713 171.57 170.608 172.333 172.42 171.319 173.311 173.872 
173.313 172.134 174.337 175.114 175.703 174.464 173.13 175.678 176.683 
177.546 178.229 175.693 174.112 177.22 178.508 179.568 180.409 180.769 
176.838 175.023 178.677 180.272 181.479 182.398 182.933 182.876 177.871 
175.862 179.9 181.7 183.041 183.969 184.655 184.973 184.779 166.772 
167.666 165.886 166.569 164.765 168.594 165.257 163.535 167.255 169.344 
164.029 162.529 165.791 167.857 169.998 163.034 161.624 164.525 166.357 
168.524 170.828 161.952 160.646 163.376 165.024 167.047 169.38 171.77 
160.832 159.798 162.166 163.766 165.653 167.886 170.287 172.643 159.971 
159.158 161.137 162.648 164.397 166.453 168.785 171.119 173.433 159.335 