# vtk DataFile Version 4.0
vtk output
ASCII
DATASET POLYDATA
POINTS 1002 float
-105.47 -84.993 78.6981 -105.458 -84.413 77.6495 -105.75 -84.1695 78.5868 
-105.809 -84.8736 79.7048 -106.134 -84.0482 79.5852 -105.583 -85.77 79.8536 
-106.301 -84.9206 80.7533 -106.814 -84.2406 80.47 -105.967 -85.7964 81.0194 
-105.807 -86.7684 81.2822 -107.027 -85.2157 81.7276 -107.625 -84.6338 81.2791 
-106.507 -85.9384 82.2362 -106.226 -86.922 82.5853 -106.126 -87.9762 82.8573 
-107.793 -85.6158 82.6914 -108.317 -84.9647 82.2102 -107.235 -86.2831 83.3346 
-106.818 -87.1316 83.8096 -106.656 -88.2478 84.0049 -106.62 -89.4157 84.2153 
-108.492 -85.9543 83.8102 -108.944 -85.2364 83.3452 -108.068 -86.8311 84.3084 
-107.646 -87.6741 84.7808 -107.372 -88.6206 85.0583 -107.328 -89.839 85.2141 
-107.359 -91.0492 85.4682 -109.091 -86.3001 85.0966 -109.547 -85.6417 84.5311 
-108.839 -87.3776 85.395 -108.602 -88.5135 85.6133 -108.249 -89.4079 86.0035 
-108.044 -90.447 86.3969 -108.079 -91.7215 86.6699 -108.164 -92.8765 86.9014 
-109.579 -86.8325 86.2499 -110.096 -86.2232 85.5433 -109.352 -87.8663 86.601 
-109.338 -89.1848 86.6455 -109.112 -90.2845 86.9358 -108.746 -91.2966 87.524 
-108.642 -92.5714 87.9651 -108.753 -93.8721 88.1814 -108.855 -94.9812 88.3316 
-110.147 -87.5402 87.0339 -110.679 -86.8926 86.2998 -109.804 -88.4557 87.5503 
-109.789 -89.6874 87.7314 -109.748 -90.9049 87.9497 -109.453 -92.0478 88.4485 
-109.257 -93.4228 88.8991 -109.329 -94.9005 89.1375 -109.449 -96.1725 89.3312 
-109.5 -97.2636 89.5348 -110.873 -88.2856 87.5524 -111.309 -87.5956 86.8585 
-110.47 -89.1343 88.1535 -110.304 -90.2735 88.5238 -110.279 -91.5407 88.8081 
-110.132 -92.7761 89.201 -109.987 -94.1901 89.5478 -110.052 -95.7988 89.7411 
-110.179 -97.262 89.9642 -110.211 -98.4661 90.2674 -110.193 -99.5145 90.5188 
-105.687 -83.6973 77.1224 -105.958 -83.3571 78.1627 -105.927 -82.8664 76.585 
-106.314 -82.5654 77.6348 -106.378 -82.1572 76.0309 -106.474 -83.2766 79.1954 
-107.043 -82.0614 76.9577 -107.226 -81.7492 75.4068 -107.051 -82.6029 78.6503 
-107.322 -83.5538 80.0789 -107.986 -81.7195 76.2725 -108.087 -81.2352 74.8375 
-107.888 -82.1506 77.9435 -107.949 -82.8439 79.6237 -108.141 -83.9238 80.9392 
-108.629 -80.9645 75.8645 -108.581 -80.3216 74.5142 -108.659 -81.6479 77.3403 
-108.633 -82.1967 79.0813 -108.664 -83.0707 80.6664 -108.81 -84.2454 81.9247 
-109.143 -79.9845 75.6713 -109.173 -79.6033 74.3003 -109.249 -80.8464 76.9759 
-109.307 -81.5986 78.5548 -109.269 -82.2758 80.3233 -109.353 -83.4303 81.7208 
-109.52 -84.6738 82.9897 -110.049 -79.52 75.407 -110.204 -79.4655 74.0011 
-110.031 -80.1829 76.6301 -110.08 -81.0905 78.0238 -110.037 -81.741 79.82 
-110.013 -82.6621 81.4526 -110.142 -84.03 82.685 -110.208 -85.2359 84.0345 
-111.135 -79.4565 75.092 -111.261 -79.4526 73.6923 -111.018 -79.904 76.2758 
-110.952 -80.7481 77.5238 -110.879 -81.4419 79.2159 -110.781 -82.1397 81.0048 
-110.771 -83.3297 82.3889 -110.82 -84.6784 83.6221 -110.782 -85.8258 84.9916 
-111.982 -79.259 74.8684 -112.017 -79.1946 73.4823 -111.884 -79.6499 76.0678 
-111.757 -80.4084 77.2309 -111.639 -81.1451 78.744 -111.537 -81.7951 80.4935 
-111.448 -82.7768 82.0017 -111.387 -84.0469 83.2734 -111.352 -85.2762 84.5505 
-111.325 -86.4488 85.7866 -112.64 -78.8323 74.2565 -112.634 -79.1112 75.661 
-113.354 -78.735 75.0881 -113.37 -79.2762 76.5008 -114.105 -79.2317 75.8488 
-112.545 -79.8068 76.9088 -114.102 -79.9795 77.2721 -114.628 -80.2238 76.5508 
-113.289 -80.1496 77.8837 -112.406 -80.6495 78.3213 -114.551 -81.0797 78.1221 
-114.924 -81.3647 77.4605 -113.999 -80.9165 78.844 -113.167 -81.0212 79.5361 
-112.298 -81.4069 80.0435 -114.83 -82.2524 79.2666 -115.238 -82.5014 78.63 
-114.437 -82.0365 79.9059 -113.887 -81.8554 80.6581 -113.082 -82.0043 81.2817 
-112.214 -82.3923 81.6736 -115.188 -83.4172 80.484 -115.518 -83.7026 79.7701 
-114.749 -83.2562 81.0804 -114.339 -83.0459 81.751 -113.783 -83.019 82.4243 
-112.956 -83.3098 82.8346 -112.08 -83.6765 83.0777 -115.472 -84.7158 81.5993 
-115.615 -85.044 80.8295 -115.055 -84.5746 82.1995 -114.605 -84.4311 82.7847 
-114.203 -84.2961 83.5007 -113.588 -84.402 84.0357 -112.726 -84.6754 84.2866 
-111.938 -84.9637 84.4373 -115.547 -86.1604 82.7506 -115.605 -86.4622 81.946 
-115.219 -86.0288 83.3661 -114.776 -85.9749 83.8324 -114.424 -85.8344 84.4744 
-114.014 -85.7411 85.1281 -113.32 -85.8578 85.4549 -112.532 -86.0677 85.5807 
-111.885 -86.2707 85.6827 -115.533 -87.6214 83.9027 -115.585 -87.8365 83.0673 
-115.272 -87.5107 84.5875 -114.891 -87.5241 85.0052 -114.584 -87.4847 85.4785 
-114.305 -87.3294 86.1068 -113.798 -87.2913 86.499 -113.1 -87.4345 86.5847 
-112.461 -87.5667 86.638 -111.903 -87.6075 86.7424 -111.726 -88.8282 87.791 
-112.31 -89.0032 87.7069 -112.109 -90.2432 88.8622 -112.851 -89.0839 87.643 
-112.633 -90.5526 88.8626 -112.408 -92.0227 90.0036 -113.503 -88.9881 87.6798 
-113.221 -90.7113 88.8794 -113.013 -92.4318 90.0555 -112.856 -94.441 90.9595 
-114.163 -88.9385 87.5957 -113.927 -90.7214 88.9452 -113.736 -92.6586 90.1275 
-113.633 -94.8726 91.074 -113.467 -97.1462 91.8822 -114.565 -89.0982 87.1107 
-114.509 -90.9003 88.706 -114.364 -92.8806 90.1134 -114.274 -95.0937 91.255 
-114.129 -97.4613 92.1763 -113.85 -99.608 92.969 -114.801 -89.1902 86.5487 
-114.843 -91.1335 88.1313 -114.782 -93.2562 89.7158 -114.641 -95.4053 91.1924 
-114.488 -97.6394 92.4148 -114.262 -99.9448 93.2741 -114.102 -102.182 93.7397 
-115.106 -89.112 86.1464 -115.113 -91.0902 87.6527 -115.124 -93.3918 89.2132 
-114.982 -95.7166 90.8106 -114.8 -97.9723 92.2278 -114.642 -100.347 93.2733 
-114.589 -102.821 93.8163 -114.728 -105.274 93.9323 -115.408 -89.0902 85.5579 
-115.38 -90.9473 87.1543 -115.424 -93.2217 88.7845 -115.349 -95.7089 90.4494 
-115.187 -98.2348 91.8542 -115.114 -100.86 92.8821 -115.183 -103.526 93.5783 
-115.407 -106.074 93.8888 -115.673 -108.444 93.9034 -115.551 -89.177 84.6854 
-115.524 -90.8963 86.3462 -115.571 -93.0551 88.1049 -115.563 -95.5502 89.9565 
-115.429 -98.2685 91.5038 -115.387 -101.185 92.4865 -115.588 -104.082 93.1502 
-115.945 -106.689 93.63 -116.293 -109.013 93.8357 -116.473 -111.103 93.8262 
-111.356 -89.635 88.5206 -111.801 -91.3109 89.6134 -111.046 -90.7521 89.0775 
-112.172 -93.6395 90.6749 -111.586 -92.9186 90.0916 -110.916 -92.2326 89.4429 
-112.67 -96.4709 91.6512 -112.039 -95.6482 91.1658 -111.501 -94.7946 90.4451 
-110.832 -93.7505 89.8105 -113.212 -99.1486 92.7655 -112.504 -98.3606 92.432 
-111.973 -97.5255 91.7049 -111.448 -96.5065 90.8631 -110.751 -95.2607 90.1664 
-113.634 -101.839 93.6746 -112.991 -101.122 93.5946 -112.367 -100.256 93.135 
-111.917 -99.3916 92.2492 -111.474 -98.2683 91.2753 -110.834 -96.9688 90.4068 
-114.24 -105.101 93.9308 -113.638 -104.608 94.0154 -112.94 -103.744 93.9399 
-112.335 -102.747 93.4561 -111.943 -101.613 92.6758 -111.584 -100.183 91.6789 
-110.977 -98.6568 90.6886 -115.159 -108.562 93.8693 -114.526 -108.411 93.9112 
-113.834 -107.771 93.948 -113.128 -106.679 93.7793 -112.481 -105.351 93.4756 
-112.022 -103.75 92.9546 -111.622 -101.884 92.0349 -110.993 -100.063 91.0453 
-116.023 -111.513 93.8175 -115.38 -111.62 93.8033 -114.725 -111.203 93.7703 
-114.149 -110.17 93.5961 -113.467 -108.782 93.3977 -112.688 -107.222 93.2916 
-112.099 -105.328 92.9224 -111.612 -103.199 92.14 -110.95 -101.215 91.2866 
-116.728 -113.71 93.6153 -116.154 -114.133 93.6558 -116.656 -116.044 93.1753 
-115.978 -116.199 93.1905 -116.456 -117.84 92.4812 -115.445 -113.975 93.5991 
-115.74 -117.752 92.335 -116.228 -119.252 91.4949 -115.347 -115.616 92.9643 
-114.94 -113.048 93.3674 -115.494 -119.111 91.268 -115.833 -120.516 90.1541 
-115.245 -116.952 91.9712 -115.08 -114.183 92.5794 -114.522 -111.539 93.0317 
-115.203 -119.912 90.173 -115.353 -120.993 88.8134 -115.126 -118.007 91.0484 
-115.057 -115.175 91.7075 -114.684 -112.37 92.3158 -113.731 -109.965 92.8853 
-114.948 -119.444 89.2911 -114.967 -120.064 88.1157 -114.981 -118.073 90.3316 
-114.869 -115.768 91.0674 -114.535 -113.079 91.6762 -113.792 -110.711 92.2478 
-112.808 -108.254 92.8146 -114.576 -118.086 88.9137 -114.529 -118.406 88.1213 
-114.669 -117.19 89.8542 -114.537 -115.561 90.5911 -114.214 -113.362 91.149 
-113.718 -111.084 91.6066 -112.95 -108.751 92.096 -112.16 -106.051 92.4283 
-113.938 -116.619 88.9253 -113.944 -116.749 88.3591 -114.008 -116.026 89.6979 
-113.932 -114.858 90.3025 -113.719 -113.098 90.703 -113.469 -110.953 91.0575 
-113.004 -108.681 91.4429 -112.258 -106.265 91.8014 -111.515 -103.688 91.8027 
-113.244 -115.003 88.9578 -113.361 -114.93 88.5146 -113.216 -114.625 89.6337 
-113.174 -113.733 90.1727 -113.08 -112.318 90.4296 -112.965 -110.409 90.6583 
-112.696 -108.222 91.0125 -112.113 -106.037 91.3558 -111.356 -103.848 91.4453 
-110.689 -101.615 91.1276 -116.935 -112.053 93.5957 -117.074 -114.631 93.1307 
-117.13 -112.545 93.0373 -117.207 -115.063 92.3293 -117.237 -112.572 92.2618 
-116.977 -117.006 92.4635 -117.333 -114.93 91.5665 -117.386 -112.293 91.5613 
-117.136 -117.492 91.6025 -116.865 -118.853 91.6327 -117.428 -114.265 91.0963 
-117.264 -111.753 91.0521 -117.241 -117.141 90.9579 -117.099 -119.417 90.6092 
-116.663 -120.361 90.2847 -117.141 -113.269 90.7282 -116.615 -110.722 90.7072 
-117.22 -115.807 90.5653 -117.2 -118.721 89.8414 -116.983 -120.856 88.8927 
-116.2 -121.513 88.5274 -116.395 -111.908 90.439 -115.752 -108.822 90.5045 
-116.823 -114.155 90.2173 -117.08 -116.638 89.5614 -117.164 -119.533 88.3521 
-116.653 -121.354 87.4234 -115.672 -121.323 87.4569 -115.526 -109.611 90.3279 
-115.092 -106.044 90.1478 -116.037 -112.376 90.0814 -116.524 -114.43 89.5632 
-116.922 -116.809 88.726 -116.898 -119.248 87.7677 -116.159 -120.306 87.2918 
-115.179 -119.717 87.504 -114.871 -106.354 89.9675 -114.732 -103.081 89.2672 
-115.2 -109.658 90.0924 -115.67 -112.217 89.7275 -116.165 -114.203 89.1601 
-116.508 -116.273 88.5615 -116.314 -117.981 88.0702 -115.502 -118.434 87.8492 
-114.591 -117.788 87.9577 -114.52 -103.107 88.9759 -114.551 -100.691 87.9542 
-114.636 -106.111 89.6371 -114.934 -109.111 89.7353 -115.304 -111.475 89.3895 
[...]
CELL_DATA 2000
SCALARS Distance double
LOOKUP_TABLE default
155.269 155.904 155.775 156.239 156.77 156.528 157.047 156.887 157.497 
157.879 157.543 158.079 157.825 158.482 158.313 159.058 159.05 158.722 
159.281 158.973 159.628 159.391 160.145 159.982 160.803 160.216 159.912 
160.549 160.245 160.941 160.632 161.381 161.133 161.979 161.813 162.733 
161.428 161.122 161.832 161.562 162.356 162.038 162.836 162.488 163.359 
163.098 164.099 163.899 164.932 162.644 162.355 163.065 162.848 163.686 
163.464 164.314 164.004 164.872 164.575 165.58 165.364 166.459 166.227 
167.288 163.813 163.548 164.228 164.034 164.848 164.717 165.585 165.405 
166.263 166.042 166.99 166.826 167.898 167.747 168.828 168.601 169.632 
164.937 164.7 165.374 165.167 165.95 165.824 166.703 166.594 167.486 
167.335 168.267 168.144 169.191 169.109 170.208 170.078 171.132 170.914 
171.91 154.822 154.305 154.831 155.407 153.86 154.331 154.963 155.513 
156.253 153.733 154.034 154.702 155.16 155.974 156.517 157.371 153.816 
154.066 154.706 155.04 155.83 156.306 157.172 157.694 158.53 153.689 
154.079 154.693 155.07 155.767 156.193 156.989 157.492 158.323 158.839 
159.663 153.493 153.854 154.501 154.95 155.66 156.1 156.848 157.31 
158.135 158.645 159.515 160.016 160.875 153.737 153.845 154.524 154.82 
155.615 156.007 156.816 157.216 158.05 158.506 159.411 159.91 160.814 
161.279 162.12 154.306 154.304 154.938 155.05 155.817 156.086 156.926 
157.264 158.104 158.49 159.366 159.831 160.734 161.218 162.072 162.51 
163.298 154.743 154.832 155.394 155.501 156.157 156.36 157.121 157.419 
158.226 158.574 159.402 159.809 160.661 161.121 161.96 162.427 163.222 
163.656 164.408 155.057 155.813 155.538 155.785 156.825 156.422 156.701 
156.34 156.604 158.03 157.562 157.85 157.391 157.689 157.264 157.577 
159.271 158.812 159.15 158.655 158.978 158.471 158.806 158.337 158.689 
160.585 160.099 160.495 160.004 160.395 159.863 160.235 159.685 160.052 
159.525 159.89 161.977 161.486 161.9 161.395 161.824 161.315 161.747 
161.199 161.594 160.997 161.353 160.773 161.138 163.33 162.895 163.335 
162.832 163.25 162.748 163.203 162.711 163.153 162.584 162.939 162.305 
162.629 162.042 162.404 164.638 164.249 164.746 164.268 164.695 164.181 
164.633 164.157 164.642 164.13 164.528 163.906 164.217 163.573 163.898 
163.316 163.668 165.926 165.573 166.118 165.68 166.143 165.636 166.099 
165.61 166.122 165.631 166.086 165.496 165.832 165.174 165.481 164.848 
165.176 164.578 164.885 165.741 166.101 166.36 167.241 166.437 166.729 
167.681 167.935 168.895 166.801 167.1 168.102 168.391 169.443 169.694 
170.809 167.099 167.478 168.532 168.857 169.986 170.283 171.504 171.78 
173.056 167.171 167.693 168.812 169.272 170.452 170.841 172.104 172.471 
173.788 174.098 175.35 167.125 167.684 168.837 169.444 170.679 171.227 
172.496 172.984 174.277 174.714 175.958 176.284 177.434 167.123 167.641 
168.769 169.405 170.68 171.348 172.665 173.266 174.564 175.088 176.363 
176.796 178.032 178.344 179.569 167.067 167.608 168.67 169.313 170.564 
171.295 172.658 173.361 174.714 175.317 176.656 177.178 178.536 178.956 
180.315 180.615 181.945 166.843 167.439 168.423 169.114 170.287 171.094 
172.441 173.274 174.662 175.399 176.773 177.426 178.835 179.423 180.841 
181.313 182.654 182.985 184.185 165.772 167.283 166.433 166.273 168.979 
168.061 167.956 167.018 166.901 170.952 169.921 169.918 168.871 168.814 
167.781 167.708 173.242 172.107 172.188 171.03 171.055 169.886 169.825 
168.679 168.565 175.57 174.503 174.618 173.437 173.493 172.269 172.247 
170.973 170.848 169.586 169.439 177.727 176.796 177.008 175.896 175.99 
174.767 174.803 173.507 173.465 172.08 171.955 170.575 170.451 179.951 
179.019 179.433 178.351 178.615 177.364 177.511 176.172 176.26 174.848 
174.828 173.32 173.185 171.696 171.534 182.374 181.427 181.993 180.929 
181.368 180.134 180.389 179.016 179.151 177.733 177.774 176.28 176.153 
174.566 174.308 172.766 172.494 184.619 183.85 184.402 183.491 183.908 
182.849 183.066 181.841 181.871 180.555 180.486 179.124 178.945 177.468 
177.134 175.563 175.163 173.638 173.273 185.839 187.292 186.352 185.685 
188.203 187.574 186.974 186.024 185.159 188.638 188.23 187.623 186.996 
186.17 185.283 184.25 188.758 188.511 187.908 187.429 186.599 185.968 
184.982 184.151 182.998 188.458 188.478 187.949 187.628 186.792 186.243 
185.246 184.617 183.539 182.75 181.556 187.575 187.915 187.462 187.477 
186.686 186.323 185.288 184.76 183.683 183.09 181.962 181.216 179.967 
186.327 186.817 186.425 186.73 186.043 185.983 184.984 184.652 183.548 
183.105 181.976 181.425 180.191 179.479 178.124 185.02 185.519 185.163 
185.581 184.999 185.155 184.251 184.14 183.054 182.794 181.647 181.271 
180.04 179.511 178.166 177.49 176.102 183.641 184.177 183.79 184.278 
183.724 184.027 183.191 183.259 182.209 182.115 180.969 180.761 179.549 
179.203 177.907 177.399 176.05 175.428 174.125 186.099 186.57 186.817 
187.496 186.5 187.024 187.805 188.03 188.455 186.134 186.783 187.657 
188.154 188.753 188.827 188.984 185.587 186.327 187.185 187.868 188.593 
188.98 189.271 189.2 189.103 184.649 185.597 186.331 187.18 187.85 
188.581 188.977 189.282 189.214 189.105 188.742 183.177 184.398 185.055 
186.04 186.53 187.489 187.902 188.661 188.728 188.977 188.587 188.46 
187.836 181.175 182.663 183.367 184.538 184.936 185.942 186.271 187.27 
187.496 188.195 187.988 188.13 187.492 187.325 186.575 178.787 180.412 
181.141 182.607 183.064 184.222 184.472 185.515 185.732 186.712 186.728 
187.305 186.859 186.904 186.154 185.991 185.247 176.4 177.898 178.529 
180.146 180.667 182.119 182.392 183.587 183.683 184.785 184.797 185.759 
185.514 186.037 185.415 185.487 184.693 184.615 183.853 166.957 167.665 
167.712 168.583 168.571 168.544 169.538 169.53 170.543 169.79 169.656 
170.778 170.687 171.884 171.747 172.838 171.182 171.057 172.292 172.148 
173.466 173.291 174.529 174.212 175.204 172.375 172.429 173.719 173.707 
175.082 174.984 176.319 176.037 177.147 176.63 177.462 173.267 173.482 
174.818 175 176.455 176.549 178.007 177.874 179.132 178.686 179.661 
178.953 179.673 174.082 174.348 175.813 176.067 177.676 177.882 179.504 
179.535 180.934 180.663 181.741 181.185 182.002 181.199 181.778 174.895 
175.23 176.854 177.171 178.927 179.177 180.892 181.012 182.452 182.341 
183.402 183.072 183.882 183.368 183.998 183.212 183.615 175.58 176.044 
177.751 178.226 180.024 180.408 182.072 182.305 183.661 183.687 184.665 
184.49 185.221 184.942 185.573 185.143 185.615 184.873 185.11 166.094 
165.007 165.941 166.757 163.959 164.872 165.722 166.672 167.607 162.964 
163.846 164.69 165.653 166.604 167.609 168.707 162.022 162.858 163.659 
164.609 165.531 166.564 167.627 168.766 169.974 161.154 161.936 162.707 
163.594 164.458 165.445 166.431 167.581 168.726 169.98 171.133 160.324 
161.072 161.814 162.667 163.486 164.39 165.276 166.33 167.375 168.62 
169.742 171.001 172.028 159.559 160.235 160.918 161.749 162.532 163.416 
164.224 165.18 166.1 167.241 168.304 169.56 170.607 171.816 172.79 
158.98 159.524 160.144 160.861 161.598 162.438 163.214 164.115 164.943 
165.972 166.941 168.132 169.178 170.396 171.379 172.562 173.52 158.607 
159.034 159.589 160.155 160.816 161.543 162.287 163.119 163.903 164.826 
165.699 166.786 167.782 168.983 169.975 171.152 172.06 173.244 174.156 
158.606 158.839 158.988 159.544 159.001 159.19 159.801 160.006 160.712 
159.281 159.403 160.084 160.293 161.104 161.318 162.168 159.753 159.825 
160.569 160.706 161.607 161.797 162.738 162.894 163.798 160.195 160.348 
161.156 161.304 162.232 162.399 163.38 163.529 164.496 164.609 165.587 
160.607 160.785 161.67 161.887 162.861 163.058 164.062 164.218 165.251 
165.38 166.465 166.559 167.668 161.252 161.32 162.275 162.447 163.514 
163.71 164.804 164.959 166.079 166.215 167.399 167.52 168.712 168.765 
169.871 162.103 162.117 163.104 163.193 164.311 164.46 165.638 165.785 
166.985 167.123 168.356 168.496 169.713 169.808 170.927 170.937 171.949 
162.906 162.981 163.96 164.069 165.167 165.319 166.502 166.672 167.899 
168.065 169.31 169.463 170.683 170.793 171.935 171.974 173.041 173.006 
174.028 163.593 165.069 164.457 164.75 166.798 166.092 166.479 165.749 
166.056 168.811 168.009 168.477 167.653 168.049 167.183 167.476 171.034 
170.185 170.742 169.836 170.319 169.355 169.721 168.708 168.961 173.51 
172.59 173.28 172.281 172.875 171.819 172.286 171.151 171.454 170.276 
170.459 176.328 175.344 176.222 175.077 175.793 174.59 175.182 173.935 
174.332 172.985 173.158 171.809 171.88 179.148 178.321 179.378 178.259 
179.066 177.742 178.379 177.021 177.521 176.078 176.302 174.728 174.712 
173.213 173.159 181.413 180.943 182.046 181.307 182.163 181.039 181.612 
180.276 180.719 179.322 179.599 178.021 178.002 176.267 176.081 174.472 
174.315 182.94 182.776 183.767 183.507 184.362 183.757 184.288 183.268 
183.531 182.32 182.484 181.161 181.165 179.584 179.358 177.591 177.281 
175.616 175.363 163.165 162.917 163.54 164.579 162.656 163.312 164.416 
165.06 166.256 162.33 163.062 164.237 164.934 166.199 166.876 168.221 
161.888 162.699 163.938 164.744 166.08 166.838 168.234 168.94 170.379 
161.483 162.268 163.555 164.414 165.825 166.685 168.145 168.937 170.42 
171.157 172.732 161.247 161.961 163.271 164.08 165.532 166.418 167.96 
168.827 170.38 171.182 172.802 173.615 175.375 161.078 161.778 163.078 
163.856 165.291 166.159 167.74 168.655 170.295 171.153 172.807 173.655 
175.402 176.31 178.088 160.921 161.6 162.872 163.65 165.049 165.913 
167.472 168.432 170.117 171.064 172.749 173.634 175.324 176.245 177.94 
178.877 180.406 160.85 161.455 162.689 163.428 164.788 165.632 167.137 
168.114 169.779 170.822 172.514 173.493 175.124 176.07 177.666 178.617 
180.081 180.935 182.107 162.249 160.776 161.653 161.946 159.293 160.121 
160.349 161.298 161.612 157.912 158.629 158.76 159.653 159.916 160.926 
161.238 156.632 157.266 157.319 158.097 158.289 159.215 159.474 160.487 
160.768 155.369 155.97 155.974 156.688 156.805 157.628 157.807 158.726 
158.955 159.984 160.319 154.197 154.721 154.684 155.335 155.384 156.141 
156.231 157.074 157.234 158.196 158.502 159.596 160.046 153.231 153.648 
153.598 154.11 154.106 154.729 154.754 155.499 155.62 156.512 156.802 
157.831 158.268 159.389 159.89 152.431 152.79 152.748 153.139 153.093 
153.548 153.522 154.104 154.209 154.979 155.293 156.225 156.683 157.698 
158.2 159.271 159.781 151.751 152.069 152.031 152.352 152.254 152.604 
152.515 152.977 153.044 153.693 154.005 154.835 155.324 156.241 156.771 
157.716 158.242 159.237 159.771 151.445 151.151 151.407 151.675 150.906 
151.059 151.165 151.525 151.784 150.766 150.783 150.718 150.946 151.12 
151.597 151.979 150.82 150.715 150.625 150.611 150.752 151.033 151.501 
151.97 152.573 151.098 150.91 150.943 150.763 150.974 150.976 151.518 
151.761 152.518 152.861 153.644 151.642 151.352 151.495 151.275 151.607 
151.487 152.062 152.091 152.873 153.056 153.927 154.172 155.023 152.495 
152.078 152.258 151.966 152.375 152.237 152.848 152.794 153.53 153.58 
154.428 154.591 155.473 155.659 156.492 153.518 153.066 153.266 152.874 
153.279 153.072 153.692 153.607 154.319 154.296 155.09 155.172 156.047 
156.184 157.039 157.16 157.966 154.487 154.112 154.342 153.948 154.308 
154.031 154.587 154.455 155.13 155.079 155.828 155.862 156.706 156.81 
157.683 157.776 158.607 158.676 159.486 155.06 156.026 155.353 155.01 
157.275 156.452 156.136 155.367 155.06 158.84 157.874 157.558 156.643 
156.36 155.546 155.351 160.628 159.589 159.308 158.244 157.957 156.988 
156.798 155.975 155.886 162.59 161.495 161.312 160.164 159.932 158.789 
158.604 157.582 157.503 156.63 156.623 164.77 163.593 163.483 162.296 
162.171 160.954 160.826 159.619 159.538 158.444 158.445 157.496 157.546 
167.133 165.909 165.844 164.594 164.54 163.304 163.257 161.995 161.921 
160.671 160.624 159.492 159.505 158.508 158.542 169.547 168.361 168.388 
167.095 167.091 165.786 165.781 164.488 164.432 163.126 163.028 161.775 
161.713 160.575 160.545 159.51 159.482 171.889 170.807 170.951 169.718 
169.779 168.446 168.446 167.086 167.02 165.658 165.524 164.199 164.069 
162.836 162.746 161.594 161.512 160.436 160.371 161.227 162.452 162.232 
163.089 163.774 163.562 164.509 164.256 165.217 165.18 164.975 166.051 
165.796 166.886 166.559 167.636 166.731 166.518 167.75 167.489 168.766 
168.417 169.666 169.212 170.378 168.352 168.198 169.586 169.352 170.796 
170.471 171.872 171.416 172.68 172.097 173.19 169.888 169.86 171.363 
171.242 172.766 172.553 174.021 173.665 174.972 174.444 175.565 174.894 
175.849 171.251 171.359 172.909 172.941 174.463 174.409 175.867 175.692 
177.017 176.653 177.812 177.252 178.262 177.529 178.402 172.378 172.617 
174.158 174.343 175.836 175.926 177.34 177.336 178.657 178.513 179.708 
179.371 180.418 179.869 180.746 180.01 180.739 173.246 173.591 175.091 
175.42 176.885 177.118 178.485 178.618 179.89 179.933 181.106 181.026 
182.06 181.79 182.617 182.123 182.741 182.093 182.606 154.225 153.768 
153.778 153.212 153.19 153.22 152.678 152.66 152.038 152.948 152.753 
152.261 152.157 151.624 151.523 151.035 153.128 152.748 152.229 151.937 
151.48 151.271 150.892 150.756 150.545 153.233 152.935 152.327 152.001 
151.456 151.227 150.867 150.742 150.558 150.497 150.461 153.173 152.923 
152.318 152.02 151.398 151.16 150.741 150.677 150.518 150.524 150.468 
150.467 150.463 153.358 152.973 152.477 152.073 151.541 151.165 150.779 
150.593 150.501 150.488 150.534 150.507 150.519 150.476 150.519 153.837 
153.36 152.923 152.425 151.97 151.491 151.15 150.814 150.727 150.6 
150.699 150.646 150.736 150.636 150.692 150.618 150.759 154.353 153.893 
153.434 152.939 152.452 151.981 151.588 151.236 151.037 150.864 150.835 
150.798 150.835 150.826 150.88 150.847 150.964 150.951 151.175 154.212 
153.23 153.783 153.876 152.093 152.733 152.92 153.51 153.778 151.093 
151.636 151.954 152.598 153.027 153.618 154.102 150.599 150.87 151.244 
151.785 152.39 152.988 153.608 154.131 154.72 150.549 150.639 150.997 
151.332 151.986 152.503 153.219 153.727 154.355 154.826 155.421 150.585 
150.676 151.035 151.266 151.878 152.264 152.978 153.416 154.051 154.483 
155.043 155.51 156.049 150.638 150.717 151.107 151.334 151.942 152.256 
152.942 153.279 153.907 154.242 154.785 155.154 155.663 156.091 156.564 
150.879 150.857 151.264 151.435 152.07 152.35 153.04 153.319 153.939 
154.191 154.734 154.994 155.506 155.806 156.311 156.643 157.113 151.32 
151.215 151.607 151.677 152.295 152.516 153.2 153.444 154.041 154.259 
154.774 154.998 155.502 155.75 156.271 156.531 157.047 157.297 157.774 
154.717 154.43 154.843 155.458 154.372 154.658 155.341 155.729 156.487 
154.662 154.772 155.451 155.734 156.524 156.89 157.695 155.223 155.194 
155.801 155.948 156.693 156.986 157.782 158.126 158.919 155.929 155.836 
156.391 156.384 157.059 157.22 158.007 158.276 159.098 159.399 160.236 
156.573 156.543 157.095 157.037 157.643 157.672 158.421 158.595 159.434 
159.67 160.511 160.776 161.616 157.034 157.084 157.624 157.665 158.218 
158.255 158.898 159.036 159.803 160.028 160.809 161.056 161.823 162.117 
162.914 157.488 157.488 157.987 158.072 158.616 158.72 159.308 159.45 
160.126 160.341 161.064 161.307 162.022 162.291 163.046 163.375 164.181 
158.089 157.989 158.452 158.451 159.014 159.093 159.727 159.838 160.517 
160.663 161.386 161.572 162.314 162.521 163.284 163.541 164.35 164.661 
165.472 162.089 161.302 161.362 160.645 160.483 160.547 159.895 159.933 
159.237 159.858 159.802 159.178 159.206 158.601 158.593 157.934 159.471 
159.311 158.638 158.56 157.961 157.974 157.382 157.35 156.693 159.092 
158.964 158.256 158.09 157.397 157.345 156.758 156.782 156.182 156.126 
155.462 158.697 158.581 157.927 157.731 156.998 156.83 156.202 156.181 
155.659 155.636 155.044 154.927 154.309 158.459 158.278 157.696 157.461 
156.789 156.522 155.893 155.741 155.261 155.2 154.709 154.576 153.987 
153.837 153.307 158.309 158.118 157.556 157.315 156.7 156.408 155.811 
155.562 155.079 154.929 154.477 154.318 153.756 153.557 152.974 152.874 
152.438 158.088 157.94 157.376 157.182 156.593 156.352 155.781 155.533 
155.029 154.824 154.352 154.154 153.6 153.36 152.739 152.552 152.038 
152.024 151.698 
POINT_DATA 1002
SCALARS Distance double
LOOKUP_TABLE default
155.656 154.809 155.344 156.327 156.042 156.737 157.217 157.054 157.601 
158.156 158.361 158.224 158.662 159.187 159.835 159.584 159.344 159.9 
160.326 160.926 161.651 160.811 160.495 161.254 161.672 162.148 162.865 
163.684 162.064 161.729 162.625 163.191 163.646 164.284 165.15 165.966 
163.276 162.931 163.858 164.578 165.176 165.797 166.662 167.568 168.333 
164.441 164.069 164.971 165.716 166.462 167.155 168.021 169.014 169.905 
170.66 165.591 165.154 166.092 166.788 167.606 168.391 169.258 170.297 
171.317 172.178 172.895 154.315 154.836 153.767 154.393 153.424 155.664 
154.29 153.488 155.426 156.835 154.424 153.54 155.409 156.658 158.025 
154.277 153.252 155.38 156.516 157.795 159.152 154.035 153.195 155.195 
156.408 157.622 158.991 160.405 154.308 153.712 155.232 156.42 157.623 
158.908 160.336 161.705 154.895 154.314 155.613 156.609 157.752 158.942 
160.252 161.617 162.897 155.292 154.625 155.998 156.86 157.898 159.032 
160.236 161.498 162.769 164.003 155.257 156.066 156.12 157.082 157.274 
156.957 158.333 158.485 158.136 157.977 159.621 159.711 159.498 159.304 
159.141 160.971 161.077 160.898 160.791 160.614 160.404 162.415 162.444 
162.319 162.259 162.195 161.977 161.683 163.831 163.72 163.765 163.671 
163.684 163.585 163.26 162.947 165.2 164.998 165.212 165.112 165.122 
165.125 164.878 164.515 164.235 166.527 166.259 166.633 166.59 166.6 
166.65 166.487 166.133 165.798 165.498 166.572 167.011 168.141 167.382 
168.654 169.893 167.789 169.139 170.539 172.001 168.164 169.649 171.176 
172.804 174.37 168.269 170.009 171.703 173.439 175.127 176.559 168.189 
170.06 171.976 173.817 175.583 177.171 178.577 168.15 169.972 172.016 
174.012 175.872 177.641 179.29 180.847 168.045 169.821 171.904 174.062 
176.075 178.029 179.947 181.717 183.278 167.749 169.481 171.564 173.862 
176.069 178.183 180.303 182.282 183.968 185.315 167.138 168.905 167.825 
170.968 169.886 168.733 173.36 172.242 171.043 169.701 175.785 174.715 
173.526 172.178 170.67 178.05 177.193 176.065 174.825 173.398 171.803 
180.439 179.819 178.842 177.635 176.329 174.764 172.993 183.008 182.544 
181.754 180.585 179.246 177.756 175.947 173.99 185.275 184.932 184.259 
183.195 181.843 180.379 178.708 176.756 174.749 186.934 186.855 188.094 
187.779 188.74 186.293 188.175 189.004 186.921 185.302 188.358 188.919 
187.197 185.687 183.963 188.161 188.298 187.334 185.852 184.207 182.452 
187.29 187.142 186.941 185.79 184.229 182.617 180.822 186.024 185.822 
185.966 185.226 183.943 182.475 180.841 178.916 184.714 184.529 184.757 
184.277 183.256 181.968 180.503 178.782 176.805 183.292 183.105 183.367 
183.051 182.249 181.127 179.819 178.329 176.614 174.733 186.056 187.467 
186.195 187.419 185.894 188.535 187.044 185.475 188.516 189.211 186.469 
184.823 188.053 189.218 189.391 185.504 183.625 187.027 188.479 189.245 
189.013 184.069 181.844 185.597 186.972 188.266 188.678 188.072 182.085 
179.605 183.953 185.263 186.583 187.649 187.644 186.764 179.557 177.208 
181.791 183.454 184.705 185.914 186.63 186.31 185.392 176.94 175.059 
179.1 181.12 182.609 183.742 184.742 185.178 184.764 183.927 166.867 
168.525 167.608 169.505 168.606 170.59 170.862 169.908 171.976 173.095 
172.408 171.236 173.616 174.815 175.689 173.651 172.244 175.106 176.535 
177.62 178.145 174.558 173.006 176.253 178.018 179.481 180.307 180.544 
175.488 173.759 177.402 179.386 181.119 182.211 182.712 182.759 176.452 
174.482 178.635 180.758 182.542 183.701 184.3 184.639 184.602 165.161 
165.799 164.064 164.757 163.058 166.613 163.726 162.112 165.592 167.613 
162.741 161.218 164.515 166.491 168.784 161.853 160.394 163.532 165.333 
167.473 169.924 160.972 159.61 162.62 164.312 166.189 168.467 170.839 
160.127 158.942 161.657 163.321 165.045 167.071 169.376 171.609 159.506 
158.496 160.801 162.34 163.985 165.803 167.953 170.207 172.325 159.103 