# vtk DataFile Version 4.0
vtk output
ASCII
DATASET POLYDATA
POINTS 1002 float
-105.584 -81.2268 75.9935 -105.572 -80.4369 74.9273 -105.879 -80.2871 75.8098 
-105.96 -81.1786 77.0122 -106.247 -80.3078 76.8423 -105.55 -82.0369 77.3663 
-106.347 -81.297 78.1343 -106.74 -80.5035 77.8629 -105.891 -82.0462 78.5637 
-105.496 -82.9249 78.9769 -106.868 -81.5575 79.1484 -107.421 -80.7935 78.7593 
-106.266 -82.2078 79.747 -105.836 -83.0455 80.2482 -105.694 -84.1788 80.5001 
-107.645 -81.876 80.0355 -108.166 -81.0609 79.6787 -106.949 -82.5718 80.6741 
-106.429 -83.3741 81.3085 -106.288 -84.5307 81.6153 -106.267 -85.7143 81.8454 
-108.422 -82.1866 81.0441 -108.819 -81.3383 80.6945 -107.911 -83.0772 81.4911 
-107.399 -83.9495 82.0558 -107.19 -85.0564 82.4897 -107.09 -86.223 82.8261 
-106.892 -87.1401 83.2754 -108.981 -82.5576 82.163 -109.43 -81.8079 81.6355 
-108.656 -83.5372 82.5591 -108.315 -84.5592 82.9184 -108.084 -85.6427 83.3324 
-107.908 -86.7905 83.7972 -107.621 -87.7792 84.318 -107.394 -88.6544 84.8039 
-109.509 -83.0854 83.1627 -110.055 -82.4382 82.4999 -109.142 -83.9431 83.726 
-108.877 -84.9966 84.1262 -108.666 -86.1513 84.4811 -108.489 -87.3375 84.9216 
-108.241 -88.4659 85.4103 -108.019 -89.5275 85.8402 -107.99 -90.5948 86.1672 
-110.154 -83.6774 84.0367 -110.648 -83.0047 83.4002 -109.731 -84.4562 84.6497 
-109.426 -85.4415 85.1966 -109.204 -86.6611 85.639 -109.035 -87.9624 86.0358 
-108.873 -89.1848 86.4303 -108.738 -90.3658 86.7553 -108.705 -91.5552 87.025 
-108.757 -92.6565 87.2999 -110.831 -84.2196 84.8265 -111.181 -83.4665 84.2496 
-110.466 -85.0778 85.3398 -110.158 -86.0888 85.8628 -109.942 -87.3264 86.3633 
-109.788 -88.7102 86.7751 -109.657 -90.003 87.1496 -109.579 -91.1765 87.4704 
-109.57 -92.3588 87.7099 -109.571 -93.4998 87.972 -109.534 -94.4466 88.2882 
-105.759 -79.5759 74.4281 -106.056 -79.4166 75.3828 -106.127 -78.873 73.7455 
-106.528 -78.7485 74.7261 -106.824 -78.3757 72.8403 -106.482 -79.416 76.4648 
-107.379 -78.3202 73.8419 -107.621 -77.8378 72.0588 -107.064 -78.7121 75.8405 
-107.113 -79.6078 77.4948 -108.178 -77.8016 73.1871 -108.202 -77.1037 71.6736 
-107.917 -78.2523 75.0541 -107.72 -78.8786 76.9608 -107.874 -79.9487 78.4418 
-108.704 -76.9984 72.9365 -108.786 -76.4192 71.4167 -108.611 -77.6492 74.5373 
-108.446 -78.3305 76.3416 -108.455 -79.2635 78.0426 -108.645 -80.3089 79.4178 
-109.341 -76.2426 72.7126 -109.674 -76.0087 71.0041 -109.185 -76.8066 74.2892 
-109.117 -77.6546 75.8398 -109.179 -78.6722 77.5159 -109.359 -79.7276 79.0384 
-109.452 -80.7408 80.3375 -110.219 -75.837 72.3445 -110.653 -75.771 70.5391 
-109.945 -76.1757 74.0354 -109.85 -76.9893 75.4238 -109.927 -78.067 76.9167 
-110.17 -79.1676 78.5482 -110.324 -80.25 79.9204 -110.226 -81.3471 81.1681 
-111.093 -75.6811 71.9579 -111.453 -75.5737 70.1818 -110.819 -75.8988 73.7613 
-110.689 -76.5745 75.122 -110.67 -77.6051 76.3791 -110.805 -78.622 78.0361 
-110.995 -79.6464 79.6171 -110.994 -80.7991 80.8347 -110.807 -81.9573 82.0791 
-111.882 -75.6047 71.6009 -112.116 -75.4258 69.9444 -111.673 -75.7541 73.4635 
-111.534 -76.2425 74.9472 -111.436 -77.1929 76.074 -111.38 -78.1693 77.5939 
-111.406 -79.0129 79.3904 -111.435 -80.0471 80.7389 -111.361 -81.2797 81.8178 
-111.239 -82.4412 83.0423 -112.725 -75.519 70.7063 -112.594 -75.6382 72.5932 
-113.477 -75.6777 71.6313 -113.388 -75.7447 73.66 -114.082 -76.0196 72.7911 
-112.445 -75.8399 74.4654 -114.003 -76.2962 74.7768 -114.431 -76.7793 74.0899 
-113.226 -76.177 75.4143 -112.291 -76.5972 75.8172 -114.438 -77.3763 75.8772 
-114.801 -77.7289 75.1979 -113.863 -77.1523 76.4111 -113.034 -77.2493 76.8622 
-112.125 -77.6922 77.2339 -114.858 -78.3641 76.9114 -115.266 -78.5664 76.1146 
-114.326 -78.3786 77.5197 -113.672 -78.2961 78.1238 -112.818 -78.2793 78.7631 
-111.962 -78.5473 79.199 -115.24 -79.2082 78.0562 -115.567 -79.6124 77.2291 
-114.692 -79.2632 78.7487 -114.127 -79.3034 79.4179 -113.475 -79.0825 80.1929 
-112.602 -79.0401 80.7491 -111.853 -79.4346 80.864 -115.489 -80.4109 79.3391 
-115.633 -81.0009 78.5276 -115.08 -80.2128 80.0659 -114.555 -80.243 80.6882 
-114.04 -80.1222 81.3459 -113.331 -80.0003 81.8499 -112.446 -80.2137 82.0059 
-111.782 -80.7253 81.9338 -115.573 -81.8523 80.4792 -115.586 -82.3952 79.6741 
-115.407 -81.5367 81.2607 -115.046 -81.4753 81.8855 -114.572 -81.4446 82.4311 
-113.982 -81.428 82.8088 -113.167 -81.551 82.9308 -112.326 -81.7911 82.9843 
-111.715 -82.1095 83.0445 -115.538 -83.2706 81.3954 -115.524 -83.6972 80.618 
-115.517 -82.9946 82.23 -115.363 -82.9314 82.9101 -114.99 -82.9365 83.4382 
-114.427 -82.9823 83.8042 -113.714 -83.1344 83.9186 -112.92 -83.2426 83.9693 
-112.224 -83.2508 84.1385 -111.681 -83.3154 84.2755 -111.546 -84.5182 85.33 
-112.061 -84.5607 85.3296 -111.969 -86.0016 86.2478 -112.602 -84.7462 85.1509 
-112.458 -86.2388 86.263 -112.368 -87.8931 87.2176 -113.255 -84.8535 85.0108 
-112.968 -86.5114 86.1855 -112.891 -88.2368 87.3488 -112.788 -90.0125 88.4313 
-113.997 -84.7267 84.962 -113.595 -86.5749 86.1415 -113.49 -88.504 87.438 
-113.447 -90.4692 88.6747 -113.321 -92.4049 89.6198 -114.703 -84.6235 84.767 
-114.305 -86.5469 86.0374 -114.155 -88.6424 87.4235 -114.154 -90.8405 88.8449 
-114.038 -93.027 89.9247 -113.903 -95.2146 90.6559 -115.213 -84.6331 84.3769 
-114.918 -86.6643 85.8152 -114.743 -88.845 87.2544 -114.731 -91.1199 88.7868 
-114.665 -93.5329 90.124 -114.519 -95.9958 91.0607 -114.4 -98.4156 91.799 
-115.439 -84.6102 83.8029 -115.292 -86.7225 85.472 -115.17 -89.0265 87.0434 
-115.114 -91.3148 88.5487 -115.065 -93.8657 90.0325 -114.999 -96.7084 91.2435 
-114.901 -99.4346 92.1398 -114.798 -101.868 92.8528 -115.483 -84.6784 82.9697 
-115.448 -86.6635 84.8013 -115.44 -88.9867 86.6289 -115.397 -91.34 88.217 
-115.322 -94.025 89.7177 -115.316 -97.2637 91.1153 -115.317 -100.426 92.1526 
-115.241 -103.003 92.8511 -115.195 -105.141 93.3549 -115.491 -84.9426 82.058 
-115.504 -86.7026 83.8329 -115.567 -88.8643 85.8 -115.566 -91.2231 87.6137 
-115.476 -94.0464 89.2315 -115.491 -97.5936 90.7622 -115.613 -101.161 91.9716 
-115.628 -103.91 92.6728 -115.578 -105.941 93.0552 -115.651 -107.717 93.3331 
-111.28 -85.5106 85.844 -111.748 -87.2858 86.8065 -110.992 -86.6904 86.3119 
-112.158 -89.3811 87.9965 -111.513 -88.7453 87.3895 -110.769 -88.0335 86.8179 
-112.637 -91.7123 89.2928 -112.006 -90.9988 88.7309 -111.388 -90.2861 87.9247 
-110.643 -89.5134 87.2666 -113.287 -94.554 90.3286 -112.657 -93.6977 89.9633 
-112.018 -92.7513 89.2788 -111.339 -91.8604 88.3724 -110.532 -90.9565 87.6824 
-113.927 -97.897 91.3809 -113.43 -97.1408 90.9133 -112.814 -95.9893 90.4643 
-112.053 -94.6531 89.7812 -111.27 -93.4073 88.8902 -110.45 -92.2479 88.1176 
-114.409 -101.457 92.6399 -114.028 -100.878 92.0401 -113.598 -99.8773 91.4099 
-112.924 -98.3559 90.9497 -112.074 -96.5809 90.2938 -111.274 -94.8946 89.3435 
-110.461 -93.489 88.4417 -114.873 -104.972 93.5261 -114.495 -104.523 93.234 
-114.136 -103.658 92.5166 -113.715 -102.297 91.8613 -113.022 -100.435 91.335 
-112.162 -98.2508 90.5547 -111.33 -96.214 89.5682 -110.467 -94.6708 88.6929 
-115.451 -107.992 93.6918 -115.084 -107.864 93.8398 -114.617 -107.136 93.5142 
-114.233 -105.872 92.864 -113.819 -104.174 92.1887 -113.109 -101.96 91.4535 
-112.194 -99.4398 90.5896 -111.271 -97.2357 89.7466 -110.368 -95.6508 89.0052 
-116.144 -110.155 93.3023 -115.927 -110.681 93.6558 -116.655 -112.648 93.1031 
-116.181 -113.091 93.3125 -116.713 -114.944 92.5946 -115.36 -110.482 93.8394 
-115.873 -114.968 92.551 -116.22 -116.706 91.6326 -115.327 -112.665 93.445 
-114.717 -109.439 93.6405 -115.362 -116.329 91.4698 -115.636 -117.808 90.4188 
-115.049 -114.291 92.5862 -114.678 -111.39 93.3589 -114.316 -107.792 93.074 
-115.054 -117.043 90.5043 -115.099 -118.006 89.4231 -114.962 -115.239 91.6105 
-114.696 -112.737 92.6273 -114.349 -109.357 92.8715 -113.853 -105.586 92.2461 
-114.624 -116.521 89.996 -114.48 -116.876 89.0613 -114.844 -115.099 91.0033 
-114.745 -113.001 91.9041 -114.329 -110.147 92.3518 -113.734 -106.505 92.0382 
-112.98 -102.757 91.3329 -114.033 -114.604 89.9872 -114.051 -114.584 89.3496 
-114.269 -113.702 90.7704 -114.363 -112.071 91.4627 -114.075 -109.866 91.8583 
-113.471 -106.78 91.743 -112.674 -103.148 91.2226 -111.897 -99.8562 90.536 
-113.697 -112.016 90.1828 -113.947 -111.899 89.7572 -113.63 -111.569 90.6596 
-113.628 -110.478 91.0992 -113.488 -108.841 91.3956 -113.088 -106.446 91.3739 
-112.363 -103.26 91.05 -111.521 -100.088 90.5437 -110.863 -97.5901 89.8384 
-113.566 -109.514 90.1247 -113.846 -109.383 89.7657 -113.28 -109.352 90.4137 
-113.035 -108.733 90.652 -112.831 -107.554 90.8641 -112.589 -105.687 90.8875 
-112.08 -103.058 90.6517 -111.266 -100.179 90.301 -110.492 -97.7937 89.8071 
-109.96 -95.9995 89.0871 -116.018 -108.568 93.0199 -116.543 -110.911 92.9344 
-116.355 -108.919 92.7766 -116.811 -111.415 92.6017 -116.675 -108.856 92.4049 
-117.019 -113.707 92.6742 -116.999 -111.65 92.0098 -116.937 -108.372 91.7769 
-117.183 -114.752 92.0668 -117.026 -116.378 91.9291 -117.088 -111.115 91.3344 
-117.013 -107.466 91.2273 -117.241 -115.036 91.1508 -117.26 -117.416 90.8677 
-116.603 -117.997 90.6148 -116.928 -109.699 91.0529 -116.718 -106.19 90.8264 
-117.134 -113.746 90.6173 -117.383 -116.844 89.8375 -117.046 -118.136 89.3447 
-116.016 -118.375 89.2258 -116.389 -107.65 90.8317 -116.063 -104.289 90.1095 
-116.689 -111.361 90.7608 -117.114 -114.654 89.8195 -117.198 -116.621 88.8209 
-116.42 -117.483 88.3704 -115.261 -117.653 88.4643 -115.683 -104.899 90.0333 
-115.392 -101.679 88.897 -115.974 -108.375 90.7035 -116.389 -111.718 90.4324 
-116.713 -114.187 89.5417 -116.425 -115.555 88.7666 -115.522 -116.115 88.4079 
-114.602 -115.826 88.6262 -115.153 -101.747 88.6656 -114.944 -98.9599 87.4559 
-115.357 -104.874 89.7926 -115.627 -108.151 90.3738 -115.895 -111.016 90.263 
-115.905 -112.941 89.8156 -115.523 -113.917 89.3086 -114.914 -114.031 89.0083 
-114.351 -113.273 89.2187 -114.798 -98.9193 87.1272 -114.615 -96.7435 86.0702 
-114.969 -101.454 88.27 -115.149 -104.306 89.2571 -115.293 -107.122 89.8449 
[...]
CELL_DATA 2000
SCALARS Distance double
LOOKUP_TABLE default
151.92 152.616 152.484 152.975 153.491 153.287 153.798 153.618 154.15 
154.502 154.238 154.745 154.509 155.058 154.88 155.542 155.615 155.314 
155.84 155.535 156.122 155.881 156.616 156.455 157.301 156.76 156.473 
157.072 156.741 157.393 157.079 157.883 157.66 158.575 158.376 159.263 
157.895 157.628 158.29 158.022 158.733 158.435 159.241 159.003 159.92 
159.715 160.613 160.36 161.207 159.058 158.776 159.438 159.219 159.958 
159.74 160.533 160.332 161.209 161.035 161.934 161.717 162.588 162.331 
163.244 160.244 159.957 160.603 160.366 161.109 160.92 161.743 161.573 
162.465 162.301 163.228 163.034 163.953 163.725 164.668 164.444 165.431 
161.362 161.128 161.78 161.541 162.278 162.083 162.931 162.78 163.713 
163.568 164.528 164.351 165.3 165.095 166.047 165.848 166.815 166.622 
167.555 151.413 150.894 151.421 152.06 150.563 150.978 151.601 152.156 
152.916 150.447 150.776 151.379 151.789 152.532 153.103 153.942 150.364 
150.724 151.348 151.673 152.361 152.81 153.644 154.205 155.066 150.248 
150.619 151.268 151.637 152.304 152.702 153.495 153.988 154.859 155.376 
156.213 150.301 150.54 151.16 151.517 152.196 152.614 153.411 153.893 
154.793 155.266 156.135 156.566 157.38 150.591 150.695 151.27 151.496 
152.181 152.524 153.342 153.81 154.761 155.262 156.199 156.599 157.435 
157.786 158.583 150.949 151.03 151.601 151.737 152.418 152.636 153.429 
153.79 154.719 155.222 156.187 156.664 157.516 157.887 158.654 159 
159.762 151.281 151.386 151.984 152.116 152.793 152.958 153.695 153.947 
154.781 155.192 156.099 156.592 157.432 157.879 158.611 159.015 159.727 
160.127 160.843 151.665 152.635 152.228 152.442 153.753 153.295 153.517 
153.071 153.289 154.968 154.477 154.711 154.209 154.429 153.956 154.196 
156.261 155.766 156.06 155.497 155.755 155.189 155.469 154.948 155.282 
157.509 157.075 157.44 156.921 157.252 156.65 156.97 156.355 156.699 
156.146 156.553 158.745 158.317 158.72 158.277 158.666 158.161 158.515 
157.926 158.232 157.62 157.936 157.422 157.807 160.092 159.624 160.07 
159.593 160.034 159.55 159.969 159.439 159.774 159.156 159.407 158.8 
159.09 158.611 158.968 161.406 160.996 161.48 161.022 161.516 161.005 
161.484 160.932 161.351 160.722 161.024 160.327 160.585 159.955 160.281 
159.773 160.127 162.558 162.235 162.741 162.397 162.933 162.51 163.012 
162.497 162.929 162.335 162.671 161.989 162.246 161.539 161.815 161.187 
161.519 160.967 161.283 162.103 162.41 162.678 163.546 162.753 163.016 
163.949 164.211 165.186 163.181 163.412 164.365 164.639 165.689 165.974 
167.086 163.598 163.852 164.794 165.077 166.181 166.52 167.752 168.034 
169.264 163.89 164.223 165.184 165.501 166.636 167.033 168.373 168.753 
170.109 170.339 171.637 164.002 164.449 165.47 165.873 167.036 167.482 
168.851 169.345 170.793 171.178 172.57 172.801 174.189 163.883 164.451 
165.512 166.085 167.287 167.835 169.161 169.731 171.173 171.742 173.233 
173.678 175.16 175.441 176.904 163.611 164.217 165.257 165.986 167.22 
167.948 169.248 169.913 171.294 171.984 173.545 174.226 175.852 176.341 
177.847 178.128 179.483 163.36 163.907 164.892 165.636 166.855 167.71 
169.012 169.822 171.173 171.981 173.568 174.443 176.209 176.937 178.52 
178.94 180.203 180.464 181.544 162.16 163.623 162.811 162.665 165.303 
164.405 164.316 163.388 163.24 167.237 166.241 166.231 165.203 165.118 
164.083 163.969 169.414 168.335 168.39 167.281 167.259 166.124 166.046 
164.927 164.823 171.819 170.67 170.818 169.617 169.666 168.417 168.363 
167.127 167.017 165.831 165.682 174.466 173.259 173.555 172.262 172.446 
171.051 171.062 169.623 169.512 168.142 167.973 166.699 166.494 177.265 
176.079 176.502 175.185 175.489 174.043 174.166 172.58 172.5 170.87 
170.67 169.143 168.904 167.529 167.286 179.898 178.904 179.413 178.196 
178.537 177.147 177.319 175.785 175.755 174.056 173.805 172.049 171.694 
170.077 169.748 168.333 168.06 182.024 181.36 181.949 180.995 181.36 
180.118 180.261 178.852 178.828 177.265 177.002 175.241 174.747 172.957 
172.436 170.845 170.435 169.067 168.753 183.195 184.968 183.892 183.31 
186.408 185.564 184.985 183.807 182.81 187.095 186.625 186.018 185.223 
184.244 183.011 181.703 187.109 186.917 186.337 185.907 185.071 184.203 
182.96 181.694 180.228 186.725 186.758 186.28 186.051 185.369 184.819 
183.728 182.737 181.229 179.987 178.325 185.798 186.181 185.778 185.844 
185.177 184.931 183.891 183.238 181.697 180.679 178.84 177.728 175.912 
184.337 184.961 184.536 184.969 184.241 184.382 183.303 183.056 181.521 
180.813 178.9 177.943 176.015 175.096 173.41 182.743 183.353 182.862 
183.421 182.679 183.065 182.024 182.121 180.717 180.363 178.567 177.811 
175.899 175.059 173.377 172.647 171.264 181.167 181.737 181.191 181.708 
180.986 181.399 180.461 180.701 179.495 179.415 177.857 177.363 175.581 
174.873 173.218 172.562 171.205 170.637 169.496 183.314 183.776 184.064 
185.022 183.968 184.436 185.512 185.81 186.601 183.804 184.518 185.747 
186.274 187.214 187.242 187.52 183.207 184.161 185.455 186.329 187.372 
187.728 188.043 187.805 187.572 182.215 183.347 184.523 185.679 186.664 
187.484 187.796 187.998 187.68 187.493 186.996 180.654 182.053 183.057 
184.395 185.233 186.346 186.663 187.294 186.995 187.18 186.573 186.577 
185.922 178.359 180.05 180.927 182.535 183.279 184.636 185.017 185.93 
185.804 186.239 185.721 185.869 185.189 185.237 184.489 175.709 177.433 
178.19 179.992 180.674 182.352 182.789 184.096 184.142 184.937 184.596 
184.945 184.355 184.45 183.75 183.741 182.979 173.268 174.761 175.376 
177.079 177.67 179.461 179.897 181.546 181.67 182.959 182.729 183.572 
183.066 183.501 182.821 182.976 182.211 182.223 181.418 163.531 164.384 
164.297 165.111 165.405 165.304 166.233 166.126 167.126 166.494 166.418 
167.439 167.354 168.433 168.311 169.343 167.686 167.605 168.744 168.654 
169.873 169.737 170.934 170.659 171.682 168.968 168.938 170.29 170.176 
171.668 171.456 172.986 172.598 173.97 173.325 174.406 170.113 170.277 
171.876 171.919 173.674 173.538 175.327 174.987 176.643 176.012 177.331 
176.368 177.296 171.016 171.377 173.141 173.477 175.357 175.513 177.273 
177.226 178.777 178.537 179.78 179.207 180.034 179.088 179.582 171.777 
172.234 174.049 174.595 176.51 176.936 178.601 178.782 180.081 180.124 
181.133 181.031 181.716 181.294 181.66 180.895 181.095 172.435 172.946 
174.725 175.371 177.279 177.872 179.555 179.857 181.119 181.16 182.117 
182.046 182.781 182.553 183.028 182.558 182.839 182.14 182.327 162.824 
161.982 162.775 163.568 161.032 161.886 162.661 163.552 164.467 160.017 
160.896 161.668 162.579 163.458 164.455 165.468 159.066 159.901 160.665 
161.552 162.393 163.388 164.394 165.477 166.582 158.207 158.98 159.699 
160.548 161.331 162.289 163.248 164.359 165.468 166.609 167.742 157.393 
158.111 158.747 159.562 160.282 161.202 162.084 163.172 164.236 165.42 
166.501 167.682 168.744 156.62 157.278 157.84 158.592 159.266 160.141 
160.978 162 162.995 164.141 165.173 166.348 167.326 168.541 169.55 
155.915 156.514 157.043 157.711 158.348 159.152 159.966 160.917 161.86 
162.916 163.888 164.998 165.94 167.092 168.037 169.279 170.289 155.316 
155.851 156.371 156.963 157.563 158.28 159.038 159.92 160.806 161.794 
162.703 163.74 164.636 165.725 166.635 167.795 168.744 169.995 170.974 
155.203 155.443 155.614 156.247 155.765 155.903 156.554 156.727 157.451 
156.136 156.267 156.963 157.112 157.901 158.066 158.937 156.602 156.712 
157.49 157.61 158.465 158.607 159.548 159.712 160.699 157.214 157.289 
158.148 158.24 159.162 159.268 160.255 160.393 161.429 161.57 162.585 
157.89 157.967 158.849 158.954 159.925 160.041 161.083 161.191 162.267 
162.366 163.429 163.506 164.519 158.567 158.655 159.553 159.67 160.677 
160.827 161.929 162.068 163.187 163.277 164.372 164.424 165.493 165.511 
166.537 159.291 159.368 160.326 160.424 161.483 161.62 162.766 162.925 
164.078 164.201 165.312 165.392 166.491 166.54 167.632 167.612 168.658 
160.078 160.152 161.162 161.26 162.351 162.477 163.63 163.783 164.949 
165.086 166.223 166.325 167.457 167.543 168.695 168.737 169.865 169.806 
170.87 160.852 162.484 161.776 162.012 164.213 163.5 163.803 163.024 
163.265 166.097 165.332 165.724 164.908 165.222 164.358 164.597 168.298 
167.427 167.949 167.01 167.434 166.462 166.774 165.773 165.973 170.793 
169.869 170.553 169.503 170.063 168.934 169.356 168.169 168.405 167.211 
167.323 173.503 172.57 173.428 172.335 173.032 171.811 172.345 171.02 
171.331 169.904 169.999 168.613 168.644 176.284 175.43 176.466 175.396 
176.236 174.964 175.596 174.198 174.605 173.063 173.19 171.553 171.514 
169.991 169.956 178.699 178.124 179.225 178.419 179.352 178.237 178.938 
177.568 178.041 176.477 176.671 174.926 174.855 173.08 172.92 171.319 
171.185 180.41 180.17 181.165 180.794 181.686 181.047 181.749 180.754 
181.228 179.886 180.098 178.448 178.369 176.521 176.256 174.43 174.138 
172.495 172.238 160.454 160.321 160.929 162.035 160.111 160.772 161.897 
162.552 163.715 159.79 160.514 161.647 162.369 163.57 164.26 165.524 
159.36 160.146 161.306 162.083 163.316 164.08 165.416 166.169 167.612 
158.867 159.688 160.897 161.729 163.012 163.823 165.217 166.046 167.578 
168.391 170 158.414 159.205 160.439 161.311 162.657 163.527 164.984 
165.864 167.469 168.354 170.047 170.88 172.606 158.078 158.799 160.018 
160.867 162.243 163.162 164.672 165.624 167.28 168.245 169.995 170.913 
172.683 173.543 175.293 157.834 158.504 159.688 160.48 161.836 162.749 
164.266 165.269 166.932 167.99 169.752 170.792 172.563 173.536 175.25 
176.147 177.713 157.641 158.276 159.426 160.168 161.468 162.344 163.811 
164.819 166.438 167.547 169.271 170.418 172.159 173.265 174.926 175.938 
177.425 178.304 179.53 159.451 157.97 158.893 159.288 156.578 157.417 
157.753 158.701 159.074 155.309 156.04 156.285 157.159 157.46 158.427 
158.741 154.13 154.769 154.874 155.659 155.846 156.774 157.012 158.012 
158.275 152.916 153.541 153.517 154.21 154.261 155.114 155.272 156.243 
156.458 157.489 157.754 151.609 152.256 152.219 152.854 152.835 153.548 
153.625 154.497 154.677 155.666 155.92 156.976 157.299 150.375 150.966 
151.013 151.62 151.661 152.24 152.264 152.935 153.038 153.908 154.142 
155.165 155.503 156.581 156.975 149.385 149.861 149.975 150.536 150.685 
151.203 151.246 151.727 151.734 152.374 152.533 153.431 153.771 154.819 
155.238 156.316 156.749 148.634 149.009 149.149 149.639 149.857 150.342 
150.444 150.829 150.798 151.222 151.301 151.972 152.293 153.193 153.643 
154.64 155.1 156.132 156.582 148.3 148.092 148.377 148.852 148.128 
148.309 148.806 149.064 149.579 148.334 148.457 148.901 149.069 149.476 
149.728 150.107 148.471 148.634 148.96 149.105 149.32 149.523 149.745 
150.078 150.384 148.525 148.666 148.872 149.002 149.067 149.24 149.395 
149.698 150.059 150.413 150.906 148.847 148.784 148.956 148.903 148.96 
148.992 149.249 149.478 150.056 150.334 151.025 151.243 151.959 149.546 
149.308 149.535 149.246 149.403 149.169 149.56 149.606 150.384 150.604 
151.476 151.617 152.387 152.511 153.294 150.368 150.11 150.402 150.064 
150.326 149.953 150.378 150.218 150.982 151.102 151.995 152.149 152.911 
153.008 153.726 153.889 154.698 151.174 150.933 151.259 150.986 151.312 
150.99 151.399 151.16 151.779 151.762 152.536 152.65 153.393 153.5 
154.207 154.337 155.121 155.32 156.172 151.759 152.759 152.107 151.848 
153.925 153.177 152.895 152.219 151.956 155.362 154.474 154.225 153.394 
153.147 152.386 152.151 157.136 156.111 155.925 154.927 154.718 153.769 
153.564 152.707 152.574 159.062 158.011 157.859 156.799 156.638 155.555 
155.358 154.316 154.162 153.277 153.257 161.017 159.969 159.845 158.786 
158.668 157.579 157.43 156.292 156.128 155.041 154.949 154.051 154.073 
163.139 162.036 162.01 160.866 160.808 159.668 159.593 158.443 158.354 
157.177 157.09 155.95 155.907 154.928 154.955 165.407 164.316 164.406 
163.203 163.211 161.959 161.921 160.693 160.66 159.469 159.441 158.24 
158.192 157 156.967 155.901 155.938 167.555 166.598 166.74 165.64 
165.669 164.444 164.389 163.118 163.049 161.818 161.776 160.59 160.54 
159.343 159.263 158.078 158.028 156.953 156.989 157.909 159.017 158.863 
159.745 160.294 160.099 161.046 160.846 161.828 161.615 161.45 162.481 
162.272 163.363 163.118 164.225 162.924 162.813 163.968 163.8 165.033 
164.804 166.07 165.736 166.94 164.268 164.185 165.466 165.36 166.756 
166.598 168.052 167.753 169.126 168.647 169.868 165.641 165.588 166.94 
166.901 168.423 168.385 170.021 169.846 171.394 170.972 172.312 171.687 
172.832 166.924 166.95 168.32 168.362 169.94 170.04 171.794 171.814 
173.49 173.245 174.659 174.148 175.319 174.628 175.616 167.973 168.128 
169.482 169.648 171.217 171.466 173.252 173.481 175.208 175.199 176.622 
176.327 177.462 176.965 177.909 177.251 178.048 168.745 169.022 170.34 
170.646 172.166 172.572 174.33 174.762 176.506 176.724 178.155 178.063 
179.163 178.857 179.743 179.291 180.019 179.433 180.037 150.789 150.488 
150.433 149.994 150.123 150.101 149.638 149.585 149.067 149.755 149.681 
149.179 149.157 148.616 148.58 148.114 149.608 149.354 148.809 148.707 
148.26 148.191 147.844 147.804 147.662 149.699 149.313 148.727 148.477 
148.142 148.027 147.902 147.787 147.781 147.696 147.781 149.837 149.449 
148.834 148.498 148.124 148.019 147.964 147.961 147.997 147.931 147.925 
147.86 147.849 150.031 149.635 149.073 148.66 148.199 147.999 147.835 
147.905 147.886 147.981 147.869 147.879 147.717 147.753 147.693 150.413 
149.965 149.527 149.03 148.612 148.193 147.974 147.816 147.807 147.807 
147.773 147.74 147.617 147.584 147.526 147.6 147.701 150.956 150.483 
150.137 149.628 149.295 148.775 148.565 148.182 148.206 147.988 148.113 
147.897 147.954 147.708 147.759 147.611 147.763 147.78 148.031 150.839 
150.014 150.503 150.714 149.107 149.644 149.86 150.44 150.828 148.215 
148.72 148.995 149.597 150.051 150.702 151.267 147.763 148.006 148.328 
148.813 149.34 149.977 150.625 151.266 151.854 147.816 147.833 148.109 
148.362 148.898 149.392 150.101 150.697 151.347 151.864 152.319 147.904 
147.951 148.171 148.312 148.789 149.122 149.824 150.308 151.019 151.462 
151.955 152.296 152.645 147.863 147.977 148.251 148.398 148.86 149.109 
149.758 150.14 150.839 151.234 151.765 152.043 152.392 152.652 153.029 
147.937 148.005 148.383 148.514 149.024 149.223 149.834 150.12 150.753 
151.091 151.619 151.898 152.269 152.485 152.84 153.123 153.596 148.238 
148.222 148.634 148.727 149.255 149.421 150.005 150.219 150.798 151.046 
151.571 151.805 152.237 152.421 152.809 153.012 153.464 153.764 154.287 
151.384 151.309 151.642 152.33 151.446 151.653 152.334 152.677 153.439 
151.873 151.925 152.551 152.753 153.491 153.833 154.638 152.419 152.436 
153.035 153.097 153.782 153.973 154.763 155.084 155.91 152.81 152.919 
153.543 153.641 154.328 154.407 155.138 155.302 156.083 156.368 157.154 
153.073 153.215 153.85 154.069 154.79 154.952 155.634 155.741 156.414 
156.591 157.328 157.605 158.387 153.471 153.523 154.16 154.346 155.077 
155.303 155.974 156.144 156.749 156.912 157.589 157.827 158.621 158.904 
159.73 154.073 154.043 154.692 154.757 155.477 155.611 156.301 156.438 
157.076 157.218 157.908 158.116 158.922 159.188 160.029 160.286 161.059 
154.751 154.704 155.334 155.351 156.038 156.099 156.796 156.864 157.558 
157.633 158.368 158.501 159.315 159.529 160.366 160.6 161.363 161.565 
162.234 159.23 158.464 158.476 157.774 157.765 157.738 157.021 157.044 
156.401 157.084 157.048 156.302 156.302 155.645 155.72 155.166 156.417 
156.366 155.622 155.595 154.935 154.984 154.454 154.561 154.064 155.891 
155.781 155.128 155.021 154.418 154.359 153.833 153.878 153.39 153.47 
152.91 155.521 155.385 154.84 154.693 154.172 154.004 153.459 153.346 
152.792 152.79 152.199 152.239 151.599 155.174 155.061 154.527 154.442 
153.93 153.807 153.23 153.049 152.413 152.268 151.634 151.566 150.936 
150.929 150.348 154.833 154.702 154.122 154.06 153.517 153.472 152.895 
152.775 152.139 151.956 151.323 151.144 150.546 150.406 149.854 149.804 
149.354 154.583 154.385 153.789 153.657 153.129 153.049 152.545 152.435 
151.892 151.715 151.146 150.936 150.374 150.163 149.627 149.459 148.994 
148.939 148.596 
POINT_DATA 1002
SCALARS Distance double
LOOKUP_TABLE default
152.365 151.413 151.982 153.106 152.762 153.456 153.997 153.716 154.296 
154.703 155.003 154.788 155.238 155.645 156.282 156.153 155.906 156.368 
156.764 157.442 158.18 157.361 157.016 157.706 158.108 158.778 159.508 
160.103 158.51 158.16 159.002 159.493 160.125 160.86 161.472 162.049 
159.66 159.357 160.147 160.728 161.381 162.124 162.821 163.475 164.209 
160.858 160.519 161.294 161.889 162.615 163.403 164.159 164.881 165.651 
166.436 162.009 161.561 162.474 163.069 163.839 164.689 165.494 166.248 
167.015 167.781 168.448 150.845 151.439 150.401 151.097 150.195 152.272 
151.043 150.108 152.004 153.325 151.026 149.963 151.979 153.105 154.505 
150.872 149.913 151.91 153.027 154.357 155.718 150.841 150.154 151.773 
152.91 154.3 155.726 156.965 151.096 150.53 151.879 152.893 154.224 
155.763 157.11 158.234 151.471 150.851 152.239 153.14 154.255 155.681 
157.121 158.319 159.413 151.841 151.156 152.644 153.499 154.448 155.642 
156.978 158.198 159.318 160.452 152.002 152.845 153.062 153.984 154.217 
153.728 155.235 155.457 154.918 154.643 156.609 156.721 156.34 156.01 
155.758 157.899 157.91 157.817 157.603 157.301 157.043 159.147 159.182 
159.12 159.066 158.88 158.521 158.248 160.55 160.551 160.518 160.469 
160.375 160.07 159.634 159.39 161.892 161.779 162.004 162.031 161.957 
161.726 161.28 160.844 160.613 163.037 162.861 163.299 163.5 163.509 
163.325 162.965 162.497 162.108 161.839 162.912 163.285 164.445 163.657 
164.907 166.209 164.087 165.355 166.809 168.244 164.507 165.792 167.399 
169.053 170.5 164.842 166.208 167.913 169.812 171.468 172.949 165.001 
166.575 168.33 170.316 172.26 173.991 175.636 164.855 166.686 168.607 
170.553 172.657 174.792 176.706 178.38 164.502 166.422 168.557 170.586 
172.751 175.239 177.537 179.309 180.768 164.188 165.993 168.158 170.328 
172.614 175.353 178.049 179.984 181.321 182.546 163.513 165.258 164.179 
167.261 166.176 165.003 169.504 168.409 167.195 165.943 172.014 170.943 
169.651 168.247 166.865 174.823 173.837 172.565 170.976 169.316 167.742 
177.788 176.905 175.736 174.207 172.325 170.375 168.599 180.555 179.905 
178.809 177.422 175.644 173.453 171.261 169.388 182.765 182.535 181.648 
180.334 178.738 176.632 174.164 171.889 170.033 184.281 184.637 185.993 
186.069 187.17 184.257 186.643 187.478 185.349 183.135 186.637 187.218 
185.738 184.135 181.62 186.423 186.536 185.785 184.593 182.467 179.611 
185.588 185.273 185.329 184.424 182.664 179.969 176.947 184.028 183.717 
184 183.403 182.09 179.816 176.923 174.183 182.324 182.199 182.245 
181.8 180.877 179.191 176.703 174.079 171.874 180.695 180.614 180.563 
180.157 179.431 178.183 176.202 173.844 171.735 170.008 183.12 184.797 
183.417 185.1 183.395 186.647 185.066 182.962 187.086 187.918 184.468 
182.203 186.849 188.191 188.025 183.382 181.068 185.735 187.42 187.781 
187.238 181.717 179.185 184.082 185.892 186.683 186.524 185.958 179.256 
176.642 181.818 183.947 185.221 185.513 185.129 184.483 176.41 174.082 
178.913 181.301 183.13 184.085 184.199 183.745 183.03 173.799 171.928 
175.925 178.181 180.218 181.672 182.441 182.566 182.161 181.448 163.549 
165.158 164.448 166.312 165.458 167.233 167.489 166.538 168.523 169.549 
168.795 167.729 169.957 171.152 172.112 170.297 168.883 171.789 173.276 
174.549 175.266 171.66 169.805 173.685 175.567 177.156 178.242 178.503 
172.676 170.576 175.099 177.299 178.964 180.22 180.885 180.723 173.46 
171.303 176.02 178.419 180.09 181.193 181.991 182.276 181.986 162.066 
162.712 161.173 161.776 160.15 163.5 160.767 159.139 162.466 164.413 
159.803 158.262 161.429 163.291 165.484 158.881 157.483 160.418 162.153 
164.307 166.618 157.973 156.728 159.391 161.041 163.064 165.342 167.549 
157.137 155.998 158.416 159.995 161.902 164.025 166.157 168.275 156.412 
155.338 157.583 159.048 160.858 162.825 164.819 166.849 168.992 155.807 