# vtk DataFile Version 4.0
vtk output
ASCII
DATASET POLYDATA
POINTS 1002 float
-102.868 -85.1587 77.5306 -102.855 -84.6363 76.4016 -103.345 -84.3686 77.1283 
-103.33 -84.9548 78.4363 -103.904 -84.2719 77.9374 -102.869 -85.7821 78.9272 
-103.883 -84.9099 79.3625 -104.57 -84.2832 78.833 -103.36 -85.723 79.9032 
-103.104 -86.736 80.2547 -104.677 -84.9788 80.2486 -105.338 -84.2698 79.8615 
-104.099 -85.7745 80.7392 -103.864 -86.8549 81.0163 -103.787 -87.9936 81.2053 
-105.6 -85.0981 81.1992 -106.06 -84.2678 80.9608 -105.118 -85.938 81.5196 
-104.861 -87.0335 81.7144 -104.804 -88.2764 81.8359 -104.71 -89.3466 82.1529 
-106.395 -85.3521 82.2213 -106.788 -84.4874 81.8866 -106.06 -86.2727 82.5007 
-105.827 -87.3505 82.6671 -105.687 -88.5993 82.8274 -105.566 -89.7496 83.142 
-105.47 -90.7423 83.5929 -107.175 -85.8121 83.172 -107.652 -84.9545 82.6644 
-106.782 -86.7646 83.6297 -106.55 -87.844 83.8971 -106.359 -89.0154 84.1646 
-106.148 -90.1364 84.5384 -106.048 -91.182 84.9031 -106.091 -92.2778 85.2239 
-107.944 -86.3253 84.1436 -108.366 -85.4728 83.6026 -107.505 -87.2561 84.7131 
-107.223 -88.3257 85.0798 -107.063 -89.4782 85.3765 -106.861 -90.581 85.7806 
-106.701 -91.6375 86.1158 -106.733 -92.8083 86.3196 -106.869 -94.0796 86.5252 
-108.446 -86.7496 85.215 -108.732 -85.9234 84.6856 -108.156 -87.6827 85.7432 
-107.957 -88.7542 86.0947 -107.858 -89.9166 86.3196 -107.768 -91.1021 86.6239 
-107.647 -92.2745 86.9333 -107.606 -93.507 87.124 -107.702 -94.8481 87.2934 
-107.837 -96.1318 87.4856 -108.793 -87.1245 86.1711 -109.026 -86.3331 85.615 
-108.659 -88.1146 86.6489 -108.628 -89.2849 86.9679 -108.596 -90.4883 87.17 
-108.534 -91.6988 87.3957 -108.496 -93.0026 87.6463 -108.488 -94.3831 87.8402 
-108.536 -95.7775 88.0176 -108.661 -97.1004 88.1959 -108.797 -98.2079 88.2956 
-103.054 -83.8087 75.8617 -103.653 -83.6562 76.5736 -103.32 -82.9869 75.318 
-104.09 -82.9912 76.0799 -103.974 -82.4067 74.7072 -104.362 -83.6446 77.3801 
-104.835 -82.3756 75.5701 -104.918 -81.9042 74.0898 -104.889 -82.9266 76.9613 
-105.112 -83.5662 78.3939 -105.529 -81.5551 75.1208 -105.486 -81.0777 73.5863 
-105.489 -82.053 76.5905 -105.601 -82.6465 78.1179 -105.816 -83.3968 79.6345 
-105.817 -80.481 74.8777 -105.726 -80.1184 73.165 -105.93 -81.0066 76.3699 
-106.096 -81.6916 77.8422 -106.285 -82.4855 79.425 -106.489 -83.3996 80.7878 
-106.266 -79.6352 74.6828 -106.385 -79.5397 72.753 -106.333 -80.0054 76.3401 
-106.634 -80.8102 77.6442 -106.935 -81.7671 79.0494 -107.098 -82.6537 80.4906 
-107.342 -83.7003 81.6139 -107.188 -79.2842 74.3517 -107.371 -79.2875 72.419 
-107.077 -79.3975 76.1773 -107.29 -80.0424 77.5294 -107.699 -81.0993 78.6929 
-107.899 -82.015 80.0722 -108.005 -82.925 81.3637 -108.225 -84.1641 82.4328 
-108.059 -79.1369 74.0152 -108.134 -79.0505 72.2383 -107.951 -79.1547 75.8069 
-108.023 -79.4869 77.3332 -108.365 -80.3646 78.5392 -108.616 -81.3058 79.8066 
-108.624 -82.1259 81.1916 -108.671 -83.275 82.3837 -108.761 -84.689 83.4855 
-108.703 -78.9485 73.804 -108.702 -78.8081 72.1694 -108.698 -78.9816 75.4824 
-108.744 -79.1052 77.1094 -108.941 -79.6819 78.5317 -109.142 -80.5558 79.8282 
-109.133 -81.373 81.1709 -109.052 -82.406 82.4043 -109.065 -83.8372 83.454 
-109.07 -85.238 84.5194 -109.435 -78.7213 73.1396 -109.503 -78.7657 74.8572 
-110.511 -78.6291 74.1747 -110.634 -78.6308 76.1103 -111.55 -78.7572 75.4287 
-109.584 -78.7834 76.6579 -111.603 -79.0141 77.4873 -112.123 -79.4869 76.8591 
-110.67 -78.8349 78.0457 -109.661 -79.0982 78.3912 -112.089 -80.0791 78.5612 
-112.586 -80.508 78.0215 -111.467 -79.6009 79.1534 -110.575 -79.4708 79.7152 
-109.724 -79.8726 79.9181 -112.518 -81.2138 79.2965 -113.259 -81.307 78.8255 
-111.9 -80.8929 79.7836 -111.274 -80.45 80.5594 -110.465 -80.3852 81.2136 
-109.691 -80.778 81.3307 -113.068 -82.2382 80.1966 -113.735 -82.2906 79.73 
-112.344 -82.1875 80.582 -111.833 -81.8078 81.2477 -111.261 -81.4063 82.1023 
-110.404 -81.4404 82.5846 -109.582 -81.8414 82.5865 -113.601 -83.4916 81.3126 
-113.958 -83.7644 80.8488 -112.951 -83.4273 81.721 -112.374 -83.2673 82.2448 
-111.964 -82.8803 82.9153 -111.311 -82.6832 83.4276 -110.357 -82.9068 83.6135 
-109.537 -83.3432 83.597 -114.141 -84.8478 82.3098 -114.223 -85.2797 81.8855 
-113.693 -84.592 82.7361 -113.044 -84.5513 83.2278 -112.508 -84.4628 83.7587 
-112.006 -84.2885 84.1674 -111.256 -84.3309 84.3735 -110.323 -84.605 84.5067 
-109.543 -84.9227 84.5891 -114.533 -86.1423 83.1178 -114.461 -86.5632 82.7038 
-114.296 -85.7461 83.5539 -113.748 -85.6315 84.0388 -113.104 -85.7679 84.5301 
-112.508 -85.8437 84.9418 -111.908 -85.832 85.1972 -111.175 -85.9018 85.366 
-110.311 -86.0278 85.5503 -109.539 -86.1612 85.6688 -109.398 -87.2941 86.6981 
-110.15 -87.2466 86.6921 -110.141 -88.6565 87.6274 -111.02 -87.2901 86.5583 
-110.942 -88.7618 87.649 -110.969 -90.4849 88.4964 -111.753 -87.356 86.3852 
-111.634 -88.9806 87.5646 -111.545 -90.7411 88.5388 -111.475 -92.4526 89.4233 
-112.39 -87.396 86.1508 -112.223 -89.1575 87.3756 -112.052 -91.062 88.3968 
-111.939 -92.8639 89.3802 -111.888 -94.5909 90.2336 -113.066 -87.3136 85.7988 
-112.914 -89.2085 87.0925 -112.714 -91.2448 88.1686 -112.593 -93.2409 89.1757 
-112.604 -95.1993 90.1379 -112.672 -97.4014 90.7396 -113.691 -87.1018 85.3565 
-113.522 -89.1648 86.7545 -113.398 -91.3632 87.9432 -113.355 -93.4376 89.0228 
-113.416 -95.6226 90.0559 -113.527 -98.0884 90.7049 -113.643 -100.701 91.0765 
-114.202 -87.0639 84.8321 -113.887 -89.141 86.3019 -113.766 -91.524 87.6111 
-113.88 -93.6447 88.7735 -113.999 -95.8474 89.9525 -114.121 -98.5042 90.7249 
-114.283 -101.29 91.0252 -114.47 -103.748 91.3766 -114.534 -87.3394 84.2657 
-114.187 -89.2212 85.674 -113.98 -91.5877 87.0673 -114.164 -93.8217 88.2728 
-114.354 -96.0469 89.5088 -114.436 -98.7391 90.519 -114.629 -101.65 90.9493 
-114.935 -104.226 91.1775 -115.215 -106.243 91.5557 -114.588 -87.6852 83.7372 
-114.406 -89.3162 84.9804 -114.231 -91.4469 86.3729 -114.399 -93.7177 87.6731 
-114.631 -96.1198 88.9021 -114.704 -98.8885 90.0004 -114.893 -101.793 90.6479 
-115.288 -104.413 90.9435 -115.69 -106.577 91.2334 -115.945 -108.273 91.5274 
-109.259 -88.3372 87.2517 -110.123 -90.0889 88.1517 -109.297 -89.712 87.6489 
-110.921 -92.0795 89.1065 -110.143 -91.7454 88.5945 -109.323 -91.1579 87.9487 
-111.36 -94.0825 90.0602 -110.765 -93.7536 89.5931 -109.962 -93.2597 89.0073 
-109.187 -92.4616 88.2502 -111.932 -96.7899 90.6853 -111.311 -96.1601 90.3293 
-110.575 -95.5037 89.8876 -109.735 -94.7091 89.3694 -109.09 -93.8439 88.5377 
-112.927 -100.383 91.1394 -112.236 -99.7558 90.8931 -111.559 -98.7444 90.4358 
-110.67 -97.5519 90.1162 -109.791 -96.4796 89.6377 -109.153 -95.4676 88.7481 
-113.965 -103.767 91.6616 -113.346 -103.578 91.697 -112.755 -102.831 91.2207 
-112.005 -101.406 90.6648 -110.959 -99.8078 90.36 -109.982 -98.4302 89.8483 
-109.257 -97.1127 88.9362 -114.826 -106.359 91.9783 -114.271 -106.379 92.3198 
-113.692 -106.138 92.1362 -113.112 -105.22 91.4223 -112.248 -103.589 90.8302 
-111.106 -101.767 90.5381 -110.123 -100.106 90.0071 -109.393 -98.5559 89.1008 
-115.576 -108.474 91.8704 -115.008 -108.457 92.2203 -114.363 -108.298 92.3134 
-113.803 -107.844 91.8769 -113.189 -106.781 91.1826 -112.243 -105.083 90.7795 
-111.155 -103.154 90.5513 -110.29 -101.347 89.9933 -109.58 -99.7055 89.1228 
-116.385 -110.369 91.4065 -115.837 -110.55 91.5563 -116.567 -112.536 90.8788 
-115.823 -112.686 90.7961 -116.475 -114.58 90.1275 -115.093 -110.366 91.6478 
-115.629 -114.592 89.9811 -116.245 -116.253 89.1983 -115.067 -112.268 90.658 
-114.427 -109.903 91.5301 -115.457 -115.809 89.0805 -116.05 -117.343 87.9692 
-115.075 -113.777 89.7493 -114.561 -111.378 90.4705 -113.894 -109.145 91.1141 
-115.325 -116.134 88.0166 -115.839 -117.587 86.9232 -115.011 -114.437 88.8611 
-114.615 -112.472 89.5936 -113.951 -110.268 90.3089 -113.142 -107.863 90.7217 
-114.932 -115.818 87.252 -115.232 -116.909 86.4452 -114.661 -114.383 88.0047 
-114.279 -112.943 88.8147 -113.693 -111.119 89.6965 -112.954 -108.714 90.309 
-112.086 -105.955 90.5747 -114.08 -115.124 86.7793 -114.165 -115.524 86.0938 
-113.998 -114.069 87.3984 -113.718 -112.879 88.1112 -113.204 -111.414 89.0954 
-112.606 -109.219 89.9071 -111.925 -106.507 90.2406 -111.11 -103.815 90.271 
-113.122 -113.969 86.3245 -113.17 -113.722 85.7076 -113.2 -113.469 86.9588 
-113.178 -112.427 87.596 -112.86 -111.032 88.484 -112.335 -109.093 89.3798 
-111.753 -106.632 89.7613 -111.08 -104.12 89.7407 -110.316 -101.834 89.5506 
-112.477 -112.34 86.0964 -112.616 -111.813 85.6263 -112.51 -112.298 86.7278 
-112.608 -111.52 87.3502 -112.532 -110.154 88.0449 -112.144 -108.373 88.802 
-111.552 -106.255 89.208 -110.894 -104.038 89.1568 -110.186 -101.978 88.9706 
-109.465 -100.067 88.717 -116.514 -109.042 91.2247 -116.912 -111.299 90.9715 
-116.895 -109.339 90.8034 -117.066 -111.805 90.3535 -116.96 -109.131 90.2017 
-117.077 -113.62 90.3037 -116.883 -111.895 89.5269 -116.944 -108.584 89.4703 
-117.279 -114.42 89.4079 -117.145 -115.71 89.2858 -116.813 -111.391 88.7138 
-117.018 -107.879 88.7731 -117.244 -114.705 88.3875 -117.714 -116.584 88.0009 
-117.108 -117.418 87.8928 -116.903 -110.279 88.1658 -116.731 -107.124 88.3726 
-117.175 -113.8 87.7057 -117.848 -116.483 86.9645 -117.86 -118.011 86.4484 
-116.9 -118.454 86.5158 -116.574 -108.876 88.0083 -115.878 -106.018 88.2192 
-116.927 -111.976 87.5259 -117.356 -114.857 86.7036 -117.754 -117.074 85.8398 
-117.421 -118.35 85.5287 -116.385 -118.216 85.8792 -115.789 -106.984 87.9205 
-115.05 -104.174 87.7457 -116.298 -109.896 87.69 -116.52 -112.638 87.0228 
-116.806 -114.917 86.1134 -117.007 -116.554 85.4665 -116.5 -117.181 85.3882 
-115.336 -116.653 85.7093 -115.04 -104.478 87.3523 -114.6 -101.936 86.7014 
-115.487 -107.339 87.6785 -115.723 -110.223 87.4664 -115.845 -112.604 86.7458 
-116.086 -114.165 85.9396 -116.039 -114.923 85.4513 -115.236 -114.942 85.328 
-114.073 -114.434 85.4427 -114.46 -102 86.3267 -114.253 -99.9747 85.5108 
-114.725 -104.439 87.0812 -115.004 -107.237 87.4743 -115.188 -109.898 87.267 
[...]
CELL_DATA 2000
SCALARS Distance double
LOOKUP_TABLE default
153.025 153.666 153.529 153.984 154.482 154.26 154.736 154.597 155.183 
155.467 155.173 155.662 155.447 156.08 155.955 156.688 156.549 156.246 
156.78 156.491 157.155 156.96 157.76 157.615 158.454 157.656 157.382 
158.005 157.706 158.415 158.154 158.988 158.791 159.689 159.498 160.401 
158.847 158.56 159.266 158.985 159.757 159.486 160.336 160.1 161.003 
160.789 161.703 161.505 162.448 160.1 159.82 160.552 160.283 161.076 
160.83 161.686 161.463 162.358 162.134 163.029 162.812 163.743 163.576 
164.576 161.235 161.037 161.755 161.549 162.327 162.122 162.959 162.77 
163.663 163.474 164.385 164.165 165.101 164.897 165.916 165.761 166.825 
162.195 162.07 162.785 162.669 163.469 163.332 164.184 164.016 164.905 
164.741 165.677 165.51 166.485 166.296 167.329 167.153 168.241 168.067 
169.111 152.541 152.013 152.57 153.19 151.672 152.134 152.83 153.329 
154.026 151.614 151.947 152.62 153.042 153.761 154.247 154.996 151.48 
151.885 152.452 152.855 153.5 153.986 154.728 155.253 156.027 151.036 
151.562 152.107 152.592 153.197 153.703 154.436 154.976 155.762 156.288 
157.085 150.764 151.141 151.781 152.221 152.925 153.416 154.228 154.741 
155.586 156.067 156.893 157.384 158.242 150.984 151.151 151.846 152.099 
152.878 153.264 154.162 154.635 155.543 155.981 156.82 157.251 158.102 
158.602 159.486 151.354 151.51 152.172 152.34 153.061 153.345 154.204 
154.634 155.54 155.976 156.789 157.195 157.984 158.461 159.304 159.83 
160.642 151.633 151.831 152.474 152.658 153.32 153.554 154.327 154.693 
155.553 155.971 156.766 157.148 157.88 158.311 159.096 159.613 160.414 
160.918 161.636 152.028 153.074 152.64 152.888 154.398 153.821 154.031 
153.531 153.779 155.879 155.26 155.493 154.841 155.067 154.506 154.819 
157.312 156.741 156.983 156.354 156.56 155.925 156.192 155.648 156.017 
158.624 158.097 158.292 157.749 157.954 157.394 157.639 157.073 157.363 
156.85 157.182 159.928 159.388 159.614 159.044 159.311 158.763 159.093 
158.529 158.84 158.24 158.519 157.973 158.289 161.367 160.791 161.133 
160.496 160.853 160.238 160.662 160.064 160.464 159.804 160.111 159.427 
159.729 159.137 159.513 162.874 162.327 162.723 162.105 162.479 161.865 
162.285 161.697 162.115 161.48 161.816 161.108 161.399 160.705 161.038 
160.438 160.822 164.232 163.795 164.172 163.646 163.982 163.433 163.804 
163.271 163.664 163.096 163.442 162.799 163.096 162.405 162.69 162.017 
162.315 161.719 162.029 162.844 163.224 163.444 164.361 163.671 163.908 
164.896 165.129 166.201 164.081 164.372 165.397 165.685 166.758 167.042 
168.131 164.409 164.752 165.782 166.137 167.21 167.544 168.624 168.927 
169.996 164.634 165.033 166.083 166.49 167.593 167.957 169.084 169.416 
170.59 170.867 172.096 164.755 165.192 166.26 166.753 167.911 168.345 
169.534 169.908 171.183 171.534 172.893 173.179 174.591 164.88 165.282 
166.31 166.852 168.036 168.603 169.831 170.328 171.62 172.101 173.492 
173.935 175.347 175.718 177.108 165.021 165.394 166.334 166.848 167.977 
168.623 169.86 170.501 171.777 172.399 173.758 174.371 175.762 176.296 
177.635 178.076 179.318 165.043 165.456 166.295 166.8 167.814 168.477 
169.67 170.407 171.688 172.417 173.763 174.483 175.869 176.535 177.87 
178.435 179.66 180.102 181.165 162.937 164.455 163.63 163.604 166.346 
165.368 165.375 164.436 164.417 168.335 167.39 167.454 166.416 166.399 
165.338 165.241 170.211 169.346 169.458 168.511 168.501 167.426 167.289 
166.165 165.995 172.34 171.326 171.507 170.505 170.567 169.51 169.425 
168.278 168.116 166.957 166.802 174.969 173.799 174.175 172.896 173.139 
171.812 171.898 170.568 170.538 169.233 169.141 167.868 167.718 177.623 
176.61 177.204 175.937 176.383 174.863 175.09 173.451 173.512 171.93 
171.903 170.42 170.303 168.874 168.674 179.844 179.117 179.746 178.846 
179.33 178.134 178.357 176.832 176.805 175.124 174.982 173.344 173.163 
171.607 171.376 169.873 169.616 181.62 181.084 181.586 180.976 181.317 
180.571 180.686 179.668 179.528 178.19 177.871 176.345 175.984 174.441 
174.094 172.587 172.244 170.776 170.444 182.655 183.943 183.089 182.556 
184.906 184.191 183.573 182.793 182.164 185.545 184.984 184.306 183.611 
182.881 182.215 181.482 185.757 185.42 184.755 184.203 183.406 182.779 
181.982 181.352 180.415 185.466 185.355 184.678 184.416 183.638 183.18 
182.325 181.754 180.795 180.087 178.881 184.7 184.803 184.061 184.046 
183.298 183.151 182.334 181.966 180.978 180.379 179.174 178.385 177.014 
183.396 183.798 183.1 183.26 182.536 182.588 181.852 181.744 180.819 
180.421 179.218 178.57 177.209 176.441 175.066 181.677 182.326 181.834 
182.206 181.59 181.759 181.073 181.113 180.261 180.074 178.92 178.46 
177.101 176.496 175.125 174.462 173.147 180.001 180.664 180.393 180.914 
180.464 180.768 180.122 180.258 179.413 179.376 178.261 177.991 176.646 
176.215 174.837 174.352 173.049 172.507 171.273 182.858 183.374 183.571 
184.223 183.35 183.898 184.714 184.842 185.278 182.837 183.65 184.653 
185.168 185.809 185.789 185.979 182.121 183.016 184.139 184.964 185.855 
186.183 186.528 186.342 186.246 181.317 182.239 183.292 184.297 185.282 
186.015 186.528 186.712 186.703 186.422 186.044 180.242 181.297 182.172 
183.245 184.042 185.073 185.582 186.305 186.386 186.6 186.249 185.974 
185.292 178.645 179.94 180.713 181.891 182.481 183.558 183.915 184.907 
184.995 185.752 185.443 185.725 184.961 184.803 183.81 176.581 178.021 
178.726 180.123 180.682 181.862 182.165 183.14 183.193 184.056 183.793 
184.424 183.695 183.95 182.877 182.895 181.833 174.458 175.8 176.375 
177.861 178.417 179.84 180.222 181.366 181.457 182.309 182.08 182.702 
182.1 182.463 181.533 181.692 180.701 180.823 180.005 165.213 165.801 
165.842 166.512 166.507 166.521 167.351 167.301 168.099 167.581 167.462 
168.448 168.323 169.309 169.135 170.044 168.975 168.805 169.937 169.699 
170.852 170.587 171.679 171.309 172.217 170.298 170.273 171.544 171.378 
172.701 172.412 173.702 173.232 174.296 173.649 174.468 171.348 171.502 
172.885 172.952 174.429 174.345 175.787 175.433 176.608 175.941 176.8 
175.974 176.657 172.245 172.493 173.954 174.19 175.726 175.898 177.344 
177.317 178.464 178.111 178.93 178.289 178.925 178.12 178.666 173.052 
173.379 174.896 175.222 176.756 177.023 178.374 178.523 179.561 179.529 
180.302 180.057 180.703 180.213 180.766 180.025 180.453 173.701 174.13 
175.668 176.106 177.643 177.966 179.271 179.411 180.404 180.404 181.201 
181.129 181.872 181.689 182.356 181.921 182.393 181.665 181.934 164.502 
163.494 164.355 165.024 162.424 163.31 164 164.854 165.616 161.406 
162.27 162.951 163.796 164.537 165.503 166.512 160.384 161.256 161.908 
162.739 163.394 164.348 165.306 166.505 167.744 159.294 160.173 160.812 
161.675 162.293 163.182 164.028 165.199 166.406 167.751 169.007 158.232 
159.048 159.672 160.558 161.252 162.126 162.951 163.965 165.081 166.351 
167.608 168.919 170.055 157.377 158.055 158.658 159.459 160.207 161.114 
162.004 162.968 163.995 165.095 166.249 167.493 168.63 169.881 170.926 
156.851 157.369 157.967 158.579 159.272 160.098 160.979 161.978 162.946 
164.001 164.992 166.141 167.183 168.427 169.463 170.71 171.702 156.59 
157.001 157.57 158.019 158.585 159.226 159.975 160.901 161.808 162.855 
163.754 164.838 165.764 166.961 167.963 169.221 170.204 171.438 172.36 
156.677 156.951 157.097 157.579 156.987 157.232 157.735 157.936 158.494 
157.112 157.272 157.85 158.068 158.769 158.993 159.833 157.577 157.612 
158.327 158.406 159.297 159.442 160.454 160.621 161.67 158.172 158.247 
159.122 159.167 160.189 160.24 161.334 161.404 162.475 162.575 163.611 
158.758 158.885 159.85 160.012 161.068 161.199 162.267 162.35 163.394 
163.45 164.495 164.557 165.627 159.451 159.532 160.493 160.684 161.727 
161.948 162.988 163.175 164.237 164.373 165.497 165.563 166.725 166.726 
167.865 160.202 160.268 161.192 161.336 162.362 162.561 163.629 163.835 
164.965 165.18 166.416 166.597 167.854 167.916 169.094 169.042 170.123 
160.89 160.992 161.906 162.04 163.061 163.239 164.352 164.543 165.73 
165.947 167.229 167.482 168.791 168.982 170.188 170.238 171.318 171.254 
172.256 161.56 163.11 162.415 162.659 164.973 164.15 164.424 163.628 
163.895 167.084 166.184 166.532 165.595 165.907 165.004 165.282 169.554 
168.522 169.004 167.914 168.3 167.23 167.557 166.512 166.77 172.465 
171.318 171.964 170.682 171.168 169.875 170.261 169.012 169.306 168.108 
168.35 175.208 174.299 175.03 173.84 174.417 173.025 173.476 172.005 
172.324 170.874 171.09 169.765 169.953 177.039 176.61 177.296 176.622 
177.249 176.231 176.765 175.401 175.764 174.158 174.316 172.699 172.758 
171.338 171.382 178.134 177.956 178.611 178.378 179.081 178.624 179.269 
178.427 178.873 177.573 177.72 176.069 175.981 174.288 174.15 172.665 
172.551 179.14 178.943 179.685 179.531 180.388 180.17 180.953 180.508 
181.034 180.241 180.435 179.215 179.091 177.51 177.216 175.55 175.263 
173.75 173.519 161.148 160.971 161.576 162.683 160.816 161.434 162.614 
163.257 164.507 160.636 161.275 162.431 163.152 164.447 165.158 166.524 
160.338 161.035 162.153 162.911 164.204 165.019 166.462 167.256 168.848 
159.993 160.714 161.898 162.641 163.973 164.778 166.289 167.158 168.878 
169.774 171.627 159.72 160.432 161.705 162.451 163.847 164.625 166.157 
167.015 168.751 169.746 171.652 172.637 174.383 159.47 160.194 161.47 
162.271 163.67 164.501 165.975 166.852 168.471 169.512 171.328 172.474 
174.198 175.121 176.374 159.216 159.921 161.166 161.992 163.372 164.25 
165.671 166.565 168.052 169.08 170.758 171.966 173.672 174.758 176.077 
176.77 177.612 159.057 159.684 160.901 161.679 163.048 163.916 165.326 
166.203 167.619 168.573 170.134 171.291 172.978 174.152 175.611 176.45 
177.447 177.917 178.636 160.229 158.785 159.638 159.951 157.382 158.157 
158.413 159.354 159.756 156.132 156.787 156.977 157.828 158.208 159.195 
159.616 154.974 155.579 155.695 156.438 156.722 157.641 157.999 158.988 
159.311 153.713 154.371 154.435 155.154 155.307 156.133 156.336 157.284 
157.52 158.559 158.865 152.37 153.026 153.047 153.798 153.885 154.676 
154.776 155.611 155.765 156.726 157.023 158.122 158.539 151.212 151.722 
151.682 152.351 152.407 153.191 153.315 154.11 154.281 155.102 155.393 
156.352 156.778 157.864 158.322 150.401 150.716 150.639 151.095 151.116 
151.759 151.923 152.696 152.95 153.741 154.036 154.867 155.236 156.187 
156.618 157.666 158.109 149.897 150.068 149.998 150.253 150.274 150.681 
150.847 151.446 151.731 152.462 152.768 153.551 153.857 154.711 155.078 
156.034 156.476 157.502 157.982 149.682 149.47 149.616 149.761 149.388 
149.477 149.645 149.782 150.04 149.376 149.462 149.682 149.775 150.053 
150.181 150.581 149.409 149.483 149.712 149.825 150.096 150.232 150.587 
150.808 151.36 149.64 149.613 149.817 149.841 150.051 150.194 150.498 
150.756 151.243 151.625 152.303 150.159 150.026 150.26 150.078 150.245 
150.194 150.494 150.655 151.159 151.488 152.172 152.604 153.376 150.837 
150.673 150.971 150.691 150.877 150.613 150.935 150.867 151.442 151.572 
152.326 152.596 153.438 153.785 154.633 151.561 151.383 151.7 151.452 
151.688 151.393 151.734 151.54 152.131 152.101 152.896 152.991 153.887 
154.063 154.98 155.203 156.089 152.316 152.104 152.41 152.184 152.477 
152.229 152.617 152.416 152.996 152.904 153.671 153.693 154.584 154.682 
155.616 155.737 156.648 156.777 157.644 152.866 153.796 153.182 152.938 
155.003 154.23 153.97 153.293 153.057 156.518 155.605 155.378 154.517 
154.303 153.521 153.328 158.268 157.258 157.074 156.107 155.952 155.009 
154.852 153.953 153.821 160.229 159.139 158.993 157.938 157.849 156.83 
156.731 155.696 155.573 154.597 154.539 162.357 161.242 161.174 160.016 
159.972 158.861 158.822 157.711 157.614 156.511 156.445 155.448 155.471 
164.572 163.482 163.531 162.339 162.342 161.133 161.116 159.916 159.837 
158.646 158.566 157.467 157.473 156.474 156.52 166.848 165.781 165.915 
164.756 164.812 163.591 163.596 162.33 162.256 160.964 160.856 159.649 
159.616 158.539 158.557 157.538 157.544 169.108 168.087 168.237 167.132 
167.201 166.041 166.068 164.845 164.796 163.473 163.345 162.02 161.929 
160.732 160.712 159.613 159.586 158.536 158.507 159.384 160.546 160.374 
161.263 161.781 161.643 162.652 162.446 163.453 163.091 162.963 164.1 
163.928 165.028 164.76 165.765 164.563 164.4 165.61 165.438 166.623 
166.385 167.468 167.115 168.093 166.049 165.945 167.199 167.027 168.267 
168.035 169.243 168.913 170.057 169.589 170.676 167.329 167.359 168.667 
168.611 169.925 169.752 171.082 170.804 172.142 171.723 172.986 172.406 
173.552 168.462 168.563 169.924 169.997 171.418 171.401 172.848 172.702 
174.14 173.857 175.193 174.741 175.857 175.248 176.134 169.524 169.681 
171.073 171.215 172.693 172.822 174.346 174.39 175.841 175.738 177.016 
176.754 177.771 177.327 178.035 177.451 177.925 170.418 170.685 172.081 
172.313 173.767 174.005 175.506 175.72 177.129 177.209 178.377 178.288 
179.189 178.933 179.563 179.109 179.488 178.889 179.131 151.008 150.732 
150.586 150.061 150.365 150.27 149.787 149.725 149.43 150.169 149.937 
149.502 149.448 149.217 149.261 149.174 150.487 149.996 149.566 149.303 
149.125 149.093 149.031 149.069 148.993 150.905 150.438 149.933 149.551 
149.314 149.15 149.122 149.035 148.981 148.9 148.833 150.95 150.646 
150.027 149.782 149.401 149.315 149.234 149.205 149.204 149.066 149.037 
148.884 148.94 151.007 150.618 150.005 149.719 149.295 149.223 149.087 
149.183 149.204 149.254 149.256 149.178 149.197 149.112 149.23 151.458 
150.913 150.453 149.933 149.612 149.26 149.147 149.046 149.086 149.146 
149.197 149.257 149.267 149.286 149.323 149.353 149.458 152.097 151.571 
151.247 150.674 150.442 149.9 149.781 149.38 149.373 149.179 149.242 
149.199 149.259 149.267 149.31 149.347 149.417 149.498 149.617 151.005 
150.053 150.574 150.852 149.471 149.758 149.997 150.57 151.093 149.287 
149.415 149.634 149.929 150.421 151.013 151.683 149.121 149.311 149.581 
149.776 150.211 150.561 151.207 151.737 152.395 148.888 149.083 149.387 
149.695 150.144 150.464 151.052 151.445 152.104 152.524 153.083 148.933 
148.932 149.167 149.427 149.873 150.281 150.87 151.32 151.988 152.379 
152.947 153.232 153.644 149.252 149.127 149.281 149.323 149.679 149.97 
150.533 151.024 151.731 152.245 152.883 153.194 153.609 153.775 154.113 
149.552 149.469 149.619 149.556 149.848 149.93 150.421 150.734 151.407 
151.914 152.612 153.068 153.582 153.812 154.185 154.32 154.754 149.765 
149.74 149.94 149.902 150.211 150.22 150.688 150.808 151.403 151.689 
152.329 152.746 153.324 153.705 154.186 154.436 154.919 155.101 155.643 
151.657 151.59 151.964 152.769 151.845 152.06 152.87 153.204 154.085 
152.343 152.424 153.124 153.355 154.167 154.564 155.496 152.93 152.932 
153.517 153.629 154.334 154.642 155.561 156.018 156.973 153.52 153.494 
154.063 154.084 154.771 154.91 155.813 156.157 157.175 157.534 158.4 
153.999 154.023 154.616 154.68 155.407 155.476 156.329 156.527 157.481 
157.785 158.668 158.923 159.687 154.418 154.434 155.026 155.183 155.935 
156.093 156.878 157.044 157.854 158.093 158.897 159.168 159.955 160.219 
161.036 155.05 154.92 155.482 155.571 156.315 156.52 157.299 157.498 
158.262 158.452 159.227 159.433 160.243 160.494 161.368 161.646 162.525 
155.939 155.692 156.193 156.113 156.779 156.892 157.667 157.868 158.679 
158.874 159.7 159.862 160.696 160.871 161.735 161.981 162.855 163.12 
163.907 160.096 159.427 159.422 158.702 158.672 158.713 158.045 158.039 
157.347 157.969 157.963 157.342 157.382 156.788 156.759 156.139 157.436 
157.36 156.755 156.743 156.225 156.229 155.676 155.614 155.002 156.953 
156.888 156.291 156.235 155.702 155.704 155.179 155.147 154.51 154.428 
153.741 156.564 156.441 155.829 155.745 155.14 155.153 154.604 154.627 
154.003 153.919 153.189 153.095 152.41 156.442 156.179 155.524 155.298 
154.614 154.54 153.961 154.012 153.447 153.415 152.729 152.588 151.901 
151.817 151.268 156.385 156.121 155.445 155.111 154.397 154.126 153.511 
153.42 152.894 152.871 152.277 152.167 151.525 151.4 150.88 150.832 
150.46 156.106 155.96 155.315 155.065 154.418 154.084 153.472 153.169 
152.605 152.421 151.858 151.737 151.162 151.059 150.576 150.523 150.195 
150.18 149.95 
POINT_DATA 1002
SCALARS Distance double
LOOKUP_TABLE default
153.418 152.557 153.101 154.07 153.829 154.468 154.884 154.735 155.257 
155.826 155.903 155.766 156.203 156.782 157.458 157.071 156.812 157.369 
157.896 158.605 159.3 158.265 157.894 158.681 159.198 159.873 160.591 
161.314 159.524 159.124 160.011 160.58 161.233 161.907 162.612 163.419 
160.815 160.364 161.318 161.901 162.579 163.264 163.92 164.7 165.609 
161.935 161.411 162.517 163.147 163.831 164.582 165.313 166.073 166.977 
167.89 162.866 162.31 163.557 164.334 165.072 165.812 166.639 167.505 
168.413 169.336 170.107 151.968 152.642 151.43 152.331 151.259 153.518 
152.255 151.333 153.278 154.491 152.071 151.039 153.035 154.192 155.505 
151.582 150.493 152.674 153.885 155.233 156.551 151.354 150.451 152.413 
153.693 155.109 156.418 157.71 151.655 150.854 152.533 153.69 155.105 
156.418 157.625 158.974 152.028 151.185 152.837 153.815 155.109 156.408 
157.544 158.785 160.156 152.285 151.431 153.114 154.013 155.156 156.397 
157.495 158.605 159.899 161.189 152.371 153.268 153.587 154.614 154.999 
154.216 156.171 156.471 155.697 155.293 157.583 157.886 157.198 156.788 
156.499 158.825 159.163 158.47 158.198 157.934 157.657 160.18 160.445 
159.84 159.625 159.459 159.131 158.772 161.751 161.91 161.47 161.252 
161.112 160.824 160.38 160.038 163.324 163.392 163.096 162.875 162.731 
162.506 162.122 161.698 161.379 164.671 164.634 164.522 164.33 164.21 
164.053 163.77 163.397 162.976 162.59 163.635 164.108 165.342 164.642 
165.941 167.325 165.079 166.473 167.865 169.208 165.408 166.862 168.298 
169.713 171.071 165.641 167.205 168.717 170.241 171.822 173.401 165.728 
167.416 169.119 170.77 172.542 174.32 176.061 165.79 167.418 169.28 
171.101 172.994 174.948 176.781 178.491 165.874 167.343 169.178 171.128 
173.108 175.178 177.17 178.963 180.507 165.827 167.19 168.917 170.921 
173.02 175.171 177.268 179.179 180.842 182.15 164.39 166.373 165.362 
168.476 167.516 166.321 170.358 169.545 168.444 167.104 172.554 171.616 
170.545 169.289 167.956 175.453 174.527 173.283 171.874 170.457 169.014 
178.325 177.841 176.79 175.206 173.466 171.793 170.107 180.542 180.376 
179.777 178.51 176.709 174.779 172.924 171.102 182.207 182.015 181.563 
180.722 179.356 177.555 175.623 173.74 171.893 183.613 183.451 184.772 
184.357 185.596 182.92 185.005 186.04 183.563 182.167 185.219 186.018 
184.047 182.615 181.172 184.833 185.55 183.986 182.885 181.482 179.738 
184.03 184.523 183.324 182.586 181.535 179.923 177.868 182.844 182.825 
182.428 181.858 181.116 179.81 177.926 175.839 181.311 180.895 181.349 
180.995 180.37 179.303 177.652 175.729 173.812 179.787 179.323 180.083 
179.962 179.414 178.463 177.023 175.268 173.517 171.82 182.815 184.289 
183.024 184.388 182.646 185.471 183.925 181.952 185.655 186.306 183.183 
181.241 185.322 186.597 186.687 182.306 180.415 184.399 186.134 186.859 
186.569 181.179 179.14 183.042 184.694 185.925 186.376 185.804 179.507 
177.292 181.461 182.949 184.108 184.957 184.997 184.085 177.271 175.186 
179.407 181.185 182.37 183.107 183.321 182.771 181.779 174.947 173.244 
176.912 178.938 180.553 181.456 181.683 181.301 180.53 179.798 165.18 
166.522 165.704 167.341 166.479 168.195 168.571 167.697 169.438 170.299 
170.151 169.081 171.094 172.031 172.715 171.593 170.225 172.897 174.123 
174.963 175.222 172.697 171.128 174.373 176.024 177.222 177.647 177.541 
173.663 171.951 175.509 177.303 178.708 179.466 179.682 179.558 174.532 
172.68 176.501 178.262 179.561 180.416 181.027 181.402 181.343 163.696 
164.193 162.598 163.142 161.538 164.669 162.134 160.55 163.582 165.366 
161.086 159.517 162.506 164.1 166.458 159.919 158.45 161.435 162.944 
165.045 167.72 158.778 157.471 160.322 162.003 163.912 166.292 168.817 
157.919 156.745 159.281 161.02 162.993 165.085 167.373 169.703 157.445 
156.368 158.54 159.997 161.923 163.928 165.969 168.209 170.48 157.194 