# vtk DataFile Version 4.0
vtk output
ASCII
DATASET POLYDATA
POINTS 1002 float
-104.125 -81.9574 76.467 -104.044 -81.251 75.3332 -104.739 -81.4023 75.8864 
-104.808 -82.1547 77.1153 -105.313 -81.4181 76.7039 -104.199 -82.8084 77.6843 
-105.417 -82.2588 77.9529 -105.919 -81.4386 77.5742 -104.954 -83.1526 78.3252 
-104.48 -83.9815 78.812 -106.209 -82.5212 78.7049 -106.806 -81.7827 78.2087 
-105.761 -83.4945 79.0812 -105.395 -84.4319 79.4558 -105.028 -85.231 79.9884 
-107.27 -83.1194 79.3097 -107.817 -82.399 78.8142 -106.747 -83.9635 79.8376 
-106.287 -84.8226 80.3234 -105.883 -85.5995 80.8572 -105.577 -86.4394 81.3652 
-108.232 -83.6912 80.1555 -108.657 -82.9117 79.7171 -107.743 -84.4635 80.7204 
-107.15 -85.1795 81.3471 -106.584 -85.9126 81.9629 -106.24 -86.8726 82.4386 
-106.064 -87.9423 82.7186 -108.928 -83.9709 81.2742 -109.376 -83.2545 80.7455 
-108.494 -84.7729 81.8221 -107.953 -85.5578 82.4261 -107.346 -86.3396 83.0071 
-106.977 -87.395 83.4303 -106.842 -88.626 83.6797 -106.685 -89.6312 83.8827 
-109.563 -84.2553 82.2956 -110.077 -83.6135 81.6606 -109.107 -85.0792 82.8602 
-108.706 -86.0559 83.3914 -108.254 -87.0335 83.8823 -107.922 -88.1061 84.2132 
-107.799 -89.3417 84.4193 -107.629 -90.4099 84.6692 -107.342 -91.1829 84.9655 
-110.226 -84.757 83.1183 -110.696 -84.0505 82.4731 -109.774 -85.6274 83.6938 
-109.45 -86.7007 84.1824 -109.148 -87.8338 84.6513 -108.842 -88.9284 85.0189 
-108.656 -90.067 85.219 -108.47 -91.158 85.428 -108.162 -92.0292 85.7328 
-107.872 -92.7684 85.9874 -110.842 -85.348 83.8297 -111.199 -84.5356 83.2054 
-110.47 -86.2774 84.426 -110.178 -87.3438 84.92 -109.912 -88.4851 85.3722 
-109.581 -89.618 85.8138 -109.281 -90.7543 86.1381 -109.049 -91.8901 86.3459 
-108.79 -92.9134 86.5607 -108.535 -93.7813 86.7679 -108.389 -94.5614 86.8655 
-104.348 -80.5152 74.6762 -105.014 -80.5827 75.3331 -104.637 -79.584 74.2381 
-105.281 -79.5677 74.9756 -105.163 -78.7902 73.8016 -105.623 -80.5781 76.2213 
-105.875 -78.6868 74.5212 -106.1 -78.3125 73.0075 -106.018 -79.6479 75.8113 
-106.396 -80.7048 77.0499 -106.887 -78.1476 73.6976 -107.094 -77.8515 71.9977 
-106.725 -78.8221 75.2804 -106.966 -79.9147 76.5768 -107.39 -81.1009 77.7059 
-107.817 -77.7124 72.8259 -107.743 -77.2274 71.2671 -107.649 -78.2214 74.5581 
-107.659 -79.0791 76.109 -107.966 -80.2512 77.3458 -108.331 -81.6123 78.4721 
-108.4 -77.1076 72.3125 -108.265 -76.6273 70.8694 -108.392 -77.6105 73.939 
-108.389 -78.3209 75.5905 -108.586 -79.3715 76.9847 -108.869 -80.7254 78.1659 
-109.159 -82.1395 79.3891 -109.023 -76.4367 72.0188 -108.997 -76.1542 70.5398 
-109.014 -76.8539 73.5429 -109.057 -77.5664 75.1242 -109.283 -78.6627 76.5459 
-109.541 -80.0185 77.7426 -109.761 -81.4431 78.9412 -109.977 -82.6627 80.2879 
-109.871 -75.9558 71.7016 -109.857 -75.8041 70.1974 -109.83 -76.2849 73.1734 
-109.811 -76.9295 74.6902 -110.002 -78.0274 76.1329 -110.29 -79.4338 77.3431 
-110.451 -80.8493 78.5002 -110.576 -82.0805 79.8103 -110.688 -83.096 81.1972 
-110.691 -75.753 71.3446 -110.632 -75.6317 69.8785 -110.715 -76.1179 72.7644 
-110.687 -76.7057 74.2208 -110.751 -77.5818 75.7084 -110.97 -78.7993 77.0277 
-111.12 -80.1558 78.2164 -111.139 -81.3909 79.4999 -111.176 -82.46 80.8522 
-111.215 -83.4774 82.1085 -111.328 -75.7285 70.4932 -111.415 -76.0831 72.0003 
-111.907 -76.2397 71.1534 -112.097 -76.8069 72.7526 -112.505 -77.0818 71.9372 
-111.51 -76.7148 73.5045 -112.916 -77.549 73.6042 -113.289 -77.9636 72.764 
-112.325 -77.4707 74.3989 -111.553 -77.4225 75.088 -113.768 -78.2624 74.4074 
-113.962 -78.9089 73.5362 -113.186 -78.1108 75.3262 -112.401 -78.145 76.0393 
-111.636 -78.3113 76.6161 -114.213 -79.3957 75.2739 -114.186 -80.2098 74.5153 
-113.847 -79.062 76.2122 -113.155 -79.063 76.9516 -112.402 -79.1301 77.5478 
-111.741 -79.5061 77.997 -114.338 -80.9084 76.4086 -114.19 -81.6962 75.8497 
-114.203 -80.4214 77.2402 -113.736 -80.375 77.9666 -113.066 -80.3416 78.5562 
-112.366 -80.3566 79.1225 -111.719 -80.7733 79.4388 -114.51 -82.3203 77.5837 
-114.211 -82.9353 77.209 -114.555 -81.7188 78.3023 -114.246 -81.5158 79.1145 
-113.685 -81.557 79.7501 -112.998 -81.4957 80.3304 -112.276 -81.5526 80.7929 
-111.662 -81.9495 80.9119 -114.626 -83.5612 78.595 -114.198 -83.9588 78.3385 
-114.868 -83.0189 79.2047 -114.715 -82.5873 80.1115 -114.245 -82.4922 80.9027 
-113.65 -82.572 81.4574 -112.951 -82.6406 81.9265 -112.237 -82.8024 82.194 
-111.672 -83.1257 82.1883 -114.566 -84.8298 79.546 -114.171 -85.0687 79.2928 
-114.9 -84.5258 80.1038 -114.925 -84.1488 81.0001 -114.607 -83.8394 81.8632 
-114.158 -83.7568 82.4094 -113.626 -83.8653 82.801 -112.94 -84.0104 83.135 
-112.245 -84.1595 83.2851 -111.683 -84.3477 83.265 -111.504 -85.647 84.2868 
-112.079 -85.5712 84.3536 -111.88 -86.9313 85.4466 -112.776 -85.5199 84.3177 
-112.531 -86.973 85.5636 -112.237 -88.4191 86.5757 -113.513 -85.4525 84.0801 
-113.268 -87.0591 85.5303 -112.931 -88.6785 86.7335 -112.559 -90.5622 87.4283 
-114.052 -85.4102 83.7155 -113.859 -87.1769 85.21 -113.58 -89.009 86.6755 
-113.289 -91.1627 87.5554 -112.953 -93.4396 88.151 -114.406 -85.5764 83.3607 
-114.179 -87.4632 84.7744 -113.948 -89.3962 86.2549 -113.811 -91.7359 87.4689 
-113.648 -94.1986 88.3145 -113.309 -96.2178 89.2016 -114.723 -85.8917 82.7957 
-114.445 -87.8661 84.4143 -114.2 -89.8251 85.7696 -114.093 -92.1622 87.091 
-114.09 -94.7404 88.3197 -113.885 -96.873 89.4361 -113.49 -98.5997 90.3907 
-114.858 -86.1049 81.8755 -114.697 -88.028 83.7922 -114.538 -90.0273 85.3268 
-114.432 -92.3505 86.6443 -114.431 -94.9804 88.0804 -114.338 -97.2992 89.4506 
-114.023 -99.264 90.5042 -113.721 -101.313 91.1363 -114.692 -86.2054 80.9837 
-114.741 -87.9517 82.7971 -114.766 -89.9093 84.5339 -114.755 -92.2416 86.0327 
-114.748 -94.956 87.6233 -114.706 -97.5234 89.1972 -114.5 -99.7886 90.3432 
-114.254 -102.117 91.0133 -114.146 -104.539 91.36 -114.395 -86.3367 80.4353 
-114.604 -87.9481 81.8889 -114.772 -89.7967 83.4904 -114.844 -92.0173 85.0701 
-114.843 -94.7105 86.8112 -114.836 -97.5146 88.6439 -114.756 -100.137 90.0088 
-114.617 -102.717 90.7087 -114.561 -105.293 91.0545 -114.583 -107.594 91.2879 
-111.199 -86.6275 84.979 -111.58 -88.0294 86.1666 -110.909 -87.7159 85.5936 
-111.862 -89.8648 87.1702 -111.263 -89.3301 86.7321 -110.62 -88.9088 86.0739 
-112.187 -92.5965 87.9544 -111.551 -91.7208 87.6301 -110.949 -90.8834 87.1024 
-110.263 -90.1982 86.4903 -112.636 -95.6031 88.9697 -112.02 -94.8438 88.5696 
-111.44 -93.8091 87.9493 -110.677 -92.5951 87.3908 -109.888 -91.5581 86.8899 
-112.942 -98.1684 90.2274 -112.43 -97.6514 89.8501 -111.995 -96.92 89.1106 
-111.369 -95.7059 88.2751 -110.441 -94.2174 87.757 -109.601 -92.908 87.217 
-113.202 -100.979 91.1016 -112.642 -100.412 90.895 -112.157 -99.6876 90.4414 
-111.763 -98.6684 89.5877 -111.163 -97.2254 88.7089 -110.24 -95.6135 88.112 
-109.378 -94.1418 87.4433 -113.708 -104.453 91.4383 -113.114 -103.944 91.3219 
-112.407 -103.038 91.1718 -111.828 -101.826 90.7927 -111.491 -100.296 89.9312 
-110.988 -98.555 89.0045 -110.093 -96.8208 88.3086 -109.19 -95.203 87.5921 
-114.291 -107.792 91.4933 -113.826 -107.532 91.4451 -113.169 -106.752 91.3194 
-112.402 -105.534 91.2503 -111.818 -103.877 90.8508 -111.46 -101.849 89.9778 
-110.891 -99.7696 89.1057 -109.98 -97.8521 88.3991 -109.083 -96.0994 87.6575 
-114.798 -110.417 91.216 -114.47 -110.509 91.3892 -114.894 -112.814 90.8254 
-114.462 -112.547 90.8341 -114.998 -115.016 89.939 -114.031 -109.994 91.2514 
-114.416 -114.194 89.6993 -115.206 -116.914 88.8124 -114.105 -111.603 90.5718 
-113.467 -109.014 91.1101 -114.377 -115.478 88.5719 -115.076 -117.48 87.8912 
-114.009 -112.738 89.5006 -113.675 -110.458 90.4949 -112.718 -107.621 91.0436 
-114.04 -115.76 88.0104 -114.273 -116.573 87.1774 -113.72 -113.594 88.7698 
-113.438 -111.321 89.769 -112.816 -108.973 90.5781 -111.987 -105.553 90.6208 
-113.369 -115.046 87.7036 -113.318 -115.391 86.6245 -113.298 -113.684 88.5444 
-112.944 -111.695 89.3376 -112.385 -109.551 90.1519 -111.809 -106.583 90.379 
-111.364 -102.967 89.859 -112.681 -113.871 87.3877 -112.697 -114.206 86.4996 
-112.754 -112.842 88.3063 -112.543 -111.275 88.9858 -111.968 -109.426 89.6793 
-111.38 -106.877 90.1252 -111.002 -103.605 89.8209 -110.588 -100.452 89.077 
-112.051 -112.176 87.2738 -112.202 -112.288 86.795 -112.027 -111.381 88.0216 
-111.985 -110.125 88.6109 -111.693 -108.624 89.0812 -111.159 -106.527 89.551 
-110.659 -103.692 89.5578 -110.22 -100.781 88.9603 -109.659 -98.253 88.2476 
-111.356 -109.823 87.3446 -111.536 -109.589 87.0993 -111.204 -109.471 87.8767 
-111.14 -108.593 88.3965 -111.089 -107.369 88.6977 -110.838 -105.642 88.928 
-110.363 -103.258 88.9876 -109.858 -100.697 88.584 -109.343 -98.3992 87.9274 
-108.8 -96.3507 87.3611 -114.872 -108.926 90.8916 -115.116 -111.657 90.5992 
-115.011 -109.786 90.3951 -115.372 -112.297 89.8283 -115.114 -109.862 89.9132 
-115.41 -114.221 89.9663 -115.53 -112.108 89.1578 -115.241 -109.072 89.369 
-115.879 -114.957 89.0524 -115.852 -116.85 89.0686 -115.501 -111.075 88.6347 
-115.121 -107.621 88.8231 -115.887 -114.616 88.3519 -116.315 -117.497 88.2755 
-116.078 -118.412 88.1197 -115.171 -109.222 88.3284 -114.605 -105.672 88.3672 
-115.485 -113.067 87.9518 -115.879 -116.578 87.6236 -116.124 -118.22 87.317 
-115.433 -117.767 87.0572 -114.628 -106.675 88.0277 -114.106 -103.385 87.58 
-114.982 -110.312 87.9117 -115.171 -114.112 87.4316 -115.479 -116.724 86.7233 
-115.242 -117.04 86.1014 -114.239 -116.239 86.0551 -114.143 -103.972 87.2074 
-113.854 -101.129 86.2626 -114.444 -107.004 87.7277 -114.601 -110.362 87.6814 
-114.884 -113.751 86.9996 -114.999 -115.632 86.038 -114.35 -115.684 85.5312 
-113.377 -115.101 85.7943 -113.727 -101.591 85.9735 -113.551 -99.2178 84.9241 
-113.896 -104.066 86.9067 -114.002 -106.564 87.4895 -114.245 -109.533 87.4733 
-114.588 -112.449 86.8971 -114.437 -114.01 86.2768 -113.683 -114.151 86.0892 
-112.856 -113.5 86.3383 -113.222 -99.614 84.82 -113.028 -97.7132 83.9185 
-113.352 -101.677 85.756 -113.397 -103.613 86.5673 -113.489 -105.653 87.0813 
[...]
CELL_DATA 2000
SCALARS Distance double
LOOKUP_TABLE default
151.603 152.448 152.234 152.662 153.302 153.099 153.597 153.374 153.912 
154.311 154.036 154.617 154.381 155.017 154.771 155.442 155.57 155.206 
155.852 155.538 156.238 155.953 156.658 156.393 157.121 156.906 156.558 
157.225 156.883 157.566 157.235 157.907 157.616 158.335 158.104 158.887 
158.133 157.849 158.495 158.219 158.872 158.56 159.196 158.874 159.59 
159.343 160.185 159.961 160.81 159.276 159.011 159.629 159.397 160.075 
159.826 160.527 160.208 160.964 160.668 161.553 161.318 162.223 161.94 
162.74 160.387 160.135 160.764 160.524 161.252 161.035 161.841 161.582 
162.406 162.107 162.974 162.716 163.601 163.344 164.143 163.822 164.538 
161.43 161.233 161.904 161.688 162.442 162.246 163.072 162.883 163.716 
163.497 164.31 164.085 164.899 164.673 165.456 165.183 165.914 165.589 
166.305 151.101 150.588 151.205 151.921 150.154 150.686 151.414 152.033 
152.764 149.982 150.331 151.009 151.561 152.36 152.944 153.758 149.991 
150.257 150.862 151.265 152.07 152.614 153.498 154.058 154.975 149.921 
150.264 150.871 151.203 151.938 152.403 153.279 153.831 154.756 155.34 
156.283 149.766 150.154 150.8 151.174 151.861 152.293 153.108 153.63 
154.535 155.109 156.052 156.642 157.549 149.759 150.057 150.699 151.054 
151.742 152.174 152.989 153.49 154.404 154.928 155.881 156.432 157.377 
157.905 158.754 149.973 150.164 150.803 151.041 151.74 152.086 152.939 
153.409 154.379 154.873 155.842 156.326 157.264 157.764 158.642 159.103 
159.878 150.289 150.442 151.106 151.275 151.998 152.225 153.071 153.439 
154.409 154.879 155.845 156.313 157.202 157.668 158.505 158.978 159.753 
160.191 160.898 150.68 151.623 151.276 151.548 152.763 152.342 152.694 
152.247 152.527 154.093 153.609 154.018 153.524 153.867 153.317 153.634 
155.452 154.983 155.387 154.906 155.27 154.725 155.058 154.517 154.924 
156.753 156.309 156.731 156.278 156.672 156.145 156.487 155.945 156.336 
155.856 156.307 158.108 157.634 158.107 157.648 158.131 157.607 158.016 
157.423 157.808 157.263 157.691 157.214 157.641 159.475 159.032 159.515 
159.066 159.584 159.108 159.586 159.018 159.422 158.806 159.196 158.626 
159.03 158.521 158.919 160.666 160.337 160.828 160.45 160.954 160.538 
161.022 160.546 160.973 160.417 160.792 160.187 160.545 159.958 160.321 
159.791 160.152 161.72 161.453 162.002 161.706 162.269 161.896 162.412 
161.955 162.405 161.899 162.306 161.755 162.118 161.513 161.84 161.236 
161.555 161.002 161.31 162.122 162.439 162.699 163.566 162.791 163.071 
164.013 164.249 165.165 163.093 163.439 164.449 164.743 165.744 165.93 
166.891 163.263 163.687 164.72 165.135 166.214 166.528 167.605 167.782 
168.883 163.379 163.831 164.874 165.339 166.442 166.901 168.082 168.471 
169.698 169.933 171.141 163.423 163.941 165.027 165.508 166.611 167.079 
168.286 168.829 170.174 170.654 171.945 172.196 173.332 163.235 163.874 
164.957 165.593 166.701 167.238 168.408 168.989 170.362 171.005 172.4 
172.861 174.058 174.278 175.367 162.863 163.534 164.536 165.321 166.411 
167.155 168.293 169.01 170.333 171.105 172.546 173.198 174.491 174.891 
176.046 176.303 177.481 162.52 163.115 164.052 164.803 165.868 166.691 
167.816 168.675 169.94 170.882 172.306 173.198 174.567 175.208 176.425 
176.863 178.051 178.412 179.592 162.201 163.659 162.87 162.771 165.241 
164.417 164.363 163.505 163.392 166.939 166.053 166.024 165.158 165.084 
164.176 164.052 168.967 167.912 167.933 166.93 166.899 165.919 165.812 
164.852 164.705 171.29 170.165 170.291 169.112 169.169 167.958 167.885 
166.717 166.57 165.516 165.34 173.505 172.518 172.706 171.603 171.733 
170.478 170.445 169.063 168.888 167.562 167.355 166.187 165.971 175.618 
174.701 174.948 173.939 174.094 172.99 172.993 171.703 171.512 170.079 
169.79 168.392 168.093 166.841 166.552 177.887 176.958 177.366 176.271 
176.51 175.34 175.42 174.176 174.063 172.689 172.401 170.936 170.561 
169.118 168.725 167.413 167.047 180.098 179.325 179.858 178.828 179.144 
177.921 178.07 176.739 176.723 175.291 175.078 173.563 173.194 171.658 
171.205 169.716 169.252 167.895 167.477 181.371 182.967 181.945 181.205 
184.053 183.265 182.586 181.549 180.518 184.781 184.054 183.274 182.596 
181.723 180.682 179.457 185.062 184.53 183.529 183.002 182.217 181.617 
180.608 179.488 178.086 184.442 184.454 183.505 183.112 182.258 181.89 
181.057 180.375 179.067 177.896 176.321 183.106 183.551 182.965 182.906 
182.054 181.797 180.923 180.55 179.361 178.559 176.947 175.879 174.268 
181.742 182.247 181.868 182.142 181.399 181.37 180.411 180.22 179.054 
178.568 177.042 176.223 174.548 173.66 172.134 180.393 180.915 180.435 
180.884 180.167 180.409 179.455 179.486 178.334 178.092 176.657 176.092 
174.456 173.73 172.144 171.435 170.042 178.678 179.345 178.735 179.303 
178.564 178.979 178.081 178.315 177.227 177.215 175.854 175.537 173.956 
173.439 171.859 171.289 169.866 169.327 168.12 181.618 182.209 182.427 
183.203 182.342 182.817 183.728 183.897 184.451 181.965 182.717 183.773 
184.31 185.224 185.196 185.527 181.041 182.083 183.178 184.118 185.251 
185.821 186.435 186.169 185.955 179.577 180.887 181.92 183.171 184.22 
185.362 186 186.503 186.188 185.906 185 177.653 179.154 180.085 
181.54 182.391 183.821 184.385 185.423 185.151 185.413 184.41 184.28 
183.277 175.493 177.031 177.839 179.39 180.067 181.611 182.148 183.493 
183.554 184.176 183.539 183.511 182.67 182.566 181.892 173.378 174.799 
175.485 176.985 177.512 179.04 179.463 181.024 181.323 182.508 182.355 
182.765 182.19 182.123 181.484 181.356 180.685 171.482 172.713 173.28 
174.63 175.05 176.431 176.685 178.188 178.392 179.963 179.981 181.188 
180.788 181.381 180.657 180.826 179.961 179.947 178.989 162.657 163.54 
163.436 164.236 164.612 164.487 165.325 165.179 166.059 165.561 165.575 
166.493 166.369 167.261 167.097 168.031 166.439 166.509 167.587 167.557 
168.571 168.398 169.41 169.206 170.257 167.601 167.579 168.846 168.784 
170.009 169.826 170.998 170.754 171.956 171.661 172.769 168.837 168.895 
170.262 170.235 171.601 171.437 172.764 172.509 173.845 173.536 174.764 
174.291 175.196 169.675 169.973 171.332 171.563 172.971 173.035 174.449 
174.342 175.764 175.522 176.83 176.379 177.348 176.637 177.224 170.211 
170.609 171.973 172.399 173.871 174.212 175.713 175.887 177.352 177.337 
178.653 178.387 179.389 178.799 179.441 178.576 178.963 170.744 171.123 
172.524 172.977 174.524 174.992 176.582 176.963 178.456 178.673 179.948 
179.944 180.921 180.631 181.302 180.7 181.133 180.261 180.527 161.898 
160.964 161.815 162.678 159.975 160.845 161.704 162.686 163.673 158.988 
159.838 160.668 161.664 162.626 163.654 164.578 158.038 158.85 159.61 
160.579 161.497 162.548 163.457 164.46 165.371 157.116 157.894 158.569 
159.474 160.308 161.363 162.285 163.328 164.268 165.309 166.399 156.217 
156.97 157.608 158.428 159.181 160.156 161.068 162.143 163.133 164.215 
165.285 166.428 167.572 155.357 156.08 156.712 157.487 158.201 159.075 
159.934 160.952 161.939 163.045 164.086 165.243 166.288 167.474 168.441 
154.599 155.252 155.855 156.593 157.266 158.1 158.883 159.843 160.745 
161.823 162.798 163.954 164.932 166.108 167.023 168.171 169.007 154.001 
154.555 155.112 155.76 156.373 157.142 157.85 158.757 159.563 160.59 
161.473 162.602 163.532 164.705 165.617 166.758 167.614 168.715 169.541 
153.9 154.078 154.305 154.963 154.272 154.494 155.187 155.43 156.192 
154.62 154.77 155.547 155.742 156.574 156.781 157.67 155.192 155.256 
156.094 156.235 157.144 157.287 158.215 158.391 159.376 155.852 155.907 
156.731 156.855 157.789 157.937 158.894 159.028 160.033 160.206 161.274 
156.471 156.573 157.412 157.516 158.465 158.615 159.652 159.783 160.859 
160.975 162.106 162.233 163.361 157.04 157.198 158.13 158.242 159.256 
159.376 160.512 160.638 161.83 161.92 163.122 163.192 164.368 164.411 
165.492 157.601 157.786 158.787 158.974 160.049 160.219 161.381 161.554 
162.769 162.919 164.128 164.24 165.416 165.475 166.57 166.546 167.526 
158.199 158.365 159.36 159.597 160.674 160.939 162.071 162.342 163.504 
163.758 164.92 165.139 166.294 166.459 167.581 167.634 168.66 168.576 
169.49 158.873 160.358 159.735 160.056 162.01 161.334 161.684 161.029 
161.41 163.869 163.131 163.575 162.804 163.223 162.483 162.879 166.026 
165.205 165.81 164.919 165.428 164.502 164.922 164.039 164.392 168.352 
167.526 168.212 167.318 167.923 166.924 167.383 166.306 166.64 165.609 
165.882 170.722 169.925 170.642 169.755 170.384 169.446 169.969 168.905 
169.253 168.065 168.296 167.145 167.337 173.237 172.454 173.399 172.383 
173.131 172.018 172.621 171.51 171.951 170.758 171.007 169.732 169.87 
168.627 168.705 175.732 175.117 176.358 175.421 176.425 175.148 175.859 
174.444 174.916 173.535 173.816 172.48 172.6 171.266 171.258 169.942 
169.843 177.749 177.457 178.711 178.225 179.306 178.44 179.199 177.892 
178.275 176.715 176.848 175.331 175.37 173.976 173.909 172.527 172.317 
170.95 170.68 158.466 158.332 158.901 159.93 158.087 158.757 159.834 
160.438 161.542 157.662 158.439 159.571 160.296 161.437 162.078 163.285 
157.206 157.979 159.146 159.961 161.176 161.927 163.199 163.916 165.321 
156.912 157.584 158.751 159.541 160.847 161.666 163.074 163.856 165.359 
166.106 167.637 156.799 157.38 158.539 159.239 160.594 161.412 162.957 
163.8 165.413 166.19 167.76 168.459 169.97 156.77 157.312 158.454 
159.1 160.441 161.235 162.815 163.718 165.403 166.255 167.838 168.566 
170.047 170.752 172.287 156.756 157.277 158.375 159.01 160.301 161.087 
162.602 163.536 165.2 166.164 167.777 168.599 170.061 170.782 172.246 
173.046 174.611 156.756 157.245 158.279 158.888 160.116 160.895 162.33 
163.252 164.823 165.837 167.444 168.42 169.929 170.749 172.162 172.94 
174.381 175.253 176.666 157.549 156.168 157.028 157.376 154.802 155.635 
155.913 156.795 157.081 153.42 154.217 154.401 155.265 155.442 156.376 
156.605 152.061 152.763 152.809 153.651 153.746 154.674 154.854 155.851 
156.136 150.799 151.38 151.287 152.015 152.052 152.942 153.128 154.113 
154.425 155.452 155.85 149.613 150.135 150.006 150.577 150.553 151.3 
151.473 152.412 152.744 153.773 154.202 155.254 155.734 148.515 149 
148.933 149.417 149.352 149.917 149.989 150.798 151.093 152.101 152.543 
153.616 154.129 155.197 155.719 147.636 148.021 148.019 148.446 148.395 
148.818 148.783 149.389 149.598 150.494 150.946 151.987 152.532 153.602 
154.166 155.216 155.745 147.07 147.307 147.326 147.653 147.645 147.96 
147.913 148.313 148.465 149.144 149.594 150.499 151.058 152.049 152.607 
153.653 154.214 155.255 155.777 146.883 146.76 146.874 147.081 146.691 
146.759 146.874 147.081 147.319 146.675 146.698 146.788 146.896 147.088 
147.303 147.582 146.851 146.789 146.98 146.956 147.235 147.258 147.617 
147.726 148.209 147.285 147.149 147.456 147.35 147.734 147.644 148.092 
148.042 148.59 148.648 149.354 147.861 147.699 148.037 147.931 148.32 
148.23 148.634 148.586 149.055 149.108 149.734 149.921 150.719 148.552 
148.324 148.653 148.528 148.919 148.818 149.182 149.087 149.444 149.458 
149.966 150.187 150.939 151.284 152.181 149.46 149.105 149.419 149.194 
149.625 149.476 149.935 149.742 150.147 149.944 150.437 150.444 151.225 
151.499 152.495 152.832 153.819 150.545 150.112 150.394 150.056 150.479 
150.274 150.824 150.634 151.181 150.887 151.448 151.201 151.996 152.013 
153.072 153.281 154.359 154.56 155.477 151.255 152.313 151.536 151.109 
153.581 152.694 152.295 151.487 151.194 155.131 154.128 153.769 152.823 
152.56 151.741 151.574 156.866 155.828 155.527 154.471 154.218 153.254 
153.079 152.22 152.016 158.686 157.648 157.434 156.351 156.126 155.049 
154.858 153.853 153.661 152.685 152.41 160.592 159.541 159.385 158.316 
158.15 157.044 156.864 155.755 155.606 154.517 154.365 153.235 153.068 
162.507 161.489 161.366 160.312 160.2 159.107 158.955 157.818 157.663 
156.559 156.484 155.379 155.332 154.151 154.139 164.349 163.4 163.35 
162.333 162.293 161.213 161.116 159.951 159.769 158.619 158.488 157.458 
157.425 156.406 156.386 155.3 155.311 166.171 165.266 165.307 164.339 
164.368 163.339 163.312 162.168 162.021 160.787 160.599 159.451 159.349 
158.355 158.306 157.356 157.295 156.335 156.3 157.083 158.088 157.911 
158.618 159.162 159.005 159.844 159.634 160.523 160.339 160.201 161.245 
161.045 162.119 161.807 162.835 161.694 161.535 162.74 162.588 163.826 
163.557 164.702 164.293 165.359 163.13 162.992 164.213 164.119 165.419 
165.277 166.528 166.223 167.385 166.93 168.001 164.419 164.386 165.574 
165.539 166.839 166.812 168.189 168.047 169.382 169.026 170.213 169.644 
170.597 165.495 165.573 166.813 166.848 168.215 168.241 169.767 169.742 
171.275 171.057 172.386 171.898 172.919 172.187 172.933 166.437 166.596 
167.931 168.07 169.558 169.668 171.312 171.385 173.023 172.937 174.328 
173.994 175.058 174.47 175.276 174.471 175.141 167.279 167.505 168.884 
169.151 170.703 170.971 172.643 172.875 174.504 174.58 175.942 175.775 
176.826 176.443 177.283 176.703 177.417 176.659 177.311 149.703 149.372 
149.256 148.733 149.126 148.929 148.388 148.309 147.921 149.079 148.736 
148.128 147.976 147.61 147.633 147.472 149.277 148.824 148.151 147.797 
147.358 147.321 147.187 147.315 147.273 149.476 149.105 148.507 148.006 
147.47 147.176 146.96 147.008 146.99 147.127 147.072 149.488 149.247 
148.762 148.393 147.852 147.431 147.071 146.895 146.827 146.874 146.876 
146.937 146.897 149.565 149.247 148.764 148.519 148.023 147.726 147.281 
147.047 146.851 146.807 146.801 146.822 146.812 146.826 146.821 149.93 
149.438 148.903 148.546 148.088 147.809 147.4 147.169 146.895 146.811 
146.737 146.771 146.76 146.78 146.744 146.772 146.781 150.447 149.892 
149.338 148.841 148.409 148.012 147.692 147.358 147.113 146.881 146.756 
146.696 146.677 146.707 146.699 146.716 146.709 146.747 146.806 149.752 
148.793 149.364 149.636 147.979 148.427 148.693 149.33 149.749 147.543 
147.763 147.957 148.439 148.874 149.547 150.044 147.368 147.482 147.629 
147.885 148.294 148.801 149.38 149.95 150.454 147.155 147.306 147.446 
147.656 148.044 148.426 149.063 149.509 150.118 150.494 150.972 146.964 
147.087 147.231 147.439 147.796 148.191 148.83 149.319 149.976 150.328 
150.797 151.065 151.452 146.928 146.999 147.203 147.312 147.653 147.928 
148.506 149.013 149.684 150.158 150.623 150.908 151.206 151.482 151.825 
146.935 147.033 147.331 147.431 147.822 147.936 148.442 148.737 149.373 
149.814 150.357 150.691 151.024 151.253 151.572 151.867 152.301 146.961 
147.057 147.4 147.577 148.037 148.184 148.67 148.815 149.363 149.627 
150.202 150.492 150.944 151.142 151.517 151.716 152.162 152.451 152.971 
150.356 150.266 150.599 151.27 150.411 150.623 151.268 151.583 152.357 
150.686 150.851 151.492 151.697 152.441 152.785 153.675 150.975 151.112 
151.741 151.955 152.688 152.969 153.825 154.186 155.073 151.368 151.41 
151.976 152.169 152.884 153.189 154.015 154.369 155.223 155.565 156.388 
151.835 151.843 152.369 152.46 153.128 153.359 154.159 154.509 155.364 
155.723 156.567 156.89 157.73 152.261 152.301 152.864 152.924 153.585 
153.698 154.467 154.696 155.555 155.873 156.752 157.087 157.948 158.268 
159.09 152.763 152.764 153.382 153.441 154.145 154.228 154.997 155.123 
155.952 156.155 157.007 157.286 158.121 158.449 159.237 159.558 160.273 
153.419 153.36 153.986 154.006 154.724 154.803 155.573 155.684 156.474 
156.615 157.402 157.59 158.366 158.618 159.377 159.67 160.387 160.668 
161.329 157.383 156.731 156.679 155.986 156.153 156.029 155.249 155.257 
154.607 155.648 155.489 154.656 154.54 153.827 153.886 153.285 155.113 
155.011 154.234 154.038 153.289 153.193 152.61 152.642 152.077 154.489 
154.464 153.805 153.676 152.979 152.788 152.174 152.093 151.569 151.52 
150.925 153.95 153.884 153.315 153.261 152.677 152.523 151.895 151.739 
151.159 151.072 150.471 150.372 149.724 153.645 153.474 152.936 152.844 
152.341 152.227 151.648 151.47 150.86 150.706 150.102 149.954 149.305 
149.174 148.577 153.461 153.251 152.687 152.544 152.045 151.933 151.406 
151.234 150.649 150.452 149.887 149.69 149.118 148.88 148.303 148.132 
147.685 153.274 153.062 152.47 152.306 151.797 151.679 151.2 151.038 
150.493 150.275 149.721 149.53 149.026 148.811 148.308 148.038 147.59 
147.408 147.122 
POINT_DATA 1002
SCALARS Distance double
LOOKUP_TABLE default
151.992 150.994 151.825 152.887 152.634 153.109 153.778 153.496 154.128 
154.5 154.836 154.604 155.239 155.685 156.141 156.181 155.927 156.541 
156.936 157.355 157.867 157.567 157.227 157.93 158.23 158.559 159.094 
159.704 158.756 158.419 159.164 159.525 159.835 160.377 161.087 161.64 
159.859 159.551 160.272 160.793 161.266 161.794 162.491 163.094 163.486 
160.995 160.617 161.441 162.043 162.689 163.265 163.865 164.449 164.887 
165.241 162.088 161.588 162.632 163.255 163.921 164.54 165.128 165.707 
166.215 166.641 167.035 150.486 151.305 149.977 150.778 149.711 152.163 
150.508 149.732 151.745 153.176 150.536 149.711 151.546 152.923 154.397 
150.55 149.505 151.531 152.742 154.175 155.698 150.411 149.385 151.444 
152.611 153.976 155.458 157.004 150.378 149.518 151.313 152.472 153.887 
155.353 156.836 158.293 150.599 149.807 151.435 152.477 153.871 155.383 
156.792 158.167 159.468 150.925 150.138 151.796 152.767 153.973 155.387 
156.767 158.049 159.303 160.49 150.981 151.925 151.966 153.137 153.188 
153.022 154.504 154.588 154.415 154.166 155.859 155.913 155.801 155.597 
155.414 157.16 157.192 157.178 157.04 156.827 156.768 158.555 158.583 
158.612 158.608 158.404 158.197 158.11 159.961 159.884 160.034 160.109 
160.046 159.82 159.575 159.409 161.169 160.948 161.358 161.475 161.487 
161.388 161.171 160.893 160.665 162.245 161.97 162.595 162.859 162.907 
162.825 162.708 162.477 162.151 161.852 162.93 163.316 164.455 163.747 
164.978 166.065 164.097 165.507 166.75 167.863 164.261 165.807 167.333 
168.738 170.055 164.412 165.954 167.57 169.351 171.014 172.36 164.511 
166.165 167.721 169.576 171.606 173.221 174.421 164.258 166.11 167.833 
169.677 171.841 173.762 175.198 176.49 163.755 165.603 167.526 169.526 
171.805 173.998 175.72 177.228 178.735 163.348 165.057 166.949 168.981 
171.323 173.797 175.912 177.65 179.283 180.767 163.594 165.205 164.292 
166.892 165.979 164.983 168.988 167.924 166.799 165.656 171.46 170.431 
169.159 167.702 166.356 173.74 172.923 171.85 170.334 168.633 167.081 
175.949 175.161 174.204 172.932 171.277 169.466 167.738 178.447 177.715 
176.664 175.402 173.864 172.07 170.153 168.288 180.804 180.333 179.396 
178.16 176.617 174.763 172.755 170.712 168.759 182.551 182.487 183.87 
183.443 184.856 181.835 183.871 185.626 182.517 180.824 184.101 185.465 
182.625 181.517 179.49 183.801 184.061 182.619 181.535 180.127 177.591 
182.794 182.467 182.305 181.245 179.995 177.968 175.292 181.484 181.28 
181.332 180.567 179.425 177.748 175.418 172.94 179.985 179.918 179.841 
179.333 178.471 177.112 175.12 172.837 170.658 178.138 177.987 178.088 
177.769 177.147 176.069 174.388 172.367 170.376 168.567 181.543 183.193 
181.898 183.365 181.771 184.634 183.023 181.11 184.94 186.107 182.124 
179.9 184.399 186.423 186.779 180.648 178.192 183.002 185.27 186.311 
185.475 178.633 176.141 180.984 183.202 184.691 184.453 183.304 176.325 
174.018 178.565 180.663 182.594 183.386 182.778 181.93 174.06 172.061 
176.074 177.905 179.834 181.555 182.134 181.663 180.86 172.022 170.364 
173.76 175.32 176.836 178.515 179.889 180.355 179.962 179.069 162.655 
164.307 163.66 165.496 164.684 166.176 166.548 165.454 167.44 168.17 
167.531 166.337 168.688 169.592 170.475 168.874 167.596 170.14 171.206 
172.206 173.198 170.22 168.698 171.699 172.971 174.124 175.216 175.889 
171.005 169.326 172.778 174.445 175.941 177.239 178.046 178.121 171.5 
169.811 173.422 175.421 177.284 178.843 179.889 180.243 179.969 161.071 
161.721 160.104 160.713 159.11 162.68 159.693 158.165 161.601 163.601 
158.694 157.26 160.448 162.447 164.327 157.732 156.359 159.284 161.197 
163.215 165.267 156.825 155.471 158.272 159.99 162.02 164.168 166.424 
155.948 154.655 157.368 158.968 160.849 162.951 165.141 167.302 155.157 
153.988 156.465 157.969 159.716 161.674 163.774 165.884 167.886 154.523 