# vtk DataFile Version 4.0
vtk output
ASCII
DATASET POLYDATA
POINTS 1002 float
-102.768 -79.9562 78.8532 -102.745 -79.2754 77.7577 -103.116 -79.036 78.7078 
-103.183 -79.8464 79.7942 -103.586 -78.9572 79.637 -102.889 -80.8734 79.9921 
-103.727 -79.9803 80.6622 -104.281 -79.1473 80.3828 -103.335 -80.906 81.0346 
-102.955 -81.8029 81.4748 -104.573 -80.3365 81.4251 -105.198 -79.4997 81.1027 
-103.994 -81.1244 81.997 -103.487 -81.9236 82.6429 -103.056 -82.7687 83.146 
-105.541 -80.6374 82.3325 -106.074 -79.8001 82.0161 -104.94 -81.4007 82.8858 
-104.357 -82.19 83.5415 -103.86 -83.0943 84.0946 -103.555 -84.0973 84.4916 
-106.349 -80.835 83.3825 -106.839 -80.0642 82.9635 -105.832 -81.6281 83.898 
-105.334 -82.5128 84.3653 -104.906 -83.576 84.7533 -104.579 -84.6614 85.1778 
-104.406 -85.6601 85.6147 -107.183 -81.1834 84.2725 -107.682 -80.3972 83.7912 
-106.649 -82.0345 84.8609 -106.15 -82.9495 85.3537 -105.793 -84.0419 85.658 
-105.538 -85.2217 86.0028 -105.329 -86.2505 86.4721 -105.197 -87.1368 86.9139 
-108.11 -81.6926 85.0523 -108.501 -80.7837 84.6238 -107.633 -82.6552 85.6077 
-107.072 -83.5825 86.2175 -106.607 -84.5356 86.7271 -106.351 -85.6317 87.1429 
-106.161 -86.7622 87.5625 -105.98 -87.7622 87.9467 -105.86 -88.6624 88.2691 
-108.814 -82.2006 85.914 -109.083 -81.2209 85.5004 -108.512 -83.2103 86.3774 
-108.076 -84.1731 86.9202 -107.567 -85.0961 87.5197 -107.221 -86.1002 88.0735 
-107.039 -87.2591 88.524 -106.861 -88.4231 88.8794 -106.686 -89.4378 89.172 
-106.552 -90.3264 89.4597 -109.273 -82.6594 86.779 -109.51 -81.7094 86.312 
-109.07 -83.6243 87.2356 -108.81 -84.5978 87.6942 -108.429 -85.6186 88.2094 
-108.074 -86.7071 88.7384 -107.877 -87.9004 89.1853 -107.749 -89.1423 89.5553 
-107.597 -90.2498 89.8898 -107.427 -91.1586 90.2035 -107.26 -91.9475 90.5033 
-103.11 -78.6341 77.0519 -103.558 -78.3911 78.1107 -103.717 -78.0983 76.1451 
-104.255 -77.875 77.2598 -104.445 -77.4982 75.2793 -104.113 -78.2503 79.1467 
-104.951 -77.2531 76.4429 -105.046 -76.7014 74.7301 -104.791 -77.6287 78.4426 
-104.846 -78.3075 80.0097 -105.503 -76.4238 75.9665 -105.64 -75.8372 74.3696 
-105.399 -76.9597 77.7642 -105.428 -77.4855 79.536 -105.72 -78.5526 80.8671 
-106.229 -75.6364 75.5734 -106.597 -75.2121 73.8589 -106.047 -76.2543 77.2827 
-106.045 -76.7314 79.0183 -106.255 -77.6036 80.562 -106.571 -78.9223 81.7997 
-107.245 -75.1329 74.9182 -107.737 -74.878 73.2547 -106.949 -75.7016 76.72 
-106.89 -76.1188 78.5157 -106.962 -76.7617 80.1358 -107.157 -78.057 81.4942 
-107.416 -79.3517 82.6756 -108.192 -74.7153 74.2866 -108.6 -74.4892 72.8713 
-107.896 -75.2903 75.9963 -107.837 -75.724 77.9492 -107.83 -76.1174 79.711 
-107.851 -77.2165 81.1265 -108.03 -78.6166 82.3773 -108.286 -79.7099 83.5427 
-108.959 -74.1585 73.9949 -109.219 -73.9159 72.7217 -108.723 -74.774 75.4629 
-108.663 -75.3884 77.3746 -108.657 -75.7359 79.3127 -108.59 -76.5021 80.8225 
-108.637 -77.8231 82.0982 -108.839 -78.9919 83.3348 -109.007 -80.0219 84.4691 
-109.699 -73.7013 73.8535 -109.835 -73.4861 72.567 -109.544 -74.2383 75.1911 
-109.459 -74.9574 76.9176 -109.442 -75.4664 78.8783 -109.393 -76.0365 80.521 
-109.351 -77.1101 81.8314 -109.416 -78.2928 83.1057 -109.506 -79.317 84.305 
-109.523 -80.4546 85.3541 -110.447 -73.5896 73.1522 -110.386 -73.9122 74.5842 
-110.99 -74.1926 73.8056 -111.065 -74.5696 75.5246 -111.443 -75.0007 74.8786 
-110.334 -74.5244 76.2317 -111.733 -75.4505 76.8106 -112.184 -75.8017 76.3084 
-111.147 -75.1444 77.4774 -110.305 -75.1844 78.2101 -112.519 -76.3689 78.0743 
-113.214 -76.6449 77.4349 -111.888 -76.0496 78.7644 -111.196 -75.761 79.4548 
-110.304 -75.7742 80.0762 -113.228 -77.2255 78.9922 -113.898 -77.5488 78.2564 
-112.491 -77.062 79.8367 -111.938 -76.7654 80.5483 -111.254 -76.5574 81.1235 
-110.281 -76.6904 81.5642 -113.675 -78.1573 80.0905 -114.013 -78.6396 79.5064 
-113.045 -77.9996 80.8897 -112.486 -77.9018 81.6231 -111.983 -77.7279 82.2006 
-111.196 -77.6764 82.6642 -110.219 -77.8778 82.9719 -113.969 -79.4781 81.6924 
-113.937 -80.0381 81.1636 -113.71 -79.094 82.3218 -113.198 -78.9286 82.9264 
-112.585 -78.866 83.4532 -111.858 -78.8279 83.8999 -110.978 -78.8342 84.2081 
-110.141 -78.9834 84.3273 -114.182 -81.0347 83.2529 -113.961 -81.4831 82.6141 
-114.268 -80.5377 83.8629 -114.007 -80.0951 84.3834 -113.367 -79.8527 84.8254 
-112.527 -79.8455 85.1884 -111.634 -79.9193 85.4293 -110.779 -79.9909 85.5123 
-110.063 -80.1556 85.469 -114.326 -82.4178 84.3881 -114.089 -82.7182 83.6987 
-114.514 -82.0221 85.0201 -114.439 -81.5161 85.5701 -113.981 -81.0447 86.044 
-113.234 -80.8439 86.3803 -112.373 -80.9264 86.5576 -111.505 -81.0909 86.6113 
-110.692 -81.2539 86.5716 -110.013 -81.4587 86.4677 -109.844 -82.8051 87.3928 
-110.497 -82.6109 87.5668 -110.354 -83.9595 88.4985 -111.298 -82.4298 87.6569 
-111.074 -83.8659 88.6908 -110.885 -85.4748 89.5482 -112.126 -82.2845 87.6524 
-111.791 -83.8698 88.7208 -111.467 -85.5944 89.7616 -111.276 -87.491 90.666 
-112.91 -82.2023 87.5766 -112.472 -83.9922 88.6113 -112.041 -85.8803 89.7294 
-111.814 -87.7102 90.9163 -111.698 -89.4878 91.9669 -113.612 -82.3104 87.3568 
-113.111 -84.1378 88.4663 -112.722 -86.1806 89.5922 -112.546 -87.9851 90.895 
-112.42 -89.6647 92.1511 -112.153 -91.5594 93.0759 -114.188 -82.6792 86.8732 
-113.685 -84.311 88.0858 -113.366 -86.3042 89.3981 -113.346 -88.1772 90.8426 
-113.249 -89.9186 92.1094 -112.795 -91.9983 92.9902 -112.324 -94.5963 93.6053 
-114.525 -83.1322 86.282 -114.199 -84.56 87.4317 -113.872 -86.3754 88.8148 
-113.848 -88.2973 90.5587 -113.839 -90.2532 92.0823 -113.333 -92.5616 92.8703 
-112.612 -95.3727 93.284 -112.372 -98.378 93.7962 -114.538 -83.4964 85.736 
-114.499 -84.8465 86.9143 -114.265 -86.5673 88.1283 -114.106 -88.4869 89.7797 
-114.066 -90.5837 91.6485 -113.728 -93.0784 92.8252 -112.989 -95.9782 93.1831 
-112.522 -99.0165 93.4638 -112.739 -101.796 94.005 -114.346 -83.7708 85.1337 
-114.471 -85.1275 86.5493 -114.412 -86.8659 87.8003 -114.273 -88.7717 89.0878 
-114.171 -90.8027 90.7452 -113.991 -93.271 92.3365 -113.518 -96.1791 93.1549 
-113.012 -99.1875 93.4235 -112.978 -102.014 93.7441 -113.413 -104.4 94.204 
-109.616 -83.7859 87.9361 -110.118 -85.1566 89.0483 -109.407 -84.8509 88.4313 
-110.643 -87.1169 90.1477 -109.854 -86.6157 89.6233 -109.13 -86.0723 88.9586 
-111.074 -89.2816 91.4492 -110.345 -88.8464 90.9156 -109.542 -88.1454 90.3571 
-108.81 -87.3898 89.5294 -111.497 -91.3379 92.7939 -110.808 -90.9478 92.265 
-110.058 -90.312 91.7994 -109.29 -89.5481 91.0393 -108.588 -88.7312 89.9934 
-111.889 -94.2525 93.707 -111.273 -93.647 93.3375 -110.615 -92.7584 92.8969 
-109.907 -91.8175 92.4154 -109.161 -90.9789 91.4542 -108.477 -90.093 90.3485 
-112.256 -98.2579 94.1881 -111.816 -97.7365 94.1356 -111.18 -96.6656 93.679 
-110.576 -95.1459 93.2716 -109.861 -93.6428 92.7367 -109.095 -92.4224 91.762 
-108.383 -91.3224 90.7098 -112.808 -102.06 94.5042 -112.535 -101.925 94.8063 
-111.839 -101.244 94.5778 -111.183 -99.7472 94.0346 -110.591 -97.5279 93.553 
-109.808 -95.3131 92.969 -109.009 -93.6107 92.0589 -108.247 -92.2997 91.0606 
-113.511 -104.892 94.6521 -113.329 -104.966 95.1225 -112.616 -104.682 95.303 
-111.791 -103.837 94.9653 -111.207 -101.95 94.3225 -110.534 -99.1978 93.7333 
-109.67 -96.5377 93.1137 -108.852 -94.554 92.2731 -108.063 -93.1184 91.3505 
-114.13 -107.026 94.4 -114.042 -107.281 94.7834 -114.42 -109.536 94.0559 
-114.005 -109.367 94.2645 -114.266 -111.945 93.1486 -113.474 -107.064 95.2086 
-113.69 -111.42 93.2209 -114.18 -114.162 92.0251 -113.216 -108.871 94.6187 
-112.539 -106.662 95.4033 -113.514 -113.346 92.1486 -114.146 -115.759 91.0158 
-112.967 -110.777 93.533 -112.427 -108.384 94.8443 -111.8 -105.661 95.0397 
-113.183 -114.488 91.3955 -113.606 -116.165 90.2643 -112.757 -112.343 92.5126 
-112.367 -109.979 93.8366 -111.815 -107.072 94.5934 -111.167 -103.326 94.3402 
-112.529 -114.452 90.9621 -112.716 -115.387 89.8521 -112.337 -112.835 91.9121 
-112.148 -110.773 92.9677 -111.705 -107.977 93.9181 -110.984 -104.24 94.1046 
-110.267 -100.097 93.7124 -111.962 -113.496 90.7447 -112.06 -113.908 89.834 
-111.876 -112.286 91.6393 -111.785 -110.45 92.4993 -111.471 -107.933 93.3818 
-110.76 -104.576 93.8067 -109.936 -100.696 93.5916 -109.308 -97.1616 93.0451 
-111.58 -111.842 90.7477 -111.662 -111.915 90.1611 -111.494 -110.97 91.5271 
-111.374 -109.373 92.2946 -111.117 -107.102 93.0219 -110.528 -104.182 93.4799 
-109.681 -100.842 93.4008 -108.938 -97.6185 92.9181 -108.44 -95.0281 92.2065 
-111.142 -109.527 90.9268 -111.228 -109.399 90.6002 -111.036 -108.94 91.5163 
-110.861 -107.703 92.1872 -110.568 -105.853 92.7665 -110.078 -103.376 93.1097 
-109.356 -100.52 93.0763 -108.589 -97.7458 92.7009 -108.002 -95.386 92.0962 
-107.595 -93.4961 91.3228 -113.879 -105.219 94.0423 -114.497 -108.122 93.9713 
-114.379 -105.689 93.7515 -114.811 -108.787 93.3149 -114.571 -105.752 93.246 
-114.634 -111.108 93.316 -114.899 -108.782 92.5068 -114.314 -105.323 92.7363 
-114.801 -112.048 92.3688 -114.54 -113.966 92.1998 -114.712 -108.067 91.9693 
-113.904 -104.287 92.3892 -114.813 -111.957 91.4591 -114.705 -115.031 91.1035 
-114.665 -116.251 90.9159 -114.338 -106.715 91.8277 -113.517 -102.66 92.022 
-114.644 -110.906 91.1153 -114.596 -114.539 90.2852 -114.778 -116.855 89.7048 
-114.551 -117.242 89.7127 -113.713 -104.667 91.7363 -113.072 -100.603 91.4472 
-114.273 -109.052 91.3085 -114.379 -112.726 90.2938 -114.507 -115.405 89.1367 
-114.455 -116.81 88.5546 -113.699 -116.619 88.9401 -112.961 -101.92 91.3426 
-112.688 -98.3684 90.5825 -113.558 -106.214 91.5074 -114.002 -110.037 90.8823 
-114.192 -112.754 89.6555 -114.126 -114.586 88.5093 -113.543 -115.366 88.2348 
-112.691 -114.994 88.8795 -112.475 -98.9921 90.4245 -112.497 -96.3017 89.4109 
-112.772 -102.592 91.1755 -113.262 -106.425 91.2945 -113.653 -109.541 90.6335 
-113.742 -111.714 89.5546 -113.369 -113.014 88.8064 -112.683 -113.364 88.8404 
-112.074 -112.925 89.434 -112.316 -96.5619 89.077 -112.361 -94.6294 88.1121 
-112.35 -99.1649 90.1004 -112.54 -102.368 90.8839 -112.831 -105.616 91.0682 
[...]
CELL_DATA 2000
SCALARS Distance double
LOOKUP_TABLE default
150.803 151.5 151.353 151.846 152.371 152.141 152.667 152.518 153.104 
153.47 153.144 153.704 153.457 154.09 153.886 154.524 154.702 154.351 
154.934 154.612 155.259 154.984 155.671 155.415 156.142 155.897 155.59 
156.181 155.875 156.512 156.218 156.921 156.649 157.424 157.172 158.018 
157.079 156.781 157.41 157.117 157.786 157.488 158.212 157.939 158.751 
158.507 159.38 159.142 160.028 158.304 158.012 158.708 158.404 159.137 
158.813 159.57 159.267 160.1 159.856 160.758 160.525 161.421 161.163 
162.032 159.461 159.241 159.968 159.726 160.476 160.191 160.94 160.644 
161.449 161.208 162.104 161.898 162.817 162.573 163.455 163.172 164.03 
160.48 160.335 161.049 160.901 161.629 161.445 162.17 161.95 162.718 
162.512 163.372 163.205 164.126 163.944 164.845 164.6 165.453 165.165 
165.983 150.341 149.97 150.433 151.042 149.706 150.136 150.766 151.209 
151.897 149.453 149.896 150.534 150.974 151.657 152.136 152.937 149.205 
149.631 150.268 150.728 151.406 151.895 152.684 153.247 154.13 149.146 
149.443 150.097 150.496 151.193 151.643 152.431 152.984 153.882 154.466 
155.344 149.347 149.498 150.139 150.441 151.174 151.526 152.313 152.767 
153.675 154.237 155.165 155.689 156.54 149.597 149.714 150.272 150.545 
151.29 151.617 152.402 152.745 153.601 154.076 155.021 155.549 156.443 
156.911 157.743 149.753 149.891 150.391 150.654 151.389 151.753 152.566 
152.888 153.685 154.054 154.937 155.429 156.337 156.824 157.65 158.1 
158.881 149.919 150.048 150.581 150.786 151.518 151.86 152.716 153.059 
153.874 154.177 154.999 155.39 156.274 156.73 157.564 157.998 158.754 
159.187 159.912 150.233 151.146 150.762 150.981 152.319 151.839 152.132 
151.657 151.99 153.79 153.192 153.572 152.991 153.354 152.828 153.213 
155.448 154.796 155.172 154.546 154.91 154.3 154.641 154.08 154.398 
156.925 156.373 156.667 156.119 156.461 155.878 156.211 155.584 155.88 
155.255 155.553 158.225 157.721 158.031 157.529 157.908 157.387 157.778 
157.184 157.522 156.845 157.138 156.471 156.802 159.681 159.131 159.607 
159.011 159.506 158.904 159.376 158.771 159.168 158.513 158.809 158.111 
158.372 157.729 158.036 161.233 160.747 161.365 160.777 161.347 160.672 
161.147 160.453 160.839 160.16 160.457 159.761 159.987 159.295 159.526 
158.909 159.194 162.603 162.268 162.897 162.482 163.019 162.474 162.868 
162.216 162.508 161.825 162.076 161.388 161.609 160.905 161.113 160.426 
160.665 160.05 160.334 161.165 161.548 161.763 162.625 162.018 162.213 
163.117 163.313 164.242 162.507 162.708 163.613 163.827 164.777 164.995 
166.016 162.974 163.184 164.082 164.311 165.269 165.522 166.577 166.853 
167.975 163.413 163.628 164.516 164.76 165.746 166.026 167.133 167.432 
168.605 168.873 170.01 163.769 164.023 164.856 165.135 166.113 166.48 
167.645 168.018 169.231 169.52 170.653 170.876 171.993 163.927 164.283 
165.06 165.38 166.273 166.726 167.881 168.433 169.698 170.124 171.251 
171.493 172.535 172.814 174.026 163.817 164.309 165.107 165.502 166.345 
166.795 167.858 168.49 169.763 170.42 171.635 172.042 173.074 173.328 
174.437 174.856 176.207 163.507 164.091 164.953 165.477 166.378 166.851 
167.852 168.41 169.584 170.305 171.573 172.248 173.396 173.818 174.886 
175.252 176.475 177.011 178.351 161.256 162.693 161.922 161.86 164.313 
163.452 163.381 162.56 162.477 166.165 165.215 165.198 164.224 164.148 
163.221 163.098 168.183 167.209 167.287 166.224 166.2 165.096 164.986 
163.913 163.753 170.22 169.289 169.407 168.378 168.402 167.287 167.204 
166.006 165.837 164.655 164.48 172.33 171.422 171.653 170.568 170.65 
169.514 169.502 168.307 168.17 166.897 166.694 165.458 165.271 174.641 
173.765 174.327 173.12 173.405 172.018 172.13 170.749 170.719 169.335 
169.152 167.784 167.545 166.267 166.023 177.024 176.289 177.168 176.082 
176.624 175.152 175.377 173.74 173.753 172.113 171.926 170.35 170.041 
168.603 168.274 166.971 166.646 179.172 178.65 179.576 178.831 179.433 
178.314 178.553 177.088 177.045 175.347 175.054 173.275 172.818 171.161 
170.694 169.244 168.826 167.53 167.154 180.54 182.324 181.33 180.889 
183.428 182.735 182.251 181.4 180.69 184.138 183.513 182.932 182.365 
181.727 180.904 179.887 184.717 184.102 183.419 182.875 182.288 181.708 
180.859 179.862 178.485 184.769 184.477 183.74 183.296 182.665 182.2 
181.41 180.65 179.313 178.147 176.414 183.999 184.16 183.485 183.356 
182.649 182.401 181.548 181.021 179.651 178.704 176.88 175.757 173.942 
182.797 183.19 182.673 182.807 182.093 182.064 181.147 180.878 179.508 
178.807 176.968 175.988 174.103 173.18 171.59 181.497 181.98 181.542 
181.841 181.14 181.258 180.293 180.21 178.877 178.443 176.695 175.919 
174.053 173.216 171.592 170.888 169.574 180 180.594 180.087 180.553 
179.811 180.099 179.095 179.171 177.86 177.648 176.013 175.493 173.721 
173.055 171.444 170.816 169.481 168.942 167.819 180.574 181.164 181.484 
182.444 181.359 181.931 182.977 183.17 183.745 180.981 181.861 183.007 
183.551 184.35 184.349 184.66 180.139 181.247 182.449 183.33 184.319 
184.794 185.389 185.254 185.348 178.966 180.261 181.506 182.588 183.591 
184.443 185.158 185.628 185.832 185.686 185.347 177.377 178.889 180.175 
181.499 182.456 183.467 184.038 184.877 185.043 185.527 185.135 185.1 
184.361 175.384 177.001 178.196 179.859 180.837 182.109 182.569 183.485 
183.528 184.246 183.895 184.301 183.612 183.707 182.953 173.286 174.775 
175.697 177.5 178.43 180.102 180.637 181.829 181.897 182.678 182.423 
182.923 182.426 182.71 182.096 182.243 181.605 171.374 172.608 173.232 
174.829 175.566 177.362 177.944 179.545 179.761 180.919 180.788 181.512 
181.136 181.552 181.028 181.288 180.686 180.855 180.155 163.572 164.267 
164.313 165.11 165.138 165.146 166.068 165.985 166.73 166.078 166.114 
167.16 167.105 167.998 167.704 168.354 167.056 167.115 168.277 168.287 
169.329 169.095 169.86 169.413 170.085 168.127 168.187 169.45 169.48 
170.649 170.489 171.389 170.994 171.755 171.293 172.06 169.144 169.292 
170.578 170.676 171.891 171.834 172.84 172.554 173.423 173.016 173.853 
173.357 174.02 169.871 170.176 171.413 171.667 172.862 172.989 174.072 
173.98 174.968 174.695 175.64 175.203 175.965 175.277 175.72 170.343 
170.741 171.972 172.34 173.59 173.859 175.086 175.173 176.336 176.223 
177.316 177.006 177.931 177.327 177.946 177.028 177.416 170.737 171.157 
172.47 172.887 174.31 174.646 176.096 176.267 177.627 177.608 178.827 
178.647 179.694 179.287 180.072 179.336 179.856 178.855 179.252 162.722 
161.653 162.559 163.363 160.634 161.532 162.353 163.279 164.174 159.579 
160.521 161.369 162.303 163.188 164.133 165.062 158.493 159.448 160.297 
161.277 162.148 163.126 164.008 164.999 165.956 157.504 158.398 159.217 
160.161 160.974 161.981 162.828 163.878 164.793 165.88 166.92 156.587 
157.435 158.207 159.095 159.835 160.769 161.557 162.609 163.502 164.637 
165.633 166.829 167.888 155.705 156.481 157.183 158.061 158.771 159.657 
160.392 161.358 162.201 163.294 164.233 165.437 166.436 167.691 168.642 
154.964 155.595 156.203 157.015 157.712 158.59 159.321 160.237 161.026 
162.025 162.875 163.991 164.901 166.142 167.07 168.315 169.147 154.397 
154.891 155.399 156.081 156.734 157.554 158.287 159.176 159.942 160.876 
161.652 162.653 163.46 164.593 165.47 166.707 167.577 168.772 169.548 
154.243 154.313 154.558 155.22 154.487 154.69 155.409 155.694 156.526 
154.806 154.934 155.673 155.944 156.851 157.148 158.089 155.286 155.339 
156.088 156.294 157.265 157.551 158.572 158.813 159.777 155.886 155.913 
156.698 156.819 157.813 158.053 159.119 159.353 160.352 160.536 161.477 
156.515 156.582 157.41 157.499 158.458 158.651 159.692 159.921 160.93 
161.128 162.105 162.27 163.253 157.123 157.242 158.123 158.224 159.165 
159.309 160.318 160.509 161.549 161.742 162.808 162.973 164.064 164.179 
165.263 157.743 157.881 158.825 158.948 159.939 160.055 161.111 161.231 
162.357 162.485 163.682 163.811 165.033 165.12 166.287 166.315 167.393 
158.406 158.537 159.511 159.661 160.704 160.859 161.993 162.13 163.35 
163.458 164.741 164.837 166.131 166.197 167.406 167.409 168.486 168.441 
169.402 159.103 160.599 159.973 160.25 162.316 161.6 161.951 161.227 
161.531 164.379 163.533 163.991 163.125 163.531 162.661 162.969 166.735 
165.829 166.38 165.388 165.865 164.874 165.279 164.243 164.488 169.239 
168.342 169.011 167.955 168.466 167.369 167.816 166.718 167.04 165.846 
165.992 171.967 171.038 171.93 170.799 171.457 170.179 170.669 169.402 
169.771 168.507 168.689 167.369 167.412 174.814 173.948 175.046 173.955 
174.844 173.474 174.091 172.561 172.95 171.425 171.602 170.131 170.126 
168.728 168.656 177.291 176.687 177.766 176.989 177.923 176.866 177.553 
176.145 176.533 174.867 174.977 173.238 173.135 171.496 171.301 169.86 
169.687 179.1 178.781 179.665 179.254 180.013 179.458 180.057 179.207 
179.563 178.296 178.363 176.71 176.506 174.671 174.311 172.581 172.236 
170.783 170.543 158.682 158.501 159.1 160.148 158.251 158.901 159.971 
160.619 161.786 157.865 158.587 159.666 160.4 161.619 162.357 163.733 
157.361 158.138 159.257 160.063 161.343 162.165 163.612 164.442 165.994 
156.864 157.632 158.816 159.664 161.037 161.911 163.426 164.305 165.912 
166.77 168.408 156.49 157.201 158.407 159.255 160.69 161.625 163.214 
164.141 165.792 166.684 168.382 169.248 171.007 156.21 156.886 158.068 
158.879 160.285 161.249 162.848 163.878 165.566 166.553 168.283 169.22 
171.022 171.943 173.767 155.954 156.616 157.777 158.553 159.898 160.819 
162.355 163.42 165.104 166.22 167.968 169.044 170.828 171.869 173.666 
174.644 176.293 155.754 156.37 157.517 158.261 159.567 160.428 161.887 
162.894 164.523 165.668 167.413 168.596 170.356 171.512 173.24 174.353 
175.961 176.924 178.242 157.717 156.235 157.141 157.506 154.917 155.694 
156.02 156.927 157.272 153.807 154.454 154.68 155.47 155.75 156.645 
156.902 152.699 153.312 153.38 154.102 154.227 155.086 155.261 156.182 
156.368 151.516 152.099 152.018 152.687 152.654 153.473 153.546 154.476 
154.631 155.602 155.827 150.372 150.885 150.759 151.31 151.231 151.906 
151.942 152.764 152.914 153.852 154.103 155.108 155.434 149.308 149.768 
149.649 150.127 150.087 150.639 150.713 151.341 151.484 152.235 152.473 
153.403 153.743 154.77 155.151 148.38 148.757 148.621 149.053 149.019 
149.573 149.702 150.289 150.433 151 151.149 151.871 152.155 153.097 
153.484 154.511 154.908 147.729 147.96 147.824 148.108 148.053 148.531 
148.692 149.308 149.512 150.05 150.151 150.684 150.865 151.614 151.986 
152.913 153.354 154.322 154.752 147.492 147.253 147.395 147.495 147.074 
147.171 147.226 147.409 147.682 146.888 147.026 147.186 147.289 147.594 
147.805 148.336 146.768 146.897 147.179 147.329 147.673 147.834 148.291 
148.583 149.142 146.988 146.945 147.222 147.327 147.621 147.815 148.138 
148.452 148.875 149.274 149.744 147.606 147.393 147.624 147.496 147.69 
147.71 147.964 148.198 148.628 148.991 149.538 149.892 150.48 148.377 
148.124 148.364 148.077 148.242 147.983 148.253 148.214 148.792 148.972 
149.744 149.946 150.716 150.894 151.651 149.17 148.914 149.183 148.886 
149.102 148.744 149.047 148.815 149.448 149.464 150.364 150.464 151.347 
151.395 152.177 152.254 153.029 150.006 149.729 150.026 149.737 150.018 
149.68 150.009 149.734 150.296 150.243 151.065 151.171 152.032 152.108 
152.858 152.88 153.59 153.663 154.417 150.602 151.638 150.945 150.645 
152.865 152.072 151.734 151 150.662 154.251 153.375 153.03 152.181 
151.821 151.035 150.721 155.889 154.889 154.6 153.618 153.303 152.355 
152.076 151.228 151.078 157.821 156.722 156.536 155.413 155.2 154.072 
153.843 152.795 152.673 151.804 151.845 159.865 158.782 158.671 157.524 
157.387 156.185 156.008 154.795 154.64 153.567 153.55 152.697 152.779 
161.892 160.86 160.807 159.702 159.592 158.424 158.275 157.06 156.901 
155.694 155.585 154.515 154.494 153.611 153.615 163.924 162.927 162.962 
161.874 161.824 160.648 160.52 159.315 159.182 157.982 157.868 156.678 
156.576 155.462 155.385 154.421 154.375 165.908 164.985 165.1 164.073 
164.109 162.948 162.868 161.616 161.489 160.26 160.162 158.97 158.868 
157.665 157.532 156.366 156.258 155.231 155.2 156.032 157.178 156.982 
157.851 158.539 158.293 159.237 158.991 159.963 159.931 159.735 160.761 
160.51 161.568 161.268 162.332 161.277 161.148 162.294 162.104 163.309 
163.025 164.244 163.851 165.035 162.675 162.561 163.843 163.705 165.095 
164.889 166.328 165.966 167.328 166.79 168.022 164.098 164.034 165.387 
165.311 166.8 166.723 168.333 168.144 169.688 169.233 170.563 169.89 
171.04 165.337 165.406 166.762 166.808 168.295 168.364 170.026 170.073 
171.748 171.551 172.99 172.456 173.645 172.902 173.946 166.293 166.494 
167.836 168.035 169.514 169.729 171.398 171.628 173.373 173.447 174.997 
174.737 175.986 175.427 176.471 175.731 176.633 167.045 167.315 168.629 
168.948 170.428 170.795 172.475 172.864 174.628 174.908 176.504 176.519 
177.799 177.526 178.534 178.037 178.849 178.184 178.829 149.44 149.365 
149.181 148.685 149.222 149.129 148.696 148.435 147.91 148.871 148.864 
148.423 148.348 147.832 147.654 147.283 148.596 148.472 148.003 147.962 
147.492 147.438 147.081 147.104 147.013 148.653 148.34 147.92 147.707 
147.371 147.197 146.961 146.899 146.862 146.953 147.002 148.878 148.503 
148.087 147.817 147.565 147.331 147.182 146.986 146.981 146.92 147.011 
147.002 147 149.113 148.727 148.236 147.971 147.636 147.5 147.276 
147.192 147.078 147.065 147.095 147.103 147.145 147.051 147.016 149.422 
148.994 148.508 148.136 147.734 147.5 147.177 147.09 146.865 146.938 
146.883 147.054 147.105 147.187 147.208 147.131 147.149 149.852 149.395 
148.991 148.531 148.174 147.749 147.433 147.096 146.864 146.72 146.668 
146.758 146.85 147.026 147.111 147.211 147.256 147.271 147.365 149.41 
148.508 148.974 149.123 147.688 148.037 148.131 148.752 149.183 147.235 
147.385 147.499 147.897 148.408 149.074 149.76 147.163 147.205 147.42 
147.564 148.077 148.523 149.276 149.848 150.517 147.121 147.222 147.462 
147.618 148.059 148.374 149.039 149.495 150.158 150.608 151.152 146.951 
147.072 147.219 147.507 147.878 148.274 148.83 149.28 149.896 150.317 
150.887 151.272 151.817 146.887 146.872 146.949 147.175 147.556 147.971 
148.532 148.996 149.594 150.045 150.638 151.059 151.641 152.015 152.554 
147.08 146.931 147.02 147.052 147.479 147.757 148.4 148.761 149.377 
149.747 150.315 150.756 151.333 151.797 152.332 152.716 153.157 147.433 
147.269 147.423 147.322 147.748 147.874 148.549 148.798 149.447 149.666 
150.189 150.469 150.991 151.415 151.946 152.399 152.851 153.225 153.601 
149.938 149.785 150.164 150.843 149.882 150.112 150.796 151.148 151.93 
150.37 150.383 150.989 151.172 151.939 152.346 153.332 151.031 150.973 
151.53 151.533 152.278 152.501 153.547 153.97 155.081 151.626 151.597 
152.183 152.175 152.926 153.026 154.057 154.353 155.489 155.793 156.712 
152.244 152.172 152.749 152.789 153.509 153.654 154.561 154.863 155.888 
156.216 157.097 157.289 158.005 152.928 152.815 153.313 153.318 153.941 
154.092 154.842 155.166 156.037 156.456 157.299 157.61 158.338 158.54 
159.312 153.52 153.453 153.905 153.877 154.453 154.512 155.204 155.384 
156.189 156.519 157.388 157.749 158.565 158.842 159.629 159.896 160.752 
153.988 153.976 154.458 154.455 155.07 155.096 155.837 155.886 156.706 
156.83 157.723 157.952 158.855 159.107 159.944 160.189 161 161.297 
162.114 157.552 156.877 156.817 156.077 156.28 156.172 155.408 155.372 
154.754 155.728 155.613 154.833 154.736 154.084 154.139 153.655 155.202 
155.11 154.369 154.206 153.499 153.475 152.96 153.087 152.625 154.713 
154.655 154.038 153.843 153.145 152.964 152.384 152.404 151.951 152.046 
151.538 154.257 154.215 153.692 153.572 152.952 152.721 152.098 151.942 
151.424 151.413 150.921 150.951 150.417 153.899 153.796 153.252 153.189 
152.603 152.487 151.872 151.715 151.131 150.996 150.428 150.364 149.815 
149.839 149.334 153.737 153.526 152.962 152.791 152.196 152.072 151.483 
151.4 150.84 150.728 150.118 149.953 149.318 149.245 148.724 148.791 
148.388 153.735 153.474 152.965 152.664 152.098 151.801 151.226 151.033 
150.518 150.408 149.861 149.683 149.021 148.821 148.225 148.201 147.825 
147.946 147.707 
POINT_DATA 1002
SCALARS Distance double
LOOKUP_TABLE default
151.224 150.286 150.903 151.936 151.664 152.38 152.826 152.624 153.242 
153.692 153.982 153.805 154.304 154.727 155.155 155.269 155.034 155.552 
155.923 156.364 156.908 156.471 156.188 156.805 157.181 157.661 158.247 
158.901 157.685 157.367 158.076 158.48 158.977 159.616 160.279 160.905 
158.986 158.561 159.454 159.885 160.347 160.979 161.681 162.305 162.887 
160.179 159.644 160.74 161.237 161.701 162.299 163.037 163.735 164.326 
164.877 161.185 160.613 161.787 162.361 162.916 163.538 164.282 165.062 
165.741 166.294 166.78 149.838 150.561 149.515 150.337 149.272 151.404 
150.084 149.008 151.187 152.383 149.806 148.806 150.918 152.118 153.554 
149.721 148.917 150.768 151.896 153.282 154.812 149.862 149.268 150.838 
151.92 153.127 154.618 156.068 150.018 149.509 150.94 152.098 153.192 
154.486 155.963 157.301 150.152 149.602 151.008 152.225 153.379 154.489 
155.84 157.211 158.441 150.394 149.765 151.2 152.35 153.579 154.667 
155.844 157.14 158.343 159.48 150.543 151.351 151.547 152.623 152.791 
152.423 154.167 154.416 153.929 153.715 155.807 156.124 155.545 155.261 
154.952 157.19 157.463 157.009 156.833 156.542 156.15 158.515 158.701 
158.393 158.324 158.182 157.845 157.422 160.181 160.169 160.13 159.998 
159.81 159.516 159.069 158.627 161.897 161.64 162.023 161.891 161.555 
161.157 160.702 160.193 159.761 163.27 162.903 163.529 163.51 163.206 
162.766 162.307 161.822 161.326 160.911 161.973 162.408 163.497 162.908 
164.037 165.194 163.396 164.538 165.759 167.099 163.851 165.002 166.273 
167.705 169.125 164.27 165.432 166.81 168.322 169.792 171.118 164.596 
165.709 167.203 168.926 170.449 171.724 173.147 164.746 165.842 167.273 
169.173 171 172.312 173.584 175.362 164.655 165.923 167.277 169.031 
171.093 172.822 174.104 175.638 177.633 164.35 165.857 167.359 168.928 
170.799 172.838 174.541 176.025 177.771 179.655 162.611 164.249 163.286 
166.206 165.14 164.02 168.327 167.331 166.133 164.808 170.421 169.478 
168.4 167.082 165.624 172.735 171.81 170.668 169.443 167.989 166.472 
175.43 174.832 173.588 172.146 170.577 168.894 167.271 178.089 178 
177.054 175.504 173.626 171.585 169.648 167.905 180.235 180.41 179.896 
178.716 176.926 174.624 172.255 170.183 168.392 181.734 182.027 183.219 
182.968 184.109 181.767 183.472 184.846 182.367 181.054 183.998 185.315 
182.798 181.709 179.821 184.125 184.872 183.103 182.104 180.425 177.703 
183.489 183.642 182.846 182.005 180.543 177.995 174.955 182.444 182.31 
182.091 181.35 180.096 177.896 175.026 172.338 181.192 180.996 180.996 
180.342 179.197 177.351 174.849 172.294 170.148 179.6 179.412 179.478 
178.969 177.986 176.407 174.289 172.03 170.011 168.287 180.338 182.386 
180.775 182.641 180.672 183.916 182.283 179.999 184.111 185.034 181.471 
178.96 183.611 185.251 185.891 180.366 177.587 182.699 184.48 185.751 
185.858 178.726 175.83 181.45 183.236 184.406 184.974 184.574 176.458 
173.872 179.417 181.659 182.825 183.36 183.355 182.909 174.005 171.986 
176.639 179.248 181.018 181.859 182.061 181.87 181.513 171.841 170.3 
173.855 176.213 178.385 179.893 180.626 180.733 180.49 180.062 163.466 
165.126 164.214 166.105 165.1 166.978 167.142 165.999 168.239 168.783 
168.21 166.962 169.485 170.267 170.535 169.394 168.03 170.749 171.72 
172.185 172.552 170.456 168.95 171.892 173.042 173.77 174.324 174.694 
171.128 169.541 172.663 174.044 175.142 176.005 176.604 176.608 171.56 
169.933 173.236 174.88 176.343 177.531 178.42 178.779 178.463 161.801 
162.412 160.75 161.436 159.719 163.214 160.413 158.61 162.262 164.091 
159.324 157.551 161.159 163.027 164.91 158.325 156.641 160.008 161.763 
163.7 165.773 157.342 155.782 158.959 160.546 162.37 164.442 166.687 
156.323 155.013 157.887 159.472 161.165 163.076 165.187 167.437 155.453 
154.43 156.837 158.416 160.081 161.839 163.715 165.805 167.97 154.792 
153.972 155.954 157.412 159.036 160.715 162.409 164.262 166.347 168.416 