# vtk DataFile Version 4.0
vtk output
ASCII
DATASET POLYDATA
POINTS 1002 float
-105.623 -80.602 76.7316 -105.49 -79.8536 75.6476 -105.82 -79.59 76.5722 
-106.01 -80.43 77.7491 -106.316 -79.5212 77.5785 -105.844 -81.5247 77.9068 
-106.538 -80.4384 78.85 -107.087 -79.6598 78.5105 -106.231 -81.377 79.1123 
-105.986 -82.4109 79.4556 -107.309 -80.6439 79.8461 -107.934 -79.8621 79.3948 
-106.761 -81.4058 80.3449 -106.377 -82.3332 80.8416 -106.127 -83.4018 81.3142 
-108.128 -80.8437 80.8754 -108.602 -79.9499 80.509 -107.555 -81.6561 81.4007 
-107.029 -82.4829 82.003 -106.694 -83.5554 82.538 -106.465 -84.6372 82.9768 
-108.81 -80.9145 82.1482 -109.219 -80.0195 81.7952 -108.398 -81.9149 82.5178 
-107.929 -82.8387 82.9712 -107.55 -83.8764 83.4631 -107.29 -84.9776 83.9121 
-107.058 -85.9331 84.323 -109.524 -81.1534 83.3175 -110.013 -80.3486 82.8399 
-109.122 -82.1672 83.7403 -108.764 -83.2146 84.1016 -108.45 -84.3136 84.4945 
-108.188 -85.4494 84.9403 -107.988 -86.4961 85.3155 -107.888 -87.531 85.6236 
-110.385 -81.7196 84.1236 -110.856 -80.8867 83.6327 -109.884 -82.6569 84.7073 
-109.452 -83.6519 85.2498 -109.182 -84.817 85.6928 -108.956 -86.1003 86.1845 
-108.738 -87.2845 86.5968 -108.68 -88.4218 86.7818 -108.771 -89.6162 86.9094 
-111.164 -82.3059 84.8618 -111.504 -81.3734 84.435 -110.7 -83.2689 85.4739 
-110.159 -84.203 86.1855 -109.806 -85.3461 86.7452 -109.612 -86.7845 87.2459 
-109.371 -88.1647 87.7603 -109.235 -89.3403 88.0182 -109.342 -90.4878 88.0309 
-109.512 -91.6058 88.0889 -111.706 -82.7327 85.6851 -111.964 -81.7712 85.2392 
-111.367 -83.752 86.2778 -110.864 -84.7314 87.0112 -110.43 -85.8448 87.6277 
-110.218 -87.2924 88.0627 -110.013 -88.8115 88.5349 -109.809 -90.059 88.9495 
-109.841 -91.1307 89.0719 -110.047 -92.1874 89.0482 -110.193 -93.1594 89.1231 
-105.747 -79.1191 75.0009 -106.159 -78.8742 75.9602 -106.26 -78.5291 74.2084 
-106.862 -78.3494 75.1466 -106.915 -77.9438 73.4424 -106.848 -78.8278 76.9669 
-107.623 -77.7289 74.4185 -107.49 -77.1514 72.9015 -107.629 -78.2209 76.2015 
-107.721 -78.917 77.9206 -108.168 -76.8055 73.9975 -108.042 -76.2451 72.5075 
-108.27 -77.4507 75.5838 -108.35 -78.1691 77.3076 -108.467 -79.0537 78.9336 
-108.772 -75.9643 73.7201 -108.77 -75.5882 72.0961 -108.839 -76.5504 75.2208 
-108.909 -77.3271 76.8046 -109.007 -78.2889 78.4643 -109.095 -79.1884 80.1631 
-109.65 -75.5302 73.4119 -109.664 -75.2464 71.7298 -109.714 -75.9272 74.9337 
-109.722 -76.5011 76.43 -109.74 -77.4707 77.9733 -109.808 -78.5637 79.6413 
-109.874 -79.4267 81.3819 -110.643 -75.18 73.106 -110.658 -74.9903 71.5146 
-110.732 -75.5097 74.5853 -110.738 -75.9262 76.108 -110.646 -76.6929 77.5967 
-110.663 -77.8884 79.0388 -110.732 -78.9737 80.7156 -110.765 -79.8459 82.3806 
-111.668 -74.7158 72.8537 -111.704 -74.7561 71.4087 -111.676 -74.9401 74.1856 
-111.634 -75.4319 75.702 -111.482 -76.1718 77.3191 -111.428 -77.2769 78.6421 
-111.537 -78.484 80.0218 -111.569 -79.4193 81.7514 -111.506 -80.2964 83.3155 
-112.667 -74.388 72.6495 -112.684 -74.6325 71.3023 -112.598 -74.4066 73.8422 
-112.471 -74.891 75.2254 -112.294 -75.7494 76.9262 -112.188 -76.8295 78.3893 
-112.262 -77.9989 79.5639 -112.333 -78.9886 81.0882 -112.218 -79.7893 82.8448 
-112.041 -80.6897 84.2442 -113.563 -74.4706 72.0172 -113.519 -74.271 73.3194 
-114.273 -74.6601 72.7466 -114.209 -74.7463 74.1333 -114.848 -75.3564 73.6372 
-113.387 -74.5057 74.5995 -114.875 -75.7542 75.1443 -115.58 -76.277 74.5976 
-114.165 -75.2495 75.6409 -113.247 -75.2853 76.2552 -115.637 -76.8459 76.1338 
-116.41 -77.1416 75.423 -114.97 -76.3465 76.7793 -114.209 -76.0775 77.3972 
-113.166 -76.3742 77.9934 -116.259 -77.8074 77.1305 -116.845 -78.0388 76.3519 
-115.601 -77.5282 77.8611 -115.016 -77.0908 78.4725 -114.205 -77.1015 78.9887 
-113.161 -77.5531 79.3331 -116.641 -78.7489 78.4769 -116.93 -79.2081 77.7799 
-116.081 -78.6679 79.0959 -115.433 -78.4032 79.6233 -114.822 -78.0913 80.1389 
-114.063 -78.2271 80.5275 -113.159 -78.6314 80.7911 -116.995 -80.0259 80.1137 
-117.086 -80.7863 79.4768 -116.642 -79.7318 80.5428 -115.926 -79.6688 80.8746 
-115.169 -79.404 81.4213 -114.572 -79.1657 82.01 -113.871 -79.2511 82.3828 
-113.01 -79.5097 82.6351 -117.217 -81.7854 81.5909 -117.208 -82.5453 80.908 
-117.047 -81.0999 81.9556 -116.488 -80.7644 82.0808 -115.677 -80.5726 82.4965 
-115.03 -80.3161 83.2331 -114.453 -80.1677 83.8034 -113.629 -80.2221 84.1019 
-112.732 -80.4097 84.2487 -117.055 -83.5648 82.7013 -117.003 -84.0463 81.9567 
-116.97 -82.8186 83.1554 -116.608 -82.1454 83.2566 -115.984 -81.7494 83.4703 
-115.412 -81.5107 84.0971 -114.965 -81.3508 84.7517 -114.284 -81.3032 85.1294 
-113.337 -81.35 85.3287 -112.507 -81.5042 85.3747 -112.242 -82.8407 86.2952 
-112.888 -82.7146 86.3788 -112.609 -84.2223 87.4324 -113.819 -82.7079 86.2866 
-113.384 -84.2872 87.5014 -113.132 -85.9621 88.5424 -114.687 -82.766 86.0913 
-114.258 -84.4224 87.4738 -113.98 -86.1358 88.7015 -113.874 -88.0675 89.4903 
-115.153 -82.9009 85.7013 -114.866 -84.6694 87.3184 -114.694 -86.3998 88.7207 
-114.69 -88.3578 89.6519 -114.645 -90.667 90.336 -115.476 -83.1268 85.0884 
-115.2 -85.0377 86.915 -115.199 -86.9145 88.4779 -115.276 -88.805 89.5111 
-115.22 -91.2683 90.3076 -115.003 -93.7695 91.1937 -115.953 -83.45 84.6356 
-115.578 -85.311 86.3803 -115.715 -87.4192 88.0696 -115.857 -89.3981 89.1999 
-115.618 -91.8163 89.9936 -115.223 -94.6242 90.9364 -114.985 -96.8805 91.9197 
-116.388 -83.9902 84.4397 -115.984 -85.4755 85.9281 -116.193 -87.4909 87.5805 
-116.494 -89.7086 88.941 -116.176 -92.1389 89.7815 -115.485 -95.0138 90.5551 
-115.113 -97.6807 91.5381 -115.197 -99.6622 92.3766 -116.585 -84.6546 84.0808 
-116.227 -85.7633 85.4547 -116.444 -87.3442 86.9181 -116.887 -89.5471 88.4423 
-116.762 -92.1182 89.6486 -116.043 -94.9992 90.3814 -115.461 -97.886 91.1304 
-115.485 -100.296 92.0417 -115.866 -102.311 92.7032 -116.593 -85.107 83.3937 
-116.288 -86.1026 84.8258 -116.522 -87.3703 86.1531 -117.049 -89.2822 87.5439 
-117.134 -91.7933 89.0758 -116.621 -94.7215 90.2387 -116.041 -97.7674 90.9132 
-115.899 -100.462 91.6528 -116.221 -102.746 92.4915 -116.639 -104.878 93.0007 
-111.964 -83.9296 86.9314 -112.282 -85.4836 88.1747 -111.576 -85.0726 87.6661 
-112.849 -87.5353 89.1794 -111.911 -86.8827 88.8722 -111.126 -86.2884 88.3647 
-113.719 -90.0357 90.092 -112.635 -89.2633 89.83 -111.669 -88.4094 89.4925 
-110.872 -87.7433 88.8468 -114.473 -92.9426 91.17 -113.618 -92.06 90.8974 
-112.63 -91.0614 90.5249 -111.622 -90.0505 89.9639 -110.727 -89.3505 89.2352 
-114.742 -96.0661 92.1695 -114.268 -95.1932 92.0704 -113.628 -94.2918 91.6045 
-112.712 -92.9873 90.971 -111.571 -91.6379 90.3233 -110.552 -90.7514 89.6669 
-114.945 -99.1265 92.709 -114.516 -98.4745 92.8916 -114.12 -97.9477 92.6134 
-113.666 -96.8639 91.8496 -112.781 -94.9084 91.1393 -111.608 -93.0585 90.5997 
-110.572 -91.9221 89.931 -115.566 -102.207 92.8899 -114.967 -101.84 93.1568 
-114.374 -101.552 93.3099 -114.083 -100.976 92.7737 -113.737 -99.2432 91.8485 
-112.935 -96.665 91.2296 -111.836 -94.4487 90.7123 -110.805 -93.0751 89.9552 
-116.395 -105.286 93.0156 -115.76 -105.264 93.1057 -114.938 -104.968 93.4763 
-114.394 -104.499 93.504 -114.157 -103.345 92.7318 -113.798 -101.093 91.8416 
-113.056 -98.2755 91.2819 -112.019 -95.8228 90.7132 -110.986 -94.1888 89.9617 
-117.152 -107.882 93.1555 -116.706 -108.492 93.0084 -117.317 -110.88 92.8717 
-116.657 -111.265 92.73 -117.244 -113.29 92.1702 -115.877 -108.362 93.1445 
-116.429 -113.116 92.1477 -117.134 -115.246 91.2443 -115.84 -110.681 92.9148 
-115.068 -107.697 93.5529 -116.148 -114.721 91.2927 -116.838 -116.975 90.2702 
-115.721 -112.227 92.2145 -115.225 -109.575 93.1105 -114.568 -106.676 93.3697 
-115.758 -116.093 90.4072 -116.223 -117.581 89.4117 -115.489 -113.598 91.2642 
-115.223 -110.872 92.17 -114.66 -108.151 92.7711 -114.181 -104.994 92.518 
-115.37 -115.928 89.7701 -115.585 -116.377 88.7798 -115.213 -114.111 90.5672 
-115.001 -111.553 91.3111 -114.51 -109.02 92.0094 -114.012 -106.172 92.1548 
-113.66 -102.393 91.7598 -114.993 -114.203 89.332 -115.063 -114.224 88.3677 
-114.898 -113.154 90.1817 -114.633 -111.194 90.8179 -114.177 -109.046 91.4033 
-113.723 -106.647 91.7231 -113.357 -103.263 91.5905 -112.84 -99.2583 91.1971 
-114.37 -112.185 88.9839 -114.457 -112.119 88.2169 -114.274 -111.61 89.8342 
-114.006 -110.27 90.4663 -113.63 -108.483 90.925 -113.341 -106.353 91.2439 
-113.019 -103.396 91.3031 -112.472 -99.7782 91.0662 -111.749 -96.5227 90.5773 
-113.523 -110.326 88.8023 -113.737 -110.112 88.332 -113.356 -110.089 89.4989 
-113.142 -109.232 90.1253 -112.904 -107.728 90.539 -112.798 -105.661 90.7988 
-112.631 -102.952 90.9367 -112.092 -99.7772 90.8733 -111.354 -96.8801 90.494 
-110.713 -94.7413 89.8381 -117.057 -105.871 92.9689 -117.511 -108.844 92.996 
-117.338 -106.555 92.5384 -117.689 -109.305 92.2189 -117.542 -106.993 91.7911 
-117.691 -111.82 92.3643 -117.744 -109.463 91.2125 -117.678 -106.989 91.1219 
-117.83 -112.324 91.3294 -117.798 -114.622 91.2909 -117.644 -109.061 90.6503 
-117.553 -106.067 90.6324 -117.606 -112.256 90.5275 -117.904 -115.491 90.3037 
-117.818 -117.059 90.1764 -117.27 -107.629 90.4052 -116.966 -104.157 90.2225 
-117.249 -111.068 90.2759 -117.413 -114.861 89.8782 -117.792 -117.61 89.3602 
-117.348 -118.246 89.1822 -116.561 -105.33 90.1587 -116.178 -101.834 89.8318 
-116.972 -108.845 89.9889 -117.124 -112.557 89.6048 -117.289 -115.923 89.0372 
-117.209 -117.558 88.4775 -116.448 -117.454 88.3769 -115.825 -102.718 89.8026 
-115.671 -99.603 89.1159 -116.469 -106.109 89.704 -117.097 -109.603 89.1596 
-117.202 -112.994 88.6998 -116.932 -115.314 88.2601 -116.376 -115.94 87.8412 
-115.653 -115.391 87.8591 -115.43 -100.138 88.9554 -115.468 -97.5635 87.8568 
-115.776 -103.108 89.422 -116.519 -106.328 89.0738 -117.002 -109.668 88.5571 
-116.833 -112.474 88.31 -116.288 -113.853 87.9975 -115.657 -113.858 87.6528 
-115.045 -113.143 87.7272 -115.26 -97.7982 87.5414 -115.235 -95.7344 86.3959 
-115.306 -100.181 88.5479 -115.615 -102.83 88.9273 -116.093 -105.789 88.75 
[...]
CELL_DATA 2000
SCALARS Distance double
LOOKUP_TABLE default
151.93 152.614 152.501 153.067 153.552 153.309 153.871 153.742 154.372 
154.672 154.358 154.896 154.652 155.284 155.133 155.84 155.808 155.516 
156.08 155.774 156.399 156.153 156.891 156.73 157.524 156.928 156.659 
157.293 157.006 157.665 157.365 158.106 157.878 158.705 158.512 159.324 
158.128 157.828 158.507 158.242 158.964 158.676 159.447 159.178 160.035 
159.79 160.673 160.399 161.284 159.401 159.085 159.772 159.493 160.241 
159.978 160.789 160.547 161.457 161.214 162.169 161.871 162.83 162.516 
163.525 160.598 160.345 161.034 160.775 161.508 161.252 162.056 161.856 
162.787 162.631 163.625 163.406 164.365 164.086 165.044 164.797 165.783 
161.619 161.461 162.153 161.978 162.701 162.489 163.25 163.073 163.953 
163.868 164.838 164.752 165.677 165.51 166.375 166.188 167.06 166.902 
167.765 151.413 150.978 151.45 152.08 150.733 151.129 151.773 152.252 
153.029 150.528 150.95 151.616 152.043 152.802 153.308 154.145 150.26 
150.72 151.392 151.866 152.588 153.097 153.891 154.433 155.251 150.13 
150.497 151.178 151.612 152.336 152.838 153.631 154.175 155.002 155.536 
156.361 150.318 150.541 151.282 151.552 152.31 152.66 153.483 153.952 
154.845 155.352 156.24 156.716 157.583 150.716 150.863 151.622 151.817 
152.581 152.805 153.592 153.92 154.807 155.263 156.209 156.679 157.584 
158.012 158.871 151.214 151.293 151.957 152.138 152.838 153.086 153.822 
154.105 154.911 155.286 156.199 156.665 157.591 158.039 158.885 159.289 
160.071 151.776 151.784 152.331 152.424 153.028 153.261 153.988 154.301 
155.105 155.432 156.291 156.682 157.59 158.032 158.887 159.293 160.043 
160.417 161.103 152.281 153.198 152.744 152.786 154.286 153.734 153.787 
153.291 153.441 155.645 154.989 155.124 154.473 154.666 154.13 154.444 
157.119 156.475 156.687 155.992 156.246 155.572 155.896 155.304 155.652 
158.458 157.936 158.193 157.587 157.856 157.21 157.509 156.87 157.178 
156.552 156.863 159.76 159.264 159.625 159.076 159.38 158.766 159.045 
158.435 158.732 158.114 158.417 157.791 158.126 161.332 160.728 161.195 
160.587 160.96 160.302 160.59 159.947 160.265 159.661 160.003 159.375 
159.695 159.07 159.39 163.044 162.446 162.897 162.249 162.575 161.894 
162.128 161.482 161.773 161.199 161.559 160.968 161.277 160.631 160.876 
160.26 160.507 164.418 164.03 164.392 163.856 164.05 163.416 163.526 
162.92 163.129 162.629 162.974 162.478 162.792 162.183 162.381 161.721 
161.895 161.297 161.519 162.283 162.685 162.852 163.692 163.216 163.346 
164.228 164.408 165.394 163.67 163.895 164.817 165.02 166.059 166.253 
167.36 163.852 164.235 165.209 165.566 166.639 166.929 168.08 168.317 
169.538 163.945 164.324 165.348 165.851 167.021 167.452 168.634 168.973 
170.213 170.541 171.834 164.276 164.486 165.484 165.968 167.264 167.813 
169.107 169.497 170.707 171.085 172.35 172.771 174.01 164.792 164.908 
165.775 166.141 167.386 168.024 169.43 169.963 171.185 171.541 172.687 
173.121 174.338 174.805 175.975 165.138 165.345 166.056 166.368 167.373 
168.024 169.36 170.128 171.418 171.943 173.028 173.419 174.533 175.019 
176.25 176.737 177.966 165.117 165.475 166.083 166.456 167.256 167.859 
169.009 169.859 171.158 171.951 173.114 173.667 174.745 175.22 176.414 
176.957 178.265 178.786 180.066 162.36 163.784 163.02 162.973 165.467 
164.573 164.526 163.689 163.592 167.431 166.397 166.34 165.363 165.276 
164.342 164.212 169.692 168.541 168.534 167.366 167.312 166.198 166.113 
165.061 164.98 172.117 170.977 171.096 169.803 169.82 168.497 168.436 
167.166 167.078 165.945 165.889 174.381 173.426 173.675 172.484 172.618 
171.246 171.227 169.739 169.574 168.184 168.022 166.86 166.735 176.409 
175.611 175.972 174.992 175.28 174.096 174.232 172.734 172.58 170.908 
170.615 169.12 168.884 167.661 167.469 178.488 177.694 178.188 177.264 
177.7 176.696 177.05 175.769 175.795 174.103 173.801 171.985 171.622 
170.017 169.732 168.408 168.186 180.676 179.919 180.529 179.591 180.086 
179.118 179.564 178.5 178.696 177.271 177.071 175.292 174.867 173.013 
172.57 170.895 170.532 169.148 168.884 182.097 184.077 182.813 182.002 
185.497 184.569 183.815 182.512 181.533 186.299 185.64 184.947 184.05 
183.151 181.937 180.935 186.788 186.218 185.471 184.859 184.06 183.248 
182.27 181.171 179.995 186.847 186.542 185.73 185.229 184.402 183.845 
182.905 182.141 180.924 179.877 178.377 186.011 186.247 185.507 185.294 
184.358 183.967 182.967 182.461 181.275 180.502 179 177.923 176.191 
184.403 185.043 184.462 184.688 183.738 183.619 182.519 182.256 181.082 
180.606 179.165 178.333 176.593 175.529 173.763 182.603 183.321 182.858 
183.36 182.54 182.691 181.608 181.554 180.391 180.181 178.811 178.271 
176.569 175.723 173.931 173.033 171.479 180.897 181.556 181.122 181.707 
181.041 181.372 180.423 180.507 179.393 179.331 178.037 177.728 176.13 
175.511 173.781 173.045 171.515 170.844 169.635 182.343 182.974 183.296 
184.314 183.095 183.651 184.731 185.072 185.764 182.892 183.53 184.566 
185.212 186.147 186.356 186.75 182.329 183.131 184.058 184.858 185.955 
186.598 187.375 187.315 187.435 181.077 182.249 183.109 184.12 185.11 
186.148 187.095 187.679 187.956 187.77 187.427 179.194 180.643 181.52 
182.816 183.635 184.921 185.717 186.854 187.148 187.665 187.199 187.147 
186.33 177.143 178.602 179.467 180.936 181.726 183.129 183.802 185.103 
185.413 186.32 185.945 186.307 185.436 185.51 184.551 175.137 176.512 
177.253 178.747 179.474 180.983 181.613 183.026 183.412 184.496 184.368 
184.911 184.248 184.411 183.538 183.603 182.738 173.153 174.445 175.017 
176.447 176.996 178.527 179.004 180.578 180.936 182.355 182.395 183.324 
182.884 183.266 182.514 182.623 181.816 181.865 181.072 165.132 165.39 
165.576 166.169 165.939 166.016 166.841 166.807 167.521 167.001 166.942 
168.012 167.834 168.774 168.494 169.378 168.173 168.205 169.391 169.256 
170.285 169.979 170.909 170.587 171.518 169.12 169.301 170.479 170.536 
171.549 171.432 172.357 172.14 173.073 172.773 173.578 170.039 170.225 
171.457 171.53 172.625 172.586 173.677 173.565 174.695 174.42 175.372 
174.828 175.443 170.993 171.212 172.57 172.63 173.93 173.851 175.241 
175.104 176.568 176.269 177.492 176.868 177.653 176.771 177.266 171.79 
172.132 173.563 173.783 175.232 175.319 176.892 176.893 178.511 178.321 
179.652 179.121 179.999 179.155 179.731 178.724 179.179 172.394 172.831 
174.28 174.671 176.157 176.498 178.075 178.383 179.936 180.063 181.286 
181.064 181.87 181.337 181.925 181.163 181.656 180.68 181.045 164.493 
163.468 164.222 164.675 162.326 163.135 163.597 164.382 165.02 161.109 
161.948 162.444 163.283 163.932 164.883 165.861 159.937 160.732 161.26 
162.133 162.849 163.809 164.738 165.838 166.945 158.931 159.658 160.203 
161.009 161.755 162.723 163.637 164.691 165.671 166.825 167.871 157.951 
158.709 159.272 160.038 160.713 161.625 162.482 163.528 164.427 165.516 
166.459 167.66 168.724 156.91 157.68 158.234 159.068 159.681 160.559 
161.298 162.31 163.17 164.242 165.13 166.258 167.256 168.52 169.617 
155.985 156.638 157.151 157.977 158.606 159.476 160.158 161.101 161.915 
162.972 163.873 164.959 165.89 167.059 168.074 169.368 170.403 155.293 
155.803 156.286 156.981 157.639 158.438 159.14 159.99 160.759 161.741 
162.632 163.708 164.616 165.711 166.615 167.809 168.767 170.066 171.017 
155.116 155.346 155.487 156.148 155.719 155.838 156.527 156.696 157.493 
155.969 156.185 156.89 157.113 157.922 158.133 158.981 156.144 156.391 
157.163 157.445 158.322 158.576 159.486 159.679 160.608 156.531 156.682 
157.568 157.801 158.802 159.041 160.071 160.262 161.297 161.449 162.492 
157.157 157.236 158.184 158.365 159.453 159.656 160.764 160.939 162.034 
162.201 163.297 163.435 164.483 157.877 157.944 158.909 159.071 160.182 
160.384 161.515 161.691 162.798 162.966 164.078 164.242 165.338 165.44 
166.477 158.655 158.721 159.737 159.858 160.985 161.148 162.305 162.471 
163.633 163.784 164.965 165.091 166.274 166.356 167.502 167.52 168.616 
159.46 159.556 160.625 160.74 161.874 161.998 163.163 163.307 164.531 
164.692 165.974 166.096 167.375 167.426 168.663 168.656 169.837 169.778 
170.88 160.234 161.891 161.211 161.506 163.655 162.965 163.342 162.562 
162.816 165.654 164.866 165.337 164.502 164.838 163.93 164.153 168.045 
167.103 167.675 166.698 167.156 166.131 166.463 165.394 165.627 170.787 
169.736 170.398 169.28 169.82 168.674 169.107 167.922 168.233 167.008 
167.194 173.735 172.674 173.451 172.226 172.832 171.545 172.002 170.71 
171.036 169.744 169.933 168.608 168.666 176.504 175.654 176.582 175.438 
176.187 174.804 175.329 173.814 174.124 172.638 172.818 171.406 171.462 
170.048 169.993 178.633 178.161 179.149 178.418 179.298 178.208 178.856 
177.359 177.674 175.954 176.065 174.415 174.453 172.912 172.843 171.338 
171.188 180.103 179.908 180.826 180.539 181.419 180.909 181.621 180.657 
180.991 179.505 179.489 177.771 177.64 175.974 175.804 174.214 173.973 
172.453 172.203 159.77 159.535 160.206 161.35 159.27 159.957 161.106 
161.828 163.058 158.934 159.668 160.835 161.587 162.866 163.615 165 
158.512 159.289 160.506 161.319 162.664 163.459 164.927 165.719 167.315 
158.144 158.878 160.132 160.984 162.404 163.272 164.793 165.653 167.321 
168.192 169.972 157.916 158.583 159.823 160.639 162.094 163.008 164.581 
165.498 167.18 168.144 169.995 170.953 172.828 157.731 158.387 159.602 
160.371 161.803 162.711 164.321 165.277 166.981 167.967 169.805 170.869 
172.78 173.783 175.538 157.566 158.204 159.416 160.158 161.549 162.425 
164.014 165.003 166.735 167.757 169.573 170.634 172.491 173.574 175.309 
176.272 177.709 157.491 158.071 159.27 159.977 161.324 162.155 163.658 
164.641 166.323 167.428 169.23 170.352 172.153 173.232 174.909 175.905 
177.334 178.175 179.295 158.751 157.259 158.149 158.496 155.862 156.66 
156.929 157.876 158.227 154.538 155.252 155.429 156.309 156.605 157.576 
157.885 153.331 153.938 154.041 154.819 155.033 155.939 156.192 157.167 
157.438 152.185 152.736 152.749 153.448 153.557 154.364 154.517 155.438 
155.675 156.701 157.041 150.943 151.502 151.419 152.115 152.136 152.879 
152.909 153.74 153.896 154.911 155.262 156.367 156.803 149.789 150.238 
150.131 150.752 150.761 151.449 151.441 152.158 152.235 153.143 153.468 
154.572 155.036 156.163 156.62 149.025 149.28 149.212 149.613 149.637 
150.164 150.187 150.776 150.847 151.59 151.879 152.848 153.324 154.408 
154.907 155.993 156.466 148.577 148.736 148.7 148.92 148.914 149.23 
149.224 149.654 149.717 150.321 150.582 151.397 151.858 152.815 153.352 
154.36 154.893 155.914 156.434 148.344 148.065 148.296 148.493 147.844 
148.025 148.2 148.437 148.638 147.76 147.829 147.898 148.089 148.227 
148.539 148.81 147.814 147.788 147.782 147.823 147.907 148.119 148.405 
148.783 149.261 148.062 147.93 147.98 147.858 147.974 147.981 148.322 
148.534 149.126 149.474 150.192 148.634 148.361 148.503 148.254 148.473 
148.314 148.729 148.73 149.387 149.571 150.392 150.664 151.515 149.453 
149.109 149.3 148.967 149.269 149.025 149.516 149.38 150.056 150.063 
150.903 151.048 151.954 152.148 153.028 150.318 149.997 150.247 149.894 
150.247 149.955 150.485 150.291 150.966 150.867 151.673 151.702 152.61 
152.716 153.619 153.737 154.594 151.169 150.891 151.229 150.907 151.304 
150.998 151.511 151.289 151.915 151.785 152.514 152.5 153.346 153.427 
154.318 154.404 155.256 155.328 156.148 151.781 152.908 152.192 151.919 
154.196 153.407 153.133 152.361 152.069 155.656 154.772 154.504 153.654 
153.371 152.559 152.307 157.337 156.358 156.112 155.141 154.875 153.956 
153.717 152.881 152.711 159.116 158.117 157.92 156.893 156.685 155.638 
155.429 154.428 154.276 153.395 153.328 161.074 159.981 159.841 158.778 
158.663 157.596 157.467 156.347 156.205 155.135 155.081 154.155 154.187 
163.395 162.175 162.123 160.881 160.824 159.668 159.626 158.492 158.389 
157.223 157.122 156.051 156.057 155.119 155.169 165.767 164.651 164.717 
163.41 163.377 162.034 161.992 160.741 160.687 159.47 159.366 158.185 
158.125 157.069 157.076 156.114 156.115 167.805 166.927 167.081 165.988 
165.997 164.694 164.613 163.254 163.177 161.861 161.78 160.502 160.419 
159.223 159.183 158.092 158.063 157.047 157.007 157.843 158.996 158.816 
159.663 160.236 160.079 161.053 160.816 161.771 161.571 161.429 162.537 
162.317 163.391 163.081 164.137 163.007 162.882 164.116 163.913 165.124 
164.822 166.031 165.656 166.858 164.491 164.403 165.769 165.607 166.978 
166.698 168.09 167.725 169.131 168.639 169.906 165.968 165.924 167.38 
167.312 168.836 168.663 170.226 169.933 171.506 171.069 172.483 171.811 
172.937 167.29 167.342 168.781 168.862 170.458 170.499 172.171 172.071 
173.706 173.435 174.893 174.377 175.519 174.749 175.644 168.277 168.476 
169.851 170.103 171.708 171.983 173.706 173.855 175.473 175.425 176.827 
176.566 177.679 177.147 177.977 177.243 177.937 168.946 169.264 170.622 
171.01 172.637 173.084 174.845 175.194 176.788 176.92 178.231 178.187 
179.265 179.018 179.845 179.336 179.947 179.282 179.798 151.266 150.612 
150.674 150.15 150.031 150.007 149.441 149.522 149.069 149.642 149.503 
148.967 148.929 148.548 148.607 148.351 149.504 149.239 148.763 148.63 
148.359 148.315 148.173 148.15 148.037 149.613 149.224 148.696 148.5 
148.238 148.23 148.154 148.141 148.057 147.976 147.873 149.871 149.417 
148.782 148.45 148.049 148.032 147.93 148.059 147.984 147.995 147.835 
147.793 147.706 150.166 149.726 149.135 148.645 148.147 147.883 147.703 
147.766 147.754 147.843 147.722 147.702 147.577 147.621 147.668 150.504 
150.088 149.644 149.131 148.681 148.187 147.923 147.702 147.696 147.685 
147.69 147.639 147.575 147.533 147.586 147.677 147.875 150.96 150.521 
150.159 149.697 149.313 148.81 148.476 148.082 147.942 147.776 147.781 
147.706 147.712 147.633 147.696 147.692 147.879 147.972 148.204 151.472 
150.391 151.12 151.47 149.328 150.022 150.448 151.167 151.617 148.535 
149.049 149.494 150.199 150.769 151.468 152.056 148.075 148.371 148.72 
149.329 149.934 150.669 151.32 152.008 152.597 147.852 147.993 148.212 
148.643 149.21 149.892 150.571 151.264 151.851 152.497 153.011 147.771 
147.838 148.015 148.248 148.757 149.288 150.011 150.612 151.223 151.77 
152.294 152.89 153.421 147.839 147.857 148.066 148.156 148.577 148.944 
149.649 150.186 150.844 151.281 151.764 152.232 152.754 153.348 153.873 
148.075 148.049 148.292 148.291 148.618 148.813 149.384 149.853 150.52 
150.975 151.454 151.807 152.227 152.708 153.207 153.779 154.208 148.38 
148.348 148.614 148.586 148.894 148.928 149.374 149.635 150.25 150.666 
151.235 151.567 151.999 152.306 152.76 153.181 153.651 154.107 154.487 
152.115 152.144 152.438 153.057 152.269 152.492 153.154 153.426 154.117 
152.679 152.743 153.39 153.579 154.338 154.606 155.43 153.218 153.252 
153.871 153.946 154.706 154.91 155.792 156.044 156.902 153.623 153.73 
154.324 154.432 155.14 155.34 156.211 156.458 157.308 157.5 158.239 
154.01 154.091 154.643 154.77 155.417 155.68 156.518 156.848 157.705 
157.917 158.632 158.762 159.476 154.436 154.5 155.018 155.08 155.676 
155.886 156.699 157.067 157.98 158.287 159.087 159.219 159.969 160.096 
160.983 154.724 154.858 155.372 155.468 156.058 156.203 156.973 157.258 
158.161 158.514 159.396 159.662 160.482 160.656 161.531 161.731 162.677 
154.937 155.072 155.611 155.777 156.422 156.608 157.366 157.587 158.393 
158.682 159.498 159.859 160.675 161.032 161.844 162.168 162.983 163.292 
164.048 158.567 157.83 157.837 157.132 157.129 157.148 156.51 156.487 
155.817 156.411 156.45 155.828 155.869 155.228 155.199 154.531 155.773 
155.733 155.049 155.105 154.466 154.547 153.939 153.952 153.353 155.463 
155.244 154.552 154.397 153.739 153.751 153.246 153.353 152.892 152.881 
152.308 155.365 155.108 154.489 154.152 153.487 153.227 152.709 152.715 
152.368 152.439 151.959 151.84 151.158 155.112 154.976 154.378 154.15 
153.491 153.164 152.516 152.32 151.842 151.884 151.437 151.441 150.807 
150.644 149.979 154.748 154.633 154.024 153.907 153.277 153.089 152.416 
152.17 151.514 151.381 150.818 150.831 150.279 150.25 149.677 149.569 
149.124 154.589 154.361 153.804 153.582 153.009 152.821 152.265 152.048 
151.45 151.162 150.53 150.319 149.778 149.724 149.286 149.268 148.905 
148.869 148.61 
POINT_DATA 1002
SCALARS Distance double
LOOKUP_TABLE default
152.43 151.406 151.957 153.118 152.77 153.657 154.042 153.846 154.455 
155.006 155.186 154.985 155.462 155.941 156.578 156.379 156.061 156.677 
157.061 157.675 158.322 157.541 157.185 157.964 158.359 158.901 159.542 
160.11 158.76 158.44 159.223 159.709 160.275 160.93 161.548 162.196 
160.058 159.705 160.499 161.003 161.659 162.44 163.139 163.806 164.576 
161.275 160.815 161.77 162.258 162.909 163.798 164.641 165.317 166.013 
166.762 162.294 161.752 162.893 163.442 164.054 164.901 165.82 166.573 
167.237 167.933 168.6 150.88 151.516 150.542 151.333 150.327 152.474 
151.193 150.067 152.327 153.608 150.905 149.811 152.082 153.359 154.709 
150.778 149.806 151.853 153.077 154.462 155.84 151.044 150.108 152.027 
153.055 154.321 155.757 157.127 151.442 150.602 152.383 153.338 154.389 
155.717 157.157 158.471 151.84 151.203 152.594 153.541 154.591 155.756 
157.126 158.494 159.694 152.315 151.813 152.842 153.652 154.774 155.952 
157.168 158.478 159.694 160.744 152.717 153.203 153.676 154.327 154.856 
153.832 155.786 156.295 155.262 154.909 157.347 157.716 156.93 156.549 
156.234 158.748 158.914 158.489 158.153 157.829 157.473 160.137 160.234 
159.996 159.66 159.327 159.045 158.734 161.82 161.948 161.634 161.255 
160.859 160.616 160.351 160.002 163.578 163.614 163.298 162.797 162.336 
162.127 161.94 161.543 161.087 164.905 164.742 164.698 164.157 163.629 
163.427 163.371 163.068 162.536 162.063 163.036 163.459 164.586 164.048 
165.183 166.416 164.575 165.834 167.163 168.504 164.764 166.295 167.793 
169.289 170.828 164.786 166.501 168.273 169.843 171.514 173.169 165.049 
166.624 168.671 170.381 171.907 173.641 175.229 165.525 166.756 168.782 
170.84 172.342 173.828 175.555 177.147 165.818 166.829 168.538 170.766 
172.655 174.099 175.685 177.515 179.24 165.709 166.726 168.214 170.277 
172.439 174.259 175.888 177.677 179.607 181.355 163.734 165.402 164.445 
167.376 166.245 165.142 169.749 168.482 167.212 165.989 172.362 171.182 
169.8 168.299 166.95 174.755 173.917 172.763 171.123 169.306 167.813 
176.858 176.313 175.619 174.325 172.302 170.244 168.598 179.084 178.63 
178.168 177.376 175.696 173.417 171.211 169.39 181.442 181.071 180.568 
179.967 178.753 176.777 174.42 172.087 170.121 183.503 183.504 185.234 
184.978 186.287 182.972 185.661 186.957 184.209 182.28 186.045 187.369 
184.714 183.264 181.274 186.219 186.956 184.934 183.565 181.894 179.612 
185.57 185.508 184.736 183.41 181.931 180.008 177.39 184.057 183.65 
183.765 182.719 181.434 179.886 177.611 174.79 182.26 181.903 182.264 
181.595 180.515 179.23 177.327 174.78 172.23 180.508 180.283 180.602 
180.261 179.416 178.255 176.636 174.437 172.132 170.185 182.178 184.214 
182.537 184.21 182.547 185.779 183.84 182.298 185.66 187.013 183.261 
181.437 185.086 187.134 187.986 182.056 179.748 184.023 186.235 187.924 
187.961 180.134 177.71 182.379 184.516 186.41 187.112 186.526 177.972 
175.755 180.304 182.505 184.396 185.441 185.284 184.499 175.819 173.844 
177.974 180.154 182.191 183.66 184.011 183.454 182.665 173.679 171.941 
175.557 177.463 179.404 181.227 182.31 182.338 181.755 181.032 164.95 
166.075 165.15 166.828 165.844 167.624 168.158 167.005 169.053 169.646 
169.456 168.061 170.561 171.243 171.845 170.391 168.913 171.594 172.497 
173.341 174.046 171.375 169.834 172.611 173.676 174.87 175.889 176.195 
172.431 170.72 173.91 175.277 176.783 178.068 178.535 178.242 173.251 
171.405 175.016 176.779 178.634 180.13 180.773 180.698 180.261 163.791 
163.93 162.686 162.793 161.502 164.073 161.554 160.276 162.989 164.74 
160.371 159.169 161.859 163.705 165.774 159.44 158.186 160.803 162.61 
164.601 166.644 158.503 157.167 159.876 161.466 163.377 165.309 167.428 
157.373 156.192 158.83 160.341 162.092 164.045 166.042 168.301 156.352 
155.412 157.731 159.26 160.875 162.782 164.796 166.836 169.087 155.646 