# vtk DataFile Version 4.0
vtk output
ASCII
DATASET POLYDATA
POINTS 1002 float
-102.867 -80.8966 75.6451 -102.821 -80.36 74.4476 -103.04 -79.9271 75.3957 
-103.137 -80.5344 76.6925 -103.425 -79.642 76.4703 -102.978 -81.5591 76.9498 
-103.552 -80.3458 77.8078 -104.058 -79.5764 77.5075 -103.269 -81.3117 78.1401 
-103.008 -82.3089 78.5466 -104.227 -80.3906 78.8365 -104.82 -79.6355 78.4612 
-103.732 -81.2578 79.31 -103.355 -82.1907 79.8518 -103.096 -83.2029 80.277 
-105.012 -80.5052 79.8524 -105.526 -79.6852 79.4509 -104.47 -81.4042 80.3382 
-103.994 -82.2799 80.9511 -103.706 -83.2622 81.4544 -103.546 -84.3362 81.7786 
-105.778 -80.6534 80.8904 -106.282 -79.886 80.4109 -105.306 -81.5718 81.3541 
-104.869 -82.5282 81.8651 -104.594 -83.5199 82.3604 -104.404 -84.5957 82.7782 
-104.156 -85.5718 83.1924 -106.69 -81.0674 81.7251 -107.216 -80.3644 81.1934 
-106.197 -81.8392 82.2881 -105.777 -82.7857 82.8103 -105.509 -83.8537 83.2483 
-105.307 -84.9509 83.6889 -105.01 -85.9429 84.1978 -104.706 -86.7687 84.6758 
-107.676 -81.6046 82.4252 -108.113 -80.864 81.9168 -107.181 -82.2925 83.0534 
-106.705 -83.1142 83.723 -106.374 -84.1735 84.2457 -106.142 -85.2996 84.6648 
-105.853 -86.3436 85.1386 -105.572 -87.2721 85.6071 -105.457 -88.1495 85.9337 
-108.446 -81.9437 83.2502 -108.788 -81.1917 82.7199 -108.034 -82.6711 83.8788 
-107.581 -83.474 84.5849 -107.216 -84.526 85.173 -106.985 -85.6942 85.5807 
-106.749 -86.7932 85.9757 -106.5 -87.8444 86.3847 -106.39 -88.8693 86.6957 
-106.419 -89.8358 86.9036 -109.014 -82.16 84.1312 -109.338 -81.4457 83.5374 
-108.672 -82.9362 84.7658 -108.315 -83.8004 85.4175 -107.995 -84.8971 85.9522 
-107.79 -86.1569 86.3071 -107.644 -87.3475 86.6396 -107.459 -88.4747 87.0357 
-107.316 -89.61 87.3763 -107.282 -90.6648 87.6117 -107.273 -91.5532 87.8128 
-103.047 -79.6479 73.727 -103.389 -79.2483 74.7391 -103.58 -79.1087 72.9535 
-104.146 -78.7744 73.9656 -104.428 -78.7195 72.3134 -103.982 -79.0477 75.8672 
-105.03 -78.29 73.2694 -105.285 -78.2195 71.8262 -104.839 -78.5807 75.101 
-104.726 -79.0088 76.942 -105.665 -77.5139 72.7175 -105.993 -77.5225 71.2745 
-105.554 -77.8885 74.3977 -105.484 -78.4289 76.2453 -105.436 -78.9831 77.9464 
-106.291 -76.7135 72.1632 -106.782 -76.9382 70.6493 -106.092 -76.9627 73.8701 
-106.154 -77.6323 75.6275 -106.171 -78.3204 77.3268 -106.148 -78.9892 78.956 
-107.196 -76.3045 71.6203 -107.669 -76.6021 70.1427 -106.895 -76.3393 73.3946 
-106.933 -76.8946 75.1499 -107.045 -77.6771 76.7409 -107.01 -78.3802 78.3454 
-107.012 -79.2393 79.9151 -108.151 -76.1097 71.1621 -108.504 -76.2915 69.719 
-107.902 -76.0882 72.9382 -107.875 -76.4463 74.7237 -107.95 -77.1755 76.2624 
-107.926 -77.9073 77.7588 -107.854 -78.6651 79.3514 -107.92 -79.7114 80.7753 
-109.075 -75.871 70.7215 -109.369 -75.9657 69.3044 -108.864 -75.8487 72.5005 
-108.783 -76.0242 74.3459 -108.751 -76.6107 75.9328 -108.689 -77.4076 77.3532 
-108.609 -78.1858 78.8495 -108.595 -79.1057 80.3252 -108.682 -80.1859 81.599 
-110.059 -75.7251 70.3452 -110.304 -75.8321 69.03 -109.842 -75.656 72.0704 
-109.69 -75.6556 73.9732 -109.55 -75.9905 75.6935 -109.42 -76.7097 77.1515 
-109.337 -77.5931 78.5337 -109.286 -78.5713 79.9123 -109.276 -79.6142 81.2176 
-109.308 -80.5869 82.422 -111.096 -75.8912 69.7504 -110.91 -75.7522 71.3064 
-111.811 -76.1496 70.8449 -111.714 -75.9726 72.5596 -112.464 -76.3801 72.1025 
-110.722 -75.6364 73.2392 -112.41 -76.3445 73.7796 -113.205 -76.5576 73.2086 
-111.524 -76.0341 74.4747 -110.507 -75.7328 75.1943 -113.043 -76.8016 74.7913 
-113.84 -77.0086 74.2335 -112.143 -76.8077 75.4781 -111.261 -76.3884 76.2951 
-110.303 -76.2008 76.8972 -113.52 -77.4868 75.9277 -114.035 -78.0422 75.4944 
-112.63 -77.5649 76.4184 -111.863 -77.3738 77.1557 -111.126 -76.8841 77.9517 
-110.208 -76.9945 78.3844 -113.862 -78.6378 77.3346 -114.058 -79.4595 76.8959 
-113.135 -78.3538 77.7208 -112.369 -78.311 78.1737 -111.802 -77.9356 78.8572 
-111.087 -77.7443 79.4712 -110.14 -78.1025 79.7622 -114.248 -80.0056 78.6617 
-114.279 -80.7446 78.1396 -113.748 -79.4124 79.1857 -113.008 -79.2627 79.56 
-112.341 -79.1545 79.96 -111.716 -78.9638 80.4851 -110.918 -79.0522 80.8885 
-110.027 -79.3383 81.0907 -114.575 -81.1784 79.7666 -114.515 -81.6981 79.2207 
-114.267 -80.5731 80.4205 -113.676 -80.2663 80.9279 -112.943 -80.272 81.2388 
-112.192 -80.2404 81.6048 -111.475 -80.1884 82.0259 -110.719 -80.2534 82.2921 
-109.953 -80.3839 82.3987 -114.632 -82.1563 80.7845 -114.51 -82.5038 80.2543 
-114.462 -81.7173 81.4491 -114.039 -81.3697 82.0571 -113.425 -81.2974 82.4288 
-112.676 -81.3155 82.7253 -111.965 -81.2231 83.1399 -111.335 -81.1324 83.5012 
-110.653 -81.1416 83.6444 -109.942 -81.2454 83.6314 -109.733 -82.2326 84.723 
-110.475 -82.1133 84.8618 -110.266 -83.4029 85.848 -111.242 -82.0655 84.8979 
-111.089 -83.3904 86.0326 -110.877 -84.9621 86.8221 -111.854 -82.1671 84.688 
-111.813 -83.4552 86.0848 -111.612 -85.0416 87.1107 -111.386 -86.688 87.8192 
-112.404 -82.4058 84.2483 -112.331 -83.7498 85.8279 -112.257 -85.2998 87.1625 
-112.032 -86.9204 88.1437 -111.826 -88.7218 88.9184 -113.059 -82.5682 83.8632 
-112.824 -84.1086 85.4358 -112.821 -85.7246 86.9258 -112.759 -87.3521 88.1072 
-112.553 -89.2272 89.1077 -112.336 -91.2364 90.0309 -113.7 -82.6258 83.5331 
-113.411 -84.2678 85.0999 -113.413 -85.9548 86.6689 -113.492 -87.643 87.9556 
-113.359 -89.6702 89.0236 -113.076 -91.8566 90.1499 -112.788 -93.7049 91.1839 
-114.186 -82.7787 82.9915 -113.957 -84.3027 84.5976 -114.004 -85.9391 86.2676 
-114.15 -87.623 87.8049 -114.049 -89.7775 89.0057 -113.727 -92.1963 90.1249 
-113.383 -94.2106 91.313 -113.09 -95.9051 92.2466 -114.454 -83.0227 82.2888 
-114.304 -84.332 83.8671 -114.413 -85.8641 85.5182 -114.615 -87.5372 87.276 
-114.548 -89.7543 88.8686 -114.212 -92.3604 90.1152 -113.877 -94.5691 91.2387 
-113.625 -96.3857 92.2614 -113.402 -98.4181 92.9284 -114.445 -83.2639 81.6467 
-114.379 -84.3903 83.1405 -114.535 -85.8141 84.6685 -114.792 -87.4814 86.375 
-114.815 -89.7136 88.2413 -114.55 -92.4585 89.8711 -114.259 -94.9058 91.0929 
-114.094 -96.8451 92.0718 -113.97 -98.9405 92.8123 -113.807 -101.464 93.193 
-109.389 -83.1052 85.3803 -109.98 -84.5564 86.4177 -109.092 -84.0948 86.0105 
-110.683 -86.3761 87.2905 -109.795 -85.8513 86.9169 -108.838 -85.2777 86.5367 
-111.236 -88.3743 88.3746 -110.55 -87.9677 87.805 -109.6 -87.3297 87.3878 
-108.618 -86.6815 86.9096 -111.699 -90.747 89.6528 -111.104 -90.2656 89.0532 
-110.319 -89.6336 88.4851 -109.357 -88.8481 87.9026 -108.469 -88.0678 87.2622 
-112.213 -93.3276 90.8876 -111.659 -92.7945 90.3326 -110.996 -92.0828 89.7741 
-110.102 -91.1825 89.1887 -109.184 -90.2512 88.4615 -108.338 -89.3446 87.7143 
-112.629 -95.8099 92.0365 -112.236 -95.4984 91.4601 -111.792 -94.8727 90.8206 
-111.038 -93.8703 90.2742 -110.044 -92.7122 89.676 -109.093 -91.6431 88.9422 
-108.209 -90.6199 88.1406 -112.944 -98.6274 92.8926 -112.612 -98.5982 92.4884 
-112.386 -98.1735 91.8555 -111.956 -97.1925 91.1891 -111.123 -95.7371 90.5605 
-110.075 -94.2424 89.9582 -109.057 -92.9616 89.2595 -108.137 -91.7951 88.4274 
-113.329 -102.022 93.2413 -112.904 -102.218 93.1054 -112.635 -101.891 92.8016 
-112.383 -100.947 92.2982 -111.922 -99.3486 91.5586 -111.152 -97.3621 90.7932 
-110.112 -95.4948 90.1554 -109.014 -93.9851 89.4685 -108.071 -92.7197 88.6433 
-113.979 -105.421 93.1864 -113.468 -106.033 93.1228 -114.194 -109.341 92.7319 
-113.672 -109.547 92.5709 -114.471 -112.344 91.851 -112.975 -105.88 93.1036 
-113.928 -112.064 91.6601 -114.767 -114.763 90.8016 -113.048 -108.765 92.6978 
-112.553 -104.942 93.0848 -114.122 -114.158 90.7624 -114.839 -116.569 89.8584 
-113.168 -110.871 91.8703 -112.411 -107.226 92.9035 -112.182 -103.295 92.685 
-113.963 -115.285 90.1544 -114.423 -116.571 89.0607 -113.226 -112.552 91.1081 
-112.414 -108.962 92.1834 -112.023 -105.031 92.5672 -111.799 -100.99 91.7926 
-113.328 -114.595 89.7297 -113.625 -114.943 88.6348 -112.92 -112.978 90.7494 
-112.4 -110.037 91.5619 -112.025 -106.249 92.0221 -111.727 -102.137 91.6963 
-111.065 -98.3908 90.9016 -112.537 -112.828 89.5858 -112.83 -112.817 88.9355 
-112.277 -111.899 90.5649 -112.055 -109.76 91.3277 -111.854 -106.573 91.6307 
-111.507 -102.747 91.4386 -110.782 -99.0183 90.897 -109.84 -96.1141 90.2189 
-111.89 -110.503 89.8459 -112.199 -110.237 89.6351 -111.636 -109.939 90.449 
-111.502 -108.298 91.1155 -111.385 -105.739 91.4126 -110.998 -102.588 91.2484 
-110.196 -99.2748 90.8309 -109.285 -96.4751 90.2489 -108.592 -94.4137 89.479 
-111.337 -107.554 90.0803 -111.621 -107.143 89.9734 -111.088 -107.334 90.354 
-110.935 -106.19 90.7591 -110.79 -104.213 91.0352 -110.385 -101.774 90.9665 
-109.565 -99.1455 90.6416 -108.646 -96.6848 90.1596 -108.033 -94.7073 89.4503 
-107.664 -93.0815 88.5921 -114.322 -102.99 93.1591 -114.518 -107.186 93.0675 
-114.652 -104.217 93.0883 -114.796 -108.282 92.8235 -114.742 -104.763 92.7689 
-114.752 -111.015 92.4101 -114.834 -108.419 92.2258 -114.778 -104.352 92.022 
-115.054 -111.882 91.8568 -115.094 -114.035 91.253 -114.813 -107.355 91.5101 
-114.783 -102.969 91.1837 -115.063 -111.621 91.1502 -115.455 -114.889 90.4193 
-115.407 -116.554 89.9188 -114.725 -105.155 91.0765 -114.559 -100.982 90.4929 
-114.834 -109.806 90.92 -115.303 -114.121 89.9527 -115.68 -116.931 88.9505 
-115.307 -117.578 88.6865 -114.478 -102.43 90.5228 -114.142 -98.8896 89.5824 
-114.577 -106.729 90.9387 -114.764 -111.333 90.3633 -115.279 -115.106 88.9782 
-115.352 -116.764 87.9534 -114.631 -116.337 87.9511 -114.05 -99.7711 89.4506 
-113.691 -96.959 88.335 -114.349 -103.321 90.3136 -114.395 -107.379 90.5894 
-114.601 -111.341 89.8978 -114.857 -114.057 88.711 -114.537 -114.786 88.0393 
-113.716 -114.084 88.2295 -113.468 -97.4272 88.1987 -113.206 -95.2908 87.0962 
-113.892 -100.189 89.1648 -114.124 -103.412 89.8974 -114.171 -106.815 90.1596 
-114.249 -109.888 89.8444 -114.13 -111.81 89.3087 -113.628 -112.203 89.0459 
-112.923 -111.501 89.2179 -112.853 -95.5516 87.0323 -112.691 -93.9554 86.0066 
-113.198 -97.5997 87.9917 -113.547 -100.037 88.8098 -113.721 -102.662 89.4374 
[...]
CELL_DATA 2000
SCALARS Distance double
LOOKUP_TABLE default
149.675 150.196 150.153 150.689 150.972 150.793 151.335 151.275 151.875 
151.963 151.687 152.216 152.042 152.674 152.567 153.232 153.02 152.742 
153.293 153.043 153.687 153.491 154.212 154.059 154.818 154.11 153.832 
154.437 154.177 154.847 154.607 155.359 155.159 155.979 155.792 156.608 
155.335 155.005 155.648 155.359 156.063 155.812 156.588 156.375 157.219 
157.024 157.87 157.641 158.431 156.617 156.295 156.942 156.624 157.331 
157.059 157.849 157.629 158.478 158.281 159.132 158.915 159.727 159.471 
160.273 157.758 157.524 158.157 157.897 158.576 158.327 159.095 158.889 
159.731 159.54 160.391 160.18 161.016 160.78 161.626 161.375 162.252 
158.737 158.569 159.198 159.02 159.69 159.506 160.248 160.086 160.906 
160.757 161.609 161.434 162.291 162.084 162.962 162.74 163.638 163.401 
164.279 149.176 148.734 149.158 149.7 148.623 148.873 149.436 149.839 
150.515 148.69 148.868 149.395 149.713 150.383 150.781 151.514 148.607 
148.835 149.258 149.639 150.26 150.686 151.37 151.801 152.528 148.473 
148.638 148.984 149.376 149.988 150.49 151.195 151.65 152.358 152.805 
153.575 148.594 148.605 148.969 149.183 149.853 150.265 151.085 151.513 
152.295 152.685 153.476 153.919 154.783 148.874 148.862 149.274 149.371 
150.058 150.326 151.187 151.534 152.372 152.706 153.502 153.882 154.733 
155.191 156.065 149.16 149.179 149.629 149.737 150.384 150.609 151.387 
151.698 152.486 152.814 153.572 153.926 154.718 155.145 155.979 156.44 
157.226 149.568 149.538 150.032 150.104 150.734 150.907 151.612 151.868 
152.595 152.903 153.639 153.98 154.746 155.131 155.929 156.35 157.125 
157.54 158.239 150.045 151.106 150.531 150.549 152.314 151.707 151.734 
151.15 151.264 153.513 152.952 153.043 152.432 152.524 151.939 152.115 
154.677 154.149 154.295 153.751 153.888 153.272 153.403 152.83 153.056 
155.895 155.339 155.489 154.973 155.168 154.626 154.802 154.195 154.391 
153.825 154.1 157.279 156.667 156.863 156.241 156.469 155.911 156.177 
155.609 155.872 155.261 155.534 154.94 155.244 158.75 158.168 158.46 
157.767 158.034 157.357 157.672 157.05 157.391 156.78 157.1 156.465 
156.757 156.13 156.431 160.067 159.628 159.972 159.386 159.669 159.011 
159.306 158.645 158.96 158.327 158.647 158.03 158.321 157.683 157.941 
157.316 157.589 161.11 160.822 161.181 160.769 161.057 160.542 160.803 
160.225 160.47 159.866 160.121 159.534 159.81 159.214 159.463 158.828 
159.048 158.434 158.67 159.447 159.888 160.05 160.878 160.339 160.544 
161.441 161.612 162.533 160.688 160.968 161.919 162.186 163.164 163.339 
164.287 160.986 161.277 162.253 162.614 163.67 163.952 164.957 165.117 
166.122 161.328 161.589 162.561 162.933 164.057 164.433 165.547 165.789 
166.879 167.053 168.211 161.643 161.924 162.878 163.254 164.395 164.827 
166.024 166.368 167.541 167.81 169.031 169.26 170.476 161.838 162.165 
163.071 163.504 164.606 165.121 166.333 166.805 168.018 168.41 169.643 
169.996 171.213 171.465 172.569 161.882 162.252 163.064 163.557 164.564 
165.181 166.346 166.984 168.218 168.782 170.03 170.499 171.707 172.068 
173.179 173.428 174.488 161.759 162.172 162.886 163.408 164.304 164.968 
166.048 166.81 168.037 168.808 170.107 170.767 172.01 172.481 173.61 
173.947 175.045 175.336 176.484 159.478 160.892 160.095 159.983 162.551 
161.643 161.527 160.663 160.548 164.341 163.411 163.339 162.362 162.253 
161.302 161.187 166.24 165.288 165.324 164.305 164.249 163.173 163.057 
162.021 161.902 168.388 167.347 167.485 166.413 166.453 165.308 165.218 
164.042 163.901 162.797 162.653 170.681 169.642 169.827 168.711 168.819 
167.633 167.602 166.333 166.191 164.936 164.769 163.59 163.402 172.824 
171.926 172.181 171.122 171.3 170.113 170.164 168.839 168.729 167.351 
167.172 165.845 165.643 164.379 164.145 174.866 174.061 174.499 173.517 
173.871 172.712 172.918 171.556 171.526 170.023 169.829 168.355 168.115 
166.729 166.459 165.14 164.854 177.001 176.231 176.872 175.943 176.477 
175.386 175.747 174.436 174.507 172.958 172.748 171.122 170.789 169.256 
168.894 167.484 167.119 165.809 165.47 178.497 180.81 179.291 178.435 
182.704 181.454 180.58 179.081 178.051 184.007 183.017 182.145 180.96 
179.907 178.499 177.285 184.946 184.126 183.179 182.189 181.116 180.021 
178.767 177.44 175.971 185.072 184.784 183.828 183.043 181.874 180.938 
179.659 178.584 177.054 175.768 174.095 183.947 184.331 183.553 183.337 
182.175 181.496 180.137 179.236 177.671 176.565 174.802 173.617 171.939 
182.269 182.868 182.277 182.577 181.591 181.404 180.041 179.452 177.806 
176.925 175.074 174.056 172.259 171.325 169.815 180.605 181.196 180.611 
181.094 180.214 180.411 179.132 178.948 177.298 176.743 174.844 174.053 
172.184 171.406 169.829 169.17 167.885 178.705 179.417 178.721 179.325 
178.413 178.82 177.603 177.718 176.177 175.94 174.149 173.606 171.795 
171.162 169.602 169.046 167.777 167.274 166.17 178.878 180 180.107 
181.246 180.593 181.069 182.31 182.379 183.195 180.398 181.305 182.621 
183.152 184.11 184.082 184.582 179.457 180.706 182.053 183.064 184.2 
184.714 185.429 185.324 185.569 177.986 179.442 180.746 182.112 183.316 
184.396 185.259 185.778 186.03 185.926 185.591 176.133 177.706 178.894 
180.478 181.592 183.067 183.922 185.036 185.276 185.751 185.253 185.197 
184.292 174.044 175.617 176.628 178.33 179.286 180.962 181.716 183.199 
183.508 184.471 184.102 184.409 183.557 183.496 182.553 171.969 173.388 
174.18 175.845 176.632 178.369 178.988 180.655 181.002 182.369 182.271 
183.042 182.46 182.668 181.848 181.792 180.919 170.118 171.303 171.883 
173.339 173.952 175.578 176.061 177.731 178.008 179.609 179.621 180.915 
180.55 181.327 180.607 180.921 180 180.053 179.029 161.832 162.359 
162.376 163.017 163.154 163.074 163.82 163.746 164.512 164.18 164.079 
164.947 164.769 165.64 165.457 166.33 165.193 165.204 166.234 166.077 
167.05 166.791 167.768 167.489 168.435 166.188 166.249 167.41 167.383 
168.479 168.302 169.387 169.112 170.192 169.793 170.695 167.299 167.33 
168.531 168.55 169.746 169.701 170.911 170.774 171.977 171.671 172.672 
172.095 172.751 168.316 168.438 169.646 169.71 170.971 170.988 172.319 
172.286 173.623 173.451 174.577 174.105 174.825 174.048 174.436 169.005 
169.297 170.542 170.769 172.117 172.256 173.696 173.742 175.195 175.108 
176.394 176.033 176.944 176.207 176.715 175.72 175.992 169.477 169.859 
171.165 171.557 173.014 173.348 174.892 175.102 176.622 176.669 178.049 
177.859 178.963 178.406 179.132 178.177 178.57 177.379 177.579 161.203 
160.285 161.054 161.666 159.255 160.12 160.829 161.606 162.379 158.244 
159.124 159.935 160.776 161.561 162.386 163.262 157.354 158.157 158.955 
159.854 160.629 161.495 162.262 163.203 164.11 156.594 157.282 157.952 
158.822 159.561 160.469 161.185 162.112 162.94 163.997 165.019 155.942 
156.527 157.085 157.822 158.501 159.371 160.117 161.023 161.855 162.845 
163.874 164.991 166.131 155.392 155.9 156.392 156.991 157.567 158.34 
159.067 159.975 160.819 161.792 162.77 163.862 164.964 166.116 167.163 
154.938 155.383 155.809 156.31 156.752 157.411 158.02 158.904 159.701 
160.709 161.606 162.694 163.676 164.855 165.84 166.996 167.858 154.541 
154.932 155.288 155.72 156.066 156.599 157.088 157.851 158.58 159.546 
160.407 161.459 162.365 163.494 164.423 165.59 166.457 167.568 168.333 
154.424 154.35 154.641 155.114 154.292 154.564 155.1 155.359 155.88 
154.536 154.646 155.271 155.453 156.09 156.258 156.934 155.101 155.069 
155.706 155.799 156.561 156.67 157.481 157.576 158.459 155.667 155.669 
156.25 156.32 157.115 157.264 158.192 158.299 159.258 159.323 160.304 
156.043 156.164 156.805 156.888 157.695 157.853 158.849 159.039 160.093 
160.204 161.227 161.263 162.271 156.388 156.553 157.365 157.495 158.412 
158.529 159.568 159.731 160.858 161.029 162.148 162.234 163.293 163.293 
164.316 156.888 157.019 157.935 158.116 159.146 159.312 160.392 160.531 
161.649 161.812 162.975 163.139 164.275 164.343 165.389 165.362 166.336 
157.523 157.624 158.548 158.728 159.767 160.005 161.102 161.323 162.427 
162.614 163.75 163.948 165.117 165.281 166.382 166.423 167.402 167.341 
168.227 158.192 159.685 159.03 159.284 161.381 160.66 160.942 160.222 
160.526 163.35 162.53 162.912 162.045 162.379 161.581 161.919 165.72 
164.775 165.332 164.288 164.714 163.672 164.029 163.075 163.362 168.276 
167.342 167.993 166.927 167.441 166.272 166.647 165.447 165.708 164.578 
164.779 170.745 169.918 170.612 169.62 170.178 169.065 169.477 168.229 
168.465 167.144 167.285 166.05 166.19 173.226 172.466 173.389 172.361 
173.073 171.881 172.402 171.11 171.411 170.013 170.12 168.712 168.751 
167.463 167.492 175.678 175.075 176.283 175.355 176.302 175.045 175.69 
174.237 174.607 173.072 173.2 171.647 171.606 170.118 170.001 168.662 
168.531 177.728 177.418 178.665 178.131 179.153 178.25 178.93 177.626 
177.953 176.387 176.453 174.802 174.686 173.043 172.791 171.237 170.941 
169.574 169.331 157.806 157.599 158.205 159.248 157.359 157.992 159.1 
159.748 160.907 157.21 157.812 158.949 159.603 160.803 161.459 162.752 
157.019 157.68 158.806 159.471 160.65 161.328 162.655 163.423 164.967 
156.583 157.354 158.434 159.224 160.383 161.144 162.479 163.312 164.929 
165.814 167.502 156.105 156.838 157.887 158.712 159.901 160.782 162.188 
163.124 164.784 165.755 167.49 168.35 169.951 155.825 156.459 157.535 
158.231 159.447 160.292 161.783 162.798 164.526 165.574 167.298 168.242 
169.832 170.68 172.234 155.631 156.259 157.362 158.005 159.193 159.939 
161.389 162.388 164.131 165.253 166.981 167.977 169.516 170.427 171.944 
172.904 174.497 155.416 156.048 157.126 157.812 158.947 159.685 160.999 
161.956 163.585 164.76 166.48 167.579 169.103 170.044 171.487 172.477 
174.014 175.076 176.566 156.951 155.801 156.481 156.728 154.839 155.425 
155.592 156.216 156.453 153.867 154.49 154.644 155.161 155.256 155.925 
156.228 152.776 153.438 153.566 154.151 154.142 154.73 154.843 155.672 
155.992 151.632 152.271 152.32 152.953 152.887 153.492 153.461 154.223 
154.388 155.328 155.583 150.434 151.055 151.067 151.692 151.636 152.197 
152.123 152.781 152.856 153.701 153.908 154.851 155.117 149.334 149.838 
149.837 150.445 150.442 151.007 150.971 151.525 151.576 152.249 152.425 
153.239 153.5 154.436 154.79 148.646 148.898 148.842 149.276 149.264 
149.821 149.849 150.433 150.526 151.115 151.279 151.915 152.138 152.908 
153.226 154.171 154.579 148.376 148.434 148.333 148.489 148.417 148.758 
148.803 149.337 149.517 150.122 150.34 150.908 151.108 151.701 151.953 
152.706 153.07 153.996 154.416 148.283 148.134 148.202 148.195 148.021 
148.071 148.044 148.1 148.167 147.935 147.993 148.031 148.032 148.094 
148.173 148.468 147.814 147.905 148.033 148.1 148.262 148.255 148.536 
148.67 149.186 147.722 147.787 147.933 148.087 148.318 148.425 148.682 
148.799 149.215 149.467 150.016 147.806 147.791 147.943 148.019 148.226 
148.37 148.562 148.766 149.062 149.393 149.867 150.238 150.761 148.089 
148.024 148.251 148.185 148.397 148.361 148.536 148.592 148.868 149.133 
149.642 150.044 150.659 151.005 151.603 148.531 148.44 148.76 148.637 
148.926 148.752 149.006 148.827 149.165 149.15 149.742 149.968 150.737 
151.026 151.77 152.002 152.714 149.112 148.987 149.362 149.227 149.586 
149.409 149.761 149.533 149.937 149.749 150.334 150.342 151.137 151.306 
152.138 152.315 153.09 153.258 154.033 149.628 150.607 150.023 149.882 
151.752 151.069 150.884 150.281 150.121 153.081 152.293 152.095 151.369 
151.184 150.539 150.357 154.65 153.739 153.557 152.7 152.515 151.725 
151.544 150.822 150.63 156.417 155.433 155.278 154.313 154.156 153.215 
153.04 152.159 152.004 151.198 151.09 158.231 157.251 157.122 156.134 
156.035 155.023 154.898 153.856 153.726 152.755 152.707 151.848 151.887 
160.118 159.117 159.036 158.022 157.966 156.968 156.929 155.871 155.797 
154.693 154.647 153.631 153.668 152.783 152.866 162.172 161.14 161.159 
160.056 160.025 158.95 158.939 157.916 157.912 156.851 156.816 155.716 
155.693 154.661 154.68 153.769 153.818 164.24 163.282 163.395 162.303 
162.313 161.139 161.094 159.969 159.954 158.92 158.917 157.875 157.827 
156.746 156.692 155.658 155.652 154.722 154.77 155.635 156.564 156.498 
157.358 157.647 157.524 158.427 158.326 159.229 158.824 158.697 159.664 
159.517 160.534 160.347 161.379 159.951 159.905 160.997 160.884 162.067 
161.866 163.116 162.815 164.064 161.07 161.069 162.33 162.305 163.698 
163.574 165.016 164.759 166.157 165.762 167.002 162.323 162.314 163.709 
163.726 165.269 165.266 166.841 166.715 168.18 167.879 169.131 168.649 
169.651 163.584 163.638 165.051 165.131 166.673 166.794 168.411 168.461 
169.995 169.84 171.168 170.76 171.848 171.22 172.115 164.62 164.798 
166.138 166.335 167.79 168.047 169.655 169.899 171.531 171.577 173.061 
172.806 174.073 173.521 174.581 173.801 174.712 165.402 165.669 166.94 
167.229 168.622 168.985 170.597 171.01 172.75 173.028 174.663 174.65 
176.049 175.726 176.874 176.279 177.217 176.426 177.221 149.269 148.904 
148.983 148.874 148.678 148.728 148.645 148.713 148.671 148.442 148.513 
148.437 148.519 148.472 148.556 148.519 148.334 148.314 148.205 148.257 
148.16 148.293 148.269 148.411 148.407 148.409 148.301 148.172 148.095 
147.96 147.973 147.94 148.104 148.166 148.328 148.357 148.378 148.325 
148.179 148.133 148.038 147.942 147.904 147.89 147.956 148.069 148.132 
148.258 148.264 148.243 148.176 147.993 148.048 148 148.036 148.022 
147.987 147.99 147.974 147.991 148.036 148.044 148.146 148.178 148.365 
148.123 147.93 147.867 147.813 147.892 147.886 147.981 147.95 147.994 
147.953 147.966 147.957 147.989 148.038 148.125 148.217 148.835 148.447 
148.267 147.993 147.906 147.79 147.755 147.773 147.755 147.837 147.83 
147.903 147.916 147.957 148.003 148.052 148.133 148.211 148.293 149.545 
149.097 149.482 149.951 148.815 149.079 149.479 149.965 150.528 148.603 
148.784 149.071 149.501 150.047 150.588 151.155 148.469 148.557 148.722 
149.055 149.539 150.102 150.712 151.224 151.724 148.437 148.47 148.579 
148.743 149.143 149.607 150.249 150.791 151.349 151.77 152.166 148.398 
148.472 148.633 148.706 149.071 149.344 149.98 150.422 151.061 151.445 
151.882 152.181 152.488 148.34 148.442 148.668 148.785 149.143 149.355 
149.932 150.284 150.947 151.282 151.798 152.013 152.36 152.535 152.834 
148.35 148.421 148.634 148.779 149.086 149.333 149.789 150.175 150.761 
151.182 151.723 152.005 152.391 152.531 152.84 152.968 153.309 148.392 
148.444 148.607 148.726 148.976 149.191 149.551 149.902 150.384 150.858 
151.374 151.821 152.225 152.515 152.803 152.988 153.278 153.47 153.821 
150.033 150.473 150.493 151.08 151.04 151.001 151.548 151.607 152.24 
151.626 151.573 152.09 152.104 152.698 152.774 153.409 152.167 152.139 
152.68 152.684 153.314 153.314 153.947 153.966 154.598 152.58 152.627 
153.2 153.281 153.965 153.993 154.625 154.578 155.154 155.155 155.79 
152.827 152.935 153.467 153.684 154.337 154.536 155.1 155.159 155.593 
155.634 156.165 156.32 157.037 153.094 153.135 153.584 153.808 154.383 
154.695 155.202 155.408 155.744 155.87 156.28 156.534 157.223 157.571 
158.394 153.564 153.484 153.894 153.953 154.479 154.685 155.216 155.421 
155.836 155.954 156.382 156.583 157.26 157.645 158.502 158.903 159.697 
154.132 154.036 154.451 154.389 154.885 154.916 155.464 155.559 156.103 
156.176 156.738 156.827 157.53 157.762 158.608 158.963 159.776 160.11 
160.768 156.795 156.164 156.172 155.649 155.672 155.578 155 155.062 
154.628 155.427 155.222 154.578 154.45 153.907 154.023 153.612 155.173 
155.056 154.474 154.201 153.584 153.418 152.942 153.02 152.614 154.601 
154.676 154.189 154.105 153.551 153.303 152.781 152.586 152.14 152.089 
151.612 153.981 154.013 153.537 153.637 153.175 153.173 152.667 152.523 
151.974 151.785 151.188 151.065 150.464 153.773 153.572 153.12 153.052 
152.65 152.672 152.216 152.213 151.636 151.54 150.857 150.693 150.017 
149.911 149.376 153.897 153.593 153.207 152.935 152.599 152.381 151.992 
151.805 151.288 151.122 150.515 150.346 149.747 149.581 149.11 149.012 
148.717 153.993 153.757 153.393 153.148 152.847 152.57 152.237 151.876 
151.419 151.018 150.5 150.163 149.696 149.449 149.089 148.916 148.684 
148.584 148.455 
POINT_DATA 1002
SCALARS Distance double
LOOKUP_TABLE default
150.156 149.241 149.632 150.673 150.286 151.242 151.422 151.21 151.912 
152.476 152.431 152.249 152.796 153.318 153.906 153.548 153.266 153.903 
154.364 154.956 155.595 154.683 154.382 155.083 155.558 156.158 156.825 
157.405 155.952 155.672 156.311 156.797 157.411 158.091 158.695 159.194 
157.264 156.917 157.612 158.071 158.681 159.344 159.962 160.525 161.099 
158.393 157.964 158.818 159.301 159.917 160.596 161.235 161.853 162.502 
163.158 159.351 158.897 159.852 160.403 161.044 161.759 162.472 163.166 
163.868 164.546 165.134 148.66 149.185 148.363 149.076 148.437 150.052 
149.097 148.54 150.018 151.086 148.872 148.414 149.809 150.959 152.071 
148.634 148.376 149.452 150.707 151.925 153.081 148.81 148.602 149.47 
150.641 151.911 153.054 154.297 149.178 148.848 149.839 150.871 152.053 
153.156 154.298 155.606 149.517 149.118 150.198 151.121 152.173 153.236 
154.326 155.534 156.798 149.983 149.608 150.603 151.407 152.314 153.303 
154.38 155.534 156.722 157.859 150.549 151.066 151.707 152.352 152.886 
151.788 153.622 154.035 153.16 152.628 154.792 155.207 154.475 154.033 
153.553 156.023 156.461 155.658 155.375 155.002 154.622 157.522 157.859 
157.049 156.704 156.455 156.163 155.821 159.129 159.266 158.735 158.321 
157.996 157.725 157.414 157.039 160.493 160.444 160.296 159.979 159.622 
159.265 158.954 158.598 158.188 161.531 161.359 161.522 161.356 161.077 
160.715 160.387 160.092 159.701 159.258 160.188 160.707 161.741 161.227 
162.391 163.47 161.589 162.944 164.16 165.235 161.86 163.314 164.756 
165.96 167.176 162.196 163.63 165.233 166.654 168.026 169.438 162.501 
163.94 165.62 167.22 168.754 170.321 171.674 162.641 164.076 165.807 
167.576 169.262 170.92 172.405 173.633 162.597 163.958 165.663 167.572 
169.513 171.324 172.884 174.251 175.584 162.392 163.672 165.286 167.199 
169.346 171.474 173.242 174.709 176.18 177.696 160.748 162.443 161.391 
164.322 163.256 162.115 166.313 165.341 164.152 162.905 168.556 167.59 
166.434 165.072 163.731 170.937 169.993 168.879 167.497 166.009 164.57 
173.171 172.441 171.472 170.145 168.55 166.96 165.403 175.388 174.947 
174.232 173.058 171.381 169.56 167.827 166.151 177.735 177.507 176.991 
176.029 174.442 172.429 170.383 168.476 166.732 180.076 180.08 182.289 
182.006 183.828 179.672 183.227 184.976 181.216 178.85 184.186 185.684 
182.138 180.01 177.453 184.489 185.047 182.817 180.679 178.303 175.42 
183.464 183.334 182.713 181.004 178.74 175.984 173.01 181.813 181.669 
181.564 180.506 178.626 176.065 173.183 170.588 180.115 180.039 179.915 
179.176 177.728 175.554 172.923 170.452 168.448 178.104 177.981 177.955 
177.382 176.263 174.55 172.351 170.117 168.24 166.644 178.876 181.386 
179.754 182.083 179.962 183.478 181.886 179.365 183.913 184.951 180.882 
178.143 183.41 185.293 186.054 179.317 176.512 182.059 184.499 185.995 
186.045 177.302 174.593 180.077 182.661 184.623 185.215 184.5 174.964 
172.58 177.627 180.171 182.335 183.583 183.515 182.66 172.627 170.703 
174.954 177.325 179.481 181.209 182.039 181.839 181.055 170.583 169.071 
172.442 174.464 176.401 178.154 179.515 180.115 179.881 179.075 161.75 
162.99 162.34 163.895 163.231 164.58 165.115 164.197 165.835 166.508 
166.303 165.082 167.287 168.034 168.768 167.366 166.119 168.564 169.593 
170.544 171.276 168.507 167.275 169.726 170.953 172.195 173.204 173.547 
169.535 168.141 170.902 172.292 173.719 174.965 175.572 175.364 170.218 
168.66 171.877 173.58 175.224 176.653 177.576 177.696 177.096 160.504 
160.913 159.442 160.008 158.319 161.57 159.048 157.37 160.754 162.362 
158.058 156.639 159.763 161.373 163.054 157.154 155.993 158.648 160.275 
161.912 163.858 156.438 155.4 157.667 159.192 160.888 162.769 165 
155.869 154.913 156.873 158.165 159.849 161.725 163.82 166.075 155.371 
154.533 156.192 157.198 158.702 160.557 162.54 164.672 166.774 154.897 