# vtk DataFile Version 4.0
vtk output
ASCII
DATASET POLYDATA
POINTS 1002 float
-103.369 -82.24 77.9524 -103.546 -81.6027 76.7684 -103.901 -81.5444 77.7035 
-103.698 -82.2111 79.0301 -104.267 -81.5395 78.7755 -103.302 -83.1592 79.2808 
-104.05 -82.2466 80.2061 -104.668 -81.6321 79.8559 -103.569 -83.13 80.5314 
-103.333 -84.2217 80.8088 -104.575 -82.4446 81.2357 -105.175 -81.7573 80.8589 
-104.018 -83.1933 81.6874 -103.679 -84.2669 82.0571 -103.518 -85.3505 82.3851 
-105.306 -82.7078 82.1932 -105.767 -81.8215 81.8923 -104.781 -83.4855 82.602 
-104.369 -84.4713 83.0409 -104.074 -85.5833 83.4592 -103.904 -86.6434 83.859 
-106.012 -82.8833 83.3132 -106.34 -81.9425 82.9829 -105.588 -83.8257 83.6371 
-105.177 -84.8255 83.9862 -104.858 -85.9109 84.4126 -104.559 -86.951 84.8788 
-104.425 -88.0252 85.2523 -106.584 -83.086 84.4379 -106.887 -82.2184 84.0201 
-106.239 -84.0791 84.8154 -105.812 -85.1275 85.1468 -105.536 -86.239 85.5021 
-105.333 -87.2987 85.933 -105.134 -88.3551 86.3207 -105.145 -89.5026 86.5407 
-107.193 -83.4246 85.3708 -107.485 -82.5457 84.9794 -106.934 -84.4373 85.7501 
-106.537 -85.4603 86.1437 -106.236 -86.5842 86.5207 -106.148 -87.7743 86.8966 
-106.049 -88.9018 87.2788 -105.998 -90.0721 87.5464 -106.123 -91.2606 87.6572 
-107.91 -83.8484 86.1758 -108.137 -82.9108 85.8476 -107.747 -84.9483 86.4724 
-107.466 -85.9906 86.845 -107.175 -87.0593 87.264 -107.087 -88.3527 87.6185 
-107.043 -89.6614 87.9586 -106.981 -90.8423 88.2962 -107.041 -92.0072 88.5112 
-107.163 -93.0992 88.5969 -108.608 -84.3402 86.8989 -108.771 -83.4062 86.5666 
-108.497 -85.4723 87.1857 -108.306 -86.5835 87.531 -108.061 -87.6208 87.9585 
-107.966 -88.8703 88.319 -107.945 -90.3196 88.5746 -107.878 -91.6101 88.8516 
-107.91 -92.7107 89.125 -108.04 -93.7605 89.2882 -108.092 -94.7132 89.3636 
-104.014 -81.0733 76.1237 -104.36 -80.9494 77.1529 -104.458 -80.4411 75.4863 
-104.747 -80.139 76.6418 -104.9 -79.5937 74.9739 -104.734 -80.8449 78.2926 
-105.193 -79.1571 76.1987 -105.544 -78.7467 74.5599 -105.107 -79.8277 77.8682 
-105.15 -80.7845 79.4347 -105.967 -78.4533 75.7192 -106.359 -78.0771 74.0892 
-105.616 -78.8655 77.4253 -105.548 -79.6482 79.0889 -105.617 -80.737 80.5564 
-106.945 -77.9927 75.2028 -107.127 -77.4472 73.6203 -106.522 -78.4143 76.8944 
-106.14 -78.8657 78.6909 -106.048 -79.6835 80.3194 -106.164 -80.8166 81.6704 
-107.776 -77.3629 74.8593 -107.87 -76.8854 73.3519 -107.562 -77.9704 76.4533 
-107.091 -78.4776 78.2404 -106.729 -79.0443 80.0332 -106.721 -80.0113 81.4597 
-106.813 -81.1602 82.7176 -108.428 -76.7223 74.7223 -108.686 -76.5551 73.2357 
-108.303 -77.2073 76.2447 -108.026 -77.8561 77.8943 -107.617 -78.4749 79.6922 
-107.487 -79.3666 81.2235 -107.544 -80.5348 82.4519 -107.488 -81.5808 83.7346 
-109.117 -76.312 74.6331 -109.53 -76.3355 73.1427 -108.842 -76.5589 76.1499 
-108.647 -77.149 77.6871 -108.388 -77.8214 79.3613 -108.233 -78.6692 80.9397 
-108.277 -79.8582 82.2087 -108.237 -80.9999 83.4521 -108.101 -81.9203 84.7568 
-109.939 -76.005 74.5695 -110.316 -76.0679 73.1136 -109.545 -76.1586 76.0742 
-109.234 -76.6877 77.5593 -109.025 -77.3797 79.1042 -108.911 -78.1492 80.6395 
-108.883 -79.207 81.963 -108.838 -80.3863 83.1918 -108.722 -81.3794 84.4864 
-108.667 -82.3179 85.6689 -110.886 -75.7594 74.1363 -110.588 -75.801 75.6845 
-111.496 -75.7404 75.3424 -111.308 -76.0117 76.9015 -111.998 -76.3238 76.5145 
-110.187 -76.2469 77.2346 -111.902 -76.7554 78.0516 -112.404 -77.2864 77.5764 
-110.956 -76.6493 78.4736 -109.849 -76.9929 78.7985 -112.301 -77.7933 79.1019 
-112.873 -78.1427 78.6758 -111.618 -77.3433 79.6322 -110.696 -77.4255 80.0821 
-109.712 -77.8037 80.3723 -112.646 -78.9017 80.178 -113.385 -78.946 79.8427 
-111.984 -78.4535 80.6797 -111.419 -78.1419 81.2537 -110.601 -78.402 81.6176 
-109.628 -78.802 81.8053 -113.106 -79.9532 81.3301 -113.787 -79.9734 80.9736 
-112.311 -79.8377 81.7736 -111.823 -79.4464 82.3557 -111.306 -79.3259 82.8245 
-110.363 -79.6041 83.0424 -109.443 -79.9759 83.1304 -113.61 -80.9049 82.5186 
-114.002 -81.1997 82.0824 -112.915 -80.9412 82.9705 -112.291 -80.8917 83.5015 
-111.833 -80.639 84.0097 -111.058 -80.5554 84.3309 -110.037 -80.7576 84.4559 
-109.268 -81.0637 84.4867 -113.918 -82.0457 83.7001 -114.055 -82.5677 83.1922 
-113.54 -81.8688 84.1801 -112.949 -81.9896 84.6463 -112.387 -81.9823 85.1053 
-111.757 -81.7781 85.489 -110.85 -81.7459 85.6984 -109.928 -81.929 85.7503 
-109.234 -82.1261 85.732 -114.005 -83.5624 84.8022 -114.058 -84.0243 84.2305 
-113.861 -83.1994 85.3157 -113.458 -83.1486 85.7338 -112.875 -83.2505 86.1039 
-112.304 -83.1814 86.4692 -111.646 -83.067 86.7342 -110.809 -83.1371 86.8114 
-109.985 -83.2539 86.775 -109.317 -83.3096 86.6983 -109.279 -84.629 87.4369 
-109.864 -84.6409 87.615 -109.766 -86.0159 88.4072 -110.629 -84.659 87.7567 
-110.391 -86.0695 88.6604 -110.301 -87.5238 89.4871 -111.479 -84.6028 87.8499 
-111.212 -86.1311 88.8815 -110.985 -87.6588 89.7833 -111.023 -89.5428 90.4961 
-112.167 -84.6248 87.7579 -112.038 -86.2017 88.9959 -111.825 -87.8594 89.9916 
-111.671 -89.8881 90.7593 -111.7 -92.1018 91.3988 -112.711 -84.7437 87.4575 
-112.665 -86.361 88.8635 -112.657 -88.0941 90.0494 -112.451 -90.215 90.8901 
-112.242 -92.5002 91.6203 -112.202 -94.4928 92.239 -113.307 -84.7731 87.115 
-113.221 -86.5296 88.5412 -113.329 -88.3088 89.8841 -113.291 -90.4339 90.9145 
-113.034 -92.743 91.7391 -112.872 -94.7746 92.4334 -112.879 -96.7148 92.8387 
-113.803 -84.8382 86.758 -113.749 -86.6775 88.1827 -113.84 -88.485 89.5447 
-113.936 -90.5732 90.7415 -113.875 -92.9171 91.7621 -113.781 -95.028 92.5783 
-113.736 -97.1143 93.0134 -113.732 -99.5679 93.1049 -114.013 -85.0978 86.2651 
-114.068 -86.8742 87.7375 -114.178 -88.652 89.1166 -114.284 -90.6965 90.3561 
-114.367 -93.1256 91.5049 -114.481 -95.4071 92.5126 -114.537 -97.5802 93.1104 
-114.478 -100.186 93.2205 -114.438 -103.035 93.1073 -114.082 -85.3902 85.6258 
-114.204 -87.0118 87.1031 -114.371 -88.7284 88.5492 -114.474 -90.7416 89.8447 
-114.545 -93.2496 91.0044 -114.728 -95.7798 92.0771 -114.934 -98.0817 92.8673 
-114.982 -100.656 93.1537 -114.962 -103.587 93.0587 -115.024 -106.268 92.8617 
-109.15 -85.7106 87.8368 -109.637 -87.2099 88.9262 -109.003 -86.9312 88.2401 
-110.292 -89.0527 90.0069 -109.498 -88.5875 89.4015 -108.778 -88.1105 88.6942 
-111.142 -91.5465 90.9543 -110.303 -90.8161 90.3839 -109.381 -90.0174 89.8215 
-108.657 -89.3639 89.1159 -111.781 -94.2055 91.8922 -111.227 -93.6045 91.2726 
-110.369 -92.6288 90.6831 -109.459 -91.6122 90.1399 -108.698 -90.9054 89.3722 
-112.313 -96.6395 92.6686 -111.867 -96.3984 92.2252 -111.366 -95.753 91.5567 
-110.597 -94.5863 90.9566 -109.624 -93.3604 90.3244 -108.705 -92.4367 89.5447 
-113.109 -99.5309 93.0367 -112.512 -99.3196 92.9149 -112.046 -98.9556 92.5091 
-111.611 -98.1029 91.8546 -110.841 -96.5661 91.1616 -109.762 -94.9217 90.4444 
-108.762 -93.6769 89.7403 -113.973 -103.141 93.0869 -113.383 -102.793 93.1344 
-112.727 -102.205 93.0972 -112.221 -101.527 92.7377 -111.774 -100.286 92.0624 
-110.995 -98.2646 91.2775 -109.942 -96.2124 90.5397 -108.938 -94.764 89.8964 
-114.705 -106.626 92.9032 -114.247 -106.361 92.9776 -113.577 -105.506 93.0685 
-112.82 -104.529 93.0554 -112.256 -103.564 92.7554 -111.782 -101.975 92.1156 
-111.043 -99.6034 91.3217 -110.045 -97.3287 90.5998 -109.023 -95.7738 89.9818 
-115.585 -109.292 92.4258 -115.183 -109.513 92.5039 -116.226 -111.734 91.8256 
-115.579 -111.829 91.8436 -116.504 -113.951 91.2549 -114.597 -108.918 92.5414 
-115.682 -113.941 91.2308 -116.296 -116.194 90.8674 -114.858 -110.968 91.765 
-113.785 -107.622 92.5939 -115.552 -115.679 90.8878 -115.95 -117.693 90.2991 
-115.015 -112.698 91.125 -114.009 -109.306 91.8305 -112.901 -106.32 92.684 
-115.231 -116.367 90.3992 -115.532 -117.814 89.328 -114.906 -113.824 90.8235 
-114.169 -110.637 91.2423 -113.046 -107.739 92.1171 -112.235 -105.08 92.5454 
-114.713 -115.941 89.7161 -114.964 -116.83 88.6319 -114.35 -114.085 90.4761 
-113.853 -111.46 90.869 -113.071 -108.777 91.5496 -112.235 -106.151 92.1469 
-111.655 -103.025 91.9669 -114.275 -114.554 89.4287 -114.446 -115.029 88.6641 
-113.74 -113.379 90.1483 -113.112 -111.508 90.5403 -112.657 -109.244 91.0177 
-112.125 -106.68 91.618 -111.461 -103.588 91.6887 -110.797 -100.234 91.1931 
-113.954 -112.369 89.5148 -113.994 -112.611 88.9711 -113.429 -111.666 90.0445 
-112.56 -110.486 90.3468 -112.008 -108.825 90.6483 -111.744 -106.567 91.1359 
-111.188 -103.665 91.3695 -110.403 -100.55 91.0565 -109.689 -97.8454 90.5006 
-113.43 -109.892 89.4938 -113.406 -109.979 89.0715 -113.086 -109.445 89.8927 
-112.279 -108.675 90.1539 -111.527 -107.522 90.4009 -111.188 -105.77 90.7874 
-110.777 -103.336 91.0696 -109.986 -100.618 90.9135 -109.19 -98.1989 90.4129 
-108.607 -96.2834 89.8553 -115.591 -107.532 92.5135 -116.432 -110.457 91.8992 
-116.147 -108.435 92.0251 -117.174 -111.276 91.3875 -116.479 -108.853 91.5757 
-117.206 -112.881 91.2703 -117.379 -111.573 91.0229 -116.497 -108.591 91.1713 
-117.822 -113.774 90.8251 -117.287 -115.359 90.7861 -117.088 -110.974 90.6055 
-116.269 -107.686 90.7109 -117.728 -113.857 90.4245 -117.667 -116.28 90.2228 
-116.863 -117.703 90.1964 -116.556 -109.674 90.1844 -115.772 -106.282 90.3615 
-117.229 -112.696 89.9485 -117.549 -115.777 89.602 -117.275 -118.165 89.2484 
-116.434 -118.747 89.1264 -115.79 -107.922 90.0976 -115.156 -104.2 90.1057 
-116.507 -110.972 89.7722 -117.089 -113.895 89.2444 -117.336 -116.886 88.648 
-116.854 -118.513 88.1755 -115.829 -118.215 88.1234 -115.053 -105.338 89.9828 
-114.721 -101.465 89.5394 -115.598 -108.85 89.936 -116.273 -111.665 89.3754 
-116.884 -114.455 88.6571 -116.913 -116.796 88.0974 -116.056 -117.498 87.7858 
-115.024 -116.659 87.9653 -114.603 -102.05 89.295 -114.395 -98.6981 88.5881 
-114.9 -105.728 89.7141 -115.38 -108.881 89.5257 -116.004 -111.527 88.9023 
-116.424 -113.965 88.4118 -116.067 -115.494 88.1682 -115.096 -115.493 88.0922 
-114.336 -114.324 88.3786 -114.215 -98.96 88.2272 -113.93 -96.4791 87.5779 
[...]
CELL_DATA 2000
SCALARS Distance double
LOOKUP_TABLE default
152.059 152.802 152.585 153.006 153.644 153.387 153.815 153.651 154.235 
154.576 154.297 154.744 154.519 155.118 154.997 155.707 155.584 155.312 
155.832 155.542 156.171 155.971 156.721 156.577 157.37 156.633 156.396 
157.012 156.72 157.379 157.12 157.887 157.687 158.498 158.324 159.158 
157.687 157.482 158.154 157.921 158.594 158.345 159.091 158.892 159.713 
159.517 160.356 160.17 161.055 158.759 158.555 159.257 159.061 159.769 
159.536 160.28 160.085 160.942 160.768 161.674 161.457 162.39 162.174 
163.155 159.858 159.651 160.39 160.201 160.971 160.736 161.52 161.298 
162.195 162.034 163.018 162.831 163.816 163.592 164.591 164.37 165.363 
160.944 160.759 161.52 161.359 162.165 161.967 162.771 162.56 163.443 
163.301 164.286 164.164 165.144 164.982 165.932 165.765 166.705 166.523 
167.4 151.69 151.384 151.823 152.41 150.995 151.473 152.077 152.575 
153.224 150.653 151.057 151.63 152.172 152.85 153.404 154.104 150.562 
150.826 151.34 151.74 152.395 152.962 153.696 154.282 155.027 150.62 
150.865 151.424 151.636 152.246 152.606 153.339 153.862 154.649 155.227 
156.021 150.685 150.957 151.613 151.835 152.459 152.659 153.347 153.669 
154.474 154.932 155.775 156.287 157.103 150.865 151.049 151.679 151.971 
152.617 152.882 153.527 153.792 154.545 154.905 155.764 156.176 157.016 
157.431 158.218 151.216 151.273 151.787 152.009 152.623 152.939 153.586 
153.908 154.612 154.984 155.803 156.223 157.059 157.439 158.206 158.57 
159.317 151.641 151.639 152.09 152.18 152.754 152.975 153.65 153.944 
154.675 155.02 155.814 156.225 157.044 157.458 158.215 158.583 159.296 
159.666 160.392 152.031 152.924 152.468 152.529 154.078 153.518 153.599 
153.066 153.201 155.368 154.786 154.916 154.288 154.42 153.866 154.094 
156.672 156.109 156.274 155.663 155.829 155.213 155.432 154.867 155.153 
157.998 157.428 157.604 157.014 157.227 156.653 156.927 156.321 156.595 
155.992 156.308 159.376 158.796 159.016 158.395 158.662 158.084 158.437 
157.853 158.157 157.505 157.761 157.167 157.491 160.748 160.204 160.499 
159.891 160.228 159.62 160.026 159.421 159.77 159.09 159.32 158.643 
158.89 158.332 158.642 162.081 161.585 161.947 161.404 161.797 161.227 
161.648 161.054 161.424 160.746 161 160.255 160.477 159.789 160.062 
159.473 159.759 163.398 162.941 163.366 162.867 163.296 162.767 163.179 
162.628 162.998 162.388 162.686 161.978 162.224 161.469 161.718 161 
161.265 160.613 160.876 161.723 162.17 162.366 163.237 162.696 162.883 
163.793 163.951 164.882 163.23 163.453 164.423 164.576 165.535 165.683 
166.758 163.659 163.957 164.98 165.223 166.242 166.401 167.493 167.702 
168.932 163.949 164.312 165.357 165.726 166.839 167.111 168.238 168.461 
169.663 169.925 171.129 164.16 164.56 165.624 166.058 167.238 167.649 
168.859 169.177 170.38 170.643 171.826 172.049 173.169 164.302 164.754 
165.847 166.317 167.501 167.988 169.239 169.699 170.964 171.327 172.55 
172.785 173.956 174.115 175.3 164.344 164.851 165.944 166.488 167.64 
168.184 169.384 169.952 171.231 171.783 173.078 173.482 174.709 174.947 
176.159 176.354 177.628 164.298 164.82 165.851 166.467 167.571 168.2 
169.332 169.973 171.196 171.887 173.196 173.836 175.098 175.567 176.754 
177.108 178.316 178.642 179.858 161.778 163.303 162.486 162.414 164.962 
164.096 164.058 163.192 163.104 166.89 165.895 165.891 164.918 164.847 
163.899 163.763 169.146 168.048 168.098 166.935 166.875 165.759 165.663 
164.616 164.507 171.385 170.396 170.542 169.342 169.321 168.017 167.934 
166.696 166.627 165.486 165.407 173.431 172.568 172.842 171.806 171.941 
170.656 170.643 169.226 169.135 167.774 167.656 166.43 166.289 175.618 
174.695 175.114 174.123 174.469 173.322 173.519 172.125 172.094 170.521 
170.314 168.81 168.58 167.285 167.09 178.056 177.099 177.64 176.577 
177.013 175.894 176.219 174.99 175.106 173.603 173.401 171.685 171.318 
169.717 169.416 168.083 167.864 180.363 179.576 180.156 179.177 179.547 
178.446 178.649 177.541 177.644 176.438 176.323 174.789 174.376 172.621 
172.125 170.52 170.145 168.821 168.538 181.707 183.468 182.318 181.554 
184.837 183.876 183.094 181.922 180.894 185.951 185.073 184.211 183.193 
182.106 180.979 179.836 186.727 186.049 185.11 184.152 182.968 181.942 
180.767 179.788 178.705 186.658 186.469 185.539 184.859 183.604 182.672 
181.434 180.556 179.474 178.602 177.427 185.705 185.946 185.114 184.897 
183.683 183.07 181.791 181.087 179.945 179.211 177.972 177.06 175.543 
184.372 184.784 184.062 184.15 183.045 182.794 181.552 181.16 179.971 
179.46 178.125 177.372 175.76 174.843 173.18 182.851 183.382 182.705 
182.971 181.936 181.92 180.721 180.602 179.426 179.186 177.836 177.287 
175.637 174.862 173.184 172.417 170.988 181.052 181.724 181.043 181.493 
180.503 180.68 179.509 179.566 178.411 178.39 177.119 176.805 175.24 
174.62 172.985 172.321 170.923 170.355 169.229 182.005 182.846 182.964 
183.817 183.371 183.733 184.717 184.682 185.295 183.377 184.088 185.232 
185.499 186.25 186.081 186.502 182.709 183.767 184.958 185.712 186.597 
186.87 187.375 187.177 187.305 181.527 182.774 183.851 184.978 185.886 
186.753 187.357 187.708 187.792 187.587 187.199 179.985 181.371 182.359 
183.593 184.403 185.571 186.244 187.164 187.364 187.642 187.177 186.94 
186.157 178.009 179.585 180.563 181.952 182.684 183.901 184.508 185.683 
186.063 186.823 186.55 186.627 185.828 185.596 184.731 175.695 177.341 
178.232 179.879 180.572 181.987 182.442 183.744 184.09 185.232 185.199 
185.756 185.107 185.102 184.179 184.039 183.149 173.405 174.89 175.592 
177.287 177.908 179.544 179.888 181.368 181.515 182.933 182.907 184.029 
183.558 184.079 183.166 183.272 182.257 182.274 181.305 164.548 165.367 
165.331 166.113 166.212 166.206 167.089 167.033 167.874 167.17 167.152 
168.157 168.101 169.072 168.901 169.73 168.261 168.25 169.414 169.339 
170.487 170.274 171.27 170.896 171.721 169.357 169.427 170.739 170.738 
172.06 171.882 173.033 172.632 173.574 173.036 173.821 170.347 170.523 
171.921 172.068 173.495 173.488 174.733 174.455 175.437 174.956 175.761 
175.163 175.801 171.213 171.483 172.933 173.194 174.695 174.848 176.197 
176.088 177.153 176.779 177.631 177.093 177.79 177.094 177.579 171.957 
172.319 173.847 174.191 175.791 176.032 177.53 177.54 178.795 178.515 
179.535 179.023 179.856 179.158 179.779 178.893 179.275 172.587 173.039 
174.66 175.107 176.809 177.148 178.749 178.888 180.28 180.177 181.358 
180.996 181.957 181.328 182.031 181.179 181.631 180.614 180.868 163.803 
162.959 163.762 164.543 162.027 162.864 163.594 164.47 165.301 160.938 
161.832 162.519 163.444 164.239 165.22 166.149 159.777 160.676 161.327 
162.277 163.045 164.083 165.008 166.094 167.126 158.696 159.536 160.187 
161.08 161.823 162.839 163.755 164.886 165.913 167.067 168.133 157.785 
158.527 159.186 160.005 160.727 161.652 162.523 163.61 164.616 165.788 
166.832 168.023 169.071 157.043 157.683 158.283 159.044 159.716 160.58 
161.375 162.393 163.332 164.468 165.471 166.663 167.68 168.896 169.903 
156.388 156.963 157.483 158.164 158.763 159.555 160.263 161.219 162.077 
163.172 164.115 165.279 166.248 167.457 168.426 169.654 170.603 155.787 
156.318 156.829 157.419 157.981 158.644 159.273 160.1 160.878 161.898 
162.796 163.917 164.847 166.014 166.94 168.142 169.047 170.28 171.183 
155.659 155.975 156.107 156.746 156.279 156.459 157.075 157.231 157.875 
156.372 156.646 157.276 157.525 158.188 158.383 159.118 156.612 156.756 
157.471 157.717 158.523 158.746 159.6 159.778 160.711 157.25 157.232 
158.033 158.127 159.112 159.263 160.308 160.423 161.471 161.582 162.647 
157.931 157.969 158.808 158.889 159.927 160.055 161.182 161.284 162.39 
162.461 163.553 163.628 164.706 158.552 158.631 159.518 159.656 160.674 
160.864 161.942 162.132 163.211 163.367 164.451 164.565 165.656 165.723 
166.789 159.345 159.357 160.312 160.394 161.424 161.565 162.619 162.806 
163.89 164.105 165.239 165.43 166.579 166.691 167.803 167.834 168.89 
160.22 160.243 161.208 161.264 162.295 162.373 163.442 163.547 164.687 
164.844 166.085 166.266 167.54 167.662 168.874 168.903 170.035 169.991 
171.05 160.951 162.381 161.787 162.02 163.933 163.304 163.643 162.954 
163.173 165.786 165.029 165.469 164.712 165.064 164.215 164.406 167.982 
167.111 167.65 166.764 167.265 166.321 166.662 165.597 165.774 170.437 
169.509 170.146 169.158 169.745 168.737 169.241 168.11 168.408 167.138 
167.293 173.114 172.168 172.965 171.871 172.542 171.403 172.001 170.846 
171.291 169.984 170.177 168.756 168.822 175.823 174.995 176.038 174.952 
175.823 174.505 175.186 173.82 174.363 172.989 173.29 171.784 171.807 
170.265 170.196 178.219 177.655 178.87 178.08 179.177 178.003 178.795 
177.294 177.826 176.26 176.612 175.015 175.089 173.386 173.222 171.574 
171.384 180.101 179.808 180.994 180.62 181.777 181.124 181.992 180.837 
181.28 179.77 179.978 178.386 178.441 176.741 176.549 174.734 174.395 
172.694 172.404 160.568 160.335 160.946 161.924 160.053 160.699 161.75 
162.364 163.45 159.831 160.47 161.618 162.253 163.436 164.019 165.258 
159.623 160.282 161.455 162.153 163.386 164.034 165.315 165.956 167.354 
159.286 160.005 161.126 161.917 163.141 163.912 165.204 165.958 167.392 
168.147 169.704 158.864 159.592 160.694 161.508 162.741 163.583 164.917 
165.766 167.257 168.129 169.77 170.589 172.268 158.53 159.202 160.344 
161.107 162.379 163.199 164.58 165.455 166.993 167.946 169.638 170.59 
172.314 173.173 174.846 158.329 158.946 160.101 160.826 162.107 162.897 
164.27 165.133 166.646 167.63 169.299 170.355 172.069 173.077 174.727 
175.638 177.178 158.207 158.779 159.889 160.594 161.838 162.627 163.96 
164.814 166.269 167.238 168.841 169.918 171.579 172.675 174.285 175.329 
176.834 177.772 179.106 159.661 158.32 159.14 159.436 157.12 157.847 
158.087 158.856 159.109 156.015 156.698 156.899 157.563 157.736 158.515 
158.819 154.846 155.551 155.735 156.4 156.522 157.195 157.407 158.254 
158.607 153.592 154.29 154.423 155.163 155.266 155.959 156.081 156.855 
157.102 158.008 158.304 152.368 152.99 153.074 153.81 153.927 154.643 
154.71 155.453 155.582 156.456 156.673 157.617 157.87 151.367 151.83 
151.92 152.542 152.71 153.359 153.438 154.073 154.122 154.887 155.048 
155.96 156.212 157.179 157.5 150.739 151.014 151.102 151.544 151.718 
152.262 152.372 152.899 152.93 153.518 153.644 154.408 154.687 155.579 
155.943 156.897 157.309 150.356 150.535 150.568 150.859 150.952 151.368 
151.449 151.909 151.942 152.436 152.539 153.158 153.429 154.194 154.585 
155.442 155.88 156.793 157.241 150.126 149.735 150.061 150.323 149.422 
149.691 149.999 150.305 150.641 149.346 149.5 149.77 150 150.305 
150.64 151.031 149.215 149.425 149.623 149.815 150.032 150.292 150.624 
151.028 151.479 148.915 149.164 149.357 149.607 149.794 150.027 150.314 
150.652 151.133 151.557 152.122 148.941 148.956 149.208 149.361 149.646 
149.828 150.176 150.429 150.966 151.332 152.016 152.382 153.069 149.528 
149.277 149.557 149.472 149.883 149.903 150.405 150.495 151.127 151.344 
152.122 152.427 153.23 153.506 154.257 150.375 150.034 150.299 150.073 
150.538 150.433 151.066 151.018 151.752 151.77 152.593 152.727 153.594 
153.792 154.615 154.803 155.569 151.238 150.901 151.166 150.905 151.377 
151.236 151.912 151.848 152.631 152.583 153.401 153.393 154.238 154.305 
155.143 155.254 156.045 156.172 156.93 151.788 152.781 152.088 151.802 
154.071 153.261 153.03 152.264 152.099 155.563 154.689 154.507 153.657 
153.536 152.744 152.698 157.241 156.304 156.175 155.251 155.167 154.301 
154.286 153.474 153.471 159.079 158.116 158.085 157.08 157.049 156.059 
156.056 155.149 155.165 154.299 154.277 161.001 160.037 160.093 159.104 
159.132 158.081 158.064 157.03 157.02 156.062 156.047 155.127 155.096 
163.09 162.055 162.134 161.136 161.194 160.179 160.164 159.1 159.043 
157.997 157.948 156.955 156.907 155.968 155.947 165.309 164.252 164.339 
163.256 163.322 162.258 162.292 161.212 161.19 160.085 160.027 158.936 
158.864 157.828 157.766 156.824 156.81 167.373 166.443 166.554 165.508 
165.583 164.481 164.55 163.425 163.469 162.314 162.296 161.114 161.032 
159.873 159.773 158.702 158.638 157.688 157.682 158.486 159.514 159.369 
160.2 160.732 160.537 161.453 161.261 162.194 162.099 161.898 162.916 
162.666 163.69 163.409 164.387 163.463 163.348 164.489 164.259 165.394 
165.076 166.18 165.772 166.8 164.702 164.714 165.969 165.86 167.11 
166.876 168.126 167.75 168.928 168.386 169.458 165.818 165.926 167.273 
167.304 168.663 168.578 169.953 169.735 171.054 170.623 171.788 171.164 
172.208 166.835 167 168.39 168.555 170.022 170.099 171.579 171.518 
172.926 172.679 173.927 173.466 174.559 173.924 174.905 167.743 167.949 
169.306 169.582 171.112 171.387 172.98 173.096 174.555 174.447 175.726 
175.453 176.614 176.181 177.225 176.584 177.469 168.496 168.755 170.056 
170.401 171.931 172.366 174.038 174.378 175.892 175.955 177.203 177.082 
178.234 178.039 179.138 178.757 179.673 179.025 179.724 151.284 150.836 
150.903 150.557 150.348 150.376 149.983 150.097 149.725 150.025 149.872 
149.336 149.419 149.064 149.256 149.03 149.991 149.668 149.041 148.862 
148.477 148.596 148.507 148.749 148.795 150.066 149.74 149.193 148.817 
148.43 148.269 148.236 148.354 148.53 148.729 148.904 150.185 149.861 
149.402 149.059 148.718 148.465 148.415 148.348 148.493 148.557 148.722 
148.87 149.027 150.479 150.074 149.597 149.248 148.882 148.694 148.613 
148.587 148.671 148.644 148.694 148.709 148.817 148.986 149.202 150.858 
150.431 149.929 149.5 149.062 148.792 148.638 148.647 148.756 148.806 
148.871 148.787 148.823 148.838 149.056 149.251 149.558 151.186 150.793 
150.319 149.882 149.432 149.041 148.801 148.668 148.766 148.846 149.047 
149.022 149.112 148.997 149.153 149.198 149.511 149.677 149.966 151.416 
150.661 151.137 151.342 149.844 150.32 150.496 151.041 151.366 149.2 
149.546 149.738 150.212 150.573 151.181 151.695 148.976 149.1 149.308 
149.601 150.023 150.521 151.115 151.68 152.285 149.049 149.055 149.214 
149.343 149.746 150.133 150.785 151.268 151.928 152.379 152.977 149.18 
149.169 149.26 149.3 149.576 149.893 150.49 150.995 151.666 152.115 
152.698 153.109 153.656 149.398 149.336 149.424 149.359 149.54 149.717 
150.234 150.69 151.356 151.828 152.368 152.789 153.243 153.7 154.137 
149.752 149.641 149.762 149.607 149.782 149.781 150.284 150.56 151.289 
151.63 152.214 152.482 152.871 153.212 153.579 154.047 154.428 150.113 
150.017 150.159 150.014 150.227 150.15 150.648 150.785 151.536 151.765 
152.427 152.536 152.944 153.012 153.346 153.572 153.981 154.368 154.816 
151.888 151.894 152.163 152.761 151.999 152.227 152.884 153.15 153.872 
152.354 152.473 153.158 153.341 154.071 154.336 155.123 152.892 152.945 
153.667 153.761 154.48 154.608 155.368 155.619 156.426 153.491 153.499 
154.22 154.334 155.09 155.142 155.834 155.933 156.706 156.949 157.765 
154.116 154.082 154.679 154.808 155.539 155.706 156.377 156.452 157.12 
157.276 158.082 158.329 159.142 154.623 154.644 155.114 155.182 155.758 
155.983 156.648 156.873 157.534 157.704 158.46 158.682 159.524 159.737 
160.516 154.947 155.051 155.531 155.572 156.057 156.175 156.804 157.051 
157.797 158.054 158.854 159.089 159.939 160.152 160.965 161.116 161.844 
155.303 155.375 155.928 155.979 156.52 156.556 157.181 157.312 158.083 
158.322 159.175 159.451 160.315 160.569 161.386 161.57 162.306 162.43 
163.124 159.437 158.572 158.687 158.091 157.825 157.857 157.276 157.395 
156.898 157.251 157.223 156.606 156.628 156.088 156.239 155.779 156.583 
156.621 155.939 155.951 155.286 155.402 154.884 155.11 154.641 155.966 
155.918 155.203 155.185 154.444 154.533 153.986 154.222 153.821 154.013 
153.521 155.764 155.502 154.846 154.594 153.922 153.79 153.321 153.429 
153.165 153.321 152.946 152.953 152.404 155.66 155.42 154.817 154.505 
153.958 153.627 153.244 153.07 152.856 152.843 152.543 152.489 151.976 
151.884 151.385 155.323 155.189 154.57 154.44 153.953 153.784 153.422 
153.214 152.88 152.696 152.27 152.128 151.594 151.496 151.019 151 
150.707 155.032 154.828 154.224 154.101 153.631 153.613 153.261 153.239 
152.813 152.663 152.05 151.84 151.191 151.087 150.621 150.652 150.402 
150.476 150.329 
POINT_DATA 1002
SCALARS Distance double
LOOKUP_TABLE default
152.38 151.56 152.241 153.136 153.033 153.507 153.997 153.907 154.315 
154.888 154.988 154.834 155.249 155.792 156.443 156.117 155.805 156.392 
156.874 157.498 158.172 157.27 156.826 157.653 158.096 158.692 159.305 
160 158.353 157.884 158.843 159.29 159.891 160.557 161.207 161.959 
159.431 158.964 159.99 160.476 161.077 161.859 162.608 163.357 164.15 
160.559 160.052 161.183 161.744 162.343 163.168 164.028 164.812 165.606 
166.335 161.667 161.116 162.336 162.978 163.595 164.394 165.299 166.107 
166.879 167.63 168.235 151.272 151.959 150.923 151.54 150.527 152.737 
151.111 150.327 152.243 153.572 151.044 150.319 151.87 153.076 154.444 
151.235 150.308 151.999 152.876 154.071 155.436 151.331 150.419 152.278 
153.107 154.063 155.291 156.601 151.402 150.779 152.309 153.268 154.212 
155.364 156.639 157.81 151.644 151.23 152.319 153.245 154.25 155.379 
156.669 157.873 158.939 152.049 151.649 152.582 153.365 154.343 155.434 
156.63 157.835 158.941 160.009 152.4 152.96 153.417 154.181 154.639 
153.661 155.542 155.927 155.027 154.576 156.862 157.229 156.423 156.04 
155.684 158.195 158.573 157.76 157.501 157.243 156.861 159.624 159.935 
159.234 158.996 158.817 158.414 158.011 161.056 161.257 160.819 160.633 
160.453 160.043 159.508 159.153 162.446 162.545 162.341 162.232 162.079 
161.744 161.217 160.709 160.328 163.837 163.816 163.819 163.732 163.576 
163.342 162.975 162.483 161.966 161.503 162.552 163.044 164.116 163.643 
164.695 165.838 164.236 165.393 166.52 167.919 164.663 166.044 167.293 
168.669 170.212 164.934 166.476 168 169.426 170.899 172.281 165.175 
166.767 168.473 170.11 171.61 172.973 174.256 165.36 167.012 168.728 
170.52 172.267 173.778 175.121 176.531 165.38 167.097 168.816 170.613 
172.567 174.406 175.947 177.417 178.948 165.247 166.93 168.689 170.495 
172.488 174.541 176.354 177.97 179.573 181.063 163.242 164.933 164 
166.917 165.824 164.72 169.312 168.068 166.736 165.536 171.667 170.651 
169.25 167.818 166.531 173.76 173.105 172.072 170.614 168.977 167.463 
176.076 175.512 174.797 173.696 171.978 169.992 168.287 178.703 178.154 
177.383 176.487 175.143 173.09 170.877 169.086 181.092 180.687 179.812 
178.761 177.691 176.142 173.903 171.601 169.75 182.977 182.895 184.54 
184.202 185.777 182.193 185.247 186.837 183.193 180.943 186.068 187.282 
184.022 181.699 179.668 186.06 186.636 184.495 182.304 180.309 178.453 
185.146 185.337 184.141 182.421 180.656 178.878 176.592 183.875 183.908 
183.169 181.828 180.412 178.852 176.654 174.04 182.372 182.281 181.876 
180.768 179.571 178.302 176.363 173.901 171.615 180.526 180.356 180.239 
179.402 178.365 177.305 175.759 173.603 171.453 169.704 181.984 183.94 
182.622 184.645 182.855 185.574 184.773 182.51 186.285 186.899 184.025 
181.602 186.083 187.432 187.802 182.704 180.285 184.833 186.751 187.896 
187.683 181.133 178.548 183.249 185.136 186.852 187.348 186.502 179.084 
176.407 181.483 183.327 185.07 186.273 186.032 184.951 176.543 174.144 
179.081 181.161 182.845 184.362 184.968 184.327 183.265 173.992 172.084 
176.251 178.403 180.11 181.602 182.767 182.949 182.232 181.282 164.583 
166.165 165.357 167.1 166.184 168.007 168.176 167.153 169.201 170.011 
169.425 168.21 170.649 171.618 172.188 170.651 169.217 172.151 173.389 
174.101 174.441 171.708 170.121 173.411 174.933 175.885 176.335 176.516 
172.626 170.897 174.473 176.21 177.457 178.127 178.44 178.425 173.44 
171.54 175.485 177.426 178.966 179.975 180.516 180.627 180.301 163.014 
163.694 162.174 162.727 161.183 164.364 161.591 160.045 163.244 165.114 
160.396 158.894 162.001 163.896 166.018 159.32 157.875 160.849 162.626 
164.748 166.976 158.39 157.093 159.851 161.487 163.461 165.643 167.879 
157.57 156.469 158.894 160.409 162.236 164.304 166.471 168.692 156.851 
155.845 158.032 159.368 161.017 162.981 165.066 167.212 169.375 156.26 
155.258 157.378 158.536 159.92 161.702 163.71 165.768 167.842 169.927 