# vtk DataFile Version 4.0
vtk output
ASCII
DATASET POLYDATA
POINTS 1002 float
-105.358 -86.8105 74.7352 -105.364 -86.1037 73.6597 -105.709 -85.7227 74.5889 
-105.766 -86.5481 75.8279 -106.008 -85.418 75.7554 -105.434 -87.6281 76.0009 
-106.109 -86.3391 77.075 -106.416 -85.288 76.912 -105.772 -87.4624 77.2759 
-105.487 -88.5612 77.5092 -106.623 -86.275 78.1348 -107.063 -85.2939 77.898 
-106.207 -87.3522 78.4875 -105.832 -88.4717 78.8022 -105.75 -89.6889 79.0009 
-107.444 -86.3896 79.0183 -107.906 -85.4198 78.8493 -107.028 -87.4746 79.3975 
-106.596 -88.5594 79.842 -106.414 -89.7674 80.0912 -106.495 -91.0952 80.2825 
-108.323 -86.6727 80.0903 -108.743 -85.7252 79.8969 -107.992 -87.7976 80.3697 
-107.658 -88.9218 80.7505 -107.413 -90.0933 81.0502 -107.379 -91.4465 81.2913 
-107.337 -92.7786 81.6258 -109.028 -87.0846 81.3479 -109.471 -86.1989 80.9634 
-108.677 -88.1326 81.6833 -108.432 -89.2938 81.9187 -108.236 -90.5411 82.1254 
-108.152 -91.9354 82.3901 -108.091 -93.3538 82.7437 -107.992 -94.6084 83.0591 
-109.739 -87.582 82.4241 -110.189 -86.7248 81.9355 -109.284 -88.5044 82.9099 
-108.973 -89.5971 83.18 -108.797 -90.9415 83.306 -108.712 -92.4742 83.5342 
-108.705 -93.9772 83.852 -108.728 -95.2923 84.0925 -108.803 -96.4509 84.194 
-110.583 -88.1193 83.1885 -110.939 -87.2122 82.7636 -110.13 -89.0444 83.6896 
-109.714 -90.0919 84.1058 -109.489 -91.4468 84.337 -109.419 -93.0714 84.5591 
-109.421 -94.67 84.8248 -109.509 -96.0446 84.9666 -109.676 -97.2409 84.9839 
-109.84 -98.3431 85.0042 -111.381 -88.6726 83.7682 -111.618 -87.6846 83.4346 
-111.041 -89.7071 84.1913 -110.601 -90.8072 84.7068 -110.275 -92.128 85.148 
-110.215 -93.7094 85.4455 -110.283 -95.3298 85.6601 -110.368 -96.7897 85.7451 
-110.518 -98.0922 85.6968 -110.697 -99.2802 85.6705 -110.777 -100.333 85.7476 
-105.664 -85.1776 73.1081 -105.871 -84.6944 74.1793 -105.87 -84.1829 72.5928 
-106.115 -83.7053 73.7643 -106.108 -83.1849 72.161 -106.216 -84.4055 75.3932 
-106.671 -82.8428 73.3408 -106.693 -82.3388 71.7314 -106.716 -83.4703 74.9267 
-106.836 -84.3464 76.5348 -107.539 -82.1806 72.8985 -107.622 -81.7528 71.2226 
-107.489 -82.6464 74.4408 -107.51 -83.4371 76.0529 -107.622 -84.4135 77.6238 
-108.418 -81.5757 72.426 -108.483 -81.1219 70.7545 -108.285 -81.9593 74.067 
-108.19 -82.5733 75.6455 -108.241 -83.5457 77.305 -108.456 -84.5916 78.7238 
-109.101 -80.7457 72.0214 -109.106 -80.2638 70.4829 -109.05 -81.2714 73.7391 
-108.916 -81.824 75.3966 -108.854 -82.6645 77.0343 -109.001 -83.7496 78.5449 
-109.266 -84.9349 79.7701 -109.686 -79.8907 71.8418 -109.697 -79.5494 70.3772 
-109.758 -80.5001 73.4677 -109.796 -81.1682 75.1357 -109.723 -81.8842 76.7706 
-109.678 -82.8589 78.3186 -109.805 -84.0949 79.617 -110.011 -85.4327 80.7737 
-110.337 -79.3599 71.8619 -110.38 -79.1869 70.3262 -110.386 -79.8394 73.4009 
-110.532 -80.5497 74.9148 -110.635 -81.2778 76.4422 -110.565 -82.1263 77.9845 
-110.482 -83.2924 79.3785 -110.56 -84.6433 80.594 -110.739 -85.9679 81.7448 
-111.08 -79.0854 71.9119 -111.112 -78.9897 70.2871 -111.068 -79.3812 73.4669 
-111.129 -79.9704 74.8645 -111.282 -80.7265 76.2104 -111.353 -81.595 77.6224 
-111.266 -82.7084 79.005 -111.218 -83.9964 80.2765 -111.309 -85.2535 81.4983 
-111.459 -86.4597 82.5993 -111.909 -78.8493 71.3464 -111.929 -78.9869 73.0846 
-112.879 -78.78 72.4701 -112.969 -79.0425 74.1647 -113.89 -79.0613 73.4727 
-111.926 -79.3751 74.6328 -113.998 -79.6209 75.1048 -114.645 -79.938 74.3876 
-113.012 -79.6085 75.6986 -111.977 -80.0752 76.0074 -114.711 -80.7679 76.0631 
-115.198 -81.1591 75.3521 -114.08 -80.3939 76.7387 -113.067 -80.4871 77.1753 
-112.082 -81.0364 77.3816 -115.353 -82.0003 77.0629 -115.998 -82.2566 76.3359 
-114.841 -81.633 77.7429 -114.128 -81.4169 78.2815 -113.074 -81.7466 78.5599 
-112.082 -82.285 78.7366 -116.232 -83.0955 78.0164 -116.864 -83.2674 77.2675 
-115.536 -83.0046 78.6186 -114.901 -82.7874 79.1532 -114.055 -82.8431 79.5727 
-113.011 -83.2736 79.7938 -112.03 -83.6765 80.0204 -116.871 -84.3189 78.9522 
-117.197 -84.5623 78.1693 -116.228 -84.4088 79.5002 -115.508 -84.4074 79.9245 
-114.792 -84.2758 80.4553 -113.963 -84.3794 80.8665 -113 -84.6701 81.1095 
-112.064 -84.9435 81.3487 -116.992 -85.8323 79.8734 -117.085 -86.2077 79.0447 
-116.61 -85.8314 80.4977 -115.978 -85.9682 80.8445 -115.289 -85.902 81.3247 
-114.644 -85.7492 81.9258 -113.892 -85.7538 82.3008 -112.981 -85.8928 82.5019 
-112.126 -86.1285 82.6213 -116.967 -87.5381 80.7191 -116.98 -87.9617 79.8762 
-116.776 -87.332 81.4756 -116.312 -87.3674 81.8661 -115.657 -87.4152 82.1745 
-115.056 -87.3209 82.7158 -114.486 -87.1882 83.2386 -113.73 -87.1348 83.511 
-112.879 -87.2042 83.6104 -112.171 -87.4083 83.5761 -112.083 -88.9357 84.1964 
-112.634 -88.7945 84.3591 -112.535 -90.5582 84.9884 -113.385 -88.739 84.3913 
-113.169 -90.5706 85.1392 -113.094 -92.4128 85.9628 -114.236 -88.8038 84.2265 
-114.015 -90.6341 85.1228 -113.902 -92.5551 86.1091 -113.825 -94.5074 86.9459 
-114.88 -88.9294 83.8248 -114.788 -90.7942 84.8551 -114.744 -92.7489 86.0768 
-114.651 -94.8767 87.0874 -114.529 -97.1376 87.6154 -115.411 -89.0124 83.3298 
-115.267 -90.9939 84.4155 -115.28 -93.0857 85.7542 -115.305 -95.2761 87.0262 
-115.229 -97.7404 87.6892 -115.122 -100.184 88.168 -116.101 -88.9973 83.0498 
-115.837 -91.0912 84.1181 -115.649 -93.4229 85.3239 -115.688 -95.6846 86.65 
-115.813 -98.1574 87.5396 -115.85 -100.781 88.1304 -115.797 -103.053 88.9437 
-116.723 -89.0002 82.8164 -116.597 -91.1044 84.0072 -116.313 -93.5501 85.0823 
-116.156 -95.8987 86.2187 -116.277 -98.3069 87.2004 -116.461 -101.026 87.9257 
-116.548 -103.546 88.7656 -116.542 -105.477 89.6595 -117.001 -89.1875 82.1881 
-117.068 -91.2079 83.6383 -116.981 -93.5766 84.8683 -116.851 -95.9208 85.9172 
-116.851 -98.2404 86.879 -116.899 -100.945 87.6814 -116.962 -103.714 88.4517 
-117.073 -105.927 89.2801 -117.167 -107.584 89.8542 -117.031 -89.5283 81.2651 
-117.125 -91.4145 82.8386 -117.171 -93.644 84.3479 -117.267 -95.958 85.5573 
-117.434 -98.2077 86.54 -117.404 -100.752 87.3967 -117.209 -103.585 88.104 
-117.211 -106.072 88.7376 -117.436 -107.965 89.2769 -117.635 -109.518 89.5213 
-111.872 -90.1417 84.5712 -112.308 -91.9373 85.5722 -111.506 -91.395 85.1365 
-112.876 -93.9306 86.6905 -111.91 -93.3425 86.3336 -111.051 -92.7472 85.804 
-113.689 -96.3792 87.4917 -112.608 -95.5681 87.3344 -111.576 -94.8935 86.9498 
-110.868 -94.3166 86.2657 -114.468 -99.5132 88.1098 -113.656 -98.5752 87.9495 
-112.595 -97.5651 87.6388 -111.688 -96.7115 87.1268 -111.036 -96.0198 86.4385 
-115.107 -102.705 89.034 -114.532 -102.114 88.8261 -113.859 -101.178 88.289 
-112.944 -99.8987 87.6491 -112.055 -98.6557 87.0876 -111.238 -97.6761 86.4691 
-115.858 -105.328 89.9105 -115.207 -105.081 89.8241 -114.755 -104.674 89.2749 
-114.181 -103.704 88.4254 -113.265 -102.121 87.7077 -112.265 -100.536 87.131 
-111.369 -99.2438 86.4368 -116.698 -107.558 90.1223 -116.039 -107.35 90.0801 
-115.474 -107.106 89.7289 -115.024 -106.695 89.0966 -114.34 -105.628 88.4091 
-113.326 -103.947 87.8508 -112.329 -102.224 87.2107 -111.503 -100.676 86.414 
-117.378 -109.704 89.7325 -116.895 -109.563 89.6132 -116.309 -109.157 89.3073 
-115.74 -108.743 88.9639 -115.132 -108.178 88.5947 -114.288 -107.006 88.2488 
-113.269 -105.329 87.8486 -112.351 -103.561 87.2244 -111.566 -101.866 86.4647 
-117.962 -111.787 89.0476 -117.635 -112.039 89.0004 -118.218 -114.336 88.3126 
-117.788 -114.47 88.0937 -118.503 -116.568 87.3942 -117.167 -111.722 88.6567 
-117.968 -116.337 87.1236 -118.941 -118.061 86.2148 -117.295 -113.856 87.7438 
-116.566 -111.03 88.342 -118.209 -117.425 85.9726 -119.139 -119.154 84.9599 
-117.359 -115.433 86.9064 -116.606 -112.943 87.5796 -115.85 -110.369 88.1764 
-118.131 -118.119 84.9168 -118.67 -119.903 84.0304 -117.352 -116.284 85.9569 
-116.507 -114.378 86.9144 -115.752 -111.969 87.5408 -115.044 -109.461 88.0443 
-117.585 -118.353 84.3231 -117.889 -119.691 83.4805 -117.046 -116.657 85.1593 
-116.279 -114.991 86.1546 -115.542 -112.944 86.9326 -114.852 -110.441 87.4671 
-114.076 -107.914 87.8821 -116.854 -117.798 84.0168 -117.154 -118.581 83.1122 
-116.448 -116.538 84.7031 -115.846 -114.978 85.4533 -115.217 -113.088 86.247 
-114.588 -110.805 86.8549 -113.818 -108.415 87.3652 -113.026 -106.03 87.5649 
-116.001 -116.72 83.6956 -116.296 -117.22 82.8509 -115.702 -115.846 84.3615 
-115.279 -114.499 84.9205 -114.787 -112.729 85.5844 -114.244 -110.696 86.2433 
-113.489 -108.556 86.8215 -112.681 -106.383 87.1788 -112.074 -104.127 87.0178 
-115.021 -115.437 83.3606 -115.276 -115.754 82.7234 -114.855 -114.771 83.9914 
-114.628 -113.626 84.5174 -114.279 -112.052 85.083 -113.832 -110.302 85.7183 
-113.139 -108.467 86.3176 -112.281 -106.497 86.7549 -111.635 -104.41 86.7716 
-111.221 -102.303 86.3259 -117.939 -110.442 88.8542 -118.426 -112.962 88.3207 
-118.219 -111.249 88.0126 -118.882 -113.925 87.4005 -118.408 -111.818 87.2256 
-118.901 -115.596 87.5574 -119.042 -114.488 86.4885 -118.395 -111.927 86.5746 
-119.605 -116.376 86.5006 -119.52 -117.648 86.4817 -118.806 -114.411 85.7038 
-118.274 -111.448 85.9539 -119.81 -116.548 85.3726 -120.48 -118.071 85.2504 
-120.104 -119.128 85.1444 -118.419 -113.605 85.175 -118.08 -110.308 85.4004 
-119.37 -116.136 84.5519 -120.632 -117.899 84.0686 -120.875 -119.496 83.9128 
-119.882 -120.434 83.9031 -117.97 -111.95 84.9476 -117.753 -108.504 84.9151 
-118.589 -115.02 84.3521 -119.852 -117.266 83.4939 -120.664 -119.066 82.9135 
-120.11 -120.597 82.7399 -118.911 -120.875 82.961 -117.541 -109.596 84.6493 
-117.406 -106.436 84.3127 -117.789 -112.856 84.4498 -118.658 -115.724 83.6479 
-119.654 -117.856 82.6851 -119.728 -119.498 81.9897 -118.958 -120.408 81.8436 
-118.037 -119.961 82.3339 -117.233 -107.192 84.0288 -117.052 -104.57 83.5857 
-117.242 -110.055 84.2348 -117.601 -113.015 83.9113 -118.407 -115.587 83.1029 
-118.913 -117.475 82.1549 -118.729 -118.78 81.4863 -118.136 -119.171 81.4741 
-117.291 -118.463 82.0824 -116.874 -105.135 83.286 -116.553 -102.943 82.8784 
[...]
CELL_DATA 2000
SCALARS Distance double
LOOKUP_TABLE default
154.186 154.761 154.706 155.225 155.46 155.367 155.938 155.849 156.434 
156.305 156.145 156.734 156.62 157.235 157.138 157.831 157.338 157.085 
157.721 157.531 158.227 158.045 158.804 158.688 159.569 158.555 158.235 
158.937 158.676 159.475 159.215 160.058 159.829 160.78 160.637 161.66 
159.844 159.524 160.241 159.974 160.781 160.541 161.393 161.169 162.11 
161.95 162.992 162.844 163.87 161.122 160.825 161.525 161.261 162.013 
161.799 162.613 162.445 163.366 163.255 164.289 164.185 165.228 165.06 
166.046 162.352 162.09 162.789 162.52 163.253 163.009 163.833 163.65 
164.622 164.506 165.593 165.488 166.574 166.418 167.438 167.234 168.21 
163.475 163.277 163.988 163.761 164.508 164.268 165.109 164.918 165.921 
165.807 166.927 166.829 167.935 167.785 168.819 168.628 169.621 169.408 
170.367 153.694 153.07 153.633 154.179 152.468 153.008 153.576 154.183 
154.858 152.094 152.528 153.16 153.667 154.396 154.979 155.741 152.055 
152.362 153.031 153.395 154.131 154.625 155.441 155.975 156.792 152.131 
152.432 153.071 153.365 154.025 154.428 155.226 155.746 156.607 157.119 
157.985 152.056 152.426 153.053 153.398 154.031 154.365 155.101 155.559 
156.429 156.956 157.845 158.361 159.251 151.973 152.294 152.956 153.345 
154.076 154.417 155.17 155.519 156.354 156.806 157.702 158.214 159.112 
159.633 160.523 152.133 152.323 153.009 153.321 154.121 154.488 155.306 
155.646 156.455 156.814 157.664 158.101 158.994 159.494 160.393 160.901 
161.762 152.502 152.622 153.309 153.506 154.274 154.577 155.391 155.753 
156.564 156.925 157.739 158.119 158.974 159.412 160.298 160.779 161.64 
162.114 162.902 152.969 154.067 153.599 153.818 155.341 154.795 155.007 
154.499 154.757 156.756 156.166 156.399 155.786 156.018 155.497 155.828 
158.236 157.649 157.963 157.303 157.558 156.886 157.179 156.641 157.015 
159.78 159.177 159.552 158.925 159.252 158.546 158.831 158.137 158.465 
157.882 158.244 161.387 160.779 161.16 160.537 160.9 160.243 160.559 
159.855 160.156 159.461 159.789 159.155 159.505 162.867 162.363 162.763 
162.169 162.53 161.883 162.224 161.558 161.891 161.194 161.516 160.806 
161.133 160.466 160.821 164.143 163.752 164.205 163.72 164.1 163.503 
163.837 163.204 163.562 162.916 163.267 162.564 162.872 162.151 162.457 
161.794 162.132 165.38 165.012 165.526 165.11 165.541 165.015 165.342 
164.761 165.09 164.524 164.879 164.269 164.565 163.87 164.111 163.419 
163.681 163.057 163.353 164.203 164.56 164.785 165.668 165.021 165.208 
166.129 166.364 167.388 165.5 165.715 166.67 166.897 167.987 168.244 
169.41 165.805 166.13 167.107 167.431 168.562 168.891 170.132 170.395 
171.629 165.993 166.353 167.333 167.762 168.918 169.394 170.685 171.095 
172.39 172.662 173.936 166.261 166.583 167.594 167.985 169.159 169.664 
170.982 171.528 172.877 173.329 174.661 174.996 176.335 166.498 166.891 
167.967 168.349 169.546 169.967 171.259 171.77 173.12 173.683 175.063 
175.589 176.975 177.386 178.692 166.488 167.029 168.133 168.677 169.89 
170.377 171.622 172.084 173.364 173.89 175.239 175.85 177.231 177.83 
179.129 179.578 180.675 166.306 166.899 167.965 168.657 169.845 170.533 
171.754 172.355 173.583 174.129 175.396 175.979 177.271 177.913 179.14 
179.756 180.821 181.29 182.156 164.282 165.774 164.97 164.874 167.517 
166.598 166.545 165.625 165.485 169.532 168.494 168.464 167.434 167.344 
166.314 166.178 171.763 170.65 170.644 169.496 169.433 168.31 168.25 
167.147 167.081 174.173 173.032 173.167 171.891 171.899 170.588 170.567 
169.351 169.357 168.19 168.149 176.692 175.59 175.94 174.657 174.873 
173.389 173.436 171.924 171.921 170.569 170.543 169.29 169.174 179.077 
178.129 178.541 177.454 177.8 176.5 176.665 175.084 175.041 173.39 
173.28 171.784 171.64 170.283 170.077 181.052 180.341 180.669 179.817 
180.053 179.122 179.279 178.122 178.077 176.578 176.347 174.701 174.438 
172.872 172.617 171.178 170.913 182.561 182.073 182.366 181.673 181.773 
181.004 181.033 180.239 180.193 179.188 178.954 177.612 177.234 175.706 
175.319 173.795 173.439 171.995 171.662 183.434 184.738 183.854 183.274 
185.95 185.094 184.396 183.46 182.651 186.817 186.123 185.365 184.493 
183.576 182.67 181.821 187.219 186.715 185.943 185.287 184.374 183.534 
182.59 181.783 180.949 187.189 186.864 186.039 185.622 184.778 184.185 
183.236 182.481 181.521 180.797 179.805 186.665 186.599 185.744 185.51 
184.658 184.343 183.425 182.911 181.846 181.211 180.094 179.413 178.183 
185.614 185.837 185.053 185.027 184.128 183.993 183.036 182.783 181.678 
181.254 180.041 179.515 178.261 177.61 176.274 184.208 184.622 183.929 
184.137 183.253 183.27 182.265 182.167 181.072 180.836 179.641 179.269 
178.029 177.546 176.267 175.646 174.335 182.632 183.134 182.489 182.87 
182.06 182.235 181.259 181.273 180.229 180.126 179.026 178.775 177.596 
177.221 175.993 175.521 174.265 173.7 172.471 183.559 184.007 184.225 
184.984 184.272 184.679 185.636 185.722 186.332 184.226 184.865 185.937 
186.3 187.06 187.005 187.317 183.736 184.602 185.665 186.362 187.219 
187.554 188.026 187.845 187.849 182.829 183.866 184.846 185.779 186.642 
187.386 188.009 188.314 188.483 188.2 187.895 181.495 182.71 183.62 
184.719 185.528 186.519 187.163 187.91 188.17 188.439 188.177 187.916 
187.277 179.793 181.119 181.935 183.221 183.946 185.154 185.723 186.741 
186.962 187.646 187.413 187.675 187.044 186.906 186.071 178.011 179.281 
179.957 181.284 181.879 183.255 183.747 185.006 185.205 186.144 185.967 
186.552 186.071 186.3 185.569 185.478 184.607 176.313 177.477 178.03 
179.238 179.694 181.006 181.418 182.782 183.032 184.195 184.144 184.977 
184.68 185.188 184.664 184.816 184.043 183.925 183.024 166.514 167.41 
167.347 168.205 168.392 168.326 169.255 169.196 170.145 169.49 169.4 
170.426 170.347 171.413 171.269 172.19 170.743 170.628 171.771 171.66 
172.857 172.688 173.767 173.412 174.203 171.947 171.913 173.081 173.055 
174.316 174.229 175.418 175.123 176.043 175.478 176.123 172.897 172.992 
174.118 174.242 175.485 175.585 176.797 176.716 177.694 177.316 178.017 
177.39 177.954 173.733 173.87 175.052 175.205 176.504 176.66 177.932 
177.967 179.018 178.825 179.596 179.166 179.757 179.173 179.716 174.628 
174.779 176.09 176.227 177.646 177.77 179.164 179.169 180.348 180.161 
181.066 180.693 181.376 180.871 181.434 180.864 181.352 175.485 175.718 
177.079 177.3 178.743 178.953 180.378 180.465 181.702 181.579 182.577 
182.25 183.034 182.532 183.131 182.538 183.006 182.389 182.724 165.698 
164.78 165.658 166.537 163.811 164.719 165.589 166.53 167.469 162.725 
163.678 164.524 165.527 166.455 167.456 168.469 161.597 162.537 163.346 
164.381 165.29 166.362 167.382 168.488 169.625 160.539 161.418 162.185 
163.173 164.032 165.115 166.115 167.312 168.482 169.689 170.841 159.58 
160.388 161.107 162.025 162.81 163.829 164.749 165.954 167.106 168.438 
169.64 170.837 171.847 158.728 159.448 160.102 160.953 161.684 162.623 
163.471 164.578 165.653 166.976 168.176 169.508 170.578 171.72 172.633 
158.001 158.617 159.198 159.964 160.66 161.53 162.357 163.359 164.371 
165.557 166.683 167.978 169.047 170.314 171.283 172.46 173.409 157.386 
157.912 158.428 159.098 159.752 160.549 161.351 162.289 163.257 164.337 
165.367 166.527 167.497 168.722 169.669 170.963 171.953 173.223 174.209 
157.21 157.316 157.566 158.258 157.563 157.762 158.515 158.761 159.585 
157.967 158.105 158.907 159.117 160.032 160.254 161.223 158.473 158.586 
159.426 159.607 160.598 160.813 161.899 162.086 163.182 158.984 159.13 
160.021 160.202 161.238 161.452 162.579 162.811 163.963 164.146 165.251 
159.502 159.678 160.657 160.854 161.949 162.151 163.286 163.5 164.636 
164.866 165.976 166.178 167.265 160.135 160.289 161.358 161.551 162.714 
162.915 164.104 164.274 165.446 165.594 166.763 166.915 168.102 168.249 
169.429 160.909 161.03 162.133 162.308 163.478 163.691 164.907 165.12 
166.374 166.53 167.822 167.907 169.243 169.285 170.622 170.618 171.848 
161.725 161.843 162.92 163.089 164.211 164.424 165.6 165.869 167.153 
167.445 168.843 169.063 170.506 170.6 172.008 171.986 173.272 173.137 
174.228 162.513 164.136 163.452 163.741 165.938 165.184 165.517 164.758 
165.058 168.009 167.164 167.593 166.7 167.051 166.169 166.497 170.36 
169.454 170.058 169.042 169.536 168.439 168.849 167.789 168.176 172.997 
172.041 172.853 171.775 172.491 171.266 171.831 170.51 170.971 169.697 
170.072 175.885 174.939 175.957 174.826 175.718 174.459 175.169 173.764 
174.255 172.783 173.135 171.698 171.911 178.618 177.912 179.08 178.07 
178.999 177.777 178.47 177.12 177.541 176.08 176.287 174.814 174.924 
173.458 173.46 180.696 180.383 181.552 180.955 181.814 180.868 181.412 
180.237 180.516 179.172 179.206 177.783 177.714 176.328 176.234 174.831 
174.664 182.082 182.048 183.107 182.925 183.708 183.195 183.643 182.805 
183.009 181.897 181.868 180.523 180.322 178.938 178.72 177.403 177.167 
175.832 175.529 162.07 161.896 162.541 163.668 161.633 162.357 163.538 
164.204 165.425 161.223 162.04 163.278 164.052 165.336 166.044 167.401 
160.766 161.593 162.861 163.73 165.074 165.906 167.322 168.11 169.624 
160.429 161.184 162.447 163.298 164.669 165.575 167.045 167.96 169.541 
170.417 172.11 160.215 160.926 162.189 162.956 164.316 165.178 166.676 
167.637 169.286 170.275 172.031 172.989 174.822 160.04 160.749 162.029 
162.759 164.093 164.883 166.367 167.298 168.998 170.024 171.835 172.853 
174.666 175.679 177.447 159.895 160.589 161.876 162.607 163.92 164.676 
166.103 167.005 168.698 169.759 171.62 172.67 174.462 175.443 177.096 
178.089 179.573 159.792 160.45 161.713 162.445 163.743 164.488 165.849 
166.709 168.311 169.398 171.237 172.397 174.186 175.203 176.761 177.674 
179.031 179.938 181.096 161.02 159.404 160.405 160.81 157.904 158.799 
159.139 160.15 160.511 156.602 157.362 157.595 158.478 158.743 159.766 
160.071 155.397 156.083 156.203 156.955 157.079 157.985 158.212 159.275 
159.601 154.147 154.821 154.844 155.54 155.532 156.319 156.434 157.421 
157.722 158.839 159.25 152.801 153.468 153.436 154.139 154.092 154.789 
154.814 155.671 155.908 156.972 157.368 158.529 158.999 151.534 152.081 
152.024 152.712 152.722 153.4 153.433 154.15 154.331 155.231 155.589 
156.662 157.116 158.291 158.799 150.7 150.974 150.883 151.386 151.413 
152.062 152.14 152.834 153 153.78 154.104 155.012 155.451 156.482 
156.989 158.131 158.678 150.395 150.421 150.297 150.485 150.436 150.862 
150.901 151.53 151.684 152.46 152.771 153.635 154.071 154.979 155.481 
156.46 157.008 158.083 158.643 150.308 150.106 150.185 150.148 149.886 
149.973 149.926 150.021 150.122 149.795 149.827 149.809 149.821 149.843 
150.049 150.402 149.809 149.809 149.843 149.811 149.836 149.856 150.137 
150.477 151.13 149.946 149.854 149.954 149.942 150.109 150.034 150.327 
150.409 151.061 151.441 152.307 150.53 150.182 150.343 150.206 150.57 
150.484 150.923 150.841 151.48 151.618 152.511 152.819 153.72 151.559 
151.053 151.237 150.876 151.306 151.137 151.719 151.591 152.257 152.228 
153.069 153.213 154.132 154.33 155.183 152.598 152.17 152.359 151.932 
152.29 152.026 152.603 152.464 153.162 153.082 153.886 153.901 154.785 
154.872 155.74 155.853 156.698 153.468 153.155 153.382 153.014 153.32 
153.024 153.525 153.368 154.058 153.991 154.795 154.769 155.62 155.621 
156.466 156.498 157.337 157.425 158.293 154.026 155.022 154.345 154.013 
156.253 155.467 155.14 154.364 154.04 157.725 156.851 156.611 155.687 
155.397 154.525 154.307 159.483 158.494 158.35 157.34 157.118 156.098 
155.906 154.986 154.895 161.531 160.421 160.278 159.195 159.003 157.937 
157.76 156.75 156.665 155.73 155.697 163.736 162.582 162.446 161.252 
161.071 159.906 159.746 158.668 158.584 157.591 157.548 156.589 156.538 
165.961 164.842 164.818 163.577 163.502 162.19 162.107 160.828 160.772 
159.606 159.562 158.497 158.426 157.426 157.354 168.173 167.112 167.209 
166.034 166.083 164.792 164.799 163.425 163.391 162.016 161.95 160.661 
160.576 159.406 159.322 158.269 158.221 170.353 169.356 169.511 168.424 
168.508 167.342 167.356 166.104 166.043 164.704 164.578 163.198 163.052 
161.718 161.603 160.378 160.315 159.21 159.196 160.135 161.333 161.169 
162.089 162.697 162.49 163.483 163.247 164.169 164.208 163.968 165.035 
164.758 165.765 165.413 166.348 165.766 165.543 166.673 166.406 167.536 
167.172 168.276 167.804 168.907 167.248 167.098 168.292 168.091 169.362 
169.074 170.375 169.94 171.238 170.676 171.919 168.595 168.548 169.837 
169.732 171.141 170.972 172.423 172.114 173.511 173.069 174.372 173.783 
174.891 169.788 169.86 171.241 171.264 172.757 172.738 174.242 174.095 
175.466 175.191 176.434 176.057 177.134 176.557 177.41 170.81 171.003 
172.418 172.584 174.06 174.209 175.66 175.712 176.994 176.895 178.028 
177.842 178.878 178.547 179.407 178.847 179.555 171.637 171.939 173.337 
173.624 175.022 175.293 176.638 176.857 178.065 178.151 179.214 179.191 
180.192 180.065 180.959 180.632 181.353 180.837 181.471 151.924 151.597 
151.509 151.082 151.462 151.277 150.905 150.798 150.522 151.503 151.231 
150.844 150.703 150.457 150.383 150.263 151.48 151.223 150.727 150.621 
150.347 150.325 150.171 150.184 150.149 151.364 151.09 150.508 150.403 
150.105 150.157 150.012 150.049 149.93 150.017 150.004 151.508 151.085 
150.566 150.263 150.008 149.956 149.901 149.906 149.794 149.781 149.699 
149.835 149.907 152.03 151.504 151.118 150.602 150.351 150.059 150.016 
149.91 149.845 149.724 149.609 149.597 149.67 149.843 150.047 152.688 
152.189 151.852 151.306 150.945 150.506 150.273 150.075 149.961 149.837 
149.72 149.613 149.634 149.703 149.92 150.091 150.293 153.281 152.838 
152.468 151.981 151.499 151.01 150.546 150.25 149.998 149.908 149.811 
149.747 149.731 149.724 149.848 149.974 150.145 150.293 150.377 152 
151.109 151.611 151.857 150.515 150.817 151.018 151.556 151.993 150.298 
150.411 150.584 150.889 151.318 151.884 152.503 150.293 150.363 150.574 
150.682 151.058 151.388 151.983 152.531 153.179 150.229 150.386 150.658 
150.775 151.111 151.285 151.774 152.141 152.785 153.275 153.922 150.133 
150.287 150.545 150.759 151.075 151.31 151.724 152.015 152.592 152.996 
153.689 154.125 154.786 150.221 150.245 150.427 150.574 150.855 151.142 
151.563 151.912 152.455 152.845 153.497 153.937 154.599 155.012 155.573 
150.417 150.389 150.528 150.543 150.812 150.976 151.446 151.745 152.324 
152.686 153.291 153.712 154.305 154.753 155.27 155.677 156.102 150.494 
150.533 150.697 150.721 151.051 151.127 151.664 151.818 152.441 152.647 
153.231 153.513 154.046 154.417 154.9 155.305 155.728 156.117 156.509 
152.648 152.549 152.951 153.74 152.701 152.956 153.77 154.152 155.025 
153.167 153.256 154.015 154.273 155.141 155.511 156.417 153.744 153.76 
154.407 154.572 155.362 155.672 156.569 156.944 157.87 154.392 154.31 
154.859 154.94 155.666 155.921 156.828 157.165 158.143 158.473 159.442 
155.204 155.013 155.515 155.443 156.142 156.284 157.227 157.515 158.562 
158.852 159.864 160.123 161.07 155.979 155.835 156.315 156.186 156.832 
156.861 157.754 157.978 159.01 159.305 160.296 160.564 161.457 161.704 
162.526 156.521 156.501 156.984 156.941 157.537 157.557 158.331 158.499 
159.412 159.698 160.62 160.922 161.766 162.033 162.804 163.048 163.781 
156.949 156.976 157.501 157.529 158.139 158.191 158.912 159.033 159.852 
160.063 160.93 161.201 162.056 162.32 163.122 163.339 164.09 164.286 
165.018 160.803 159.956 159.968 159.185 159.204 159.146 158.355 158.382 
157.706 158.652 158.507 157.733 157.639 156.951 156.991 156.43 158.233 
158.077 157.364 157.166 156.454 156.334 155.728 155.784 155.27 157.781 
157.688 157.054 156.886 156.214 155.98 155.335 155.203 154.661 154.672 
154.125 157.285 157.214 156.612 156.546 155.953 155.789 155.195 154.974 
154.428 154.247 153.686 153.553 152.908 156.888 156.749 156.138 156.073 
155.515 155.462 154.937 154.834 154.324 154.139 153.563 153.291 152.611 
152.361 151.707 156.682 156.453 155.859 155.682 155.131 155.028 154.518 
154.479 153.983 153.931 153.353 153.169 152.475 152.189 151.54 151.308 
150.862 156.649 156.37 155.841 155.558 155.04 154.789 154.277 154.109 
153.595 153.508 152.937 152.834 152.182 152.007 151.412 151.232 150.846 
150.709 150.521 
POINT_DATA 1002
SCALARS Distance double
LOOKUP_TABLE default
154.634 153.73 154.198 155.291 154.797 155.752 156.016 155.569 156.509 
157.046 156.851 156.498 157.337 157.863 158.588 157.907 157.611 158.408 
158.938 159.614 160.508 159.189 158.867 159.717 160.301 160.937 161.791 
162.683 160.519 160.15 161.019 161.609 162.271 163.125 164.061 164.867 
161.81 161.408 162.249 162.773 163.46 164.372 165.372 166.254 167.017 
163.055 162.595 163.504 164.008 164.72 165.689 166.722 167.63 168.432 
169.183 164.184 163.647 164.728 165.294 166.028 167.017 168.079 169.005 
169.823 170.61 171.311 153.159 153.546 152.509 152.975 151.924 154.21 
152.69 151.671 153.821 155.16 152.729 151.77 153.68 154.898 156.269 
152.801 151.826 153.69 154.71 156.073 157.48 152.656 151.69 153.708 
154.7 155.898 157.318 158.738 152.541 151.691 153.676 154.849 155.965 
157.205 158.587 160.014 152.741 151.971 153.749 154.942 156.13 157.275 
158.515 159.883 161.283 153.158 152.38 154.032 155.044 156.19 157.375 
158.57 159.839 161.172 162.466 153.373 154.269 154.563 155.557 155.907 
155.199 157.037 157.326 156.606 156.252 158.586 158.798 158.268 157.803 
157.485 160.15 160.397 159.924 159.568 159.125 158.79 161.793 161.975 
161.54 161.239 160.875 160.472 160.108 163.323 163.306 163.177 162.874 
162.563 162.239 161.84 161.454 164.633 164.496 164.665 164.461 164.18 
163.949 163.617 163.161 162.758 165.913 165.739 166.038 165.924 165.645 
165.448 165.246 164.835 164.339 163.947 165.016 165.395 166.595 165.892 
167.104 168.47 166.422 167.701 169.161 170.602 166.727 168.175 169.815 
171.426 172.865 166.889 168.388 170.197 172.05 173.701 175.249 167.218 
168.681 170.414 172.342 174.245 176.046 177.718 167.535 169.153 170.812 
172.558 174.467 176.484 178.401 179.96 167.519 169.35 171.174 172.887 
174.651 176.605 178.613 180.377 181.692 167.272 169.109 171.084 173.01 
174.854 176.688 178.528 180.285 181.806 182.974 165.713 167.488 166.436 
169.526 168.382 167.216 171.826 170.584 169.336 168.201 174.412 173.27 
171.85 170.518 169.354 177.116 176.3 175.057 173.409 171.84 170.44 
179.558 178.953 178.152 176.795 174.927 173.077 171.406 181.508 180.944 
180.266 179.423 178.017 176.103 174.138 172.309 183.023 182.573 181.808 
181.031 180.127 178.722 176.881 174.943 173.069 184.313 184.235 185.675 
185.381 186.8 183.58 186.194 187.463 184.527 182.629 186.492 187.706 
185.147 183.454 181.695 186.398 187.469 185.232 183.961 182.3 180.573 
185.933 186.597 184.905 183.842 182.477 180.766 178.95 184.984 185.264 
184.246 183.235 182.037 180.527 178.836 177.002 183.621 183.742 183.185 
182.333 181.232 179.951 178.45 176.805 174.998 182.043 182.114 181.808 
181.192 180.258 179.2 177.931 176.412 174.765 173.035 183.397 184.972 
183.657 185.416 183.749 186.527 185.437 183.5 186.966 187.694 184.876 
182.841 186.687 188.008 188.383 183.889 181.768 185.778 187.467 188.556 
188.515 182.483 180.245 184.495 186.316 187.709 188.251 187.767 180.639 
178.503 182.692 184.658 186.201 186.981 187.009 186.356 178.707 176.828 
180.531 182.422 184.167 185.253 185.669 185.537 184.818 176.903 175.212 
178.485 180.074 181.766 183.172 184.014 184.362 184.095 183.218 166.537 
168.238 167.461 169.285 168.435 170.249 170.485 169.555 171.516 172.481 
171.85 170.83 172.986 174.075 174.751 173.063 171.951 174.336 175.633 
176.551 176.835 173.966 172.776 175.331 176.793 177.97 178.571 178.656 
174.872 173.555 176.323 177.864 179.147 179.946 180.281 180.345 175.913 
174.42 177.492 179.133 180.506 181.401 181.861 181.994 181.97 164.823 
165.618 163.905 164.637 162.894 166.515 163.506 161.781 165.434 167.421 
162.329 160.686 164.208 166.235 168.494 161.243 159.693 162.988 164.906 
167.211 169.747 160.233 158.819 161.849 163.598 165.75 168.363 170.816 
159.297 158.074 160.781 162.427 164.392 166.822 169.351 171.571 158.484 
157.446 159.818 161.386 163.262 165.464 167.769 170.026 172.255 157.809 