# vtk DataFile Version 4.0
vtk output
ASCII
DATASET POLYDATA
POINTS 1002 float
-101.061 -85.6527 79.7284 -101.254 -85.0185 78.5868 -101.673 -84.9769 79.4305 
-101.601 -85.6891 80.5856 -102.132 -84.9543 80.4139 -101.25 -86.5129 80.8453 
-102.219 -85.771 81.5805 -102.639 -84.9323 81.4931 -101.923 -86.6491 81.7383 
-101.737 -87.5764 82.0439 -102.86 -85.8898 82.7043 -103.299 -85.0484 82.506 
-102.567 -86.8433 82.8762 -102.331 -87.85 83.1865 -102.139 -88.87 83.6498 
-103.558 -86.1728 83.7786 -104.134 -85.4184 83.3716 -103.126 -87.0583 84.1585 
-102.814 -88.0886 84.5506 -102.587 -89.2152 85.0002 -102.483 -90.3475 85.4596 
-104.377 -86.6283 84.7202 -104.996 -85.9077 84.2429 -103.789 -87.3795 85.2564 
-103.365 -88.2725 85.7842 -103.15 -89.4141 86.2216 -103.089 -90.6414 86.5708 
-103.072 -91.7977 86.8839 -105.231 -87.0651 85.6993 -105.751 -86.3767 85.2125 
-104.655 -87.7642 86.2002 -104.19 -88.5646 86.717 -103.969 -89.6578 87.1587 
-103.92 -90.9294 87.4665 -103.887 -92.1347 87.7273 -103.821 -93.2552 87.9916 
-106.006 -87.4626 86.6882 -106.45 -86.8522 86.1187 -105.507 -88.1359 87.2147 
-105.068 -88.9749 87.6861 -104.858 -90.1213 88.0898 -104.789 -91.4429 88.388 
-104.711 -92.6678 88.6339 -104.627 -93.7994 88.8758 -104.592 -94.9331 89.0837 
-106.749 -87.9257 87.4833 -107.154 -87.3232 86.8783 -106.265 -88.5971 88.115 
-105.781 -89.4629 88.6923 -105.542 -90.6642 89.1412 -105.509 -92.0693 89.4322 
-105.445 -93.3501 89.6277 -105.384 -94.474 89.7928 -105.403 -95.6047 89.923 
-105.457 -96.7381 90.0063 -107.464 -88.4155 88.1394 -107.786 -87.7196 87.6032 
-107.026 -89.1657 88.7681 -106.503 -90.0344 89.4172 -106.166 -91.1704 89.9492 
-106.143 -92.5744 90.2861 -106.175 -93.9633 90.4703 -106.171 -95.1641 90.5622 
-106.26 -96.2866 90.5904 -106.381 -97.4015 90.5925 -106.422 -98.4337 90.5925 
-101.834 -84.438 77.9529 -102.238 -84.3097 78.8926 -102.31 -83.7249 77.3371 
-102.673 -83.4629 78.4042 -102.638 -82.8614 76.8096 -102.601 -84.1562 80.0312 
-103.05 -82.5586 78.0202 -103.267 -82.1701 76.406 -103.018 -83.2317 79.6468 
-103.071 -84.0911 81.1834 -103.837 -81.9778 77.654 -104.359 -81.7992 76.0492 
-103.585 -82.4382 79.2551 -103.629 -83.3088 80.7892 -103.852 -84.3181 82.1383 
-104.931 -81.6382 77.2191 -105.309 -81.3159 75.6872 -104.578 -81.9797 78.7903 
-104.455 -82.7121 80.3519 -104.575 -83.7101 81.7511 -104.802 -84.7636 82.9837 
-105.757 -81.0645 76.8752 -105.865 -80.5209 75.437 -105.635 -81.5521 78.3369 
-105.471 -82.1785 79.895 -105.393 -83.0933 81.4233 -105.488 -84.1194 82.7093 
-105.631 -85.2419 83.9184 -106.376 -80.3173 76.7597 -106.436 -79.8282 75.3616 
-106.425 -80.916 78.09 -106.367 -81.5735 79.4863 -106.19 -82.3947 81.056 
-106.143 -83.3918 82.499 -106.251 -84.5511 83.6823 -106.352 -85.7782 84.8779 
-107.083 -79.7438 76.7267 -107.174 -79.4672 75.3469 -107.133 -80.238 78.0067 
-107.142 -80.9562 79.2164 -106.983 -81.8067 80.6143 -106.846 -82.7293 82.1479 
-106.912 -83.8446 83.4494 -107.025 -85.1464 84.5751 -107.08 -86.349 85.7443 
-107.816 -79.3706 76.6242 -107.911 -79.2602 75.2994 -107.828 -79.6545 77.9091 
-107.855 -80.318 79.0753 -107.775 -81.289 80.2855 -107.63 -82.2556 81.7162 
-107.601 -83.2366 83.1319 -107.686 -84.4566 84.3247 -107.734 -85.7388 85.4531 
-107.743 -86.8092 86.5818 -108.546 -79.0835 76.0465 -108.489 -79.1473 77.4262 
-109.239 -78.9673 76.8783 -109.122 -79.1192 78.3732 -109.938 -79.2531 77.9022 
-108.475 -79.5485 78.7762 -109.713 -79.6715 79.5147 -110.541 -80.0407 79.0746 
-109.012 -79.7951 79.8687 -108.454 -80.5215 80.059 -110.348 -80.6861 80.6939 
-111.085 -80.9904 80.2905 -109.564 -80.5377 81.1376 -108.98 -80.9632 81.359 
-108.384 -81.7055 81.4473 -111.061 -81.6902 81.8516 -111.69 -81.9202 81.4882 
-110.305 -81.5175 82.3634 -109.574 -81.6051 82.7929 -108.927 -82.1328 82.9006 
-108.284 -82.7481 82.9417 -111.638 -82.7114 82.9949 -112.199 -83.0491 82.5564 
-111.057 -82.5559 83.5096 -110.357 -82.5276 84.0636 -109.491 -82.775 84.3578 
-108.77 -83.3109 84.3449 -108.248 -83.9152 84.2937 -111.913 -84.0547 84.0379 
-112.403 -84.4401 83.5025 -111.469 -83.8321 84.5901 -111.057 -83.7827 85.1438 
-110.249 -83.888 85.5697 -109.263 -84.1929 85.7233 -108.656 -84.6928 85.6582 
-108.262 -85.2603 85.5286 -112.084 -85.574 85.0242 -112.426 -85.8479 84.4729 
-111.692 -85.347 85.6185 -111.457 -85.2278 86.1825 -110.996 -85.2323 86.6485 
-110.036 -85.345 86.9562 -109.134 -85.5895 87.0655 -108.65 -85.9898 86.962 
-108.264 -86.4475 86.743 -112.316 -86.9728 86.0383 -112.457 -87.1349 85.491 
-112.025 -86.8199 86.6542 -111.788 -86.6637 87.2622 -111.527 -86.5366 87.7751 
-110.873 -86.4955 88.1376 -109.913 -86.5625 88.3462 -109.145 -86.7572 88.3641 
-108.683 -87.0869 88.1525 -108.275 -87.4519 87.835 -108.157 -88.5963 88.7171 
-108.604 -88.3406 89.0945 -108.468 -89.7435 89.9631 -109.08 -88.0447 89.4501 
-108.933 -89.5945 90.3724 -108.736 -91.1057 91.211 -109.799 -87.829 89.6033 
-109.625 -89.4651 90.6099 -109.336 -91.1699 91.4996 -109.134 -92.7103 92.2104 
-110.734 -87.7283 89.5553 -110.558 -89.3875 90.6656 -110.251 -91.3143 91.5481 
-109.9 -93.0446 92.3798 -109.825 -94.8215 92.8853 -111.516 -87.7768 89.3295 
-111.358 -89.3977 90.5902 -111.11 -91.4959 91.4636 -110.813 -93.5112 92.3398 
-110.635 -95.3286 93.087 -110.773 -97.3656 93.3506 -111.948 -87.976 88.8827 
-111.859 -89.5985 90.3001 -111.596 -91.7567 91.2352 -111.426 -94.0195 92.1026 
-111.417 -95.9456 93.0675 -111.534 -97.8474 93.5997 -111.752 -99.9662 93.6142 
-112.215 -88.187 88.264 -112.227 -89.8926 89.8064 -111.972 -92.1127 90.8964 
-111.82 -94.5056 91.7523 -112.002 -96.5372 92.7862 -112.32 -98.3562 93.5922 
-112.515 -100.423 93.7956 -112.572 -102.671 93.7119 -112.434 -88.322 87.5784 
-112.48 -90.0907 89.1926 -112.342 -92.3971 90.5241 -112.29 -94.868 91.4936 
-112.555 -96.9563 92.4738 -113.01 -98.7527 93.3867 -113.354 -100.797 93.782 
-113.398 -103.208 93.7936 -113.249 -105.577 93.7955 -112.526 -88.4349 86.9113 
-112.55 -90.2037 88.4885 -112.504 -92.5403 90.0036 -112.653 -95.0399 91.2031 
-113.087 -97.1357 92.1833 -113.556 -98.9321 93.084 -113.932 -100.995 93.6322 
-114.141 -103.499 93.7511 -114.085 -106.087 93.7806 -113.857 -108.305 93.8796 
-107.856 -89.5232 89.2706 -108.202 -90.8506 90.521 -107.416 -90.4885 89.8868 
-108.588 -92.3629 91.6746 -107.941 -92.0148 90.961 -107.015 -91.5897 90.4234 
-109.197 -94.4143 92.4966 -108.642 -93.9873 91.8638 -107.866 -93.4836 91.2244 
-106.925 -93.0005 90.7932 -110.139 -97.1204 93.0214 -109.497 -96.7473 92.6147 
-108.78 -96.0962 92.0656 -107.934 -95.3033 91.5115 -107.011 -94.5959 91.0504 
-111.246 -99.8858 93.3274 -110.597 -99.6739 93.097 -109.692 -99.125 92.8886 
-108.802 -98.1948 92.4344 -107.985 -97.0991 91.7881 -107.073 -96.0657 91.1794 
-112.142 -102.591 93.4911 -111.732 -102.292 93.233 -110.912 -101.747 93.1197 
-109.827 -100.944 92.9827 -108.967 -99.8768 92.4784 -108.192 -98.6016 91.7517 
-107.238 -97.3437 91.1345 -112.734 -105.57 93.6859 -112.447 -105.165 93.3936 
-112.031 -104.411 93.0482 -111.191 -103.452 92.8184 -110.257 -102.417 92.5598 
-109.458 -101.224 92.0648 -108.551 -99.8331 91.4864 -107.452 -98.5 91.0262 
-113.258 -108.517 93.8923 -112.824 -108.274 93.7166 -112.527 -107.578 93.3327 
-112.106 -106.477 92.8521 -111.49 -105.143 92.4155 -110.757 -103.782 92.0431 
-109.847 -102.352 91.6653 -108.718 -100.86 91.2967 -107.509 -99.5292 90.9687 
-114.047 -110.903 93.9011 -113.408 -111.07 93.8864 -114.162 -113.041 93.5723 
-113.435 -113.096 93.4818 -114.09 -114.845 92.7876 -112.821 -110.767 93.735 
-113.273 -114.698 92.6533 -113.862 -116.752 91.875 -112.603 -112.767 93.477 
-112.35 -109.972 93.4074 -113.07 -116.297 91.7564 -113.588 -118.596 91.1384 
-112.41 -114.201 92.7523 -112.035 -111.862 93.2967 -112.012 -108.539 92.8192 
-112.875 -117.7 91.0611 -113.187 -119.611 90.4509 -112.478 -115.34 91.7376 
-112.011 -112.952 92.5457 -111.864 -110.059 92.6154 -111.62 -106.701 92.165 
-112.518 -118.109 90.4595 -112.631 -119.343 89.71 -112.419 -116.02 90.9312 
-112.13 -113.5 91.4751 -111.833 -110.823 91.9143 -111.514 -107.833 91.8943 
-110.844 -104.864 91.7288 -112.09 -117.142 89.8802 -112.151 -117.886 89.1486 
-111.95 -115.705 90.4656 -111.715 -113.583 90.876 -111.557 -111.117 91.2339 
-111.27 -108.457 91.4787 -110.577 -105.657 91.5312 -109.661 -103.07 91.4412 
-111.794 -115.205 89.5011 -111.858 -115.685 88.9401 -111.467 -114.365 90.1452 
-110.958 -112.985 90.6793 -110.79 -111 90.9935 -110.8 -108.626 91.1567 
-110.255 -106.066 91.2734 -109.256 -103.587 91.2866 -108.319 -101.419 91.158 
-111.531 -112.99 89.3699 -111.595 -113.301 88.9512 -111.174 -112.519 89.901 
-110.487 -111.757 90.4352 -110.054 -110.359 90.8014 -110.106 -108.321 90.9226 
-109.859 -106.02 90.9557 -108.924 -103.805 91.0075 -107.872 -101.836 90.9811 
-107.071 -100.075 90.8279 -114.552 -109.414 93.7746 -114.7 -111.889 93.6443 
-114.974 -110.077 93.4264 -115.02 -112.24 93.0803 -115.09 -110.27 92.7838 
-114.647 -114.002 93.1277 -115.141 -112.059 92.2194 -115.187 -110.143 92.0524 
-114.791 -114.466 92.4515 -114.434 -116.306 92.2818 -115.327 -111.703 91.3831 
-115.291 -109.63 91.4648 -114.898 -114.388 91.515 -114.614 -117.376 91.5849 
-114.307 -118.786 91.3469 -115.379 -111.072 90.8117 -115.125 -108.382 90.8969 
-115.008 -113.935 90.7392 -114.745 -117.454 90.6344 -114.768 -119.974 90.402 
-114.169 -120.395 90.3307 -115.034 -109.601 90.3895 -114.597 -106.516 90.3553 
-114.876 -112.803 90.3726 -114.548 -116.402 90.1127 -114.814 -119.557 89.4642 
-114.716 -120.877 89.0815 -113.633 -120.562 89.3256 -114.333 -107.465 90.1374 
-113.835 -104.674 90.0501 -114.527 -110.615 90.151 -114.246 -114.115 90.0438 
-114.311 -117.518 89.3732 -114.627 -119.698 88.497 -114.01 -120.238 88.296 
-112.832 -119.513 88.6927 -113.506 -105.375 89.9694 -113.063 -103.095 89.7456 
-113.986 -107.967 89.9404 -114.111 -110.977 89.8491 -114.052 -114.25 89.5152 
-114.218 -116.979 88.8068 -114.029 -118.453 88.2492 -113.101 -118.578 88.228 
-112.222 -117.502 88.5359 -112.813 -103.497 89.4854 -112.453 -101.531 89.0576 
-113.311 -105.557 89.6025 -113.786 -107.898 89.4958 -114.035 -110.662 89.2789 
[...]
CELL_DATA 2000
SCALARS Distance double
LOOKUP_TABLE default
153.305 154.071 153.847 154.281 154.952 154.707 155.201 155 155.631 
155.946 155.68 156.254 156.021 156.708 156.518 157.31 157.082 156.771 
157.389 157.137 157.854 157.657 158.472 158.314 159.21 158.339 157.991 
158.603 158.311 159.006 158.801 159.604 159.472 160.362 160.258 161.177 
159.627 159.285 159.892 159.557 160.223 159.964 160.758 160.603 161.511 
161.401 162.331 162.21 163.107 160.861 160.559 161.177 160.852 161.516 
161.221 162.032 161.827 162.782 162.62 163.599 163.419 164.355 164.164 
165.08 162.018 161.759 162.386 162.107 162.778 162.511 163.324 163.138 
164.112 163.96 164.957 164.757 165.699 165.477 166.404 166.198 167.129 
163.088 162.878 163.516 163.285 163.958 163.73 164.505 164.365 165.297 
165.23 166.212 166.09 167.009 166.817 167.712 167.52 168.425 168.239 
169.109 152.948 152.643 153.086 153.667 152.201 152.728 153.329 153.825 
154.474 151.834 152.271 152.904 153.436 154.115 154.658 155.402 151.916 
152.087 152.688 153.069 153.807 154.321 155.132 155.67 156.525 152.224 
152.334 152.876 153.06 153.789 154.156 155.034 155.496 156.397 156.888 
157.792 152.272 152.55 153.109 153.324 153.994 154.276 155.108 155.498 
156.386 156.823 157.707 158.186 159.074 152.21 152.519 153.159 153.469 
154.137 154.447 155.184 155.563 156.376 156.81 157.651 158.113 158.978 
159.461 160.315 152.374 152.569 153.241 153.52 154.22 154.526 155.236 
155.584 156.351 156.764 157.595 158.049 158.917 159.384 160.248 160.696 
161.501 152.698 152.824 153.433 153.654 154.325 154.611 155.325 155.644 
156.408 156.766 157.589 158.005 158.874 159.332 160.199 160.648 161.454 
161.859 162.587 153.068 153.841 153.535 153.774 154.803 154.367 154.605 
154.317 154.647 156.078 155.473 155.68 155.246 155.615 155.302 155.695 
157.557 156.884 157.09 156.49 156.853 156.411 156.862 156.458 156.852 
159.081 158.426 158.687 158.024 158.361 157.791 158.22 157.733 158.154 
157.676 158.055 160.573 159.96 160.267 159.649 160.01 159.385 159.759 
159.164 159.544 159.02 159.417 158.929 159.333 161.981 161.423 161.738 
161.195 161.616 161.049 161.451 160.786 161.115 160.467 160.839 160.312 
160.745 160.253 160.662 163.312 162.811 163.169 162.654 163.124 162.628 
163.121 162.51 162.867 162.136 162.445 161.794 162.189 161.666 162.078 
161.565 161.909 164.602 164.166 164.62 164.125 164.635 164.149 164.695 
164.162 164.594 163.91 164.199 163.465 163.763 163.138 163.494 162.957 
163.287 162.752 163.025 163.813 164.114 164.368 165.198 164.393 164.684 
165.58 165.841 166.744 164.754 165.028 166.012 166.274 167.254 167.464 
168.398 165.23 165.487 166.539 166.79 167.855 168.058 169.078 169.209 
170.226 165.625 165.972 167.023 167.333 168.422 168.693 169.786 169.969 
171.055 171.181 172.334 165.756 166.254 167.309 167.732 168.791 169.171 
170.283 170.627 171.787 172.032 173.207 173.383 174.576 165.709 166.284 
167.394 167.922 169.015 169.462 170.591 171.031 172.264 172.674 173.928 
174.215 175.411 175.596 176.744 165.621 166.198 167.317 167.939 169.11 
169.659 170.864 171.35 172.638 173.11 174.437 174.844 176.101 176.381 
177.559 177.738 178.878 165.497 166.061 167.107 167.787 168.975 169.678 
170.96 171.597 172.915 173.469 174.771 175.266 176.516 176.945 178.143 
178.479 179.644 179.866 180.967 163.861 165.278 164.497 164.362 166.839 
166.016 165.909 165.038 164.865 168.485 167.645 167.594 166.682 166.544 
165.599 165.467 170.347 169.417 169.483 168.5 168.471 167.427 167.361 
166.346 166.317 172.548 171.516 171.754 170.65 170.796 169.598 169.629 
168.435 168.429 167.326 167.288 174.849 173.87 174.221 173.137 173.396 
172.159 172.252 170.92 170.892 169.594 169.497 168.294 168.136 177.024 
176.149 176.52 175.571 175.819 174.728 174.789 173.551 173.47 172.143 
171.972 170.623 170.397 169.113 168.88 179.176 178.316 178.716 177.795 
178.046 177.018 177.057 175.918 175.812 174.602 174.418 173.114 172.844 
171.476 171.174 169.862 169.598 181.291 180.488 180.916 180.004 180.294 
179.257 179.35 178.177 178.098 176.872 176.712 175.467 175.214 173.894 
173.536 172.184 171.817 170.544 170.24 182.526 184.023 182.985 182.178 
184.99 184.269 183.563 182.509 181.538 185.566 184.994 184.382 183.672 
182.807 181.726 180.574 186.115 185.489 184.812 184.277 183.554 182.794 
181.709 180.571 179.267 186.489 185.981 185.174 184.632 183.858 183.316 
182.338 181.492 180.181 179.093 177.764 186.143 186.062 185.229 184.85 
183.894 183.445 182.416 181.853 180.607 179.78 178.386 177.457 176.151 
184.976 185.308 184.526 184.527 183.488 183.234 182.098 181.73 180.53 
179.971 178.614 177.856 176.456 175.681 174.385 183.395 183.9 183.184 
183.477 182.513 182.521 181.402 181.233 180.082 179.748 178.472 177.897 
176.484 175.8 174.439 173.798 172.583 181.754 182.28 181.64 182.039 
181.213 181.394 180.391 180.39 179.306 179.167 177.967 177.606 176.235 
175.687 174.313 173.747 172.532 172.007 170.939 182.951 183.746 183.799 
184.412 183.902 184.29 184.963 185.031 185.363 183.575 184.132 184.861 
185.305 185.882 185.872 186.072 183.098 183.679 184.386 185.013 185.89 
186.316 186.933 186.698 186.819 182.332 183.119 183.808 184.497 185.433 
186.201 187.158 187.464 187.808 187.397 187.202 180.948 182.094 182.843 
183.772 184.575 185.55 186.476 187.317 187.788 187.973 187.698 187.338 
186.706 179.192 180.474 181.241 182.464 183.159 184.342 185.04 186.199 
186.652 187.4 187.198 187.311 186.579 186.334 185.438 177.484 178.673 
179.335 180.62 181.23 182.543 183.083 184.395 184.786 185.883 185.845 
186.412 185.822 185.875 184.97 184.777 183.81 175.819 176.943 177.452 
178.654 179.133 180.422 180.864 182.209 182.558 183.821 183.896 184.822 
184.445 184.878 184.097 184.135 183.179 183.046 182.105 165.695 166.548 
166.501 167.349 167.662 167.533 168.506 168.368 169.315 168.978 168.839 
169.936 169.73 170.817 170.538 171.48 170.276 170.236 171.442 171.28 
172.432 172.174 173.209 172.794 173.591 171.513 171.544 172.803 172.741 
173.878 173.73 174.75 174.487 175.338 174.856 175.482 172.693 172.775 
174.029 174.026 175.172 175.085 176.134 175.945 176.875 176.529 177.28 
176.713 177.253 173.684 173.866 175.104 175.185 176.409 176.399 177.62 
177.441 178.55 178.17 179.1 178.553 179.266 178.531 178.994 174.459 
174.731 175.977 176.168 177.462 177.622 178.999 179.008 180.251 179.971 
180.956 180.464 181.256 180.605 181.182 180.306 180.621 175.096 175.43 
176.693 176.969 178.278 178.581 179.969 180.229 181.445 181.459 182.325 
182.102 182.771 182.418 182.992 182.408 182.773 181.864 181.987 164.897 
163.912 164.784 165.629 162.904 163.759 164.588 165.586 166.633 161.943 
162.759 163.572 164.547 165.578 166.667 167.833 160.986 161.803 162.579 
163.532 164.495 165.565 166.635 167.814 168.998 159.997 160.809 161.524 
162.478 163.347 164.41 165.36 166.514 167.598 168.903 170.15 159.14 
159.846 160.502 161.369 162.159 163.183 164.073 165.186 166.18 167.438 
168.644 170.051 171.332 158.48 159.081 159.69 160.405 161.122 162.01 
162.871 163.909 164.862 166.019 167.099 168.466 169.708 171.168 172.347 
157.854 158.435 158.977 159.631 160.252 161.028 161.805 162.759 163.665 
164.728 165.668 166.882 167.94 169.4 170.574 172.061 173.127 157.223 
157.769 158.243 158.87 159.397 160.125 160.778 161.682 162.502 163.531 
164.384 165.457 166.333 167.602 168.651 170.163 171.303 172.779 173.779 
157.06 157.225 157.413 158.049 157.503 157.62 158.195 158.436 159.156 
157.848 157.925 158.474 158.626 159.351 159.639 160.533 158.346 158.362 
159.003 159.037 159.817 159.978 160.967 161.233 162.298 158.991 159.001 
159.781 159.765 160.666 160.683 161.732 161.854 162.972 163.15 164.207 
159.555 159.665 160.508 160.613 161.605 161.673 162.758 162.799 163.902 
163.952 165.017 165.094 166.146 160.053 160.193 161.053 161.259 162.275 
162.516 163.637 163.81 164.935 164.985 166.087 166.068 167.211 167.212 
168.447 160.709 160.78 161.69 161.825 162.856 163.102 164.258 164.553 
165.758 165.967 167.172 167.242 168.492 168.48 169.81 169.777 171.12 
161.49 161.547 162.508 162.58 163.627 163.768 164.934 165.179 166.444 
166.729 168.042 168.277 169.626 169.771 171.145 171.197 172.527 172.483 
173.665 162.227 163.797 163.114 163.338 165.578 164.818 165.124 164.326 
164.543 167.625 166.761 167.152 166.273 166.593 165.66 165.91 170.007 
169.037 169.554 168.532 168.992 167.931 168.28 167.191 167.481 172.685 
171.685 172.405 171.243 171.867 170.638 171.138 169.841 170.183 168.912 
169.188 175.422 174.539 175.467 174.332 175.111 173.807 174.437 172.997 
173.405 171.887 172.141 170.713 170.916 177.868 177.241 178.305 177.412 
178.305 177.137 177.824 176.428 176.84 175.257 175.433 173.835 173.95 
172.459 172.543 179.781 179.455 180.566 180.041 181.006 180.162 180.852 
179.681 180.03 178.585 178.632 177.064 177.004 175.49 175.452 173.996 
173.928 181.158 181.068 182.148 181.97 182.963 182.523 183.225 182.397 
182.692 181.495 181.436 180.018 179.794 178.35 178.13 176.748 176.547 
175.184 174.964 161.831 161.69 162.268 163.346 161.618 162.169 163.296 
163.896 165.105 161.562 162.138 163.303 163.91 165.186 165.782 167.118 
161.331 162.018 163.178 163.887 165.159 165.851 167.2 167.871 169.347 
160.964 161.693 162.825 163.624 164.857 165.684 166.999 167.824 169.294 
170.147 171.806 160.692 161.356 162.5 163.24 164.491 165.31 166.663 
167.527 169.022 169.965 171.659 172.647 174.408 160.536 161.164 162.338 
163.01 164.301 165.042 166.462 167.264 168.81 169.705 171.413 172.424 
174.2 175.197 176.836 160.387 161.019 162.183 162.873 164.149 164.905 
166.298 167.114 168.612 169.507 171.141 172.153 173.869 174.907 176.507 
177.44 178.797 160.254 160.858 161.979 162.671 163.893 164.68 165.996 
166.858 168.241 169.18 170.669 171.736 173.34 174.462 176.004 177.012 
178.321 179.173 180.247 160.867 159.415 160.321 160.706 158.052 158.884 
159.27 160.186 160.619 156.866 157.572 157.912 158.778 159.188 160.113 
160.535 155.807 156.417 156.636 157.426 157.748 158.643 158.971 159.938 
160.278 154.691 155.3 155.398 156.124 156.319 157.152 157.366 158.29 
158.544 159.565 159.889 153.468 154.075 154.09 154.805 154.928 155.716 
155.88 156.698 156.893 157.816 158.126 159.178 159.589 152.323 152.826 
152.759 153.416 153.5 154.298 154.507 155.301 155.518 156.292 156.56 
157.471 157.875 158.941 159.416 151.411 151.768 151.652 152.14 152.184 
152.887 153.143 153.965 154.273 155.031 155.284 156.039 156.354 157.279 
157.724 158.796 159.283 150.722 150.973 150.881 151.203 151.255 151.748 
152.01 152.702 153.068 153.817 154.109 154.818 155.061 155.842 156.192 
157.148 157.622 158.685 159.185 150.373 150.054 150.298 150.554 149.988 
150.113 150.412 150.61 150.988 150.055 150.139 150.463 150.612 151.032 
151.211 151.74 150.089 150.169 150.415 150.626 151.023 151.281 151.78 
152.06 152.697 150.179 150.163 150.267 150.439 150.737 151.111 151.581 
151.992 152.566 152.99 153.654 150.508 150.335 150.383 150.332 150.57 
150.804 151.32 151.724 152.358 152.789 153.467 153.908 154.607 151.066 
150.795 150.902 150.664 150.971 150.928 151.559 151.717 152.499 152.736 
153.518 153.817 154.608 154.957 155.76 151.749 151.445 151.643 151.37 
151.801 151.639 152.371 152.333 153.199 153.207 154.045 154.117 154.961 
155.152 156.046 156.306 157.211 152.508 152.195 152.456 152.207 152.707 
152.573 153.321 153.28 154.119 154.077 154.867 154.827 155.63 155.692 
156.595 156.759 157.708 157.9 158.811 153.033 154.04 153.334 153.07 
155.406 154.534 154.315 153.557 153.443 157.09 156.074 155.854 154.968 
154.893 154.126 154.138 159.054 157.938 157.735 156.667 156.556 155.669 
155.679 154.914 154.937 161.104 160.029 159.935 158.757 158.652 157.52 
157.475 156.522 156.525 155.704 155.677 163.048 162.078 162.096 161.026 
161.015 159.819 159.772 158.561 158.531 157.448 157.444 156.493 156.487 
165.027 164.052 164.134 163.147 163.23 162.167 162.191 160.992 160.958 
159.708 159.692 158.512 158.535 157.461 157.507 167.117 166.133 166.28 
165.256 165.392 164.354 164.442 163.342 163.345 162.159 162.12 160.903 
160.88 159.693 159.694 158.583 158.619 169.116 168.234 168.421 167.451 
167.6 166.565 166.655 165.571 165.583 164.457 164.41 163.258 163.184 
162.023 161.942 160.801 160.741 159.671 159.67 160.561 161.668 161.488 
162.303 162.917 162.703 163.569 163.349 164.247 164.219 164.034 164.992 
164.742 165.705 165.43 166.392 165.492 165.376 166.45 166.253 167.311 
167.014 168.028 167.681 168.668 166.706 166.662 167.815 167.719 168.888 
168.678 169.788 169.435 170.502 170.082 171.144 167.83 167.868 169.059 
169.05 170.288 170.222 171.476 171.252 172.46 172.063 173.249 172.749 
173.879 168.799 168.939 170.164 170.246 171.529 171.581 172.949 172.909 
174.266 174.041 175.313 174.917 176.082 175.542 176.546 169.593 169.822 
171.063 171.266 172.597 172.779 174.215 174.333 175.748 175.721 177.002 
176.819 177.94 177.598 178.539 178.026 178.793 170.237 170.526 171.752 
172.06 173.405 173.74 175.196 175.489 176.889 177.03 178.247 178.246 
179.306 179.183 180.087 179.784 180.512 180.033 180.635 152.204 151.812 
151.769 151.337 151.628 151.427 150.968 150.922 150.553 151.737 151.404 
150.918 150.684 150.315 150.23 149.944 151.726 151.518 150.993 150.726 
150.286 150.109 149.829 149.749 149.593 151.376 151.296 150.713 150.618 
150.083 150.017 149.699 149.688 149.581 149.565 149.574 151.245 150.957 
150.36 150.196 149.678 149.661 149.388 149.492 149.462 149.563 149.627 
149.654 149.736 151.639 151.119 150.599 150.126 149.726 149.442 149.305 
149.267 149.358 149.449 149.577 149.655 149.725 149.779 149.854 152.137 
151.659 151.225 150.684 150.363 149.877 149.777 149.489 149.596 149.503 
149.646 149.629 149.692 149.711 149.761 149.849 149.979 152.465 152.097 
151.695 151.3 150.974 150.577 150.383 150.068 150.037 149.854 149.92 
149.806 149.86 149.763 149.808 149.787 149.908 150.012 150.234 152.292 
151.453 151.972 152.178 150.649 151.134 151.347 151.872 152.125 149.987 
150.369 150.592 151.086 151.393 151.907 152.281 149.603 149.802 150.026 
150.434 150.85 151.315 151.793 152.245 152.783 149.576 149.577 149.761 
150.011 150.483 150.914 151.518 151.933 152.549 152.947 153.612 149.763 
149.683 149.815 149.892 150.297 150.637 151.255 151.705 152.354 152.784 
153.439 153.869 154.535 149.959 149.912 150.06 150.043 150.371 150.547 
151.085 151.451 152.063 152.517 153.128 153.622 154.226 154.711 155.262 
150.171 150.146 150.381 150.341 150.683 150.729 151.229 151.409 151.983 
152.271 152.846 153.25 153.819 154.303 154.831 155.307 155.772 150.473 
150.443 150.753 150.714 151.09 151.097 151.591 151.677 152.235 152.362 
152.905 153.101 153.647 153.961 154.509 154.896 155.401 155.802 156.266 
152.812 152.721 153.036 153.597 152.707 152.999 153.648 153.932 154.611 
152.858 153.067 153.78 154.07 154.852 155.109 155.905 153.303 153.343 
154.036 154.264 155.066 155.365 156.201 156.485 157.331 154.091 153.947 
154.581 154.63 155.384 155.593 156.42 156.731 157.622 157.938 158.819 
155.006 154.819 155.39 155.296 155.995 156.035 156.847 157.024 157.96 
158.247 159.229 159.484 160.36 155.741 155.66 156.173 156.09 156.707 
156.707 157.475 157.575 158.48 158.687 159.671 159.925 160.844 161.023 
161.795 156.261 156.275 156.789 156.768 157.323 157.345 158.035 158.166 
158.984 159.198 160.059 160.325 161.16 161.425 162.179 162.37 163.058 
156.743 156.768 157.333 157.34 157.907 157.911 158.543 158.645 159.393 
159.601 160.383 160.627 161.37 161.638 162.356 162.633 163.335 163.568 
164.259 160.665 159.908 159.922 159.219 159.312 159.237 158.551 158.519 
157.882 158.856 158.752 158.118 157.991 157.378 157.302 156.766 158.305 
158.281 157.671 157.612 157.031 156.925 156.368 156.286 155.776 157.708 
157.678 157.036 157.053 156.453 156.49 155.9 155.884 155.283 155.257 
154.679 157.292 157.169 156.517 156.414 155.766 155.788 155.191 155.265 
154.641 154.675 154.04 154.07 153.474 156.966 156.832 156.199 156.007 
155.335 155.196 154.604 154.576 154.019 154.01 153.422 153.418 152.862 
152.888 152.378 156.646 156.504 155.879 155.709 155.043 154.862 154.258 
154.14 153.618 153.525 152.993 152.899 152.379 152.345 151.895 151.902 
151.49 156.464 156.237 155.639 155.422 154.798 154.589 153.986 153.837 
153.302 153.201 152.678 152.562 152.034 151.945 151.495 151.479 151.113 
151.117 150.787 
POINT_DATA 1002
SCALARS Distance double
LOOKUP_TABLE default
153.617 152.807 153.492 154.433 154.289 154.795 155.4 155.171 155.772 
156.326 156.472 156.198 156.893 157.459 158.147 157.647 157.402 158.05 
158.622 159.339 160.149 158.927 158.691 159.237 159.734 160.459 161.289 
162.094 160.24 159.952 160.511 160.923 161.618 162.456 163.248 163.979 
161.486 161.146 161.807 162.232 162.942 163.788 164.553 165.266 165.997 
162.645 162.264 163.03 163.498 164.243 165.154 165.932 166.613 167.334 
168.059 163.725 163.277 164.181 164.664 165.356 166.296 167.188 167.909 
168.615 169.327 169.944 152.547 153.223 152.161 152.802 151.644 153.966 
152.37 151.492 153.544 154.839 152.403 151.857 153.296 154.584 155.976 
152.747 152.071 153.483 154.591 155.929 157.287 152.837 151.911 153.746 
154.758 155.978 157.255 158.582 152.814 151.907 153.828 154.841 155.956 
157.198 158.502 159.851 152.99 152.227 153.922 154.912 155.96 157.141 
158.449 159.802 161.094 153.257 152.613 154.054 155.002 156.064 157.202 
158.428 159.748 161.05 162.22 153.336 154.013 154.175 154.917 155.321 
154.886 156.185 156.73 155.939 156.021 157.741 158.204 157.348 157.275 
157.293 159.336 159.705 158.988 158.752 158.635 158.537 160.841 161.177 
160.626 160.42 160.11 159.891 159.826 162.255 162.515 162.122 162.104 
161.832 161.405 161.223 161.189 163.666 163.758 163.59 163.663 163.599 
163.174 162.757 162.59 162.458 165.078 164.975 165.121 165.199 165.227 
164.96 164.466 164.069 163.824 163.579 164.584 164.942 166.071 165.288 
166.513 167.651 165.729 167.023 168.229 169.318 166.268 167.622 168.925 
170.083 171.28 166.691 168.113 169.536 170.903 172.185 173.543 166.846 
168.394 169.871 171.448 173.014 174.428 175.764 166.809 168.531 170.128 
171.782 173.566 175.208 176.601 177.874 166.667 168.48 170.326 172.148 
173.988 175.761 177.338 178.745 180.023 166.441 168.217 170.235 172.324 
174.277 176.052 177.739 179.36 180.837 182.049 165.182 166.796 165.751 
168.489 167.499 166.384 170.446 169.516 168.4 167.302 172.828 171.995 
170.883 169.608 168.381 175.247 174.596 173.604 172.276 170.797 169.315 
177.442 176.877 175.99 174.777 173.361 171.761 170.118 179.641 179.073 
178.194 176.992 175.673 174.224 172.551 170.855 181.809 181.306 180.511 
179.351 177.957 176.51 174.912 173.148 171.452 183.726 183.425 184.922 
184.465 185.589 182.805 184.933 186.181 183.754 181.87 185.358 186.812 
184.151 182.764 180.502 185.779 186.882 184.393 183.037 181.22 178.829 
185.529 186.02 184.384 182.911 181.309 179.299 177.037 184.378 184.533 
183.674 182.412 180.977 179.312 177.238 175.098 182.795 182.863 182.386 
181.483 180.316 178.961 177.149 175.069 173.151 181.19 181.217 180.941 
180.316 179.377 178.231 176.714 174.847 173.025 171.421 183.085 184.592 
183.566 184.719 183.429 185.583 184.254 183.047 185.619 186.452 183.74 
182.512 185.175 186.887 187.469 183.109 181.381 184.585 186.554 188.045 
187.916 181.799 179.672 183.63 185.524 187.361 187.962 187.22 179.957 
177.953 181.974 183.885 185.722 186.879 186.754 185.764 178.115 176.387 
179.939 181.784 183.592 185.055 185.606 185.11 184.038 176.33 174.743 
177.914 179.551 181.266 182.829 183.814 183.925 183.263 182.241 165.673 
167.394 166.582 168.63 167.779 169.499 170.116 169.044 171.07 171.888 
171.554 170.236 172.661 173.569 174.174 172.847 171.46 174.011 174.963 
175.721 176.121 174.021 172.602 175.223 176.286 177.158 177.753 177.972 
174.978 173.476 176.315 177.694 178.891 179.614 179.946 179.892 175.743 
174.163 177.215 178.863 180.45 181.421 181.845 181.988 181.679 164.047 
164.636 163.056 163.589 162.073 165.545 162.619 161.141 164.512 166.682 
161.653 160.17 163.471 165.506 167.72 160.609 159.218 162.315 164.259 
166.321 168.759 159.717 158.491 161.186 162.981 164.984 167.24 169.938 
159.041 157.912 160.317 161.867 163.769 165.838 168.224 170.966 158.354 
157.3 159.538 160.905 162.646 164.584 166.587 169.014 171.745 157.657 