# vtk DataFile Version 4.0
vtk output
ASCII
DATASET POLYDATA
POINTS 1002 float
-104.941 -83.0904 77.9213 -104.975 -82.4059 76.7355 -105.193 -82.0359 77.6544 
-105.167 -82.7657 78.9427 -105.424 -81.7451 78.7016 -104.776 -83.7243 79.283 
-105.491 -82.4886 79.9735 -105.845 -81.613 79.7068 -105.104 -83.4568 80.3008 
-104.726 -84.3408 80.5678 -105.992 -82.362 81.0155 -106.338 -81.5388 80.8153 
-105.602 -83.3211 81.3462 -105.229 -84.327 81.6146 -105.05 -85.3435 81.7578 
-106.413 -82.4156 82.319 -106.754 -81.5534 82.1563 -106.13 -83.4563 82.5636 
-105.767 -84.5323 82.8306 -105.581 -85.7211 82.9841 -105.596 -87.0053 83.1485 
-106.801 -82.7096 83.6726 -107.285 -81.8516 83.3904 -106.538 -83.8315 83.8885 
-106.269 -84.957 84.0848 -106.083 -86.1565 84.208 -106.088 -87.5355 84.3673 
-106.1 -88.8585 84.6435 -107.516 -83.2342 84.6246 -108.037 -82.4201 84.2706 
-107.178 -84.3254 84.8711 -106.956 -85.4881 85.0322 -106.807 -86.684 85.1242 
-106.807 -88.0243 85.2497 -106.825 -89.3549 85.5172 -106.75 -90.4506 85.8471 
-108.438 -83.8859 85.2865 -108.838 -83.0959 84.9579 -108.131 -84.9125 85.5243 
-107.935 -86.0936 85.6903 -107.794 -87.3605 85.8324 -107.742 -88.722 86.0133 
-107.777 -90.0406 86.2719 -107.772 -91.145 86.5909 -107.717 -92.0769 86.9166 
-109.258 -84.6108 85.9049 -109.589 -83.8061 85.5716 -108.989 -85.6396 86.1714 
-108.808 -86.8542 86.4098 -108.665 -88.1682 86.669 -108.541 -89.5475 86.9883 
-108.528 -90.9085 87.319 -108.615 -92.0972 87.6097 -108.681 -93.102 87.892 
-108.703 -94.0315 88.1774 -109.96 -85.3866 86.4426 -110.286 -84.5329 86.0774 
-109.665 -86.4699 86.774 -109.437 -87.7296 87.1354 -109.261 -89.0286 87.5533 
-109.111 -90.3092 88.0155 -109.06 -91.6262 88.4467 -109.166 -92.9461 88.7634 
-109.325 -94.1506 89.0036 -109.421 -95.2073 89.2421 -109.463 -96.1468 89.4595 
-105.042 -81.4576 76.2361 -105.25 -81.0042 77.2217 -105.114 -80.4644 75.8369 
-105.452 -80.0405 76.8427 -105.476 -79.6681 75.4438 -105.649 -80.8367 78.2957 
-106.062 -79.3914 76.4483 -106.191 -79.2019 74.9926 -106.174 -80.0561 77.8795 
-106.274 -80.8889 79.3484 -106.978 -79.0224 76.0202 -107.115 -78.8364 74.4657 
-107.021 -79.4702 77.4547 -107.03 -80.2614 78.95 -106.881 -80.9116 80.5547 
-108.002 -78.6637 75.4295 -108.191 -78.3835 73.8422 -107.907 -78.9756 77.0451 
-107.854 -79.628 78.5952 -107.697 -80.3948 80.2109 -107.433 -80.9955 81.8908 
-109.026 -78.2808 74.6465 -109.178 -77.9495 73.2917 -108.792 -78.5607 76.4679 
-108.496 -78.9409 78.3627 -108.348 -79.7114 79.9972 -108.239 -80.5327 81.5363 
-108.063 -81.3428 83.0415 -109.833 -77.8402 74.0945 -109.855 -77.4534 73.0401 
-109.687 -78.2441 75.7964 -109.232 -78.4127 78.0297 -108.846 -78.8392 79.9879 
-108.802 -79.7688 81.3883 -108.794 -80.8237 82.6712 -108.743 -81.9117 83.9344 
-110.441 -77.1968 74.0392 -110.459 -76.7941 73.0106 -110.409 -77.7961 75.4737 
-110.105 -78.0826 77.5807 -109.633 -78.2151 79.8041 -109.422 -78.8855 81.3574 
-109.431 -80.0875 82.4313 -109.419 -81.3781 83.5525 -109.454 -82.6062 84.672 
-111.067 -76.5903 74.2069 -111.171 -76.2637 73.0053 -110.979 -77.2295 75.5314 
-110.822 -77.759 77.253 -110.541 -78.0018 79.3029 -110.308 -78.4564 81.032 
-110.219 -79.4955 82.1554 -110.16 -80.8431 83.1372 -110.135 -82.1544 84.2457 
-110.197 -83.3564 85.2814 -111.773 -76.3237 73.8563 -111.591 -76.7847 75.2863 
-112.184 -77.0366 74.8126 -112 -77.4414 76.2715 -112.578 -77.9386 75.6594 
-111.407 -77.4075 76.7766 -112.5 -78.2744 77.1091 -113.195 -78.6025 76.5641 
-111.849 -78.0005 77.7638 -111.264 -77.9505 78.5157 -113.181 -79.1465 78.1686 
-113.855 -79.296 77.7427 -112.432 -78.9655 78.6794 -111.789 -78.7665 79.4276 
-111.156 -78.5274 80.3165 -113.847 -80.0885 79.4367 -114.382 -80.2428 78.9571 
-113.134 -79.9728 79.8533 -112.376 -79.8793 80.378 -111.759 -79.7038 81.0479 
-111.075 -79.4562 81.7098 -114.363 -81.0898 80.5527 -114.851 -81.2819 80.005 
-113.8 -80.9031 81.033 -113.089 -80.7524 81.5201 -112.359 -80.7664 81.9917 
-111.723 -80.7687 82.4034 -110.984 -80.7174 82.8003 -114.777 -82.1935 81.544 
-115.247 -82.369 80.9634 -114.286 -82.071 82.0509 -113.78 -81.8328 82.563 
-113.112 -81.7064 83.0757 -112.392 -81.8382 83.4185 -111.696 -81.9864 83.6628 
-110.917 -82.053 83.9622 -115.18 -83.3331 82.5457 -115.51 -83.5127 81.8657 
-114.712 -83.3747 83.0996 -114.259 -83.3655 83.54 -113.746 -83.2031 84.017 
-113.079 -83.1139 84.4397 -112.377 -83.1869 84.6908 -111.674 -83.2724 84.898 
-110.921 -83.312 85.1251 -115.525 -84.4809 83.5127 -115.637 -84.726 82.727 
-115.187 -84.5054 84.1649 -114.699 -84.6933 84.5711 -114.16 -84.7959 84.9033 
-113.562 -84.7265 85.2772 -112.908 -84.6147 85.5844 -112.266 -84.5592 85.7864 
-111.62 -84.5406 85.9458 -110.94 -84.5302 86.0557 -110.744 -85.9027 86.749 
-111.393 -85.9563 86.7738 -111.247 -87.6919 87.4105 -112.024 -86.0142 86.7342 
-111.864 -87.829 87.503 -111.88 -89.8359 88.2245 -112.66 -86.0944 86.6257 
-112.505 -87.919 87.5633 -112.475 -90.098 88.4103 -112.483 -92.12 89.3942 
-113.33 -86.1845 86.423 -113.232 -87.9437 87.5444 -113.202 -90.2276 88.5677 
-113.069 -92.5243 89.6108 -112.849 -94.4473 90.8164 -113.989 -86.1796 86.1175 
-113.91 -87.8668 87.3613 -113.959 -90.2229 88.6121 -113.831 -92.755 89.7814 
-113.505 -94.911 90.9765 -113.253 -96.8951 92.0921 -114.638 -86.0195 85.8163 
-114.475 -87.7113 87.0067 -114.43 -90.1609 88.3492 -114.418 -92.8961 89.7832 
-114.224 -95.2124 91.098 -113.994 -97.3445 92.2228 -113.922 -99.5602 92.9812 
-115.23 -85.8339 85.5274 -115.023 -87.6314 86.6778 -114.733 -90.1626 87.8615 
-114.639 -93.0119 89.4042 -114.635 -95.4622 90.9905 -114.587 -97.6809 92.2282 
-114.567 -100.077 93.0646 -114.609 -102.387 93.4738 -115.591 -85.8123 85.0139 
-115.433 -87.7116 86.3588 -115.071 -90.2525 87.4859 -114.842 -93.0429 88.8738 
-114.832 -95.592 90.5669 -114.876 -97.9775 91.9389 -114.971 -100.49 92.8208 
-115.112 -102.967 93.3801 -115.214 -105.05 93.5919 -115.675 -86.0056 84.2055 
-115.574 -87.8737 85.7803 -115.322 -90.2958 87.1266 -115.15 -92.8822 88.4341 
-115.123 -95.4183 90.045 -115.086 -98.0718 91.4934 -115.135 -100.81 92.3379 
-115.398 -103.339 92.8931 -115.708 -105.485 93.3117 -115.855 -107.222 93.4036 
-110.438 -87.0726 87.1415 -111.08 -89.1502 87.9074 -110.171 -88.4361 87.5991 
-111.849 -91.3814 88.9914 -110.915 -90.5833 88.5887 -109.939 -89.7991 88.1816 
-112.354 -93.7276 90.5013 -111.693 -92.8078 89.947 -110.705 -91.8824 89.3759 
-109.754 -91.052 88.8117 -112.645 -96.3861 91.9677 -112.133 -95.5499 91.5231 
-111.514 -94.4504 90.7434 -110.635 -93.2952 90.0093 -109.719 -92.3591 89.3469 
-113.272 -99.2737 92.8962 -112.617 -98.7585 92.6903 -112.111 -97.9276 92.0871 
-111.648 -96.5923 91.1605 -110.85 -95.0545 90.3839 -109.872 -93.8634 89.7097 
-114.126 -102.189 93.367 -113.501 -101.792 93.2393 -112.817 -101.34 93.0127 
-112.379 -100.495 92.3282 -111.986 -98.8448 91.3637 -111.107 -96.9256 90.6261 
-110.061 -95.3972 89.962 -114.812 -104.996 93.5424 -114.345 -104.595 93.422 
-113.692 -104.101 93.3892 -113.008 -103.616 93.1515 -112.639 -102.578 92.397 
-112.169 -100.668 91.4916 -111.177 -98.5349 90.8488 -110.148 -96.7351 90.199 
-115.407 -107.438 93.3931 -114.919 -107.257 93.2979 -114.389 -106.722 93.2877 
-113.7 -106.09 93.2686 -113.125 -105.359 92.9299 -112.808 -104.042 92.2237 
-112.18 -101.989 91.5317 -111.113 -99.7663 91.032 -110.153 -97.8185 90.405 
-116.241 -109.365 92.9591 -115.6 -109.673 92.8367 -116.354 -111.591 92.1178 
-115.544 -111.932 92.025 -116.038 -113.853 91.1882 -114.975 -109.517 92.79 
-115.242 -114.108 91.3159 -115.5 -116.077 90.5185 -114.91 -111.717 92.0248 
-114.392 -108.836 92.7741 -114.978 -116.056 90.7524 -115.117 -117.979 89.8015 
-114.831 -113.519 91.2754 -114.405 -110.696 91.875 -113.751 -107.87 92.6427 
-114.918 -117.112 89.9096 -114.963 -118.532 88.7368 -114.746 -114.6 90.6297 
-114.328 -111.894 91.0836 -113.833 -109.315 91.7563 -113.307 -106.743 92.3217 
-114.757 -116.489 88.9953 -114.771 -117.22 87.9472 -114.447 -114.637 89.9864 
-113.863 -112.356 90.6518 -113.552 -110.22 91.1964 -113.368 -107.842 91.6891 
-112.88 -105.016 91.841 -114.192 -114.844 88.6301 -114.322 -115.179 87.9015 
-113.804 -113.816 89.536 -113.125 -112.273 90.3239 -112.826 -110.591 90.8975 
-112.955 -108.479 91.2776 -112.697 -105.677 91.4792 -111.933 -102.624 91.4166 
-113.408 -113.292 88.6695 -113.714 -113.386 88.2141 -113.005 -112.752 89.3179 
-112.488 -111.778 89.9671 -112.225 -110.45 90.5175 -112.355 -108.54 90.9078 
-112.252 -105.885 91.1441 -111.59 -102.944 91.2215 -110.787 -100.211 90.9906 
-112.764 -111.718 88.6872 -113.156 -111.564 88.4632 -112.353 -111.426 89.0905 
-112.025 -110.714 89.5876 -111.903 -109.625 90.1065 -111.957 -107.973 90.5481 
-111.831 -105.618 90.8175 -111.284 -102.941 90.911 -110.556 -100.415 90.7522 
-109.941 -98.1496 90.236 -116.471 -108.026 93.0795 -116.904 -110.282 92.5747 
-116.847 -108.492 92.6353 -117.117 -110.962 92.1127 -116.956 -108.478 92.0442 
-116.883 -112.824 91.5724 -116.998 -111.117 91.4087 -117.146 -107.937 91.2519 
-116.973 -113.943 90.9952 -116.475 -115.341 90.4431 -117.023 -110.469 90.5162 
-117.262 -107.121 90.5704 -116.891 -114.213 90.3047 -116.865 -116.428 89.6993 
-116.016 -117.455 89.5243 -116.894 -109.227 90.0417 -116.686 -106.097 90.3475 
-116.809 -113.128 89.7738 -117.08 -116.152 89.2137 -116.759 -117.797 88.6278 
-115.594 -118.785 88.5468 -116.181 -107.506 90.1574 -115.675 -104.503 90.2129 
-116.386 -111.095 89.813 -116.683 -114.373 89.2603 -116.954 -116.659 88.4412 
-116.232 -118.194 87.7717 -115.209 -118.506 87.6076 -115.36 -105.172 90.111 
-114.977 -102.313 89.5787 -115.747 -108.503 90.076 -115.908 -111.726 89.639 
-116.22 -114.359 88.9024 -116.272 -116.437 88.0081 -115.6 -117.378 87.3631 
-114.865 -116.697 87.3447 -114.853 -102.502 89.3656 -114.681 -100.009 88.452 
-115.246 -105.526 89.8266 -115.42 -108.621 89.7639 -115.461 -111.295 89.3402 
-115.706 -113.66 88.6879 -115.678 -115.319 87.9759 -115.121 -115.477 87.5748 
-114.417 -114.523 87.7251 -114.525 -100.002 88.1524 -114.459 -97.9903 87.2152 
-114.816 -102.547 88.9038 -115.111 -105.359 89.2802 -115.162 -107.876 89.2921 
[...]
CELL_DATA 2000
SCALARS Distance double
LOOKUP_TABLE default
153.394 153.874 153.871 154.353 154.494 154.414 154.916 154.858 155.317 
155.295 155.126 155.652 155.524 156.073 155.925 156.501 156.242 156.013 
156.604 156.413 157.059 156.848 157.554 157.355 158.182 157.332 157.046 
157.697 157.483 158.206 157.973 158.729 158.521 159.397 159.259 160.229 
158.559 158.226 158.892 158.648 159.408 159.18 159.961 159.743 160.614 
160.476 161.445 161.336 162.27 159.834 159.502 160.176 159.898 160.679 
160.433 161.275 161.032 161.954 161.755 162.773 162.601 163.614 163.391 
164.328 161.068 160.774 161.462 161.196 161.995 161.756 162.651 162.416 
163.394 163.176 164.236 164.034 165.117 164.869 165.909 165.591 166.601 
162.224 161.977 162.668 162.448 163.25 163.064 163.967 163.793 164.759 
164.595 165.617 165.477 166.543 166.386 167.448 167.22 168.254 167.954 
168.962 152.845 152.142 152.74 153.291 151.61 152.088 152.687 153.292 
153.955 151.461 151.742 152.377 152.844 153.602 154.108 154.817 151.615 
151.792 152.44 152.743 153.536 153.929 154.694 155.076 155.782 151.836 
152.017 152.65 152.896 153.633 153.97 154.751 155.081 155.803 156.123 
156.868 152.03 152.22 152.82 153.069 153.718 154.037 154.761 155.138 
155.882 156.217 156.951 157.283 158.079 152.168 152.368 152.943 153.205 
153.832 154.097 154.747 155.093 155.82 156.232 156.983 157.368 158.134 
158.515 159.326 152.263 152.462 153.043 153.324 153.998 154.245 154.895 
155.133 155.823 156.162 156.927 157.336 158.124 158.538 159.34 159.748 
160.551 152.451 152.596 153.198 153.446 154.154 154.425 155.125 155.348 
156.041 156.277 157.03 157.34 158.146 158.521 159.347 159.752 160.568 
160.959 161.724 152.824 153.817 153.377 153.607 154.934 154.446 154.64 
154.24 154.54 156.113 155.587 155.767 155.308 155.587 155.219 155.532 
157.462 156.866 157.091 156.518 156.814 156.342 156.693 156.251 156.536 
158.932 158.334 158.624 157.976 158.275 157.686 158.048 157.526 157.86 
157.312 157.569 160.344 159.814 160.13 159.538 159.818 159.203 159.513 
158.947 159.287 158.721 159.011 158.407 158.673 161.683 161.192 161.531 
161 161.325 160.735 161.054 160.447 160.79 160.196 160.534 159.914 
160.213 159.576 159.875 162.975 162.527 162.928 162.423 162.836 162.268 
162.667 162.042 162.416 161.77 162.128 161.485 161.818 161.166 161.467 
160.813 161.101 164.195 163.822 164.301 163.855 164.315 163.801 164.221 
163.654 164.021 163.407 163.724 163.09 163.383 162.753 163.03 162.396 
162.646 162.005 162.238 163.057 163.495 163.674 164.529 163.899 164.114 
165.011 165.248 166.291 164.28 164.52 165.464 165.74 166.849 167.163 
168.393 164.648 164.911 165.899 166.212 167.394 167.756 169.055 169.378 
170.663 164.945 165.255 166.235 166.616 167.841 168.307 169.681 170.068 
171.396 171.668 172.938 165.149 165.505 166.439 166.859 168.037 168.638 
170.06 170.637 172.023 172.395 173.691 173.962 175.26 165.265 165.679 
166.617 167.022 168.114 168.71 170.096 170.845 172.299 172.899 174.232 
174.652 175.966 176.303 177.595 165.233 165.737 166.716 167.183 168.248 
168.775 170.067 170.792 172.255 173.013 174.408 175.026 176.345 176.864 
178.167 178.56 179.733 165.05 165.609 166.585 167.189 168.265 168.858 
170.062 170.743 172.121 172.908 174.33 175.073 176.41 177.065 178.348 
178.93 180.123 180.531 181.512 163.053 164.575 163.715 163.578 166.421 
165.423 165.349 164.363 164.256 168.586 167.486 167.471 166.331 166.244 
165.154 165.052 170.88 169.788 169.836 168.619 168.526 167.291 167.16 
166.011 165.892 173.195 172.142 172.312 171.098 171.09 169.735 169.605 
168.266 168.133 166.909 166.798 175.581 174.541 174.855 173.679 173.871 
172.496 172.52 170.984 170.889 169.377 169.264 167.909 167.794 177.952 
176.98 177.356 176.271 176.584 175.36 175.572 174.108 174.127 172.444 
172.297 170.629 170.449 168.969 168.781 180.086 179.27 179.627 178.685 
178.963 177.947 178.177 177.027 177.119 175.683 175.526 173.823 173.503 
171.797 171.482 169.945 169.647 181.841 181.214 181.53 180.76 180.962 
180.108 180.236 179.321 179.367 178.314 178.195 176.842 176.483 174.847 
174.372 172.714 172.284 170.754 170.369 182.792 183.93 183.124 182.49 
184.799 184.141 183.551 182.707 181.949 185.536 184.945 184.416 183.681 
182.948 182.061 181.202 186.23 185.699 185.159 184.467 183.695 182.912 
182.007 181.185 180.264 186.42 186.228 185.583 185.046 184.114 183.454 
182.48 181.815 180.877 180.149 179.131 185.587 185.906 185.188 185.057 
183.98 183.574 182.531 182.094 181.184 180.63 179.597 178.827 177.531 
184.104 184.64 183.987 184.215 183.225 183.12 182.11 181.926 181.06 
180.754 179.721 179.117 177.749 176.934 175.411 182.655 183.122 182.576 
182.906 182.141 182.232 181.38 181.362 180.545 180.427 179.409 179.009 
177.626 176.97 175.427 174.683 173.215 181.305 181.745 181.203 181.568 
180.904 181.148 180.413 180.554 179.771 179.78 178.782 178.529 177.203 
176.699 175.214 174.597 173.161 172.522 171.206 183.078 183.662 183.76 
184.281 183.782 184.216 184.908 184.875 185.183 183.395 184.13 185.051 
185.397 185.876 185.695 185.902 182.679 183.551 184.595 185.363 186.139 
186.306 186.595 186.372 186.537 181.72 182.681 183.65 184.695 185.653 
186.329 186.775 186.874 186.922 186.808 186.694 180.341 181.498 182.334 
183.527 184.395 185.475 186.018 186.643 186.665 186.846 186.516 186.478 
185.885 178.477 179.839 180.614 181.953 182.653 183.9 184.382 185.42 
185.562 186.183 185.884 186.036 185.373 185.26 184.426 176.359 177.773 
178.493 179.972 180.606 181.946 182.325 183.513 183.711 184.722 184.66 
185.201 184.694 184.714 183.931 183.755 182.967 174.281 175.582 176.171 
177.668 178.262 179.72 180.077 181.34 181.48 182.662 182.694 183.681 
183.398 183.872 183.193 183.233 182.433 182.343 181.591 165.194 165.96 
165.958 166.791 166.898 166.859 167.804 167.737 168.609 167.844 167.858 
168.851 168.835 169.836 169.676 170.536 168.666 168.765 169.801 169.873 
170.986 170.964 172.034 171.766 172.669 169.628 169.682 170.906 170.925 
172.256 172.243 173.6 173.411 174.565 174.09 174.964 170.924 170.928 
172.439 172.364 173.986 173.857 175.494 175.248 176.636 176.139 177.123 
176.421 177.125 172.187 172.343 173.973 174.065 175.793 175.789 177.462 
177.296 178.672 178.259 179.226 178.587 179.274 178.515 179.082 173.054 
173.428 174.978 175.368 176.985 177.318 178.813 178.962 180.127 180.004 
180.829 180.465 181.113 180.562 181.127 180.408 180.864 173.585 174.07 
175.542 176.078 177.598 178.115 179.497 179.862 180.93 181.045 181.836 
181.742 182.432 182.166 182.783 182.295 182.741 182.029 182.268 164.438 
163.604 164.346 165.104 162.793 163.519 164.216 165.059 165.953 161.863 
162.644 163.304 164.15 164.979 165.939 166.87 160.874 161.641 162.258 
163.141 163.918 164.911 165.785 166.785 167.659 159.993 160.667 161.197 
162.02 162.756 163.772 164.633 165.654 166.499 167.505 168.458 159.189 
159.818 160.263 160.967 161.617 162.582 163.469 164.504 165.364 166.338 
167.256 168.369 169.536 158.386 159.007 159.428 160.056 160.605 161.462 
162.318 163.36 164.269 165.238 166.105 167.149 168.224 169.498 170.73 
157.642 158.219 158.655 159.243 159.751 160.486 161.255 162.23 163.143 
164.14 164.984 165.98 166.924 168.124 169.249 170.581 171.666 157.025 
157.527 157.966 158.516 159.024 159.67 160.355 161.204 162.046 163.009 
163.834 164.812 165.66 166.776 167.775 169.049 170.071 171.356 172.26 
156.859 156.962 157.189 157.793 157.219 157.374 158.02 158.213 158.893 
157.617 157.722 158.392 158.535 159.285 159.451 160.266 158.047 158.169 
158.858 158.975 159.753 159.92 160.799 160.979 161.91 158.484 158.632 
159.405 159.509 160.325 160.45 161.355 161.536 162.502 162.695 163.656 
159.026 159.15 160.039 160.146 161.064 161.138 162.104 162.195 163.226 
163.351 164.408 164.518 165.545 159.686 159.778 160.701 160.838 161.842 
161.961 163.02 163.089 164.198 164.245 165.393 165.431 166.579 166.583 
167.697 160.351 160.446 161.334 161.497 162.511 162.718 163.835 164.018 
165.18 165.291 166.458 166.513 167.673 167.701 168.843 168.835 169.936 
160.95 161.066 161.934 162.108 163.109 163.349 164.473 164.751 165.941 
166.187 167.367 167.527 168.673 168.763 169.892 169.943 171.044 171.045 
172.085 161.539 162.934 162.332 162.613 164.675 163.939 164.283 163.559 
163.882 166.699 165.882 166.306 165.443 165.806 164.969 165.32 168.934 
168.077 168.605 167.651 168.068 167.086 167.451 166.522 166.865 171.407 
170.495 171.167 170.134 170.662 169.549 169.974 168.859 169.206 168.141 
168.398 174.151 173.191 174.039 172.926 173.615 172.384 172.942 171.645 
172.057 170.733 170.971 169.7 169.816 176.925 176.072 177.079 176.003 
176.84 175.564 176.224 174.833 175.324 173.844 174.099 172.549 172.594 
171.131 171.116 179.215 178.686 179.737 178.981 179.891 178.824 179.472 
178.147 178.57 177.137 177.378 175.819 175.813 174.138 173.983 172.424 
172.301 180.731 180.554 181.504 181.215 182.105 181.535 182.151 181.154 
181.414 180.156 180.252 178.908 178.871 177.336 177.082 175.405 175.087 
173.542 173.324 161.165 161.006 161.529 162.504 160.842 161.398 162.417 
163.001 164.167 160.566 161.213 162.274 162.922 164.12 164.781 166.106 
160.119 160.852 161.953 162.727 163.978 164.723 166.075 166.797 168.248 
159.671 160.382 161.512 162.349 163.695 164.549 165.966 166.748 168.232 
169.009 170.607 159.383 160.028 161.187 161.96 163.371 164.268 165.797 
166.641 168.171 168.98 170.627 171.477 173.234 159.203 159.826 160.995 
161.711 163.097 163.983 165.576 166.493 168.099 168.933 170.576 171.46 
173.241 174.167 175.934 159.056 159.662 160.786 161.496 162.799 163.683 
165.257 166.264 167.946 168.864 170.489 171.367 173.048 174.039 175.76 
176.731 178.25 158.936 159.496 160.545 161.231 162.457 163.315 164.829 
165.886 167.609 168.662 170.308 171.216 172.752 173.707 175.271 176.335 
177.797 178.741 179.884 160.36 159.076 159.86 160.143 157.694 158.499 
158.743 159.604 159.911 156.372 157.078 157.238 158.099 158.36 159.311 
159.595 155.306 155.835 155.859 156.557 156.71 157.652 157.925 158.918 
159.155 154.316 154.822 154.764 155.271 155.257 155.998 156.19 157.177 
157.453 158.439 158.692 153.146 153.727 153.68 154.211 154.133 154.671 
154.707 155.486 155.709 156.69 156.974 157.99 158.325 152.016 152.506 
152.46 153.053 153.042 153.59 153.572 154.15 154.244 155.025 155.269 
156.238 156.59 157.661 158.096 151.195 151.502 151.424 151.894 151.923 
152.478 152.505 153.05 153.087 153.703 153.877 154.662 155.013 155.971 
156.452 157.506 158.007 150.588 150.813 150.749 151.054 151.089 151.489 
151.526 151.988 152.009 152.563 152.699 153.395 153.733 154.565 155.067 
155.996 156.551 157.508 157.998 150.233 149.953 150.197 150.489 149.983 
150.094 150.403 150.553 150.847 150.064 150.17 150.393 150.515 150.693 
150.876 151.155 149.922 150.076 150.186 150.397 150.48 150.654 150.802 
151.12 151.513 149.84 149.839 149.924 150.117 150.292 150.443 150.625 
150.808 151.214 151.6 152.231 150.22 149.952 150.071 150.045 150.4 
150.454 150.828 150.847 151.336 151.519 152.265 152.591 153.396 150.972 
150.588 150.744 150.496 150.911 150.842 151.37 151.302 151.869 151.884 
152.666 152.864 153.78 153.986 154.826 151.835 151.478 151.701 151.35 
151.74 151.549 152.122 152.012 152.645 152.57 153.323 153.404 154.313 
154.491 155.378 155.506 156.302 152.701 152.407 152.707 152.357 152.721 
152.454 152.995 152.853 153.519 153.421 154.143 154.121 154.929 155.04 
155.878 156.037 156.815 156.951 157.689 153.287 154.222 153.633 153.347 
155.151 154.561 154.311 153.687 153.41 156.273 155.531 155.298 154.669 
154.489 153.855 153.706 157.963 156.908 156.646 155.779 155.656 154.995 
154.977 154.322 154.277 160.107 158.918 158.7 157.484 157.326 156.365 
156.399 155.672 155.731 154.99 154.956 162.172 161.117 161.017 159.79 
159.637 158.39 158.34 157.311 157.365 156.512 156.526 155.71 155.707 
164.175 163.14 163.113 162.045 161.988 160.808 160.738 159.519 159.475 
158.351 158.319 157.347 157.339 156.514 156.575 166.462 165.298 165.337 
164.187 164.225 163.094 163.117 161.942 161.915 160.668 160.582 159.357 
159.283 158.237 158.254 157.417 157.498 168.897 167.75 167.886 166.637 
166.73 165.468 165.534 164.314 164.351 163.127 163.084 161.787 161.664 
160.386 160.297 159.211 159.223 158.346 158.401 159.178 160.108 160.008 
160.816 161.338 161.136 162.082 161.861 162.817 162.835 162.597 163.709 
163.394 164.524 164.167 165.32 164.306 164.18 165.424 165.191 166.488 
166.136 167.448 166.99 168.221 165.633 165.632 166.997 166.916 168.356 
168.162 169.592 169.23 170.501 169.95 170.984 166.95 167.012 168.547 
168.533 170.125 170.03 171.577 171.333 172.647 172.177 173.2 172.557 
173.417 168.246 168.399 170.054 170.14 171.826 171.825 173.456 173.303 
174.69 174.278 175.342 174.733 175.644 174.968 175.869 169.38 169.647 
171.287 171.542 173.199 173.398 175.015 175.074 176.481 176.251 177.331 
176.834 177.735 177.153 178.047 177.438 178.302 170.293 170.639 172.191 
172.572 174.158 174.531 176.089 176.375 177.74 177.788 178.82 178.594 
179.403 179.041 179.807 179.395 180.127 179.644 180.28 152.017 151.885 
151.784 151.508 151.787 151.704 151.47 151.376 151.074 151.543 151.501 
151.189 151.242 150.951 150.877 150.477 151.25 151.147 150.65 150.735 
150.382 150.545 150.229 150.234 149.961 151.083 150.899 150.377 150.231 
149.814 149.88 149.669 149.855 149.752 149.853 149.825 151.056 150.856 
150.541 150.245 149.944 149.659 149.509 149.453 149.466 149.58 149.602 
149.747 149.762 151.263 150.991 150.833 150.582 150.441 150.099 149.975 
149.671 149.643 149.494 149.477 149.471 149.432 149.578 149.617 151.772 
151.371 151.179 150.912 150.735 150.514 150.313 150.116 149.987 149.818 
149.741 149.549 149.466 149.355 149.382 149.498 149.7 152.434 151.96 
151.654 151.274 150.948 150.676 150.332 150.19 149.966 149.961 149.917 
149.867 149.86 149.652 149.669 149.511 149.682 149.756 150.061 152.071 
151.474 151.803 151.989 150.951 151.218 151.321 151.763 152.079 150.341 
150.619 150.71 151.146 151.515 152.006 152.509 149.906 150.044 150.173 
150.563 151.032 151.548 152.13 152.598 153.205 149.883 149.856 150.011 
150.19 150.691 151.143 151.774 152.244 152.806 153.298 153.881 149.924 
149.968 150.127 150.197 150.619 150.933 151.555 151.944 152.485 152.877 
153.397 153.908 154.457 149.867 149.99 150.182 150.275 150.59 150.863 
151.443 151.821 152.419 152.695 153.211 153.523 154.077 154.501 155.029 
149.994 150.042 150.313 150.33 150.585 150.752 151.241 151.659 152.317 
152.699 153.257 153.494 153.99 154.262 154.773 155.117 155.597 150.341 
150.33 150.667 150.603 150.859 150.825 151.187 151.436 152.03 152.493 
153.086 153.468 153.911 154.196 154.607 154.912 155.348 155.689 156.128 
152.575 152.553 152.871 153.56 152.649 152.896 153.619 153.965 154.71 
153.026 153.093 153.79 154.068 154.865 155.16 155.91 153.731 153.641 
154.294 154.375 155.169 155.38 156.173 156.408 157.207 154.472 154.415 
155.051 155.02 155.735 155.803 156.551 156.71 157.496 157.758 158.61 
155.018 155.061 155.66 155.707 156.325 156.384 157.03 157.128 157.849 
158.057 158.898 159.189 160.041 155.497 155.529 156.088 156.176 156.779 
156.88 157.517 157.607 158.315 158.457 159.295 159.527 160.411 160.634 
161.428 156.03 156.017 156.583 156.621 157.282 157.353 158.07 158.134 
158.885 158.976 159.807 159.983 160.858 161.053 161.846 161.997 162.7 
156.566 156.56 157.135 157.17 157.844 157.919 158.642 158.723 159.445 
159.542 160.296 160.47 161.269 161.481 162.225 162.393 163.047 163.202 
163.851 160.235 159.609 159.609 158.95 158.885 158.903 158.202 158.249 
157.571 158.191 158.142 157.396 157.438 156.78 156.866 156.284 157.705 
157.536 156.782 156.69 156.05 156.098 155.603 155.704 155.263 157.349 
157.155 156.42 156.216 155.555 155.481 154.989 155.064 154.656 154.756 
154.292 156.946 156.8 156.063 155.878 155.155 155.037 154.45 154.476 
154.009 154.114 153.636 153.714 153.157 156.571 156.403 155.701 155.507 
154.794 154.628 153.985 153.926 153.379 153.436 152.952 153.046 152.562 
152.595 152.094 156.369 156.133 155.529 155.264 154.678 154.403 153.847 
153.596 153.041 152.883 152.372 152.383 151.976 152.061 151.689 151.689 
151.305 156.311 156.047 155.523 155.24 154.76 154.463 154.024 153.685 
153.189 152.797 152.231 151.963 151.513 151.514 151.222 151.312 151.013 
151.006 150.672 
POINT_DATA 1002
SCALARS Distance double
LOOKUP_TABLE default
153.882 152.945 153.356 154.378 153.889 154.801 154.976 154.619 155.398 
155.756 155.785 155.485 156.199 156.624 157.125 156.774 156.471 157.257 
157.725 158.318 159.107 157.898 157.631 158.422 158.941 159.524 160.354 
161.227 159.153 158.896 159.627 160.178 160.766 161.554 162.43 163.155 
160.461 160.148 160.917 161.496 162.153 162.946 163.822 164.591 165.24 
161.715 161.345 162.213 162.859 163.601 164.43 165.335 166.197 166.942 
167.623 162.873 162.457 163.418 164.123 164.921 165.757 166.668 167.628 
168.523 169.299 169.966 152.236 152.632 151.561 152.074 151.198 153.359 
151.959 151.228 153.101 154.35 152.193 151.427 153.17 154.34 155.395 
152.434 151.65 153.328 154.404 155.512 156.506 152.58 151.865 153.45 
154.383 155.502 156.637 157.714 152.663 151.978 153.591 154.463 155.401 
156.56 157.755 158.936 152.748 152.066 153.721 154.688 155.543 156.528 
157.695 158.925 160.162 152.976 152.313 153.873 154.872 155.82 156.764 
157.8 158.946 160.172 161.372 153.186 153.973 154.296 155.072 155.437 
154.878 156.254 156.65 155.976 155.91 157.696 158.043 157.325 157.145 
157.028 159.267 159.488 158.911 158.592 158.41 158.146 160.689 160.859 
160.438 160.107 159.843 159.611 159.277 162.031 162.161 161.878 161.663 
161.394 161.136 160.856 160.508 163.392 163.374 163.365 163.268 163.073 
162.783 162.466 162.135 161.76 164.703 164.512 164.81 164.774 164.625 
164.37 164.023 163.661 163.295 162.886 163.83 164.308 165.453 164.743 
165.986 167.438 165.158 166.495 168.071 169.675 165.555 166.987 168.706 
170.393 171.925 165.843 167.31 169.233 171.11 172.691 174.203 166.05 
167.428 169.379 171.576 173.389 174.999 176.584 166.214 167.59 169.331 
171.588 173.739 175.573 177.331 178.877 166.19 167.749 169.414 171.466 
173.719 175.774 177.696 179.48 180.85 165.938 167.634 169.422 171.359 
173.546 175.731 177.732 179.623 181.271 182.421 164.445 166.375 165.23 
168.648 167.392 166.113 171.044 169.82 168.37 167.001 173.463 172.437 
171.02 169.429 167.972 175.962 175.146 174.039 172.51 170.734 169.089 
178.401 177.711 176.901 175.785 174.096 172.068 170.194 180.538 179.949 
179.235 178.4 177.177 175.314 173.135 171.123 182.26 181.798 181.146 
180.334 179.372 178.041 176.1 173.889 171.845 183.7 183.419 184.679 
184.332 185.394 182.911 185.118 186.104 183.807 182.134 185.882 186.711 
184.483 182.802 181.094 186.097 186.458 184.778 183.086 181.557 179.986 
185.169 185.139 184.303 182.865 181.646 180.354 178.458 183.619 183.56 
183.18 182.197 181.271 180.269 178.546 176.251 182.191 182.218 181.923 
181.324 180.624 179.746 178.219 176.119 173.915 180.83 180.87 180.593 
180.199 179.719 178.977 177.632 175.765 173.762 171.809 183.117 184.469 
183.405 184.779 183.17 185.485 184.449 182.577 185.938 186.216 183.638 
181.834 185.717 186.773 186.803 182.582 180.755 184.746 186.505 187.052 
186.916 181.165 179.111 183.267 185.181 186.375 186.573 186.061 179.247 
177.079 181.439 183.262 184.711 185.607 185.476 184.584 177 175.004 
179.239 181.148 182.575 183.857 184.525 184.087 183.126 174.748 173.096 
176.771 178.783 180.308 181.566 182.67 183.009 182.49 181.688 165.135 
166.806 165.944 167.834 166.922 168.779 168.824 167.793 169.901 170.835 
169.684 168.524 170.9 172.162 173.111 170.842 169.523 172.2 173.677 
174.972 175.622 172.426 170.83 174.061 175.71 177.112 177.839 177.921 
173.782 171.957 175.721 177.608 179.078 179.837 180.01 179.901 174.552 
172.661 176.61 178.631 180.206 181.101 181.553 181.779 181.706 163.67 
164.238 162.909 163.414 162.06 164.999 162.461 161.073 164.042 165.901 
161.395 160.158 162.923 164.793 166.666 160.454 159.37 161.747 163.602 
165.507 167.33 159.633 158.566 160.707 162.401 164.406 166.183 168.259 
158.825 157.769 159.832 161.281 163.276 165.128 167.008 169.408 158.067 
157.094 159.076 160.35 162.136 164.019 165.81 167.959 170.384 157.424 