# vtk DataFile Version 4.0
vtk output
ASCII
DATASET POLYDATA
POINTS 1002 float
-104.048 -83.9169 79.7245 -104.178 -83.3309 78.5548 -104.716 -83.2994 79.2502 
-104.593 -83.9614 80.5078 -105.217 -83.247 80.0944 -103.986 -84.6945 81.0177 
-105.197 -84.0566 81.4131 -105.747 -83.2858 81.0996 -104.633 -84.8503 81.8088 
-104.156 -85.8067 82.2494 -105.996 -84.3396 82.2222 -106.594 -83.5392 81.8906 
-105.439 -85.127 82.6092 -104.916 -86.0548 82.9871 -104.564 -87.1445 83.3909 
-107.084 -84.8182 82.7059 -107.685 -83.9472 82.3535 -106.441 -85.6338 83.2356 
-105.786 -86.4237 83.8075 -105.264 -87.3685 84.3009 -104.998 -88.4079 84.7322 
-108.078 -85.2353 83.3385 -108.544 -84.3228 83.0453 -107.473 -86.178 83.8589 
-106.734 -86.9413 84.5825 -106.041 -87.6765 85.3097 -105.612 -88.6253 85.8584 
-105.408 -89.6715 86.22 -108.703 -85.4853 84.4579 -109.108 -84.6084 84.1024 
-108.264 -86.5037 84.8861 -107.654 -87.3871 85.4345 -106.995 -88.1182 86.0883 
-106.496 -89.0205 86.6976 -106.193 -90.1187 87.1212 -105.968 -91.1634 87.4182 
-109.279 -85.8136 85.5027 -109.722 -84.9836 85.0186 -108.926 -86.7965 85.9757 
-108.5 -87.7521 86.3993 -107.991 -88.6107 86.816 -107.577 -89.6144 87.2539 
-107.263 -90.7754 87.6433 -106.966 -91.8429 87.9648 -106.701 -92.7522 88.298 
-110.021 -86.3649 86.1928 -110.454 -85.5658 85.6731 -109.658 -87.2725 86.7225 
-109.292 -88.2148 87.2202 -108.838 -89.1494 87.6674 -108.442 -90.2457 88.0508 
-108.174 -91.4819 88.3666 -107.924 -92.5741 88.6021 -107.669 -93.4887 88.8245 
-107.473 -94.367 89.1195 -110.737 -86.9504 86.8575 -111.106 -86.1937 86.3298 
-110.358 -87.7835 87.3911 -109.966 -88.6952 87.9437 -109.489 -89.6685 88.5233 
-109.013 -90.7927 89.0285 -108.695 -92.0537 89.3993 -108.511 -93.2101 89.6325 
-108.379 -94.1972 89.7194 -108.281 -95.1705 89.7752 -108.202 -96.1509 89.9267 
-104.679 -82.77 77.8841 -105.267 -82.6416 78.617 -105.299 -82.2191 77.2147 
-105.866 -81.979 77.987 -105.95 -81.6544 76.4911 -105.731 -82.4784 79.5445 
-106.504 -81.3651 77.2631 -106.494 -80.8748 75.7004 -106.37 -81.7662 78.9429 
-106.299 -82.4586 80.6652 -107.167 -80.675 76.5512 -107.009 -79.9727 75.0164 
-107.165 -81.2162 78.2341 -107.058 -81.7132 80.0987 -107.228 -82.68 81.5288 
-107.857 -79.9349 76.1282 -107.761 -79.4472 74.515 -107.949 -80.6241 77.704 
-107.909 -81.1087 79.4346 -107.973 -81.8826 81.0338 -108.274 -83.1132 82.0946 
-108.626 -79.3931 75.8518 -108.726 -79.3093 74.0186 -108.592 -79.8642 77.53 
-108.634 -80.4292 79.0124 -108.743 -81.1762 80.4663 -108.941 -82.3545 81.7648 
-109.086 -83.5704 82.8995 -109.483 -79.0683 75.4271 -109.62 -79.1136 73.5524 
-109.283 -79.2001 77.3111 -109.286 -79.6523 78.8358 -109.499 -80.4646 80.063 
-109.711 -81.6365 81.3589 -109.792 -82.8578 82.6887 -109.746 -83.9158 83.9102 
-110.345 -78.8029 74.9866 -110.359 -78.7788 73.3265 -110.161 -78.8318 76.8323 
-110.087 -79.0813 78.5443 -110.272 -79.8055 79.8139 -110.472 -80.9374 81.0014 
-110.511 -82.1113 82.3958 -110.462 -83.196 83.6868 -110.425 -84.3439 84.733 
-111.145 -78.5488 74.6929 -111.051 -78.5138 73.3047 -111.083 -78.6363 76.3118 
-111.008 -78.8098 78.0844 -111.088 -79.3347 79.5734 -111.184 -80.3141 80.7597 
-111.122 -81.4033 82.0841 -111.026 -82.4459 83.4414 -111.025 -83.6476 84.5044 
-111.075 -84.9832 85.4015 -111.894 -78.3526 74.0322 -111.953 -78.4245 75.444 
-112.749 -78.3291 74.5785 -112.761 -78.5011 76.2848 -113.466 -78.6736 75.3291 
-111.923 -78.6228 77.2493 -113.497 -78.9465 77.4287 -113.95 -79.4823 76.5252 
-112.79 -78.8123 78.4091 -111.944 -78.9849 79.1272 -114.075 -79.8029 78.5954 
-114.197 -80.522 77.7371 -113.603 -79.3487 79.6098 -112.838 -79.3719 80.3061 
-111.967 -79.7707 80.593 -114.428 -80.9468 79.5418 -114.418 -81.656 78.8075 
-114.194 -80.3413 80.5571 -113.627 -80.1043 81.3794 -112.733 -80.3458 81.7568 
-111.81 -80.8401 81.9166 -114.787 -82.3076 80.6765 -114.795 -82.9411 80.1235 
-114.556 -81.7136 81.5232 -114.181 -81.2951 82.3498 -113.488 -81.2458 82.8845 
-112.461 -81.5048 83.1714 -111.587 -81.9232 83.3404 -115.221 -83.7261 82.0306 
-115.096 -84.2321 81.5437 -114.985 -83.2254 82.7021 -114.576 -82.7682 83.4045 
-114.081 -82.5313 83.9654 -113.238 -82.5945 84.3286 -112.238 -82.8528 84.5 
-111.53 -83.2243 84.5255 -115.368 -84.956 83.1149 -115.071 -85.3617 82.6479 
-115.34 -84.5822 83.7111 -114.973 -84.2134 84.3786 -114.486 -83.9319 85.0096 
-113.847 -83.8932 85.4609 -112.97 -84.1007 85.6384 -112.166 -84.4195 85.5969 
-111.6 -84.732 85.4803 -115.145 -86.0414 83.9102 -114.857 -86.4289 83.4935 
-115.29 -85.7395 84.4704 -115.152 -85.5017 85.1752 -114.775 -85.2863 85.9563 
-114.245 -85.1559 86.6008 -113.534 -85.2233 86.8849 -112.76 -85.4848 86.8444 
-112.138 -85.8052 86.6721 -111.635 -86.0517 86.4838 -111.41 -87.1556 87.5136 
-111.922 -86.9554 87.7975 -111.606 -88.0721 88.8465 -112.48 -86.6845 88.0214 
-112.157 -87.9396 89.1231 -111.823 -89.5279 89.9281 -113.187 -86.4756 88.1915 
-112.838 -87.9033 89.2983 -112.455 -89.7867 90.1777 -112.159 -91.8363 90.8045 
-113.951 -86.4662 88.1756 -113.636 -88.0487 89.4248 -113.212 -90.1251 90.3925 
-112.76 -92.3503 91.3104 -112.451 -94.157 91.9539 -114.543 -86.6195 87.7103 
-114.322 -88.3203 89.3029 -113.978 -90.441 90.4305 -113.451 -92.7168 91.6081 
-112.957 -94.5636 92.6839 -112.601 -96.0502 93.1246 -114.888 -86.7845 86.857 
-114.691 -88.5711 88.7524 -114.481 -90.7172 90.1662 -114.064 -92.976 91.4078 
-113.581 -94.9918 92.8166 -113.168 -96.6705 93.6208 -112.844 -98.4332 93.6715 
-115.013 -86.92 85.9544 -114.8 -88.7403 87.9295 -114.671 -91.0153 89.7016 
-114.38 -93.3178 90.9953 -114.026 -95.5028 92.3971 -113.791 -97.5329 93.5633 
-113.561 -99.5108 93.898 -113.378 -101.639 93.8203 -114.954 -87.1247 85.2053 
-114.806 -88.8873 87.0452 -114.759 -91.2809 89.0446 -114.544 -93.7307 90.5731 
-114.195 -95.9933 91.8852 -114.106 -98.2566 93.1597 -114.167 -100.488 93.8754 
-114.117 -102.659 94.0414 -114.083 -104.822 94.0963 -114.798 -87.46 84.6564 
-114.773 -89.0872 86.2499 -114.835 -91.4102 88.1821 -114.732 -93.9426 89.9225 
-114.352 -96.2435 91.3092 -114.177 -98.5499 92.5675 -114.416 -100.977 93.5191 
-114.642 -103.25 94.0069 -114.679 -105.342 94.2695 -114.71 -107.331 94.4383 
-111.028 -87.9744 88.1093 -111.208 -89.1514 89.4107 -110.601 -88.9345 88.672 
-111.513 -91.0814 90.3451 -110.791 -90.4589 89.9065 -110.108 -90.0405 89.2784 
-111.974 -93.5893 91.1583 -111.26 -92.7692 90.6888 -110.357 -91.9285 90.3842 
-109.574 -91.2962 89.859 -112.246 -95.7912 92.3038 -111.817 -95.3594 91.5003 
-110.999 -94.4763 91.015 -109.957 -93.4462 90.743 -109.157 -92.6597 90.2858 
-112.36 -98.0218 93.273 -112.031 -97.7367 92.6903 -111.567 -97.1489 91.9414 
-110.716 -96.0575 91.317 -109.689 -94.8791 91.0441 -108.948 -93.9586 90.5994 
-112.779 -101.176 93.6445 -112.262 -100.611 93.5271 -111.813 -99.8885 93.1574 
-111.296 -98.866 92.3345 -110.52 -97.586 91.6443 -109.604 -96.2934 91.3404 
-108.9 -95.1603 90.7439 -113.584 -104.782 93.8928 -112.991 -104.291 93.7996 
-112.32 -103.305 93.7801 -111.715 -102.018 93.376 -111.183 -100.657 92.5407 
-110.484 -99.2575 91.8952 -109.655 -97.7955 91.4392 -108.931 -96.3855 90.6904 
-114.406 -107.795 94.2708 -113.943 -107.8 94.0074 -113.235 -107.09 93.8793 
-112.422 -105.72 93.7955 -111.754 -104.041 93.3534 -111.179 -102.4 92.6181 
-110.482 -100.828 91.9849 -109.698 -99.1981 91.3822 -108.943 -97.5791 90.6444 
-115.043 -109.855 94.5082 -114.77 -110.441 94.2721 -115.168 -112.304 94.0211 
-114.741 -112.651 93.7604 -115.003 -114.558 92.9508 -114.213 -110.428 93.9348 
-114.361 -114.352 92.8283 -114.79 -116.526 91.7842 -114.049 -112.482 93.5504 
-113.382 -109.615 93.8016 -114.068 -115.725 91.8079 -114.644 -117.894 90.8394 
-113.682 -113.921 92.8703 -113.253 -111.587 93.5962 -112.507 -107.915 93.7354 
-113.883 -116.619 90.9276 -114.214 -118.251 89.9897 -113.451 -114.838 91.9941 
-112.985 -112.716 93.1022 -112.384 -109.415 93.6231 -111.737 -105.671 93.3194 
-113.431 -116.613 90.3376 -113.43 -117.695 89.3446 -113.205 -115.025 91.3291 
-112.705 -113.002 92.3966 -112.067 -109.979 93.2513 -111.478 -106.533 93.2752 
-111.008 -103.562 92.6318 -112.77 -115.697 90.1338 -112.724 -116.465 89.2949 
-112.729 -114.316 91.106 -112.395 -112.54 91.9415 -111.801 -109.96 92.6731 
-111.153 -106.812 93.0002 -110.665 -104.105 92.6166 -110.243 -101.725 91.93 
-112.155 -114.013 90.2527 -112.248 -114.442 89.7603 -112.094 -112.92 91.0639 
-111.932 -111.451 91.7506 -111.578 -109.486 92.1632 -110.992 -106.871 92.4285 
-110.362 -104.301 92.3575 -109.884 -102.133 91.8531 -109.44 -99.8939 91.2184 
-111.564 -111.667 90.4099 -111.769 -111.72 90.1746 -111.383 -111.037 90.9425 
-111.235 -109.946 91.4988 -111.075 -108.478 91.7615 -110.708 -106.509 91.82 
-110.08 -104.257 91.8163 -109.477 -102.176 91.6007 -109.031 -100.181 91.124 
-108.614 -98.0881 90.5318 -115.135 -108.17 94.441 -115.34 -110.721 94.2181 
-115.479 -108.85 93.9788 -115.607 -111.379 93.4459 -115.875 -109.392 93.2497 
-115.398 -113.499 93.2916 -116.017 -111.563 92.6136 -116.301 -109.596 92.5938 
-115.683 -114.337 92.3062 -115.396 -116.38 91.96 -116.365 -111.238 92.0363 
-116.324 -109.224 92.062 -115.991 -114.142 91.5541 -115.831 -117.422 91.031 
-115.438 -118.668 90.8453 -116.087 -110.552 91.6943 -115.637 -107.915 91.5433 
-115.944 -113.258 91.2035 -115.943 -116.742 90.4064 -115.915 -119.27 89.9583 
-115.187 -119.425 89.892 -115.199 -108.952 91.411 -114.655 -105.554 90.9351 
-115.358 -112.056 91.1878 -115.54 -115.196 90.2596 -115.856 -117.927 89.3185 
-115.431 -119.097 88.8917 -114.326 -118.8 88.9252 -114.316 -106.199 90.8928 
-113.873 -102.839 90.1394 -114.645 -109.753 91.1538 -114.939 -113.113 90.5949 
-115.378 -115.863 89.4839 -115.333 -117.453 88.5563 -114.4 -117.944 88.2543 
-113.345 -117.634 88.5678 -113.633 -103.22 90.0277 -113.282 -100.568 89.1757 
-114.037 -106.406 90.6785 -114.4 -109.827 90.7999 -114.758 -112.952 90.2401 
-114.908 -115.112 89.3374 -114.422 -116.167 88.7163 -113.509 -116.433 88.6986 
-112.751 -115.867 89.142 -112.997 -100.818 88.9706 -112.756 -98.8758 88.1511 
-113.361 -103.197 89.7596 -113.756 -105.99 90.3477 -114.043 -108.965 90.5371 
[...]
CELL_DATA 2000
SCALARS Distance double
LOOKUP_TABLE default
154.323 155.067 154.862 155.252 155.919 155.68 156.13 155.908 156.443 
156.957 156.653 157.173 156.89 157.458 157.235 157.909 158.136 157.804 
158.373 158.046 158.646 158.342 159.002 158.792 159.541 159.316 159.017 
159.624 159.312 159.938 159.601 160.241 159.947 160.666 160.471 161.259 
160.432 160.179 160.819 160.563 161.216 160.903 161.534 161.21 161.905 
161.655 162.451 162.25 163.067 161.523 161.284 161.954 161.742 162.437 
162.167 162.82 162.501 163.205 162.932 163.746 163.515 164.356 164.109 
164.911 162.648 162.398 163.083 162.877 163.605 163.377 164.074 163.788 
164.514 164.25 165.083 164.852 165.705 165.44 166.236 165.953 166.733 
163.777 163.54 164.207 164 164.706 164.517 165.223 165.008 165.728 
165.52 166.32 166.147 166.983 166.771 167.554 167.283 168.047 167.78 
168.585 153.948 153.677 154.08 154.661 153.448 153.823 154.359 154.794 
155.439 153.151 153.581 154.106 154.51 155.147 155.641 156.425 152.772 
153.269 153.904 154.311 154.976 155.408 156.204 156.726 157.59 152.587 
152.995 153.769 154.181 154.909 155.297 156.072 156.546 157.408 157.929 
158.774 152.754 153.002 153.762 154.122 154.867 155.242 155.986 156.427 
157.275 157.781 158.647 159.119 159.914 153.057 153.242 153.891 154.165 
154.858 155.2 155.939 156.348 157.201 157.686 158.595 159.049 159.871 
160.264 161.02 153.332 153.51 154.121 154.318 154.976 155.243 155.995 
156.348 157.207 157.65 158.56 159.02 159.858 160.255 161.008 161.381 
162.133 153.632 153.781 154.409 154.57 155.235 155.444 156.202 156.487 
157.323 157.69 158.542 158.969 159.77 160.2 160.943 161.355 162.099 
162.504 163.256 154.039 154.911 154.582 154.802 155.89 155.504 155.787 
155.414 155.686 157.118 156.631 156.992 156.534 156.888 156.412 156.72 
158.46 157.98 158.379 157.878 158.269 157.736 158.066 157.525 157.844 
159.736 159.31 159.742 159.292 159.699 159.176 159.497 158.92 159.196 
158.661 158.991 161.176 160.658 161.148 160.659 161.127 160.617 160.994 
160.397 160.662 160.039 160.309 159.796 160.148 162.789 162.246 162.767 
162.187 162.672 162.101 162.54 161.943 162.279 161.595 161.853 161.19 
161.5 160.97 161.336 164.11 163.762 164.24 163.788 164.208 163.671 
164.066 163.506 163.878 163.248 163.545 162.834 163.117 162.447 162.792 
162.211 162.562 165.025 164.826 165.247 165.009 165.4 165.051 165.422 
164.974 165.348 164.813 165.138 164.501 164.764 164.092 164.375 163.746 
164.061 163.458 163.748 164.569 164.923 165.141 165.901 165.259 165.491 
166.296 166.488 167.292 165.665 165.877 166.742 166.929 167.845 168.016 
169.002 166.072 166.335 167.289 167.484 168.512 168.686 169.808 169.954 
171.049 166.284 166.683 167.715 168.057 169.149 169.408 170.574 170.8 
171.944 172.047 173.004 166.265 166.754 167.783 168.346 169.472 169.933 
171.065 171.447 172.594 172.864 173.876 173.912 174.773 166.105 166.6 
167.55 168.246 169.427 170.091 171.251 171.764 172.913 173.361 174.509 
174.753 175.771 175.754 176.759 165.877 166.344 167.217 167.929 169.166 
169.969 171.254 171.873 173.044 173.57 174.79 175.28 176.49 176.736 
177.848 177.888 179.041 165.662 166.093 166.933 167.59 168.824 169.687 
171.065 171.829 173.027 173.623 174.772 175.413 176.669 177.257 178.457 
178.802 179.902 180.101 181.195 164.59 165.935 165.196 165.05 167.346 
166.575 166.474 165.688 165.552 169.055 168.122 168.057 167.179 167.072 
166.23 166.091 171.074 170.032 169.983 168.941 168.848 167.857 167.734 
166.809 166.662 173.007 172.075 172.078 171.028 170.954 169.816 169.668 
168.577 168.433 167.443 167.309 174.788 173.93 174.043 173.122 173.163 
172.045 171.905 170.666 170.464 169.323 169.175 168.152 167.998 176.861 
175.87 176.13 175.158 175.372 174.297 174.289 173.016 172.822 171.51 
171.321 170.128 169.959 168.853 168.619 179.309 178.258 178.681 177.542 
177.876 176.676 176.803 175.49 175.395 174 173.825 172.458 172.279 
170.972 170.732 169.485 169.185 181.614 180.79 181.325 180.266 180.64 
179.388 179.547 178.16 178.11 176.657 176.486 175.049 174.837 173.434 
173.167 171.772 171.441 170.1 169.767 182.869 184.476 183.466 182.747 
185.502 184.846 184.259 183.17 182.122 186.026 185.552 185.035 184.398 
183.517 182.33 181.006 186.352 185.887 185.305 184.928 184.268 183.495 
182.295 180.993 179.484 186.31 186.048 185.359 185.081 184.458 184.023 
182.973 182.019 180.484 179.25 177.706 185.593 185.715 185.054 184.96 
184.216 183.992 182.931 182.348 180.831 179.92 178.314 177.332 175.902 
184.445 184.788 184.226 184.37 183.581 183.52 182.424 182.059 180.6 
179.953 178.395 177.664 176.238 175.456 174.126 183.135 183.563 182.988 
183.307 182.529 182.658 181.616 181.442 180.097 179.618 178.146 177.567 
176.191 175.592 174.279 173.595 172.306 181.522 182.086 181.404 181.878 
181.065 181.397 180.404 180.494 179.262 179.037 177.632 177.218 175.841 
175.393 174.103 173.588 172.316 171.718 170.521 183.124 183.687 183.885 
184.641 183.936 184.252 185.046 185.238 185.73 184.005 184.358 185.15 
185.526 186.252 186.264 186.512 183.78 184.273 184.946 185.475 186.372 
186.775 187.384 187.108 187.088 182.881 183.776 184.361 185.041 185.807 
186.611 187.402 187.771 187.878 187.471 186.997 181.067 182.483 183.19 
184.175 184.767 185.72 186.362 187.239 187.388 187.657 187.07 186.818 
186.009 178.653 180.343 181.206 182.639 183.286 184.43 184.937 185.916 
186.071 186.665 186.202 186.338 185.553 185.476 184.717 176.233 177.83 
178.65 180.336 181.057 182.574 183.093 184.312 184.513 185.293 185.037 
185.352 184.787 184.852 184.22 184.163 183.463 174.125 175.46 176.081 
177.672 178.292 179.99 180.475 182.059 182.271 183.505 183.349 184.1 
183.651 184.022 183.434 183.567 182.847 182.799 181.909 165.788 166.629 
166.479 167.194 167.701 167.54 168.413 168.217 169.19 168.642 168.638 
169.606 169.542 170.606 170.451 171.463 169.382 169.5 170.525 170.634 
171.733 171.769 172.791 172.64 173.44 170.187 170.296 171.441 171.551 
172.75 172.821 173.94 173.873 174.801 174.519 175.256 171.116 171.238 
172.54 172.634 174.039 174.043 175.412 175.237 176.429 176.06 177.045 
176.522 177.295 171.999 172.21 173.619 173.828 175.445 175.562 177.237 
177.082 178.544 178.065 179.203 178.55 179.406 178.673 179.247 172.755 
173.058 174.533 174.884 176.632 176.985 178.851 178.986 180.587 180.299 
181.405 180.788 181.519 180.79 181.305 180.495 180.804 173.382 173.768 
175.282 175.744 177.517 178.053 179.915 180.359 181.912 182.003 182.978 
182.668 183.203 182.672 183.053 182.416 182.735 181.934 182.124 165.174 
164.351 165.105 165.868 163.387 164.206 164.984 165.893 166.814 162.357 
163.175 163.914 164.904 165.83 166.831 167.721 161.322 162.109 162.765 
163.752 164.665 165.753 166.661 167.629 168.431 160.306 161.061 161.662 
162.58 163.435 164.533 165.47 166.511 167.328 168.281 169.123 159.4 
160.089 160.674 161.493 162.265 163.289 164.197 165.28 166.122 167.129 
167.955 168.996 169.939 158.678 159.285 159.868 160.568 161.259 162.137 
162.959 163.994 164.836 165.881 166.703 167.77 168.681 169.809 170.776 
158.113 158.651 159.228 159.838 160.467 161.188 161.901 162.794 163.586 
164.593 165.411 166.477 167.356 168.494 169.436 170.59 171.511 157.655 
158.132 158.665 159.223 159.792 160.427 161.041 161.794 162.486 163.385 
164.157 165.177 166.024 167.138 168.045 169.205 170.106 171.257 172.116 
157.58 157.683 157.937 158.545 157.676 157.998 158.664 158.957 159.647 
157.777 158.035 158.778 159.086 159.863 160.131 160.891 158.218 158.313 
159.103 159.311 160.154 160.399 161.237 161.462 162.304 158.859 158.888 
159.651 159.771 160.623 160.798 161.687 161.882 162.807 163.004 163.959 
159.426 159.505 160.235 160.351 161.203 161.355 162.304 162.461 163.482 
163.633 164.696 164.825 165.87 159.944 160.051 160.843 160.947 161.845 
161.985 163.015 163.183 164.306 164.449 165.597 165.694 166.818 166.865 
167.925 160.546 160.651 161.559 161.644 162.608 162.705 163.771 163.941 
165.112 165.308 166.493 166.639 167.781 167.863 168.954 168.969 169.989 
161.203 161.33 162.298 162.422 163.423 163.525 164.585 164.734 165.894 
166.101 167.293 167.488 168.641 168.788 169.901 169.985 171.048 171.036 
172.012 161.873 163.329 162.739 163.038 164.981 164.308 164.664 163.983 
164.245 166.976 166.153 166.595 165.779 166.136 165.284 165.522 169.236 
168.355 168.901 167.963 168.446 167.435 167.764 166.703 166.926 171.491 
170.686 171.307 170.402 170.975 169.957 170.364 169.182 169.388 168.193 
168.353 173.86 173.062 173.858 172.907 173.589 172.562 173.078 171.899 
172.139 170.811 170.887 169.625 169.717 176.492 175.718 176.845 175.782 
176.686 175.442 176.129 174.791 175.2 173.727 173.851 172.34 172.361 
171.001 171.037 178.959 178.442 179.746 178.92 179.968 178.793 179.575 
178.153 178.679 177.063 177.286 175.547 175.539 173.864 173.786 172.319 
172.245 180.786 180.609 181.779 181.431 182.366 181.726 182.424 181.446 
181.922 180.576 180.769 179.095 179.011 177.195 176.959 175.227 174.967 
173.453 173.23 161.445 161.262 161.834 162.851 161.07 161.66 162.699 
163.318 164.469 160.823 161.463 162.536 163.182 164.392 165.06 166.395 
160.551 161.222 162.33 163.004 164.225 164.966 166.368 167.13 168.592 
160.287 160.965 162.078 162.772 163.964 164.742 166.15 167.035 168.56 
169.355 170.804 160.014 160.68 161.768 162.488 163.685 164.466 165.879 
166.785 168.358 169.249 170.753 171.513 172.999 159.814 160.41 161.49 
162.183 163.427 164.21 165.669 166.557 168.17 169.065 170.61 171.409 
172.895 173.724 175.359 159.748 160.278 161.371 161.987 163.247 163.995 
165.453 166.345 167.938 168.876 170.423 171.263 172.71 173.544 175.085 
176.071 177.719 159.715 160.246 161.328 161.923 163.128 163.836 165.187 
166.056 167.527 168.518 170.001 170.969 172.379 173.28 174.704 175.676 
177.189 178.247 179.664 160.548 159.282 160.052 160.376 158.124 158.843 
159.115 159.879 160.175 156.847 157.626 157.835 158.606 158.785 159.59 
159.845 155.445 156.216 156.365 157.207 157.315 158.124 158.249 159.166 
159.472 154.176 154.813 154.882 155.664 155.785 156.595 156.701 157.547 
157.792 158.801 159.201 152.972 153.584 153.585 154.246 154.34 155.097 
155.249 156.043 156.269 157.172 157.548 158.569 158.989 151.724 152.351 
152.362 152.983 153.026 153.721 153.857 154.628 154.83 155.677 155.985 
156.954 157.37 158.384 158.813 150.758 151.217 151.29 151.807 151.876 
152.474 152.612 153.3 153.488 154.246 154.492 155.384 155.76 156.776 
157.237 158.259 158.732 150.312 150.527 150.63 150.933 151.041 151.466 
151.652 152.201 152.435 153.034 153.271 153.971 154.314 155.211 155.689 
156.699 157.211 158.221 158.706 150.272 150.299 150.343 150.485 150.3 
150.333 150.435 150.542 150.795 150.328 150.342 150.444 150.503 150.754 
150.938 151.37 150.339 150.399 150.517 150.548 150.783 150.929 151.352 
151.609 152.125 150.336 150.441 150.657 150.674 150.857 150.935 151.283 
151.553 152.053 152.368 152.915 150.624 150.602 150.996 150.947 151.183 
151.076 151.349 151.477 152.014 152.319 152.971 153.251 153.95 151.399 
151.162 151.641 151.497 151.877 151.612 151.918 151.761 152.347 152.471 
153.292 153.486 154.314 154.497 155.34 152.436 152.085 152.485 152.277 
152.717 152.461 152.859 152.581 153.168 153.091 153.94 154.017 154.899 
155.002 155.846 156 156.861 153.444 153.085 153.375 153.126 153.528 
153.327 153.779 153.568 154.132 154.011 154.755 154.762 155.567 155.628 
156.414 156.529 157.344 157.522 158.357 154.041 154.979 154.307 153.999 
156.198 155.389 155.093 154.375 154.153 157.717 156.797 156.541 155.645 
155.413 154.638 154.466 159.387 158.445 158.241 157.257 157.015 156.067 
155.873 155.046 154.924 161.106 160.164 159.988 159.007 158.779 157.772 
157.549 156.598 156.466 155.618 155.571 162.9 161.929 161.767 160.768 
160.582 159.574 159.419 158.401 158.285 157.3 157.235 156.353 156.343 
164.756 163.786 163.668 162.619 162.467 161.429 161.364 160.362 160.356 
159.295 159.243 158.167 158.113 157.17 157.18 166.637 165.702 165.689 
164.625 164.524 163.414 163.352 162.341 162.383 161.4 161.399 160.302 
160.213 159.1 159.055 158.078 158.127 168.556 167.656 167.766 166.735 
166.724 165.576 165.509 164.395 164.387 163.387 163.392 162.387 162.307 
161.229 161.134 160.073 160.059 159.09 159.142 159.999 160.994 160.882 
161.68 162.077 161.951 162.839 162.68 163.533 163.23 163.095 164.038 
163.908 164.888 164.673 165.619 164.386 164.304 165.359 165.227 166.341 
166.132 167.214 166.916 167.955 165.515 165.509 166.744 166.676 167.954 
167.75 168.949 168.621 169.742 169.374 170.429 166.708 166.722 168.07 
168.098 169.503 169.428 170.743 170.468 171.656 171.258 172.374 171.913 
172.895 167.934 167.986 169.356 169.425 170.867 170.917 172.344 172.246 
173.563 173.248 174.451 173.975 175.055 174.435 175.344 168.977 169.157 
170.531 170.679 172.109 172.228 173.706 173.772 175.228 175.117 176.438 
176.086 177.24 176.685 177.682 176.96 177.834 169.746 170.057 171.429 
171.724 173.125 173.363 174.788 175.013 176.478 176.628 178.005 177.926 
179.093 178.759 179.738 179.216 180.07 179.409 180.18 153.015 152.705 
152.537 151.909 152.462 152.288 151.697 151.487 151.004 152.112 152.005 
151.505 151.372 150.979 150.821 150.646 151.889 151.661 151.193 151.145 
150.869 150.836 150.681 150.65 150.624 152.152 151.677 151.221 150.965 
150.746 150.697 150.563 150.581 150.453 150.527 150.428 152.625 152.123 
151.637 151.21 150.915 150.706 150.551 150.456 150.273 150.253 150.092 
150.193 150.102 152.903 152.509 151.891 151.52 151 150.822 150.552 
150.489 150.31 150.19 150.031 149.953 149.913 149.962 149.987 153.095 
152.695 152.007 151.595 150.923 150.699 150.322 150.352 150.241 150.262 
150.19 150.079 150.055 149.967 150.036 150.008 150.058 153.392 152.943 
152.345 151.809 151.214 150.74 150.386 150.192 150.164 150.183 150.254 
150.239 150.254 150.18 150.213 150.156 150.209 150.14 150.159 153.093 
151.963 152.669 153.046 151.016 151.553 151.964 152.751 153.289 150.649 
150.836 151.185 151.775 152.381 153.107 153.644 150.66 150.689 150.906 
151.214 151.767 152.342 152.93 153.505 153.993 150.521 150.657 150.75 
150.969 151.352 151.841 152.453 152.966 153.51 153.961 154.487 150.229 
150.412 150.49 150.692 150.921 151.361 151.935 152.538 153.192 153.65 
154.185 154.57 155.082 150.062 150.163 150.295 150.439 150.674 150.955 
151.463 152.003 152.71 153.296 153.901 154.331 154.795 155.161 155.597 
150.032 150.056 150.17 150.308 150.616 150.839 151.344 151.687 152.331 
152.814 153.45 153.951 154.47 154.884 155.331 155.679 156.122 150.087 
150.041 150.101 150.205 150.531 150.804 151.362 151.679 152.28 152.589 
153.155 153.533 154.091 154.528 155.066 155.456 155.955 156.273 156.749 
153.751 153.766 154.047 154.664 154 154.181 154.781 154.983 155.616 
154.314 154.488 155.115 155.227 155.844 156.032 156.793 154.641 154.823 
155.553 155.671 156.332 156.394 157.087 157.3 158.105 155.089 155.209 
156.01 156.171 156.909 156.952 157.579 157.654 158.338 158.577 159.359 
155.595 155.684 156.413 156.617 157.357 157.487 158.103 158.152 158.769 
158.88 159.631 159.871 160.767 156.034 156.109 156.707 156.921 157.588 
157.82 158.464 158.618 159.279 159.381 160.133 160.271 161.148 161.404 
162.356 156.516 156.509 157.036 157.157 157.768 157.985 158.654 158.902 
159.627 159.85 160.609 160.789 161.576 161.797 162.625 162.928 163.708 
157.129 157.047 157.555 157.55 158.134 158.231 158.89 159.096 159.823 
160.106 160.85 161.131 161.851 162.117 162.835 163.122 163.82 164.103 
164.703 160.394 159.757 159.733 159.118 159.241 159.159 158.542 158.525 
157.972 158.799 158.72 158.121 158.024 157.409 157.373 156.747 158.21 
158.23 157.63 157.6 156.953 156.858 156.169 156.094 155.425 157.517 
157.539 156.903 156.976 156.339 156.346 155.661 155.578 154.891 154.813 
154.197 157.1 156.934 156.292 156.239 155.625 155.653 155.032 155.032 
154.35 154.292 153.594 153.577 152.944 157.06 156.741 156.124 155.841 
155.221 155.057 154.484 154.43 153.82 153.74 152.998 152.91 152.163 
152.214 151.615 157.1 156.799 156.194 155.838 155.183 154.849 154.242 
154.04 153.501 153.335 152.686 152.429 151.679 151.501 150.903 150.965 
150.615 157.018 156.793 156.206 155.908 155.268 154.899 154.261 153.938 
153.391 153.155 152.611 152.307 151.659 151.287 150.717 150.51 150.22 
150.262 150.189 
POINT_DATA 1002
SCALARS Distance double
LOOKUP_TABLE default
154.641 153.816 154.515 155.432 155.256 155.685 156.354 156.151 156.609 
157.039 157.458 157.264 157.709 158.059 158.631 158.692 158.454 158.972 
159.261 159.688 160.308 159.908 159.589 160.275 160.571 160.894 161.419 
162.052 161.041 160.668 161.511 161.865 162.169 162.654 163.282 163.87 
162.146 161.756 162.678 163.127 163.472 163.975 164.611 165.177 165.688 
163.295 162.895 163.81 164.33 164.768 165.304 165.971 166.535 166.996 
167.517 164.431 164.006 164.898 165.414 165.927 166.491 167.169 167.81 
168.319 168.829 169.41 153.514 154.215 153.305 153.952 153.09 154.914 
153.703 152.663 154.667 155.863 153.445 152.213 154.567 155.698 157.053 
153.332 152.222 154.535 155.63 156.891 158.282 153.455 152.591 154.504 
155.567 156.764 158.173 159.487 153.686 152.901 154.539 155.534 156.717 
158.124 159.49 160.639 153.948 153.15 154.734 155.66 156.794 158.111 
159.449 160.638 161.749 154.249 153.501 155.034 155.943 157.008 158.168 
159.351 160.513 161.679 162.87 154.371 155.128 155.236 156.153 156.285 
156.085 157.46 157.614 157.37 157.213 158.872 158.9 158.811 158.629 
158.359 160.162 160.152 160.197 160.091 159.774 159.459 161.663 161.717 
161.623 161.566 161.328 160.889 160.582 163.362 163.291 163.279 163.117 
162.939 162.573 162.102 161.818 164.636 164.405 164.726 164.621 164.464 
164.236 163.831 163.423 163.137 165.44 165.233 165.668 165.809 165.84 
165.743 165.439 165.026 164.679 164.369 165.334 165.722 166.65 166.074 
167.094 168.135 166.533 167.623 168.823 170.053 167.037 168.3 169.618 
170.991 172.108 167.274 168.839 170.313 171.799 173.046 173.863 167.152 
168.929 170.655 172.236 173.754 174.833 175.628 166.843 168.663 170.697 
172.411 174.1 175.678 176.807 177.85 166.527 168.288 170.554 172.521 
174.209 176.069 177.731 179.015 180.264 166.316 167.963 170.228 172.421 
174.148 175.967 177.978 179.667 181.03 182.295 165.823 167.254 166.346 
168.98 167.94 166.934 171.067 169.908 168.702 167.571 173.055 172.115 
170.844 169.461 168.271 174.878 174.2 173.179 171.696 170.239 169.018 
177.115 176.405 175.517 174.177 172.599 171.13 169.732 179.822 179.117 
178.116 176.784 175.231 173.653 172.059 170.409 182.291 181.87 180.945 
179.591 177.965 176.27 174.596 172.852 171.066 184.027 184.086 185.322 
185.137 186.054 183.561 185.473 186.562 184.503 182.493 185.635 186.867 
184.813 183.495 180.906 185.647 186.42 184.801 183.766 181.667 178.889 
185.081 185.282 184.438 183.416 181.621 179.214 176.844 184.005 184.052 
183.598 182.715 181.151 179.036 176.939 174.934 182.639 182.721 182.327 
181.67 180.469 178.677 176.731 174.905 173.002 180.907 180.948 180.676 
180.2 179.348 177.973 176.25 174.544 172.861 171.088 183.054 184.579 
183.434 184.749 183.633 185.821 184.698 183.692 186.019 186.929 184.433 
183.219 185.72 187.392 187.841 183.678 181.751 184.98 186.736 188.088 
187.709 182.023 179.435 183.877 185.458 186.902 187.176 186.328 179.577 
176.956 182.026 183.968 185.397 185.92 185.513 184.82 176.966 174.782 
179.415 181.741 183.583 184.569 184.628 184.225 183.619 174.637 172.957 
176.644 178.826 180.869 182.376 183.115 183.221 182.866 182.065 165.817 
167.307 166.764 168.552 167.79 169.385 169.577 168.563 170.693 171.748 
170.366 169.221 171.638 172.874 173.758 171.306 170.039 172.658 173.961 
174.995 175.659 172.374 170.941 173.947 175.522 176.765 177.537 177.947 
173.32 171.742 175.171 177.229 178.972 179.906 180.177 180.103 174.115 
172.411 176.169 178.565 180.768 182.027 182.29 182.099 181.722 164.474 
165.027 163.557 164.037 162.57 165.892 162.921 161.584 164.787 166.814 
161.825 160.562 163.552 165.661 167.514 160.799 159.562 162.367 164.391 
166.362 168.112 159.911 158.731 161.318 163.114 165.09 166.917 168.842 
159.216 158.09 160.482 161.984 163.783 165.64 167.556 169.649 158.651 
157.601 159.82 161.104 162.62 164.36 166.238 168.279 170.382 158.147 
157.221 159.2 160.362 161.663 163.178 164.938 166.9 168.958 170.981 