# vtk DataFile Version 4.0
vtk output
ASCII
DATASET POLYDATA
POINTS 1002 float
-103.806 -77.6424 72.1681 -103.667 -76.8694 70.9985 -104.258 -76.9319 71.7398 
-104.502 -77.8172 72.9131 -104.97 -77.0908 72.5356 -104.125 -78.6358 73.413 
-105.234 -78.0328 73.7666 -105.675 -77.2315 73.4615 -104.837 -78.8826 74.1919 
-104.42 -79.7512 74.7463 -105.916 -78.1989 74.7942 -106.379 -77.3582 74.467 
-105.5 -79.0764 75.1912 -105.109 -79.995 75.6841 -104.754 -80.9094 76.1741 
-106.683 -78.4305 75.8096 -107.19 -77.6317 75.3805 -106.187 -79.299 76.2983 
-105.81 -80.2392 76.8343 -105.509 -81.2155 77.3232 -105.328 -82.175 77.699 
-107.596 -78.83 76.6769 -108.101 -78.0946 76.15 -107.053 -79.7041 77.2608 
-106.651 -80.7021 77.8516 -106.372 -81.7241 78.426 -106.081 -82.7073 78.9429 
-105.917 -83.7003 79.3814 -108.499 -79.3135 77.5093 -108.992 -78.6187 76.9013 
-107.973 -80.1751 78.1674 -107.571 -81.2804 78.7338 -107.327 -82.423 79.2523 
-106.956 -83.4329 79.8798 -106.553 -84.4185 80.5565 -106.356 -85.4416 81.1544 
-109.28 -79.8139 78.3718 -109.78 -79.1223 77.7 -108.761 -80.6155 79.1051 
-108.368 -81.7187 79.6995 -108.162 -82.9788 80.1386 -107.847 -84.0757 80.6768 
-107.365 -85.091 81.3929 -107.056 -86.1719 82.1142 -106.942 -87.2012 82.6925 
-109.97 -80.3164 79.1891 -110.455 -79.5904 78.4841 -109.442 -81.0957 79.9471 
-109.047 -82.1159 80.59 -108.852 -83.3888 81.0769 -108.613 -84.5715 81.598 
-108.197 -85.6086 82.2226 -107.892 -86.7505 82.8332 -107.817 -87.922 83.3616 
-107.752 -88.906 83.7673 -110.619 -80.7941 79.9024 -111.043 -80.0205 79.1947 
-110.117 -81.613 80.6431 -109.726 -82.5896 81.2936 -109.542 -83.8424 81.8115 
-109.359 -85.1343 82.3633 -109.004 -86.2162 83.0014 -108.696 -87.305 83.5295 
-108.635 -88.538 83.8935 -108.646 -89.6804 84.2044 -108.534 -90.5794 84.4728 
-104.112 -76.2952 70.2877 -104.734 -76.3256 71.0758 -104.797 -75.8576 69.493 
-105.379 -75.7633 70.3368 -105.451 -75.3138 68.68 -105.423 -76.3891 71.9648 
-105.976 -75.0583 69.6199 -105.888 -74.4763 67.9785 -106.024 -75.6827 71.298 
-106.122 -76.4246 72.9698 -106.53 -74.2401 69.0422 -106.426 -73.711 67.3803 
-106.694 -74.9447 70.6378 -106.762 -75.6707 72.3398 -106.878 -76.5487 74.002 
-107.284 -73.6294 68.5132 -107.349 -73.387 66.7721 -107.391 -74.2263 70.1185 
-107.544 -75.0329 71.693 -107.612 -75.8893 73.3746 -107.768 -76.9286 74.9057 
-108.192 -73.2486 67.9188 -108.308 -73.1703 66.2275 -108.111 -73.5803 69.6729 
-108.243 -74.3828 71.2386 -108.474 -75.3629 72.7247 -108.601 -76.3524 74.2874 
-108.753 -77.4699 75.681 -109.001 -72.8327 67.4123 -108.997 -72.7066 65.9065 
-108.91 -73.0201 69.1936 -108.89 -73.6603 70.9277 -109.166 -74.7322 72.2986 
-109.488 -75.8068 73.6631 -109.6 -76.8553 75.1438 -109.674 -78.0011 76.4728 
-109.687 -72.3985 67.1678 -109.6 -72.1966 65.7886 -109.773 -72.6106 68.7835 
-109.752 -73.0855 70.5547 -109.845 -74.037 72.0152 -110.166 -75.171 73.2337 
-110.388 -76.2338 74.6262 -110.407 -77.3428 76.0437 -110.423 -78.5039 77.2972 
-110.365 -72.1379 67.1161 -110.294 -71.926 65.7479 -110.564 -72.4012 68.555 
-110.696 -72.8038 70.1391 -110.717 -73.551 71.6373 -110.838 -74.5658 72.9097 
-111.021 -75.6162 74.2256 -111.051 -76.7119 75.6261 -111.01 -77.8706 76.9039 
-111.027 -78.986 78.073 -111.078 -72.0222 66.6307 -111.24 -72.2641 68.0869 
-111.989 -72.2669 67.522 -112.213 -72.4968 68.9703 -113.038 -72.5518 68.2469 
-111.478 -72.6208 69.5477 -113.26 -72.8503 69.7357 -114.077 -73.0684 68.9365 
-112.384 -73.0129 70.4272 -111.601 -73.2404 71.041 -114.279 -73.599 70.6396 
-114.754 -74.0652 69.9009 -113.357 -73.6258 71.3715 -112.493 -73.8512 71.9651 
-111.659 -74.1314 72.4933 -114.965 -74.7605 71.7213 -114.994 -75.365 71.1226 
-114.325 -74.5317 72.4588 -113.466 -74.5677 73.1095 -112.622 -74.755 73.6029 
-111.754 -75.1223 73.9617 -115.242 -76.0498 72.7715 -115.073 -76.6692 72.3618 
-114.925 -75.6433 73.4354 -114.276 -75.4488 74.2138 -113.535 -75.4727 74.8331 
-112.634 -75.7816 75.2081 -111.738 -76.2512 75.4368 -115.358 -77.3587 73.7871 
-115.12 -77.9311 73.5167 -115.201 -76.905 74.3402 -114.718 -76.6195 75.1587 
-114.165 -76.5164 75.9058 -113.411 -76.7003 76.3528 -112.442 -77.1058 76.5933 
-111.616 -77.5136 76.7654 -115.417 -78.6875 74.8275 -115.088 -79.1788 74.5876 
-115.428 -78.2587 75.3668 -115.079 -78.0007 76.203 -114.627 -77.8934 76.9895 
-114.061 -77.9345 77.4599 -113.192 -78.1477 77.7016 -112.271 -78.4321 77.8688 
-111.577 -78.708 77.9945 -115.38 -80.0192 75.8408 -115.005 -80.4187 75.5818 
-115.568 -79.6333 76.4217 -115.421 -79.3966 77.2991 -115.066 -79.3237 78.1125 
-114.616 -79.3162 78.5987 -113.921 -79.3447 78.8628 -113.026 -79.438 79.0431 
-112.231 -79.5962 79.1472 -111.608 -79.8035 79.1862 -111.395 -81.0132 80.3141 
-112.052 -80.8841 80.3586 -111.783 -82.3349 81.4218 -112.774 -80.7755 80.3662 
-112.501 -82.3915 81.4815 -112.189 -84.0038 82.4759 -113.615 -80.735 80.2387 
-113.263 -82.4157 81.4938 -112.919 -84.2372 82.5409 -112.578 -85.8566 83.5985 
-114.417 -80.7629 79.9667 -114.025 -82.4263 81.3046 -113.679 -84.3102 82.5955 
-113.356 -86.151 83.7466 -113.002 -88.0113 84.7521 -114.976 -80.8067 79.6338 
-114.633 -82.4869 80.9557 -114.326 -84.3263 82.4177 -114.133 -86.2703 83.8638 
-113.804 -88.4495 84.938 -113.49 -90.8774 85.7195 -115.367 -80.8499 79.0796 
-115.093 -82.6234 80.5987 -114.809 -84.5044 82.0726 -114.692 -86.4416 83.661 
-114.432 -88.823 84.9442 -114.061 -91.6347 85.8313 -113.94 -94.2501 86.6137 
-115.593 -80.9807 78.1769 -115.462 -82.7967 80.0024 -115.252 -84.8319 81.6949 
-115.091 -86.7993 83.2808 -114.79 -89.1968 84.6346 -114.358 -92.3078 85.7024 
-114.227 -95.2555 86.6888 -114.387 -97.4244 87.5829 -115.509 -81.2514 77.2813 
-115.58 -82.9682 79.0767 -115.571 -85.0668 81.0311 -115.432 -87.1397 82.8269 
-115.045 -89.4663 84.2458 -114.557 -92.6825 85.3941 -114.437 -96.0623 86.5261 
-114.731 -98.5026 87.5948 -114.957 -100.141 88.3383 -115.185 -81.5807 76.748 
-115.398 -83.1312 78.2329 -115.597 -85.0952 80.0873 -115.602 -87.2026 82.0615 
-115.237 -89.4886 83.736 -114.745 -92.609 85.0263 -114.672 -96.3186 86.2051 
-115.103 -99.2934 87.3276 -115.523 -101.133 88.1683 -115.526 -102.53 88.6092 
-110.951 -81.9505 81.0759 -111.39 -83.4421 82.234 -110.532 -82.964 81.8237 
-111.859 -85.2437 83.426 -111.123 -84.6648 83.0529 -110.319 -84.2298 82.4335 
-112.268 -87.406 84.6055 -111.663 -86.7491 84.3021 -111.013 -86.2446 83.6464 
-110.192 -85.7433 82.9546 -112.77 -90.246 85.5924 -112.102 -89.443 85.3423 
-111.545 -88.6814 84.7701 -110.828 -87.9814 84.0866 -109.891 -87.1103 83.5751 
-113.442 -93.6697 86.5049 -112.714 -92.8433 86.2524 -112.017 -91.7653 85.774 
-111.36 -90.6421 85.135 -110.504 -89.4815 84.6146 -109.539 -88.284 84.1583 
-114.06 -96.9649 87.5223 -113.443 -96.3507 87.2736 -112.641 -95.3436 86.8875 
-111.895 -93.9426 86.3294 -111.142 -92.3908 85.6639 -110.268 -90.8709 85.053 
-109.411 -89.555 84.4849 -114.534 -99.8314 88.3639 -113.978 -99.4319 88.1495 
-113.272 -98.7206 87.854 -112.51 -97.5105 87.5058 -111.766 -95.8404 86.8888 
-110.981 -93.9645 86.0331 -110.177 -92.2306 85.2607 -109.417 -90.8206 84.6861 
-114.938 -102.489 88.7216 -114.315 -102.273 88.5623 -113.747 -101.685 88.2849 
-113.147 -100.678 88.0983 -112.436 -99.2374 87.8035 -111.653 -97.3165 87.0806 
-110.853 -95.2051 86.1563 -110.08 -93.3452 85.4271 -109.325 -91.8413 84.9187 
-115.496 -105.048 88.6275 -114.774 -105.273 88.6517 -115.282 -107.988 88.4841 
-114.688 -108.194 88.4221 -115.328 -110.71 88.3545 -114.203 -104.878 88.3839 
-114.837 -110.524 88.1722 -115.572 -112.638 88.0883 -114.32 -107.291 88.0712 
-113.786 -103.798 88.1268 -114.827 -111.97 87.8034 -115.481 -113.695 87.5607 
-114.344 -109.195 87.7995 -113.858 -105.699 87.8885 -113.179 -102.376 88.0558 
-114.503 -112.372 87.2979 -114.982 -113.718 86.838 -113.935 -110.352 87.5284 
-113.46 -107.339 87.724 -112.968 -103.872 87.8869 -112.32 -100.537 87.7378 
-114.057 -111.648 86.6162 -114.25 -112.673 85.9592 -113.483 -110.259 87.1054 
-112.82 -108.136 87.4845 -112.407 -104.994 87.6975 -112.014 -101.469 87.5467 
-111.435 -98.1598 86.9656 -113.31 -110.435 85.8245 -113.272 -111.045 85.2291 
-113.078 -109.31 86.426 -112.52 -107.729 86.9541 -112.022 -105.269 87.3295 
-111.674 -102.003 87.343 -111.163 -98.6814 86.89 -110.566 -95.7858 86.1538 
-112.276 -109.104 85.3218 -112.264 -109.146 84.9704 -112.358 -108.306 85.785 
-112.265 -106.858 86.2888 -111.929 -104.775 86.7456 -111.481 -102.049 86.9745 
-110.889 -99.0359 86.776 -110.212 -96.2234 86.2053 -109.697 -93.8354 85.5243 
-111.436 -107.32 85.1807 -111.567 -106.984 84.959 -111.519 -106.971 85.4727 
-111.702 -105.8 85.8315 -111.663 -103.927 86.1976 -111.259 -101.599 86.4494 
-110.603 -99.0702 86.4092 -109.859 -96.5445 86.0356 -109.241 -94.2161 85.5024 
-108.846 -92.2301 84.9745 -116.093 -103.866 88.3476 -115.948 -106.438 88.2396 
-116.28 -104.936 87.8842 -115.965 -107.455 87.6777 -115.919 -105.545 87.3718 
-115.774 -109.344 88.0911 -115.647 -108.121 87.0592 -115.537 -105.432 86.764 
-116.067 -110.294 87.4112 -116.129 -111.968 87.9337 -115.518 -107.996 86.3401 
-115.541 -104.312 85.945 -116.107 -110.932 86.5648 -116.838 -112.874 87.0474 
-116.5 -113.866 87.5395 -115.511 -106.429 85.6209 -115.428 -102.335 85.1206 
-115.829 -110.302 85.82 -116.79 -113.087 86.0605 -117.04 -114.614 86.5466 
-116.074 -114.838 86.8732 -115.155 -103.773 85.0822 -114.858 -99.9885 84.4012 
-115.236 -107.787 85.4111 -115.817 -111.354 85.4907 -116.464 -113.892 85.6363 
-116.074 -115.023 85.8718 -115.088 -114.436 85.9761 -114.575 -100.882 84.4414 
-114.213 -97.5494 83.5222 -114.685 -104.444 85.0239 -114.834 -107.946 85.22 
-115.275 -111.045 85.1734 -115.361 -113.218 85.086 -114.785 -113.737 85.0515 
-114.019 -112.675 85.1015 -114.023 -98.0622 83.4494 -113.701 -95.1806 82.44 
-114.304 -101.211 84.207 -114.437 -104.326 84.6373 -114.556 -107.253 84.7818 
-114.601 -109.78 84.7036 -114.311 -111.227 84.552 -113.721 -111.187 84.5403 
-112.996 -110.248 84.7196 -113.443 -95.4569 82.342 -113.21 -93.1501 81.397 
-113.793 -98.1681 83.1254 -114.111 -100.967 83.6848 -114.234 -103.589 84.0872 
[...]
CELL_DATA 2000
SCALARS Distance double
LOOKUP_TABLE default
146.922 147.828 147.591 148.129 148.839 148.576 149.126 148.915 149.534 
149.887 149.62 150.181 149.95 150.578 150.373 151.038 151.012 150.714 
151.305 151.039 151.706 151.477 152.207 151.973 152.743 152.243 151.913 
152.547 152.238 152.963 152.697 153.518 153.258 154.107 153.827 154.705 
153.516 153.188 153.849 153.539 154.299 154.032 154.902 154.653 155.543 
155.257 156.134 155.863 156.786 154.752 154.453 155.107 154.831 155.581 
155.359 156.22 156.029 156.909 156.671 157.514 157.262 158.152 157.948 
158.899 155.905 155.649 156.282 156.039 156.753 156.571 157.405 157.276 
158.151 157.976 158.801 158.577 159.43 159.257 160.202 160.048 160.979 
156.953 156.751 157.379 157.165 157.853 157.684 158.498 158.4 159.298 
159.179 160.038 159.836 160.67 160.488 161.396 161.283 162.215 162.065 
162.897 146.457 146.209 146.626 147.327 146.044 146.426 147.06 147.544 
148.307 145.741 146.209 146.822 147.291 148.003 148.535 149.333 145.407 
145.875 146.566 147.045 147.77 148.259 149.046 149.588 150.439 145.391 
145.686 146.433 146.845 147.641 148.087 148.904 149.374 150.243 150.766 
151.669 145.652 145.827 146.494 146.805 147.591 148.016 148.881 149.324 
150.216 150.665 151.578 152.059 152.961 145.867 146.063 146.64 146.895 
147.603 147.988 148.85 149.318 150.243 150.697 151.607 152.039 152.927 
153.369 154.223 146.021 146.222 146.836 147.057 147.77 148.061 148.9 
149.305 150.23 150.7 151.617 152.069 152.931 153.357 154.182 154.606 
155.39 146.31 146.45 147.141 147.326 148.099 148.32 149.152 149.44 
150.319 150.705 151.603 152.044 152.898 153.332 154.124 154.547 155.303 
155.722 156.438 146.777 147.906 147.419 147.645 149.139 148.62 148.859 
148.371 148.639 150.438 149.886 150.131 149.623 149.912 149.417 149.707 
151.872 151.28 151.564 150.967 151.284 150.737 151.064 150.528 150.853 
153.326 152.79 153.153 152.519 152.859 152.221 152.574 151.963 152.306 
151.731 152.096 154.645 154.209 154.596 154.076 154.408 153.825 154.159 
153.546 153.875 153.246 153.571 152.996 153.357 155.866 155.472 155.851 
155.41 155.75 155.268 155.617 155.091 155.428 154.825 155.112 154.487 
154.781 154.225 154.559 157.028 156.667 157.087 156.665 157.084 156.61 
157.056 156.545 156.972 156.381 156.706 156.04 156.3 155.666 155.956 
155.404 155.725 158.112 157.803 158.285 157.929 158.441 158.018 158.548 
158.059 158.553 157.977 158.353 157.673 157.935 157.228 157.479 156.841 
157.132 156.568 156.861 157.663 158.002 158.239 159.083 158.403 158.635 
159.56 159.77 160.69 158.884 159.101 160.064 160.291 161.278 161.467 
162.438 159.317 159.586 160.531 160.792 161.807 162.066 163.108 163.292 
164.342 159.549 159.938 160.859 161.184 162.172 162.534 163.646 163.961 
165.104 165.302 166.5 159.553 160.061 161.025 161.435 162.424 162.836 
163.978 164.426 165.656 166.019 167.282 167.566 168.922 159.382 159.965 
160.982 161.535 162.611 163.09 164.25 164.726 165.965 166.447 167.751 
168.223 169.632 170.046 171.477 159.124 159.71 160.699 161.388 162.541 
163.21 164.414 164.975 166.158 166.674 167.948 168.545 170.027 170.641 
172.185 172.605 173.956 158.88 159.411 160.322 161.025 162.153 162.979 
164.201 164.967 166.108 166.74 167.92 168.615 170.101 170.916 172.586 
173.239 174.705 175.001 176.108 157.719 159.129 158.341 158.202 160.74 
159.866 159.754 158.878 158.742 162.519 161.598 161.566 160.596 160.522 
159.544 159.468 164.46 163.491 163.559 162.555 162.575 161.512 161.472 
160.406 160.334 166.697 165.616 165.768 164.679 164.77 163.67 163.663 
162.529 162.417 161.288 161.112 169.267 168.108 168.382 167.121 167.259 
165.996 166.011 164.778 164.663 163.435 163.214 162.019 161.779 171.897 
170.813 171.202 169.931 170.128 168.715 168.75 167.308 167.21 165.798 
165.583 164.227 163.975 162.722 162.522 174.292 173.362 173.745 172.67 
172.884 171.613 171.666 170.215 170.116 168.554 168.307 166.75 166.439 
165.022 164.762 163.516 163.321 176.332 175.561 175.867 174.98 175.151 
174.129 174.178 172.986 172.895 171.476 171.182 169.576 169.134 167.556 
167.141 165.765 165.448 164.252 163.977 177.439 178.925 177.816 177.013 
180.491 179.34 178.48 177.263 176.286 181.886 180.856 179.911 178.687 
177.579 176.396 175.309 182.633 181.949 180.945 179.938 178.72 177.586 
176.376 175.282 174.06 182.467 182.229 181.217 180.617 179.381 178.491 
177.157 176.176 174.817 173.795 172.335 181.396 181.599 180.619 180.474 
179.291 178.796 177.428 176.678 175.187 174.307 172.723 171.773 170.179 
179.703 180.211 179.351 179.556 178.491 178.37 177.096 176.647 175.167 
174.456 172.83 171.976 170.346 169.498 168.039 177.837 178.456 177.793 
178.18 177.309 177.416 176.314 176.115 174.772 174.272 172.723 171.991 
170.378 169.586 168.124 167.424 166.21 176.045 176.683 176.165 176.656 
175.949 176.215 175.258 175.251 174.023 173.743 172.292 171.771 170.208 
169.547 168.063 167.431 166.178 165.656 164.621 177.892 178.706 178.681 
179.337 178.949 179.272 180.068 180.159 180.898 178.669 179.308 180.29 
180.727 181.709 181.789 182.413 177.946 178.902 180.09 180.839 182.05 
182.482 183.321 183.172 183.33 176.624 177.954 179.188 180.37 181.628 
182.558 183.506 183.836 184.052 183.695 183.237 174.704 176.297 177.375 
178.938 179.975 181.483 182.323 183.416 183.635 183.941 183.406 183.059 
182.086 172.473 174.128 175.055 176.709 177.49 179.192 179.822 181.446 
181.669 182.766 182.291 182.624 181.587 181.397 180.199 170.169 171.767 
172.599 174.231 174.904 176.507 177 178.612 178.852 180.286 180.022 
180.93 180.081 180.404 179.257 179.241 178.127 167.978 169.412 170.107 
171.694 172.309 173.885 174.315 175.824 176.037 177.452 177.347 178.483 
177.929 178.619 177.708 178.022 177.02 177.14 176.212 159.019 159.789 
159.73 160.503 160.784 160.666 161.532 161.427 162.375 161.89 161.782 
162.711 162.578 163.569 163.471 164.471 162.944 162.912 163.886 163.792 
164.778 164.687 165.691 165.573 166.445 163.879 163.938 164.998 164.977 
166.05 165.944 167.03 166.867 167.902 167.597 168.441 164.723 164.864 
166.069 166.143 167.439 167.367 168.711 168.479 169.84 169.424 170.66 
169.98 170.946 165.547 165.755 167.136 167.31 168.851 168.907 170.522 
170.399 172.024 171.697 173.22 172.599 173.812 172.84 173.662 166.369 
166.651 168.186 168.465 170.173 170.386 172.139 172.22 173.884 173.813 
175.296 175.03 176.206 175.61 176.36 175.386 175.774 167.119 167.499 
169.113 169.519 171.279 171.654 173.424 173.696 175.304 175.411 176.726 
176.681 177.67 177.46 178.101 177.598 177.881 177.031 177.068 158.311 
157.397 158.203 158.969 156.398 157.216 157.958 158.906 159.843 155.41 
156.188 156.863 157.816 158.748 159.827 160.876 154.403 155.195 155.825 
156.715 157.603 158.683 159.764 160.877 161.923 153.337 154.159 154.816 
155.69 156.539 157.562 158.63 159.752 160.838 161.896 162.857 152.416 
153.144 153.826 154.676 155.509 156.498 157.507 158.617 159.686 160.786 
161.753 162.767 163.647 151.746 152.349 152.998 153.747 154.545 155.457 
156.391 157.452 158.454 159.579 160.533 161.608 162.472 163.497 164.367 
151.146 151.717 152.3 152.977 153.708 154.527 155.381 156.332 157.249 
158.31 159.239 160.338 161.219 162.278 163.121 164.184 165.084 150.522 
151.081 151.611 152.258 152.917 153.689 154.466 155.339 156.169 157.128 
157.999 159.049 159.942 161.013 161.868 162.916 163.758 164.862 165.768 
150.34 150.46 150.726 151.438 150.682 150.912 151.678 151.938 152.769 
151.041 151.217 152.036 152.267 153.171 153.413 154.338 151.568 151.678 
152.541 152.723 153.671 153.887 154.867 155.075 156.034 152.18 152.275 
153.165 153.32 154.301 154.47 155.479 155.659 156.682 156.849 157.854 
152.758 152.886 153.788 153.97 154.979 155.155 156.188 156.343 157.414 
157.573 158.665 158.78 159.818 153.345 153.478 154.41 154.591 155.62 
155.826 156.888 157.074 158.17 158.355 159.496 159.647 160.74 160.795 
161.775 154.005 154.132 155.115 155.26 156.306 156.486 157.582 157.779 
158.918 159.124 160.298 160.485 161.624 161.727 162.759 162.75 163.685 
154.692 154.837 155.846 155.997 157.046 157.21 158.324 158.516 159.707 
159.912 161.14 161.321 162.518 162.634 163.754 163.776 164.817 164.735 
165.713 155.399 156.941 156.307 156.61 158.701 157.966 158.308 157.585 
157.871 160.803 159.921 160.333 159.454 159.812 158.952 159.24 163.267 
162.278 162.804 161.741 162.183 161.133 161.503 160.471 160.745 165.965 
164.957 165.632 164.468 164.985 163.762 164.181 162.972 163.273 162.079 
162.269 168.74 167.79 168.619 167.469 168.091 166.771 167.222 165.854 
166.169 164.797 164.953 163.619 163.688 171.333 170.555 171.483 170.496 
171.251 169.996 170.53 169.076 169.429 167.89 168.059 166.494 166.493 
165.022 164.971 173.479 172.954 173.903 173.208 174.053 173.081 173.712 
172.415 172.801 171.269 171.444 169.774 169.743 168.029 167.864 166.278 
166.102 175.14 174.841 175.793 175.38 176.293 175.66 176.386 175.408 
175.815 174.504 174.621 173.093 172.999 171.32 171.059 169.317 168.979 
167.35 167.043 154.927 154.701 155.343 156.449 154.472 155.133 156.282 
156.955 158.182 154.127 154.864 156.03 156.786 158.087 158.809 160.21 
153.63 154.436 155.628 156.484 157.842 158.688 160.172 160.971 162.554 
153.201 153.956 155.208 156.073 157.509 158.422 159.989 160.892 162.556 
163.418 165.139 153.01 153.666 154.963 155.749 157.245 158.14 159.78 
160.715 162.446 163.383 165.178 166.072 167.847 152.936 153.561 154.827 
155.572 157.033 157.919 159.553 160.519 162.251 163.243 165.046 166.045 
167.856 168.765 170.435 152.836 153.459 154.639 155.381 156.739 157.646 
159.212 160.233 161.915 162.967 164.703 165.789 167.563 168.631 170.305 
171.2 172.622 152.727 153.313 154.414 155.116 156.375 157.256 158.749 
159.798 161.442 162.537 164.207 165.32 167.015 168.172 169.832 170.899 
172.343 173.172 174.329 153.934 152.409 153.322 153.673 151.014 151.829 
152.149 153.08 153.447 149.769 150.489 150.74 151.585 151.896 152.827 
153.115 148.597 149.249 149.372 150.145 150.324 151.231 151.437 152.39 
152.594 147.468 148.05 148.013 148.686 148.675 149.543 149.647 150.635 
150.812 151.819 152.099 146.374 146.899 146.769 147.301 147.143 147.845 
147.851 148.786 148.97 150.008 150.316 151.399 151.845 145.336 145.806 
145.683 146.12 145.949 146.439 146.385 147.095 147.256 148.196 148.527 
149.608 150.074 151.227 151.766 144.447 144.828 144.736 145.121 145.009 
145.4 145.345 145.839 145.936 146.642 146.931 147.876 148.34 149.455 
150.018 151.176 151.722 143.77 144.047 143.963 144.271 144.189 144.541 
144.508 144.92 144.977 145.498 145.711 146.438 146.865 147.821 148.398 
149.479 150.075 151.161 151.688 143.455 143.071 143.357 143.588 142.709 
142.95 143.121 143.473 143.764 142.37 142.574 142.717 143.024 143.317 
143.706 144.097 142.178 142.286 142.488 142.716 143.059 143.354 143.784 
144.138 144.606 142.43 142.309 142.611 142.682 143.112 143.26 143.731 
143.959 144.489 144.781 145.366 143.206 142.871 143.211 143.072 143.531 
143.499 143.987 144.07 144.667 144.857 145.563 145.78 146.551 144.17 
143.802 144.119 143.863 144.281 144.089 144.548 144.479 145.112 145.218 
146.037 146.192 147.063 147.205 148.095 145.07 144.746 145.056 144.797 
145.203 144.944 145.398 145.195 145.829 145.816 146.678 146.794 147.719 
147.832 148.727 148.848 149.746 145.975 145.645 145.986 145.72 146.167 
145.909 146.417 146.166 146.808 146.675 147.509 147.525 148.437 148.515 
149.396 149.495 150.356 150.487 151.344 146.637 147.847 147.025 146.704 
149.262 148.361 148.023 147.188 146.917 150.776 149.839 149.53 148.615 
148.342 147.479 147.237 152.487 151.455 151.201 150.212 150 149.044 
148.857 147.912 147.735 154.482 153.348 153.152 152.037 151.873 150.824 
150.697 149.684 149.559 148.554 148.46 156.637 155.49 155.366 154.161 
154.003 152.83 152.685 151.6 151.482 150.454 150.353 149.365 149.325 
158.813 157.713 157.662 156.461 156.321 155.068 154.879 153.67 153.518 
152.415 152.32 151.286 151.227 150.253 150.247 160.914 159.896 159.896 
158.761 158.672 157.432 157.267 155.967 155.794 154.554 154.458 153.327 
153.284 152.218 152.195 151.196 151.207 162.838 161.94 161.977 160.95 
160.92 159.777 159.691 158.421 158.273 156.947 156.814 155.565 155.493 
154.344 154.291 153.208 153.169 152.166 152.171 153.02 154.067 153.914 
154.721 155.268 155.083 155.981 155.772 156.724 156.578 156.406 157.453 
157.212 158.316 158.037 159.181 158.005 157.84 159.045 158.83 160.099 
159.826 161.118 160.752 161.964 159.515 159.379 160.679 160.51 161.874 
161.679 163.085 162.798 164.11 163.643 164.79 160.912 160.884 162.221 
162.153 163.552 163.443 164.92 164.758 166.213 165.852 167.127 166.532 
167.644 162.085 162.164 163.512 163.599 165.053 165.075 166.623 166.577 
168.175 167.973 169.429 168.943 170.155 169.45 170.482 163.083 163.221 
164.542 164.755 166.256 166.468 168.082 168.216 169.865 169.87 171.405 
171.166 172.42 171.893 172.872 172.164 172.959 163.894 164.103 165.351 
165.653 167.111 167.502 169.114 169.483 171.096 171.346 172.82 172.875 
174.085 173.87 174.777 174.306 174.987 174.348 174.888 145.737 145.466 
145.321 144.819 145.324 145.124 144.563 144.402 143.887 145.046 144.915 
144.294 144.142 143.556 143.462 143.037 144.709 144.539 143.892 143.778 
143.199 143.129 142.727 142.729 142.552 144.773 144.369 143.801 143.494 
143.037 142.856 142.57 142.511 142.398 142.436 142.461 145.208 144.708 
144.241 143.737 143.374 142.981 142.785 142.555 142.493 142.395 142.404 
142.432 142.518 145.528 145.16 144.681 144.262 143.8 143.414 143.082 
142.845 142.699 142.577 142.536 142.461 142.492 142.521 142.654 145.654 
145.354 144.837 144.531 143.954 143.642 143.092 142.917 142.585 142.604 
142.496 142.55 142.553 142.568 142.666 142.723 142.92 145.882 145.496 
145.014 144.655 144.135 143.74 143.179 142.843 142.429 142.345 142.215 
142.347 142.395 142.546 142.656 142.76 142.934 143.037 143.273 145.839 
144.887 145.49 145.809 143.946 144.529 144.854 145.529 145.947 143.111 
143.595 143.92 144.596 145.101 145.776 146.282 142.649 142.901 143.176 
143.711 144.271 144.984 145.62 146.243 146.802 142.602 142.674 142.91 
143.16 143.654 144.23 144.935 145.612 146.237 146.804 147.314 142.702 
142.758 143.036 143.116 143.519 143.807 144.422 144.974 145.614 146.199 
146.692 147.24 147.696 142.844 142.895 143.23 143.316 143.714 143.837 
144.319 144.616 145.172 145.618 146.114 146.603 147.064 147.609 148.131 
143.098 143.09 143.425 143.513 143.941 144.055 144.503 144.644 145.111 
145.343 145.823 146.149 146.644 147.07 147.631 148.147 148.749 143.456 
143.399 143.705 143.739 144.16 144.273 144.747 144.863 145.319 145.428 
145.879 146.043 146.54 146.815 147.385 147.776 148.392 148.85 149.439 
146.498 146.505 146.847 147.612 146.622 146.901 147.671 148.041 148.854 
146.896 147.065 147.817 148.143 148.995 149.335 150.172 147.37 147.425 
148.144 148.366 149.231 149.532 150.391 150.691 151.548 147.881 147.939 
148.615 148.765 149.579 149.822 150.646 150.913 151.721 152.057 152.916 
148.293 148.403 149.04 149.194 149.913 150.149 150.918 151.172 151.937 
152.218 153.036 153.399 154.245 148.747 148.823 149.449 149.556 150.194 
150.398 151.135 151.419 152.217 152.481 153.293 153.568 154.409 154.723 
155.517 149.339 149.354 149.984 150.003 150.602 150.687 151.384 151.627 
152.468 152.773 153.616 153.873 154.669 154.93 155.703 155.976 156.686 
149.972 149.974 150.589 150.585 151.17 151.168 151.81 151.941 152.74 
153.023 153.864 154.153 154.907 155.166 155.879 156.155 156.855 157.113 
157.763 153.795 153.121 153.056 152.283 152.524 152.427 151.665 151.586 
150.898 151.999 151.898 151.168 151.033 150.308 150.252 149.649 151.432 
151.379 150.671 150.561 149.794 149.677 148.987 149.016 148.485 150.807 
150.768 150.06 150.016 149.26 149.148 148.391 148.348 147.762 147.871 
147.401 150.291 150.168 149.457 149.389 148.695 148.61 147.91 147.803 
147.184 147.186 146.707 146.813 146.354 149.967 149.752 149.049 148.877 
148.218 148.104 147.507 147.397 146.833 146.727 146.211 146.189 145.727 
145.786 145.335 149.774 149.512 148.817 148.57 147.902 147.722 147.146 
147.044 146.541 146.44 145.935 145.813 145.314 145.25 144.807 144.833 
144.452 149.673 149.373 148.681 148.388 147.709 147.469 146.871 146.727 
146.232 146.148 145.687 145.576 145.093 144.952 144.494 144.412 144.045 
144.059 143.778 
POINT_DATA 1002
SCALARS Distance double
LOOKUP_TABLE default
147.365 146.297 147.104 148.307 148.074 148.717 149.349 149.095 149.724 
150.165 150.418 150.149 150.78 151.234 151.716 151.577 151.311 151.923 
152.42 152.971 153.544 152.852 152.569 153.215 153.752 154.385 154.967 
155.607 154.146 153.835 154.552 155.132 155.824 156.421 157.017 157.739 
155.38 155.043 155.798 156.397 157.135 157.772 158.35 159.092 159.869 
156.528 156.146 156.942 157.522 158.299 159.023 159.611 160.331 161.185 
161.886 157.583 157.132 158.028 158.592 159.381 160.217 160.878 161.524 
162.336 163.125 163.681 145.972 146.806 145.854 146.622 145.66 147.756 
146.349 145.219 147.501 148.757 146.061 144.945 147.291 148.524 149.861 
146.055 145.178 147.186 148.451 149.743 151.128 146.254 145.529 147.177 
148.413 149.782 151.127 152.481 146.412 145.664 147.26 148.378 149.762 
151.186 152.511 153.792 146.595 145.808 147.505 148.549 149.777 151.153 
152.513 153.772 154.984 146.949 146.177 147.883 148.912 149.997 151.187 
152.47 153.714 154.889 156.039 147.207 148.105 148.41 149.348 149.662 
149.127 150.651 151.003 150.397 150.215 152.188 152.429 151.855 151.603 
151.376 153.758 153.797 153.517 153.208 152.914 152.632 155.077 155.065 
154.957 154.754 154.52 154.196 153.889 156.278 156.26 156.201 156.098 
156.004 155.764 155.382 155.075 157.468 157.36 157.519 157.538 157.538 
157.379 156.978 156.544 156.25 158.585 158.393 158.805 159.003 159.107 
159.018 158.665 158.164 157.732 157.415 158.444 158.861 159.947 159.317 
160.506 161.62 159.825 161.056 162.278 163.42 160.272 161.5 162.869 
164.182 165.428 160.527 161.784 163.238 164.838 166.3 167.78 160.555 
162.001 163.493 165.21 166.928 168.629 170.369 160.342 162.056 163.783 
165.481 167.214 169.128 171.152 172.916 159.986 161.775 163.8 165.668 
167.336 169.31 171.658 173.754 175.202 159.665 161.32 163.371 165.44 
167.225 169.213 171.796 174.312 176.052 177.074 158.998 160.657 159.61 
162.52 161.525 160.432 164.536 163.624 162.581 161.406 166.891 165.884 
164.809 163.603 162.245 169.664 168.599 167.303 165.928 164.462 162.937 
172.413 171.539 170.254 168.701 167.009 165.285 163.708 174.763 174.066 
173.054 171.697 169.959 167.961 166.078 164.506 176.726 176.119 175.274 
174.213 172.78 170.814 168.633 166.716 165.127 178.525 178.206 180.055 
179.77 181.658 177.475 181.147 182.858 178.825 176.448 181.844 183.199 
179.85 177.495 175.194 181.646 182.558 180.163 178.138 175.848 173.418 
180.595 181.037 179.618 178.096 176.059 173.664 171.094 179.003 179.071 
178.457 177.402 175.796 173.655 171.178 168.772 177.296 177.146 177.083 
176.392 175.155 173.375 171.147 168.815 166.789 175.611 175.383 175.592 
175.176 174.213 172.708 170.798 168.682 166.693 165.056 178.084 179.442 
178.6 179.781 178.474 180.988 179.676 177.865 181.42 182.726 179.173 
176.813 181.429 183.307 183.935 177.888 175.186 180.516 182.943 184.271 
183.954 175.829 173.108 178.423 180.995 183.035 183.601 182.665 173.456 
170.862 175.891 178.169 180.312 181.664 181.608 180.489 170.992 168.658 
173.356 175.475 177.366 178.888 179.521 179.117 178.166 168.593 166.687 
170.743 172.836 174.644 176.112 177.05 177.225 176.789 176.111 159.003 
160.526 159.84 161.635 160.879 162.438 162.835 161.958 163.666 164.609 
163.947 162.932 164.881 165.794 166.68 164.942 163.767 166.113 167.168 
168.141 168.9 165.89 164.518 167.385 168.833 170.147 171.251 171.847 
166.863 165.268 168.665 170.515 172.231 173.711 174.712 174.889 167.829 
166.018 169.877 171.988 173.925 175.509 176.678 177.235 176.964 157.54 
158.068 156.585 156.999 155.616 158.813 155.955 154.662 157.641 159.794 
154.971 153.58 156.553 158.619 160.884 153.93 152.505 155.549 157.518 
159.759 161.877 153.001 151.745 154.553 156.428 158.578 160.727 162.66 
152.307 151.189 153.692 155.396 157.353 159.436 161.442 163.318 151.66 
150.592 152.938 154.498 156.253 158.146 160.14 162.077 163.97 150.993 