# vtk DataFile Version 4.0
vtk output
ASCII
DATASET POLYDATA
POINTS 1002 float
-103.984 -80.0381 75.3044 -104.196 -79.5395 73.9947 -104.591 -79.3111 74.9438 
-104.472 -79.9539 76.267 -105.088 -79.1243 75.8879 -103.862 -80.7786 76.6424 
-105.097 -79.9442 77.1422 -105.677 -79.0404 76.8045 -104.41 -80.7308 77.523 
-103.906 -81.5803 77.933 -105.759 -79.9673 78.0686 -106.233 -79.0365 77.8254 
-105.102 -80.7666 78.4133 -104.53 -81.5274 78.8333 -104.271 -82.4738 79.2337 
-106.333 -79.9669 79.21 -106.781 -79.1447 78.928 -105.811 -80.845 79.5564 
-105.226 -81.6771 80.0083 -104.91 -82.6237 80.407 -104.823 -83.754 80.694 
-106.985 -80.1373 80.3122 -107.556 -79.4582 79.8658 -106.462 -80.987 80.8195 
-105.91 -81.9642 81.3687 -105.517 -82.9675 81.8406 -105.371 -84.0869 82.1325 
-105.333 -85.2458 82.3335 -107.884 -80.6275 81.1436 -108.45 -79.8663 80.6628 
-107.258 -81.4133 81.8041 -106.662 -82.3597 82.4868 -106.219 -83.3453 83.0386 
-106.014 -84.3881 83.4215 -105.961 -85.5728 83.6822 -105.987 -86.6878 83.8913 
-108.715 -81.1973 81.9809 -109.099 -80.2412 81.5561 -108.179 -82.0335 82.6238 
-107.609 -82.875 83.3434 -107.158 -83.7783 83.9049 -106.903 -84.7473 84.3122 
-106.82 -85.9535 84.6592 -106.846 -87.2448 84.9437 -106.892 -88.3105 85.1763 
-109.245 -81.6411 83.03 -109.526 -80.6586 82.5353 -108.875 -82.4974 83.6346 
-108.477 -83.2949 84.2932 -108.136 -84.2342 84.8037 -107.881 -85.3049 85.1512 
-107.737 -86.56 85.4967 -107.733 -87.9736 85.8298 -107.783 -89.1929 86.092 
-107.759 -90.0899 86.329 -109.677 -82.0044 84.1 -109.992 -81.17 83.4253 
-109.333 -82.7684 84.7583 -109.026 -83.5521 85.367 -108.804 -84.6112 85.8264 
-108.627 -85.9184 86.115 -108.486 -87.2876 86.4032 -108.458 -88.7107 86.7461 
-108.524 -90.0233 87.0318 -108.54 -90.9976 87.2591 -108.448 -91.7301 87.49 
-104.729 -79.0096 73.2953 -105.04 -78.5849 74.269 -105.288 -78.3397 72.6464 
-105.488 -77.7727 73.6334 -105.83 -77.5199 72.1067 -105.48 -78.2293 75.2726 
-106.088 -77.0435 73.1182 -106.465 -76.7604 71.5728 -105.967 -77.4141 74.6765 
-106.094 -78.0803 76.3251 -106.976 -76.4788 72.6492 -107.351 -76.2423 70.9833 
-106.771 -76.861 74.1948 -106.752 -77.3017 75.8403 -106.736 -78.1345 77.4851 
-108.089 -75.9406 72.1578 -108.463 -75.9095 70.5427 -107.8 -76.3368 73.7662 
-107.646 -76.7135 75.4184 -107.506 -77.3366 77.0927 -107.424 -78.3935 78.5991 
-109.19 -75.363 71.7489 -109.514 -75.5387 70.3643 -108.851 -75.674 73.2869 
-108.528 -76.091 74.9991 -108.28 -76.5698 76.7056 -108.173 -77.5588 78.2402 
-108.257 -78.7442 79.5468 -110.011 -74.7435 71.4741 -110.282 -75.0175 70.2523 
-109.759 -75.0141 72.8433 -109.433 -75.5153 74.5318 -109.057 -75.9082 76.295 
-108.843 -76.6981 77.8858 -108.859 -77.8595 79.2899 -108.986 -79.009 80.4833 
-110.616 -74.124 71.248 -110.906 -74.5082 70.0705 -110.425 -74.3481 72.5437 
-110.286 -74.9774 74.1612 -110.037 -75.4307 75.8913 -109.733 -76.0331 77.4911 
-109.53 -77.0701 78.9911 -109.453 -78.1547 80.3251 -109.473 -79.3252 81.4457 
-111.302 -73.6702 71.033 -111.595 -74.2012 69.8849 -111.063 -73.7051 72.3424 
-110.962 -74.3202 73.9469 -110.91 -74.929 75.6043 -110.769 -75.52 77.1021 
-110.501 -76.4854 78.584 -110.18 -77.5687 80.0213 -109.971 -78.6292 81.2169 
-109.946 -79.8874 82.2867 -112.263 -73.6663 70.4775 -112.009 -73.2627 71.7997 
-113.072 -73.3662 71.2566 -112.878 -73.2557 72.911 -113.784 -73.5585 72.3348 
-111.763 -73.5724 73.4784 -113.649 -73.8393 74.1715 -114.242 -74.3504 73.549 
-112.564 -73.8195 74.7704 -111.613 -74.2862 75.2451 -114.174 -74.9174 75.2577 
-114.496 -75.4863 74.6162 -113.293 -74.6829 75.8192 -112.266 -74.7065 76.3259 
-111.558 -75.0339 76.7418 -114.464 -76.112 76.2578 -114.677 -76.7442 75.633 
-113.893 -75.8628 76.7444 -112.923 -75.7625 77.2175 -112.139 -75.7712 77.7438 
-111.449 -76.0577 78.2108 -114.681 -77.4226 77.4501 -114.984 -78.1385 76.8509 
-114.319 -76.989 77.9399 -113.626 -76.8662 78.3748 -112.775 -76.841 78.9031 
-112.015 -76.9865 79.4077 -111.126 -77.2739 79.7764 -115.017 -78.911 78.7075 
-115.407 -79.4893 78.1396 -114.623 -78.3316 79.2449 -114.198 -77.9782 79.7218 
-113.512 -77.8508 80.2125 -112.65 -77.9625 80.6254 -111.721 -78.2321 80.8839 
-110.752 -78.4335 81.0848 -115.317 -80.2936 79.8191 -115.623 -80.6422 79.2978 
-114.854 -79.8635 80.3467 -114.49 -79.4673 80.8648 -114.058 -79.1828 81.381 
-113.323 -79.1407 81.7595 -112.413 -79.3781 81.9059 -111.469 -79.6165 82.0136 
-110.594 -79.7218 82.1917 -115.358 -81.541 80.8707 -115.512 -81.7823 80.3756 
-114.944 -81.2779 81.3597 -114.56 -81.0395 81.861 -114.259 -80.8102 82.4043 
-113.754 -80.6517 82.8671 -113.005 -80.717 83.0667 -112.205 -80.9149 83.1129 
-111.391 -81.0174 83.2417 -110.609 -81.0505 83.4077 -110.384 -82.179 84.7585 
-111.154 -82.1787 84.7449 -110.825 -83.1725 86.1013 -111.934 -82.2158 84.6181 
-111.634 -83.3065 86.1048 -111.339 -84.7269 87.0964 -112.628 -82.195 84.5292 
-112.318 -83.4719 86.0291 -112.1 -85.0647 87.113 -111.968 -87.1366 87.8881 
-113.331 -82.1721 84.4014 -112.946 -83.6273 85.9087 -112.74 -85.3669 87.078 
-112.66 -87.5521 88.0543 -112.511 -89.5924 89.038 -113.959 -82.2792 84.0297 
-113.633 -83.8099 85.6466 -113.404 -85.6183 86.9255 -113.304 -87.8141 88.1147 
-113.149 -89.937 89.409 -112.874 -91.8905 90.4233 -114.326 -82.4509 83.474 
-114.173 -84.0344 85.2089 -114.045 -85.8747 86.6489 -113.909 -88.0386 87.9463 
-113.769 -90.2306 89.4349 -113.556 -92.4156 90.7015 -113.426 -94.9445 91.3851 
-114.638 -82.6026 82.9247 -114.515 -84.2223 84.683 -114.503 -86.0966 86.2685 
-114.354 -88.265 87.6514 -114.171 -90.6099 89.1484 -114.094 -93.0413 90.5166 
-114.105 -95.7317 91.3464 -114.283 -98.5643 91.7919 -115.042 -82.7997 82.4065 
-114.881 -84.3944 84.1188 -114.893 -86.2082 85.7342 -114.723 -88.3093 87.2034 
-114.386 -90.8467 88.7631 -114.295 -93.6537 90.191 -114.479 -96.5115 91.0632 
-114.768 -99.2873 91.5199 -115.104 -101.706 91.8897 -115.292 -83.0407 81.8695 
-115.192 -84.6059 83.5212 -115.255 -86.2856 85.0849 -115.123 -88.1614 86.5381 
-114.673 -90.6855 88.1789 -114.421 -93.8394 89.8227 -114.639 -97.0005 90.8492 
-115.041 -99.7982 91.2555 -115.414 -102.195 91.5173 -115.71 -104.126 91.8093 
-109.955 -82.8904 85.5869 -110.372 -84.1284 86.8402 -109.557 -83.7244 86.2603 
-111.035 -86.355 87.7007 -110.02 -85.5383 87.4152 -109.299 -84.9433 86.7684 
-111.788 -89.0189 88.6413 -110.815 -88.1854 88.3517 -109.827 -87.2823 87.9036 
-109.156 -86.5305 87.0999 -112.292 -91.4587 89.9242 -111.646 -90.7832 89.4417 
-110.742 -89.9073 88.9691 -109.795 -88.9781 88.2651 -109.086 -88.1146 87.3619 
-112.809 -94.602 91.1041 -112.302 -93.9632 90.6126 -111.754 -92.9739 90.0759 
-110.93 -91.7419 89.3807 -109.964 -90.5573 88.5607 -109.135 -89.5962 87.6927 
-113.77 -98.5278 91.8708 -113.176 -98.1997 91.6709 -112.633 -97.3436 91.2488 
-112.077 -95.8216 90.5564 -111.271 -93.8691 89.6881 -110.225 -92.1701 88.8803 
-109.268 -91.0036 88.0218 -114.841 -101.88 92.2245 -114.314 -101.85 92.4086 
-113.566 -101.449 92.3417 -112.873 -100.408 91.8618 -112.297 -98.4239 90.9453 
-111.474 -95.8313 89.9947 -110.35 -93.6118 89.1898 -109.324 -92.1329 88.2823 
-115.569 -104.324 92.1866 -115.199 -104.247 92.5347 -114.471 -103.906 92.7845 
-113.574 -103.324 92.7438 -112.899 -102.227 92.1366 -112.351 -100.092 91.1421 
-111.457 -97.2157 90.2504 -110.277 -94.6817 89.4614 -109.239 -92.9629 88.5219 
-116.117 -106.573 91.7595 -115.809 -106.561 92.0218 -116.379 -109.291 91.3398 
-115.799 -109.073 91.3391 -116.553 -112.034 90.5588 -115.234 -106.068 92.284 
-115.791 -111.7 90.4113 -116.609 -114.126 89.6665 -115.095 -108.183 91.459 
-114.386 -105.258 92.5659 -115.808 -113.55 89.6479 -116.295 -115.305 88.8401 
-115.144 -110.48 90.5353 -114.38 -106.831 91.7581 -113.551 -104.433 92.5458 
-115.561 -114.088 89.0475 -115.594 -115.483 88.1154 -115.179 -111.838 89.9145 
-114.521 -108.565 90.8671 -113.72 -105.616 91.7871 -112.97 -103.264 91.9118 
-115.07 -113.484 88.5009 -114.887 -114.47 87.6059 -114.887 -111.785 89.4591 
-114.326 -109.445 90.2583 -113.722 -106.8 90.9544 -113.053 -104.127 91.3363 
-112.278 -100.889 91.039 -114.493 -112.254 88.1453 -114.316 -112.751 87.4811 
-114.399 -110.979 89.0179 -113.815 -109.247 89.8217 -113.25 -107.206 90.3905 
-112.81 -104.653 90.7711 -112.075 -101.341 90.8024 -111.127 -97.7072 90.301 
-113.742 -110.808 88.0875 -113.694 -110.91 87.6909 -113.719 -109.952 88.6966 
-113.28 -108.542 89.4188 -112.692 -106.747 90.0106 -112.311 -104.409 90.3677 
-111.736 -101.36 90.4969 -110.766 -97.9697 90.218 -109.853 -95.0422 89.4703 
-112.856 -109.03 88.1601 -112.982 -108.862 87.9218 -112.823 -108.528 88.5426 
-112.649 -107.429 89.0902 -112.248 -105.782 89.6582 -111.853 -103.537 90.0086 
-111.37 -100.829 90.0906 -110.497 -97.98 89.8894 -109.509 -95.3694 89.297 
-108.834 -93.2935 88.4055 -116.13 -105.208 91.4591 -116.635 -108.077 91.304 
-116.659 -105.944 91.0387 -117.145 -109.165 90.7521 -117.053 -106.093 90.5363 
-117.077 -111.229 90.803 -117.226 -109.461 90.1084 -116.97 -105.87 90.1107 
-117.572 -112.559 90.0894 -117.4 -113.903 89.9073 -116.874 -109.021 89.6091 
-116.494 -105.556 89.9215 -117.485 -112.793 89.2539 -117.862 -115.137 88.9815 
-117.294 -115.664 88.8415 -116.482 -108.041 89.4209 -115.914 -104.615 89.7556 
-117.138 -111.647 88.7033 -117.757 -114.952 88.1191 -117.567 -116.637 87.9041 
-116.512 -116.592 87.9223 -115.99 -106.214 89.3621 -115.317 -102.31 89.2509 
-116.714 -109.592 88.6725 -117.337 -112.857 87.8298 -117.456 -115.686 87.382 
-116.622 -116.812 87.2364 -115.484 -116.108 87.2737 -115.29 -103.143 89.0214 
-114.777 -99.0903 88.2568 -115.962 -106.898 88.898 -116.547 -110.003 88.1594 
-116.93 -112.892 87.4795 -116.675 -114.952 87.0695 -115.683 -115.22 86.8519 
-114.763 -114.177 86.9901 -114.653 -99.4555 88.0533 -114.366 -96.1679 86.8791 
-115.109 -103.261 88.6995 -115.541 -106.728 88.5856 -115.962 -109.629 88.0085 
-116.254 -111.923 87.399 -115.909 -112.952 86.947 -115.028 -112.674 86.8513 
-114.246 -111.867 87.185 -114.187 -96.3344 86.5944 -114.017 -94.1584 85.4264 
-114.468 -99.3097 87.6796 -114.745 -102.647 88.3229 -114.999 -105.731 88.3568 
[...]
CELL_DATA 2000
SCALARS Distance double
LOOKUP_TABLE default
149.989 150.692 150.502 150.875 151.494 151.286 151.685 151.466 151.904 
152.38 152.161 152.6 152.333 152.768 152.558 153.126 153.336 153.097 
153.607 153.329 153.836 153.542 154.165 153.958 154.737 154.427 154.121 
154.688 154.413 155.034 154.734 155.433 155.158 155.982 155.768 156.661 
155.663 155.313 155.912 155.594 156.28 155.995 156.736 156.473 157.279 
157.063 157.944 157.756 158.663 156.872 156.588 157.234 156.908 157.614 
157.303 158.057 157.774 158.565 158.332 159.21 159.037 159.996 159.81 
160.767 157.953 157.763 158.456 158.211 158.918 158.647 159.398 159.119 
159.92 159.649 160.546 160.34 161.362 161.191 162.235 161.997 162.953 
158.984 158.825 159.527 159.348 160.034 159.85 160.583 160.403 161.213 
161.01 161.905 161.713 162.725 162.581 163.644 163.469 164.442 164.165 
165.016 149.65 149.34 149.723 150.254 149.006 149.357 149.813 150.326 
150.973 148.77 149.047 149.479 149.894 150.533 151.099 151.839 148.771 
148.95 149.464 149.716 150.363 150.765 151.535 152.044 152.823 149.037 
149.112 149.682 149.854 150.504 150.761 151.494 151.867 152.671 153.12 
153.939 149.445 149.452 149.942 150.096 150.686 150.922 151.559 151.874 
152.611 153.036 153.863 154.317 155.155 149.745 149.772 150.136 150.299 
150.83 151.064 151.644 151.904 152.559 152.952 153.738 154.224 155.038 
155.515 156.306 149.877 149.917 150.203 150.394 150.928 151.201 151.832 
152.041 152.687 152.945 153.701 154.101 154.9 155.35 156.106 156.585 
157.341 150.068 150.028 150.292 150.427 150.973 151.283 151.99 152.266 
152.953 153.165 153.897 154.174 154.96 155.285 156.026 156.397 157.138 
157.602 158.374 150.327 150.997 150.576 150.58 152.033 151.464 151.527 
151.064 151.322 153.323 152.711 152.842 152.226 152.459 152.017 152.375 
154.643 154.101 154.286 153.639 153.79 153.226 153.5 153.091 153.394 
155.891 155.413 155.67 155.085 155.237 154.589 154.802 154.278 154.613 
154.138 154.429 157.257 156.706 157.033 156.475 156.741 156.088 156.334 
155.696 156.042 155.483 155.828 155.248 155.502 158.817 158.191 158.527 
157.92 158.269 157.648 157.972 157.311 157.634 157.003 157.314 156.698 
156.923 156.306 156.505 160.263 159.735 160.028 159.445 159.768 159.199 
159.56 158.955 159.28 158.62 158.898 158.224 158.456 157.771 157.979 
157.33 157.592 161.425 161.04 161.325 160.84 161.125 160.635 160.996 
160.49 160.851 160.246 160.539 159.851 160.115 159.394 159.659 158.928 
159.209 158.522 158.84 159.756 160.193 160.421 161.3 160.65 160.903 
161.843 162.011 162.898 161.084 161.355 162.316 162.551 163.508 163.687 
164.733 161.495 161.777 162.742 163.01 164.017 164.28 165.412 165.686 
166.903 161.79 162.142 163.12 163.438 164.475 164.786 165.969 166.333 
167.627 167.924 169.152 161.893 162.327 163.326 163.767 164.846 165.237 
166.424 166.846 168.167 168.585 169.906 170.176 171.48 161.961 162.369 
163.371 163.893 165.03 165.542 166.731 167.222 168.507 169.031 170.404 
170.86 172.255 172.605 174.075 162.108 162.461 163.434 163.937 165.086 
165.657 166.838 167.401 168.632 169.249 170.63 171.262 172.725 173.262 
174.727 175.19 176.612 162.173 162.571 163.491 164.002 165.097 165.677 
166.792 167.382 168.532 169.22 170.585 171.38 172.908 173.623 175.099 
175.667 177.01 177.491 178.66 159.825 161.296 160.486 160.348 162.883 
161.991 161.828 160.994 160.859 164.82 163.758 163.659 162.62 162.508 
161.58 161.488 167.069 165.938 165.947 164.729 164.658 163.476 163.401 
162.34 162.246 169.324 168.261 168.353 167.169 167.154 165.861 165.761 
164.484 164.372 163.194 163.057 171.782 170.649 170.931 169.696 169.879 
168.519 168.523 167.059 166.933 165.524 165.389 164.1 163.96 174.609 
173.44 174.036 172.658 173.15 171.603 171.885 170.164 170.154 168.387 
168.224 166.634 166.468 165.083 164.911 177.236 176.349 177.08 175.936 
176.523 175.115 175.499 173.815 173.892 171.952 171.726 169.765 169.431 
167.725 167.417 165.989 165.696 179.214 178.67 179.286 178.584 178.988 
178.074 178.256 177.09 177.062 175.548 175.253 173.371 172.844 170.867 
170.303 168.562 168.085 166.648 166.246 180.343 181.868 180.871 180.357 
183.221 182.222 181.505 180.64 179.972 184.341 183.426 182.499 181.579 
180.739 180.001 179.2 184.934 184.346 183.441 182.51 181.468 180.62 
179.747 179.066 178.095 184.718 184.609 183.84 183.261 182.186 181.324 
180.274 179.544 178.58 177.813 176.484 183.743 184.034 183.343 183.258 
182.255 181.762 180.623 179.994 178.894 178.21 176.864 175.908 174.149 
182.383 182.853 182.263 182.461 181.554 181.433 180.326 180.008 178.828 
178.342 176.907 176.115 174.3 173.292 171.425 180.956 181.47 180.97 
181.293 180.496 180.558 179.517 179.405 178.223 177.963 176.521 175.951 
174.141 173.283 171.391 170.54 168.944 179.422 180.003 179.476 179.931 
179.185 179.427 178.445 178.471 177.28 177.143 175.723 175.36 173.659 
173.008 171.194 170.433 168.831 168.192 166.932 180.51 181.261 181.389 
182.221 181.706 182.133 183.224 183.184 183.832 181.574 182.363 183.68 
184.115 184.983 184.739 185.043 181.004 181.958 183.301 184.235 185.334 
185.646 186.023 185.663 185.549 180.168 181.213 182.357 183.493 184.639 
185.546 186.139 186.302 186.154 185.761 185.255 178.704 180.097 181.068 
182.285 183.176 184.394 185.078 185.916 185.925 186.001 185.359 185.006 
184.178 176.35 178.163 179.134 180.647 181.32 182.633 183.155 184.381 
184.552 185.259 184.709 184.733 183.76 183.557 182.652 173.586 175.462 
176.404 178.261 178.942 180.488 180.886 182.239 182.444 183.53 183.243 
183.715 182.866 182.886 181.947 181.914 181.133 171.098 172.662 173.407 
175.27 175.944 177.757 178.158 179.74 179.906 181.255 181.13 182.032 
181.439 181.801 180.945 181.071 180.273 180.366 179.61 162.342 163.026 
163.054 163.806 163.804 163.877 164.825 164.726 165.506 164.641 164.737 
165.763 165.778 166.65 166.476 167.182 165.554 165.623 166.703 166.747 
167.748 167.635 168.489 168.208 168.968 166.616 166.642 167.897 167.888 
169.211 169.025 170.26 169.834 170.923 170.335 171.265 167.744 167.815 
169.282 169.339 171.035 170.915 172.585 172.114 173.531 172.764 173.887 
172.974 173.823 168.759 168.956 170.545 170.801 172.69 172.867 174.722 
174.56 176.032 175.474 176.534 175.714 176.477 175.498 176.06 169.594 
169.92 171.588 172.016 173.977 174.395 176.256 176.405 177.777 177.566 
178.482 178.007 178.664 177.954 178.44 177.524 177.905 170.272 170.711 
172.456 173.009 175.023 175.564 177.431 177.704 179.05 178.972 179.885 
179.604 180.341 179.875 180.452 179.726 180.109 179.204 179.476 161.643 
160.643 161.451 162.122 159.638 160.404 161.017 161.926 162.757 158.777 
159.484 160.109 160.875 161.654 162.626 163.577 157.944 158.677 159.33 
160.056 160.776 161.607 162.496 163.494 164.489 157.05 157.782 158.387 
159.203 159.873 160.721 161.496 162.44 163.379 164.43 165.469 156.283 
156.863 157.341 158.133 158.772 159.697 160.439 161.39 162.241 163.287 
164.3 165.431 166.508 155.712 156.141 156.476 157.097 157.676 158.56 
159.353 160.306 161.137 162.122 163.07 164.203 165.275 166.448 167.488 
155.154 155.558 155.804 156.293 156.77 157.532 158.315 159.251 160.095 
161.028 161.886 162.944 163.96 165.156 166.193 167.35 168.296 154.541 
154.963 155.218 155.654 156.066 156.694 157.387 158.247 159.063 159.976 
160.766 161.744 162.648 163.805 164.817 166.008 166.93 168.06 168.921 
154.311 154.427 154.567 155.051 154.769 154.807 155.289 155.394 155.973 
155.035 155.133 155.622 155.741 156.385 156.512 157.299 155.18 155.321 
155.883 156.086 156.835 157.015 157.863 158.02 158.925 155.498 155.565 
156.259 156.435 157.353 157.548 158.507 158.641 159.573 159.7 160.628 
156.005 156.069 156.885 157.007 158.034 158.203 159.276 159.384 160.395 
160.45 161.465 161.517 162.558 156.501 156.659 157.567 157.728 158.755 
158.94 160.018 160.186 161.251 161.353 162.436 162.494 163.62 163.633 
164.734 157.002 157.203 158.187 158.392 159.404 159.606 160.645 160.873 
161.968 162.18 163.313 163.468 164.609 164.704 165.801 165.819 166.823 
157.607 157.786 158.8 159 160.003 160.202 161.234 161.475 162.621 
162.887 164.096 164.311 165.488 165.631 166.745 166.821 167.863 167.848 
168.815 158.327 159.846 159.229 159.522 161.433 160.778 161.074 160.436 
160.716 163.359 162.533 162.928 162.123 162.485 161.716 162.035 165.768 
164.788 165.335 164.3 164.79 163.78 164.211 163.236 163.581 168.44 
167.448 168.14 167.006 167.562 166.381 166.852 165.693 166.055 164.918 
165.167 171.31 170.314 171.216 170.033 170.726 169.389 169.889 168.534 
168.891 167.571 167.768 166.501 166.607 174.255 173.343 174.453 173.32 
174.255 172.841 173.505 171.889 172.321 170.677 170.904 169.315 169.359 
167.918 167.913 176.78 176.162 177.273 176.475 177.502 176.413 177.218 
175.721 176.215 174.43 174.68 172.797 172.82 170.972 170.841 169.223 
169.098 178.573 178.275 179.218 178.834 179.762 179.229 180.049 179.127 
179.614 178.2 178.365 176.631 176.588 174.661 174.417 172.446 172.108 
170.379 170.111 157.861 157.693 158.32 159.404 157.541 158.184 159.314 
159.906 161.003 157.34 158.026 159.178 159.823 160.974 161.563 162.818 
156.988 157.752 158.887 159.626 160.795 161.499 162.813 163.544 165.064 
156.472 157.295 158.397 159.224 160.391 161.222 162.577 163.464 165.051 
165.919 167.614 155.948 156.744 157.863 158.693 159.887 160.757 162.166 
163.154 164.826 165.834 167.621 168.532 170.353 155.584 156.291 157.455 
158.231 159.481 160.308 161.756 162.744 164.479 165.572 167.437 168.477 
170.364 171.329 173.197 155.386 156.009 157.163 157.901 159.163 159.966 
161.396 162.359 164.075 165.207 167.085 168.223 170.102 171.204 173.052 
174.082 175.757 155.285 155.841 156.932 157.631 158.852 159.646 161.009 
161.955 163.584 164.74 166.584 167.797 169.637 170.804 172.575 173.723 
175.363 176.369 177.689 156.882 155.627 156.332 156.683 154.9 155.271 
155.429 156.138 156.504 154.266 154.619 154.575 155.015 155.141 155.923 
156.273 153.146 153.724 153.592 154.09 154.004 154.617 154.755 155.631 
155.933 151.792 152.397 152.24 152.857 152.737 153.387 153.392 154.147 
154.298 155.208 155.44 150.574 151.109 150.977 151.504 151.404 152.02 
152.017 152.739 152.805 153.609 153.743 154.664 154.899 149.443 149.965 
149.914 150.393 150.297 150.781 150.72 151.34 151.368 152.111 152.209 
153.036 153.244 154.186 154.527 148.571 148.941 148.929 149.382 149.309 
149.746 149.626 150.115 150.084 150.717 150.833 151.582 151.824 152.658 
153.017 153.943 154.376 148.147 148.279 148.221 148.501 148.426 148.783 
148.677 149.083 149.046 149.558 149.686 150.328 150.61 151.357 151.74 
152.565 153.007 153.891 154.346 148.005 147.73 147.883 147.966 147.487 
147.601 147.636 147.847 148.028 147.302 147.388 147.377 147.511 147.61 
147.915 148.207 147.014 147.15 147.108 147.25 147.319 147.545 147.825 
148.182 148.614 146.789 146.838 146.835 146.968 147.082 147.29 147.604 
147.912 148.404 148.749 149.309 147.06 146.845 146.94 146.88 147.106 
147.174 147.542 147.763 148.299 148.632 149.267 149.599 150.258 147.753 
147.393 147.542 147.304 147.63 147.492 147.911 147.894 148.428 148.612 
149.3 149.623 150.38 150.684 151.419 148.502 148.16 148.308 148.05 
148.397 148.215 148.671 148.505 149.029 148.97 149.659 149.805 150.646 
150.899 151.739 151.956 152.718 149.233 148.912 149.086 148.824 149.164 
148.996 149.466 149.324 149.866 149.737 150.413 150.393 151.238 151.344 
152.236 152.378 153.195 153.318 154.061 149.724 150.606 149.966 149.65 
151.689 150.981 150.695 150.003 149.78 152.963 152.18 151.961 151.183 
150.963 150.251 150.106 154.568 153.627 153.455 152.572 152.39 151.558 
151.416 150.677 150.58 156.492 155.43 155.281 154.248 154.118 153.143 
153.062 152.167 152.142 151.295 151.257 158.526 157.45 157.341 156.235 
156.13 155.046 154.998 153.988 154.015 153.062 153.094 152.136 152.137 
160.64 159.546 159.494 158.365 158.283 157.155 157.085 156.012 156.001 
155.013 155.034 154.067 154.055 153.083 153.076 162.822 161.739 161.749 
160.598 160.569 159.383 159.328 158.159 158.117 157.031 157.019 156.01 
155.978 154.989 154.927 153.986 153.963 164.906 163.923 164.005 162.913 
162.96 161.767 161.762 160.51 160.477 159.253 159.231 158.082 158.05 
156.954 156.88 155.841 155.765 154.828 154.803 155.576 156.61 156.447 
157.247 157.817 157.623 158.508 158.296 159.202 159.114 158.957 159.965 
159.711 160.711 160.415 161.428 160.418 160.335 161.503 161.291 162.442 
162.116 163.304 162.912 164.121 161.754 161.717 163.031 162.901 164.24 
163.993 165.408 165.045 166.481 165.949 167.255 163.098 163.122 164.554 
164.5 165.997 165.866 167.497 167.287 168.944 168.501 169.933 169.219 
170.388 164.296 164.438 165.95 166.042 167.65 167.659 169.403 169.372 
171.172 170.954 172.498 171.92 173.113 172.293 173.315 165.273 165.518 
167.041 167.332 169.023 169.249 171.035 171.181 172.976 172.998 174.581 
174.299 175.52 174.911 175.901 175.123 176.024 166.089 166.375 167.856 
168.278 170.013 170.468 172.297 172.639 174.363 174.555 176.052 176.057 
177.259 177.004 177.947 177.453 178.237 177.586 178.246 149.926 149.709 
149.718 149.422 149.5 149.505 149.147 149.055 148.56 149.074 149.156 
148.764 148.749 148.279 148.18 147.857 148.558 148.602 148.197 148.276 
147.939 147.955 147.774 147.774 147.827 148.32 148.183 147.797 147.767 
147.564 147.656 147.659 147.76 147.859 147.926 148.056 148.443 148.171 
147.841 147.603 147.408 147.398 147.456 147.624 147.728 147.861 147.876 
148.003 148.051 148.724 148.437 148.136 147.812 147.511 147.344 147.27 
147.392 147.461 147.628 147.592 147.707 147.681 147.898 148.013 148.984 
148.719 148.382 148.087 147.674 147.422 147.145 147.16 147.153 147.332 
147.359 147.452 147.436 147.551 147.652 147.898 148.055 149.207 148.924 
148.54 148.263 147.818 147.525 147.127 147 146.877 147.016 147.103 
147.267 147.33 147.405 147.477 147.609 147.748 147.949 148.052 150.1 
149.489 149.958 150.234 148.559 149.121 149.359 150.003 150.36 147.89 
148.213 148.459 149.043 149.468 150.141 150.624 147.902 147.882 148.125 
148.379 148.864 149.368 149.973 150.555 151.139 148.157 148.102 148.275 
148.318 148.719 149.011 149.632 150.089 150.749 151.217 151.779 148.254 
148.307 148.457 148.48 148.73 148.926 149.417 149.831 150.464 150.925 
151.508 151.895 152.381 148.3 148.388 148.606 148.622 148.831 148.915 
149.293 149.598 150.154 150.606 151.157 151.598 152.06 152.456 152.898 
148.3 148.43 148.662 148.749 148.99 149.055 149.424 149.576 150.095 
150.367 150.889 151.228 151.657 152.047 152.444 152.899 153.326 148.212 
148.354 148.537 148.714 148.988 149.177 149.608 149.791 150.339 150.491 
151.014 151.141 151.565 151.742 152.125 152.437 152.854 153.289 153.708 
150.39 150.684 150.699 151.057 150.939 151.032 151.455 151.465 151.974 
151.248 151.344 151.859 151.876 152.368 152.455 153.126 151.718 151.758 
152.377 152.381 152.941 152.91 153.519 153.648 154.388 152.232 152.248 
152.869 152.957 153.619 153.598 154.193 154.145 154.786 154.9 155.632 
152.752 152.718 153.216 153.351 153.996 154.176 154.791 154.829 155.383 
155.388 156.055 156.186 156.996 153.337 153.266 153.713 153.698 154.245 
154.409 155.03 155.232 155.808 155.921 156.543 156.672 157.476 157.669 
158.556 153.857 153.868 154.376 154.293 154.787 154.755 155.336 155.447 
156.096 156.255 156.924 157.099 157.859 158.107 158.954 159.21 159.998 
154.206 154.316 154.842 154.89 155.355 155.336 155.835 155.867 156.502 
156.619 157.329 157.474 158.189 158.399 159.141 159.448 160.184 160.478 
161.129 156.733 156.182 156.092 155.536 155.784 155.665 155.197 155.158 
154.879 155.406 155.343 154.903 154.876 154.569 154.612 154.279 155.015 
154.988 154.544 154.522 154.074 154.148 153.7 153.789 153.198 154.791 
154.694 154.277 154.154 153.612 153.554 153.01 153.081 152.526 152.554 
151.897 154.658 154.556 154.155 153.973 153.44 153.201 152.64 152.506 
151.993 151.941 151.357 151.286 150.647 154.327 154.314 153.856 153.799 
153.287 153.11 152.571 152.34 151.814 151.601 150.998 150.806 150.124 
150.036 149.442 153.928 153.865 153.339 153.343 152.834 152.834 152.341 
152.255 151.73 151.521 150.894 150.585 149.895 149.627 149.054 148.958 
148.589 153.803 153.559 153.03 152.872 152.384 152.342 151.906 151.905 
151.437 151.348 150.774 150.53 149.912 149.587 149.094 148.831 148.547 
148.402 148.25 
POINT_DATA 1002
SCALARS Distance double
LOOKUP_TABLE default
150.293 149.528 150.15 151.065 150.866 151.272 151.93 151.69 152.065 
152.38 152.865 152.588 153.008 153.233 153.766 153.841 153.583 154.117 
154.387 154.878 155.57 154.942 154.758 155.285 155.704 156.211 156.859 
157.558 156.239 155.992 156.558 157 157.507 158.121 158.854 159.58 
157.534 157.091 157.931 158.356 158.818 159.371 160.139 160.997 161.726 
158.668 158.103 159.17 159.657 160.185 160.759 161.51 162.44 163.269 
163.866 159.707 159.146 160.209 160.726 161.369 162.088 162.872 163.796 
164.699 165.36 165.823 149.276 149.748 149.001 149.327 148.696 150.367 
149.122 148.498 149.992 151.244 149.236 148.585 150.038 151.064 152.303 
149.522 149.009 150.293 151.186 152.238 153.478 149.831 149.501 150.48 
151.293 152.203 153.397 154.718 149.989 149.749 150.593 151.424 152.22 
153.258 154.562 155.838 150.019 149.869 150.605 151.593 152.484 153.361 
154.487 155.654 156.83 150.199 150.14 150.661 151.657 152.725 153.654 
154.679 155.716 156.71 157.875 150.647 150.884 151.465 152.049 152.591 
151.653 153.499 153.883 152.983 152.746 154.924 155.126 154.44 153.953 
153.805 156.195 156.356 155.897 155.378 155.079 154.957 157.57 157.849 
157.338 156.993 156.634 156.416 156.113 159.158 159.447 158.856 158.616 
158.311 157.961 157.569 157.091 160.605 160.74 160.323 160.128 159.941 
159.593 159.144 158.657 158.192 161.777 161.762 161.597 161.458 161.407 
161.209 160.819 160.385 159.938 159.501 160.623 161.143 162.136 161.631 
162.757 163.806 162.053 163.268 164.503 165.895 162.462 163.714 165.074 
166.664 168.155 162.761 164.142 165.575 167.266 168.957 170.35 162.819 
164.402 166 167.703 169.539 171.228 172.871 162.834 164.464 166.23 
167.969 169.859 171.822 173.725 175.639 162.955 164.518 166.281 168.01 
169.927 172.115 174.25 176.216 177.989 162.984 164.539 166.238 167.863 
169.732 172.107 174.513 176.544 178.276 179.721 161.13 162.71 161.645 
164.763 163.508 162.372 167.161 165.921 164.552 163.283 169.472 168.429 
167.115 165.622 164.215 172.134 171.196 170.017 168.443 166.737 165.217 
175.328 174.658 173.609 172.042 169.987 167.952 166.239 178.091 177.831 
177.091 175.807 173.84 171.364 168.986 167.03 179.937 179.835 179.303 
178.378 177.005 174.921 172.259 169.672 167.557 181.376 181.305 182.934 
182.437 184.303 180.785 183.55 185.179 181.525 179.92 184.316 185.313 
182.469 180.426 178.903 184.203 184.642 183.007 181.094 179.311 177.532 
183.261 183.33 182.57 181.196 179.587 177.79 175.276 181.974 181.85 
181.559 180.54 179.248 177.656 175.284 172.35 180.591 180.431 180.352 
179.581 178.434 176.993 174.923 172.224 169.604 178.99 178.85 178.853 
178.354 177.405 176.011 174.175 171.887 169.475 167.416 180.438 182.36 
180.993 183.054 181.083 184.268 182.965 180.688 185.035 185.655 182.235 
180.105 184.718 186.259 186.16 181.31 179.101 183.539 185.67 186.493 
185.814 179.889 177.133 182.017 183.983 185.588 185.698 184.566 177.48 
174.448 180.045 181.91 183.58 184.495 183.937 182.778 174.472 171.846 
177.271 179.522 181.239 182.522 182.72 181.948 181.12 171.678 169.773 
174.081 176.493 178.474 180.016 180.863 180.743 180.151 179.553 162.283 
163.9 162.901 164.835 163.68 165.744 165.699 164.549 166.759 167.45 
166.627 165.491 167.788 168.705 169.32 167.815 166.548 169.259 170.597 
171.494 171.97 169.089 167.602 170.955 172.906 174.269 174.844 174.859 
170.184 168.497 172.373 174.756 176.516 177.319 177.448 177.133 171.087 
169.205 173.504 176.07 177.952 178.871 179.263 179.289 178.904 160.887 
161.188 159.857 160.171 158.89 161.696 159.395 158.051 160.765 162.508 
158.588 157.196 160.013 161.555 163.432 157.566 156.391 159.011 160.6 
162.338 164.372 156.637 155.825 157.826 159.485 161.237 163.155 165.378 
155.964 155.352 156.832 158.375 160.202 161.978 164.08 166.368 155.364 
154.749 156.089 157.395 159.181 160.908 162.779 165.023 167.189 154.78 
154.097 155.513 156.602 158.169 159.844 161.551 163.618 165.814 167.788 