# vtk DataFile Version 4.0
vtk output
ASCII
DATASET POLYDATA
POINTS 1002 float
-103.652 -82.5815 76.9686 -103.616 -81.9023 75.6896 -104.206 -81.9136 76.485 
-104.343 -82.713 77.7637 -104.91 -82.0035 77.2883 -103.91 -83.5788 78.2264 
-105.057 -82.9441 78.6302 -105.486 -82.1066 78.2636 -104.661 -83.8241 79.0293 
-104.407 -84.8204 79.3947 -105.57 -83.1783 79.8133 -105.913 -82.1945 79.5167 
-105.323 -84.1898 80.0935 -105.091 -85.1889 80.4539 -104.912 -86.2188 80.8401 
-106.072 -83.4212 81.1505 -106.51 -82.4681 80.72 -105.872 -84.5898 81.4355 
-105.719 -85.7328 81.7635 -105.487 -86.8077 82.2268 -105.303 -87.8816 82.6709 
-106.917 -83.9435 82.0972 -107.407 -83.1252 81.497 -106.603 -85.0626 82.6014 
-106.43 -86.3283 83.0061 -106.223 -87.5181 83.4462 -105.973 -88.6185 83.9524 
-105.808 -89.6831 84.368 -107.968 -84.7666 82.6885 -108.35 -83.9314 82.0922 
-107.614 -85.7639 83.354 -107.315 -86.9412 83.9811 -107.098 -88.167 84.4303 
-106.919 -89.3397 84.823 -106.711 -90.4462 85.2874 -106.542 -91.4963 85.6833 
-108.884 -85.4871 83.4422 -109.176 -84.5572 82.857 -108.62 -86.5248 84.0657 
-108.3 -87.6268 84.7569 -107.993 -88.8111 85.3607 -107.851 -90.0874 85.7204 
-107.751 -91.368 86.0253 -107.542 -92.5454 86.4508 -107.365 -93.5832 86.8201 
-109.664 -85.9773 84.3363 -109.943 -85.0576 83.644 -109.459 -87.0902 84.9304 
-109.237 -88.289 85.4341 -108.928 -89.5698 86.0232 -108.695 -91.0127 86.6205 
-108.635 -92.5077 86.97 -108.535 -93.845 87.2153 -108.339 -94.9494 87.553 
-108.24 -95.8567 87.8226 -110.406 -86.4923 84.9949 -110.662 -85.6533 84.2109 
-110.207 -87.562 85.6697 -110.047 -88.8439 86.0472 -109.827 -90.3183 86.3855 
-109.551 -91.9875 87.0745 -109.394 -93.6563 87.7965 -109.354 -95.0466 88.1035 
-109.263 -96.1357 88.2326 -109.163 -97.0488 88.4385 -109.184 -97.8464 88.5753 
-103.974 -81.2877 74.9995 -104.63 -81.2403 75.7889 -104.38 -80.5063 74.3351 
-105.021 -80.3885 75.1861 -104.847 -79.6172 73.6851 -105.301 -81.2249 76.6776 
-105.424 -79.4453 74.7061 -105.494 -78.921 73.0546 -105.623 -80.2954 76.2039 
-105.847 -81.2179 77.7591 -106.108 -78.6747 74.187 -106.363 -78.4176 72.457 
-106.081 -79.3645 75.8211 -106.298 -80.3355 77.3011 -106.41 -81.3314 79.0089 
-107.073 -78.0784 73.5496 -107.227 -77.7989 71.9644 -106.941 -78.6569 75.2698 
-107.025 -79.611 76.8198 -107.128 -80.6254 78.4032 -107.176 -81.7604 80.1054 
-107.921 -77.4664 73.0629 -107.905 -77.0993 71.6595 -107.91 -78.1103 74.6165 
-107.955 -79.0728 76.2348 -107.983 -80.0177 77.8017 -107.96 -81.0842 79.4084 
-108.059 -82.4688 80.886 -108.563 -76.8229 72.8766 -108.537 -76.5451 71.4654 
-108.621 -77.4622 74.2262 -108.727 -78.4819 75.7258 -108.78 -79.3945 77.3269 
-108.736 -80.3091 78.8505 -108.75 -81.6726 80.2898 -108.918 -83.2041 81.6158 
-109.237 -76.2645 72.7869 -109.274 -76.1187 71.2642 -109.256 -76.7293 74.1039 
-109.367 -77.6759 75.4204 -109.477 -78.6598 76.968 -109.481 -79.5416 78.4836 
-109.475 -80.8321 79.8135 -109.576 -82.4344 81.1147 -109.748 -83.8504 82.4106 
-109.998 -75.8806 72.6342 -110.062 -75.7462 71.0666 -110.003 -76.2099 74.0046 
-110.106 -76.958 75.2077 -110.224 -77.9345 76.5965 -110.235 -78.9075 78.0993 
-110.2 -80.163 79.3915 -110.266 -81.7578 80.5993 -110.403 -83.2484 81.8772 
-110.532 -84.4901 83.1084 -110.817 -75.6042 71.9251 -110.827 -75.924 73.4782 
-111.695 -75.8624 72.7723 -111.817 -76.451 74.1753 -112.696 -76.4735 73.3801 
-110.94 -76.5177 74.7717 -112.739 -77.2086 74.7556 -113.491 -77.2017 73.8667 
-111.929 -77.2667 75.4853 -111.071 -77.4126 76.06 -113.337 -77.9796 75.569 
-113.859 -78.2457 74.7188 -112.647 -78.1288 76.3449 -111.886 -78.2678 76.9521 
-111.049 -78.4687 77.5577 -113.849 -79.1257 76.7557 -114.105 -79.8261 76.0257 
-113.272 -79.044 77.4688 -112.493 -79.327 77.9568 -111.685 -79.5671 78.4075 
-110.925 -79.8 78.9455 -114.388 -80.7532 77.9393 -114.329 -81.5126 77.3504 
-114.093 -80.3519 78.6124 -113.359 -80.5064 79.0857 -112.435 -80.8526 79.3518 
-111.63 -81.1482 79.7172 -110.946 -81.433 80.1971 -114.583 -82.4655 78.9569 
-114.321 -83.0238 78.5254 -114.63 -82.0111 79.6021 -114.243 -81.9418 80.2518 
-113.46 -82.1216 80.6122 -112.577 -82.3617 80.837 -111.802 -82.6826 81.178 
-111.1 -82.9955 81.5631 -114.574 -84.2089 80.0409 -114.285 -84.6008 79.6899 
-114.739 -83.8078 80.6317 -114.603 -83.6192 81.3966 -114.154 -83.6143 81.9673 
-113.476 -83.6494 82.2398 -112.684 -83.8352 82.4458 -111.918 -84.1459 82.6668 
-111.209 -84.3599 82.8885 -114.794 -86.0734 81.1944 -114.496 -86.3069 80.8111 
-114.973 -85.7465 81.7516 -114.853 -85.4825 82.4753 -114.484 -85.3614 83.0793 
-114 -85.2923 83.4057 -113.365 -85.3201 83.6146 -112.616 -85.513 83.7626 
-111.911 -85.67 83.8512 -111.271 -85.6673 84.0012 -111.186 -86.9636 85.1043 
-111.783 -87.1699 84.889 -111.725 -88.5389 85.9789 -112.434 -87.292 84.8116 
-112.36 -88.82 85.857 -112.265 -90.2272 86.8983 -113.187 -87.2058 84.7306 
-113.12 -88.9385 85.8354 -113.038 -90.4569 86.9216 -112.863 -92.2357 87.8304 
-113.904 -87.1231 84.4887 -113.916 -88.9423 85.647 -113.901 -90.6285 86.9217 
-113.719 -92.6013 87.9295 -113.595 -94.8302 88.7376 -114.467 -87.22 84.2425 
-114.514 -89.1222 85.2995 -114.529 -90.9685 86.6849 -114.413 -93.1067 87.9237 
-114.314 -95.525 88.7839 -114.382 -97.7204 89.604 -115.003 -87.415 83.9277 
-115.021 -89.4921 85.0424 -114.87 -91.5515 86.3348 -114.731 -93.7837 87.7055 
-114.711 -96.2836 88.6226 -114.856 -98.6217 89.4105 -115.001 -100.691 90.1987 
-115.399 -87.6583 83.3405 -115.527 -89.8156 84.6804 -115.229 -92.0549 85.9593 
-114.993 -94.3628 87.3321 -115.009 -96.8484 88.2977 -115.107 -99.3385 88.9608 
-115.289 -101.62 89.7484 -115.426 -103.807 90.3728 -115.384 -87.8996 82.6633 
-115.69 -89.9655 84.0722 -115.45 -92.2222 85.4195 -115.277 -94.6262 86.8227 
-115.503 -97.1079 87.9007 -115.572 -99.6371 88.5264 -115.494 -102.141 89.222 
-115.667 -104.537 89.9523 -115.926 -106.75 90.3031 -115.063 -88.0241 82.1043 
-115.433 -89.9256 83.4189 -115.286 -92.0722 84.781 -115.204 -94.5815 86.25 
-115.763 -97.2464 87.4849 -116.202 -99.7741 88.184 -115.981 -102.216 88.7951 
-115.854 -104.683 89.5771 -116.224 -107.049 90.0938 -116.636 -109.102 90.141 
-110.981 -87.9234 85.9492 -111.532 -89.6569 86.7879 -110.803 -89.1759 86.5314 
-112.055 -91.7119 87.6395 -111.35 -91.2271 87.2849 -110.635 -90.8077 86.7686 
-112.744 -94.2079 88.5686 -111.937 -93.6584 88.2369 -111.188 -93.2411 87.7035 
-110.399 -92.7573 87.2849 -113.654 -97.0179 89.5312 -112.765 -96.2743 89.273 
-111.85 -95.6577 88.945 -110.973 -95.2416 88.5989 -110.157 -94.6568 88.2831 
-114.455 -100.074 90.3276 -113.648 -99.2428 90.0723 -112.705 -98.1628 89.8089 
-111.707 -97.2263 89.7115 -110.82 -96.6718 89.4867 -110.071 -96.0705 88.9285 
-114.973 -103.474 90.663 -114.276 -102.867 90.5617 -113.518 -101.678 90.1997 
-112.633 -99.9469 90.0286 -111.667 -98.4411 89.9834 -110.828 -97.6414 89.6425 
-110.065 -97.0762 88.9832 -115.491 -106.806 90.5409 -114.811 -106.553 90.6996 
-114.203 -105.77 90.5564 -113.577 -104.125 90.2162 -112.662 -101.835 90.0014 
-111.683 -99.8305 89.8347 -110.856 -98.7157 89.4908 -110.04 -98.0272 88.9999 
-116.223 -109.508 90.2106 -115.511 -109.504 90.4595 -114.887 -109.048 90.7 
-114.407 -108.018 90.5919 -113.631 -106.211 90.2332 -112.55 -103.754 89.9576 
-111.625 -101.464 89.7573 -110.887 -99.999 89.4814 -110.082 -99.0011 89.0917 
-117.225 -111.474 89.8209 -116.544 -111.855 89.9086 -117.453 -113.797 89.4289 
-116.592 -113.952 89.5638 -117.252 -115.973 89.1827 -115.725 -111.592 90.2618 
-116.382 -115.769 89.0876 -117.011 -117.607 88.8469 -115.763 -113.21 89.7632 
-115.141 -110.785 90.5422 -116.136 -116.984 88.3644 -116.735 -118.463 87.943 
-115.57 -114.475 88.8726 -115.102 -111.9 89.8576 -114.476 -109.598 90.4179 
-115.763 -117.454 87.539 -116.058 -118.717 86.735 -115.341 -115.261 88.0807 
-114.85 -112.586 88.9403 -114.178 -110.464 89.8438 -113.357 -107.759 90.1168 
-115.154 -117.234 86.9798 -115.237 -118.169 86.0756 -114.978 -115.506 87.6944 
-114.613 -113 88.409 -113.911 -110.743 89.2085 -113.021 -108.535 89.7743 
-112.256 -105.157 89.8955 -114.49 -116.123 86.8328 -114.569 -116.649 86.0623 
-114.318 -115.03 87.511 -114.054 -113.132 88.125 -113.602 -110.865 88.7091 
-112.909 -108.683 89.2145 -112.183 -105.947 89.5741 -111.532 -102.677 89.6628 
-113.693 -114.426 86.772 -113.743 -114.775 86.0962 -113.479 -113.764 87.3389 
-113.145 -112.594 87.8103 -112.85 -110.801 88.2607 -112.564 -108.666 88.6312 
-112.156 -106.237 88.9648 -111.576 -103.483 89.2605 -110.839 -100.932 89.3273 
-112.607 -112.835 86.5312 -112.608 -113.1 85.9323 -112.52 -112.297 87.0833 
-112.272 -111.471 87.507 -112.011 -110.177 87.8991 -111.882 -108.38 88.2513 
-111.749 -106.22 88.5 -111.393 -103.839 88.7215 -110.742 -101.508 88.8966 
-109.927 -99.5104 88.867 -117.193 -109.764 89.9855 -117.867 -112.249 89.5211 
-117.561 -110.011 89.5581 -118.043 -112.717 88.8944 -117.641 -110.098 88.7111 
-117.912 -114.835 89.0458 -117.785 -113.016 87.986 -117.442 -110.229 87.9421 
-117.821 -115.583 88.2869 -117.611 -117.131 88.8102 -117.389 -112.948 87.4354 
-116.953 -110.202 87.6993 -117.482 -115.874 87.2893 -117.633 -117.931 87.7596 
-117.504 -118.653 88.1997 -116.817 -112.22 87.409 -116.168 -109.583 87.595 
-117.175 -115.11 86.7843 -117.542 -117.936 86.4154 -117.711 -119.435 86.6063 
-117.095 -119.482 86.7403 -115.936 -110.837 87.328 -115.372 -107.977 87.1666 
-116.55 -113.391 86.8668 -117.242 -116.353 85.9172 -117.623 -118.993 85.2319 
-117.128 -120.021 85.1188 -116.087 -119.505 85.4325 -115.126 -108.672 86.8884 
-114.859 -105.407 86.4489 -115.575 -111.367 86.8925 -116.41 -113.925 86.2094 
-117.133 -116.683 85.1959 -116.942 -118.748 84.524 -116.024 -119.2 84.5279 
-115.169 -118.253 85.1708 -114.639 -105.759 86.2258 -114.48 -102.544 85.6207 
-114.796 -108.849 86.5549 -115.361 -111.503 86.3547 -116.205 -113.871 85.6985 
-116.478 -115.948 85.0192 -115.909 -117.184 84.6588 -115.101 -117.176 84.8074 
-114.413 -116.179 85.4076 -114.201 -102.746 85.4937 -113.963 -100.114 84.7929 
-114.289 -105.691 86.0133 -114.528 -108.571 86.1333 -115.124 -111.056 85.8469 
[...]
CELL_DATA 2000
SCALARS Distance double
LOOKUP_TABLE default
151.838 152.729 152.494 153.017 153.7 153.465 154.027 153.814 154.483 
154.694 154.483 155.127 154.905 155.624 155.415 156.211 155.792 155.55 
156.293 156.081 156.904 156.669 157.543 157.294 158.209 157.076 156.768 
157.57 157.337 158.254 158.033 158.984 158.728 159.685 159.415 160.381 
158.466 158.147 158.978 158.71 159.657 159.435 160.418 160.188 161.156 
160.908 161.869 161.611 162.564 159.812 159.548 160.406 160.155 161.095 
160.864 161.842 161.618 162.606 162.373 163.377 163.119 164.127 163.83 
164.819 161.051 160.853 161.72 161.537 162.457 162.265 163.218 163.025 
164.047 163.853 164.947 164.704 165.804 165.485 166.542 166.173 167.181 
162.182 162.036 162.885 162.768 163.658 163.531 164.442 164.322 165.344 
165.263 166.42 166.299 167.444 167.193 168.223 167.892 168.84 168.498 
169.403 151.352 150.916 151.481 152.202 150.445 151.027 151.752 152.361 
153.123 150.064 150.56 151.272 151.882 152.645 153.277 154.064 149.95 
150.274 150.941 151.443 152.23 152.822 153.653 154.264 155.136 150.008 
150.254 150.888 151.25 152.059 152.537 153.428 153.952 154.874 155.447 
156.411 150.037 150.31 150.952 151.283 152.1 152.513 153.409 153.846 
154.75 155.254 156.207 156.791 157.776 150.07 150.334 150.978 151.322 
152.118 152.564 153.432 153.865 154.693 155.141 156.022 156.583 157.544 
158.153 159.107 150.223 150.428 151.053 151.339 152.085 152.52 153.373 
153.84 154.653 155.074 155.897 156.396 157.337 157.924 158.89 159.465 
160.368 150.489 150.649 151.276 151.476 152.19 152.513 153.352 153.777 
154.631 155.04 155.867 156.303 157.218 157.753 158.731 159.281 160.195 
160.706 161.536 150.881 151.907 151.477 151.713 153.174 152.646 152.892 
152.388 152.666 154.444 153.964 154.247 153.702 153.987 153.455 153.817 
155.632 155.196 155.543 155.073 155.4 154.858 155.187 154.679 155.067 
157.063 156.498 156.933 156.413 156.823 156.28 156.629 156.078 156.437 
155.934 156.326 158.737 158.126 158.63 158.002 158.496 157.838 158.252 
157.588 157.983 157.384 157.825 157.27 157.726 160.233 159.769 160.291 
159.762 160.306 159.668 160.147 159.389 159.81 159.069 159.537 158.892 
159.395 158.784 159.254 161.604 161.188 161.764 161.331 161.932 161.437 
161.989 161.337 161.779 161.01 161.429 160.698 161.159 160.501 160.943 
160.307 160.698 163.148 162.676 163.373 162.876 163.562 163.052 163.665 
163.098 163.581 162.914 163.301 162.585 162.966 162.27 162.649 161.979 
162.323 161.678 162.005 162.927 163.285 163.562 164.509 163.679 163.971 
164.969 165.23 166.225 164.052 164.386 165.454 165.744 166.801 167.022 
168.083 164.378 164.749 165.851 166.222 167.361 167.65 168.796 169.01 
170.235 164.657 165.066 166.171 166.586 167.778 168.183 169.425 169.75 
171.045 171.317 172.688 164.835 165.343 166.516 166.935 168.144 168.573 
169.863 170.31 171.644 172.053 173.418 173.78 175.133 164.829 165.488 
166.767 167.287 168.5 168.939 170.192 170.688 172.015 172.524 173.846 
174.33 175.647 176.088 177.357 164.633 165.403 166.692 167.397 168.564 
169.148 170.315 170.922 172.232 172.83 174.135 174.643 175.9 176.419 
177.698 178.195 179.415 164.321 165.11 166.301 167.113 168.183 168.929 
170.014 170.817 172.151 172.959 174.346 174.925 176.14 176.608 177.808 
178.379 179.631 180.17 181.302 163.048 164.645 163.818 163.802 166.349 
165.49 165.493 164.632 164.605 168.214 167.276 167.32 166.396 166.401 
165.471 165.435 170.423 169.328 169.453 168.383 168.482 167.424 167.494 
166.435 166.465 172.947 171.764 171.941 170.725 170.862 169.689 169.833 
168.696 168.833 167.661 167.697 175.475 174.381 174.587 173.33 173.386 
172.134 172.158 171.031 171.092 170.032 170.049 168.887 168.755 177.798 
176.869 177.19 176 176.082 174.723 174.631 173.318 173.177 172.079 
171.957 170.987 170.814 169.745 169.463 179.917 179.137 179.595 178.575 
178.839 177.535 177.571 176.025 175.839 174.305 174.047 172.797 172.591 
171.578 171.372 170.326 170.035 181.807 181.177 181.659 180.857 181.2 
180.202 180.388 179.062 178.974 177.297 176.963 175.248 174.915 173.508 
173.311 172.188 172.009 170.901 170.611 182.941 184.43 183.434 182.783 
185.629 184.758 184.083 183.104 182.323 186.483 185.756 184.971 184.171 
183.384 182.516 181.579 186.786 186.332 185.387 184.755 183.82 183.251 
182.36 181.556 180.277 186.384 186.291 185.355 184.907 183.823 183.37 
182.42 181.979 180.825 179.927 178.289 185.464 185.649 184.902 184.702 
183.676 183.247 182.205 181.832 180.768 180.202 178.75 177.736 176.078 
184.222 184.609 183.985 184.092 183.192 182.977 181.9 181.557 180.457 
180.041 178.779 178.054 176.566 175.604 174.245 182.674 183.226 182.599 
182.971 182.115 182.228 181.174 181.06 179.923 179.662 178.472 178.005 
176.702 175.988 174.685 173.902 172.79 180.913 181.546 180.934 181.436 
180.648 180.955 180.004 180.108 179.058 178.986 177.872 177.618 176.427 
175.978 174.741 174.161 172.977 172.388 171.317 183.16 183.685 183.949 
184.726 183.671 184.281 185.247 185.427 186.004 183.291 184.071 185.154 
185.72 186.521 186.623 186.977 182.819 183.609 184.663 185.428 186.374 
186.9 187.458 187.432 187.392 182.09 183.004 183.905 184.776 185.68 
186.514 187.201 187.618 187.675 187.475 186.963 180.743 181.943 182.681 
183.729 184.436 185.517 186.183 187.034 187.191 187.414 186.913 186.662 
185.898 178.77 180.226 180.908 182.163 182.717 183.941 184.487 185.649 
185.877 186.57 186.175 186.296 185.522 185.376 184.555 176.467 178.021 
178.71 180.142 180.679 182 182.458 183.72 183.971 184.965 184.733 
185.25 184.577 184.728 183.889 183.861 182.977 174.171 175.649 176.289 
177.796 178.319 179.771 180.175 181.542 181.766 182.932 182.809 183.615 
183.096 183.542 182.77 182.967 182.078 182.116 181.181 164.508 165.31 
165.421 166.426 166.033 166.175 167.153 167.292 168.237 166.857 166.944 
168.003 168.07 169.147 169.174 170.205 167.916 167.94 169.228 169.204 
170.596 170.471 171.844 171.55 172.693 169.112 169.153 170.603 170.656 
172.307 172.271 173.904 173.6 174.894 174.28 175.125 170.29 170.409 
171.912 172.066 173.747 173.936 175.579 175.581 176.819 176.434 177.161 
176.466 176.902 171.387 171.608 173.224 173.41 175.108 175.29 176.877 
176.975 178.168 178.009 178.742 178.279 178.762 178.08 178.518 172.379 
172.712 174.462 174.754 176.548 176.716 178.331 178.308 179.539 179.301 
180.169 179.769 180.475 179.931 180.574 179.843 180.385 173.229 173.664 
175.422 175.888 177.681 178.05 179.656 179.768 181.002 180.796 181.7 
181.311 182.113 181.677 182.456 181.897 182.517 181.735 182.114 163.433 
162.128 163.253 164.215 160.863 161.925 162.85 164.015 164.967 159.676 
160.661 161.507 162.634 163.591 164.759 165.738 158.541 159.471 160.237 
161.289 162.18 163.355 164.37 165.585 166.68 157.466 158.327 159.022 
160.003 160.816 161.942 162.945 164.197 165.352 166.62 167.815 156.567 
157.298 157.933 158.797 159.554 160.592 161.563 162.789 163.96 165.27 
166.488 167.764 168.943 155.856 156.482 157.069 157.79 158.48 159.38 
160.29 161.435 162.571 163.871 165.067 166.374 167.51 168.802 169.93 
155.171 155.779 156.311 156.975 157.577 158.361 159.145 160.174 161.208 
162.461 163.608 164.915 166.018 167.306 168.381 169.713 170.837 154.446 
155.037 155.512 156.178 156.717 157.452 158.108 159.017 159.893 161.055 
162.119 163.42 164.513 165.804 166.864 168.153 169.234 170.586 171.694 
154.195 154.21 154.519 155.245 154.437 154.629 155.367 155.674 156.481 
154.877 154.983 155.733 155.924 156.771 157.021 157.913 155.384 155.503 
156.308 156.432 157.319 157.467 158.438 158.634 159.705 155.894 156.05 
156.955 157.095 158.073 158.174 159.22 159.335 160.503 160.677 161.93 
156.521 156.647 157.657 157.809 158.917 159.041 160.207 160.284 161.535 
161.639 162.971 163.088 164.371 157.319 157.397 158.455 158.589 159.768 
159.944 161.225 161.364 162.703 162.797 164.18 164.251 165.592 165.595 
166.797 158.175 158.252 159.292 159.417 160.571 160.789 162.102 162.362 
163.763 163.965 165.373 165.496 166.867 166.893 168.159 168.06 169.208 
158.974 159.082 160.097 160.23 161.344 161.56 162.85 163.173 164.594 
164.923 166.343 166.591 167.964 168.117 169.433 169.449 170.673 170.53 
171.663 159.724 161.385 160.657 160.922 163.407 162.533 162.861 161.979 
162.267 165.738 164.785 165.24 164.191 164.554 163.513 163.879 168.291 
167.292 167.892 166.793 167.26 166.069 166.461 165.311 165.703 171.114 
170.041 170.761 169.611 170.199 168.947 169.372 168.076 168.419 167.196 
167.507 174.014 173.014 173.87 172.688 173.421 172.08 172.616 171.16 
171.509 170.064 170.328 168.995 169.203 176.546 175.837 176.83 175.86 
176.739 175.48 176.161 174.635 175.067 173.396 173.65 172.027 172.195 
170.705 170.782 178.54 178.135 179.191 178.595 179.546 178.66 179.409 
178.169 178.644 177.067 177.282 175.536 175.603 173.885 173.86 172.247 
172.122 180.101 179.9 180.94 180.637 181.578 181.082 181.829 181.042 
181.503 180.346 180.485 179 178.913 177.263 177.073 175.388 175.126 
173.474 173.157 159.277 159.062 159.721 160.896 158.828 159.524 160.762 
161.476 162.839 158.557 159.298 160.578 161.346 162.764 163.544 165.064 
158.236 159.014 160.326 161.149 162.605 163.451 165.04 165.873 167.545 
157.958 158.71 160.051 160.888 162.395 163.289 164.96 165.865 167.659 
168.506 170.324 157.807 158.505 159.87 160.664 162.221 163.114 164.863 
165.815 167.701 168.64 170.537 171.374 173.161 157.723 158.404 159.777 
160.545 162.117 162.999 164.781 165.752 167.673 168.671 170.582 171.51 
173.258 174.074 175.635 157.662 158.328 159.674 160.441 161.968 162.875 
164.619 165.642 167.542 168.602 170.503 171.486 173.2 174.046 175.526 
176.299 177.617 157.661 158.279 159.575 160.304 161.747 162.643 164.29 
165.359 167.188 168.348 170.225 171.321 173.033 173.93 175.359 176.109 
177.342 178.076 179.202 158.26 156.677 157.642 158 155.177 156.062 
156.386 157.359 157.725 153.853 154.614 154.849 155.736 156.021 157.038 
157.4 152.581 153.289 153.381 154.179 154.318 155.274 155.537 156.647 
157.025 151.201 151.927 151.918 152.665 152.663 153.518 153.65 154.715 
155.051 156.253 156.711 149.775 150.479 150.468 151.182 151.143 151.876 
151.907 152.825 153.089 154.251 154.726 155.984 156.534 148.552 149.121 
149.142 149.785 149.78 150.423 150.417 151.166 151.348 152.352 152.793 
154.004 154.58 155.851 156.443 147.738 148.098 148.137 148.612 148.625 
149.149 149.132 149.756 149.893 150.736 151.133 152.185 152.746 153.928 
154.543 155.787 156.401 147.318 147.508 147.563 147.833 147.845 148.162 
148.115 148.56 148.662 149.371 149.764 150.683 151.237 152.246 152.842 
153.955 154.592 155.794 156.438 147.202 147.16 147.252 147.423 147.089 
147.2 147.308 147.439 147.592 146.94 147.067 147.117 147.247 147.288 
147.503 147.71 146.905 146.925 146.956 147.02 147.056 147.195 147.414 
147.714 148.223 147.297 147.083 147.15 147.003 147.123 147.111 147.471 
147.635 148.303 148.59 149.423 148.116 147.74 147.87 147.495 147.693 
147.468 147.948 147.962 148.747 148.924 149.837 150.049 150.943 149.05 
148.675 148.861 148.432 148.683 148.321 148.82 148.673 149.448 149.508 
150.398 150.55 151.429 151.611 152.499 149.945 149.603 149.839 149.472 
149.795 149.436 149.948 149.696 150.418 150.317 151.157 151.177 152.061 
152.161 153.09 153.246 154.225 150.876 150.519 150.816 150.479 150.894 
150.577 151.138 150.868 151.572 151.373 152.18 152.063 152.954 152.931 
153.909 153.967 154.994 155.096 156.106 151.535 152.727 151.9 151.539 
154.226 153.267 152.929 152.027 151.719 155.954 154.901 154.598 153.585 
153.295 152.33 152.065 157.938 156.765 156.479 155.365 155.098 154.04 
153.791 152.781 152.557 160.144 158.907 158.666 157.411 157.168 155.969 
155.751 154.63 154.436 153.372 153.193 162.375 161.185 161.039 159.757 
159.569 158.235 158.03 156.746 156.583 155.394 155.261 154.124 154.002 
164.625 163.447 163.38 162.162 162.059 160.747 160.566 159.183 158.989 
157.674 157.561 156.337 156.261 155.062 154.992 166.99 165.789 165.764 
164.534 164.497 163.24 163.142 161.779 161.587 160.18 160.017 158.713 
158.646 157.416 157.361 156.135 156.079 169.292 168.197 168.226 166.995 
166.988 165.721 165.699 164.377 164.273 162.845 162.67 161.249 161.12 
159.82 159.743 158.512 158.423 157.215 157.14 158.097 159.417 159.166 
160.026 160.815 160.578 161.54 161.239 162.231 162.329 162.102 163.24 
162.915 164.053 163.669 164.833 163.991 163.78 165.108 164.796 166.106 
165.688 166.998 166.527 167.813 165.629 165.522 166.977 166.775 168.23 
167.874 169.303 168.846 170.246 169.685 170.938 167.069 167.103 168.625 
168.605 170.152 169.979 171.468 171.148 172.572 172.128 173.394 172.765 
173.765 168.374 168.477 170.026 170.14 171.714 171.746 173.227 173.122 
174.467 174.237 175.411 175.013 175.937 175.318 176.015 169.576 169.732 
171.237 171.428 172.944 173.117 174.537 174.616 175.864 175.82 176.89 
176.712 177.598 177.223 177.918 177.33 177.907 170.527 170.781 172.16 
172.46 173.856 174.15 175.483 175.699 176.897 176.983 178.03 177.981 
178.905 178.7 179.492 179.086 179.741 179.15 179.711 149.913 149.623 
149.472 148.919 149.448 149.204 148.564 148.429 147.942 149.437 149.111 
148.433 148.129 147.558 147.505 147.23 149.455 149.157 148.512 148.114 
147.506 147.254 146.957 146.986 146.936 149.381 149.132 148.521 148.199 
147.597 147.303 146.978 146.885 146.854 146.877 146.896 149.433 149.075 
148.453 148.148 147.561 147.332 146.98 146.921 146.862 146.889 146.908 
146.892 146.878 149.8 149.284 148.684 148.212 147.66 147.314 146.954 
146.849 146.758 146.831 146.849 146.899 146.877 146.873 146.871 150.304 
149.77 149.245 148.675 148.19 147.647 147.278 146.931 146.787 146.719 
146.75 146.806 146.85 146.871 146.887 146.892 146.943 150.768 150.286 
149.82 149.313 148.885 148.332 147.937 147.426 147.162 146.871 146.828 
146.775 146.867 146.885 146.98 146.961 147.03 147.007 147.088 149.931 
148.971 149.542 149.763 148.102 148.642 148.952 149.501 149.882 147.468 
147.903 148.316 148.825 149.309 149.817 150.33 147.111 147.398 147.791 
148.273 148.819 149.346 149.92 150.396 150.927 146.945 147.101 147.365 
147.768 148.265 148.834 149.434 149.992 150.548 151.007 151.486 146.901 
146.964 147.16 147.405 147.844 148.301 148.89 149.454 150.044 150.579 
151.089 151.538 151.991 146.949 146.974 147.205 147.328 147.772 148.042 
148.633 149.024 149.635 150.092 150.651 151.113 151.602 152.032 152.487 
147.039 147.066 147.33 147.444 147.892 148.097 148.674 148.94 149.549 
149.855 150.436 150.776 151.298 151.662 152.127 152.523 152.977 147.154 
147.169 147.414 147.547 147.961 148.191 148.718 148.996 149.566 149.855 
150.427 150.704 151.229 151.484 151.935 152.214 152.637 153.004 153.452 
150.546 150.402 150.797 151.561 150.493 150.752 151.546 151.96 152.833 
150.879 150.977 151.745 152.055 152.949 153.312 154.133 151.409 151.427 
152.131 152.352 153.226 153.513 154.322 154.579 155.325 151.925 151.926 
152.543 152.729 153.55 153.826 154.631 154.84 155.594 155.823 156.695 
152.428 152.412 152.956 153.085 153.819 154.097 154.891 155.149 155.92 
156.156 157.032 157.342 158.322 152.95 152.931 153.458 153.498 154.149 
154.34 155.101 155.373 156.159 156.448 157.301 157.649 158.574 158.936 
159.816 153.472 153.481 154.044 154.04 154.655 154.724 155.443 155.628 
156.426 156.685 157.531 157.858 158.744 159.112 159.978 160.319 161.152 
153.969 154.017 154.628 154.646 155.266 155.279 155.954 156.049 156.831 
157.022 157.872 158.122 158.996 159.291 160.173 160.492 161.385 161.703 
162.627 158.086 157.256 157.274 156.483 156.382 156.395 155.588 155.657 
154.966 155.621 155.56 154.766 154.781 154.119 154.235 153.685 155.073 
154.925 154.165 154.067 153.412 153.45 152.924 153.042 152.502 154.646 
154.49 153.768 153.59 152.9 152.82 152.235 152.3 151.742 151.825 
151.179 154.217 154.106 153.459 153.277 152.587 152.387 151.72 151.647 
151.039 151.069 150.42 150.447 149.765 153.825 153.712 153.168 153.027 
152.442 152.184 151.526 151.261 150.628 150.478 149.868 149.78 149.15 
149.107 148.548 153.602 153.41 152.918 152.789 152.319 152.114 151.551 
151.221 150.609 150.28 149.708 149.445 148.897 148.688 148.189 148.092 
147.736 153.584 153.3 152.799 152.61 152.168 152.006 151.518 151.269 
150.703 150.373 149.808 149.471 148.952 148.639 148.174 147.933 147.586 
147.487 147.299 
POINT_DATA 1002
SCALARS Distance double
LOOKUP_TABLE default
152.257 151.227 152.032 153.195 152.962 153.603 154.24 153.9 154.647 
155.201 155.313 154.873 155.831 156.398 157.036 156.467 156.039 157.102 
157.783 158.45 159.145 157.801 157.392 158.446 159.219 159.954 160.653 
161.347 159.249 158.76 159.886 160.642 161.395 162.12 162.834 163.513 
160.637 160.042 161.333 162.068 162.818 163.608 164.405 165.144 165.802 
161.883 161.23 162.644 163.398 164.191 165.136 166.102 166.909 167.577 
168.166 162.996 162.322 163.779 164.553 165.379 166.467 167.662 168.571 
169.193 169.753 170.291 150.8 151.615 150.335 151.134 149.869 152.51 
150.68 149.647 152.005 153.423 150.5 149.706 151.646 153.041 154.5 
150.56 149.762 151.607 152.927 154.319 155.807 150.612 149.741 151.688 
153.009 154.295 155.639 157.179 150.653 149.82 151.671 152.998 154.294 
155.495 156.935 158.522 150.813 150.042 151.695 152.893 154.231 155.438 
156.762 158.317 159.832 151.096 150.333 151.923 152.955 154.211 155.454 
156.713 158.183 159.696 161.059 151.216 152.122 152.385 153.434 153.704 
153.122 154.756 154.874 154.552 154.289 155.962 156.065 155.915 155.736 
155.539 157.474 157.657 157.367 157.193 156.963 156.813 159.251 159.308 
159.168 158.957 158.611 158.378 158.286 160.753 160.643 160.872 160.884 
160.603 160.22 160.016 159.885 162.172 162 162.372 162.559 162.528 
162.21 161.86 161.604 161.341 163.86 163.587 164.09 164.229 164.213 
164.007 163.69 163.351 162.995 162.635 163.827 164.228 165.475 164.694 
165.989 167.213 165.119 166.553 167.865 169.176 165.442 166.997 168.536 
169.993 171.543 165.754 167.322 169.019 170.726 172.423 174.104 166.066 
167.733 169.383 171.194 173.021 174.82 176.482 166.172 168.068 169.707 
171.495 173.365 175.159 176.969 178.628 165.952 167.956 169.676 171.572 
173.635 175.413 177.136 178.995 180.629 165.52 167.434 169.165 171.211 
173.676 175.732 177.282 179.013 180.891 182.392 164.634 166.362 165.485 
168.258 167.345 166.377 170.554 169.551 168.554 167.554 173.2 172.073 
170.965 169.985 168.966 175.844 174.722 173.368 172.146 171.147 170.037 
178.292 177.444 176.09 174.445 172.946 171.779 170.628 180.503 180.002 
179.084 177.552 175.532 173.67 172.328 171.16 182.406 182.076 181.53 
180.559 178.819 176.552 174.532 173.077 171.791 184.03 183.872 185.394 
185.012 186.487 183.37 185.773 187.194 184.136 182.654 186.033 187.134 
184.363 182.969 181.461 185.707 186.313 184.329 182.784 181.513 179.508 
184.93 185.152 184.073 182.634 181.203 179.591 177.159 183.75 183.77 
183.279 182.23 180.84 179.332 177.419 175.129 182.164 182.094 181.888 
181.181 180.114 178.818 177.27 175.424 173.505 180.383 180.264 180.26 
179.8 179.033 178.031 176.772 175.246 173.558 171.869 183.065 184.759 
183.238 184.854 182.931 186.135 184.439 182.513 186.179 187.254 183.885 
182.068 185.677 187.274 187.852 183.065 181.144 184.774 186.597 187.736 
187.444 181.626 179.465 183.357 185.187 186.774 187.067 186.233 179.591 
177.26 181.512 183.289 184.993 185.871 185.588 184.746 177.219 174.931 
179.328 181.204 182.887 184.039 184.295 183.853 183.072 174.806 172.782 
176.851 178.787 180.54 181.876 182.518 182.481 181.979 181.186 164.419 
166.328 165.185 167.016 165.902 168.119 167.918 166.755 169.082 170.247 
169.152 167.847 170.623 172.094 173.198 170.465 169.029 172.202 174.108 
175.517 175.973 171.739 170.109 173.541 175.509 177.129 177.82 177.699 
172.984 171.075 174.962 176.835 178.296 179.085 179.326 179.268 174.087 
171.983 176.33 178.366 179.802 180.526 180.901 181.205 181.255 162.297 
163.045 161.045 161.69 159.86 163.818 160.437 158.735 162.398 164.56 
159.245 157.648 161.035 163.11 165.443 158.092 156.663 159.732 161.686 
164.042 166.575 157.142 155.9 158.572 160.363 162.645 165.199 167.694 
156.409 155.264 157.662 159.211 161.301 163.772 166.232 168.609 155.668 
154.582 156.86 158.215 160.013 162.312 164.744 167.08 169.458 154.862 
153.896 156.01 157.287 158.828 160.842 163.206 165.592 167.923 170.322 