# vtk DataFile Version 4.0
vtk output
ASCII
DATASET POLYDATA
POINTS 1002 float
-105.332 -82.7837 76.9785 -105.157 -82.1036 76.0033 -105.664 -81.9253 76.8462 
-105.83 -82.6723 78.0211 -106.164 -81.7585 77.8878 -105.536 -83.6347 78.234 
-106.266 -82.5884 79.2798 -106.741 -81.7998 78.9379 -105.851 -83.4821 79.6056 
-105.659 -84.4698 79.8753 -106.813 -82.7019 80.4512 -107.368 -82.0063 79.9456 
-106.214 -83.4236 81.022 -105.866 -84.3387 81.4399 -105.878 -85.4534 81.6553 
-107.536 -82.9209 81.4978 -108.056 -82.1865 80.9785 -106.938 -83.6348 82.1283 
-106.441 -84.5077 82.6912 -106.288 -85.6446 83.0193 -106.307 -86.9263 83.319 
-108.427 -83.1883 82.4831 -108.948 -82.4841 81.9139 -107.919 -84.0023 83.039 
-107.437 -84.9701 83.5813 -107.126 -86.1274 83.9734 -106.984 -87.366 84.3566 
-106.838 -88.5349 84.8825 -109.401 -83.6371 83.3497 -109.913 -82.9965 82.7392 
-108.914 -84.4858 83.8725 -108.461 -85.4941 84.3924 -108.073 -86.596 84.8579 
-107.811 -87.744 85.2597 -107.674 -88.8609 85.7408 -107.567 -89.8597 86.2329 
-110.231 -84.1037 84.207 -110.657 -83.4244 83.6501 -109.807 -85.0164 84.6856 
-109.399 -86.0619 85.1635 -109.005 -87.0293 85.7174 -108.669 -88.0063 86.2264 
-108.523 -89.1202 86.6371 -108.535 -90.2352 86.9856 -108.506 -91.1992 87.2877 
-110.874 -84.44 85.0986 -111.213 -83.6926 84.5794 -110.563 -85.4314 85.5776 
-110.277 -86.5919 86.0063 -109.989 -87.6037 86.4961 -109.693 -88.4939 87.0516 
-109.5 -89.5909 87.5221 -109.493 -90.8259 87.8217 -109.504 -91.8914 88.0285 
-109.364 -92.738 88.2694 -111.502 -84.8641 85.838 -111.785 -84.061 85.3041 
-111.263 -85.8773 86.3991 -111.059 -87.0651 86.9111 -110.85 -88.1866 87.3705 
-110.634 -89.1818 87.851 -110.474 -90.3367 88.3359 -110.436 -91.6625 88.6989 
-110.444 -92.7963 88.8903 -110.33 -93.6125 89.031 -110.077 -94.2877 89.2402 
-105.443 -81.4303 75.5127 -105.86 -81.0735 76.4545 -105.778 -80.5888 74.9374 
-106.125 -80.1292 75.9455 -106.091 -79.6298 74.2842 -106.412 -80.8691 77.4634 
-106.596 -79.2896 75.3211 -106.623 -78.9217 73.6212 -106.817 -79.9991 76.9103 
-107.145 -80.9834 78.4216 -107.472 -78.78 74.6202 -107.676 -78.5528 72.9221 
-107.524 -79.3374 76.2591 -107.718 -80.1881 77.8652 -107.866 -81.2004 79.4402 
-108.593 -78.4185 73.8115 -108.782 -78.1011 72.2154 -108.461 -78.8928 75.5118 
-108.486 -79.5657 77.2907 -108.529 -80.4073 78.9538 -108.647 -81.4247 80.4676 
-109.449 -77.915 73.1226 -109.336 -77.4278 71.7103 -109.383 -78.4204 74.7012 
-109.287 -79.0278 76.6345 -109.283 -79.7555 78.4989 -109.398 -80.7315 79.9558 
-109.645 -81.9062 81.3257 -110.03 -77.3189 72.8438 -109.74 -76.8393 71.4304 
-110.194 -77.7969 74.19 -110.099 -78.3794 75.9586 -109.983 -79.1086 78.003 
-110.098 -80.0535 79.5909 -110.363 -81.2783 80.8403 -110.569 -82.4804 82.2387 
-110.742 -76.8111 72.7558 -110.576 -76.5125 71.1769 -110.947 -77.1378 74.0924 
-110.926 -77.6628 75.5513 -110.708 -78.4397 77.4483 -110.672 -79.3517 79.2473 
-110.912 -80.475 80.5988 -111.14 -81.739 81.9227 -111.204 -82.8153 83.3395 
-111.62 -76.5205 72.512 -111.681 -76.4042 70.8853 -111.622 -76.6741 73.9897 
-111.601 -77.1027 75.3598 -111.449 -77.9214 76.9736 -111.315 -78.8482 78.753 
-111.407 -79.7739 80.3037 -111.604 -80.8781 81.696 -111.708 -82.047 83.0913 
-111.733 -83.0772 84.3266 -112.541 -76.4959 71.599 -112.278 -76.5622 73.2329 
-113 -76.8706 72.3124 -112.689 -77.0827 73.9256 -113.458 -77.6027 73.1387 
-112.119 -76.8239 74.7935 -113.411 -77.9505 74.786 -114.238 -78.2806 74.2051 
-112.688 -77.5847 75.6252 -112.102 -77.5697 76.3922 -114.32 -78.6994 75.9312 
-114.826 -78.9266 75.4958 -113.674 -78.4749 76.6585 -112.935 -78.4405 77.4776 
-112.109 -78.5835 78.1605 -114.782 -79.7068 77.2934 -115.082 -80.1475 76.9381 
-114.468 -79.2965 77.9315 -113.943 -79.1833 78.712 -113.09 -79.3387 79.344 
-112.132 -79.4791 79.8844 -115.199 -81.2227 78.727 -115.674 -81.6143 78.3583 
-114.833 -80.6493 79.2819 -114.525 -80.1625 80.0202 -113.946 -80.1507 80.6002 
-113.049 -80.2843 81.0473 -112.197 -80.4344 81.4777 -115.979 -82.4863 80.0185 
-116.552 -82.6309 79.4997 -115.364 -82.2354 80.5217 -114.926 -81.7238 81.1584 
-114.485 -81.4269 81.7637 -113.794 -81.4482 82.2083 -112.97 -81.4563 82.659 
-112.259 -81.6026 83.0135 -116.601 -83.3559 81.0504 -117.076 -83.472 80.3513 
-115.956 -83.4223 81.5995 -115.417 -83.2659 82.1069 -114.985 -82.9401 82.6951 
-114.44 -82.8053 83.2349 -113.736 -82.7597 83.6967 -112.998 -82.688 84.1053 
-112.318 -82.7844 84.3258 -116.804 -84.3632 81.9257 -117.137 -84.5803 81.1357 
-116.284 -84.4571 82.581 -115.787 -84.5553 83.0557 -115.398 -84.3708 83.5678 
-114.994 -84.0956 84.1729 -114.466 -83.9695 84.6903 -113.823 -83.9186 85.0413 
-113.111 -83.8913 85.2475 -112.404 -83.937 85.3246 -112.312 -85.2501 86.2087 
-113.045 -85.2693 86.2422 -112.962 -86.8801 87.2312 -113.811 -85.2202 86.2724 
-113.709 -86.8691 87.4105 -113.59 -88.5621 88.4338 -114.479 -85.1611 86.1788 
-114.415 -86.727 87.5523 -114.286 -88.5111 88.7045 -114.184 -90.2186 89.6366 
-114.99 -85.2739 85.7975 -114.955 -86.7849 87.3765 -114.882 -88.6111 88.6693 
-114.835 -90.5169 89.7729 -114.756 -92.4572 90.7962 -115.391 -85.609 85.1703 
-115.357 -87.153 86.8541 -115.293 -89.0512 88.2313 -115.302 -91.1202 89.4561 
-115.343 -93.229 90.7881 -115.231 -95.3087 91.9439 -115.775 -85.8872 84.5639 
-115.814 -87.4602 86.2567 -115.722 -89.3593 87.7441 -115.621 -91.574 89.0027 
-115.725 -93.8751 90.4503 -115.818 -96.0095 91.8992 -115.708 -97.9092 92.7508 
-116.198 -85.8357 84.0587 -116.339 -87.4079 85.7278 -116.355 -89.2006 87.3511 
-116.109 -91.4258 88.7265 -116.046 -93.9382 90.1164 -116.251 -96.2988 91.5991 
-116.374 -98.3005 92.6541 -116.311 -100.126 93.0108 -116.624 -85.6662 83.4191 
-116.74 -87.1771 85.1024 -116.895 -88.8721 86.8311 -116.703 -91.0471 88.4019 
-116.497 -93.666 89.8053 -116.617 -96.2497 91.1708 -116.819 -98.5174 92.2982 
-116.906 -100.554 92.8673 -116.904 -102.545 92.9828 -116.938 -85.7458 82.5751 
-116.942 -87.1154 84.2477 -117.096 -88.7011 86.0196 -117.017 -90.8353 87.7585 
-116.841 -93.5134 89.324 -116.94 -96.203 90.6552 -117.125 -98.6404 91.7488 
-117.192 -100.929 92.4885 -117.256 -103.132 92.8136 -117.331 -105.212 92.9008 
-112.076 -86.3154 86.8686 -112.743 -88.1294 87.9925 -111.867 -87.5055 87.5693 
-113.371 -89.8645 89.1874 -112.467 -89.2936 88.7804 -111.617 -88.677 88.214 
-113.994 -91.8119 90.4351 -113.042 -91.1341 90.0209 -112.072 -90.4208 89.5824 
-111.333 -89.8103 88.7909 -114.587 -94.6093 91.6993 -113.785 -93.7067 91.2617 
-112.728 -92.6901 90.8912 -111.779 -91.8651 90.3021 -111.166 -91.1677 89.3142 
-115.079 -97.6692 92.6117 -114.562 -97.0891 92.1718 -113.857 -95.9851 91.7307 
-112.756 -94.696 91.3881 -111.822 -93.6792 90.7336 -111.19 -92.7359 89.7107 
-115.645 -100.24 92.9446 -115.147 -100.241 92.5878 -114.883 -99.6664 92.0137 
-114.204 -98.2809 91.6019 -113.045 -96.6471 91.3762 -112.061 -95.2757 90.8393 
-111.285 -94.0295 89.8943 -116.355 -102.742 92.9953 -115.722 -102.942 92.8636 
-115.4 -102.843 92.4228 -115.148 -101.924 91.7758 -114.384 -100.136 91.3766 
-113.282 -98.1037 91.1935 -112.244 -96.3386 90.7361 -111.267 -94.8707 89.9228 
-117.006 -105.513 93.0071 -116.401 -105.689 93.1272 -115.812 -105.621 93.103 
-115.436 -105.061 92.6585 -115.024 -103.742 91.9348 -114.345 -101.666 91.3719 
-113.415 -99.2847 91.0082 -112.268 -97.1694 90.5756 -111.079 -95.539 89.9652 
-117.568 -108.216 92.8499 -117.189 -108.56 93.0759 -117.728 -111.173 92.6292 
-117.266 -111.292 92.8612 -117.749 -113.773 92.0417 -116.535 -108.479 93.3809 
-117.258 -113.366 92.0559 -117.692 -116.062 91.2285 -116.595 -110.722 93.1544 
-115.827 -107.941 93.506 -117.122 -115.029 91.1169 -117.495 -117.832 90.5764 
-116.567 -112.342 92.1955 -115.742 -109.817 93.3492 -115.222 -107.016 93.0793 
-116.67 -116.289 90.6549 -116.934 -118.494 90.1268 -116.287 -113.69 91.3139 
-115.594 -111.296 92.5467 -115.005 -108.791 93.0298 -114.776 -105.452 92.1782 
-115.974 -116.58 90.3967 -116.148 -117.812 89.6725 -115.733 -114.549 90.9622 
-115.311 -112.249 91.8264 -114.914 -109.97 92.4694 -114.71 -106.94 92.0526 
-114.282 -102.952 91.2984 -115.401 -115.513 89.987 -115.548 -116.01 89.2872 
-115.184 -114.287 90.6049 -114.912 -112.35 91.2832 -114.731 -110.114 91.8175 
-114.645 -107.464 91.6323 -114.209 -103.861 91.0605 -113.265 -100.03 90.7581 
-115.062 -113.349 89.6802 -115.206 -113.494 89.1633 -114.779 -112.758 90.1676 
-114.447 -111.5 90.6905 -114.262 -109.511 91.1781 -114.206 -107.008 91.2115 
-113.813 -103.94 90.8693 -112.847 -100.508 90.6236 -111.79 -97.5645 90.4097 
-114.747 -110.76 89.6235 -114.876 -110.761 89.2309 -114.406 -110.492 89.9645 
-113.938 -109.854 90.3013 -113.581 -108.473 90.69 -113.418 -106.237 90.8754 
-113.084 -103.477 90.7492 -112.234 -100.565 90.5926 -111.179 -97.9014 90.3968 
-110.443 -95.8223 89.924 -117.56 -106.61 92.6845 -117.877 -109.734 92.4791 
-117.755 -107.803 92.2296 -118.183 -110.943 91.8323 -118.019 -108.611 91.5721 
-118.128 -112.785 92.0153 -118.351 -111.693 91.0957 -118.101 -108.813 90.9802 
-118.485 -114.164 91.1999 -118.207 -115.839 91.2917 -118.053 -111.494 90.6551 
-117.859 -108.047 90.5576 -118.423 -114.761 90.4892 -118.603 -117.564 90.3596 
-118.207 -118.63 90.4713 -117.586 -110.024 90.3997 -117.629 -106.287 90.0216 
-117.835 -113.771 90.2165 -118.489 -117.605 89.5971 -118.661 -120.099 89.3551 
-117.948 -120.045 89.7063 -117.446 -107.707 89.8726 -117.523 -104.005 89.2257 
-117.389 -111.485 90.024 -117.963 -115.492 89.3726 -118.606 -119.045 88.5702 
-118.256 -120.437 88.5307 -117.149 -119.57 89.1021 -117.361 -105.022 89.1003 
-117.205 -101.66 88.3503 -117.285 -108.644 89.5389 -117.541 -112.339 89.3008 
-118.131 -115.942 88.5691 -118.112 -118.44 88.1016 -117.207 -118.897 88.2466 
-116.184 -117.782 88.748 -116.92 -102.235 88.2853 -116.554 -99.4805 87.479 
-117.034 -105.411 88.9005 -117.151 -108.747 89.0564 -117.503 -112.021 88.7727 
-117.62 -114.828 88.4395 -117.038 -116.396 88.284 -116.156 -116.381 88.3403 
-115.54 -115.208 88.6686 -116.23 -99.7004 87.346 -115.815 -97.596 86.5197 
-116.488 -102.163 88.0979 -116.596 -104.907 88.5761 -116.766 -107.759 88.701 
[...]
CELL_DATA 2000
SCALARS Distance double
LOOKUP_TABLE default
153.089 153.838 153.679 154.186 154.708 154.5 155.023 154.868 155.462 
155.716 155.454 155.975 155.751 156.339 156.205 156.913 156.81 156.528 
157.089 156.797 157.417 157.183 157.938 157.803 158.689 158.007 157.691 
158.33 158.011 158.708 158.406 159.209 158.976 159.895 159.744 160.709 
159.319 158.971 159.648 159.324 160.065 159.768 160.576 160.319 161.187 
160.997 161.916 161.78 162.686 160.586 160.286 160.947 160.659 161.396 
161.127 161.915 161.661 162.473 162.256 163.118 162.968 163.878 163.732 
164.609 161.677 161.46 162.12 161.907 162.663 162.441 163.251 162.994 
163.82 163.552 164.434 164.216 165.184 164.995 165.955 165.714 166.575 
162.673 162.496 163.2 163.041 163.854 163.69 164.55 164.334 165.193 
164.936 165.852 165.618 166.639 166.422 167.448 167.169 168.071 167.718 
168.493 152.631 152.16 152.685 153.302 151.603 152.159 152.772 153.39 
154.134 151.154 151.629 152.294 152.881 153.677 154.313 155.148 151.121 
151.384 152.098 152.533 153.37 153.928 154.801 155.386 156.236 151.336 
151.529 152.191 152.497 153.308 153.747 154.612 155.11 155.976 156.517 
157.407 151.354 151.68 152.275 152.593 153.32 153.729 154.563 155.008 
155.865 156.335 157.251 157.782 158.73 151.24 151.619 152.281 152.611 
153.301 153.692 154.492 154.953 155.809 156.276 157.18 157.684 158.641 
159.155 160.045 151.372 151.639 152.401 152.664 153.37 153.678 154.439 
154.861 155.705 156.191 157.074 157.596 158.518 159.058 159.94 160.413 
161.17 151.81 151.943 152.667 152.859 153.531 153.78 154.497 154.849 
155.666 156.099 156.964 157.452 158.339 158.883 159.757 160.274 161.05 
161.473 162.158 152.351 153.251 152.889 153.073 154.194 153.75 153.921 
153.606 153.873 155.48 154.862 155.068 154.571 154.908 154.524 154.9 
156.929 156.313 156.6 155.974 156.375 155.806 156.247 155.724 156.139 
158.375 157.789 158.156 157.584 158.025 157.443 157.887 157.261 157.642 
157.043 157.434 160.07 159.366 159.77 159.146 159.606 159.057 159.515 
158.926 159.287 158.628 158.959 158.364 158.781 161.859 161.176 161.559 
160.859 161.278 160.65 161.109 160.523 160.931 160.283 160.62 159.954 
160.324 159.746 160.179 163.291 162.811 163.147 162.579 162.923 162.322 
162.713 162.128 162.545 161.934 162.31 161.643 161.99 161.337 161.695 
161.116 161.47 164.387 164.04 164.386 163.974 164.319 163.835 164.194 
163.673 164.062 163.519 163.91 163.312 163.665 163.01 163.323 162.662 
162.948 162.335 162.6 163.429 163.869 164.085 165.049 164.313 164.573 
165.593 165.853 166.926 164.668 165.003 166.051 166.382 167.479 167.764 
168.843 164.891 165.297 166.35 166.77 167.886 168.264 169.404 169.697 
170.862 165.027 165.465 166.528 167.008 168.146 168.604 169.797 170.219 
171.504 171.853 173.174 165.135 165.579 166.659 167.17 168.333 168.829 
170.03 170.54 171.874 172.416 173.83 174.239 175.509 165.195 165.653 
166.718 167.28 168.458 169 170.182 170.716 172.008 172.656 174.092 
174.724 176.052 176.428 177.484 165.176 165.64 166.633 167.253 168.405 
169.048 170.219 170.812 172.052 172.714 174.112 174.842 176.221 176.798 
177.943 178.253 179.214 165.106 165.547 166.435 167.056 168.124 168.851 
169.999 170.725 171.954 172.69 174.051 174.812 176.187 176.866 178.079 
178.578 179.622 179.948 180.925 163.473 165.119 164.199 164.104 167.03 
166.026 165.948 164.946 164.856 168.96 167.985 167.923 166.891 166.775 
165.742 165.601 171.02 169.972 169.949 168.875 168.755 167.687 167.53 
166.476 166.284 173.415 172.252 172.344 171.088 171.047 169.788 169.691 
168.5 168.388 167.225 167.051 175.775 174.746 174.964 173.725 173.822 
172.399 172.377 170.927 170.881 169.532 169.457 168.138 167.959 177.735 
176.945 177.227 176.275 176.499 175.284 175.328 173.842 173.726 172.215 
172.074 170.665 170.465 169.079 168.784 179.527 178.817 179.195 178.395 
178.743 177.799 177.977 176.721 176.592 175.083 174.781 173.284 172.943 
171.533 171.127 169.764 169.33 181.358 180.694 181.211 180.421 180.875 
179.997 180.307 179.231 179.239 177.856 177.567 175.999 175.568 174.009 
173.509 172.038 171.504 170.16 169.676 182.565 184.409 183.213 182.522 
185.937 184.954 184.297 183.062 182.204 186.968 186.183 185.514 184.612 
183.757 182.585 181.566 187.666 186.943 186.111 185.468 184.657 183.849 
182.819 181.708 180.457 187.928 187.409 186.428 185.853 185.015 184.462 
183.568 182.734 181.476 180.312 178.803 187.378 187.326 186.397 186.016 
185.101 184.674 183.832 183.279 182.147 181.18 179.596 178.385 176.717 
186.037 186.42 185.642 185.67 184.728 184.539 183.575 183.294 182.168 
181.575 179.989 178.978 177.121 176.07 174.423 184.302 184.89 184.205 
184.572 183.669 183.796 182.732 182.699 181.472 181.222 179.654 179.015 
177.117 176.232 174.409 173.648 172.202 182.477 183.115 182.469 182.97 
182.129 182.461 181.434 181.578 180.343 180.271 178.764 178.397 176.627 
175.985 174.192 173.498 171.983 171.446 170.265 182.841 183.621 183.765 
184.686 184.119 184.46 185.489 185.57 186.277 184.248 184.826 185.97 
186.291 187.195 187.098 187.545 183.761 184.676 185.853 186.57 187.695 
187.999 188.741 188.381 188.53 182.576 183.797 184.877 186.021 187.184 
188.145 189.118 189.41 189.689 189.168 188.822 180.926 182.308 183.284 
184.632 185.649 187.06 188.047 189.146 189.524 189.775 189.312 188.882 
188.038 179.003 180.472 181.376 182.806 183.655 185.15 185.981 187.466 
187.91 188.868 188.496 188.69 187.739 187.517 186.473 176.879 178.378 
179.152 180.68 181.357 182.902 183.499 185.081 185.468 186.809 186.63 
187.359 186.561 186.746 185.699 185.646 184.622 174.721 176.129 176.725 
178.248 178.74 180.319 180.69 182.323 182.555 184.116 184.029 185.201 
184.618 185.25 184.317 184.581 183.58 183.672 182.716 165.302 166.032 
165.967 166.658 166.819 166.779 167.556 167.501 168.346 167.641 167.632 
168.513 168.478 169.43 169.353 170.28 168.586 168.57 169.619 169.571 
170.704 170.598 171.72 171.478 172.429 169.718 169.691 170.918 170.862 
172.189 172.08 173.412 173.158 174.315 173.827 174.714 170.944 170.966 
172.324 172.304 173.751 173.693 175.148 174.976 176.256 175.848 176.813 
176.167 176.879 172.097 172.235 173.703 173.77 175.306 175.308 176.845 
176.742 178.106 177.789 178.813 178.244 178.949 178.229 178.751 173.082 
173.358 174.916 175.123 176.736 176.851 178.455 178.445 179.894 179.655 
180.77 180.243 181.004 180.278 180.805 179.997 180.368 173.869 174.272 
175.873 176.242 177.872 178.159 179.743 179.923 181.373 181.353 182.521 
182.176 182.99 182.344 182.895 182.082 182.466 181.56 181.79 164.68 
163.89 164.63 165.316 162.885 163.738 164.431 165.27 166.026 161.714 
162.621 163.324 164.28 165.056 165.963 166.765 160.615 161.44 162.114 
163.091 163.903 164.912 165.749 166.695 167.586 159.706 160.421 161.035 
161.903 162.696 163.719 164.607 165.628 166.541 167.553 168.58 158.862 
159.556 160.108 160.871 161.562 162.519 163.394 164.459 165.402 166.463 
167.468 168.573 169.69 157.976 158.687 159.201 159.927 160.509 161.38 
162.177 163.234 164.185 165.288 166.273 167.393 168.438 169.63 170.746 
157.115 157.789 158.3 159 159.554 160.336 161.069 162.038 162.971 
164.061 165.041 166.15 167.126 168.295 169.325 170.585 171.661 156.4 
156.978 157.5 158.147 158.74 159.446 160.163 161.003 161.883 162.882 
163.836 164.905 165.836 166.948 167.894 169.102 170.106 171.404 172.424 
156.238 156.447 156.644 157.328 156.831 156.963 157.694 157.862 158.627 
157.286 157.422 158.203 158.343 159.167 159.283 160.113 157.73 157.888 
158.687 158.867 159.725 159.884 160.775 160.888 161.819 158.246 158.369 
159.201 159.361 160.258 160.441 161.397 161.571 162.572 162.708 163.726 
158.886 158.967 159.86 159.971 160.947 161.073 162.12 162.259 163.354 
163.492 164.585 164.683 165.724 159.559 159.65 160.573 160.702 161.736 
161.87 162.988 163.111 164.28 164.383 165.553 165.616 166.736 166.746 
167.803 160.195 160.317 161.256 161.421 162.475 162.662 163.803 163.995 
165.199 165.361 166.577 166.667 167.849 167.855 168.99 168.93 170.023 
160.809 160.953 161.931 162.112 163.198 163.397 164.559 164.779 166.008 
166.236 167.494 167.673 168.903 168.989 170.178 170.173 171.328 171.239 
172.34 161.468 163.064 162.386 162.704 164.962 164.178 164.556 163.76 
164.072 167.102 166.24 166.7 165.799 166.164 165.234 165.521 169.472 
168.541 169.089 168.109 168.569 167.525 167.86 166.787 167.053 172.027 
171.066 171.707 170.661 171.209 170.098 170.512 169.319 169.59 168.398 
168.61 174.696 173.751 174.527 173.444 174.09 172.902 173.385 172.107 
172.4 171.077 171.245 169.97 170.084 177.362 176.505 177.445 176.411 
177.225 175.986 176.573 175.16 175.497 174.016 174.181 172.734 172.811 
171.436 171.444 179.741 179.111 180.15 179.338 180.312 179.23 179.966 
178.547 178.948 177.311 177.482 175.834 175.897 174.322 174.296 172.794 
172.682 181.58 181.248 182.289 181.821 182.847 182.148 182.988 181.887 
182.345 180.826 180.947 179.241 179.213 177.519 177.413 175.767 175.569 
173.988 173.734 161.026 160.809 161.433 162.552 160.559 161.225 162.39 
163.093 164.389 160.2 160.938 162.132 162.917 164.269 165.037 166.472 
159.725 160.51 161.723 162.606 164.019 164.897 166.42 167.227 168.788 
159.277 160.025 161.278 162.192 163.705 164.649 166.261 167.154 168.805 
169.631 171.277 158.984 159.652 160.955 161.834 163.465 164.422 166.133 
167.028 168.725 169.609 171.337 172.178 173.874 158.851 159.451 160.748 
161.585 163.238 164.239 166.007 166.944 168.638 169.524 171.255 172.183 
173.96 174.809 176.487 158.81 159.367 160.593 161.375 162.917 163.944 
165.667 166.728 168.397 169.37 171.03 172.029 173.784 174.786 176.49 
177.342 178.846 158.79 159.321 160.459 161.174 162.567 163.528 165.134 
166.246 167.889 168.978 170.591 171.67 173.335 174.45 176.102 177.14 
178.606 179.461 180.689 160.134 158.868 159.601 159.87 157.684 158.341 
158.498 159.294 159.567 156.46 157.108 157.149 157.883 158.04 158.929 
159.183 155.167 155.808 155.76 156.453 156.496 157.35 157.552 158.495 
158.728 153.898 154.499 154.403 155.022 154.966 155.747 155.892 156.843 
157.1 158.042 158.291 152.666 153.255 153.156 153.703 153.565 154.209 
154.237 155.139 155.393 156.403 156.705 157.652 157.97 151.458 152.049 
151.997 152.514 152.342 152.846 152.73 153.477 153.648 154.661 155.021 
156.055 156.432 157.402 157.817 150.409 150.926 150.951 151.431 151.293 
151.686 151.494 152.034 152.111 152.977 153.367 154.397 154.877 155.879 
156.348 157.316 157.795 149.68 150.04 150.109 150.503 150.433 150.744 
150.566 150.923 150.943 151.591 151.971 152.88 153.432 154.399 154.942 
155.888 156.399 157.337 157.823 149.452 149.212 149.462 149.759 148.861 
149.12 149.31 149.7 149.98 148.505 148.696 148.829 149.183 149.43 
149.836 150.112 148.394 148.411 148.551 148.778 149.103 149.4 149.789 
150.094 150.569 148.697 148.493 148.668 148.709 149.134 149.3 149.832 
150.023 150.651 150.892 151.646 149.408 149.024 149.226 149.075 149.554 
149.572 150.169 150.262 150.956 151.154 151.979 152.232 153.109 150.328 
149.882 150.087 149.815 150.309 150.199 150.824 150.776 151.473 151.559 
152.405 152.627 153.538 153.768 154.633 151.269 150.847 151.054 150.739 
151.208 151.049 151.69 151.574 152.28 152.226 153.057 153.149 154.078 
154.244 155.136 155.295 156.115 152.201 151.815 152.066 151.726 152.163 
151.96 152.57 152.459 153.156 153.092 153.879 153.897 154.774 154.862 
155.732 155.84 156.653 156.769 157.539 152.82 153.933 153.157 152.789 
155.265 154.418 154.084 153.231 152.945 156.774 155.87 155.597 154.659 
154.367 153.507 153.335 158.568 157.543 157.337 156.295 156.018 155.028 
154.829 153.997 153.928 160.593 159.507 159.35 158.204 157.969 156.824 
156.614 155.609 155.548 154.699 154.714 162.586 161.564 161.449 160.32 
160.139 158.934 158.744 157.57 157.476 156.459 156.479 155.583 155.624 
164.507 163.531 163.471 162.411 162.299 161.156 161.037 159.83 159.723 
158.543 158.488 157.441 157.439 156.519 156.539 166.442 165.48 165.487 
164.455 164.425 163.329 163.297 162.148 162.1 160.882 160.786 159.573 
159.481 158.395 158.356 157.42 157.427 168.337 167.428 167.498 166.519 
166.565 165.503 165.518 164.408 164.401 163.242 163.172 161.934 161.795 
160.556 160.433 159.321 159.268 158.31 158.307 159.098 160.163 159.997 
160.827 161.446 161.228 162.195 161.961 162.985 162.892 162.666 163.752 
163.5 164.65 164.37 165.557 164.295 164.155 165.317 165.141 166.403 
166.165 167.449 167.123 168.342 165.55 165.514 166.736 166.679 168.054 
167.953 169.391 169.126 170.453 169.996 171.155 166.714 166.752 168.061 
168.081 169.56 169.589 171.205 171.108 172.614 172.224 173.492 172.88 
173.981 167.761 167.894 169.272 169.401 170.948 171.087 172.796 172.886 
174.539 174.365 175.732 175.248 176.382 175.727 176.733 168.644 168.861 
170.252 170.53 172.122 172.412 174.148 174.395 176.098 176.154 177.587 
177.338 178.473 177.999 178.97 178.358 179.193 169.429 169.666 171.039 
171.407 173.043 173.48 175.269 175.649 177.372 177.575 179.04 178.995 
180.155 179.88 180.828 180.39 181.191 180.606 181.246 151.133 150.587 
150.481 149.893 150.516 150.13 149.492 149.361 149.052 150.765 150.306 
149.704 149.275 148.909 148.816 148.796 150.763 150.518 149.934 149.579 
149.099 148.858 148.695 148.726 148.795 150.514 150.349 149.763 149.593 
149.057 148.918 148.61 148.629 148.623 148.759 148.876 150.62 150.243 
149.752 149.437 149.001 148.791 148.528 148.487 148.487 148.605 148.779 
148.915 149.072 151.158 150.65 150.272 149.751 149.403 148.969 148.76 
148.53 148.533 148.531 148.7 148.83 149.007 149.114 149.187 151.704 
151.258 150.87 150.391 149.976 149.508 149.158 148.844 148.676 148.595 
148.613 148.72 148.83 148.987 149.062 149.155 149.166 152.112 151.709 
151.252 150.858 150.356 149.952 149.45 149.123 148.754 148.621 148.464 
148.537 148.561 148.747 148.856 149.013 149.11 149.171 149.262 151.348 
150.185 150.988 151.47 149.352 149.952 150.535 151.25 151.767 149.04 
149.36 149.908 150.482 151.121 151.69 152.243 148.967 149.141 149.525 
149.971 150.576 151.151 151.79 152.311 152.922 148.987 149.042 149.251 
149.56 150.018 150.588 151.206 151.832 152.44 153.009 153.558 149.146 
149.099 149.233 149.331 149.689 150.066 150.646 151.215 151.822 152.421 
152.937 153.506 153.935 149.255 149.255 149.403 149.427 149.779 149.942 
150.516 150.842 151.477 151.889 152.449 152.898 153.374 153.842 154.278 
149.238 149.294 149.487 149.595 149.994 150.152 150.723 150.923 151.542 
151.772 152.352 152.618 153.146 153.452 153.946 154.304 154.794 149.338 
149.318 149.564 149.676 150.145 150.355 150.944 151.153 151.718 151.908 
152.431 152.646 153.158 153.393 153.885 154.132 154.608 154.913 155.4 
152.102 152.187 152.459 153.069 152.37 152.57 153.191 153.419 154.045 
152.744 152.795 153.408 153.604 154.321 154.533 155.3 153.421 153.311 
153.9 153.946 154.696 154.875 155.672 155.884 156.681 154.111 154.06 
154.645 154.594 155.3 155.355 156.123 156.262 157.034 157.241 158.075 
154.497 154.62 155.226 155.301 155.974 156.023 156.749 156.794 157.56 
157.662 158.547 158.752 159.757 154.803 154.929 155.564 155.738 156.442 
156.604 157.348 157.444 158.216 158.287 159.174 159.33 160.351 160.571 
161.569 155.287 155.321 155.986 156.102 156.855 157.021 157.804 157.969 
158.744 158.895 159.72 159.926 160.852 161.118 162.035 162.265 163.035 
155.871 155.876 156.543 156.618 157.377 157.498 158.271 158.412 159.151 
159.319 160.067 160.317 161.139 161.467 162.305 162.606 163.338 163.536 
164.14 160.017 159.437 159.403 158.787 158.799 158.799 158.187 158.208 
157.633 158.099 158.104 157.437 157.521 156.934 157.025 156.429 157.457 
157.391 156.649 156.691 156.046 156.206 155.636 155.768 155.158 156.961 
156.811 156.033 155.938 155.232 155.299 154.749 154.926 154.412 154.511 
153.92 156.543 156.376 155.618 155.425 154.691 154.593 154.032 154.121 
153.687 153.801 153.277 153.295 152.685 156.146 155.994 155.317 155.108 
154.419 154.196 153.606 153.539 153.117 153.175 152.703 152.69 152.052 
152.028 151.417 155.826 155.658 155.074 154.886 154.301 154.044 153.471 
153.256 152.794 152.721 152.278 152.202 151.591 151.454 150.798 150.785 
150.309 155.638 155.423 154.879 154.699 154.18 153.971 153.441 153.198 
152.7 152.512 152.053 151.892 151.348 151.123 150.509 150.32 149.844 
149.844 149.585 
POINT_DATA 1002
SCALARS Distance double
LOOKUP_TABLE default
153.511 152.544 153.214 154.313 153.99 154.735 155.201 154.936 155.559 
156.096 156.229 155.985 156.498 156.966 157.683 157.372 157.077 157.668 
158.089 158.764 159.623 158.625 158.321 158.995 159.463 160.076 160.848 
161.659 159.969 159.671 160.353 160.849 161.418 162.069 162.834 163.565 
161.219 160.87 161.656 162.18 162.719 163.284 164.003 164.798 165.464 
162.294 161.869 162.848 163.488 164.087 164.656 165.364 166.185 166.882 
167.382 163.325 162.826 163.982 164.735 165.428 166.067 166.835 167.718 
168.442 168.89 169.209 152.138 152.703 151.641 152.137 151.034 153.48 
151.718 150.714 153.029 154.526 151.724 150.929 152.855 154.23 155.65 
151.938 151.146 152.915 154.158 155.453 156.827 151.96 150.96 152.931 
154.119 155.416 156.729 158.2 151.941 150.821 152.946 154.032 155.33 
156.686 158.127 159.598 152.157 151.143 153.108 154.062 155.228 156.56 
157.978 159.452 160.772 152.533 151.758 153.314 154.173 155.261 156.512 
157.821 159.222 160.6 161.779 152.765 153.374 153.62 154.26 154.706 
154.134 155.625 156.113 155.324 155.268 157.203 157.474 156.977 156.829 
156.648 158.695 158.959 158.575 158.526 158.309 157.972 160.449 160.807 
160.172 160.075 159.948 159.606 159.301 162.273 162.501 161.958 161.707 
161.55 161.3 160.957 160.717 163.661 163.714 163.51 163.304 163.132 
162.955 162.677 162.339 162.032 164.747 164.704 164.755 164.694 164.586 
164.472 164.305 164.015 163.618 163.196 164.268 164.794 166.086 165.308 
166.68 168.016 165.687 167.16 168.6 169.916 165.9 167.466 169.035 
170.58 172.094 166.027 167.661 169.316 171.046 172.892 174.544 166.127 
167.827 169.516 171.266 173.317 175.288 176.7 166.14 167.891 169.662 
171.373 173.391 175.574 177.3 178.456 166.029 167.732 169.594 171.407 
173.385 175.567 177.526 179.007 180.185 165.87 167.411 169.232 171.179 
173.286 175.49 177.511 179.208 180.658 181.939 165.005 166.99 165.853 
168.95 167.832 166.642 171.054 169.844 168.591 167.359 173.614 172.369 
170.932 169.553 168.253 176.086 175.2 173.903 172.301 170.793 169.327 
178.055 177.549 176.758 175.331 173.555 171.879 170.193 179.949 179.589 
179.099 178.082 176.371 174.424 172.531 170.66 181.958 181.735 181.309 
180.518 179.125 177.212 175.076 172.925 170.93 183.808 183.883 185.546 
185.442 186.832 183.576 186.285 187.797 184.827 182.877 186.754 188.456 
185.303 183.852 181.736 187.025 188.307 185.511 184.24 182.62 180.081 
186.65 187.179 185.52 184.28 182.982 180.847 177.871 185.436 185.499 
184.844 183.824 182.627 180.903 178.228 175.273 183.743 183.671 183.442 
182.726 181.653 180.145 177.925 175.207 172.752 181.94 181.83 181.732 
181.22 180.361 179.023 177.132 174.832 172.543 170.657 182.784 184.712 
183.375 185.303 183.69 186.461 185.496 183.569 187.121 188.013 184.973 
182.754 187.102 188.876 189.345 183.672 181.311 185.997 188.468 190.02 
189.709 181.952 179.527 184.239 186.726 188.958 189.598 188.632 179.948 
177.543 182.239 184.501 186.729 188.052 187.843 186.744 177.652 175.448 
179.864 181.979 184.03 185.659 186.19 185.657 184.7 175.292 173.424 
177.236 179.127 180.973 182.675 183.768 183.911 183.393 182.653 165.336 
166.699 166.066 167.575 166.819 168.398 168.504 167.602 169.464 170.435 
169.608 168.551 170.751 171.907 172.83 170.919 169.691 172.234 173.592 
174.748 175.375 172.294 170.852 173.768 175.262 176.599 177.428 177.643 
173.565 171.878 175.255 176.905 178.378 179.351 179.671 179.543 174.634 
172.739 176.557 178.405 180.067 181.251 181.722 181.633 181.25 164.005 
164.552 163.117 163.548 161.99 165.196 162.327 160.827 164.098 165.877 
161.167 159.855 162.851 164.764 166.609 160.247 159.022 161.695 163.546 
165.515 167.502 159.406 158.161 160.677 162.318 164.321 166.375 168.53 
158.496 157.272 159.705 161.151 163.066 165.172 167.276 169.513 157.602 
156.474 158.803 160.158 161.901 163.949 166.006 168.099 170.367 156.861 
155.869 158.039 159.381 160.954 162.799 164.763 166.742 168.843 171.109 