# vtk DataFile Version 4.0
vtk output
ASCII
DATASET POLYDATA
POINTS 1002 float
-101.411 -76.9306 75.1284 -101.44 -76.2972 74.0227 -102 -76.295 74.8159 
-101.958 -76.931 76.005 -102.433 -76.1227 75.8221 -101.575 -77.761 76.3003 
-102.377 -76.7825 77.1882 -102.825 -75.8676 77.0092 -102.125 -77.8103 77.2959 
-101.906 -78.7726 77.5583 -102.844 -76.6967 78.4547 -103.439 -75.916 78.0523 
-102.575 -77.8125 78.6153 -102.461 -78.9652 78.7378 -102.253 -79.9275 79.0517 
-103.632 -77.0321 79.39 -104.274 -76.3176 78.886 -103.206 -77.9901 79.7981 
-102.994 -79.1646 80.0799 -102.776 -80.2414 80.4058 -102.56 -81.2206 80.8005 
-104.604 -77.5733 80.1702 -105.088 -76.692 79.8238 -104.151 -78.4656 80.6009 
-103.795 -79.4965 81.0945 -103.432 -80.5581 81.6127 -103.137 -81.5786 82.1017 
-103.038 -82.6723 82.4683 -105.456 -77.9379 81.1328 -105.794 -76.9846 80.8472 
-105.079 -78.9084 81.4591 -104.727 -79.9269 81.9412 -104.34 -80.9937 82.5175 
-103.952 -82.008 83.0734 -103.775 -83.0918 83.5146 -103.771 -84.2601 83.8274 
-106.18 -78.302 82.0868 -106.473 -77.413 81.6844 -105.819 -79.251 82.4998 
-105.46 -80.2777 82.9863 -105.197 -81.4615 83.4804 -104.909 -82.5931 83.9268 
-104.659 -83.6379 84.3452 -104.584 -84.7746 84.7031 -104.571 -85.9027 85.0006 
-106.906 -78.8314 82.8499 -107.165 -77.9367 82.3661 -106.559 -79.753 83.4029 
-106.128 -80.6877 84.0009 -105.88 -81.8632 84.4939 -105.79 -83.1742 84.8299 
-105.601 -84.306 85.1615 -105.42 -85.3741 85.5228 -105.378 -86.4923 85.8164 
-105.37 -87.5151 86.0467 -107.609 -79.351 83.5461 -107.807 -78.4041 83.0721 
-107.35 -80.3418 84.0978 -106.941 -81.2607 84.7218 -106.612 -82.3295 85.2634 
-106.569 -83.6866 85.6138 -106.525 -84.9814 85.9212 -106.315 -86.0596 86.2979 
-106.181 -87.1215 86.6155 -106.203 -88.1688 86.7921 -106.243 -89.0812 86.9106 
-101.978 -75.7624 73.4167 -102.474 -75.6095 74.2881 -102.491 -75.0402 72.8142 
-102.839 -74.6506 73.7673 -102.846 -74.0365 72.2369 -102.857 -75.301 75.3595 
-103.199 -73.5599 73.2672 -103.363 -73.1189 71.6791 -103.276 -74.3516 74.8578 
-103.377 -75.122 76.4859 -103.954 -72.8057 72.7453 -104.322 -72.6222 71.1138 
-103.856 -73.4706 74.3686 -103.994 -74.3884 75.929 -104.132 -75.2879 77.4524 
-105.015 -72.3998 72.1722 -105.371 -72.2286 70.5899 -104.768 -72.8604 73.848 
-104.691 -73.6365 75.4674 -104.767 -74.5427 76.9468 -104.893 -75.5505 78.4293 
-105.91 -71.8508 71.6511 -106.158 -71.5819 70.2067 -105.762 -72.3265 73.2587 
-105.557 -72.9247 74.9982 -105.392 -73.6869 76.5932 -105.421 -74.6624 78.0744 
-105.571 -75.7969 79.5648 -106.614 -71.0778 71.285 -106.829 -70.8904 69.9332 
-106.577 -71.6249 72.7469 -106.466 -72.263 74.4528 -106.182 -72.9316 76.2093 
-106.042 -73.8611 77.7658 -106.122 -75.0252 79.2379 -106.268 -76.2186 80.5921 
-107.349 -70.439 71.0195 -107.568 -70.4413 69.653 -107.27 -70.8881 72.452 
-107.222 -71.6176 74.0294 -107 -72.3473 75.7604 -106.782 -73.2026 77.4189 
-106.8 -74.3669 78.8986 -106.904 -75.6127 80.2355 -106.999 -76.7735 81.3851 
-108.138 -70.1142 70.7739 -108.353 -70.2162 69.3562 -107.95 -70.3655 72.313 
-107.836 -71.0161 73.8622 -107.69 -71.8376 75.4212 -107.491 -72.6641 77.0231 
-107.442 -73.6843 78.5693 -107.552 -74.9454 79.9269 -107.637 -76.1768 81.0848 
-107.693 -77.2926 82.118 -109.019 -70.0289 70.0452 -108.757 -70.0764 71.7757 
-109.645 -70.1251 71.1273 -109.38 -70.2355 73.1077 -110.291 -70.4833 72.4591 
-108.513 -70.436 73.5648 -110.151 -70.5745 74.3347 -111.016 -71.0483 73.6113 
-109.202 -70.6524 74.8558 -108.38 -71.212 75.1329 -110.861 -71.3907 75.1556 
-111.515 -72.0286 74.4892 -110.041 -71.2291 75.7819 -109.152 -71.6404 76.2291 
-108.254 -72.1818 76.6157 -111.191 -72.8683 75.954 -111.629 -73.4415 75.4384 
-110.612 -72.4864 76.6229 -109.957 -72.5674 77.2382 -109.03 -72.836 77.7844 
-108.119 -73.1709 78.254 -111.409 -74.3713 77.0678 -111.631 -74.7649 76.6095 
-110.96 -73.9682 77.8431 -110.53 -73.8406 78.604 -109.813 -73.8994 79.1547 
-108.871 -74.0052 79.5668 -108.14 -74.3832 79.8166 -111.668 -75.5158 78.3783 
-111.639 -75.8842 77.91 -111.406 -75.0896 79.2531 -111.094 -74.8651 80.1805 
-110.578 -74.9828 80.6982 -109.701 -75.164 80.9049 -108.876 -75.378 81.0362 
-108.255 -75.7633 81.0809 -111.765 -76.845 79.7955 -111.625 -77.2205 79.2873 
-111.705 -76.3579 80.63 -111.55 -75.9266 81.5909 -111.246 -75.9211 82.1521 
-110.546 -76.2774 82.2248 -109.664 -76.5873 82.2173 -108.938 -76.7819 82.248 
-108.31 -77.0144 82.2005 -111.777 -78.5619 81.2462 -111.659 -78.8114 80.6659 
-111.789 -78.1771 81.9738 -111.716 -77.6449 82.8169 -111.562 -77.2767 83.4417 
-111.125 -77.3692 83.5829 -110.368 -77.7056 83.5044 -109.577 -77.8985 83.4999 
-108.913 -77.9742 83.4587 -108.333 -78.1412 83.2792 -108.259 -79.4485 84.1863 
-108.732 -79.2114 84.5478 -108.653 -80.7124 85.3745 -109.317 -79.1261 84.7991 
-109.103 -80.6087 85.8051 -108.991 -82.3299 86.5258 -110.06 -79.0914 84.869 
-109.783 -80.6327 86.0521 -109.559 -82.4801 86.9221 -109.391 -84.3592 87.8153 
-110.842 -78.9448 84.9293 -110.605 -80.6513 86.1646 -110.408 -82.6641 87.108 
-110.129 -84.7354 88.1435 -109.949 -86.6699 89.2443 -111.425 -78.9297 84.9209 
-111.278 -80.706 86.2361 -111.181 -82.8047 87.2639 -110.976 -85.0879 88.2839 
-110.713 -87.1661 89.4598 -110.732 -89.26 90.3067 -111.741 -79.3184 84.5156 
-111.762 -81.0205 85.9669 -111.701 -82.9827 87.2613 -111.572 -85.3818 88.4664 
-111.456 -87.6621 89.5888 -111.481 -89.8104 90.444 -111.726 -92.1472 90.9627 
-111.906 -79.8654 83.8032 -112.135 -81.475 85.3005 -112.187 -83.1946 86.7157 
-112.034 -85.5525 88.3232 -112.059 -88.0591 89.7327 -112.279 -90.2687 90.5943 
-112.497 -92.5789 91.155 -112.667 -94.9409 91.7098 -111.939 -80.2193 83.1039 
-112.267 -81.7744 84.6678 -112.499 -83.3297 85.9767 -112.442 -85.5614 87.6151 
-112.54 -88.2283 89.4223 -112.979 -90.5437 90.601 -113.296 -92.76 91.2316 
-113.348 -95.1603 91.8542 -113.311 -97.3007 92.482 -111.847 -80.3623 82.4427 
-112.119 -81.8724 84.1468 -112.378 -83.38 85.507 -112.475 -85.4977 86.9135 
-112.691 -88.2117 88.6759 -113.297 -90.6445 90.1582 -113.834 -92.7655 90.9798 
-113.91 -95.1272 91.6354 -113.781 -97.4839 92.3395 -113.699 -99.3242 92.8088 
-108.111 -80.5813 84.6647 -108.533 -82.0139 85.8133 -107.858 -81.7005 85.2038 
-108.886 -83.8417 87.0795 -108.352 -83.3561 86.3226 -107.516 -82.8312 85.7758 
-109.353 -86.1439 88.6204 -108.858 -85.5603 87.7012 -108.207 -84.9202 86.8883 
-107.376 -84.2583 86.2504 -110.129 -88.8355 89.9599 -109.566 -88.2645 89.21 
-108.948 -87.5427 88.3065 -108.219 -86.6861 87.446 -107.397 -85.7898 86.6572 
-111.17 -91.903 90.7484 -110.568 -91.3233 90.2854 -109.843 -90.43 89.633 
-109.028 -89.3499 88.8573 -108.173 -88.1752 87.9708 -107.246 -87.035 87.1014 
-112.148 -94.9956 91.5486 -111.555 -94.5787 91.196 -110.825 -93.5812 90.6771 
-109.943 -92.2057 90.0466 -108.985 -90.7571 89.2695 -108.015 -89.3715 88.3694 
-107.056 -88.1376 87.4696 -112.843 -97.5521 92.496 -112.234 -97.4574 92.2933 
-111.561 -96.7806 91.8316 -110.84 -95.4471 91.1413 -109.96 -93.7723 90.3565 
-108.97 -92.1039 89.4968 -108 -90.5704 88.5552 -107.071 -89.2475 87.6309 
-113.335 -99.5771 92.9744 -112.727 -99.6593 92.9765 -112.039 -99.4367 92.7513 
-111.486 -98.6084 92.1695 -110.885 -97.1229 91.364 -110.015 -95.2973 90.5311 
-109.056 -93.4306 89.6015 -108.133 -91.702 88.588 -107.184 -90.2456 87.6718 
-113.882 -101.517 92.6702 -113.417 -101.674 92.7618 -114.083 -103.99 91.9071 
-113.446 -104.184 91.9516 -114.164 -106.906 91.0136 -112.658 -101.715 92.808 
-113.369 -106.994 91.148 -114.103 -109.76 90.395 -112.637 -104.069 92.0679 
-112.021 -101.4 92.6156 -113.193 -109.251 90.6152 -113.912 -111.583 89.8214 
-112.614 -106.335 91.2672 -112.151 -103.334 91.9257 -111.609 -100.361 92.0421 
-112.924 -110.224 90.0715 -113.432 -111.951 89.1641 -112.487 -107.822 90.6253 
-112.165 -104.859 91.1188 -111.684 -101.822 91.5592 -110.929 -98.61 91.3454 
-112.521 -109.884 89.4744 -112.713 -111.076 88.6277 -112.257 -108.111 90.0754 
-111.93 -105.585 90.4835 -111.446 -102.705 91.001 -110.756 -99.6821 91.1573 
-109.941 -96.4621 90.5377 -112.004 -108.548 88.9526 -112.034 -109.242 88.2697 
-111.876 -107.26 89.6076 -111.524 -105.283 90.0726 -110.99 -102.826 90.5458 
-110.368 -100.143 90.8265 -109.717 -97.1998 90.3936 -108.978 -94.2458 89.4604 
-111.381 -106.578 88.5732 -111.41 -106.781 88.078 -111.269 -105.738 89.2078 
-110.923 -104.239 89.7732 -110.419 -102.254 90.2266 -109.898 -100.008 90.4589 
-109.37 -97.4708 90.1241 -108.749 -94.754 89.2632 -107.985 -92.2734 88.3644 
-110.638 -104.315 88.338 -110.701 -104.153 87.9808 -110.502 -103.925 88.8707 
-110.185 -102.91 89.44 -109.754 -101.348 89.888 -109.341 -99.4552 90.0663 
-108.908 -97.3271 89.7862 -108.34 -94.9865 89.0602 -107.63 -92.6828 88.2117 
-106.888 -90.7028 87.4978 -113.982 -100.362 92.4678 -114.225 -102.932 92.0699 
-114.149 -101.365 91.7692 -114.438 -104.122 91.3031 -114.288 -101.971 90.9342 
-114.507 -105.754 91.2231 -114.611 -104.592 90.483 -114.345 -101.94 90.2797 
-114.724 -107.041 90.5442 -114.669 -108.956 90.3841 -114.622 -104.203 89.7802 
-114.1 -101.277 89.8807 -114.811 -107.397 89.7358 -114.947 -110.412 89.6361 
-114.754 -111.899 89.5942 -114.271 -103.037 89.3399 -113.566 -99.9934 89.4927 
-114.676 -106.557 89.0221 -114.963 -110.622 88.7726 -115.116 -113.362 88.6107 
-114.53 -113.447 88.7486 -113.656 -101.201 89.0422 -112.945 -98.0697 88.9038 
-114.231 -104.546 88.7374 -114.648 -108.788 88.3067 -114.981 -112.859 87.9644 
-114.73 -114.352 87.8693 -113.717 -113.176 88.1571 -112.911 -98.8006 88.6027 
-112.261 -95.6583 88.0761 -113.566 -101.943 88.663 -114.067 -105.437 88.3543 
-114.435 -109.543 87.9557 -114.451 -112.631 87.6842 -113.753 -113.008 87.6663 
-112.745 -111.377 87.9101 -112.047 -95.9966 87.8277 -111.525 -93.18 87.0228 
-112.724 -99.0779 88.2979 -113.312 -101.999 88.359 -113.686 -105.064 88.1422 
-113.855 -108.269 87.8913 -113.58 -110.219 87.7373 -112.806 -110.038 87.713 
-111.994 -108.542 87.8348 -111.205 -93.2616 86.7224 -110.877 -91.1211 85.8162 
-111.79 -96.008 87.4381 -112.414 -98.7676 87.8576 -112.813 -101.161 87.9739 
[...]
CELL_DATA 2000
SCALARS Distance double
LOOKUP_TABLE default
146.489 147.265 147.052 147.461 148.028 147.84 148.312 148.146 148.72 
148.919 148.674 149.226 149.053 149.717 149.549 150.25 150.052 149.714 
150.317 150.075 150.815 150.63 151.409 151.196 151.972 151.318 150.967 
151.602 151.29 152.046 151.814 152.626 152.406 153.214 152.993 153.841 
152.545 152.253 152.912 152.611 153.351 153.098 153.912 153.673 154.493 
154.254 155.11 154.918 155.837 153.703 153.461 154.139 153.881 154.605 
154.376 155.197 154.986 155.84 155.586 156.442 156.206 157.122 156.946 
157.883 154.831 154.618 155.333 155.096 155.826 155.594 156.408 156.24 
157.141 156.951 157.835 157.581 158.466 158.244 159.17 158.986 159.887 
155.916 155.742 156.494 156.298 157.049 156.815 157.597 157.423 158.325 
158.211 159.151 158.965 159.849 159.605 160.49 160.277 161.173 160.967 
161.815 146.129 145.858 146.294 146.866 145.405 145.927 146.483 146.986 
147.574 144.914 145.395 145.987 146.552 147.217 147.735 148.435 144.808 
145.053 145.676 146.128 146.901 147.425 148.223 148.715 149.537 145.053 
145.162 145.759 146.027 146.794 147.216 148.045 148.528 149.36 149.876 
150.742 145.216 145.394 145.94 146.195 146.88 147.211 147.958 148.369 
149.155 149.662 150.508 151.072 151.94 145.23 145.441 145.961 146.282 
146.945 147.287 147.98 148.319 149.057 149.481 150.326 150.847 151.737 
152.266 153.113 145.334 145.466 145.98 146.265 146.949 147.308 148.027 
148.357 149.086 149.446 150.286 150.742 151.657 152.132 152.998 153.45 
154.252 145.61 145.665 146.174 146.358 147.033 147.339 148.084 148.413 
149.149 149.491 150.29 150.724 151.62 152.097 152.968 153.393 154.182 
154.588 155.341 145.963 146.855 146.426 146.582 148.02 147.469 147.637 
147.178 147.445 149.345 148.735 148.888 148.341 148.587 148.149 148.482 
150.654 150.067 150.216 149.647 149.888 149.376 149.684 149.229 149.566 
151.925 151.368 151.573 151.008 151.322 150.771 151.119 150.545 150.885 
150.362 150.744 153.215 152.697 153.019 152.452 152.892 152.327 152.788 
152.131 152.499 151.827 152.214 151.654 152.096 154.484 154.045 154.484 
153.977 154.506 153.987 154.545 153.911 154.321 153.567 153.909 153.228 
153.631 153.058 153.454 155.804 155.385 155.935 155.475 156.059 155.598 
156.191 155.656 156.107 155.406 155.714 154.972 155.29 154.63 154.969 
154.365 154.667 157.282 156.837 157.488 157.006 157.642 157.155 157.756 
157.252 157.732 157.121 157.441 156.735 156.997 156.295 156.566 155.9 
156.165 155.536 155.803 156.656 157.039 157.262 158.135 157.488 157.696 
158.592 158.808 159.742 157.964 158.184 159.135 159.336 160.329 160.521 
161.58 158.418 158.679 159.688 159.925 160.997 161.202 162.347 162.534 
163.755 158.745 159.111 160.161 160.476 161.608 161.893 163.103 163.351 
164.611 164.828 166.136 158.859 159.369 160.472 160.897 162.046 162.442 
163.692 164.068 165.376 165.67 166.989 167.238 168.609 158.809 159.425 
160.586 161.122 162.256 162.754 163.996 164.539 165.928 166.388 167.775 
168.081 169.458 169.737 171.141 158.649 159.334 160.506 161.141 162.235 
162.813 163.979 164.664 166.084 166.805 168.288 168.797 170.166 170.52 
171.854 172.196 173.466 158.389 159.104 160.233 160.949 161.997 162.647 
163.717 164.471 165.826 166.754 168.279 169.092 170.454 171.02 172.227 
172.707 173.866 174.283 175.295 156.739 158.244 157.455 157.383 159.852 
159.027 158.985 158.13 157.992 161.69 160.74 160.736 159.806 159.711 
158.752 158.591 163.912 162.8 162.869 161.754 161.756 160.643 160.569 
159.476 159.385 166.389 165.238 165.427 164.17 164.27 162.97 162.981 
161.693 161.625 160.409 160.289 168.968 167.851 168.179 166.906 167.07 
165.69 165.703 164.293 164.176 162.796 162.583 161.292 161.038 171.572 
170.527 170.972 169.74 169.957 168.558 168.54 167.064 166.872 165.394 
165.091 163.66 163.321 161.99 161.686 173.909 173.07 173.543 172.49 
172.742 171.441 171.437 169.935 169.727 168.14 167.814 166.242 165.869 
164.378 164.019 162.659 162.359 175.699 175.131 175.532 174.783 175.008 
174.021 174.055 172.772 172.609 171.066 170.754 169.089 168.698 167.05 
166.635 165.096 164.704 163.327 162.99 176.642 177.829 177.017 176.474 
178.996 178.124 177.542 176.706 175.989 180.279 179.303 178.607 177.718 
176.997 176.106 175.158 181.29 180.476 179.63 178.737 177.898 177.049 
176.116 175.118 173.851 181.443 181.085 180.165 179.523 178.523 177.792 
176.768 175.943 174.682 173.589 172.035 180.646 180.753 179.883 179.652 
178.588 178.1 176.94 176.339 175.051 174.218 172.656 171.565 169.895 
179.195 179.624 178.841 178.992 177.964 177.79 176.562 176.199 174.873 
174.325 172.804 171.966 170.271 169.29 167.679 177.376 178 177.293 
177.705 176.758 176.867 175.681 175.55 174.249 173.934 172.494 171.911 
170.278 169.475 167.832 167.018 165.583 175.387 176.11 175.485 176.045 
175.215 175.517 174.454 174.509 173.299 173.169 171.831 171.469 169.945 
169.336 167.736 167.035 165.577 164.939 163.724 176.84 177.379 177.506 
178.122 177.629 177.993 178.821 178.822 179.402 177.516 178.128 179.138 
179.467 180.31 180.244 180.814 176.973 177.822 178.89 179.595 180.675 
181.062 181.885 181.702 181.981 175.928 177.01 178.013 179.046 180.221 
181.149 182.232 182.58 182.969 182.551 182.217 174.372 175.677 176.568 
177.823 178.862 180.23 181.39 182.467 183.037 183.19 182.788 182.234 
181.351 172.343 173.854 174.683 176.092 176.887 178.402 179.309 180.929 
181.568 182.601 182.328 182.364 181.346 180.889 179.753 169.96 171.577 
172.357 173.952 174.609 176.133 176.68 178.338 178.78 180.388 180.31 
181.219 180.35 180.441 179.191 178.959 177.778 167.559 169.055 169.707 
171.391 171.997 173.618 173.981 175.516 175.675 177.277 177.219 178.643 
178.078 178.879 177.786 178.007 176.766 176.767 175.644 158.583 159.458 
159.484 160.419 160.356 160.37 161.299 161.321 162.183 161.316 161.308 
162.28 162.256 163.218 163.122 164.006 162.323 162.348 163.477 163.417 
164.586 164.409 165.55 165.242 166.307 163.326 163.42 164.733 164.765 
166.152 166.032 167.378 167.072 168.296 167.841 168.883 164.38 164.502 
165.94 166.077 167.609 167.652 169.094 168.938 170.158 169.821 170.817 
170.335 171.093 165.43 165.623 167.153 167.348 168.987 169.112 170.649 
170.587 171.832 171.557 172.52 172.115 172.883 172.342 172.911 166.255 
166.622 168.228 168.566 170.278 170.504 172.119 172.138 173.475 173.229 
174.252 173.816 174.636 174.106 174.771 174.116 174.591 166.801 167.329 
168.99 169.522 171.257 171.674 173.278 173.497 174.841 174.8 175.85 
175.547 176.365 175.889 176.54 175.953 176.426 175.72 176.005 157.583 
156.455 157.474 158.448 155.507 156.412 157.373 158.389 159.384 154.655 
155.503 156.382 157.347 158.317 159.337 160.317 153.661 154.558 155.308 
156.285 157.141 158.207 159.146 160.235 161.21 152.518 153.435 154.124 
155.101 155.865 156.928 157.811 158.962 159.936 161.093 162.113 151.507 
152.312 153.035 153.932 154.705 155.661 156.52 157.607 158.608 159.785 
160.857 162.027 163.118 150.772 151.425 152.127 152.933 153.707 154.582 
155.401 156.382 157.353 158.492 159.604 160.792 161.903 163.059 164.128 
150.231 150.762 151.346 152.059 152.752 153.595 154.353 155.284 156.163 
157.251 158.316 159.531 160.637 161.821 162.816 163.967 164.901 149.819 
150.242 150.723 151.295 151.909 152.653 153.39 154.247 155.075 156.06 
157.034 158.203 159.275 160.495 161.46 162.596 163.415 164.569 165.395 
149.788 150.1 150.15 150.662 150.524 150.55 151.086 151.147 151.822 
150.826 150.973 151.596 151.682 152.41 152.488 153.312 150.993 151.213 
151.935 152.17 153.008 153.16 154.032 154.105 155.011 151.387 151.497 
152.298 152.517 153.458 153.713 154.692 154.858 155.836 155.916 156.954 
152.027 152.085 152.967 153.071 154.06 154.227 155.294 155.503 156.618 
156.784 157.929 158.019 159.171 152.66 152.771 153.706 153.843 154.863 
154.976 156.062 156.213 157.412 157.608 158.849 159.003 160.177 160.255 
161.322 153.323 153.421 154.382 154.556 155.614 155.784 156.897 157.062 
158.278 158.477 159.744 159.92 161.086 161.189 162.218 162.274 163.23 
154.094 154.16 155.15 155.274 156.364 156.531 157.695 157.892 159.138 
159.359 160.633 160.819 162 162.091 163.146 163.17 164.179 164.183 
165.194 154.863 156.525 155.787 156.009 158.362 157.587 157.886 157.045 
157.276 160.396 159.558 159.982 159.084 159.403 158.436 158.689 162.691 
161.763 162.287 161.343 161.803 160.761 161.081 159.976 160.229 165.172 
164.215 164.802 163.802 164.356 163.3 163.71 162.533 162.777 161.577 
161.76 167.709 166.809 167.529 166.479 167.118 165.994 166.507 165.278 
165.576 164.252 164.372 163.08 163.134 170.204 169.436 170.389 169.381 
170.19 168.975 169.604 168.259 168.69 167.236 167.429 165.889 165.873 
164.41 164.331 172.495 171.94 173.107 172.322 173.352 172.225 172.963 
171.554 172.037 170.518 170.811 169.176 169.203 167.44 167.257 165.612 
165.436 174.392 174.09 175.34 174.91 176.115 175.34 176.213 174.96 
175.402 173.887 174.1 172.543 172.581 170.877 170.655 168.799 168.456 
166.739 166.493 154.467 154.293 154.933 156.067 154.121 154.77 155.966 
156.623 157.856 154.02 154.655 155.889 156.551 157.851 158.499 159.843 
153.788 154.519 155.734 156.469 157.786 158.506 159.924 160.613 162.094 
153.322 154.142 155.339 156.2 157.509 158.36 159.791 160.635 162.183 
162.952 164.506 152.956 153.678 154.924 155.765 157.149 158.032 159.493 
160.401 161.961 162.899 164.514 165.352 166.917 152.87 153.472 154.738 
155.468 156.916 157.757 159.287 160.14 161.688 162.601 164.224 165.199 
166.833 167.713 169.273 152.831 153.437 154.629 155.328 156.687 157.545 
159.056 159.957 161.476 162.353 163.909 164.867 166.514 167.506 169.117 
170.004 171.489 152.682 153.316 154.419 155.126 156.349 157.211 158.61 
159.597 161.071 162.047 163.541 164.525 166.115 167.147 168.768 169.747 
171.234 172.091 173.398 153.503 152.177 152.954 153.277 151.062 151.665 
151.831 152.667 153.034 149.987 150.544 150.571 151.255 151.497 152.44 
152.892 148.809 149.396 149.39 150.007 150.141 150.947 151.292 152.294 
152.691 147.626 148.202 148.21 148.809 148.894 149.608 149.826 150.705 
150.985 151.971 152.247 146.432 147.032 147.021 147.623 147.648 148.319 
148.419 149.212 149.362 150.258 150.473 151.477 151.829 145.197 145.813 
145.823 146.43 146.413 147.028 147.033 147.752 147.821 148.638 148.793 
149.732 150.078 151.171 151.696 144.2 144.681 144.799 145.324 145.379 
145.86 145.847 146.404 146.467 147.165 147.327 148.138 148.443 149.443 
149.947 151.106 151.675 143.65 143.927 144.128 144.519 144.692 145.027 
145.05 145.388 145.437 145.958 146.163 146.834 147.14 147.937 148.372 
149.38 149.934 151.069 151.593 143.523 143.478 143.638 143.966 143.385 
143.584 143.928 144.15 144.486 143.331 143.463 143.732 143.998 144.258 
144.523 144.753 143.427 143.424 143.508 143.684 143.829 144.138 144.356 
144.705 145.052 143.555 143.508 143.469 143.473 143.503 143.684 143.951 
144.314 144.813 145.201 145.791 143.645 143.592 143.613 143.538 143.616 
143.578 143.911 144.103 144.769 145.115 145.863 146.151 146.829 143.935 
143.763 143.924 143.828 144.123 143.987 144.433 144.395 145.12 145.302 
146.159 146.374 147.137 147.304 148.049 144.61 144.27 144.523 144.35 
144.833 144.703 145.275 145.142 145.836 145.853 146.7 146.825 147.652 
147.749 148.538 148.672 149.548 145.538 145.126 145.405 145.142 145.666 
145.53 146.146 146.022 146.663 146.61 147.376 147.45 148.291 148.369 
149.182 149.255 150.104 150.264 151.173 146.147 147.19 146.439 146.11 
148.481 147.636 147.357 146.581 146.4 149.985 149.045 148.757 147.913 
147.718 146.98 146.863 151.718 150.677 150.392 149.411 149.198 148.348 
148.221 147.472 147.397 153.669 152.567 152.372 151.239 151.076 150.016 
149.932 148.987 148.971 148.129 148.161 155.743 154.652 154.572 153.395 
153.305 152.12 152.072 150.944 150.946 149.918 149.963 149.047 149.104 
157.826 156.794 156.798 155.667 155.628 154.443 154.392 153.205 153.153 
152.021 151.992 150.961 150.956 150.015 150.016 159.845 158.888 158.959 
157.902 157.922 156.779 156.757 155.554 155.489 154.275 154.193 153.042 
152.984 151.93 151.908 150.934 150.949 161.783 160.893 161.024 160.047 
160.128 159.06 159.089 157.929 157.908 156.672 156.616 155.352 155.281 
154.065 154.016 152.913 152.92 151.93 151.994 152.916 153.876 153.808 
154.678 155.068 154.921 155.889 155.714 156.678 156.463 156.299 157.408 
157.145 158.205 157.914 158.985 157.847 157.765 158.98 158.787 159.928 
159.609 160.717 160.384 161.483 159.119 159.114 160.353 160.302 161.528 
161.348 162.547 162.235 163.417 162.998 164.08 160.297 160.347 161.628 
161.639 162.982 162.922 164.329 164.134 165.525 165.12 166.372 165.75 
166.802 161.341 161.48 162.852 162.95 164.44 164.462 166.054 165.98 
167.567 167.306 168.713 168.183 169.329 168.569 169.503 162.216 162.452 
163.877 164.137 165.734 165.94 167.608 167.701 169.308 169.248 170.669 
170.395 171.559 171.023 171.947 171.186 171.939 162.947 163.25 164.664 
165.056 166.67 167.088 168.762 169.077 170.621 170.76 172.098 172.068 
173.213 172.979 173.918 173.422 174.16 173.437 174.04 145.281 145.023 
145.025 144.841 144.904 144.828 144.638 144.648 144.494 144.836 144.735 
144.481 144.46 144.269 144.293 144.106 144.614 144.576 144.235 144.242 
143.987 144.036 143.843 143.889 143.74 144.356 144.272 143.905 143.906 
143.63 143.704 143.554 143.645 143.583 143.633 143.649 144.479 144.166 
143.837 143.66 143.433 143.402 143.317 143.395 143.404 143.502 143.559 
143.656 143.758 144.942 144.497 144.155 143.808 143.596 143.398 143.335 
143.283 143.282 143.325 143.32 143.456 143.482 143.687 143.719 145.322 
144.928 144.48 144.152 143.86 143.651 143.547 143.428 143.386 143.292 
143.215 143.202 143.155 143.3 143.311 143.526 143.509 145.548 145.177 
144.651 144.348 143.972 143.813 143.658 143.601 143.551 143.456 143.379 
143.233 143.188 143.124 143.189 143.232 143.322 143.386 143.426 145.398 
144.938 145.238 145.456 144.577 144.828 145.035 145.364 145.713 144.183 
144.453 144.663 144.995 145.378 145.767 146.299 143.798 144.024 144.216 
144.586 144.968 145.429 145.95 146.431 146.991 143.686 143.728 143.861 
144.123 144.471 144.946 145.428 145.97 146.435 146.975 147.376 143.849 
143.784 143.859 143.895 144.17 144.484 144.97 145.438 145.906 146.361 
146.723 147.198 147.519 143.89 143.949 144.027 144.003 144.19 144.321 
144.782 145.116 145.672 145.994 146.426 146.701 147.078 147.421 147.825 
143.668 143.855 143.989 144.102 144.288 144.4 144.795 145.046 145.616 
145.909 146.416 146.612 147.021 147.212 147.653 147.922 148.394 143.499 
143.618 143.815 143.999 144.302 144.478 144.896 145.103 145.62 145.884 
146.389 146.629 147.056 147.25 147.675 147.886 148.35 148.589 149.037 
145.813 145.878 146.075 146.653 146.12 146.194 146.778 147.041 147.793 
146.703 146.58 147.098 147.223 147.995 148.302 149.139 147.469 147.312 
147.768 147.678 148.342 148.534 149.389 149.686 150.48 147.938 148.015 
148.523 148.432 148.959 148.959 149.669 149.906 150.71 150.986 151.718 
148.043 148.285 148.854 149.016 149.536 149.569 150.112 150.212 150.89 
151.151 151.897 152.189 152.914 148.244 148.365 148.889 149.137 149.696 
149.932 150.493 150.639 151.234 151.384 152.067 152.319 153.058 153.361 
154.102 148.75 148.698 149.158 149.229 149.768 149.987 150.641 150.91 
151.619 151.797 152.496 152.617 153.338 153.526 154.291 154.563 155.365 
149.36 149.268 149.716 149.659 150.184 150.223 150.893 151.093 151.913 
152.171 153.002 153.15 153.906 153.973 154.726 154.855 155.679 155.917 
156.802 153.296 152.583 152.621 152.052 151.945 151.965 151.47 151.518 
151.041 151.322 151.352 150.846 150.944 150.502 150.551 150.015 150.728 
150.721 150.165 150.26 149.757 149.9 149.359 149.424 148.809 150.384 
150.227 149.632 149.576 148.987 149.073 148.526 148.669 148.116 148.191 
147.615 150.25 150.028 149.4 149.16 148.492 148.375 147.817 147.883 
147.428 147.519 147.007 147.027 146.439 150 149.874 149.247 148.995 
148.288 148.024 147.423 147.333 146.913 146.944 146.49 146.462 145.843 
145.8 145.176 149.62 149.545 148.975 148.803 148.16 147.896 147.299 
147.09 146.636 146.549 146.114 146.023 145.443 145.29 144.662 144.592 
144.131 149.316 149.197 148.679 148.532 147.992 147.792 147.28 147.051 
146.586 146.38 145.92 145.739 145.234 145.027 144.514 144.302 143.905 
143.804 143.596 
POINT_DATA 1002
SCALARS Distance double
LOOKUP_TABLE default
146.807 145.938 146.724 147.629 147.446 147.95 148.448 148.196 148.862 
149.35 149.381 149.183 149.854 150.438 150.965 150.579 150.395 150.992 
151.603 152.189 152.767 151.928 151.634 152.3 152.849 153.43 154.026 
154.733 153.201 152.803 153.608 154.147 154.743 155.309 155.998 156.783 
154.382 153.925 154.835 155.375 156.071 156.707 157.313 158.058 158.811 
155.549 155.022 156.072 156.575 157.277 158.078 158.724 159.363 160.09 
160.759 156.659 156.069 157.276 157.8 158.418 159.282 160.096 160.73 
161.379 162.052 162.636 145.729 146.433 145.415 145.936 144.866 147.084 
145.387 144.493 146.641 147.93 145.284 144.651 146.359 147.707 149.036 
145.556 144.955 146.44 147.587 148.845 150.201 145.675 145.022 146.593 
147.611 148.679 149.943 151.385 145.63 145.043 146.584 147.662 148.672 
149.825 151.215 152.614 145.729 145.235 146.585 147.681 148.743 149.847 
151.19 152.57 153.812 146.034 145.564 146.763 147.754 148.821 149.888 
151.139 152.534 153.802 154.934 146.295 146.955 147.32 148.137 148.608 
147.823 149.465 149.967 149.068 148.875 150.774 151.225 150.412 150.187 
149.994 152.109 152.446 151.841 151.717 151.457 151.209 153.54 153.662 
153.412 153.428 153.226 152.82 152.616 154.935 154.858 154.984 155.127 
155.084 154.659 154.251 154.027 156.366 156.194 156.511 156.688 156.762 
156.479 156.008 155.614 155.267 157.956 157.701 158.149 158.273 158.312 
158.126 157.721 157.265 156.821 156.409 157.491 157.888 159.028 158.381 
159.511 160.691 158.911 160.118 161.363 162.69 159.41 160.748 162.129 
163.554 165.027 159.802 161.275 162.808 164.378 165.909 167.477 159.998 
161.621 163.249 165.026 166.73 168.335 170.021 160.011 161.753 163.399 
165.349 167.415 169.184 170.86 172.547 159.847 161.664 163.292 165.254 
167.659 169.796 171.522 173.186 174.67 159.514 161.341 162.989 164.875 
167.357 169.825 171.746 173.419 175 176.218 158.215 159.841 158.9 
161.692 160.679 159.556 164.023 162.897 161.696 160.457 166.67 165.595 
164.323 162.929 161.492 169.413 168.461 167.159 165.632 163.971 162.29 
172.155 171.356 170.062 168.405 166.582 164.722 162.952 174.515 173.964 
172.912 171.344 169.437 167.426 165.461 163.647 176.214 175.873 175.191 
174.066 172.424 170.408 168.266 166.182 164.285 177.501 177.342 178.655 
178.386 179.959 176.908 179.578 181.313 177.869 176.224 180.548 182.016 
178.775 177.062 175.07 180.698 181.62 179.255 177.547 175.704 173.279 
179.945 180.375 179.009 177.505 175.776 173.68 171.015 178.556 178.658 
178.027 176.863 175.325 173.526 171.211 168.593 176.792 176.686 176.537 
175.718 174.468 172.96 171.002 168.625 166.283 174.859 174.623 174.811 
174.302 173.348 172.086 170.45 168.386 166.2 164.251 176.805 178.219 
177.119 178.649 177.126 179.603 178.618 176.812 180.157 181.181 178.045 
176.072 180.02 181.862 182.622 176.922 174.798 179.084 181.577 183.268 
183.021 175.318 173.006 177.474 180.045 182.564 183.284 182.063 173.244 
170.786 175.496 177.703 180.195 181.957 181.746 180.231 170.708 168.391 
173.126 175.212 177.135 179.028 179.96 179.353 177.995 168.072 166.217 
170.348 172.525 174.214 175.687 176.957 177.335 176.683 175.629 158.538 
160.405 159.435 161.276 160.361 162.222 162.293 161.301 163.276 164.161 
163.457 162.219 164.69 165.8 166.699 164.593 163.173 166.158 167.616 
168.725 169.472 165.747 164.225 167.487 169.191 170.481 171.272 171.712 
166.902 165.169 168.817 170.667 172.097 172.926 173.369 173.576 167.801 
165.8 169.988 172.038 173.662 174.675 175.165 175.386 175.364 156.514 
157.376 155.479 156.385 154.66 158.362 155.466 153.843 157.298 159.294 
154.369 152.774 156.095 158.033 160.114 153.165 151.619 154.844 156.66 
158.744 160.953 152.154 150.751 153.791 155.485 157.419 159.663 161.961 
151.373 150.198 152.858 154.476 156.248 158.396 160.756 162.996 150.72 
149.781 151.948 153.455 155.134 157.113 159.443 161.716 163.74 150.231 