# vtk DataFile Version 4.0
vtk output
ASCII
DATASET POLYDATA
POINTS 1002 float
-104.126 -78.4288 75.2849 -103.969 -77.6175 74.2824 -104.481 -77.5399 75.0844 
-104.672 -78.3878 76.1268 -105.089 -77.5058 75.9444 -104.342 -79.331 76.4013 
-105.277 -78.4484 77.0961 -105.639 -77.5033 77.0513 -104.894 -79.3417 77.3618 
-104.531 -80.2406 77.7526 -105.771 -78.5076 78.416 -106.029 -77.5085 78.483 
-105.421 -79.4651 78.5639 -105.067 -80.3755 78.8989 -104.78 -81.2893 79.2598 
-106.112 -78.5175 80.0154 -106.362 -77.591 79.9748 -105.822 -79.5521 80.123 
-105.512 -80.624 80.3761 -105.301 -81.6292 80.6564 -105.142 -82.5752 80.9114 
-106.515 -78.7326 81.4645 -106.899 -77.915 81.1802 -106.191 -79.7153 81.7473 
-105.911 -80.8908 82.0261 -105.723 -82.0564 82.3151 -105.574 -83.0827 82.5801 
-105.465 -84.1131 82.8172 -107.196 -79.2906 82.5621 -107.668 -78.4636 82.1462 
-106.756 -80.2178 83.055 -106.45 -81.3438 83.4511 -106.261 -82.5556 83.765 
-106.066 -83.6836 84.1039 -105.88 -84.7939 84.4253 -105.876 -85.9971 84.6587 
-107.968 -79.9178 83.5775 -108.351 -79.0275 83.1519 -107.528 -80.8792 84.1063 
-107.195 -81.9693 84.5464 -107.024 -83.1811 84.8232 -106.85 -84.4199 85.1149 
-106.613 -85.6355 85.5039 -106.524 -86.8558 85.8472 -106.664 -88.0681 86.0678 
-108.532 -80.4105 84.665 -108.801 -79.5205 84.1994 -108.222 -81.4269 85.1371 
-107.946 -82.5521 85.5133 -107.808 -83.7997 85.7368 -107.731 -85.1769 85.9361 
-107.573 -86.5683 86.2683 -107.438 -87.8269 86.675 -107.483 -88.9638 87.0007 
-107.627 -90.0476 87.221 -108.948 -80.867 85.6073 -109.191 -80.0273 85.0563 
-108.728 -81.9217 86.0706 -108.517 -83.1282 86.4072 -108.386 -84.4242 86.6469 
-108.373 -85.8477 86.8741 -108.364 -87.3612 87.1727 -108.3 -88.7466 87.5428 
-108.283 -89.9003 87.8971 -108.339 -90.9522 88.1696 -108.389 -91.9966 88.3667 
-104.295 -76.9165 73.7192 -104.899 -76.7983 74.5826 -104.939 -76.3312 73.045 
-105.53 -76.1007 73.9946 -105.659 -75.6208 72.388 -105.488 -76.6358 75.5906 
-106.125 -75.3371 73.4222 -106.14 -74.6492 71.8989 -106.011 -75.8134 75.1456 
-105.956 -76.5183 76.8849 -106.639 -74.4987 73.0445 -106.618 -73.7109 71.5751 
-106.613 -75.12 74.6481 -106.471 -75.6687 76.551 -106.333 -76.5425 78.4072 
-107.331 -73.711 72.8939 -107.4 -73.1123 71.3022 -107.338 -74.4604 74.3452 
-107.259 -75.0761 76.0876 -106.961 -75.7498 78.1061 -106.78 -76.7442 79.8449 
-108.115 -73.0691 72.8039 -108.232 -72.7539 71.0787 -108.098 -73.7213 74.2988 
-108.126 -74.5368 75.7823 -107.858 -75.2071 77.6588 -107.479 -75.9964 79.5643 
-107.453 -77.1471 80.9986 -108.806 -72.5964 72.6663 -108.981 -72.4073 70.9604 
-108.734 -73.0377 74.2742 -108.814 -73.8887 75.6959 -108.707 -74.7449 77.2968 
-108.295 -75.429 79.1753 -108.075 -76.3792 80.8134 -108.197 -77.6905 82.0252 
-109.566 -72.2838 72.5111 -109.791 -72.0371 70.9014 -109.414 -72.5838 74.1639 
-109.415 -73.2269 75.6921 -109.401 -74.1456 77.1552 -109.101 -74.9357 78.8159 
-108.747 -75.7355 80.5364 -108.68 -76.9101 81.9293 -108.764 -78.2771 83.0671 
-110.409 -72.1154 72.3962 -110.584 -71.7596 70.8475 -110.26 -72.3658 74.0612 
-110.145 -72.714 75.7163 -110.061 -73.4296 77.2131 -109.87 -74.3297 78.6539 
-109.544 -75.1926 80.2128 -109.307 -76.2578 81.6927 -109.238 -77.5964 82.9046 
-109.212 -78.8994 83.9975 -111.201 -71.9505 71.8272 -111.164 -72.2667 73.6031 
-111.912 -72.2696 73.1359 -111.949 -72.3683 75.1176 -112.716 -72.4858 74.6304 
-111.049 -72.398 75.4677 -112.617 -72.5863 76.497 -113.371 -72.8572 75.8623 
-111.717 -72.5069 76.9672 -110.822 -72.7747 77.186 -113.114 -73.4134 77.4056 
-113.748 -73.7921 76.8107 -112.243 -73.2384 77.9989 -111.367 -73.2573 78.4655 
-110.603 -73.667 78.6308 -113.56 -74.6676 78.3303 -114.101 -75.0467 77.8454 
-112.835 -74.5535 78.7746 -111.991 -74.4558 79.3267 -111.195 -74.446 79.8067 
-110.389 -74.739 80.0498 -113.979 -75.8944 79.5353 -114.453 -76.2847 78.9631 
-113.46 -75.7597 79.9444 -112.77 -75.7077 80.3669 -111.952 -75.6113 80.8731 
-111.085 -75.6514 81.2803 -110.148 -75.9006 81.5358 -114.221 -77.2626 80.6851 
-114.571 -77.6518 80.0902 -113.865 -77.0072 81.22 -113.378 -76.8359 81.7008 
-112.635 -76.7409 82.1351 -111.786 -76.8419 82.4495 -110.875 -77.0843 82.665 
-109.953 -77.3279 82.8386 -114.354 -78.8781 81.7686 -114.59 -79.2316 81.2949 
-114.068 -78.6159 82.2641 -113.7 -78.3751 82.7961 -113.072 -78.153 83.2849 
-112.285 -78.1866 83.5622 -111.501 -78.4705 83.6645 -110.647 -78.6855 83.7993 
-109.816 -78.7698 83.9641 -114.6 -80.4666 82.8432 -114.778 -80.792 82.4075 
-114.294 -80.2447 83.2604 -113.932 -80.1052 83.6868 -113.404 -79.9134 84.1275 
-112.685 -79.78 84.457 -111.972 -79.8966 84.5816 -111.27 -80.0654 84.6613 
-110.475 -80.0541 84.8506 -109.726 -79.9811 85.0384 -109.54 -81.174 86.052 
-110.215 -81.2699 85.9325 -110.107 -82.7787 86.8287 -111 -81.454 85.7115 
-110.849 -83.0077 86.6933 -110.83 -84.9282 87.5173 -111.719 -81.5313 85.5627 
-111.546 -83.2444 86.5779 -111.501 -85.2871 87.4854 -111.514 -87.3582 88.4736 
-112.407 -81.5085 85.4533 -112.212 -83.3771 86.4998 -112.087 -85.5677 87.5007 
-112.043 -87.8513 88.5038 -112 -89.8578 89.6002 -113.149 -81.5974 85.2291 
-112.956 -83.5037 86.3155 -112.781 -85.7378 87.4325 -112.611 -88.1639 88.4998 
-112.458 -90.4721 89.5246 -112.387 -92.634 90.4622 -113.789 -81.7174 84.9153 
-113.63 -83.6245 86.0456 -113.49 -85.8824 87.1895 -113.307 -88.2975 88.3899 
-113.067 -90.7754 89.4288 -112.918 -93.2993 90.3097 -112.985 -95.6919 91.1891 
-114.283 -81.7222 84.5704 -114.15 -83.5503 85.77 -113.988 -85.8887 86.8766 
-113.858 -88.3748 88.1169 -113.667 -90.8558 89.3197 -113.499 -93.5807 90.2159 
-113.557 -96.2747 91.0744 -113.78 -98.5456 92.0416 -114.731 -81.7912 84.1325 
-114.675 -83.4038 85.353 -114.423 -85.6804 86.4923 -114.228 -88.3499 87.7157 
-114.103 -90.9125 89.0376 -113.96 -93.6186 90.1163 -113.964 -96.4887 90.9509 
-114.183 -98.9678 91.8359 -114.416 -100.965 92.6554 -115.046 -82.0363 83.5937 
-115.14 -83.4201 84.7134 -114.883 -85.4358 85.9024 -114.564 -88.1627 87.2235 
-114.449 -90.9432 88.5934 -114.386 -93.5831 89.8109 -114.313 -96.389 90.754 
-114.392 -99.0717 91.5335 -114.598 -101.284 92.2107 -114.75 -103.206 92.6347 
-109.312 -82.2557 86.6295 -109.911 -84.2365 87.4138 -109.099 -83.6231 87.0715 
-110.68 -86.6306 88.323 -109.664 -85.88 88.0338 -108.895 -85.0965 87.4608 
-111.422 -89.1024 89.5365 -110.46 -88.3424 89.2608 -109.453 -87.5041 88.7208 
-108.822 -86.6018 87.8744 -111.966 -91.889 90.5544 -111.315 -91.0368 90.4005 
-110.328 -90.1539 90.0087 -109.442 -89.1574 89.321 -108.891 -88.1956 88.2885 
-112.502 -95.2069 91.3013 -111.989 -94.4273 91.1709 -111.26 -93.4414 90.8804 
-110.34 -92.2257 90.4627 -109.555 -90.9197 89.7303 -108.955 -89.7747 88.6541 
-113.295 -98.454 92.2191 -112.657 -98.0616 92.0938 -111.97 -97.3091 91.7738 
-111.228 -96.1061 91.3646 -110.428 -94.4418 90.7881 -109.664 -92.6727 89.9833 
-108.981 -91.1603 88.96 -114.11 -101.174 92.9886 -113.482 -101.147 93.0122 
-112.671 -100.751 92.8191 -111.948 -99.9425 92.4738 -111.335 -98.5474 91.8167 
-110.589 -96.4905 90.9907 -109.739 -94.2613 90.172 -109 -92.3891 89.218 
-114.61 -103.629 93.0114 -114.197 -103.812 93.1359 -113.472 -103.539 93.1002 
-112.675 -102.893 93.0611 -112.108 -101.976 92.7086 -111.567 -100.422 91.8998 
-110.698 -98.1097 91.089 -109.729 -95.6379 90.3571 -108.99 -93.5704 89.4262 
-114.906 -106.1 92.2555 -114.713 -106.596 92.4272 -115.058 -109.511 91.4663 
-114.8 -109.735 91.4215 -115.259 -112.597 90.8363 -114.29 -106.486 92.3722 
-114.883 -112.187 90.6942 -115.394 -114.654 90.2783 -114.366 -108.968 91.2512 
-113.565 -105.681 92.4258 -114.847 -113.629 90.1136 -115.368 -115.693 89.1787 
-114.321 -110.87 90.5213 -113.602 -107.62 91.426 -112.825 -104.675 92.5989 
-114.657 -114.13 89.225 -115.1 -115.591 87.9856 -114.102 -112.102 90.0614 
-113.428 -109.319 90.7191 -112.859 -106.254 91.7389 -112.315 -103.489 92.3108 
-114.188 -113.647 88.447 -114.4 -114.457 87.5068 -113.789 -112.353 89.4865 
-113.172 -110.311 90.2392 -112.671 -107.411 90.9978 -112.27 -104.492 91.6609 
-111.589 -101.529 91.6551 -113.353 -112.624 88.0821 -113.416 -113.017 87.4832 
-113.257 -111.668 88.9635 -112.902 -110.121 89.768 -112.438 -107.67 90.4432 
-111.988 -104.836 91.0967 -111.312 -102.044 91.3824 -110.456 -98.8997 91.0604 
-112.505 -111.277 87.9211 -112.614 -111.315 87.5299 -112.539 -110.5 88.6271 
-112.432 -109.125 89.4059 -112.083 -107.071 90.0438 -111.615 -104.567 90.6155 
-110.945 -102.051 91.0232 -110.119 -99.3153 90.9242 -109.448 -96.2968 90.2959 
-111.95 -109.166 87.9257 -112.141 -108.902 87.6881 -111.933 -108.723 88.4603 
-111.858 -107.649 89.1687 -111.534 -105.999 89.7804 -111.094 -103.895 90.2129 
-110.575 -101.661 90.5145 -109.883 -99.3148 90.5117 -109.222 -96.7068 90.0298 
-108.768 -94.1329 89.2199 -114.918 -104.358 92.0503 -115.195 -107.736 91.4506 
-115.172 -105.512 91.4437 -115.662 -109.208 90.7613 -115.431 -106.295 91.0208 
-115.599 -111.384 90.7632 -115.988 -109.906 90.3302 -115.438 -106.248 90.6362 
-116.366 -112.561 90.1222 -116.023 -114.281 90.2668 -115.886 -109.393 89.9052 
-115.284 -105.262 90.0713 -116.767 -112.476 89.5659 -116.963 -114.815 89.4129 
-116.213 -116.133 89.3082 -115.644 -107.84 89.3856 -115.192 -103.509 89.4796 
-116.469 -111.269 89.0347 -117.275 -113.964 88.6405 -117.072 -116.262 88.1517 
-116.066 -116.876 87.8285 -115.432 -105.402 89.0192 -115.019 -101.129 88.8678 
-115.862 -109.339 88.7085 -116.599 -112.373 88.2562 -117.103 -114.926 87.6236 
-116.589 -116.423 87.0469 -115.47 -115.988 87.0297 -115.076 -102.179 88.557 
-114.68 -98.4762 87.8783 -115.289 -106.322 88.6458 -115.566 -110.052 88.3178 
-116.147 -112.803 87.7331 -116.305 -114.417 87.1186 -115.572 -114.734 86.8865 
-114.433 -114.068 87.0957 -114.622 -98.8808 87.548 -114.312 -96.0608 86.5305 
-114.821 -102.399 88.2275 -114.86 -106.292 88.4048 -115.095 -109.597 88.0928 
-115.4 -111.526 87.5435 -115.177 -112.227 87.1843 -114.38 -112.315 87.1583 
-113.411 -112.057 87.2993 -114.178 -96.2005 86.2063 -113.947 -94.086 85.2477 
-114.421 -98.7997 87.1264 -114.508 -101.943 87.8181 -114.532 -105.164 88.0903 
[...]
CELL_DATA 2000
SCALARS Distance double
LOOKUP_TABLE default
149.087 149.864 149.69 150.188 150.769 150.541 151.051 150.872 151.435 
151.764 151.515 152.058 151.821 152.412 152.206 152.842 152.801 152.552 
153.134 152.888 153.529 153.289 153.997 153.756 154.503 153.916 153.634 
154.263 154.011 154.72 154.484 155.275 155.027 155.853 155.57 156.418 
155.182 154.844 155.528 155.229 156.007 155.75 156.609 156.369 157.254 
156.985 157.87 157.587 158.534 156.505 156.182 156.902 156.586 157.39 
157.111 157.992 157.746 158.663 158.41 159.335 159.065 160.035 159.788 
160.834 157.705 157.472 158.197 157.95 158.735 158.492 159.344 159.124 
160.046 159.831 160.801 160.559 161.567 161.314 162.363 162.13 163.188 
158.738 158.583 159.302 159.149 159.916 159.749 160.568 160.406 161.313 
161.173 162.175 162.018 163.06 162.852 163.891 163.656 164.68 164.445 
165.434 148.605 148.293 148.73 149.386 148.106 148.488 149.089 149.55 
150.256 147.837 148.279 148.848 149.276 149.929 150.448 151.21 147.534 
147.988 148.629 149.047 149.703 150.158 150.906 151.44 152.242 147.496 
147.825 148.572 148.923 149.669 150.032 150.799 151.219 152.033 152.522 
153.362 147.717 147.949 148.704 148.998 149.8 150.12 150.919 151.236 
152.03 152.407 153.252 153.717 154.609 147.999 148.193 148.878 149.157 
149.934 150.282 151.093 151.411 152.17 152.473 153.258 153.66 154.534 
155.018 155.913 148.344 148.477 149.128 149.335 150.08 150.4 151.217 
151.563 152.326 152.615 153.34 153.679 154.488 154.941 155.807 156.296 
157.12 148.776 148.876 149.551 149.67 150.404 150.606 151.404 151.695 
152.479 152.764 153.487 153.773 154.532 154.908 155.739 156.185 156.999 
157.445 158.185 149.255 150.43 149.918 150.114 151.79 151.21 151.399 
150.815 150.985 153.106 152.56 152.704 152.124 152.258 151.703 151.919 
154.321 153.805 153.945 153.391 153.523 152.971 153.167 152.67 152.938 
155.631 155.06 155.286 154.687 154.904 154.294 154.54 153.965 154.237 
153.707 153.971 157.05 156.472 156.782 156.166 156.485 155.822 156.135 
155.463 155.773 155.122 155.406 154.785 155.06 158.425 157.908 158.262 
157.714 158.088 157.474 157.808 157.133 157.439 156.751 157.045 156.35 
156.628 155.958 156.262 159.8 159.29 159.694 159.182 159.597 159.05 
159.401 158.773 159.055 158.396 158.676 158.012 158.282 157.592 157.85 
157.189 157.48 161.253 160.731 161.16 160.634 161.062 160.538 160.913 
160.324 160.603 159.962 160.216 159.589 159.854 159.211 159.444 158.773 
158.994 158.362 158.621 159.439 159.848 160.035 160.908 160.32 160.504 
161.409 161.627 162.667 160.742 160.976 161.908 162.158 163.233 163.525 
164.736 161.121 161.382 162.354 162.646 163.754 164.092 165.335 165.688 
166.969 161.524 161.787 162.794 163.1 164.246 164.608 165.871 166.26 
167.555 167.911 169.18 161.848 162.179 163.182 163.533 164.675 165.083 
166.347 166.774 168.067 168.46 169.757 170.122 171.471 162.018 162.428 
163.41 163.833 164.922 165.414 166.64 167.166 168.444 168.919 170.219 
170.664 172.053 172.496 173.948 162.131 162.559 163.532 163.973 165.002 
165.529 166.705 167.324 168.601 169.195 170.495 171.045 172.411 172.974 
174.395 174.925 176.258 162.213 162.66 163.596 164.039 164.99 165.513 
166.622 167.288 168.574 169.267 170.593 171.228 172.56 173.195 174.536 
175.173 176.422 176.977 178.036 159.512 160.994 160.193 160.139 162.794 
161.839 161.8 160.901 160.832 164.933 163.848 163.844 162.75 162.681 
161.661 161.564 167.234 166.149 166.228 165.008 164.961 163.727 163.638 
162.495 162.406 169.506 168.502 168.703 167.513 167.544 166.211 166.142 
164.804 164.725 163.471 163.38 171.901 170.878 171.241 170.07 170.254 
168.917 168.93 167.488 167.407 165.984 165.869 164.52 164.356 174.494 
173.472 173.998 172.789 173.146 171.781 171.96 170.445 170.433 168.836 
168.687 167.143 166.926 165.489 165.231 176.856 176.07 176.663 175.613 
176.016 174.757 175.026 173.593 173.697 172.051 171.92 170.152 169.862 
168.18 167.85 166.338 166.022 178.622 178.16 178.738 178.027 178.362 
177.401 177.571 176.456 176.551 175.225 175.135 173.477 173.132 171.286 
170.832 169.079 168.66 167.114 166.76 179.64 181.232 180.252 179.81 
182.833 181.787 181.181 180.186 179.448 184.141 183.207 182.36 181.379 
180.49 179.555 178.639 184.722 184.149 183.195 182.339 181.278 180.409 
179.471 178.636 177.664 184.408 184.292 183.436 182.912 181.843 181.064 
180.044 179.319 178.393 177.573 176.37 183.364 183.624 182.927 182.854 
181.932 181.445 180.359 179.736 178.699 178.081 176.883 175.992 174.412 
181.96 182.405 181.828 182.089 181.318 181.233 180.165 179.777 178.585 
178.13 176.862 176.233 174.672 173.742 172.009 180.468 180.979 180.465 
180.87 180.182 180.367 179.374 179.255 178.023 177.739 176.423 176 
174.512 173.813 172.138 171.264 169.669 178.849 179.446 178.928 179.436 
178.77 179.111 178.188 178.265 177.082 176.957 175.661 175.409 174.013 
173.537 171.983 171.282 169.724 168.984 167.622 179.682 180.258 180.453 
181.394 180.843 181.148 182.287 182.337 183.222 181.044 181.696 182.993 
183.279 184.298 184.191 184.735 180.459 181.568 182.914 183.687 184.737 
185.062 185.631 185.411 185.391 179.237 180.61 181.883 183.078 184.09 
184.975 185.589 185.92 185.909 185.6 185.047 177.599 179.122 180.284 
181.672 182.601 183.824 184.478 185.358 185.472 185.692 185.126 184.791 
183.891 175.487 177.165 178.191 179.787 180.624 182.05 182.654 183.859 
184.037 184.768 184.292 184.43 183.5 183.296 182.326 173.097 174.754 
175.589 177.346 178.075 179.756 180.276 181.749 181.888 182.969 182.561 
183.152 182.322 182.532 181.595 181.591 180.716 170.858 172.282 172.918 
174.565 175.169 176.918 177.372 179.047 179.177 180.545 180.213 181.147 
180.464 181.049 180.252 180.589 179.774 179.905 179.059 162.514 163.291 
163.265 163.899 163.873 163.961 164.679 164.642 165.29 164.536 164.578 
165.456 165.468 166.36 166.218 167.028 165.607 165.528 166.67 166.555 
167.78 167.572 168.685 168.282 169.162 166.849 166.861 168.248 168.138 
169.581 169.338 170.648 170.204 171.209 170.57 171.308 167.83 168.069 
169.528 169.696 171.146 171.14 172.428 172.179 173.199 172.674 173.437 
172.71 173.328 168.611 168.938 170.397 170.749 172.199 172.427 173.709 
173.715 174.79 174.523 175.383 174.821 175.497 174.73 175.304 169.373 
169.712 171.246 171.605 173.198 173.44 174.905 174.945 176.235 176.072 
177.163 176.738 177.548 176.867 177.45 176.653 177.134 170.056 170.47 
172.085 172.523 174.265 174.582 176.237 176.317 177.794 177.67 178.963 
178.616 179.589 178.944 179.546 178.732 179.139 178.337 178.684 161.706 
160.572 161.602 162.435 159.284 160.332 161.191 162.266 163.032 158.138 
159.014 159.823 160.951 161.855 162.862 163.66 157.277 157.948 158.621 
159.619 160.564 161.672 162.598 163.58 164.534 156.477 157.099 157.626 
158.477 159.314 160.403 161.362 162.451 163.394 164.497 165.559 155.573 
156.213 156.661 157.453 158.168 159.178 160.081 161.177 162.104 163.233 
164.218 165.441 166.493 154.711 155.305 155.756 156.471 157.143 158.049 
158.898 159.921 160.821 161.908 162.864 164.044 165.067 166.293 167.305 
153.996 154.54 155.033 155.654 156.301 157.074 157.855 158.774 159.613 
160.638 161.541 162.68 163.67 164.877 165.878 167.08 168.048 153.386 
153.909 154.433 155.013 155.619 156.286 156.956 157.752 158.489 159.432 
160.256 161.34 162.258 163.449 164.408 165.63 166.563 167.779 168.692 
153.234 153.398 153.639 154.316 153.536 153.826 154.548 154.796 155.519 
153.634 153.969 154.743 155.032 155.797 156.036 156.806 153.871 154.154 
155.037 155.29 156.134 156.352 157.199 157.413 158.3 154.388 154.562 
155.538 155.728 156.693 156.845 157.812 157.947 158.939 159.078 160.091 
155.077 155.2 156.182 156.345 157.366 157.523 158.574 158.71 159.775 
159.869 160.937 161.02 162.103 155.777 155.906 156.886 157.04 158.057 
158.22 159.274 159.471 160.573 160.741 161.843 161.946 163.06 163.134 
164.247 156.481 156.604 157.609 157.762 158.8 158.941 160.005 160.175 
161.331 161.532 162.743 162.886 164.08 164.151 165.315 165.337 166.431 
157.233 157.329 158.327 158.483 159.548 159.711 160.835 160.988 162.221 
162.393 163.731 163.88 165.207 165.264 166.501 166.481 167.625 167.553 
168.597 157.987 159.533 158.856 159.1 161.347 160.552 160.87 160.096 
160.388 163.6 162.65 163.113 162.129 162.515 161.549 161.833 166.149 
165.174 165.797 164.686 165.184 163.997 164.359 163.16 163.395 168.746 
167.845 168.601 167.528 168.103 166.87 167.274 165.949 166.214 164.858 
165.022 171.385 170.532 171.422 170.39 171.046 169.831 170.255 168.931 
169.208 167.816 167.958 166.52 166.555 173.982 173.235 174.228 173.266 
174.016 172.826 173.326 171.97 172.284 170.847 170.996 169.499 169.472 
167.967 167.855 176.244 175.718 176.718 175.973 176.764 175.767 176.374 
175.121 175.537 174.056 174.238 172.616 172.565 170.918 170.718 169.161 
168.95 177.985 177.702 178.644 178.187 178.979 178.301 178.989 178.058 
178.6 177.33 177.577 175.965 175.889 174.112 173.841 172.096 171.773 
170.186 169.905 157.61 157.494 158.084 159.137 157.236 157.93 159.041 
159.659 160.85 156.85 157.602 158.749 159.495 160.759 161.496 162.943 
156.436 157.186 158.326 159.137 160.469 161.346 162.881 163.741 165.373 
155.975 156.752 157.879 158.703 160.059 161.015 162.638 163.627 165.329 
166.215 167.891 155.461 156.259 157.417 158.26 159.625 160.601 162.264 
163.345 165.12 166.115 167.832 168.722 170.429 155.063 155.793 157.002 
157.827 159.235 160.19 161.862 162.958 164.771 165.852 167.602 168.588 
170.298 171.249 172.951 154.866 155.501 156.716 157.486 158.914 159.838 
161.504 162.573 164.378 165.48 167.244 168.286 169.98 171.006 172.686 
173.68 175.236 154.788 155.361 156.52 157.24 158.606 159.51 161.116 
162.186 163.945 165.068 166.818 167.893 169.572 170.617 172.255 173.299 
174.838 175.784 177.075 156.61 155.015 156.004 156.415 153.478 154.334 
154.632 155.723 156.109 152.201 152.833 152.959 153.902 154.249 155.366 
155.741 151.213 151.682 151.747 152.391 152.649 153.564 153.948 155.009 
155.367 150.382 150.821 150.953 151.411 151.596 152.189 152.444 153.287 
153.595 154.616 154.906 149.47 149.986 150.106 150.635 150.736 151.24 
151.291 151.9 152.006 152.857 153.069 154.098 154.368 148.409 148.948 
148.928 149.57 149.542 150.179 150.09 150.698 150.639 151.337 151.434 
152.314 152.575 153.6 153.962 147.469 147.873 147.778 148.293 148.193 
148.8 148.701 149.354 149.317 149.994 150.083 150.823 151.065 151.936 
152.32 153.322 153.787 146.846 147.105 147.083 147.351 147.293 147.62 
147.57 148.044 148.11 148.73 148.922 149.598 149.867 150.594 150.957 
151.812 152.28 153.254 153.76 146.597 146.494 146.67 146.896 146.429 
146.62 146.825 146.926 147.054 146.227 146.465 146.63 146.799 146.853 
147.008 147.197 145.955 146.145 146.214 146.46 146.533 146.757 146.951 
147.237 147.676 145.803 145.872 145.895 146.047 146.178 146.418 146.741 
147.051 147.575 147.914 148.539 145.905 145.845 145.956 145.936 146.148 
146.237 146.673 146.938 147.586 147.913 148.604 148.891 149.543 146.375 
146.173 146.417 146.26 146.561 146.47 146.937 147.052 147.764 148.034 
148.813 149.055 149.763 149.964 150.65 147.195 146.881 147.211 146.949 
147.315 147.085 147.538 147.483 148.183 148.35 149.205 149.397 150.197 
150.32 151.071 151.2 151.975 148.176 147.835 148.201 147.89 148.291 
147.978 148.421 148.211 148.864 148.892 149.768 149.915 150.798 150.888 
151.689 151.749 152.544 152.64 153.451 148.85 149.97 149.235 148.926 
151.211 150.429 150.126 149.358 149.034 152.603 151.742 151.472 150.637 
150.335 149.499 149.199 154.24 153.253 153.025 152.104 151.9 150.965 
150.752 149.822 149.697 156.169 155.058 154.866 153.82 153.702 152.704 
152.611 151.595 151.535 150.567 150.611 158.377 157.181 157.073 155.87 
155.792 154.67 154.633 153.573 153.543 152.521 152.52 151.577 151.619 
160.769 159.565 159.583 158.287 158.254 156.962 156.926 155.719 155.681 
154.566 154.523 153.499 153.466 152.529 152.509 163.162 162.039 162.147 
160.895 160.91 159.565 159.527 158.179 158.122 156.832 156.756 155.562 
155.487 154.416 154.363 153.394 153.37 165.431 164.416 164.585 163.439 
163.5 162.224 162.201 160.849 160.788 159.409 159.302 157.94 157.801 
156.542 156.434 155.327 155.273 154.284 154.269 155.104 156.174 156.02 
156.863 157.432 157.226 158.193 157.984 159.008 158.945 158.683 159.8 
159.515 160.707 160.408 161.613 160.593 160.374 161.654 161.341 162.669 
162.319 163.671 163.265 164.527 162.161 162.073 163.497 163.298 164.736 
164.42 165.858 165.459 166.816 166.29 167.458 163.598 163.619 165.146 
165.113 166.668 166.491 168.009 167.691 169.134 168.657 169.914 169.241 
170.28 164.898 165.018 166.608 166.715 168.371 168.358 169.957 169.785 
171.299 170.966 172.326 171.751 172.866 172.067 172.998 165.97 166.222 
167.829 168.095 169.794 169.964 171.588 171.595 173.101 172.977 174.364 
174.046 175.207 174.601 175.523 174.717 175.516 166.778 167.149 168.731 
169.16 170.852 171.22 172.826 173.024 174.462 174.532 175.855 175.811 
176.96 176.675 177.562 177.017 177.717 177.022 177.635 148.19 147.767 
147.713 147.218 147.378 147.278 146.74 146.734 146.307 147.013 146.868 
146.281 146.253 145.876 145.937 145.719 146.758 146.508 145.905 145.824 
145.548 145.629 145.615 145.644 145.644 146.874 146.427 145.872 145.6 
145.403 145.431 145.575 145.677 145.796 145.733 145.705 147.273 146.765 
146.273 145.828 145.631 145.477 145.61 145.678 145.795 145.81 145.698 
145.656 145.544 147.552 147.161 146.66 146.282 145.999 145.794 145.797 
145.766 145.807 145.766 145.639 145.556 145.408 145.438 145.489 147.712 
147.352 146.82 146.519 146.145 146.005 145.886 145.883 145.88 145.835 
145.79 145.634 145.607 145.464 145.579 145.574 145.831 148.036 147.58 
147.08 146.679 146.288 146.056 145.875 145.845 145.833 145.871 145.924 
145.889 146.001 145.875 146.065 145.911 146.15 146.075 146.346 148.255 
147.3 147.859 148.044 146.44 146.948 147.17 147.706 148.008 145.809 
146.159 146.433 146.935 147.311 147.848 148.373 145.595 145.685 145.92 
146.317 146.83 147.322 147.919 148.433 149.115 145.65 145.629 145.804 
146.005 146.588 147.015 147.752 148.163 148.829 149.266 149.925 145.668 
145.725 145.964 146.063 146.592 146.914 147.661 148.07 148.725 149.072 
149.613 150.03 150.611 145.731 145.804 146.168 146.271 146.727 146.947 
147.522 147.913 148.495 148.898 149.374 149.742 150.216 150.668 151.218 
146.032 146.017 146.43 146.509 146.957 147.072 147.527 147.757 148.289 
148.637 149.191 149.525 150.029 150.352 150.86 151.273 151.803 146.479 
146.408 146.791 146.828 147.298 147.348 147.826 147.89 148.46 148.628 
149.318 149.533 150.18 150.342 150.868 151.063 151.559 151.886 152.391 
148.917 148.71 149.188 150.037 148.679 149.044 149.945 150.461 151.434 
149.065 149.211 150.124 150.494 151.527 151.951 152.853 149.778 149.788 
150.652 150.842 151.804 152.119 153.025 153.335 154.104 150.526 150.529 
151.293 151.406 152.209 152.418 153.221 153.513 154.32 154.601 155.388 
151.207 151.226 151.938 152 152.719 152.815 153.548 153.745 154.586 
154.869 155.754 155.992 156.813 151.821 151.867 152.588 152.64 153.383 
153.4 154.152 154.205 155.044 155.228 156.135 156.378 157.221 157.417 
158.172 152.351 152.423 153.11 153.229 153.965 154.068 154.817 154.886 
155.637 155.742 156.508 156.717 157.487 157.749 158.51 158.737 159.5 
152.866 152.909 153.516 153.645 154.296 154.497 155.179 155.397 156.055 
156.226 156.827 157.003 157.644 157.919 158.683 159.012 159.854 160.115 
160.938 156.379 155.617 155.612 154.854 154.948 154.911 154.227 154.175 
153.48 154.245 154.244 153.621 153.641 153.062 152.953 152.319 153.493 
153.473 152.807 152.957 152.451 152.536 151.963 151.855 151.268 152.999 
152.796 152.097 152.128 151.672 151.845 151.406 151.438 150.875 150.813 
150.319 152.899 152.548 151.967 151.719 151.368 151.289 151.017 150.96 
150.543 150.426 149.92 149.876 149.423 152.894 152.592 152.129 151.856 
151.573 151.333 151.07 150.831 150.432 150.199 149.684 149.521 148.998 
148.944 148.452 152.768 152.555 152.07 151.947 151.59 151.491 151.066 
150.885 150.29 150.075 149.43 149.27 148.678 148.568 148.036 147.974 
147.526 152.617 152.393 151.84 151.73 151.255 151.237 150.689 150.616 
149.892 149.747 149.004 148.902 148.293 148.228 147.711 147.629 147.178 
147.139 146.821 
POINT_DATA 1002
SCALARS Distance double
LOOKUP_TABLE default
149.536 148.506 149.221 150.315 150.058 150.716 151.254 150.998 151.587 
152.006 152.297 152.001 152.625 153.027 153.496 153.361 153.043 153.747 
154.221 154.747 155.27 154.502 154.205 154.929 155.489 156.119 156.696 
157.293 155.827 155.515 156.258 156.837 157.504 158.143 158.776 159.538 
157.207 156.796 157.675 158.242 158.901 159.587 160.278 161.053 161.914 
158.416 157.905 158.971 159.561 160.232 161.006 161.814 162.612 163.427 
164.226 159.431 158.881 160.063 160.717 161.428 162.284 163.237 164.132 
164.931 165.684 166.393 148.091 148.881 147.91 148.677 147.736 149.714 
148.429 147.35 149.443 150.635 148.19 147.067 149.273 150.4 151.687 
148.221 147.204 149.31 150.428 151.576 152.841 148.427 147.525 149.468 
150.625 151.71 152.811 154.109 148.631 147.846 149.58 150.757 151.902 
152.903 154.064 155.431 148.959 148.233 149.799 150.866 152.033 153.047 
154.074 155.33 156.662 149.44 148.659 150.259 151.159 152.19 153.217 
154.203 155.323 156.567 157.771 149.671 150.649 150.974 152.011 152.391 
151.541 153.283 153.649 152.824 152.413 154.486 154.833 154.069 153.681 
153.411 155.866 156.197 155.51 155.136 154.807 154.498 157.358 157.6 
157.126 156.822 156.451 156.065 155.658 158.769 158.909 158.663 158.479 
158.129 157.741 157.331 156.897 160.198 160.3 160.119 160.014 159.716 
159.324 158.968 158.551 158.105 161.7 161.765 161.588 161.484 161.247 
160.851 160.479 160.118 159.665 159.214 160.225 160.669 161.835 161.18 
162.382 163.789 161.633 162.915 164.409 166.016 162.038 163.395 164.957 
166.644 168.253 162.478 163.871 165.478 167.185 168.843 170.451 162.818 
164.254 165.907 167.665 169.358 171.079 172.891 162.986 164.431 166.086 
167.933 169.742 171.564 173.524 175.434 163.108 164.505 166.077 167.961 
169.916 171.836 173.843 175.823 177.522 163.176 164.507 165.963 167.836 
169.933 171.939 173.913 175.86 177.589 179.001 160.926 162.76 161.717 
165 163.777 162.551 167.437 166.252 164.856 163.511 169.822 168.856 
167.528 166.047 164.622 172.37 171.541 170.375 168.894 167.286 165.704 
175.163 174.468 173.439 172.077 170.336 168.445 166.633 177.618 177.214 
176.373 175.274 173.75 171.684 169.467 167.454 179.349 179.256 178.622 
177.726 176.658 175.004 172.715 170.323 168.208 180.581 180.837 182.295 
182.245 183.97 180.478 183.417 185.042 181.429 179.577 183.992 185.139 
182.182 180.235 178.613 183.751 184.34 182.568 180.787 179.12 177.454 
182.787 182.971 182.246 180.988 179.312 177.675 175.525 181.46 181.454 
181.24 180.471 179.042 177.411 175.505 172.994 180.025 179.927 179.915 
179.396 178.262 176.773 175.092 172.946 170.48 178.391 178.233 178.374 
178.03 177.146 175.846 174.37 172.58 170.427 168.268 179.472 181.319 
179.995 182.144 180.405 183.411 182.554 180.189 184.292 185.198 181.974 
179.231 184.223 185.702 185.998 180.639 177.857 183.047 185.007 186.066 
185.669 178.885 176.071 181.341 183.424 185.008 185.345 184.367 176.554 
173.848 179.15 181.393 183.152 183.954 183.581 182.554 173.873 171.577 
176.352 178.739 180.711 181.809 181.926 181.467 180.769 171.403 169.597 
173.484 175.682 177.709 179.128 179.715 179.761 179.536 179.022 162.605 
164.018 163.252 164.618 163.752 165.406 165.369 164.491 166.388 167.296 
166.732 165.607 167.922 169.046 169.726 168.252 166.697 169.774 171.06 
171.85 172.06 169.267 167.535 171.074 172.598 173.633 174.119 174.14 
170.019 168.286 171.916 173.616 174.92 175.824 176.213 176.147 170.84 
169.001 172.889 174.8 176.31 177.487 178.191 178.253 177.96 160.753 
161.452 159.518 160.031 158.308 162.096 158.711 157.402 160.731 162.742 
157.737 156.698 159.419 161.547 163.511 156.866 155.873 158.28 160.246 
162.299 164.379 155.907 154.944 157.218 159.01 160.989 163.028 165.251 
155.07 154.122 156.296 157.922 159.767 161.711 163.857 166.098 154.431 
153.437 155.602 157.012 158.637 160.44 162.475 164.68 166.861 153.86 
152.864 155.01 156.248 157.612 159.224 161.107 163.193 165.352 167.48 