# vtk DataFile Version 4.0
vtk output
ASCII
DATASET POLYDATA
POINTS 1002 float
-105.888 -82.9357 76.1227 -105.959 -82.2105 75.0231 -106.298 -82.0613 76.0313 
-106.269 -82.8458 77.1847 -106.727 -82.0328 77.0727 -105.892 -83.8558 77.3767 
-106.776 -82.899 78.2407 -107.399 -82.1954 77.9675 -106.37 -83.8909 78.4839 
-106.104 -84.9937 78.7519 -107.554 -83.1872 79.163 -108.237 -82.4831 78.816 
-106.98 -84.0539 79.5832 -106.642 -85.2155 79.9207 -106.409 -86.3193 80.1675 
-108.401 -83.5454 80.1415 -108.916 -82.6814 79.911 -107.809 -84.4287 80.5454 
-107.301 -85.5048 81.008 -106.98 -86.7067 81.3093 -106.696 -87.7919 81.5679 
-109 -83.7818 81.3543 -109.45 -82.8608 81.0852 -108.595 -84.8752 81.5753 
-108.138 -85.9924 81.9058 -107.757 -87.153 82.2583 -107.471 -88.3171 82.5732 
-107.187 -89.3836 82.9457 -109.63 -84.1899 82.4132 -110.17 -83.3278 81.96 
-109.248 -85.3621 82.6996 -108.925 -86.6102 82.9197 -108.627 -87.7781 83.1719 
-108.381 -88.9549 83.4863 -108.131 -90.1048 83.8867 -107.897 -91.14 84.2632 
-110.557 -84.9667 83.0971 -111.031 -84.0535 82.6375 -110.118 -86.0869 83.5171 
-109.731 -87.2867 83.92 -109.4 -88.4397 84.2866 -109.141 -89.6409 84.5761 
-108.914 -90.9107 84.8731 -108.695 -92.0709 85.2032 -108.531 -93.0921 85.4528 
-111.434 -85.7801 83.7466 -111.744 -84.7869 83.3626 -111.075 -86.8665 84.1393 
-110.659 -87.9683 84.6149 -110.224 -89.0655 85.1728 -109.839 -90.2797 85.636 
-109.557 -91.656 85.8992 -109.349 -92.9874 86.0873 -109.194 -94.1311 86.2899 
-109.098 -95.1692 86.4746 -112.006 -86.3745 84.5259 -112.27 -85.4269 84.1059 
-111.716 -87.3911 84.9288 -111.382 -88.4771 85.3232 -111.012 -89.6583 85.7699 
-110.627 -90.9778 86.2604 -110.308 -92.4319 86.6309 -110.103 -93.8682 86.8233 
-109.956 -95.1351 86.9705 -109.843 -96.2629 87.1478 -109.778 -97.327 87.3227 
-106.21 -81.4241 74.5822 -106.618 -81.2857 75.649 -106.492 -80.5882 74.1212 
-107.07 -80.4328 75.2051 -106.987 -79.7831 73.6457 -107.223 -81.275 76.6736 
-107.719 -79.583 74.7491 -107.78 -79.1636 73.1491 -107.838 -80.3461 76.2285 
-108.029 -81.3952 77.5533 -108.516 -78.9477 74.2612 -108.735 -78.6086 72.5422 
-108.439 -79.4328 75.8727 -108.594 -80.3467 77.259 -108.801 -81.5742 78.5489 
-109.453 -78.4074 73.6066 -109.65 -77.8852 71.9263 -109.166 -78.8486 75.4705 
-109.099 -79.4048 77.1182 -109.309 -80.5044 78.4427 -109.449 -81.7872 79.7264 
-110.421 -77.7838 72.9959 -110.394 -77.2016 71.5836 -110.257 -78.4382 74.8091 
-109.969 -78.8587 76.7629 -109.984 -79.6026 78.3412 -110.168 -80.9241 79.5133 
-110.171 -82.18 80.726 -111.199 -77.2478 72.7661 -111.059 -76.8065 71.491 
-111.34 -77.9865 74.2294 -111.164 -78.5361 76.0769 -110.956 -79.0109 77.9777 
-111.02 -80.1178 79.311 -111.058 -81.54 80.3408 -110.975 -82.7636 81.5181 
-111.914 -76.8395 72.7964 -111.891 -76.5313 71.413 -112.073 -77.4864 74.0688 
-112.093 -78.1889 75.5403 -111.906 -78.6458 77.4474 -111.826 -79.4185 79.1209 
-111.848 -80.7726 80.1766 -111.757 -82.1324 81.188 -111.677 -83.4029 82.3418 
-112.788 -76.4357 72.8035 -112.881 -76.2109 71.2965 -112.749 -76.9352 74.1181 
-112.739 -77.6816 75.3614 -112.659 -78.2936 77.0331 -112.568 -78.8926 78.8861 
-112.543 -79.9882 80.1629 -112.467 -81.3791 81.061 -112.322 -82.7124 82.1026 
-112.252 -84.0732 83.1791 -113.794 -76.0393 72.2212 -113.659 -76.3328 73.7697 
-114.56 -76.1924 73.1986 -114.472 -76.6221 74.6224 -115.169 -76.9447 74.0004 
-113.525 -76.9768 75.0734 -115.141 -77.5766 75.351 -115.655 -78.1108 74.6815 
-114.402 -77.4021 76.0031 -113.466 -77.7795 76.5599 -115.5 -78.9391 76.2001 
-116.027 -79.2511 75.535 -115.105 -78.4825 76.9476 -114.391 -78.2522 77.7987 
-113.422 -78.4716 78.4883 -115.826 -80.1432 77.2727 -116.473 -80.2809 76.5881 
-115.408 -79.9409 77.9579 -115.008 -79.4445 78.8078 -114.277 -79.1745 79.6434 
-113.348 -79.4302 80.0974 -116.46 -81.1252 78.373 -116.907 -81.4624 77.6632 
-115.87 -81.1661 79.0177 -115.306 -81.0238 79.6673 -114.771 -80.6184 80.3705 
-114.079 -80.5015 80.9035 -113.234 -80.8377 81.0974 -116.941 -82.4673 79.4624 
-117.007 -83.0491 78.7816 -116.577 -82.2884 80.1111 -115.894 -82.3903 80.6515 
-115.193 -82.3035 81.159 -114.62 -82.0749 81.637 -113.911 -82.0696 81.9726 
-113.06 -82.331 82.1081 -117.045 -84.4295 80.6267 -116.974 -84.9743 79.9747 
-116.964 -83.939 81.2663 -116.542 -83.7718 81.7757 -115.854 -83.7935 82.1767 
-115.204 -83.7131 82.578 -114.565 -83.6092 82.9441 -113.745 -83.6447 83.171 
-112.902 -83.8176 83.2364 -117.193 -86.4871 81.7316 -117.149 -86.8281 81.0969 
-117.14 -85.961 82.3591 -116.885 -85.4977 82.8729 -116.39 -85.3055 83.2126 
-115.781 -85.2363 83.5225 -115.161 -85.1443 83.89 -114.431 -85.1041 84.166 
-113.58 -85.1476 84.2696 -112.819 -85.2565 84.2402 -112.576 -86.5748 85.1434 
-113.251 -86.506 85.2718 -112.923 -87.7476 86.2657 -114.099 -86.5062 85.2826 
-113.767 -87.8316 86.3441 -113.423 -89.444 87.1637 -114.903 -86.5755 85.1235 
-114.606 -88.0113 86.3021 -114.316 -89.7591 87.1827 -113.98 -92.125 87.5875 
-115.567 -86.7403 84.7633 -115.269 -88.3185 86.0273 -115.018 -90.1405 87.0875 
-114.71 -92.58 87.6382 -114.36 -95.2259 88.0138 -116.182 -86.8979 84.4346 
-115.878 -88.6549 85.6463 -115.611 -90.5883 86.7764 -115.322 -92.9445 87.5571 
-114.937 -95.6543 88.1551 -114.642 -98.036 88.9264 -116.761 -87.0554 84.1802 
-116.52 -88.806 85.4061 -116.267 -90.9005 86.5427 -116 -93.2864 87.3644 
-115.556 -95.9562 88.033 -115.154 -98.6061 88.9115 -115.001 -100.842 89.779 
-117.218 -87.4317 83.7293 -117.118 -88.9336 85.0023 -116.875 -90.9943 86.2959 
-116.643 -93.5978 87.3218 -116.198 -96.3376 87.9009 -115.588 -99.1157 88.5502 
-115.323 -101.707 89.4002 -115.386 -103.901 90.0132 -117.472 -87.9357 83.0989 
-117.546 -89.2269 84.2986 -117.286 -91.0711 85.6008 -117.013 -93.8519 87.0037 
-116.686 -96.8451 87.9061 -115.993 -99.6227 88.3129 -115.435 -102.328 88.8402 
-115.494 -104.786 89.4809 -115.81 -106.831 89.9074 -117.506 -88.2742 82.4645 
-117.69 -89.5047 83.6274 -117.451 -91.1374 84.7547 -117.104 -93.903 86.1889 
-116.911 -97.2011 87.5671 -116.444 -100.042 88.2361 -115.733 -102.577 88.4961 
-115.513 -105.108 88.9357 -115.894 -107.399 89.4693 -116.345 -109.301 89.8356 
-112.226 -87.5155 85.7143 -112.492 -88.9214 86.8903 -111.883 -88.6532 86.1867 
-113.023 -91.3223 87.5686 -112.165 -90.6021 87.2724 -111.607 -90.1028 86.4934 
-113.64 -94.5121 87.9261 -112.752 -93.5702 87.9265 -111.99 -92.6471 87.498 
-111.359 -91.7853 86.7816 -114.078 -97.4664 88.7652 -113.347 -96.6302 88.6993 
-112.526 -95.6827 88.4792 -111.816 -94.6593 87.7985 -111.109 -93.5065 87.1346 
-114.489 -100.262 89.8615 -113.813 -99.4754 89.7769 -113.014 -98.5674 89.5946 
-112.258 -97.6158 89.0041 -111.655 -96.4663 88.1351 -110.94 -95.112 87.4297 
-114.993 -103.448 90.3372 -114.344 -102.812 90.428 -113.6 -101.92 90.327 
-112.771 -100.801 89.9749 -112.091 -99.5597 89.2878 -111.563 -98.1046 88.4341 
-110.822 -96.5343 87.6524 -115.534 -106.687 90.2509 -114.935 -106.376 90.4865 
-114.315 -105.76 90.5092 -113.599 -104.605 90.32 -112.686 -103.098 90.0299 
-111.982 -101.456 89.5136 -111.446 -99.6451 88.6976 -110.692 -97.8323 87.8548 
-116.136 -109.507 90.1083 -115.555 -109.483 90.3803 -114.952 -109.166 90.5252 
-114.461 -108.259 90.3863 -113.632 -106.764 90.2024 -112.576 -105.048 90.0873 
-111.876 -103.169 89.6384 -111.352 -101.08 88.8133 -110.606 -99.0515 88.0044 
-116.888 -111.837 89.9403 -116.456 -112.187 90.1763 -117.303 -114.442 89.8338 
-116.697 -114.728 90.011 -117.534 -116.63 89.33 -115.705 -112.124 90.4197 
-116.73 -116.557 89.3668 -117.431 -117.969 88.4089 -115.81 -114.319 90.0782 
-115.126 -111.467 90.3948 -116.384 -117.476 88.371 -116.77 -118.738 87.1836 
-115.722 -115.709 89.2111 -115.169 -113.109 89.8075 -114.564 -110.088 90.1114 
-115.815 -117.889 87.3488 -115.873 -119.11 86.03 -115.488 -116.326 88.2899 
-115.026 -114.037 88.9629 -114.42 -111.292 89.5774 -113.485 -108.336 90.034 
-115.375 -117.668 86.6276 -115.32 -118.453 85.497 -115.236 -116.338 87.6423 
-114.792 -114.293 88.3735 -114.156 -111.851 89.003 -113.296 -109.366 89.6192 
-112.421 -106.461 89.9311 -114.929 -116.401 86.3313 -114.939 -116.75 85.4904 
-114.776 -115.565 87.1928 -114.32 -113.98 87.9438 -113.745 -111.838 88.5249 
-113.157 -109.686 88.995 -112.472 -107.28 89.3569 -111.834 -104.243 89.3323 
-114.145 -114.623 86.1168 -114.255 -114.84 85.4372 -113.943 -114.122 86.7929 
-113.552 -113.133 87.4276 -113.106 -111.48 87.9737 -112.808 -109.488 88.3458 
-112.465 -107.347 88.626 -111.876 -104.748 88.7701 -111.2 -101.79 88.5483 
-113.155 -112.959 85.7299 -113.33 -113.053 85.1931 -112.97 -112.572 86.3192 
-112.752 -111.903 86.888 -112.493 -110.745 87.4011 -112.291 -109.012 87.7816 
-112.091 -106.944 88.0605 -111.647 -104.655 88.2817 -110.966 -102.113 88.258 
-110.294 -99.5538 87.8803 -116.698 -110.24 89.6052 -117.305 -112.866 89.6552 
-117.067 -110.627 89.1746 -117.473 -113.282 89.0329 -117.381 -110.547 88.4865 
-117.635 -115.475 89.3161 -117.501 -113.206 88.1093 -117.28 -110.281 87.888 
-117.558 -115.849 88.4227 -117.812 -117.559 88.4877 -117.325 -112.807 87.4164 
-116.609 -109.71 87.6266 -117.503 -115.63 87.3406 -117.755 -117.964 87.292 
-117.677 -118.981 87.1781 -116.758 -111.857 87.1793 -115.888 -108.431 87.3333 
-117.425 -114.746 86.6873 -117.778 -117.477 86.1711 -117.709 -119.536 85.7336 
-116.837 -119.93 85.6445 -116.043 -110.105 86.9228 -115.561 -106.41 86.6789 
-116.854 -113.176 86.5593 -117.551 -115.799 85.7744 -117.683 -118.494 84.9165 
-116.893 -120.114 84.426 -115.834 -119.837 84.6857 -115.523 -107.548 86.3479 
-115.424 -103.962 85.8124 -115.996 -110.963 86.4227 -116.73 -113.581 85.8915 
-117.242 -116.011 85.0331 -116.926 -118.259 84.2849 -116.005 -119.097 84.1015 
-115.32 -118.295 84.6435 -115.172 -104.501 85.5717 -115.21 -101.505 84.9172 
-115.322 -107.93 85.9991 -115.773 -110.975 85.9016 -116.371 -113.346 85.3627 
-116.588 -115.397 84.7471 -116.131 -116.834 84.3337 -115.442 -117.022 84.367 
-114.869 -116.139 84.8529 -114.874 -101.619 84.6844 -114.931 -99.4061 84.0164 
-114.888 -104.455 85.2968 -115.07 -107.564 85.5725 -115.468 -110.307 85.3992 
[...]
CELL_DATA 2000
SCALARS Distance double
LOOKUP_TABLE default
153.178 153.906 153.717 154.167 154.803 154.529 155.012 154.838 155.446 
155.901 155.544 156.047 155.789 156.453 156.285 157.013 157.079 156.731 
157.266 156.939 157.605 157.377 158.144 157.949 158.705 158.187 157.908 
158.5 158.207 158.879 158.604 159.37 159.138 159.949 159.712 160.523 
159.328 159.037 159.703 159.446 160.195 159.922 160.718 160.442 161.299 
161.038 161.935 161.658 162.557 160.622 160.288 161.024 160.729 161.555 
161.278 162.131 161.845 162.721 162.452 163.375 163.119 164.053 163.768 
164.675 161.925 161.641 162.398 162.115 162.926 162.661 163.499 163.246 
164.102 163.864 164.759 164.54 165.458 165.227 166.126 165.859 166.742 
163.062 162.872 163.589 163.398 164.132 163.943 164.705 164.526 165.342 
165.171 166.051 165.878 166.798 166.597 167.512 167.273 168.173 167.91 
168.814 152.732 152.295 152.822 153.457 151.918 152.421 153.128 153.637 
154.359 151.744 152.131 152.848 153.342 154.118 154.627 155.427 151.775 
152.058 152.7 153.103 153.851 154.371 155.191 155.739 156.56 151.83 
152.114 152.728 153.031 153.713 154.13 154.941 155.482 156.339 156.87 
157.669 151.866 152.164 152.862 153.141 153.852 154.121 154.914 155.318 
156.225 156.706 157.576 158.008 158.817 152.016 152.263 153.04 153.34 
154.139 154.371 155.151 155.426 156.308 156.703 157.617 158.009 158.848 
159.224 160.068 152.349 152.513 153.278 153.558 154.373 154.653 155.42 
155.686 156.492 156.839 157.711 158.094 158.922 159.284 160.083 160.492 
161.33 152.809 152.912 153.613 153.814 154.561 154.839 155.591 155.891 
156.669 157.003 157.829 158.189 158.993 159.343 160.107 160.484 161.268 
161.705 162.49 153.318 154.37 153.915 154.107 155.514 155.009 155.182 
154.734 154.988 156.762 156.221 156.428 155.893 156.15 155.692 156.017 
158.038 157.518 157.807 157.257 157.581 157.008 157.353 156.82 157.172 
159.346 158.827 159.179 158.679 159.065 158.517 158.873 158.282 158.608 
158.03 158.352 160.757 160.215 160.608 160.092 160.503 159.977 160.333 
159.778 160.079 159.501 159.773 159.202 159.483 162.214 161.695 162.15 
161.605 162.053 161.467 161.849 161.24 161.581 160.975 161.283 160.66 
160.931 160.324 160.598 163.741 163.225 163.768 163.212 163.716 163.101 
163.525 162.858 163.239 162.57 162.942 162.261 162.58 161.873 162.149 
161.48 161.772 165.363 164.85 165.446 164.881 165.394 164.785 165.205 
164.559 164.92 164.267 164.622 163.966 164.291 163.586 163.846 163.116 
163.361 162.686 162.966 163.808 164.251 164.418 165.222 164.777 164.937 
165.799 165.917 166.795 165.245 165.471 166.377 166.545 167.487 167.62 
168.64 165.591 165.888 166.823 167.085 168.068 168.302 169.362 169.569 
170.704 165.904 166.219 167.189 167.495 168.518 168.829 169.919 170.219 
171.376 171.655 172.859 166.216 166.553 167.554 167.875 168.948 169.286 
170.424 170.749 171.916 172.244 173.476 173.812 175.069 166.458 166.859 
167.86 168.218 169.286 169.696 170.895 171.287 172.48 172.787 173.966 
174.328 175.583 175.988 177.23 166.554 167.052 168.032 168.439 169.402 
169.891 171.074 171.668 172.951 173.372 174.503 174.791 175.906 176.337 
177.555 178.043 179.223 166.463 167.058 168.009 168.486 169.315 169.825 
170.867 171.628 172.979 173.709 174.929 175.302 176.27 176.585 177.636 
178.175 179.364 179.925 181.052 163.867 165.243 164.497 164.409 166.794 
165.936 165.849 165.067 164.98 168.696 167.674 167.618 166.651 166.595 
165.706 165.62 170.867 169.787 169.835 168.689 168.688 167.562 167.513 
166.459 166.361 173.11 172.069 172.222 171.07 171.136 169.901 169.874 
168.612 168.514 167.316 167.177 175.396 174.39 174.625 173.498 173.615 
172.405 172.405 171.109 171.007 169.674 169.504 168.206 168 177.649 
176.736 177.08 175.974 176.178 174.944 175.006 173.676 173.613 172.24 
172.085 170.683 170.433 169.048 168.761 179.73 178.969 179.433 178.457 
178.79 177.616 177.786 176.409 176.392 174.924 174.804 173.337 173.115 
171.613 171.276 169.808 169.46 181.625 181.005 181.553 180.743 181.156 
180.18 180.435 179.216 179.218 177.771 177.603 176.103 175.879 174.358 
174.033 172.452 172.042 170.517 170.134 182.855 184.708 183.512 182.831 
186.264 185.266 184.556 183.317 182.452 187.074 186.505 185.791 184.839 
183.91 182.763 181.722 186.982 186.86 186.163 185.662 184.699 183.9 
182.787 181.757 180.472 186.34 186.465 185.868 185.687 184.787 184.3 
183.183 182.471 181.193 180.225 178.803 185.471 185.74 185.276 185.278 
184.478 184.167 183.083 182.586 181.382 180.702 179.375 178.444 177.02 
184.291 184.75 184.294 184.549 183.768 183.695 182.596 182.295 181.116 
180.699 179.484 178.84 177.468 176.579 175.113 182.733 183.338 182.786 
183.282 182.489 182.72 181.654 181.604 180.436 180.248 179.089 178.742 
177.451 176.82 175.337 174.518 173.028 180.967 181.608 181.007 181.58 
180.849 181.262 180.362 180.523 179.475 179.438 178.322 178.162 176.941 
176.578 175.168 174.557 173.061 172.35 170.983 183.038 183.598 183.927 
184.94 183.643 184.282 185.407 185.736 186.502 183.255 184.084 185.19 
185.874 186.738 187.038 187.369 182.557 183.529 184.579 185.41 186.317 
186.961 187.445 187.552 187.38 181.451 182.652 183.7 184.655 185.52 
186.352 186.964 187.413 187.384 187.243 186.72 179.871 181.298 182.34 
183.541 184.299 185.323 185.886 186.697 186.805 187.044 186.56 186.379 
185.729 177.929 179.459 180.423 181.877 182.569 183.789 184.22 185.294 
185.452 186.153 185.808 185.978 185.297 185.23 184.512 175.809 177.291 
178.083 179.685 180.358 181.787 182.188 183.4 183.57 184.546 184.379 
184.94 184.381 184.569 183.821 183.831 183.005 173.764 175.052 175.618 
177.166 177.751 179.341 179.756 181.174 181.35 182.533 182.442 183.312 
182.886 183.396 182.696 182.934 182.094 182.154 181.241 166.681 167.443 
167.485 168.219 168.102 168.17 168.884 168.89 169.511 168.799 168.837 
169.63 169.607 170.417 170.313 171.162 169.642 169.681 170.732 170.641 
171.768 171.566 172.741 172.439 173.498 170.563 170.685 171.991 171.997 
173.35 173.212 174.526 174.257 175.36 174.901 175.603 171.434 171.66 
173.008 173.217 174.54 174.668 175.873 175.871 176.832 176.59 177.175 
176.647 176.941 172.158 172.471 173.75 174.062 175.292 175.562 176.697 
176.88 177.849 177.803 178.488 178.102 178.54 177.908 178.287 172.708 
173.094 174.39 174.735 176.035 176.281 177.555 177.7 178.901 178.866 
179.865 179.533 180.291 179.685 180.302 179.537 180.075 173.128 173.581 
174.972 175.395 176.868 177.164 178.636 178.78 180.168 180.143 181.332 
181.089 182.04 181.575 182.348 181.682 182.293 181.45 181.866 165.697 
164.417 165.534 166.475 163.183 164.237 165.212 166.333 167.232 162.042 
163.009 163.941 165.09 166.107 167.128 167.959 160.974 161.85 162.683 
163.807 164.844 165.994 166.903 167.846 168.646 160.047 160.812 161.518 
162.513 163.454 164.661 165.621 166.712 167.502 168.494 169.367 159.213 
159.934 160.566 161.386 162.169 163.243 164.185 165.356 166.226 167.28 
168.113 169.208 170.178 158.401 159.101 159.727 160.471 161.152 162.03 
162.865 163.947 164.866 165.973 166.846 167.931 168.843 169.995 170.938 
157.718 158.319 158.914 159.623 160.262 161.047 161.768 162.708 163.553 
164.629 165.513 166.623 167.501 168.637 169.519 170.669 171.503 157.173 
157.675 158.172 158.811 159.383 160.127 160.769 161.625 162.367 163.354 
164.176 165.259 166.109 167.241 168.084 169.226 170.023 171.15 171.902 
156.989 156.911 157.272 157.954 156.926 157.232 157.982 158.343 159.133 
157.19 157.369 158.122 158.429 159.297 159.64 160.533 157.55 157.718 
158.475 158.701 159.629 159.918 160.914 161.186 162.163 157.875 158.091 
158.939 159.156 160.143 160.39 161.456 161.691 162.741 162.941 163.966 
158.349 158.521 159.481 159.684 160.715 160.957 162.04 162.292 163.375 
163.589 164.66 164.836 165.896 159.008 159.148 160.158 160.319 161.359 
161.553 162.621 162.866 163.977 164.235 165.369 165.58 166.696 166.836 
167.891 159.649 159.834 160.853 161.037 162.091 162.252 163.335 163.51 
164.662 164.884 166.094 166.321 167.504 167.667 168.755 168.839 169.829 
160.239 160.442 161.468 161.695 162.775 162.987 164.118 164.304 165.497 
165.679 166.916 167.109 168.324 168.491 169.613 169.713 170.734 170.767 
171.713 160.931 162.53 161.86 162.195 164.331 163.578 163.922 163.208 
163.561 166.313 165.499 165.903 165.079 165.484 164.68 165.025 168.522 
167.645 168.134 167.206 167.661 166.763 167.18 166.247 166.532 170.962 
170.051 170.658 169.618 170.101 169.072 169.514 168.521 168.857 167.802 
168.003 173.569 172.673 173.48 172.375 172.987 171.753 172.238 171.028 
171.409 170.231 170.455 169.283 169.41 176.164 175.385 176.388 175.376 
176.216 174.93 175.568 174.109 174.562 173.071 173.328 171.89 171.984 
170.676 170.711 178.43 177.898 178.976 178.245 179.206 178.189 178.94 
177.605 178.098 176.513 176.75 175.056 175.079 173.446 173.364 171.937 
171.86 180.147 179.898 180.931 180.542 181.467 180.863 181.583 180.678 
181.111 179.867 180.014 178.482 178.4 176.692 176.457 174.765 174.508 
173.031 172.85 160.452 160.281 160.913 162.062 160.104 160.775 161.968 
162.624 163.845 159.761 160.529 161.713 162.482 163.743 164.45 165.751 
159.249 160.083 161.276 162.138 163.448 164.284 165.665 166.425 167.864 
158.796 159.591 160.855 161.706 163.113 163.993 165.482 166.318 167.845 
168.631 170.2 158.505 159.256 160.578 161.382 162.854 163.734 165.318 
166.186 167.788 168.612 170.243 171.046 172.702 158.247 159.014 160.34 
161.153 162.6 163.497 165.086 166.027 167.682 168.575 170.246 171.091 
172.777 173.586 175.231 158.002 158.749 160.071 160.895 162.316 163.208 
164.751 165.732 167.399 168.407 170.127 171.073 172.759 173.62 175.217 
176.02 177.486 157.899 158.548 159.861 160.638 162.066 162.919 164.437 
165.376 167.011 168.053 169.792 170.857 172.561 173.519 175.05 175.89 
177.243 178.036 179.231 159.461 158.012 158.855 159.213 156.801 157.457 
157.695 158.61 159.007 155.738 156.292 156.356 157.105 157.359 158.348 
158.677 154.519 155.14 155.065 155.727 155.758 156.644 156.841 157.886 
158.136 153.11 153.783 153.699 154.361 154.27 155.006 155.023 155.974 
156.155 157.272 157.591 151.8 152.373 152.34 152.994 152.972 153.586 
153.53 154.23 154.305 155.279 155.586 156.78 157.235 150.778 151.183 
151.126 151.711 151.747 152.354 152.323 152.885 152.877 153.596 153.821 
154.836 155.278 156.483 156.985 150.003 150.279 150.161 150.604 150.58 
151.138 151.08 151.658 151.613 152.271 152.429 153.26 153.644 154.647 
155.14 156.272 156.788 149.407 149.599 149.492 149.779 149.735 150.094 
149.994 150.422 150.342 150.955 151.119 151.935 152.334 153.213 153.694 
154.618 155.141 156.178 156.744 149.096 148.866 149.029 149.232 148.876 
148.95 149.136 149.256 149.472 148.887 149.01 149.194 149.246 149.324 
149.43 149.593 148.827 148.973 149.177 149.275 149.295 149.291 149.287 
149.483 149.804 149.012 148.975 149.16 149.216 149.289 149.268 149.291 
149.313 149.645 149.941 150.643 149.638 149.368 149.526 149.356 149.511 
149.388 149.589 149.513 149.975 150.086 150.883 151.144 152.019 150.515 
150.154 150.353 149.995 150.249 149.936 150.309 150.085 150.668 150.634 
151.458 151.597 152.481 152.643 153.438 151.441 151.086 151.346 150.974 
151.321 150.955 151.421 151.088 151.678 151.481 152.23 152.241 153.083 
153.184 153.988 154.08 154.859 152.35 152.02 152.3 151.981 152.355 
152.067 152.544 152.265 152.791 152.537 153.14 153.03 153.781 153.822 
154.655 154.719 155.55 155.599 156.446 152.939 153.931 153.243 152.934 
155.203 154.36 154.044 153.306 153.046 156.748 155.778 155.425 154.535 
154.254 153.504 153.289 158.448 157.427 157.093 156.061 155.735 154.818 
154.573 153.795 153.575 160.29 159.221 159.002 157.894 157.644 156.516 
156.251 155.225 154.999 154.127 153.946 162.334 161.202 161.077 159.947 
159.848 158.653 158.477 157.202 156.976 155.799 155.648 154.668 154.612 
164.493 163.363 163.286 162.132 162.101 160.947 160.877 159.602 159.406 
158.054 157.877 156.649 156.594 155.538 155.539 166.641 165.577 165.591 
164.429 164.434 163.259 163.248 162.02 161.89 160.551 160.353 159.031 
158.92 157.711 157.661 156.546 156.493 168.783 167.778 167.92 166.797 
166.879 165.677 165.714 164.46 164.405 163.063 162.904 161.532 161.385 
160.094 159.999 158.775 158.67 157.504 157.408 158.315 159.661 159.401 
160.298 161.094 160.861 161.864 161.562 162.553 162.575 162.38 163.538 
163.256 164.364 163.963 164.994 164.151 163.97 165.26 165.024 166.282 
165.905 167.057 166.546 167.624 165.702 165.607 166.976 166.809 168.182 
167.891 169.203 168.746 169.97 169.358 170.484 167.075 167.119 168.562 
168.514 169.97 169.804 171.257 170.946 172.33 171.81 173.022 172.307 
173.319 168.271 168.431 169.958 170.046 171.578 171.551 173.076 172.948 
174.404 174.097 175.321 174.766 175.717 174.985 175.76 169.292 169.562 
171.139 171.375 172.963 173.079 174.592 174.617 176.023 175.938 177.112 
176.803 177.685 177.154 177.861 177.199 177.842 170.113 170.48 172.06 
172.45 174.061 174.339 175.808 175.947 177.24 177.291 178.41 178.316 
179.22 178.898 179.627 179.121 179.771 179.154 179.75 152.213 151.76 
151.727 151.241 151.441 151.349 150.955 150.879 150.452 151.296 151.118 
150.754 150.683 150.355 150.2 149.772 151.258 151.022 150.56 150.47 
150.12 150.076 149.693 149.543 149.172 151.18 150.946 150.363 150.213 
149.72 149.717 149.357 149.377 149.087 149.031 148.88 151.111 150.83 
150.22 149.987 149.417 149.302 148.931 148.99 148.841 148.919 148.851 
148.868 148.886 151.289 150.869 150.312 149.944 149.427 149.133 148.754 
148.668 148.561 148.675 148.704 148.802 148.797 148.863 148.903 151.723 
151.22 150.73 150.243 149.801 149.353 148.987 148.681 148.521 148.488 
148.535 148.637 148.674 148.735 148.723 148.825 148.908 152.219 151.736 
151.289 150.786 150.368 149.87 149.502 149.066 148.846 148.606 148.625 
148.588 148.704 148.688 148.736 148.71 148.765 148.861 149.03 152.333 
151.294 151.901 152.139 150.378 150.858 151.047 151.721 152.06 149.616 
149.97 150.111 150.708 151.153 151.831 152.362 149.082 149.298 149.453 
149.911 150.445 151.089 151.776 152.371 153.004 148.917 148.979 149.22 
149.479 150.046 150.554 151.309 151.887 152.576 153.098 153.7 149.006 
149.026 149.33 149.463 150.017 150.342 151.065 151.524 152.246 152.72 
153.366 153.824 154.412 149.097 149.177 149.496 149.629 150.12 150.374 
151.022 151.387 152.098 152.498 153.198 153.592 154.246 154.608 155.168 
149.17 149.281 149.635 149.77 150.207 150.423 150.993 151.337 152.018 
152.414 153.092 153.477 154.101 154.476 155.026 155.356 155.82 149.317 
149.411 149.819 149.933 150.375 150.513 151.038 151.302 151.961 152.333 
152.982 153.346 153.865 154.236 154.684 155.099 155.521 155.911 156.312 
153.018 152.878 153.326 154.081 152.789 153.19 154.008 154.45 155.245 
152.998 153.196 154.005 154.415 155.315 155.702 156.512 153.57 153.574 
154.327 154.56 155.516 155.86 156.768 157.033 157.803 154.256 154.221 
154.937 155.039 155.95 156.194 157.145 157.374 158.192 158.356 159.11 
154.899 154.867 155.529 155.634 156.437 156.651 157.526 157.776 158.617 
158.803 159.574 159.717 160.495 155.539 155.466 156.023 156.118 156.825 
157.038 157.808 158.081 158.887 159.172 159.964 160.178 160.927 161.1 
161.882 156.167 156.075 156.556 156.578 157.234 157.385 158.124 158.334 
159.097 159.377 160.166 160.467 161.222 161.467 162.22 162.461 163.309 
156.727 156.674 157.163 157.137 157.774 157.848 158.587 158.712 159.451 
159.627 160.385 160.644 161.426 161.702 162.493 162.766 163.636 163.938 
164.884 159.346 158.761 158.66 157.932 158.12 158.057 157.353 157.33 
156.755 157.478 157.389 156.674 156.703 156.158 156.235 155.727 157.108 
156.882 156.17 156.052 155.477 155.555 155.065 155.159 154.549 156.913 
156.686 156.064 155.773 155.178 154.999 154.486 154.472 153.91 153.892 
153.189 156.564 156.454 155.896 155.733 155.187 154.922 154.37 154.111 
153.553 153.364 152.744 152.586 151.934 156.25 156.066 155.482 155.422 
154.935 154.863 154.345 154.116 153.496 153.191 152.559 152.3 151.704 
151.496 150.957 156.267 155.912 155.333 155.086 154.629 154.538 154.114 
153.992 153.399 153.131 152.434 152.166 151.557 151.353 150.834 150.646 
150.191 156.438 156.078 155.561 155.171 154.716 154.419 154.017 153.802 
153.288 153.005 152.328 152.024 151.393 151.193 150.7 150.544 150.105 
149.941 149.56 
POINT_DATA 1002
SCALARS Distance double
LOOKUP_TABLE default
153.549 152.67 153.319 154.287 154.114 154.667 155.189 155.108 155.563 
156.111 156.337 156.26 156.618 157.182 157.748 157.598 157.382 157.867 
158.333 158.919 159.452 158.746 158.437 159.16 159.615 160.164 160.767 
161.354 159.93 159.619 160.434 160.993 161.55 162.186 162.855 163.465 
161.319 160.932 161.825 162.409 162.995 163.622 164.32 164.986 165.576 
162.674 162.171 163.204 163.753 164.338 164.978 165.681 166.377 167.018 
167.634 163.774 163.244 164.32 164.874 165.49 166.201 166.978 167.737 
168.425 169.079 169.731 152.209 152.94 151.739 152.588 151.431 153.859 
152.376 151.428 153.582 154.917 152.373 151.529 153.355 154.619 156.041 
152.446 151.521 153.37 154.419 155.789 157.192 152.53 151.549 153.614 
154.578 155.75 157.14 158.399 152.712 151.789 153.882 154.926 155.954 
157.223 158.491 159.656 153.04 152.22 154.083 155.156 156.182 157.343 
158.57 159.708 160.889 153.48 152.732 154.322 155.281 156.341 157.489 
158.657 159.756 160.859 162.057 153.748 154.522 154.844 155.663 156.037 
155.363 156.966 157.287 156.656 156.434 158.305 158.526 158.153 157.938 
157.691 159.654 159.862 159.583 159.465 159.222 158.914 161.131 161.28 
161.042 160.886 160.651 160.369 160.039 162.678 162.69 162.644 162.476 
162.187 161.907 161.575 161.181 164.314 164.226 164.32 164.188 163.914 
163.618 163.303 162.865 162.403 166.016 165.853 166.016 165.853 165.578 
165.273 164.98 164.593 164.082 163.6 164.584 165.073 166.012 165.658 
166.668 167.708 166.165 167.311 168.487 169.734 166.525 167.783 169.114 
170.493 171.895 166.865 168.183 169.594 171.059 172.585 174.105 167.221 
168.581 170.087 171.601 173.1 174.753 176.355 167.508 168.857 170.426 
172.18 173.67 175.141 176.866 178.477 167.635 168.955 170.399 172.407 
174.277 175.574 177.014 178.794 180.407 167.525 168.87 170.126 172.089 
174.455 176.069 177.18 178.724 180.579 182.176 165.134 166.665 165.749 
168.654 167.542 166.499 170.982 169.879 168.651 167.394 173.336 172.357 
171.18 169.798 168.356 175.735 174.809 173.685 172.357 170.873 169.288 
178.125 177.388 176.346 174.993 173.496 171.892 170.124 180.316 179.87 
179.125 177.899 176.293 174.63 172.829 170.879 182.3 182.052 181.554 
180.635 179.132 177.394 175.622 173.655 171.597 184.094 184.148 185.888 
185.769 187.141 183.757 186.611 187.476 184.997 182.984 186.498 186.976 
185.384 183.724 181.659 185.925 186.123 185.184 183.797 182.036 179.891 
185.176 185.117 184.729 183.527 181.931 180.187 178.053 183.963 183.798 
183.748 182.834 181.435 179.985 178.287 176.07 182.259 182.145 182.139 
181.584 180.55 179.328 177.959 176.112 173.836 180.421 180.336 180.345 
180.066 179.439 178.44 177.203 175.668 173.729 171.623 182.849 184.842 
183.107 184.902 182.926 186.483 184.433 182.415 186.242 187.494 183.749 
181.517 185.563 187.154 187.692 182.697 180.148 184.661 186.345 187.4 
187.067 181.057 178.418 183.272 184.971 186.353 186.668 185.95 178.912 
176.467 181.31 183.13 184.567 185.443 185.318 184.626 176.504 174.464 
178.844 180.929 182.511 183.639 184.064 183.767 183.074 174.197 172.636 
176.16 178.259 180.09 181.456 182.238 182.361 181.966 181.245 166.668 
168.264 167.399 168.85 168.06 169.541 169.607 168.735 170.438 171.281 
170.709 169.487 171.887 172.992 173.963 171.866 170.342 173.407 174.77 
175.831 176.297 172.779 171.187 174.387 175.839 177.023 177.65 177.587 
173.452 171.842 175.028 176.472 177.789 178.744 179.076 178.966 173.996 
172.291 175.733 177.355 178.849 180.073 180.787 181.018 180.928 164.576 
165.361 163.317 164.036 162.199 166.243 162.794 161.137 164.995 167.087 
161.624 160.167 163.635 165.906 167.721 160.651 159.329 162.286 164.446 
166.514 168.278 159.826 158.488 161.227 163 165.113 167.055 169.011 
158.993 157.725 160.366 161.869 163.732 165.757 167.733 169.791 158.241 
157.19 159.513 160.912 162.528 164.404 166.384 168.391 170.378 157.596 
156.737 158.681 159.959 161.44 163.137 164.993 166.953 168.912 170.783 