# vtk DataFile Version 4.0
vtk output
ASCII
DATASET POLYDATA
POINTS 1002 float
-104.469 -80.6102 77.8819 -104.371 -79.9046 76.9611 -105.025 -79.9558 77.6652 
-105.2 -80.7767 78.6655 -105.605 -79.9544 78.613 -104.686 -81.4937 78.904 
-105.761 -80.8605 79.7407 -106.056 -79.9219 79.7286 -105.355 -81.6699 79.8666 
-104.902 -82.3935 80.1823 -106.208 -80.9101 80.919 -106.68 -80.0711 80.7271 
-105.847 -81.8116 81.0791 -105.445 -82.5988 81.3224 -105.182 -83.5202 81.5784 
-106.9 -81.1708 81.9256 -107.556 -80.4697 81.5822 -106.383 -82.0549 82.2749 
-105.98 -82.9398 82.5818 -105.686 -83.8973 82.8022 -105.597 -85.0448 82.9739 
-107.762 -81.6601 82.7984 -108.418 -80.9865 82.4012 -107.128 -82.4785 83.2803 
-106.666 -83.4395 83.725 -106.309 -84.4318 84.048 -106.065 -85.5032 84.2999 
-105.989 -86.6465 84.5364 -108.566 -82.2483 83.5894 -109.224 -81.5777 83.0909 
-107.873 -82.9511 84.1824 -107.375 -83.8968 84.7052 -107.04 -85.0038 85.099 
-106.682 -86.0551 85.4784 -106.43 -87.1358 85.8281 -106.362 -88.2728 86.0629 
-109.365 -82.8717 84.2714 -110.006 -82.1921 83.6803 -108.621 -83.4715 85.0039 
-108.037 -84.3006 85.6127 -107.738 -85.4823 85.9797 -107.448 -86.6969 86.3177 
-107.105 -87.8254 86.7302 -106.941 -88.9997 87.0392 -106.924 -90.1519 87.1798 
-110.088 -83.4165 84.9556 -110.62 -82.7014 84.3451 -109.424 -84.0355 85.7317 
-108.802 -84.848 86.3967 -108.435 -86.0391 86.778 -108.208 -87.3732 87.0261 
-107.92 -88.6408 87.3535 -107.696 -89.8877 87.7148 -107.632 -91.0777 87.9593 
-107.598 -92.0939 88.0798 -110.607 -83.8391 85.6717 -111.037 -83.0958 85.0683 
-110.104 -84.5451 86.3868 -109.592 -85.4783 86.9854 -109.18 -86.7521 87.3841 
-108.89 -88.1132 87.7021 -108.629 -89.397 88.0276 -108.416 -90.6917 88.3598 
-108.315 -91.9434 88.6745 -108.247 -92.9965 88.9197 -108.137 -93.8408 89.0559 
-104.851 -79.4227 76.3663 -105.419 -79.2819 77.2083 -105.494 -78.9403 75.6876 
-105.935 -78.6176 76.6307 -106.108 -78.264 75.0565 -105.896 -79.1166 78.2802 
-106.57 -77.9668 76.031 -106.573 -77.4136 74.5939 -106.474 -78.479 77.693 
-106.486 -79.1602 79.3593 -107.257 -77.296 75.6115 -107.127 -76.6953 74.2134 
-107.337 -77.986 77.0276 -107.303 -78.7054 78.6843 -107.357 -79.5041 80.2861 
-107.997 -76.6617 75.3206 -108.013 -76.2808 73.7728 -108.141 -77.3189 76.6472 
-108.214 -78.2013 78.0312 -108.196 -79.0832 79.677 -108.264 -79.9367 81.2126 
-108.889 -76.1847 74.9487 -109.083 -76.0001 73.3608 -108.812 -76.6018 76.45 
-108.896 -77.4246 77.7015 -108.981 -78.5085 79.0982 -109.009 -79.4349 80.7254 
-109.102 -80.3872 82.0852 -109.947 -75.834 74.537 -110.114 -75.6973 73.116 
-109.676 -76.1605 76.1176 -109.573 -76.7948 77.4818 -109.729 -77.869 78.6591 
-109.867 -78.9576 80.1177 -109.898 -79.843 81.6502 -109.959 -80.9341 82.7734 
-110.983 -75.5362 74.2409 -111.026 -75.4384 72.997 -110.769 -75.8957 75.6971 
-110.533 -76.4638 77.1523 -110.555 -77.3601 78.3293 -110.734 -78.4731 79.5734 
-110.765 -79.3891 81.1321 -110.707 -80.2857 82.4976 -110.684 -81.4831 83.4447 
-111.804 -75.3424 74.0687 -111.793 -75.3227 72.9038 -111.759 -75.6599 75.3707 
-111.599 -76.1978 76.791 -111.468 -76.9258 78.06 -111.473 -77.9005 79.2323 
-111.452 -78.8691 80.6912 -111.336 -79.6873 82.238 -111.247 -80.6888 83.3741 
-111.174 -81.9385 84.1991 -112.466 -75.3092 73.5516 -112.52 -75.4427 74.8253 
-113.217 -75.5117 74.2657 -113.375 -75.7473 75.6584 -114.219 -75.9245 74.9879 
-112.563 -75.8715 76.2377 -114.336 -76.2731 76.4827 -115.148 -76.5253 75.6935 
-113.43 -76.2745 77.156 -112.455 -76.5036 77.6702 -114.958 -77.0681 77.3212 
-115.491 -77.4428 76.5302 -114.174 -77.013 78.0436 -113.217 -77.0693 78.5962 
-112.253 -77.3558 78.9705 -115.152 -78.135 78.342 -115.466 -78.7345 77.6342 
-114.601 -77.9918 78.9967 -113.817 -78.0312 79.5307 -112.844 -78.0633 80.034 
-112.038 -78.3575 80.4217 -115.379 -79.3738 79.54 -115.478 -80.0727 78.8885 
-114.934 -78.9767 80.1751 -114.299 -79.01 80.6146 -113.426 -79.0402 81.1235 
-112.49 -79.0102 81.7331 -111.832 -79.2488 82.115 -115.624 -80.6601 80.6986 
-115.43 -81.2135 80.0784 -115.323 -80.1074 81.4183 -114.705 -79.9092 81.8902 
-113.979 -79.9643 82.2723 -113.121 -79.9002 82.8639 -112.305 -79.8823 83.3884 
-111.721 -80.1904 83.5117 -115.625 -81.9678 81.6952 -115.31 -82.3465 81.0985 
-115.518 -81.5153 82.4548 -114.987 -81.1552 83.0232 -114.347 -81.0261 83.385 
-113.714 -80.957 83.8416 -112.986 -80.8777 84.3388 -112.256 -81.0236 84.5474 
-111.663 -81.4472 84.4243 -115.525 -83.3374 82.5485 -115.31 -83.6537 81.9508 
-115.482 -83.0182 83.2756 -115.116 -82.7057 83.8382 -114.602 -82.4576 84.2128 
-114.115 -82.2799 84.6501 -113.576 -82.1585 85.1224 -112.883 -82.1914 85.3725 
-112.148 -82.4361 85.3595 -111.53 -82.784 85.2176 -111.154 -84.0329 86.1177 
-111.752 -83.9252 86.1662 -111.368 -85.3054 87.0544 -112.521 -83.7894 86.1957 
-112.078 -85.4525 86.9908 -111.776 -87.1692 87.7169 -113.33 -83.6881 86.165 
-112.912 -85.5178 86.9717 -112.518 -87.4641 87.6535 -112.281 -89.4334 88.4082 
-113.986 -83.7322 85.8598 -113.704 -85.5396 86.9428 -113.285 -87.6175 87.6993 
-112.968 -89.7161 88.4454 -112.759 -91.5988 89.4199 -114.457 -83.9176 85.2974 
-114.317 -85.6527 86.5731 -113.972 -87.7475 87.6993 -113.625 -89.9548 88.5238 
-113.431 -91.953 89.4634 -113.245 -93.7541 90.4053 -114.848 -84.1505 84.8515 
-114.706 -85.8379 85.9924 -114.468 -87.905 87.3272 -114.172 -90.2249 88.4538 
-114.02 -92.4156 89.4233 -113.903 -94.4176 90.3814 -113.659 -96.4543 90.9957 
-115.219 -84.3987 84.4874 -115.004 -86.0467 85.6004 -114.791 -88.0438 86.8027 
-114.557 -90.3562 88.0364 -114.437 -92.743 89.1723 -114.362 -95.0691 90.2411 
-114.158 -97.3488 90.9915 -113.864 -99.6081 91.2921 -115.477 -84.6714 83.881 
-115.34 -86.2962 85.1883 -115.153 -88.2316 86.3787 -114.932 -90.3891 87.4961 
-114.76 -92.6937 88.6431 -114.639 -95.2639 89.8609 -114.457 -97.9544 90.8404 
-114.2 -100.413 91.281 -113.981 -102.558 91.4201 -115.519 -84.9703 83.1351 
-115.58 -86.5524 84.5018 -115.506 -88.4274 85.8512 -115.35 -90.465 87.003 
-115.128 -92.522 88.0535 -114.874 -94.9616 89.2418 -114.654 -97.9611 90.4093 
-114.482 -100.857 91.0919 -114.32 -103.147 91.2806 -114.189 -104.968 91.3914 
-110.738 -84.8652 86.8029 -111.038 -86.4862 87.6275 -110.35 -85.9308 87.3642 
-111.533 -88.7854 88.2586 -110.766 -88.051 88.0144 -109.98 -87.3922 87.7436 
-112.052 -91.1694 89.2181 -111.282 -90.5011 88.8447 -110.441 -89.7201 88.5106 
-109.61 -88.9149 88.203 -112.525 -93.3361 90.3332 -111.783 -92.7624 90.0271 
-110.969 -91.9795 89.657 -110.061 -91.108 89.317 -109.266 -90.2325 88.7702 
-112.992 -95.9548 90.9825 -112.252 -95.3082 90.8418 -111.55 -94.4627 90.6162 
-110.717 -93.4894 90.3798 -109.785 -92.497 89.9463 -109.034 -91.5778 89.1845 
-113.386 -99.3171 91.2747 -112.728 -98.749 91.2008 -112.075 -97.8354 91.0397 
-111.445 -96.6787 90.8239 -110.596 -95.3734 90.5807 -109.666 -94.087 90.1639 
-108.932 -92.9763 89.4707 -113.691 -102.64 91.5354 -113.251 -102.44 91.6424 
-112.626 -101.722 91.6037 -112.005 -100.522 91.2892 -111.348 -98.9612 90.8643 
-110.458 -97.1703 90.6149 -109.536 -95.5034 90.3664 -108.829 -94.1603 89.7705 
-113.973 -105.282 91.6933 -113.751 -105.402 92.0775 -113.284 -105.024 92.3644 
-112.57 -104.051 92.2607 -111.871 -102.572 91.6775 -111.126 -100.63 91.0827 
-110.178 -98.4856 90.8787 -109.28 -96.5911 90.6736 -108.645 -95.0926 90.0083 
-114.315 -107.372 91.4953 -114.142 -107.692 92.0293 -114.396 -109.87 91.5902 
-114.178 -109.838 92.1209 -114.435 -112.287 91.3231 -113.914 -107.569 92.6147 
-113.953 -111.58 91.5867 -114.62 -114.148 90.535 -113.743 -109.135 92.6373 
-113.282 -106.865 92.9957 -113.672 -112.892 90.6811 -114.763 -115.147 89.6434 
-113.217 -110.347 91.9291 -112.948 -108.092 92.9795 -112.414 -105.657 92.7863 
-113.404 -113.69 90.0049 -114.282 -115.284 89.1109 -112.828 -111.409 91.0197 
-112.599 -109.043 92.2039 -112.208 -106.705 92.6855 -111.646 -103.886 91.9896 
-112.936 -113.553 89.675 -113.274 -114.459 88.897 -112.661 -111.855 90.4137 
-112.524 -109.594 91.2404 -112.177 -107.282 91.9138 -111.468 -104.697 91.887 
-110.738 -101.585 91.3622 -112.358 -112.29 89.4152 -112.435 -112.742 88.7393 
-112.331 -111.196 90.0633 -112.274 -109.369 90.6369 -111.972 -107.267 91.1336 
-111.239 -105.049 91.4113 -110.321 -102.266 91.4045 -109.652 -99.1998 91.1595 
-111.87 -110.402 89.0702 -111.939 -110.587 88.5338 -111.811 -109.743 89.6963 
-111.631 -108.502 90.2997 -111.267 -106.809 90.7669 -110.693 -104.935 91.0334 
-109.917 -102.62 91.1553 -109.211 -99.7946 91.1 -108.827 -97.1412 90.7054 
-111.369 -108.41 88.6966 -111.467 -108.377 88.3133 -111.24 -108.041 89.2268 
-110.945 -107.297 89.8557 -110.48 -106.1 90.4295 -110.028 -104.486 90.7372 
-109.586 -102.475 90.7715 -109.05 -100.039 90.6571 -108.582 -97.5485 90.3355 
-108.318 -95.4754 89.7483 -114.589 -106.104 91.1371 -114.717 -108.654 91.1048 
-115.052 -107.168 90.8492 -115.13 -109.731 90.7044 -115.262 -107.851 90.5592 
-114.763 -111.447 91.0158 -115.228 -110.183 90.2592 -115.121 -107.803 90.1497 
-115.19 -112.433 90.3214 -115.088 -114.13 90.4758 -115.031 -109.879 89.6968 
-114.914 -106.785 89.56 -115.29 -112.449 89.5205 -115.813 -114.893 89.4008 
-115.803 -115.915 89.4543 -114.817 -108.595 89.1416 -114.695 -104.67 88.9175 
-115.013 -111.723 88.9044 -115.841 -114.474 88.4705 -116.575 -116.423 88.2852 
-115.905 -116.494 88.5532 -114.524 -105.982 88.6936 -114.345 -101.924 88.2341 
-114.601 -109.879 88.6779 -115.132 -113.117 88.2117 -116.079 -115.669 87.677 
-116.077 -116.704 87.634 -114.737 -115.996 88.1806 -114.11 -102.727 88.1386 
-113.996 -99.4395 87.3889 -114.149 -106.604 88.539 -114.332 -110.31 88.3972 
-114.908 -113.427 87.8255 -115.183 -115.402 87.3921 -114.457 -115.604 87.5595 
-113.273 -114.429 88.1534 -113.724 -99.9513 87.3084 -113.7 -97.552 86.4472 
-113.721 -103.011 88.052 -113.764 -106.389 88.3757 -114.003 -109.604 88.1323 
-114.177 -112.186 87.663 -113.837 -113.47 87.5012 -113.096 -113.233 87.7596 
-112.408 -112.056 88.1765 -113.357 -97.8763 86.3564 -113.339 -96.0266 85.5866 
-113.339 -100.138 87.182 -113.336 -102.735 87.8385 -113.435 -105.403 88.0597 
[...]
CELL_DATA 2000
SCALARS Distance double
LOOKUP_TABLE default
151.897 152.796 152.527 152.929 153.702 153.474 153.93 153.654 154.129 
154.643 154.4 154.912 154.67 155.175 154.91 155.492 155.775 155.429 
155.972 155.698 156.288 156.007 156.636 156.386 157.139 157.048 156.652 
157.196 156.861 157.516 157.217 157.926 157.627 158.398 158.161 159.021 
158.3 157.931 158.455 158.116 158.75 158.484 159.225 158.966 159.738 
159.47 160.291 160.078 160.95 159.496 159.163 159.685 159.346 159.937 
159.679 160.407 160.218 161.011 160.79 161.593 161.362 162.222 162.022 
162.913 160.6 160.331 160.874 160.561 161.149 160.864 161.582 161.383 
162.21 162.027 162.871 162.657 163.53 163.326 164.246 164.033 164.923 
161.545 161.365 161.921 161.699 162.3 162.063 162.773 162.578 163.402 
163.234 164.094 163.914 164.79 164.62 165.538 165.368 166.268 166.036 
166.847 151.522 151.295 151.695 152.339 151.075 151.45 152.009 152.498 
153.183 150.82 151.215 151.777 152.196 152.878 153.376 154.138 150.631 
151.016 151.696 152.061 152.803 153.201 154.02 154.46 155.311 150.664 
150.958 151.704 152.056 152.837 153.217 154.05 154.456 155.318 155.734 
156.594 150.945 151.117 151.8 152.093 152.828 153.22 154.027 154.477 
155.326 155.763 156.605 157.021 157.844 151.372 151.456 152.074 152.246 
152.928 153.217 154.013 154.432 155.323 155.768 156.64 157.041 157.865 
158.252 159.042 151.841 151.894 152.502 152.598 153.271 153.43 154.204 
154.499 155.401 155.807 156.721 157.109 157.933 158.289 159.055 159.421 
160.144 152.291 152.344 152.939 153.044 153.716 153.847 154.573 154.771 
155.578 155.913 156.772 157.174 157.97 158.342 159.056 159.414 160.094 
160.458 161.094 152.708 153.613 153.211 153.39 154.76 154.243 154.462 
154.01 154.232 156.074 155.512 155.728 155.195 155.425 154.913 155.124 
157.292 156.815 157.039 156.515 156.722 156.165 156.36 155.83 156.086 
158.428 157.983 158.26 157.793 158.04 157.492 157.676 157.101 157.338 
156.852 157.202 159.692 159.206 159.535 159.034 159.349 158.821 159.068 
158.471 158.689 158.131 158.441 157.998 158.363 160.955 160.549 160.936 
160.408 160.727 160.17 160.458 159.885 160.134 159.536 159.799 159.262 
159.584 159.128 159.449 162.041 161.768 162.233 161.807 162.128 161.576 
161.83 161.27 161.542 160.981 161.254 160.671 160.947 160.397 160.688 
160.196 160.482 163.082 162.829 163.346 163.023 163.388 162.918 163.159 
162.623 162.884 162.365 162.672 162.124 162.402 161.808 162.053 161.483 
161.729 161.22 161.468 162.153 162.471 162.649 163.364 162.865 163.038 
163.82 163.969 164.805 163.268 163.487 164.335 164.496 165.381 165.542 
166.529 163.547 163.865 164.781 165.033 165.963 166.151 167.152 167.37 
168.462 163.721 164.076 165.023 165.411 166.413 166.713 167.738 167.987 
169.093 169.349 170.475 163.939 164.239 165.14 165.569 166.603 167.06 
168.147 168.524 169.658 169.976 171.16 171.401 172.534 164.145 164.456 
165.296 165.68 166.668 167.163 168.266 168.794 169.96 170.447 171.668 
172.062 173.261 173.493 174.6 164.133 164.568 165.415 165.832 166.797 
167.249 168.313 168.835 169.966 170.564 171.777 172.395 173.637 174.111 
175.245 175.504 176.521 163.914 164.449 165.337 165.869 166.855 167.367 
168.404 168.899 169.938 170.483 171.589 172.287 173.528 174.262 175.478 
175.989 177.016 177.289 178.179 162.203 163.408 162.742 162.641 164.862 
164.07 164.005 163.241 163.123 166.648 165.717 165.699 164.779 164.723 
163.83 163.718 168.653 167.679 167.724 166.675 166.644 165.612 165.543 
164.541 164.421 170.677 169.742 169.844 168.8 168.786 167.679 167.604 
166.501 166.381 165.304 165.144 172.721 171.79 171.934 170.922 170.965 
169.872 169.835 168.674 168.562 167.373 167.211 166.061 165.886 174.849 
173.928 174.189 173.125 173.286 172.136 172.213 171.003 170.959 169.678 
169.524 168.245 168.065 166.857 166.678 176.878 176.111 176.578 175.577 
175.928 174.701 174.897 173.559 173.585 172.195 172.039 170.649 170.408 
169.103 168.868 167.652 167.411 178.588 178.057 178.67 177.959 178.476 
177.447 177.72 176.398 176.415 174.941 174.74 173.229 172.893 171.464 
171.116 169.825 169.496 168.298 167.965 179.607 181.215 180.238 179.832 
182.642 181.781 181.396 180.424 179.779 183.596 182.894 182.336 181.701 
181.074 180.123 179.095 184.036 183.456 182.624 182.207 181.536 181.039 
180.102 179.109 177.751 183.969 183.605 182.665 182.264 181.518 181.208 
180.403 179.795 178.529 177.479 175.943 183.223 183.27 182.442 182.202 
181.391 181.109 180.297 179.901 178.754 177.99 176.457 175.46 173.922 
181.836 182.258 181.583 181.72 180.89 180.8 179.855 179.632 178.492 
178.009 176.552 175.765 174.197 173.352 171.975 180.162 180.741 180.156 
180.576 179.803 179.979 178.994 178.958 177.815 177.57 176.233 175.698 
174.201 173.488 172.073 171.405 170.217 178.432 179.051 178.504 179.031 
178.342 178.695 177.811 177.934 176.877 176.794 175.592 175.275 173.915 
173.376 171.98 171.389 170.147 169.641 168.587 179.804 180.598 180.591 
181.371 181.221 181.356 182.176 182.197 182.904 181.282 181.759 182.622 
182.904 183.748 183.726 184.168 180.638 181.495 182.359 183.01 183.95 
184.406 185.108 184.891 184.899 179.334 180.565 181.466 182.405 183.31 
184.205 185.093 185.539 185.755 185.332 184.832 177.393 178.95 179.923 
181.21 182.04 183.203 184.04 185.035 185.415 185.689 185.203 184.77 
183.86 175.168 176.76 177.682 179.287 180.062 181.529 182.178 183.528 
183.881 184.774 184.405 184.561 183.59 183.321 182.262 173.146 174.502 
175.238 176.824 177.506 179.138 179.641 181.214 181.445 182.763 182.497 
183.247 182.423 182.61 181.551 181.471 180.466 171.428 172.539 173.073 
174.415 174.956 176.459 176.868 178.416 178.579 180.034 179.843 180.989 
180.381 181.065 180.165 180.462 179.494 179.576 178.654 164.049 164.852 
164.809 165.563 165.621 165.647 166.466 166.424 167.185 166.21 166.334 
167.219 167.325 168.231 168.133 168.841 166.918 166.968 167.954 168.081 
169.136 169.18 170.044 169.802 170.404 167.953 167.906 168.986 168.983 
170.117 170.143 171.145 171.002 171.749 171.392 172.033 168.987 169.035 
170.143 170.14 171.28 171.259 172.366 172.226 173.201 172.866 173.735 
173.257 174.056 169.743 169.949 171.061 171.207 172.398 172.472 173.748 
173.661 174.925 174.603 175.757 175.222 176.177 175.488 176.178 170.311 
170.595 171.76 172.021 173.35 173.581 175.086 175.178 176.692 176.525 
177.856 177.409 178.407 177.71 178.323 177.479 177.806 170.801 171.132 
172.365 172.709 174.155 174.535 176.178 176.499 178.097 178.198 179.509 
179.333 180.249 179.771 180.265 179.515 179.711 178.847 178.946 163.242 
162.25 163.148 163.997 161.277 162.145 163.009 163.964 164.792 160.355 
161.141 161.913 162.913 163.764 164.689 165.395 159.48 160.18 160.782 
161.729 162.536 163.572 164.345 165.243 166.008 158.569 159.252 159.748 
160.578 161.297 162.308 163.142 164.143 164.984 165.95 166.907 157.616 
158.29 158.77 159.545 160.216 161.138 161.981 162.974 163.859 164.868 
165.814 166.887 167.885 156.791 157.385 157.871 158.581 159.225 160.085 
160.897 161.872 162.746 163.741 164.625 165.69 166.63 167.753 168.65 
156.174 156.684 157.193 157.785 158.387 159.116 159.846 160.767 161.611 
162.616 163.462 164.477 165.333 166.422 167.304 168.409 169.22 155.696 
156.159 156.684 157.207 157.768 158.355 158.97 159.731 160.491 161.45 
162.301 163.308 164.135 165.146 165.972 167.041 167.865 168.938 169.699 
155.623 155.822 156.015 156.613 155.925 156.189 156.827 157.057 157.689 
156.024 156.295 157.003 157.271 157.981 158.169 158.863 156.288 156.502 
157.312 157.542 158.366 158.538 159.344 159.481 160.348 156.675 156.864 
157.719 157.952 158.852 159.035 159.941 160.078 161.037 161.17 162.164 
157.124 157.278 158.102 158.354 159.259 159.523 160.473 160.707 161.725 
161.918 162.955 163.067 164.032 157.717 157.792 158.621 158.777 159.704 
159.934 160.943 161.218 162.307 162.581 163.68 163.861 164.873 164.931 
165.861 158.445 158.489 159.385 159.443 160.438 160.544 161.641 161.811 
162.985 163.207 164.389 164.589 165.685 165.789 166.785 166.799 167.734 
159.175 159.258 160.191 160.275 161.298 161.404 162.531 162.662 163.853 
164.006 165.2 165.361 166.507 166.631 167.697 167.747 168.731 168.704 
169.595 159.854 161.263 160.68 160.935 162.807 162.176 162.516 161.858 
162.137 164.607 163.872 164.287 163.562 163.958 163.192 163.48 166.66 
165.867 166.353 165.508 165.959 165.134 165.52 164.632 164.873 168.819 
168.053 168.665 167.759 168.253 167.298 167.717 166.764 167.067 166.064 
166.237 171.098 170.329 171.102 170.204 170.828 169.783 170.254 169.144 
169.491 168.367 168.577 167.451 167.56 173.528 172.761 173.67 172.78 
173.56 172.505 173.087 171.882 172.272 170.992 171.218 169.927 170.013 
168.773 168.786 175.802 175.206 176.193 175.422 176.3 175.326 176.005 
174.819 175.251 173.91 174.114 172.702 172.723 171.326 171.24 169.942 
169.836 177.57 177.261 178.261 177.788 178.723 178.004 178.761 177.735 
178.209 176.911 177.089 175.634 175.574 174.076 173.864 172.427 172.175 
170.882 170.669 159.443 159.224 159.832 160.826 158.926 159.596 160.639 
161.261 162.329 158.482 159.239 160.304 161.034 162.17 162.844 164.056 
157.921 158.737 159.841 160.651 161.843 162.633 163.921 164.671 166.015 
157.398 158.202 159.406 160.23 161.508 162.311 163.66 164.48 165.894 
166.679 168.09 157.029 157.766 159.048 159.885 161.279 162.078 163.493 
164.272 165.739 166.541 168.045 168.809 170.307 156.842 157.483 158.737 
159.566 161.007 161.883 163.36 164.169 165.653 166.444 167.988 168.787 
170.368 171.124 172.681 156.791 157.35 158.529 159.276 160.671 161.573 
163.079 163.988 165.488 166.343 167.86 168.715 170.283 171.138 172.693 
173.481 174.922 156.781 157.302 158.414 159.082 160.395 161.237 162.718 
163.657 165.178 166.1 167.594 168.5 170.005 170.934 172.427 173.332 
174.713 175.516 176.705 158.511 157.02 157.914 158.238 155.627 156.408 
156.678 157.614 157.929 154.422 155.068 155.237 156.066 156.335 157.263 
157.502 153.253 153.864 153.92 154.648 154.798 155.657 155.827 156.745 
156.909 152.065 152.653 152.629 153.285 153.288 154.074 154.144 155.038 
155.159 156.112 156.321 151.004 151.518 151.483 152.006 151.904 152.53 
152.507 153.335 153.469 154.399 154.638 155.607 155.947 150.064 150.546 
150.546 150.969 150.822 151.233 151.104 151.751 151.881 152.771 153.09 
154.027 154.408 155.359 155.8 149.198 149.648 149.663 150.079 149.918 
150.237 150.006 150.461 150.497 151.27 151.613 152.543 152.978 153.906 
154.357 155.3 155.783 148.532 148.858 148.853 149.209 149.047 149.34 
149.085 149.431 149.385 149.996 150.302 151.146 151.623 152.524 153.009 
153.913 154.401 155.328 155.815 148.306 148.06 148.267 148.489 147.874 
147.978 148.037 148.341 148.542 147.835 147.832 147.805 147.905 147.989 
148.323 148.571 147.824 147.821 147.817 147.803 147.878 147.964 148.239 
148.514 148.981 147.871 147.815 147.875 147.881 148.047 148.058 148.4 
148.496 149.056 149.266 149.977 148.322 148.047 148.191 148.075 148.363 
148.33 148.765 148.824 149.451 149.587 150.339 150.518 151.319 149.166 
148.759 148.988 148.694 149.077 148.862 149.35 149.287 149.965 150.071 
150.872 151.005 151.803 151.938 152.727 150.07 149.691 149.958 149.663 
150.091 149.799 150.275 150.041 150.669 150.656 151.475 151.587 152.415 
152.498 153.27 153.363 154.133 150.956 150.593 150.86 150.606 151.037 
150.818 151.285 151.034 151.563 151.432 152.161 152.218 153.046 153.131 
153.9 153.956 154.698 154.782 155.537 151.556 152.576 151.832 151.5 
153.802 152.973 152.64 151.911 151.703 155.232 154.322 154.022 153.169 
152.932 152.195 151.996 156.94 155.926 155.683 154.688 154.439 153.535 
153.319 152.517 152.336 158.86 157.801 157.603 156.498 156.249 155.184 
154.961 153.999 153.859 152.997 152.954 160.828 159.796 159.651 158.517 
158.284 157.12 156.902 155.808 155.681 154.694 154.661 153.783 153.818 
162.815 161.802 161.74 160.621 160.461 159.258 159.081 157.891 157.769 
156.654 156.58 155.574 155.54 154.661 154.658 164.821 163.833 163.841 
162.76 162.699 161.518 161.419 160.186 160.087 158.861 158.751 157.585 
157.477 156.439 156.378 155.477 155.46 166.747 165.836 165.885 164.879 
164.883 163.783 163.745 162.561 162.481 161.239 161.109 159.847 159.686 
158.483 158.363 157.297 157.248 156.313 156.305 157.09 158.126 157.975 
158.779 159.343 159.155 160.102 159.876 160.825 160.751 160.527 161.605 
161.367 162.47 162.153 163.204 162.232 162.034 163.183 162.977 164.195 
163.925 165.088 164.684 165.718 163.645 163.527 164.717 164.572 165.844 
165.674 166.945 166.63 167.749 167.242 168.196 164.926 164.907 166.168 
166.097 167.436 167.328 168.716 168.504 169.775 169.336 170.389 169.756 
170.659 166.048 166.129 167.46 167.518 168.95 168.939 170.417 170.302 
171.7 171.385 172.556 171.999 172.957 172.249 173.089 167.012 167.171 
168.503 168.711 170.183 170.364 171.864 171.929 173.331 173.217 174.418 
174.072 175.044 174.485 175.3 174.611 175.33 167.823 168.038 169.307 
169.615 171.043 171.404 172.879 173.159 174.511 174.619 175.783 175.697 
176.668 176.362 177.153 176.65 177.314 176.683 177.255 151.814 151.316 
151.342 150.839 150.829 150.826 150.301 150.288 149.697 150.347 150.316 
149.809 149.797 149.273 149.186 148.695 149.982 149.837 149.301 149.305 
148.883 148.863 148.484 148.402 148.199 149.982 149.627 149.072 148.891 
148.511 148.499 148.226 148.23 148.059 148.109 148.133 150.317 149.864 
149.378 148.941 148.56 148.311 148.072 147.998 147.851 147.907 147.894 
148.069 148.138 150.628 150.265 149.815 149.382 148.939 148.554 148.247 
148.013 147.852 147.764 147.73 147.804 147.872 148.031 148.069 150.78 
150.488 149.99 149.682 149.142 148.833 148.395 148.194 147.975 147.867 
147.801 147.754 147.792 147.837 147.914 147.987 148.024 150.947 150.605 
150.092 149.77 149.223 148.904 148.41 148.21 147.946 147.912 147.847 
147.844 147.836 147.831 147.873 147.91 147.994 148.034 148.138 151.972 
151.008 151.668 151.993 149.807 150.566 150.936 151.703 152.095 148.733 
149.334 149.719 150.562 151.076 151.842 152.287 148.27 148.511 148.887 
149.493 150.149 150.889 151.495 152.127 152.649 148.308 148.355 148.707 
148.998 149.682 150.227 150.97 151.498 152.092 152.611 153.198 148.331 
148.436 148.716 148.939 149.491 149.943 150.668 151.15 151.748 152.162 
152.67 153.188 153.722 148.191 148.346 148.552 148.816 149.237 149.688 
150.32 150.849 151.449 151.866 152.316 152.706 153.137 153.636 154.059 
148.096 148.181 148.392 148.607 149.049 149.414 150.039 150.495 151.133 
151.558 152.077 152.418 152.847 153.176 153.591 153.974 154.366 148.222 
148.19 148.45 148.567 149.103 149.37 150.064 150.369 151.012 151.321 
151.878 152.21 152.721 153.017 153.474 153.719 154.146 154.41 154.836 
152.521 152.59 152.815 153.404 152.744 152.95 153.574 153.804 154.53 
152.94 153.144 153.822 154.045 154.798 155.053 155.846 153.27 153.401 
154.09 154.305 155.058 155.328 156.088 156.352 157.057 153.821 153.856 
154.505 154.608 155.283 155.517 156.225 156.527 157.219 157.486 158.166 
154.349 154.438 155.051 155.084 155.649 155.745 156.378 156.624 157.341 
157.634 158.365 158.63 159.378 154.614 154.819 155.398 155.542 156.063 
156.138 156.714 156.858 157.57 157.806 158.552 158.818 159.536 159.832 
160.552 154.808 154.972 155.507 155.729 156.269 156.459 157.048 157.228 
157.907 158.105 158.798 159.009 159.654 159.916 160.563 160.902 161.579 
155.208 155.224 155.726 155.846 156.4 156.601 157.223 157.478 158.15 
158.398 159.046 159.248 159.857 160.053 160.687 160.935 161.63 161.935 
162.649 158.352 157.652 157.641 156.907 157.003 156.981 156.317 156.253 
155.586 156.44 156.395 155.805 155.748 155.144 155.046 154.441 155.945 
155.865 155.257 155.243 154.664 154.622 154.001 153.919 153.29 155.558 
155.404 154.739 154.672 154.05 154.056 153.442 153.429 152.778 152.72 
152.096 155.385 155.133 154.501 154.26 153.603 153.459 152.88 152.857 
152.321 152.255 151.66 151.558 151.013 155.359 155.091 154.549 154.212 
153.589 153.221 152.647 152.45 152.048 151.943 151.479 151.262 150.667 
150.52 150.028 155.266 155.069 154.564 154.313 153.753 153.365 152.766 
152.416 151.975 151.804 151.405 151.184 150.571 150.269 149.632 149.537 
149.122 155.08 154.917 154.409 154.254 153.747 153.496 152.928 152.585 
152.047 151.787 151.311 151.099 150.496 150.187 149.488 149.234 148.731 
148.714 148.464 
POINT_DATA 1002
SCALARS Distance double
LOOKUP_TABLE default
152.223 151.319 152.151 153.208 153.03 153.358 154.185 153.894 154.398 
154.635 155.124 154.914 155.431 155.699 156.143 156.252 156.161 156.543 
156.894 157.318 157.96 157.546 157.441 157.792 158.216 158.67 159.21 
159.897 158.808 158.653 159.014 159.447 160.013 160.534 161.131 161.825 
160.029 159.809 160.22 160.581 161.196 161.826 162.423 163.113 163.804 
161.158 160.835 161.437 161.793 162.375 163.063 163.726 164.445 165.183 
165.783 162.104 161.699 162.504 162.962 163.567 164.266 164.955 165.693 
166.478 167.144 167.614 151.097 151.84 150.952 151.563 150.716 152.627 
151.371 150.377 152.402 153.608 151.302 150.216 152.416 153.596 154.86 
151.361 150.42 152.453 153.644 154.914 156.184 151.573 150.846 152.469 
153.566 154.875 156.193 157.441 151.955 151.32 152.699 153.62 154.857 
156.239 157.491 158.665 152.411 151.796 153.143 153.974 155.021 156.328 
157.6 158.712 159.791 152.828 152.253 153.581 154.427 155.321 156.393 
157.597 158.715 159.742 160.751 153.046 153.762 154.034 154.936 155.313 
154.69 156.29 156.622 155.963 155.626 157.536 157.722 157.296 156.909 
156.547 158.696 158.871 158.552 158.275 157.85 157.62 160.057 160.153 
159.858 159.641 159.293 158.928 158.78 161.442 161.273 161.313 161.015 
160.723 160.391 160.082 159.892 162.591 162.262 162.671 162.405 162.076 
161.832 161.543 161.218 160.956 163.638 163.349 163.812 163.684 163.392 
163.189 162.998 162.666 162.277 161.955 162.808 163.185 164.102 163.656 
164.624 165.694 164.142 165.213 166.313 167.587 164.457 165.748 166.933 
168.214 169.59 164.585 166.033 167.465 168.821 170.248 171.59 164.745 
166.094 167.69 169.294 170.866 172.371 173.648 164.942 166.205 167.711 
169.405 171.189 172.955 174.466 175.695 164.953 166.355 167.838 169.397 
171.104 173.047 174.919 176.36 177.515 164.76 166.304 167.913 169.467 
170.954 172.718 174.829 176.697 177.999 179.028 163.317 164.795 163.906 
166.667 165.64 164.626 168.787 167.724 166.574 165.433 170.854 169.895 
168.743 167.498 166.216 172.932 172.021 170.982 169.784 168.407 167.014 
175.214 174.433 173.416 172.251 170.85 169.319 167.866 177.436 177.096 
176.266 175.022 173.494 171.783 170.129 168.613 179.228 179.353 178.985 
177.916 176.316 174.418 172.487 170.737 169.141 180.571 180.922 182.158 
182.268 183.509 181.003 182.912 184.376 181.838 180.387 183.09 184.649 
181.881 180.897 179.027 183.084 184.18 181.83 180.853 179.464 177.099 
182.55 182.942 181.698 180.652 179.392 177.41 174.868 181.287 181.283 
180.918 180.058 178.859 177.229 175.023 172.707 179.657 179.55 179.529 
178.967 177.961 176.627 174.847 172.739 170.777 177.95 177.801 177.91 
177.593 176.878 175.796 174.356 172.547 170.658 169.009 179.817 181.389 
180.592 182.093 180.984 183.051 182.206 180.663 183.575 184.626 181.623 
179.636 183.257 185.026 185.679 180.445 177.934 182.341 184.339 185.918 
185.673 178.484 175.773 180.853 182.935 184.852 185.477 184.461 176.038 
173.701 178.537 180.808 182.801 183.993 183.747 182.565 173.775 171.966 
175.91 178.084 180.044 181.502 182.005 181.522 180.569 171.879 170.441 
173.569 175.395 177.135 178.571 179.472 179.677 179.303 178.616 164.042 
165.628 164.888 166.43 165.55 167.344 167.025 166.06 168.207 169.148 
167.824 166.873 169.017 170.191 170.797 169.025 167.966 170.114 171.228 
172.024 172.433 170.121 168.88 171.29 172.443 173.437 174.155 174.631 
170.853 169.503 172.218 173.695 175.119 176.236 176.897 177.02 171.433 
170 173 174.841 176.735 178.238 179.109 179.228 178.733 162.339 
163.065 161.349 162.024 160.462 163.941 160.941 159.668 162.777 164.578 
159.937 158.841 161.472 163.364 165.095 158.981 157.888 160.331 162.093 
163.973 165.886 158.005 156.957 159.327 160.994 162.86 164.748 166.812 
157.197 156.222 158.414 159.937 161.765 163.618 165.513 167.57 156.636 
155.666 157.749 159.001 160.602 162.469 164.303 166.186 168.159 156.178 