# vtk DataFile Version 4.0
vtk output
ASCII
DATASET POLYDATA
POINTS 1002 float
-103.131 -78.5724 73.8538 -103.055 -78.018 72.5476 -103.702 -77.9354 73.2622 
-103.818 -78.5131 74.6339 -104.52 -77.904 74.0076 -103.243 -79.0983 75.2425 
-104.683 -78.5832 75.4643 -105.238 -77.8191 74.9644 -103.961 -79.1262 76.1057 
-103.493 -79.9103 76.6503 -105.476 -78.6356 76.466 -105.855 -77.7316 76.0476 
-104.893 -79.3656 77.0398 -104.327 -80.117 77.5905 -104.035 -81.1464 78.0894 
-106.283 -78.6763 77.4614 -106.716 -77.8195 77.0045 -105.84 -79.5905 78.0251 
-105.301 -80.4571 78.6167 -104.941 -81.4209 79.1014 -104.775 -82.4661 79.5076 
-107.259 -78.8614 78.3976 -107.746 -78.0886 77.9091 -106.822 -79.802 78.9488 
-106.299 -80.7674 79.5801 -105.828 -81.7237 80.1592 -105.608 -82.7765 80.5725 
-105.512 -83.862 80.8974 -108.126 -79.144 79.4715 -108.553 -78.3643 78.9477 
-107.733 -80.1001 79.9892 -107.294 -81.1394 80.5201 -106.803 -82.1231 81.0705 
-106.493 -83.2118 81.5296 -106.393 -84.4487 81.9098 -106.331 -85.5989 82.3158 
-108.778 -79.4188 80.5877 -109.19 -78.6195 80.0127 -108.443 -80.4012 81.1259 
-108.151 -81.555 81.5752 -107.807 -82.6712 81.9907 -107.532 -83.8054 82.3676 
-107.433 -85.1141 82.7224 -107.394 -86.3846 83.1567 -107.307 -87.369 83.6469 
-109.476 -79.7745 81.5023 -109.887 -78.962 80.9194 -109.159 -80.7565 82.0444 
-108.944 -81.9644 82.4893 -108.718 -83.2431 82.8953 -108.511 -84.4747 83.2828 
-108.429 -85.7625 83.6136 -108.421 -87.0548 83.9614 -108.386 -88.1339 84.374 
-108.278 -88.9482 84.7734 -110.262 -80.2588 82.189 -110.613 -79.4066 81.6298 
-109.982 -81.2803 82.6969 -109.794 -82.4969 83.133 -109.593 -83.8335 83.5805 
-109.377 -85.1512 84.0976 -109.258 -86.4301 84.5819 -109.233 -87.6928 84.9569 
-109.242 -88.8612 85.2638 -109.234 -89.8524 85.5299 -109.147 -90.6662 85.7557 
-103.359 -77.2796 71.7998 -104.095 -77.1711 72.5373 -103.75 -76.5206 71.1549 
-104.508 -76.3311 71.9721 -104.378 -75.943 70.4926 -104.887 -77.028 73.4157 
-105.202 -75.7263 71.3002 -105.358 -75.514 69.6203 -105.316 -76.1584 72.929 
-105.547 -76.8662 74.5177 -106.179 -75.2101 70.4006 -106.363 -74.9417 68.8063 
-106.128 -75.5889 72.1849 -106.157 -76.0801 73.9936 -106.315 -76.8647 75.6136 
-106.992 -74.44 69.7183 -107.116 -74.2742 68.313 -107.025 -74.9408 71.3081 
-107.097 -75.4909 73.1819 -107.146 -76.1636 75.0141 -107.371 -77.0948 76.5443 
-107.636 -73.7188 69.3202 -107.823 -73.7951 67.8017 -107.647 -74.0622 70.7734 
-107.849 -74.7462 72.433 -107.988 -75.4891 74.2903 -108.107 -76.3716 76.0129 
-108.346 -77.3875 77.5099 -108.425 -73.3451 68.8014 -108.587 -73.4364 67.0746 
-108.341 -73.4344 70.4318 -108.478 -73.9932 72.007 -108.668 -74.8052 73.6977 
-108.741 -75.6392 75.4684 -108.873 -76.5886 77.1182 -109.072 -77.623 78.6147 
-109.289 -73.0876 68.2015 -109.306 -73.056 66.42 -109.279 -73.1042 70.0192 
-109.349 -73.4509 71.698 -109.49 -74.2092 73.277 -109.514 -75.0377 74.9428 
-109.486 -75.8548 76.6825 -109.609 -76.8286 78.2855 -109.781 -77.9063 79.6894 
-110.081 -72.8273 67.7754 -109.999 -72.7683 66.0422 -110.199 -72.8297 69.6417 
-110.292 -73.0218 71.4009 -110.382 -73.6485 72.9496 -110.411 -74.5072 74.4682 
-110.315 -75.3194 76.1575 -110.273 -76.1895 77.8617 -110.39 -77.2329 79.3368 
-110.527 -78.3331 80.577 -110.841 -72.7124 66.9369 -111.012 -72.6561 68.8715 
-111.846 -72.7792 68.0384 -111.997 -72.6861 70.0632 -112.821 -72.9963 69.1454 
-111.143 -72.6904 70.8183 -112.834 -73.1538 71.1134 -113.575 -73.4712 70.1714 
-111.955 -72.9934 71.9507 -111.163 -73.1427 72.5228 -113.501 -73.9605 72.055 
-114.066 -74.2709 71.2101 -112.648 -73.8552 72.9158 -111.826 -73.7695 73.581 
-111.166 -74.0034 74.048 -114.099 -74.8524 73.1231 -114.391 -75.4165 72.4397 
-113.457 -74.7422 73.9171 -112.596 -74.6886 74.6436 -111.834 -74.6877 75.228 
-111.138 -74.9376 75.7143 -114.615 -76.0073 74.4282 -114.651 -76.7785 73.8897 
-114.268 -75.5708 75.162 -113.592 -75.4659 75.8827 -112.711 -75.5232 76.5075 
-111.861 -75.6763 77.061 -111.057 -75.8879 77.5307 -114.985 -77.4446 75.7956 
-114.854 -78.0492 75.3267 -114.78 -76.8733 76.5274 -114.314 -76.5059 77.2664 
-113.6 -76.4816 77.8269 -112.691 -76.6876 78.3177 -111.82 -76.8527 78.8025 
-111.071 -76.9772 79.1644 -115.225 -78.7921 77.0104 -114.995 -79.1597 76.5586 
-115.074 -78.4326 77.7415 -114.636 -78.0612 78.5367 -114.11 -77.8243 79.0887 
-113.427 -77.8769 79.4606 -112.597 -78.0174 79.8726 -111.84 -78.0545 80.2713 
-111.18 -78.1231 80.5066 -115.381 -80.0153 78.074 -115.1 -80.3262 77.627 
-115.341 -79.7895 78.7569 -114.938 -79.584 79.5533 -114.448 -79.3389 80.169 
-113.976 -79.1857 80.5533 -113.337 -79.1773 80.9134 -112.582 -79.1654 81.2873 
-111.895 -79.1488 81.5435 -111.259 -79.2346 81.6385 -111.11 -80.5083 82.603 
-111.755 -80.3797 82.6789 -111.63 -81.985 83.5782 -112.453 -80.3323 82.6652 
-112.28 -81.9375 83.7649 -112.167 -83.8703 84.6256 -113.254 -80.3892 82.4627 
-113.08 -81.974 83.869 -112.89 -84.0073 84.8824 -112.751 -85.9752 85.8528 
-113.993 -80.4752 82.0606 -113.927 -82.0695 83.6851 -113.732 -84.1595 85.0086 
-113.563 -86.3205 86.0893 -113.367 -88.2404 87.1959 -114.489 -80.6184 81.6046 
-114.532 -82.179 83.1911 -114.405 -84.262 84.7572 -114.297 -86.5748 86.1164 
-114.182 -88.7976 87.3759 -113.976 -91.0904 88.3523 -114.934 -80.8317 81.0908 
-114.941 -82.3566 82.6549 -114.773 -84.3984 84.2601 -114.668 -86.8105 85.8115 
-114.751 -89.3128 87.3021 -114.724 -91.9187 88.5263 -114.652 -94.6201 89.1955 
-115.399 -81.0229 80.3801 -115.389 -82.5784 82.0786 -115.147 -84.6122 83.7745 
-114.86 -87.0937 85.3957 -114.933 -89.8587 86.9738 -115.186 -92.7566 88.4102 
-115.327 -95.5656 89.3847 -115.466 -98.0757 89.8706 -115.574 -81.2383 79.605 
-115.666 -82.8264 81.34 -115.546 -84.8167 83.1501 -115.23 -87.2338 84.8818 
-115.085 -90.1281 86.499 -115.322 -93.342 88.0005 -115.723 -96.3549 89.1872 
-116.073 -98.8258 89.9261 -116.315 -100.849 90.3595 -115.378 -81.5467 78.9949 
-115.552 -83.1195 80.6096 -115.595 -84.9863 82.3765 -115.506 -87.1705 84.1502 
-115.39 -89.9087 85.8281 -115.465 -93.2515 87.3641 -115.852 -96.5784 88.6457 
-116.407 -99.239 89.5419 -116.85 -101.287 90.1121 -117.019 -103.061 90.486 
-110.857 -81.6442 83.1471 -111.458 -83.4512 84.1623 -110.676 -82.9741 83.6418 
-111.987 -85.467 85.4305 -111.271 -84.9715 84.8368 -110.475 -84.4009 84.162 
-112.526 -87.589 86.8966 -111.743 -86.9914 86.3802 -111.015 -86.466 85.579 
-110.221 -85.84 84.7865 -113.185 -90.3533 88.1171 -112.372 -89.4667 87.7619 
-111.613 -88.7247 87.1053 -110.874 -88.0686 86.2508 -110.063 -87.2675 85.4463 
-114.005 -94.0713 88.8942 -113.307 -93.1228 88.5482 -112.54 -91.9353 88.1205 
-111.761 -90.8639 87.4879 -110.911 -89.8133 86.7911 -110.019 -88.6825 85.9824 
-114.964 -97.8911 89.581 -114.418 -97.3126 89.1477 -113.689 -96.088 88.7589 
-112.813 -94.5457 88.3187 -111.913 -93.0666 87.7942 -110.939 -91.5511 87.2042 
-110.018 -90.0552 86.3344 -115.899 -100.971 90.3025 -115.449 -100.819 89.9578 
-114.795 -99.9846 89.5486 -113.819 -98.4151 89.1541 -112.815 -96.6653 88.6594 
-111.9 -94.9836 88.1234 -110.956 -93.1474 87.4722 -110.06 -91.3126 86.5369 
-116.629 -103.41 90.7047 -116.197 -103.525 90.6129 -115.651 -103.099 90.3118 
-114.735 -101.826 89.9999 -113.598 -99.9984 89.5928 -112.66 -98.2405 89.0115 
-111.864 -96.5067 88.379 -110.988 -94.4604 87.6116 -110.062 -92.3613 86.6603 
-117.277 -105.601 90.4491 -116.811 -106.011 90.6553 -117.328 -108.517 89.942 
-116.844 -108.736 89.9886 -117.454 -111.259 89.0126 -116.318 -105.981 90.5572 
-116.894 -111.047 88.9556 -117.679 -113.399 88.0766 -116.286 -108.39 89.9201 
-115.619 -105.185 90.3877 -116.735 -112.75 88.1257 -117.446 -115.133 87.3746 
-116.144 -110.304 89.1122 -115.451 -107.132 90.076 -114.497 -103.408 90.2546 
-116.157 -113.918 87.5668 -116.577 -116.064 86.8056 -115.782 -111.437 88.4945 
-115.241 -108.503 89.5873 -114.285 -104.772 90.183 -113.338 -101.235 89.8464 
-115.495 -113.921 87.1941 -115.603 -115.184 86.4952 -115.356 -111.683 88.0159 
-115.042 -108.986 88.9618 -114.219 -105.602 89.7079 -113.226 -102.185 89.7631 
-112.498 -99.3151 89.1626 -114.859 -112.381 87.188 -114.779 -112.77 86.6052 
-114.886 -110.894 87.8498 -114.771 -108.702 88.4456 -114.184 -105.832 88.9744 
-113.205 -102.697 89.2837 -112.352 -99.9521 89.0599 -111.682 -97.2937 88.3908 
-114.017 -110.079 87.3704 -113.955 -110.047 86.8489 -114.074 -109.312 87.9632 
-114.083 -107.808 88.3284 -113.806 -105.569 88.4775 -113.04 -102.806 88.679 
-112.091 -100.118 88.7197 -111.319 -97.5603 88.2521 -110.674 -94.8789 87.4662 
-113.055 -107.775 87.3088 -113.111 -107.601 86.8409 -113.042 -107.418 87.8681 
-113.049 -106.415 88.2265 -112.959 -104.714 88.2383 -112.518 -102.416 88.2134 
-111.687 -99.9106 88.2637 -110.808 -97.4342 87.99 -110.128 -94.9282 87.2942 
-109.601 -92.5656 86.4928 -117.524 -104.018 90.0495 -117.695 -106.928 89.7708 
-117.787 -104.8 89.4113 -117.779 -108.003 89.0047 -117.734 -105.312 88.8313 
-117.704 -110.247 89.0861 -117.537 -108.449 88.4023 -117.469 -105.363 88.3496 
-117.734 -111.499 88.2337 -118.013 -113.195 88.1403 -117.245 -107.958 87.9697 
-117.003 -104.635 87.915 -117.47 -111.635 87.5363 -118.177 -114.425 87.1706 
-118.394 -115.448 87.2283 -116.828 -106.557 87.7749 -116.233 -103.059 87.5642 
-117.161 -110.484 87.2507 -117.814 -114.061 86.3681 -118.463 -116.285 86.1192 
-117.917 -116.904 86.463 -116.038 -104.454 87.6592 -115.374 -100.851 87.058 
-116.621 -108.436 87.5265 -117.121 -112.22 86.4835 -117.678 -114.958 85.4909 
-117.581 -116.473 85.4615 -116.599 -116.597 85.9609 -115.19 -101.689 87.0184 
-114.752 -98.23 86.0675 -115.766 -105.606 87.5779 -116.262 -109.502 87.2464 
-116.61 -112.329 86.1285 -116.619 -113.902 85.329 -116.073 -114.639 85.4228 
-115.344 -114.283 85.9594 -114.596 -98.5206 85.769 -114.312 -95.5771 84.7555 
-114.985 -102.022 86.6959 -115.439 -105.874 87.2345 -115.781 -109.082 86.9707 
-115.828 -110.851 86.1579 -115.49 -111.62 85.6834 -114.957 -111.831 85.8484 
-114.458 -111.278 86.3166 -114.085 -95.6067 84.4471 -113.837 -93.3713 83.4974 
-114.363 -98.3707 85.3594 -114.735 -101.683 86.1807 -115.124 -105.025 86.686 
[...]
CELL_DATA 2000
SCALARS Distance double
LOOKUP_TABLE default
147.805 148.641 148.411 148.836 149.608 149.345 149.777 149.499 150.006 
150.587 150.364 150.899 150.575 151.117 150.827 151.533 151.632 151.393 
152.041 151.769 152.408 152.08 152.799 152.543 153.384 152.86 152.545 
153.236 152.971 153.694 153.403 154.134 153.858 154.668 154.45 155.317 
154.138 153.828 154.519 154.242 155.002 154.719 155.478 155.185 155.99 
155.749 156.656 156.443 157.405 155.307 155.056 155.747 155.519 156.296 
156.056 156.859 156.565 157.4 157.118 158.069 157.848 158.893 158.663 
159.688 156.431 156.194 156.895 156.699 157.496 157.322 158.177 157.955 
158.838 158.577 159.538 159.312 160.361 160.162 161.199 160.954 161.889 
157.55 157.327 158.044 157.849 158.665 158.509 159.401 159.244 160.172 
159.988 160.959 160.77 161.789 161.607 162.625 162.416 163.37 163.088 
163.953 147.296 146.811 147.388 148.128 146.468 146.944 147.665 148.272 
149.049 146.382 146.698 147.349 147.842 148.593 149.194 149.976 146.42 
146.671 147.276 147.64 148.363 148.825 149.622 150.172 151.021 146.387 
146.646 147.2 147.579 148.292 148.713 149.513 149.961 150.84 151.35 
152.275 146.365 146.569 147.048 147.419 148.108 148.602 149.406 149.896 
150.748 151.245 152.147 152.668 153.562 146.444 146.605 147.081 147.32 
147.995 148.412 149.251 149.751 150.607 151.114 151.974 152.512 153.383 
153.912 154.739 146.553 146.747 147.316 147.489 148.187 148.454 149.314 
149.693 150.59 151.004 151.863 152.326 153.198 153.717 154.582 155.074 
155.88 146.723 146.927 147.603 147.797 148.532 148.749 149.571 149.87 
150.745 151.086 151.936 152.299 153.153 153.588 154.474 154.949 155.801 
156.24 157.014 147.125 148.257 147.787 148.06 149.562 149.016 149.256 
148.77 149.047 150.874 150.34 150.561 150.023 150.278 149.788 150.095 
152.147 151.648 151.909 151.357 151.599 151.058 151.363 150.89 151.242 
153.472 152.958 153.309 152.759 153.066 152.458 152.765 152.211 152.579 
152.082 152.436 154.96 154.391 154.817 154.248 154.664 154.031 154.395 
153.737 154.114 153.51 153.897 153.319 153.673 156.499 155.965 156.432 
155.852 156.317 155.697 156.116 155.446 155.826 155.152 155.535 154.884 
155.259 154.626 154.991 157.873 157.466 157.97 157.471 157.931 157.357 
157.77 157.148 157.52 156.868 157.22 156.56 156.909 156.259 156.604 
155.969 156.304 159.09 158.766 159.309 158.92 159.396 158.907 159.305 
158.743 159.104 158.504 158.847 158.215 158.534 157.888 158.192 157.558 
157.85 157.23 157.502 158.347 158.729 158.954 159.833 159.119 159.365 
160.3 160.543 161.562 159.517 159.799 160.822 161.078 162.177 162.419 
163.576 159.845 160.196 161.284 161.629 162.808 163.101 164.334 164.567 
165.805 160.073 160.471 161.542 162.004 163.193 163.652 164.919 165.307 
166.617 166.882 168.201 160.256 160.662 161.694 162.178 163.326 163.879 
165.144 165.725 167.111 167.615 169.063 169.385 170.841 160.334 160.795 
161.818 162.312 163.447 163.978 165.23 165.843 167.287 167.975 169.582 
170.167 171.772 172.125 173.64 160.219 160.768 161.776 162.366 163.499 
164.087 165.315 165.927 167.331 168.078 169.73 170.547 172.269 172.909 
174.474 174.851 176.214 159.973 160.56 161.534 162.202 163.297 164.005 
165.179 165.901 167.199 168.018 169.555 170.521 172.22 173.152 174.735 
175.416 176.738 177.158 178.256 158.381 159.919 159.074 158.961 161.699 
160.766 160.726 159.766 159.666 163.715 162.695 162.718 161.682 161.622 
160.566 160.457 165.931 164.832 164.873 163.778 163.758 162.637 162.543 
161.418 161.29 168.381 167.187 167.279 166.063 166.095 164.884 164.857 
163.636 163.541 162.319 162.172 171.133 169.854 170.105 168.722 168.863 
167.451 167.517 166.133 166.117 164.745 164.618 163.266 163.072 174.022 
172.798 173.234 171.818 172.095 170.523 170.634 169.04 169.052 167.512 
167.406 165.883 165.651 164.191 163.927 176.641 175.662 176.187 174.983 
175.333 173.862 173.938 172.284 172.184 170.546 170.394 168.794 168.544 
166.923 166.571 165.035 164.687 178.71 178.04 178.565 177.692 178.045 
176.89 176.934 175.455 175.206 173.59 173.283 171.725 171.441 169.86 
169.477 167.809 167.33 165.744 165.291 179.839 181.404 180.39 179.786 
182.755 181.85 181.238 180.19 179.322 183.813 183.007 182.334 181.472 
180.58 179.481 178.247 184.518 183.821 183.036 182.356 181.453 180.542 
179.243 178.05 176.488 184.665 184.224 183.296 182.806 181.872 181.2 
179.889 178.844 177.213 176.049 174.46 183.956 183.978 183.012 182.771 
181.76 181.351 180.056 179.266 177.632 176.623 175.021 174.021 172.56 
182.416 182.895 182.078 182.172 181.16 180.988 179.726 179.203 177.631 
176.849 175.251 174.432 172.937 172.065 170.563 180.454 181.174 180.538 
180.963 180.059 180.162 178.972 178.707 177.217 176.663 175.067 174.435 
172.875 172.196 170.606 169.845 168.281 178.414 179.19 178.633 179.263 
178.463 178.835 177.73 177.764 176.351 176.069 174.483 174.034 172.412 
171.884 170.238 169.64 168.035 167.436 166.033 180.04 180.596 180.812 
181.627 180.793 181.253 182.25 182.407 183.092 180.598 181.288 182.413 
182.916 183.867 183.884 184.354 179.93 180.871 181.982 182.836 183.981 
184.509 185.295 185.123 185.279 178.692 179.932 181.012 182.124 183.221 
184.226 185.169 185.71 186.058 185.8 185.48 176.869 178.406 179.535 
180.903 181.892 183.1 183.849 184.913 185.224 185.827 185.476 185.388 
184.551 174.557 176.29 177.379 179.088 180.066 181.502 182.064 183.202 
183.261 184.219 183.804 184.457 183.609 183.791 182.717 172.012 173.732 
174.608 176.522 177.425 179.258 179.854 181.222 181.23 182.131 181.679 
182.394 181.699 182.26 181.368 181.643 180.623 169.605 171.106 171.741 
173.522 174.224 176.211 176.824 178.631 178.824 180.054 179.737 180.462 
179.891 180.414 179.742 180.135 179.317 179.53 178.586 160.112 160.93 
160.904 161.74 161.839 161.811 162.698 162.652 163.543 162.727 162.722 
163.629 163.633 164.596 164.551 165.48 163.707 163.662 164.666 164.637 
165.746 165.701 166.832 166.655 167.653 164.885 164.83 166.08 165.96 
167.362 167.176 168.604 168.303 169.594 169.12 170.205 166.079 166.164 
167.696 167.668 169.374 169.188 170.896 170.495 172.004 171.403 172.664 
171.94 172.989 167.133 167.395 169.098 169.316 171.162 171.25 173.075 
172.907 174.476 173.973 175.206 174.5 175.509 174.724 175.538 168.041 
168.428 170.183 170.593 172.444 172.797 174.596 174.786 176.338 176.196 
177.354 176.868 177.733 177.082 177.789 177.031 177.549 168.764 169.254 
170.999 171.542 173.379 173.872 175.629 176 177.526 177.674 178.839 
178.66 179.481 179.039 179.663 179.064 179.537 178.781 179.067 159.274 
158.196 159.134 159.998 157.077 158.011 158.865 159.915 160.875 155.993 
156.88 157.685 158.737 159.732 160.82 161.789 154.982 155.818 156.569 
157.55 158.522 159.651 160.717 161.766 162.749 154.035 154.832 155.543 
156.444 157.33 158.427 159.52 160.68 161.747 162.766 163.78 153.174 
153.915 154.591 155.421 156.195 157.203 158.205 159.425 160.531 161.693 
162.682 163.749 164.769 152.451 153.102 153.756 154.503 155.201 156.063 
156.91 158.045 159.111 160.377 161.402 162.545 163.476 164.633 165.681 
151.906 152.445 153.061 153.721 154.379 155.111 155.827 156.765 157.706 
158.917 159.986 161.205 162.17 163.297 164.25 165.477 166.543 151.498 
151.947 152.475 153.05 153.631 154.301 154.919 155.713 156.495 157.55 
158.558 159.783 160.807 161.975 162.908 164.056 165.015 166.276 167.285 
151.426 151.461 151.746 152.346 151.438 151.744 152.413 152.729 153.439 
151.741 151.863 152.586 152.83 153.622 153.915 154.726 152.392 152.394 
153.129 153.199 154.038 154.217 155.146 155.362 156.337 152.89 153.03 
153.759 153.855 154.699 154.811 155.8 155.956 157.068 157.233 158.399 
153.199 153.409 154.198 154.408 155.316 155.509 156.549 156.727 157.893 
158.078 159.315 159.471 160.654 153.75 153.849 154.769 154.909 155.952 
156.149 157.314 157.52 158.753 158.948 160.218 160.401 161.626 161.724 
162.81 154.535 154.603 155.621 155.689 156.818 156.941 158.206 158.382 
159.718 159.882 161.211 161.352 162.633 162.725 163.901 163.888 164.945 
155.27 155.413 156.451 156.592 157.728 157.886 159.157 159.354 160.731 
160.919 162.3 162.428 163.748 163.813 165.047 165.043 166.188 166.104 
167.182 155.967 157.541 156.892 157.234 159.51 158.673 159.088 158.297 
158.65 161.968 160.944 161.449 160.43 160.872 159.883 160.232 164.707 
163.637 164.231 163.067 163.54 162.364 162.757 161.613 161.915 167.555 
166.508 167.21 166.003 166.505 165.206 165.579 164.305 164.609 163.362 
163.559 170.516 169.514 170.44 169.183 169.85 168.378 168.8 167.299 
167.596 166.179 166.363 164.99 165.051 173.316 172.532 173.667 172.576 
173.477 172.006 172.594 170.858 171.188 169.426 169.578 167.931 167.937 
166.429 166.36 175.596 175.121 176.246 175.576 176.521 175.512 176.21 
174.762 175.162 173.323 173.42 171.437 171.332 169.479 169.304 167.694 
167.525 177.371 177.093 178.095 177.723 178.552 178.019 178.687 177.887 
178.367 177.09 177.23 175.399 175.184 173.101 172.751 170.808 170.496 
168.825 168.566 155.483 155.282 155.906 157.037 155.151 155.774 156.961 
157.602 158.942 154.907 155.622 156.831 157.548 158.931 159.685 161.277 
154.444 155.255 156.467 157.328 158.756 159.643 161.295 162.175 163.936 
153.982 154.755 156.003 156.904 158.424 159.415 161.173 162.165 164.01 
164.9 166.719 153.728 154.402 155.706 156.533 158.123 159.112 160.951 
162.02 163.939 164.937 166.798 167.691 169.529 153.617 154.248 155.544 
156.327 157.875 158.843 160.627 161.745 163.654 164.778 166.651 167.674 
169.486 170.449 172.221 153.517 154.143 155.37 156.14 157.572 158.523 
160.17 161.306 163.137 164.366 166.253 167.414 169.23 170.281 172.004 
172.982 174.553 153.395 154.007 155.173 155.91 157.245 158.136 159.663 
160.746 162.49 163.744 165.633 166.913 168.772 169.929 171.644 172.669 
174.211 175.117 176.438 154.506 153.037 153.896 154.25 151.884 152.516 
152.785 153.661 154.07 151.107 151.539 151.663 152.278 152.544 153.462 
153.827 150.26 150.749 150.732 151.215 151.247 151.962 152.18 153.127 
153.396 149.025 149.651 149.522 150.114 149.981 150.632 150.662 151.495 
151.694 152.648 152.922 147.653 148.247 148.052 148.701 148.567 149.255 
149.229 149.985 150.107 150.983 151.245 152.23 152.616 146.424 146.9 
146.706 147.264 147.217 147.871 147.937 148.607 148.707 149.45 149.663 
150.581 150.959 152.008 152.489 145.447 145.787 145.618 146.061 146.071 
146.669 146.831 147.445 147.557 148.148 148.273 149.044 149.372 150.368 
150.85 151.923 152.426 144.84 144.999 144.845 145.125 145.124 145.628 
145.804 146.409 146.534 147.068 147.116 147.73 147.967 148.837 149.308 
150.325 150.845 151.873 152.352 144.621 144.351 144.474 144.538 144.114 
144.217 144.259 144.457 144.764 143.931 144.039 144.143 144.26 144.546 
144.851 145.387 143.974 144.02 144.235 144.25 144.473 144.653 145.067 
145.496 146.037 144.292 144.264 144.543 144.468 144.63 144.62 144.874 
145.142 145.607 146.073 146.618 144.709 144.657 144.91 144.824 144.956 
144.837 145.037 145.084 145.567 145.822 146.502 146.832 147.567 145.218 
145.092 145.336 145.207 145.377 145.211 145.471 145.415 145.988 146.092 
146.903 147.058 147.921 148.1 148.971 145.964 145.712 146.035 145.787 
146.077 145.797 146.144 145.983 146.595 146.655 147.493 147.636 148.497 
148.627 149.467 149.632 150.489 146.901 146.585 146.971 146.674 147.078 
146.731 147.134 146.828 147.38 147.307 148.078 148.203 149.034 149.186 
149.985 150.137 150.95 151.138 151.973 147.56 148.597 147.927 147.654 
149.78 149.034 148.811 148.102 147.823 151.308 150.376 150.166 149.348 
149.098 148.283 147.942 153.165 152.099 151.868 150.867 150.62 149.67 
149.36 148.447 148.192 155.117 154.031 153.819 152.721 152.502 151.401 
151.162 150.071 149.865 148.899 148.857 157.225 156.062 155.902 154.745 
154.599 153.454 153.338 152.147 152.024 150.833 150.759 149.75 149.802 
159.527 158.321 158.213 156.957 156.836 155.636 155.58 154.427 154.389 
153.176 153.082 151.856 151.783 150.738 150.77 161.743 160.645 160.589 
159.362 159.244 157.975 157.866 156.672 156.615 155.484 155.413 154.223 
154.091 152.877 152.787 151.725 151.754 163.81 162.798 162.805 161.693 
161.635 160.413 160.301 159.024 158.906 157.691 157.614 156.467 156.379 
155.194 155.07 153.878 153.807 152.746 152.777 153.675 154.799 154.635 
155.521 156.115 155.915 156.893 156.663 157.65 157.448 157.308 158.405 
158.191 159.309 158.999 160.121 158.755 158.675 159.936 159.806 161.127 
160.845 162.147 161.734 163.02 160.164 160.089 161.515 161.441 162.962 
162.778 164.288 163.94 165.401 164.894 166.253 161.608 161.589 163.115 
163.116 164.76 164.68 166.324 166.116 167.724 167.358 168.837 168.238 
169.479 162.903 162.988 164.539 164.686 166.411 166.483 168.219 168.14 
169.833 169.625 171.208 170.786 172.095 171.385 172.394 164.04 164.197 
165.756 166.015 167.796 168.045 169.867 169.969 171.717 171.66 173.287 
173.043 174.415 173.888 174.919 174.134 174.926 165.056 165.28 166.855 
167.175 168.952 169.314 171.127 171.431 173.163 173.348 174.949 174.946 
176.314 176.027 177.071 176.489 177.252 176.473 177.079 146.138 146.035 
145.825 145.418 146.032 145.818 145.424 145.234 145.001 146.007 145.834 
145.458 145.261 144.936 144.866 144.736 145.992 145.816 145.44 145.254 
144.847 144.726 144.442 144.522 144.428 145.959 145.79 145.398 145.224 
144.797 144.606 144.218 144.175 144.005 144.178 144.199 145.867 145.694 
145.264 145.137 144.707 144.541 144.126 143.993 143.779 143.833 143.902 
144.095 144.273 145.895 145.609 145.151 144.979 144.553 144.409 144 
143.883 143.648 143.676 143.747 143.917 144.159 144.321 144.507 146.201 
145.761 145.307 144.983 144.624 144.365 144.043 143.822 143.612 143.556 
143.603 143.767 143.996 144.217 144.413 144.541 144.627 146.713 146.196 
145.763 145.314 145.022 144.655 144.469 144.115 143.99 143.708 143.719 
143.672 143.837 143.998 144.167 144.36 144.441 144.58 144.637 146.155 
145.407 145.83 146.145 145.026 145.248 145.527 146.001 146.524 144.853 
145.008 145.248 145.545 146.033 146.538 147.143 144.628 144.84 145.043 
145.296 145.69 146.13 146.727 147.235 147.832 144.424 144.604 144.792 
145.019 145.314 145.731 146.28 146.835 147.459 147.949 148.501 144.444 
144.492 144.674 144.795 145.055 145.346 145.835 146.35 146.971 147.524 
148.066 148.554 149.019 144.584 144.568 144.695 144.753 145.011 145.191 
145.65 146.002 146.584 147.038 147.576 148.051 148.522 149.002 149.443 
144.679 144.669 144.736 144.777 145.013 145.188 145.66 145.941 146.513 
146.806 147.327 147.645 148.148 148.549 149.076 149.491 149.985 144.771 
144.765 144.88 144.86 145.106 145.218 145.719 145.985 146.612 146.86 
147.388 147.564 148.033 148.299 148.843 149.219 149.786 150.137 150.634 
146.782 146.814 147.127 147.94 147.166 147.312 148.103 148.417 149.28 
147.703 147.74 148.45 148.666 149.488 149.787 150.604 148.312 148.275 
148.902 149.04 149.819 150.051 150.846 151.099 151.869 148.964 148.891 
149.463 149.512 150.259 150.428 151.231 151.416 152.189 152.388 153.18 
149.514 149.512 150.051 150.075 150.729 150.863 151.622 151.819 152.597 
152.781 153.576 153.776 154.636 149.92 149.974 150.49 150.57 151.123 
151.257 151.897 152.127 152.864 153.137 153.923 154.178 155.003 155.261 
156.119 150.386 150.37 150.854 150.922 151.452 151.573 152.168 152.357 
153.057 153.334 154.115 154.431 155.228 155.544 156.341 156.658 157.445 
150.994 150.9 151.362 151.334 151.884 151.935 152.574 152.686 153.406 
153.588 154.366 154.617 155.408 155.703 156.487 156.808 157.584 157.904 
158.656 154.374 153.649 153.631 152.904 152.935 152.901 152.227 152.249 
151.75 152.477 152.311 151.67 151.62 151.16 151.268 150.97 152.212 
152.009 151.359 151.186 150.665 150.688 150.354 150.527 150.176 151.7 
151.661 150.995 150.898 150.312 150.252 149.805 149.883 149.491 149.609 
149.068 151.058 151.019 150.371 150.387 149.84 149.864 149.386 149.387 
148.907 148.933 148.401 148.419 147.782 150.808 150.549 149.942 149.803 
149.313 149.334 148.932 148.959 148.449 148.394 147.772 147.753 147.135 
147.146 146.541 150.881 150.534 149.942 149.609 149.078 148.921 148.523 
148.511 148.049 147.957 147.287 147.155 146.48 146.478 145.941 145.992 
145.535 150.883 150.623 150.023 149.689 149.076 148.798 148.299 148.18 
147.738 147.618 147.021 146.781 146.106 145.936 145.437 145.444 145.133 
145.173 144.926 
POINT_DATA 1002
SCALARS Distance double
LOOKUP_TABLE default
148.212 147.224 147.982 149.043 148.902 149.257 150.092 149.833 150.199 
150.565 151.171 150.759 151.436 151.72 152.317 152.253 151.885 152.704 
153.086 153.594 154.242 153.499 153.198 153.959 154.422 154.897 155.515 
156.194 154.791 154.427 155.272 155.778 156.238 156.836 157.62 158.403 
155.954 155.542 156.498 157.122 157.681 158.283 159.092 159.968 160.694 
157.087 156.665 157.646 158.347 159.065 159.769 160.565 161.429 162.2 
162.776 158.23 157.758 158.817 159.536 160.321 161.131 161.977 162.828 
163.621 164.29 164.793 146.684 147.502 146.25 147.083 146.076 148.414 
146.938 146.138 148.031 149.338 146.942 146.186 147.955 149.109 150.422 
146.815 146.164 147.847 149.081 150.355 151.746 146.734 146.203 147.6 
148.883 150.258 151.636 153.063 146.882 146.252 147.631 148.758 150.116 
151.451 152.839 154.249 147.113 146.298 147.959 148.976 150.21 151.448 
152.693 154.066 155.434 147.375 146.501 148.325 149.315 150.426 151.602 
152.761 154.008 155.35 156.623 147.504 148.486 148.786 149.783 150.123 
149.506 151.119 151.386 150.786 150.548 152.443 152.617 152.17 151.844 
151.701 153.818 153.986 153.67 153.363 153.092 152.948 155.376 155.523 
155.261 155.066 154.759 154.494 154.254 157.001 156.979 156.925 156.769 
156.517 156.207 155.907 155.618 158.423 158.221 158.491 158.383 158.163 
157.885 157.57 157.254 156.942 159.657 159.394 159.85 159.851 159.686 
159.467 159.192 158.842 158.482 158.127 159.157 159.58 160.766 160.036 
161.287 162.638 160.521 161.914 163.337 164.757 160.878 162.456 164.059 
165.611 167.053 161.069 162.682 164.446 166.258 167.989 169.57 161.232 
162.786 164.517 166.477 168.606 170.603 172.361 161.304 162.923 164.639 
166.543 168.849 171.302 173.421 175.148 161.154 162.875 164.707 166.609 
168.852 171.499 174.016 175.992 177.507 160.871 162.582 164.442 166.397 
168.603 171.222 173.949 176.248 177.979 179.285 159.837 161.697 160.648 
163.755 162.704 161.517 165.988 164.878 163.695 162.42 168.526 167.327 
166.084 164.796 163.41 171.478 170.322 168.949 167.526 166.034 164.414 
174.568 173.667 172.31 170.656 168.982 167.207 165.336 177.276 176.723 
175.618 173.897 172.009 170.199 168.231 166.152 179.342 179.083 178.335 
176.856 174.873 172.973 171.157 169.05 166.792 180.897 180.938 182.389 
182.232 183.655 180.556 183.143 184.648 181.637 179.559 183.678 185.236 
182.296 180.438 177.742 183.764 185.001 182.453 180.877 178.363 175.54 
183.174 183.697 182.104 180.733 178.57 175.973 173.555 181.822 181.735 
181.247 180.138 178.318 176.013 173.772 171.488 179.972 179.662 179.83 
179.109 177.675 175.667 173.526 171.333 169.003 177.941 177.643 177.991 
177.573 176.513 174.872 172.916 170.797 168.587 166.517 179.944 181.605 
180.249 181.916 180.226 183.242 181.732 179.848 183.604 184.766 181.044 
178.909 183.185 185.166 185.961 179.853 177.322 182.156 184.337 186.009 
186.208 178.052 175.242 180.713 182.821 184.398 185.266 184.956 175.583 
172.853 178.511 180.988 182.396 182.997 183.153 182.723 172.767 170.423 
175.483 178.291 180.296 181.009 181.041 180.91 180.478 170.136 168.26 
172.327 174.871 177.321 178.867 179.344 179.298 179.024 178.456 160.074 
161.771 160.948 162.718 161.855 163.61 163.598 162.732 164.577 165.608 
164.664 163.732 165.743 166.927 167.968 166.102 164.827 167.484 168.871 
170.025 170.803 167.569 165.847 169.43 171.225 172.607 173.394 173.807 
168.777 166.783 170.961 173.111 174.903 175.928 176.307 176.423 169.731 
167.617 172.053 174.331 176.354 177.764 178.376 178.523 178.427 158.356 
158.975 157.26 157.799 156.176 159.825 156.667 155.141 158.591 160.783 
155.649 154.16 157.394 159.584 161.787 154.693 153.256 156.292 158.308 
160.672 162.785 153.801 152.469 155.284 157.013 159.298 161.625 163.639 
153.041 151.848 154.43 155.895 157.827 160.21 162.375 164.418 152.45 
151.424 153.698 155.015 156.575 158.718 161.035 163.103 165.234 151.971 