# vtk DataFile Version 4.0
vtk output
ASCII
DATASET POLYDATA
POINTS 1002 float
-105.228 -81.7284 76.3756 -105.375 -81.1742 75.2885 -105.614 -80.8715 76.138 
-105.596 -81.614 77.259 -105.974 -80.6905 77.0848 -105.276 -82.5 77.5392 
-106.055 -81.5556 78.2591 -106.557 -80.6834 77.9974 -105.698 -82.4846 78.5331 
-105.475 -83.4225 78.7691 -106.639 -81.5574 79.2757 -107.261 -80.8874 78.8299 
-106.146 -82.4484 79.6546 -105.888 -83.483 79.91 -105.689 -84.492 80.119 
-107.319 -81.7795 80.2274 -107.976 -81.2482 79.7126 -106.73 -82.5439 80.7209 
-106.391 -83.645 81.0363 -106.192 -84.7806 81.2936 -105.95 -85.8012 81.6004 
-108.148 -82.2869 81.1013 -108.75 -81.6628 80.6409 -107.549 -83.0014 81.5891 
-107.137 -84.0733 81.9471 -106.919 -85.2553 82.2555 -106.654 -86.2449 82.6405 
-106.386 -87.17 82.994 -109.047 -82.9061 81.9202 -109.54 -82.1643 81.4576 
-108.508 -83.6518 82.377 -108.046 -84.6257 82.7472 -107.779 -85.7775 83.0761 
-107.544 -86.7756 83.4903 -107.227 -87.6249 83.9243 -107.025 -88.5223 84.2116 
-109.769 -83.485 82.751 -110.192 -82.7077 82.2473 -109.284 -84.2315 83.2693 
-108.792 -85.0546 83.7382 -108.476 -86.1184 84.0969 -108.318 -87.2875 84.4378 
-108.084 -88.3256 84.8599 -107.837 -89.2454 85.2466 -107.757 -90.1403 85.4971 
-110.266 -83.9445 83.6268 -110.647 -83.1083 83.1686 -109.833 -84.7828 84.1435 
-109.319 -85.5683 84.7576 -108.915 -86.5083 85.2963 -108.816 -87.8022 85.626 
-108.761 -89.1849 85.9454 -108.565 -90.3041 86.3483 -108.438 -91.1622 86.6755 
-108.462 -91.9246 86.8763 -110.652 -84.3136 84.4564 -110.966 -83.3818 84.1021 
-110.346 -85.3696 84.8204 -109.925 -86.3504 85.4018 -109.447 -87.2737 86.1348 
-109.254 -88.4842 86.6708 -109.311 -89.9825 87.0154 -109.235 -91.2847 87.415 
-109.07 -92.1736 87.7868 -109.06 -92.8512 87.9769 -109.156 -93.5137 88.0518 
-105.686 -80.4263 74.7329 -105.87 -79.9877 75.7376 -105.942 -79.5899 74.1667 
-106.244 -79.1722 75.2839 -106.462 -78.9755 73.5018 -106.307 -79.7655 76.7625 
-107.052 -78.7274 74.5988 -107.439 -78.655 72.7751 -106.879 -79.0327 76.3185 
-107.052 -79.8837 77.6039 -108.108 -78.3638 73.8228 -108.34 -78.118 72.2156 
-107.822 -78.6047 75.6316 -107.753 -79.2274 77.1523 -107.878 -80.2581 78.3871 
-108.795 -77.5727 73.301 -108.856 -77.2804 71.8511 -108.693 -77.9971 74.9475 
-108.578 -78.6054 76.6275 -108.573 -79.526 78.0694 -108.628 -80.5902 79.3738 
-109.316 -76.7823 72.9778 -109.49 -76.7139 71.4411 -109.223 -77.1038 74.5291 
-109.186 -77.787 76.1251 -109.206 -78.7012 77.7377 -109.252 -79.723 79.1627 
-109.364 -80.8996 80.3569 -110.134 -76.4359 72.6137 -110.351 -76.4511 70.9613 
-109.898 -76.4959 74.2833 -109.765 -77.0092 75.7736 -109.787 -77.9441 77.2907 
-109.832 -78.9322 78.8301 -109.92 -80.0649 80.079 -110.089 -81.4247 81.1344 
-110.985 -76.1786 72.2558 -111.099 -76.1445 70.5988 -110.787 -76.1722 74.0635 
-110.596 -76.4833 75.6025 -110.569 -77.3314 76.9372 -110.556 -78.3256 78.3898 
-110.501 -79.3568 79.7542 -110.586 -80.659 80.8563 -110.694 -81.9996 81.9826 
-111.659 -75.8311 72.0209 -111.748 -75.8282 70.4139 -111.545 -75.8317 73.8437 
-111.403 -76.0591 75.4699 -111.382 -76.7879 76.7625 -111.387 -77.7695 78.0605 
-111.215 -78.7359 79.4597 -111.091 -79.908 80.6799 -111.14 -81.2416 81.8058 
-111.116 -82.3907 83.0165 -112.419 -75.6355 71.3473 -112.286 -75.5736 73.185 
-113.198 -75.6523 72.5458 -113.008 -75.6718 74.3212 -113.919 -75.9785 73.7127 
-112.126 -75.6882 74.9697 -113.671 -76.2998 75.2361 -114.372 -76.6408 74.6679 
-112.726 -76.1034 75.8827 -112.016 -76.2795 76.4393 -114.117 -77.2528 76.1688 
-114.584 -77.6172 75.5975 -113.276 -77.05 76.7424 -112.533 -76.9997 77.3205 
-112.036 -77.2636 77.7723 -114.461 -78.2992 77.3277 -114.784 -78.8139 76.6967 
-113.845 -78.0815 77.8603 -113.058 -78.0307 78.3255 -112.465 -78.0353 78.8502 
-111.917 -78.2701 79.2495 -114.779 -79.5507 78.4857 -115.009 -80.1187 77.842 
-114.407 -79.1554 79.0697 -113.763 -79.1223 79.4531 -112.984 -79.1568 79.9151 
-112.287 -79.1533 80.4395 -111.663 -79.4109 80.6808 -114.964 -81.0567 79.4624 
-115.158 -81.4348 78.8755 -114.667 -80.6156 80.1077 -114.273 -80.4123 80.5592 
-113.637 -80.4755 80.9465 -112.833 -80.4727 81.475 -112.124 -80.483 81.8871 
-111.588 -80.7752 81.9404 -115.106 -82.493 80.3832 -115.296 -82.6584 79.8483 
-114.723 -82.258 81.0527 -114.362 -81.99 81.6361 -113.983 -81.8666 82.0695 
-113.389 -81.839 82.4923 -112.671 -81.7597 82.9344 -112.048 -81.7652 83.2113 
-111.551 -82.0064 83.2022 -115.339 -83.6634 81.3669 -115.493 -83.7946 80.8449 
-114.932 -83.5937 82.019 -114.497 -83.476 82.652 -114.15 -83.286 83.1838 
-113.741 -83.134 83.5825 -113.158 -83.0394 83.8816 -112.493 -82.9323 84.1757 
-111.879 -82.8978 84.3842 -111.375 -83.0638 84.3446 -111.102 -84.4156 85.0833 
-111.558 -84.2759 85.2783 -111.473 -86.1288 85.8467 -112.187 -84.3388 85.2037 
-112.019 -86.2536 86.022 -112.019 -88.2301 86.901 -112.92 -84.4679 85.0151 
-112.757 -86.4453 86.0066 -112.652 -88.5015 87.1596 -112.42 -90.0339 88.5791 
-113.598 -84.5189 84.8917 -113.493 -86.4888 86.0282 -113.37 -88.6856 87.2666 
-113.086 -90.4325 88.7468 -112.706 -91.912 90.0866 -114.151 -84.6002 84.6255 
-114.127 -86.4271 85.9847 -113.937 -88.7104 87.3682 -113.663 -90.7877 88.7885 
-113.374 -92.6361 90.0303 -113.201 -94.7638 90.8788 -114.581 -84.7218 84.1149 
-114.688 -86.3972 85.569 -114.45 -88.6942 87.1745 -114.055 -91.0854 88.8013 
-113.853 -93.2815 90.0776 -113.81 -95.6227 90.9888 -113.775 -98.1076 91.6694 
-114.962 -84.7514 83.533 -115.057 -86.3172 85.004 -114.884 -88.6176 86.6243 
-114.466 -91.2873 88.4932 -114.249 -93.7873 90.0745 -114.286 -96.2354 91.1658 
-114.296 -98.7519 92.0458 -114.16 -101.017 92.7113 -115.352 -84.7704 82.9034 
-115.27 -86.2649 84.4757 -115.036 -88.4972 86.0654 -114.738 -91.296 87.9344 
-114.63 -94.0636 89.7759 -114.73 -96.6347 91.0634 -114.782 -99.1608 92.0301 
-114.659 -101.521 92.8942 -114.437 -103.47 93.3919 -115.62 -84.9162 82.2557 
-115.477 -86.4006 83.854 -115.094 -88.5011 85.4881 -114.794 -91.1682 87.2924 
-114.822 -93.999 89.2452 -115.028 -96.7393 90.7578 -115.143 -99.3746 91.6841 
-115.086 -101.817 92.4938 -114.915 -103.933 93.2078 -114.713 -105.663 93.4798 
-110.928 -85.7108 85.3269 -111.441 -87.6738 86.235 -110.742 -87.0706 85.7123 
-111.88 -89.536 87.8318 -111.281 -88.996 86.9311 -110.348 -88.2022 86.4678 
-112.103 -91.2066 89.7853 -111.662 -90.6307 88.8057 -110.976 -90.0828 87.8066 
-109.997 -89.3248 87.275 -112.541 -93.9081 90.9142 -112.04 -92.9155 90.4732 
-111.616 -92.0563 89.3996 -110.874 -91.4048 88.4555 -109.984 -90.7595 87.8273 
-113.22 -97.6364 91.4838 -112.646 -96.735 91.3257 -112.217 -95.375 90.7036 
-111.709 -93.9175 89.7198 -110.884 -92.8668 88.987 -109.975 -92.137 88.3367 
-113.699 -100.906 92.3769 -113.169 -100.532 92.0858 -112.676 -99.5974 91.7194 
-112.249 -97.7524 90.9243 -111.622 -95.5382 90.1006 -110.71 -93.9815 89.5263 
-109.793 -93.0828 88.802 -114.002 -103.416 93.1864 -113.541 -103.142 92.8378 
-113.072 -102.73 92.5363 -112.657 -101.7 91.9361 -112.204 -99.4726 91.0437 
-111.497 -96.7877 90.354 -110.591 -94.8959 89.7789 -109.74 -93.8118 88.9826 
-114.334 -105.73 93.3588 -113.967 -105.367 92.9995 -113.623 -104.837 92.7053 
-113.262 -104.345 92.3542 -112.847 -103.248 91.6813 -112.301 -100.893 90.9455 
-111.567 -98.0523 90.349 -110.707 -95.9154 89.716 -109.872 -94.5788 88.9482 
-114.774 -107.973 93.1564 -114.455 -108.024 92.7539 -114.823 -110.455 92.4253 
-114.553 -110.572 91.8227 -114.892 -113.01 91.5461 -114.224 -107.434 92.2768 
-114.547 -113.187 91.002 -115.168 -115.361 90.6828 -114.418 -109.869 91.3103 
-114.011 -106.65 91.992 -114.604 -115.36 90.3275 -115.498 -117.031 89.7137 
-114.306 -112.358 90.5944 -114.172 -108.839 91.1277 -113.608 -106.032 91.7194 
-114.651 -116.396 89.5429 -115.287 -117.6 88.6244 -114.099 -114.032 90.0888 
-113.811 -110.847 90.6089 -113.523 -107.859 91.2059 -112.999 -104.755 91.3191 
-114.272 -116.012 88.8031 -114.529 -117.001 87.8602 -113.83 -114.206 89.5778 
-113.311 -111.755 90.2455 -112.976 -109.134 90.9653 -112.777 -106.088 91.1946 
-112.333 -102.081 90.8105 -113.629 -114.579 88.4542 -113.891 -115.369 87.7918 
-113.275 -113.154 89.1739 -112.833 -111.398 89.8332 -112.509 -109.378 90.56 
-112.402 -106.692 90.9828 -112.193 -102.968 90.6965 -111.57 -98.9521 90.1448 
-113.205 -112.515 88.4393 -113.602 -112.905 88.1749 -112.723 -111.537 88.8966 
-112.321 -110.327 89.4644 -112.179 -108.834 90.0665 -112.172 -106.532 90.4907 
-111.974 -103.231 90.4029 -111.429 -99.589 89.9162 -110.647 -96.579 89.4184 
-112.962 -110.009 88.493 -113.344 -109.967 88.5098 -112.445 -109.563 88.6516 
-111.99 -108.839 89.1041 -111.855 -107.759 89.6964 -111.912 -105.835 90.0812 
-111.704 -102.956 90.0519 -111.112 -99.785 89.6896 -110.386 -97.0527 89.1974 
-109.716 -95.0133 88.6609 -115.068 -106.663 93.2171 -115.119 -109.085 92.902 
-115.267 -107.424 92.7707 -115.348 -109.92 92.3663 -115.302 -107.96 92.2161 
-115.218 -111.694 92.127 -115.435 -110.576 91.5084 -115.372 -107.949 91.5136 
-115.64 -112.784 91.3286 -115.616 -114.382 91.0474 -115.458 -110.375 90.6115 
-115.525 -106.968 90.8024 -115.79 -113.508 90.2241 -116.378 -115.597 90.0225 
-116.302 -116.629 89.9044 -115.436 -108.91 90.0998 -115.492 -105.259 90.3255 
-115.577 -112.702 89.4687 -116.386 -115.789 89.0962 -117.025 -117.355 88.9417 
-116.439 -117.862 88.7105 -115.27 -106.8 89.9636 -115.189 -103.164 89.8792 
-115.282 -110.521 89.333 -115.723 -114.009 88.7396 -116.573 -116.54 88.4211 
-116.596 -117.784 87.9294 -115.574 -117.965 87.5842 -114.99 -104.219 89.6877 
-114.859 -100.698 89.016 -115.049 -107.865 89.5129 -115.149 -111.193 88.8741 
-115.601 -114.028 88.341 -115.925 -116.148 87.7112 -115.426 -117.2 87.0797 
-114.56 -116.91 87.1379 -114.734 -101.13 88.8033 -114.625 -98.1928 87.6695 
-114.839 -104.596 89.3575 -114.891 -107.95 89.1629 -114.991 -110.749 88.5851 
-115.173 -113.095 87.8977 -115.068 -114.834 87.2341 -114.585 -115.403 87.0879 
-114.068 -114.611 87.5844 -114.498 -98.2174 87.3621 -114.406 -96.1813 86.1433 
-114.607 -100.967 88.3956 -114.73 -104.12 88.9019 -114.787 -106.968 88.7893 
[...]
CELL_DATA 2000
SCALARS Distance double
LOOKUP_TABLE default
152.23 152.79 152.684 153.128 153.546 153.365 153.861 153.73 154.277 
154.474 154.218 154.713 154.537 155.118 154.989 155.613 155.542 155.216 
155.704 155.457 156.068 155.905 156.608 156.445 157.162 156.75 156.373 
156.9 156.558 157.212 156.97 157.754 157.556 158.353 158.122 158.887 
158.015 157.657 158.244 157.864 158.531 158.222 159.019 158.793 159.63 
159.388 160.169 159.898 160.662 159.206 158.923 159.533 159.211 159.841 
159.541 160.264 160.051 160.875 160.68 161.512 161.243 162.056 161.747 
162.592 160.257 160.05 160.653 160.419 161.026 160.77 161.438 161.231 
162.051 161.908 162.839 162.639 163.569 163.255 164.164 163.809 164.718 
161.162 161.018 161.626 161.468 162.117 161.91 162.607 162.391 163.226 
163.092 164.1 163.99 165.022 164.801 165.733 165.409 166.266 165.93 
166.758 151.834 151.341 151.813 152.315 150.937 151.342 151.885 152.385 
153.041 150.9 151.117 151.686 152.049 152.745 153.236 153.997 151.05 
151.233 151.778 152.013 152.684 153.052 153.84 154.293 155.096 150.949 
151.27 151.772 152.096 152.706 153.059 153.796 154.209 155.017 155.451 
156.275 150.802 151.076 151.563 151.937 152.525 152.97 153.67 154.143 
154.913 155.374 156.177 156.643 157.476 150.962 151.087 151.601 151.803 
152.401 152.748 153.476 153.952 154.746 155.234 156.024 156.506 157.323 
157.827 158.649 151.231 151.362 151.911 152.027 152.627 152.8 153.532 
153.861 154.7 155.109 155.926 156.353 157.162 157.649 158.48 158.975 
159.739 151.451 151.611 152.178 152.348 152.944 153.108 153.792 154.043 
154.849 155.177 155.983 156.323 157.098 157.509 158.323 158.806 159.59 
160.028 160.69 151.805 152.756 152.327 152.541 153.922 153.374 153.505 
153.1 153.334 155.115 154.57 154.648 154.132 154.334 153.941 154.235 
156.257 155.763 155.898 155.329 155.508 155.03 155.364 154.962 155.325 
157.48 156.978 157.242 156.657 156.883 156.303 156.618 156.157 156.539 
156.108 156.439 158.828 158.312 158.665 158.097 158.415 157.785 158.098 
157.51 157.865 157.355 157.701 157.215 157.535 160.161 159.693 160.065 
159.553 159.917 159.347 159.695 159.075 159.418 158.796 159.148 158.563 
158.924 158.383 158.759 161.409 160.997 161.39 160.926 161.301 160.804 
161.18 160.641 160.997 160.394 160.72 160.095 160.425 159.839 160.188 
159.649 159.998 162.624 162.237 162.668 162.233 162.634 162.166 162.563 
162.073 162.45 161.912 162.226 161.636 161.901 161.315 161.573 161.033 
161.293 160.797 161.052 161.752 162.04 162.244 163.053 162.385 162.591 
163.482 163.741 164.814 162.774 163 163.977 164.255 165.421 165.722 
166.92 163.137 163.42 164.455 164.787 166.008 166.365 167.614 167.868 
168.996 163.385 163.758 164.819 165.234 166.461 166.904 168.173 168.526 
169.709 169.924 171.1 163.494 163.939 165 165.507 166.718 167.259 
168.543 169.015 170.279 170.619 171.905 172.171 173.543 163.528 163.991 
165.002 165.567 166.735 167.38 168.687 169.311 170.672 171.169 172.559 
172.956 174.396 174.718 176.095 163.53 163.989 164.936 165.487 166.578 
167.263 168.561 169.341 170.795 171.502 172.972 173.533 174.973 175.44 
176.804 177.137 178.29 163.481 163.955 164.87 165.392 166.411 167.048 
168.276 169.105 170.58 171.49 173.025 173.798 175.215 175.829 177.118 
177.626 178.76 179.091 179.996 161.821 163.168 162.427 162.376 164.97 
164.011 163.988 163.094 162.994 167.048 166.005 165.981 164.924 164.814 
163.778 163.599 169.099 168.098 168.077 167.003 166.896 165.765 165.599 
164.469 164.312 171.303 170.229 170.332 169.18 169.158 167.948 167.853 
166.635 166.543 165.35 165.272 173.872 172.701 173.021 171.724 171.885 
170.47 170.449 169.041 168.956 167.676 167.592 166.381 166.24 176.428 
175.381 175.777 174.588 174.879 173.472 173.506 171.897 171.693 170.161 
169.922 168.634 168.405 167.222 166.936 178.562 177.742 178.037 177.121 
177.363 176.311 176.399 175.001 174.76 173.062 172.622 171.016 170.619 
169.296 168.961 167.783 167.437 180.245 179.612 179.811 179.056 179.167 
178.391 178.481 177.54 177.445 176.062 175.661 173.919 173.394 171.702 
171.259 169.84 169.482 168.257 167.913 181.149 182.307 181.433 180.727 
183.44 182.553 181.803 180.853 180.048 184.613 183.699 182.927 181.92 
181.057 180.136 179.345 185.617 184.837 184.029 183.034 182.1 181.131 
180.271 179.406 178.446 185.877 185.542 184.694 183.961 182.92 182.054 
181.09 180.276 179.257 178.294 176.891 185.102 185.267 184.414 184.175 
183.057 182.535 181.453 180.873 179.807 179.005 177.558 176.408 174.654 
183.729 184.102 183.254 183.399 182.319 182.215 181.12 180.879 179.797 
179.304 177.878 176.934 175.122 173.992 172.291 182.219 182.616 181.761 
182.026 181.048 181.195 180.237 180.265 179.259 179.031 177.676 177.016 
175.251 174.3 172.537 171.656 170.267 180.557 181.037 180.192 180.52 
179.628 179.891 179.078 179.276 178.393 178.347 177.082 176.639 174.968 
174.238 172.514 171.762 170.318 169.702 168.574 181.461 182.048 182.118 
182.681 182.305 182.604 183.333 183.341 183.855 182.224 182.753 183.638 
183.92 184.659 184.585 185.086 181.655 182.47 183.458 184.1 185.074 
185.35 186.046 185.853 186.162 180.575 181.625 182.562 183.584 184.635 
185.484 186.329 186.614 186.888 186.628 186.418 179.135 180.348 181.181 
182.346 183.217 184.485 185.316 186.311 186.585 186.879 186.493 186.294 
185.586 177.295 178.72 179.547 180.795 181.469 182.725 183.346 184.669 
184.99 185.912 185.602 185.89 185.163 185.058 184.2 175.063 176.627 
177.429 178.923 179.548 180.844 181.258 182.504 182.74 183.904 183.784 
184.561 184.03 184.343 183.601 183.561 182.695 172.793 174.239 174.881 
176.505 177.097 178.643 179.004 180.322 180.417 181.589 181.474 182.504 
182.149 182.897 182.3 182.69 181.898 181.941 180.988 163.709 164.591 
164.486 165.173 165.551 165.462 166.232 166.048 166.765 166.478 166.45 
167.326 167.197 168.059 167.81 168.685 167.424 167.422 168.437 168.369 
169.441 169.26 170.365 170.039 171.105 168.478 168.502 169.696 169.632 
170.908 170.785 172.125 171.886 173.141 172.686 173.696 169.515 169.658 
171.045 171.059 172.491 172.404 173.875 173.72 175.094 174.754 175.826 
175.221 175.967 170.436 170.704 172.235 172.434 173.995 174.038 175.556 
175.48 176.875 176.644 177.741 177.261 178.015 177.324 177.861 171.276 
171.617 173.22 173.571 175.225 175.451 176.992 177.055 178.411 178.308 
179.387 179.051 179.806 179.25 179.782 179.085 179.475 171.986 172.419 
174.048 174.508 176.19 176.556 178.076 178.287 179.572 179.634 180.668 
180.523 181.267 180.885 181.395 180.849 181.202 180.526 180.715 162.943 
161.978 162.868 163.738 161.025 161.875 162.735 163.707 164.649 160.156 
160.935 161.736 162.687 163.63 164.62 165.549 159.328 160.063 160.781 
161.675 162.559 163.564 164.492 165.487 166.417 158.579 159.25 159.901 
160.695 161.47 162.439 163.321 164.369 165.283 166.336 167.319 157.982 
158.566 159.155 159.819 160.456 161.313 162.111 163.149 164.045 165.131 
166.067 167.202 168.219 157.438 157.982 158.457 159.047 159.531 160.276 
160.963 161.94 162.824 163.891 164.824 165.914 166.886 168.055 169.085 
156.841 157.364 157.722 158.272 158.634 159.304 159.882 160.795 161.646 
162.698 163.644 164.703 165.663 166.755 167.747 168.907 169.918 156.233 
156.709 157.021 157.511 157.838 158.411 158.931 159.732 160.529 161.529 
162.456 163.519 164.461 165.546 166.496 167.604 168.538 169.692 170.618 
156.015 155.956 156.249 156.778 156.022 156.25 156.824 157.06 157.629 
156.366 156.456 157.123 157.264 157.947 158.077 158.806 157.013 156.973 
157.667 157.726 158.514 158.594 159.432 159.513 160.436 157.667 157.671 
158.322 158.357 159.154 159.252 160.154 160.254 161.223 161.323 162.343 
158.085 158.224 158.903 158.996 159.805 159.928 160.898 161.026 162.071 
162.168 163.245 163.32 164.376 158.465 158.618 159.409 159.555 160.461 
160.617 161.693 161.851 163.008 163.101 164.243 164.29 165.402 165.413 
166.448 159.025 159.117 160.001 160.139 161.149 161.326 162.48 162.691 
163.918 164.078 165.237 165.309 166.391 166.437 167.483 167.483 168.465 
159.678 159.765 160.685 160.828 161.885 162.067 163.229 163.466 164.69 
164.931 166.095 166.241 167.289 167.367 168.391 168.461 169.497 169.501 
170.5 160.31 161.795 161.153 161.441 163.624 162.863 163.232 162.453 
162.754 165.688 164.874 165.308 164.428 164.768 163.873 164.166 167.869 
167.058 167.587 166.65 167.041 166.038 166.346 165.369 165.657 170.189 
169.374 170.065 169.088 169.606 168.496 168.865 167.719 167.984 166.9 
167.097 172.742 171.898 172.789 171.77 172.468 171.281 171.791 170.486 
170.793 169.438 169.556 168.3 168.346 175.461 174.651 175.712 174.69 
175.522 174.316 174.951 173.612 174.046 172.531 172.669 171.049 170.996 
169.549 169.516 177.974 177.378 178.506 177.646 178.508 177.401 178.034 
176.787 177.269 175.865 176.104 174.421 174.353 172.548 172.383 170.798 
170.709 179.864 179.613 180.692 180.179 180.996 180.182 180.739 179.694 
180.073 178.895 179.122 177.735 177.711 176.012 175.756 173.933 173.646 
172.008 171.795 159.94 159.751 160.304 161.316 159.493 160.107 161.167 
161.822 163.063 159.164 159.851 160.982 161.684 162.967 163.692 165.067 
158.779 159.521 160.701 161.474 162.781 163.572 164.97 165.741 167.172 
158.381 159.138 160.332 161.152 162.474 163.329 164.753 165.603 167.074 
167.872 169.384 157.994 158.738 159.94 160.776 162.116 162.993 164.453 
165.358 166.89 167.756 169.319 170.149 171.797 157.63 158.332 159.509 
160.372 161.731 162.638 164.111 165.049 166.623 167.559 169.167 170.061 
171.727 172.634 174.386 157.347 157.959 159.064 159.911 161.269 162.225 
163.702 164.68 166.249 167.253 168.883 169.861 171.507 172.479 174.176 
175.178 176.847 157.206 157.708 158.739 159.483 160.804 161.743 163.222 
164.224 165.77 166.816 168.437 169.5 171.129 172.158 173.751 174.798 
176.345 177.394 178.773 159.138 157.971 158.689 158.939 156.74 157.488 
157.678 158.41 158.608 155.426 156.177 156.312 157.065 157.163 157.973 
158.172 154.15 154.826 154.903 155.638 155.694 156.466 156.583 157.478 
157.729 152.917 153.532 153.547 154.242 154.296 155.013 155.101 155.9 
156.095 157.029 157.322 151.677 152.253 152.214 152.893 152.93 153.637 
153.704 154.451 154.605 155.45 155.712 156.65 156.965 150.551 151.03 
150.977 151.585 151.606 152.272 152.302 153.026 153.148 153.979 154.246 
155.134 155.467 156.36 156.688 149.669 150.014 149.97 150.455 150.493 
151.037 151.056 151.656 151.743 152.511 152.795 153.7 154.099 154.979 
155.35 156.166 156.497 149.057 149.264 149.203 149.565 149.607 150.05 
150.086 150.548 150.607 151.203 151.444 152.269 152.688 153.613 154.043 
154.9 155.266 156.047 156.395 148.785 148.475 148.661 148.872 148.27 
148.364 148.51 148.832 149.204 148.216 148.182 148.216 148.45 148.772 
149.204 149.642 148.394 148.218 148.165 148.197 148.435 148.775 149.237 
149.671 150.174 148.839 148.55 148.491 148.282 148.433 148.554 149.027 
149.37 149.978 150.348 151.022 149.515 149.158 149.132 148.754 148.838 
148.726 149.165 149.345 150.011 150.302 151.059 151.41 152.249 150.287 
149.931 149.927 149.485 149.537 149.268 149.673 149.682 150.361 150.509 
151.28 151.539 152.397 152.756 153.624 150.997 150.7 150.736 150.318 
150.39 150.05 150.445 150.337 151.03 151.045 151.818 151.905 152.736 
152.969 153.848 154.143 154.927 151.633 151.387 151.51 151.156 151.306 
150.957 151.339 151.166 151.826 151.797 152.563 152.569 153.365 153.445 
154.296 154.465 155.277 155.444 156.131 152.072 152.925 152.323 152.008 
154.065 153.315 152.984 152.279 151.932 155.395 154.56 154.237 153.412 
153.089 152.314 152.07 156.939 156.003 155.719 154.788 154.495 153.621 
153.426 152.65 152.579 158.695 157.707 157.536 156.484 156.285 155.228 
155.08 154.152 154.123 153.326 153.34 160.498 159.541 159.488 158.471 
158.406 157.274 157.176 156.04 156.006 155.017 155.053 154.172 154.192 
162.426 161.416 161.409 160.438 160.442 159.427 159.368 158.249 158.153 
157.046 157.015 156.011 156.022 155.084 155.107 164.569 163.493 163.523 
162.448 162.473 161.437 161.42 160.364 160.272 159.179 159.078 158.021 
157.963 156.968 156.925 156.002 156.003 166.667 165.69 165.776 164.685 
164.729 163.591 163.597 162.46 162.42 161.287 161.213 160.098 160.017 
158.939 158.84 157.822 157.722 156.825 156.787 157.471 158.507 158.295 
159.061 159.759 159.526 160.426 160.174 161.174 161.054 160.895 161.945 
161.71 162.808 162.525 163.634 162.309 162.231 163.387 163.261 164.455 
164.238 165.428 165.107 166.24 163.566 163.529 164.761 164.697 165.996 
165.881 167.229 166.993 168.293 167.86 169.011 164.831 164.841 166.181 
166.139 167.58 167.502 169.074 168.917 170.467 170.078 171.388 170.753 
171.809 166.016 166.113 167.54 167.599 169.175 169.199 170.956 170.91 
172.648 172.362 173.773 173.187 174.259 173.514 174.429 167.026 167.222 
168.651 168.873 170.497 170.741 172.567 172.76 174.531 174.466 175.837 
175.429 176.412 175.827 176.698 176.043 176.914 167.82 168.093 169.462 
169.825 171.432 171.882 173.692 174.134 175.851 176.057 177.334 177.178 
178.04 177.681 178.457 178.059 178.902 178.411 179.222 151.008 150.78 
150.716 150.475 150.54 150.488 150.243 150.293 150.241 150.413 150.275 
150.038 150.057 149.976 150.11 150.083 150.548 150.286 150.014 149.904 
149.759 149.812 149.709 149.847 149.708 150.584 150.404 150.037 149.909 
149.648 149.608 149.397 149.445 149.264 149.388 149.252 150.398 150.266 
149.805 149.757 149.395 149.414 149.138 149.162 148.959 149.013 148.919 
149.034 149.025 150.496 150.173 149.747 149.511 149.147 149.079 148.847 
148.887 148.746 148.795 148.726 148.796 148.794 148.909 148.945 150.988 
150.546 150.244 149.766 149.467 149.082 148.884 148.716 148.634 148.624 
148.575 148.628 148.582 148.679 148.655 148.807 148.833 151.498 151.124 
150.869 150.431 150.145 149.659 149.385 148.995 148.806 148.614 148.491 
148.461 148.363 148.43 148.372 148.5 148.509 148.691 148.78 151.089 
150.602 150.924 151.269 150.413 150.592 150.913 151.268 151.738 150.253 
150.45 150.705 150.988 151.4 151.795 152.253 149.863 150.172 150.361 
150.696 151.022 151.443 151.896 152.311 152.793 149.408 149.7 149.884 
150.237 150.537 150.987 151.459 151.946 152.502 152.932 153.496 149.178 
149.342 149.553 149.804 150.145 150.527 151.051 151.534 152.153 152.634 
153.224 153.657 154.166 149.118 149.235 149.471 149.624 149.994 150.264 
150.818 151.223 151.867 152.315 152.893 153.323 153.794 154.204 154.596 
149.063 149.21 149.501 149.645 150.035 150.23 150.76 151.077 151.704 
152.089 152.657 153.015 153.456 153.805 154.188 154.568 154.954 149.045 
149.185 149.545 149.714 150.153 150.329 150.834 151.07 151.644 151.962 
152.523 152.834 153.279 153.544 153.914 154.209 154.597 154.962 155.375 
151.58 151.773 151.92 152.573 152.2 152.235 152.855 153.047 153.777 
152.647 152.651 153.165 153.335 154.008 154.258 154.948 153.174 153.087 
153.55 153.624 154.245 154.459 155.136 155.373 156.035 153.903 153.721 
154.208 154.124 154.784 154.83 155.563 155.653 156.355 156.499 157.224 
154.568 154.467 154.913 154.837 155.459 155.49 156.25 156.275 156.997 
156.986 157.693 157.787 158.559 155.002 155.012 155.403 155.405 155.878 
156.008 156.658 156.867 157.547 157.651 158.264 158.317 158.98 159.127 
159.865 155.396 155.417 155.866 155.841 156.282 156.317 156.865 157.075 
157.724 157.986 158.59 158.764 159.335 159.498 160.15 160.368 161.077 
155.834 155.863 156.393 156.376 156.897 156.828 157.37 157.371 157.996 
158.139 158.799 158.988 159.608 159.782 160.42 160.625 161.333 161.566 
162.286 158.979 158.313 158.354 157.795 157.746 157.686 157.068 157.136 
156.565 157.417 157.231 156.556 156.452 155.843 155.888 155.312 157.071 
156.961 156.316 156.097 155.457 155.307 154.749 154.709 154.148 156.423 
156.486 155.917 155.857 155.254 155.073 154.496 154.322 153.762 153.628 
153.015 155.765 155.783 155.259 155.329 154.814 154.798 154.231 154.11 
153.507 153.334 152.678 152.495 151.821 155.461 155.294 154.802 154.749 
154.312 154.306 153.81 153.75 153.161 153.039 152.389 152.202 151.517 
151.32 150.697 155.432 155.166 154.688 154.492 154.083 153.956 153.524 
153.384 152.85 152.686 152.098 151.923 151.315 151.097 150.502 150.301 
149.811 155.494 155.205 154.721 154.472 154.052 153.86 153.457 153.248 
152.76 152.501 151.947 151.707 151.168 150.951 150.441 150.21 149.752 
149.555 149.207 
POINT_DATA 1002
SCALARS Distance double
LOOKUP_TABLE default
152.577 151.845 152.27 153.209 152.895 153.602 153.995 153.751 154.381 
154.849 154.911 154.762 155.236 155.74 156.252 155.977 155.889 156.228 
156.742 157.345 157.89 157.255 157.109 157.471 157.941 158.581 159.134 
159.639 158.611 158.328 158.868 159.258 159.86 160.451 160.923 161.426 
159.832 159.46 160.158 160.5 161.036 161.732 162.355 162.892 163.459 
160.86 160.452 161.27 161.655 162.162 162.957 163.832 164.522 165.079 
165.619 161.744 161.294 162.275 162.809 163.361 164.16 165.185 166.053 
166.627 167.094 167.562 151.391 151.783 150.852 151.393 150.571 152.48 
151.392 150.744 152.277 153.48 151.572 150.84 152.377 153.403 154.639 
151.404 150.607 152.346 153.401 154.587 155.828 151.222 150.582 152.066 
153.167 154.444 155.711 156.995 151.462 150.848 152.125 153.015 154.249 
155.549 156.815 158.161 151.78 151.07 152.497 153.263 154.322 155.533 
156.698 157.974 159.307 151.987 151.301 152.771 153.568 154.547 155.68 
156.74 157.858 159.139 160.328 152.131 152.869 153.272 153.986 154.512 
153.666 155.215 155.621 154.747 154.593 156.456 156.699 156.027 155.752 
155.749 157.782 157.964 157.492 157.132 156.972 156.899 159.196 159.33 
159.021 158.735 158.429 158.198 158.01 160.559 160.6 160.446 160.289 
160.065 159.765 159.483 159.283 161.837 161.792 161.78 161.682 161.572 
161.357 161.042 160.754 160.528 163.083 163 163.087 163.04 162.971 
162.812 162.513 162.15 161.818 161.536 162.429 162.768 163.967 163.191 
164.493 165.987 163.661 165.085 166.69 168.088 164.09 165.619 167.325 
168.831 170.073 164.376 165.997 167.773 169.426 170.874 172.36 164.475 
166.152 168.012 169.853 171.563 173.286 174.992 164.459 166.076 167.983 
170.076 172.097 174.026 175.884 177.416 164.424 165.928 167.738 169.975 
172.343 174.482 176.419 178.116 179.344 164.363 165.828 167.486 169.615 
172.161 174.576 176.593 178.351 179.818 180.83 163.11 164.959 163.899 
167.072 165.916 164.629 169.139 168.023 166.752 165.419 171.481 170.382 
169.073 167.738 166.474 174.274 173.32 171.963 170.316 168.819 167.485 
176.885 176.183 175.148 173.421 171.352 169.6 168.13 178.931 178.301 
177.61 176.445 174.424 172.099 170.161 168.592 180.568 179.941 179.264 
178.57 177.326 175.244 172.852 170.77 169.085 182.056 181.681 183.193 
182.793 184.343 180.946 183.969 185.535 182.031 180.205 185.014 186.309 
183.113 181.169 179.45 185.308 186.017 183.764 181.893 180.217 178.113 
184.48 184.811 183.457 181.956 180.517 178.694 175.878 183.022 183.36 
182.268 181.238 180.171 178.709 176.244 173.257 181.473 181.833 180.795 
180.085 179.391 178.221 176.109 173.411 170.948 179.813 180.035 179.297 
178.798 178.357 177.438 175.599 173.204 170.932 169.076 181.502 182.801 
181.846 183.172 181.904 184.036 183.191 181.588 184.563 185.387 182.64 
180.751 184.558 186.111 186.647 181.496 179.49 183.566 185.791 187.09 
186.934 180.072 177.856 181.99 184.107 186.054 186.615 185.934 178.243 
175.795 180.339 182.09 183.852 185.071 185.124 184.432 175.854 173.547 
178.201 180.117 181.58 182.797 183.492 183.477 182.897 173.324 171.512 
175.474 177.627 179.283 180.402 181.235 181.731 181.705 181.103 163.765 
165.334 164.676 166.38 165.601 166.99 167.376 166.462 168.232 168.965 
168.436 167.381 169.506 170.593 171.547 169.698 168.363 170.962 172.264 
173.527 174.358 170.921 169.27 172.526 173.993 175.379 176.388 176.74 
171.929 170.118 173.864 175.607 177.083 178.18 178.667 178.649 172.811 
170.906 174.929 176.894 178.488 179.675 180.317 180.442 180.264 162.067 
162.774 161.095 161.76 160.227 163.675 160.825 159.424 162.629 164.59 
159.948 158.614 161.576 163.476 165.414 159.191 157.934 160.569 162.271 
164.219 166.219 158.577 157.439 159.7 161.104 162.962 164.958 167.028 
157.934 156.945 158.867 160.03 161.758 163.757 165.76 167.873 157.218 
156.364 158.021 159.02 160.6 162.582 164.596 166.637 168.735 156.549 