# vtk DataFile Version 4.0
vtk output
ASCII
DATASET POLYDATA
POINTS 1002 float
-102.051 -84.1352 76.7928 -101.953 -83.5179 75.5227 -102.17 -83.2562 76.6323 
-102.346 -84.0121 77.9689 -102.615 -83.1936 77.7606 -102.194 -85.0117 78.1964 
-102.834 -84.091 79.1393 -103.163 -83.2315 78.935 -102.508 -85.0235 79.4343 
-102.335 -86.0621 79.7184 -103.324 -84.2239 80.4141 -103.544 -83.2267 80.2426 
-102.914 -85.135 80.7279 -102.593 -86.1093 81.0964 -102.504 -87.1599 81.468 
-103.688 -84.2934 81.7943 -103.953 -83.2967 81.4863 -103.325 -85.2556 82.162 
-102.942 -86.2052 82.5702 -102.759 -87.2726 82.9717 -102.745 -88.4723 83.3606 
-104.231 -84.4306 82.9461 -104.608 -83.5246 82.5424 -103.843 -85.4025 83.4544 
-103.488 -86.4416 83.9155 -103.244 -87.5459 84.3501 -103.153 -88.7714 84.7719 
-103.173 -90.0558 85.1289 -104.943 -84.7216 83.956 -105.213 -83.7924 83.664 
-104.599 -85.6871 84.4158 -104.298 -86.8235 84.8533 -104.057 -88.0334 85.275 
-103.863 -89.1912 85.8048 -103.791 -90.3896 86.3096 -103.853 -91.5859 86.6851 
-105.513 -85.1228 85.1383 -105.679 -84.1301 84.8524 -105.298 -86.1191 85.4765 
-105.103 -87.2393 85.7859 -104.947 -88.5074 86.0941 -104.752 -89.6617 86.5828 
-104.59 -90.7167 87.1807 -104.557 -91.8657 87.6755 -104.624 -93.0506 88.0455 
-106.018 -85.6009 86.256 -106.233 -84.633 85.8049 -105.819 -86.6185 86.6741 
-105.642 -87.6668 87.0234 -105.526 -88.8413 87.3426 -105.424 -90.047 87.7374 
-105.319 -91.1569 88.193 -105.278 -92.29 88.5995 -105.309 -93.5195 88.9364 
-105.373 -94.7178 89.2261 -106.593 -86.0932 87.0354 -106.869 -85.2152 86.4683 
-106.36 -87.091 87.5894 -106.129 -88.1282 88.1114 -105.918 -89.2097 88.6351 
-105.803 -90.4042 89.1353 -105.797 -91.6885 89.504 -105.853 -92.9881 89.731 
-105.948 -94.2704 89.9189 -106.066 -95.4857 90.1153 -106.173 -96.5484 90.2838 
-102.074 -82.7892 75.0536 -102.365 -82.5194 76.1745 -102.422 -82.0075 74.6128 
-102.764 -81.6944 75.7095 -102.896 -81.1202 74.0583 -102.859 -82.3836 77.3451 
-103.228 -80.7477 75.2095 -103.321 -80.1901 73.4503 -103.171 -81.4187 76.9524 
-103.301 -82.2309 78.6474 -103.772 -79.9177 74.7394 -103.897 -79.444 73.0097 
-103.645 -80.5141 76.5137 -103.566 -81.2232 78.2886 -103.692 -82.17 79.9848 
-104.558 -79.376 74.3581 -104.787 -79.0316 72.7293 -104.396 -79.9166 76.0425 
-104.274 -80.5971 77.729 -104.226 -81.3868 79.5216 -104.353 -82.3985 81.1777 
-105.437 -79.0004 74.0757 -105.721 -78.7919 72.4988 -105.209 -79.4007 75.7058 
-105.154 -80.1353 77.2261 -105.137 -80.9687 78.9166 -105.04 -81.7551 80.7993 
-105.045 -82.6825 82.3906 -106.237 -78.6596 73.8931 -106.542 -78.4438 72.3252 
-105.93 -78.8698 75.5705 -105.793 -79.4239 77.0859 -105.863 -80.3866 78.5674 
-105.778 -81.2577 80.4063 -105.54 -81.9669 82.2594 -105.504 -82.9073 83.685 
-107.034 -78.2958 73.7242 -107.325 -77.9401 72.193 -106.729 -78.5273 75.4449 
-106.446 -78.813 77.0915 -106.383 -79.5954 78.5301 -106.39 -80.6551 80.1159 
-106.179 -81.4701 81.944 -105.982 -82.2404 83.5426 -106.044 -83.3368 84.7595 
-107.822 -77.9118 73.5104 -108.061 -77.4703 72.0754 -107.594 -78.3134 75.1948 
-107.303 -78.5823 76.9257 -107.067 -79.0917 78.4654 -107.011 -80.0601 79.9091 
-106.943 -81.0662 81.5109 -106.778 -81.8839 83.119 -106.713 -82.8251 84.4429 
-106.783 -84.0083 85.5135 -108.609 -77.4434 72.8546 -108.438 -77.9508 74.501 
-109.192 -77.6407 73.9554 -109.045 -78.0628 75.8649 -109.836 -77.8949 75.5505 
-108.228 -78.3896 76.3575 -109.703 -78.1816 77.6061 -110.571 -78.1546 77.3317 
-108.821 -78.5256 77.8143 -107.939 -78.8318 78.135 -110.429 -78.539 79.1876 
-111.158 -78.7418 78.7065 -109.458 -78.7768 79.4387 -108.544 -79.2295 79.545 
-107.738 -79.6238 79.7069 -110.907 -79.5039 80.3011 -111.366 -79.9271 79.7483 
-110.123 -79.4406 80.7914 -109.168 -79.7538 81.0407 -108.383 -80.2256 81.1213 
-107.695 -80.6847 81.2533 -111.112 -80.9304 81.4358 -111.505 -81.3301 80.9437 
-110.621 -80.65 81.9555 -109.841 -80.6218 82.4032 -108.998 -80.847 82.6401 
-108.356 -81.2765 82.7142 -107.648 -81.6731 82.8539 -111.443 -82.2566 82.7506 
-111.868 -82.4861 82.2037 -111.049 -81.9974 83.2538 -110.516 -81.8207 83.7125 
-109.687 -81.7672 84.0786 -108.923 -81.9612 84.2388 -108.335 -82.3829 84.2342 
-107.583 -82.6907 84.2911 -111.897 -83.3907 83.8625 -112.249 -83.533 83.2329 
-111.505 -83.201 84.4359 -111.092 -83.041 84.9117 -110.413 -82.9581 85.2936 
-109.533 -82.9883 85.5493 -108.842 -83.275 85.5922 -108.268 -83.6701 85.4936 
-107.544 -83.8909 85.4614 -112.208 -84.6169 84.7449 -112.451 -84.7339 84.1029 
-111.848 -84.4725 85.337 -111.457 -84.3223 85.8362 -110.939 -84.2567 86.2307 
-110.179 -84.2701 86.5151 -109.374 -84.403 86.6724 -108.729 -84.6929 86.6603 
-108.14 -84.9622 86.5456 -107.492 -85.1011 86.4771 -107.274 -86.2886 87.4493 
-107.848 -86.1798 87.5689 -107.691 -87.4368 88.5958 -108.48 -86.0617 87.706 
-108.262 -87.3813 88.8523 -108.234 -88.923 89.8498 -109.2 -85.91 87.7305 
-109.02 -87.3892 88.9538 -108.878 -89.0275 90.0774 -108.862 -90.9452 90.8707 
-109.985 -85.8141 87.6042 -109.884 -87.4458 88.8504 -109.716 -89.1894 90.0469 
-109.528 -91.2747 90.8514 -109.491 -93.3843 91.5553 -110.713 -85.8068 87.3775 
-110.601 -87.5638 88.6569 -110.508 -89.3709 89.932 -110.267 -91.5348 90.7764 
-110.13 -93.9651 91.4431 -110.238 -95.9981 92.4573 -111.29 -85.8483 87.0363 
-111.138 -87.7042 88.3308 -111.073 -89.589 89.6908 -110.906 -91.7094 90.754 
-110.748 -94.3076 91.4877 -110.841 -96.7315 92.4582 -111.067 -98.4801 93.6142 
-111.752 -85.9441 86.6119 -111.621 -87.7972 87.9138 -111.536 -89.7629 89.203 
-111.403 -91.8696 90.4315 -111.281 -94.4431 91.4637 -111.357 -97.1117 92.4165 
-111.559 -99.1599 93.4494 -111.738 -100.705 94.2086 -112.148 -86.0388 86.1143 
-112.054 -87.8069 87.5388 -111.964 -89.7816 88.7726 -111.806 -91.9546 89.8903 
-111.686 -94.5092 91.1087 -111.79 -97.2452 92.2217 -111.995 -99.5555 93.0795 
-112.144 -101.331 93.7213 -112.279 -102.988 94.0516 -112.436 -86.0942 85.4836 
-112.38 -87.75 87.0499 -112.3 -89.6769 88.441 -112.134 -91.9251 89.5066 
-111.994 -94.5292 90.6605 -112.125 -97.274 91.9329 -112.411 -99.7367 92.813 
-112.594 -101.776 93.2606 -112.718 -103.645 93.5466 -112.887 -105.519 93.7269 
-107.037 -87.2663 88.0916 -107.577 -88.6534 89.2647 -106.825 -88.4186 88.7363 
-108.205 -90.4902 90.5033 -107.412 -90.0862 89.9597 -106.538 -89.633 89.4459 
-108.838 -92.7347 91.543 -108.066 -92.1458 91.1857 -107.121 -91.5477 90.7311 
-106.28 -90.9074 90.1745 -109.577 -95.2302 92.5092 -108.808 -94.4625 92.2948 
-107.942 -93.8062 91.8174 -107.006 -93.124 91.3478 -106.259 -92.3836 90.67 
-110.511 -97.8856 93.651 -109.758 -97.1532 93.3949 -108.97 -96.4212 92.8447 
-108.131 -95.7087 92.2196 -107.196 -94.9431 91.677 -106.413 -94.0064 90.8852 
-111.371 -100.465 94.3968 -110.778 -100.141 94.2115 -110.051 -99.5908 93.7741 
-109.312 -98.698 93.1863 -108.414 -97.7139 92.5907 -107.413 -96.7309 91.964 
-106.592 -95.5337 91.0396 -112.014 -103 94.3351 -111.606 -103.032 94.3315 
-111.003 -102.884 94.1663 -110.305 -102.092 93.9192 -109.501 -100.734 93.5167 
-108.542 -99.4259 92.9947 -107.603 -98.214 92.2489 -106.796 -96.8396 91.201 
-112.628 -105.717 93.9635 -112.269 -105.826 94.0705 -111.768 -105.801 94.1054 
-111.135 -105.275 94.1116 -110.383 -103.955 93.9505 -109.522 -102.283 93.6183 
-108.66 -100.795 93.1382 -107.844 -99.3861 92.3398 -107.004 -97.9104 91.2892 
-113.463 -108.487 93.6591 -113.064 -108.747 93.8105 -113.933 -111.407 93.4639 
-113.258 -111.507 93.5994 -113.974 -113.628 92.7124 -112.515 -108.657 93.9499 
-113.1 -113.447 92.7988 -113.789 -115.321 91.4308 -112.54 -110.978 93.7589 
-111.91 -108.163 94.0567 -113.002 -114.807 91.4445 -113.829 -116.865 90.3147 
-112.468 -112.527 92.8805 -111.952 -109.893 93.7199 -111.211 -107.045 93.9498 
-113.101 -115.801 90.332 -113.794 -117.802 89.5962 -112.562 -113.491 91.6033 
-112 -111 92.8306 -111.207 -108.326 93.3905 -110.343 -105.32 93.6369 
-112.881 -116.121 89.7669 -113.217 -117.638 89.0019 -112.575 -113.908 90.7619 
-112.038 -111.518 91.9593 -111.134 -109.144 92.7492 -110.234 -106.437 93.1124 
-109.471 -103.462 93.3362 -112.294 -115.535 89.529 -112.448 -116.517 88.6499 
-112.174 -113.685 90.4166 -111.823 -111.478 91.3755 -110.985 -109.376 92.2457 
-110.066 -107.085 92.7209 -109.402 -104.368 92.9241 -108.704 -101.693 92.8583 
-111.794 -114.071 89.499 -111.931 -114.658 88.7068 -111.605 -112.746 90.2643 
-111.3 -110.961 90.8955 -110.695 -109.128 91.5914 -109.899 -107.13 92.228 
-109.251 -104.721 92.5037 -108.64 -102.209 92.4131 -107.843 -99.9489 91.9899 
-111.465 -111.958 89.5535 -111.57 -112.258 88.9615 -111.163 -111.145 90.1528 
-110.715 -109.923 90.5425 -110.225 -108.487 90.9275 -109.675 -106.753 91.5036 
-109.067 -104.585 91.9342 -108.409 -102.29 91.918 -107.641 -100.214 91.5496 
-106.843 -98.3326 90.9723 -113.478 -106.93 93.4731 -114.153 -110.018 93.4335 
-114.002 -108.054 93.3192 -114.563 -110.974 93.0323 -114.252 -108.639 92.9488 
-114.594 -112.716 92.8853 -114.565 -111.37 92.2651 -114.315 -108.616 92.1593 
-114.862 -113.558 91.9757 -114.603 -114.912 91.6178 -114.502 -111.112 91.3885 
-114.35 -107.995 91.3787 -114.811 -114.117 90.9788 -114.99 -116.346 90.5182 
-114.616 -117.183 90.376 -114.481 -110.004 90.8773 -114.176 -107.023 90.9843 
-114.783 -113.552 90.3035 -115.155 -117.169 89.6409 -115.291 -119.154 89.534 
-114.767 -118.982 89.6413 -114.136 -108.608 90.705 -113.681 -105.872 90.6861 
-114.585 -111.684 90.1131 -115.092 -115.658 89.1363 -115.507 -119.137 88.6606 
-115.333 -120.108 88.7958 -114.369 -119.145 88.877 -113.496 -107.172 90.5139 
-113.097 -104.173 90.1417 -113.934 -109.858 90.2488 -114.534 -112.858 89.2693 
-115.148 -116.344 88.2491 -115.255 -118.659 87.9015 -114.526 -118.889 87.9465 
-113.364 -117.961 88.1187 -112.913 -104.997 90.0196 -112.596 -101.769 89.2939 
-113.179 -108.007 90.3009 -113.61 -110.57 89.8407 -114.279 -113.141 88.8044 
-114.681 -115.565 87.937 -114.305 -116.921 87.5949 -113.353 -116.998 87.5926 
-112.459 -116.16 87.9623 -112.465 -102.071 89.0712 -112.164 -99.2317 88.1814 
-112.648 -105.172 89.7896 -112.836 -108.009 90.0221 -113.286 -110.401 89.5699 
[...]
CELL_DATA 2000
SCALARS Distance double
LOOKUP_TABLE default
151.431 152.135 152.018 152.608 153.063 152.858 153.452 153.318 153.988 
154.051 153.859 154.456 154.253 154.903 154.773 155.514 155.009 154.85 
155.499 155.296 155.945 155.755 156.502 156.39 157.252 156.044 155.847 
156.543 156.355 157.07 156.864 157.646 157.474 158.377 158.266 159.249 
157.178 156.948 157.661 157.453 158.233 158.039 158.883 158.697 159.614 
159.466 160.454 160.347 161.356 158.334 158.118 158.87 158.643 159.452 
159.25 160.132 159.959 160.88 160.721 161.666 161.546 162.521 162.438 
163.419 159.481 159.29 160.086 159.882 160.699 160.497 161.368 161.205 
162.131 161.979 162.917 162.763 163.719 163.596 164.582 164.487 165.469 
160.573 160.417 161.198 161.058 161.864 161.71 162.548 162.408 163.317 
163.202 164.167 164.033 165.023 164.862 165.881 165.724 166.758 166.598 
167.59 150.9 150.413 150.919 151.567 149.997 150.48 151.102 151.683 
152.456 149.537 150.052 150.649 151.216 151.928 152.587 153.385 149.196 
149.635 150.274 150.773 151.452 152.04 152.808 153.494 154.318 149.236 
149.486 150.184 150.533 151.267 151.688 152.484 153.016 153.897 154.513 
155.402 149.555 149.689 150.339 150.583 151.33 151.665 152.503 152.901 
153.803 154.267 155.175 155.694 156.566 149.896 150.017 150.58 150.768 
151.423 151.74 152.542 152.97 153.848 154.283 155.124 155.553 156.363 
156.857 157.685 150.174 150.316 150.88 151.024 151.627 151.838 152.564 
152.951 153.814 154.284 155.123 155.53 156.293 156.697 157.489 157.983 
158.823 150.412 150.575 151.187 151.351 151.99 152.123 152.803 153.034 
153.855 154.249 155.141 155.545 156.366 156.707 157.5 157.878 158.712 
159.163 159.978 150.738 151.649 151.298 151.585 152.837 152.345 152.636 
152.227 152.468 154.264 153.646 153.888 153.369 153.618 153.125 153.328 
155.734 155.115 155.31 154.701 154.932 154.368 154.623 154.075 154.372 
157.081 156.535 156.762 156.156 156.381 155.767 156.05 155.47 155.815 
155.264 155.639 158.452 157.897 158.22 157.63 157.93 157.286 157.582 
156.959 157.32 156.755 157.135 156.569 156.891 159.942 159.373 159.774 
159.176 159.58 158.924 159.265 158.567 158.904 158.28 158.67 158.09 
158.433 157.801 158.069 161.365 160.88 161.3 160.764 161.19 160.604 
160.976 160.295 160.591 159.899 160.231 159.626 159.993 159.38 159.68 
159 159.267 162.64 162.242 162.673 162.217 162.617 162.127 162.491 
161.927 162.212 161.557 161.814 161.18 161.49 160.907 161.212 160.596 
160.847 160.197 160.457 161.31 161.689 161.892 162.725 162.067 162.294 
163.157 163.385 164.364 162.405 162.678 163.622 163.875 164.909 165.17 
166.298 162.765 163.046 164.076 164.378 165.482 165.761 166.902 167.179 
168.36 163.135 163.432 164.476 164.84 165.993 166.333 167.486 167.777 
168.975 169.283 170.584 163.389 163.748 164.759 165.191 166.343 166.781 
167.956 168.321 169.537 169.902 171.274 171.649 173.07 163.522 163.93 
164.932 165.403 166.525 167.033 168.202 168.686 169.918 170.406 171.785 
172.289 173.709 174.115 175.359 163.574 164.023 165.03 165.532 166.63 
167.152 168.278 168.82 170.043 170.658 172.04 172.679 174.066 174.591 
175.78 176.142 177.125 163.51 164.012 164.993 165.562 166.639 167.205 
168.297 168.849 170.041 170.694 172.094 172.825 174.25 174.85 176.056 
176.46 177.472 177.776 178.737 161.387 162.833 162.076 162.044 164.515 
163.644 163.656 162.813 162.773 166.491 165.514 165.565 164.577 164.562 
163.601 163.53 168.6 167.611 167.715 166.645 166.645 165.549 165.495 
164.435 164.362 170.889 169.828 170.013 168.889 168.944 167.77 167.753 
166.573 166.532 165.38 165.299 173.427 172.311 172.591 171.354 171.507 
170.22 170.294 169.001 169.028 167.739 167.694 166.406 166.263 175.733 
174.846 175.204 174.065 174.31 172.989 173.148 171.739 171.82 170.402 
170.397 168.978 168.848 167.421 167.199 177.524 176.915 177.352 176.527 
176.871 175.792 176.014 174.69 174.747 173.285 173.229 171.758 171.623 
170.131 169.887 168.382 168.097 179.192 178.629 179.179 178.511 178.962 
178.146 178.445 177.391 177.432 176.112 175.934 174.513 174.283 172.864 
172.595 171.11 170.756 169.25 168.901 180.441 182.437 181.126 180.427 
183.971 182.988 182.23 180.98 180.183 184.628 184.103 183.448 182.559 
181.693 180.567 179.645 184.909 184.462 183.86 183.373 182.575 181.785 
180.762 179.748 178.589 185.176 184.69 183.943 183.561 182.81 182.312 
181.295 180.535 179.284 178.352 177.017 184.934 184.739 183.868 183.558 
182.729 182.362 181.382 180.812 179.587 178.819 177.495 176.625 175.313 
183.958 184.143 183.334 183.254 182.344 182.128 181.129 180.748 179.583 
178.991 177.719 176.991 175.704 174.896 173.598 182.612 183.002 182.307 
182.455 181.533 181.502 180.467 180.309 179.184 178.838 177.601 177.073 
175.769 175.127 173.784 173.063 171.707 181.101 181.609 180.964 181.271 
180.372 180.486 179.448 179.459 178.381 178.263 177.082 176.765 175.452 
174.982 173.606 173.048 171.675 171.056 169.757 180.771 181.838 181.87 
182.851 182.454 182.79 183.771 183.8 184.37 182.385 183.054 184.005 
184.386 184.959 184.913 185.041 181.803 182.67 183.684 184.352 185.169 
185.394 185.832 185.522 185.558 180.951 181.901 182.93 183.85 184.941 
185.595 186.509 186.519 186.886 186.233 186.07 179.897 180.915 181.788 
182.853 183.848 185.019 186.067 186.904 187.427 187.398 187.104 186.431 
185.731 178.518 179.705 180.476 181.541 182.245 183.487 184.263 185.673 
186.141 187.058 186.693 186.769 185.806 185.442 184.461 176.621 178.073 
178.872 180.089 180.682 181.772 182.276 183.522 183.899 185.107 184.952 
185.621 184.833 184.943 183.947 183.83 182.937 174.316 175.899 176.656 
178.178 178.758 180.044 180.427 181.565 181.826 182.911 182.935 183.768 
183.357 183.753 182.995 183.079 182.229 182.204 181.371 163.704 164.511 
164.48 165.267 165.409 165.385 166.283 166.197 167 166.389 166.369 
167.382 167.32 168.261 168.027 168.759 167.587 167.513 168.726 168.615 
169.791 169.498 170.438 169.932 170.663 169.066 168.965 170.409 170.244 
171.678 171.335 172.551 171.946 172.89 172.113 172.892 170.494 170.561 
172.129 172.078 173.599 173.364 174.687 174.218 175.278 174.556 175.361 
174.475 175.102 171.572 171.879 173.502 173.686 175.187 175.15 176.403 
176.175 177.214 176.786 177.582 176.879 177.397 176.506 176.859 172.445 
172.862 174.56 174.894 176.43 176.539 177.767 177.667 178.683 178.458 
179.33 178.881 179.493 178.711 179.041 178.079 178.288 173.286 173.749 
175.5 175.894 177.461 177.663 178.912 178.907 179.927 179.803 180.729 
180.481 181.271 180.731 181.246 180.337 180.594 179.505 179.651 162.92 
161.923 162.813 163.629 160.889 161.788 162.627 163.577 164.484 159.902 
160.753 161.601 162.576 163.51 164.467 165.412 159.035 159.79 160.559 
161.519 162.451 163.468 164.415 165.402 166.453 158.258 158.95 159.609 
160.462 161.308 162.337 163.304 164.365 165.412 166.513 167.748 157.498 
158.174 158.788 159.531 160.257 161.181 162.112 163.206 164.291 165.436 
166.604 167.815 169.068 156.777 157.418 158 158.694 159.319 160.139 
160.95 161.999 163.051 164.249 165.375 166.585 167.679 168.951 170.072 
156.132 156.711 157.222 157.869 158.413 159.169 159.857 160.818 161.75 
162.935 164.005 165.248 166.257 167.478 168.456 169.779 170.863 155.534 
156.058 156.494 157.079 157.575 158.262 158.903 159.742 160.577 161.624 
162.618 163.815 164.81 166.009 166.928 168.154 169.135 170.52 171.641 
155.339 155.327 155.634 156.265 155.51 155.709 156.409 156.659 157.384 
156.031 156.089 156.884 157.006 157.846 157.975 158.807 156.729 156.754 
157.587 157.66 158.576 158.641 159.55 159.586 160.517 157.412 157.474 
158.303 158.391 159.307 159.42 160.372 160.437 161.407 161.451 162.505 
158.099 158.176 159.056 159.12 160.043 160.141 161.141 161.259 162.31 
162.393 163.479 163.546 164.654 158.815 158.903 159.835 159.911 160.873 
160.94 161.987 162.089 163.231 163.333 164.488 164.551 165.672 165.707 
166.782 159.508 159.614 160.524 160.657 161.628 161.768 162.849 163 
164.19 164.318 165.516 165.585 166.741 166.766 167.906 167.887 169.013 
160.158 160.269 161.146 161.296 162.263 162.463 163.583 163.83 165.082 
165.29 166.534 166.632 167.825 167.867 169.099 169.114 170.395 170.313 
171.556 160.798 162.248 161.605 161.842 164.098 163.281 163.575 162.779 
163.051 166.322 165.399 165.824 164.817 165.158 164.188 164.521 168.719 
167.794 168.345 167.298 167.738 166.606 166.975 165.861 166.175 171.26 
170.324 170.988 169.933 170.483 169.335 169.761 168.534 168.809 167.564 
167.714 174 173.078 173.993 172.837 173.59 172.289 172.883 171.503 
171.866 170.398 170.516 169.076 169.089 176.644 175.926 177.107 176.092 
177.086 175.736 176.502 174.948 175.48 173.776 174.015 172.221 172.25 
170.557 170.525 178.798 178.39 179.584 179.017 180.056 179.139 179.885 
178.597 179.08 177.516 177.774 175.976 176.022 174.09 174 172.129 
171.983 180.373 180.196 181.218 181.014 181.941 181.55 182.208 181.461 
181.777 180.684 180.756 179.411 179.34 177.75 177.549 175.732 175.418 
173.541 173.194 160.421 160.281 160.82 161.841 160.206 160.731 161.8 
162.371 163.596 160.17 160.71 161.796 162.362 163.601 164.264 165.69 
159.938 160.611 161.697 162.343 163.566 164.258 165.693 166.462 168.018 
159.437 160.224 161.313 162.113 163.341 164.148 165.577 166.429 168.028 
168.848 170.485 158.958 159.698 160.815 161.643 162.903 163.8 165.25 
166.22 167.854 168.81 170.496 171.351 173.047 158.681 159.331 160.482 
161.226 162.512 163.361 164.822 165.814 167.486 168.557 170.307 171.29 
172.992 173.894 175.563 158.518 159.129 160.267 160.969 162.243 163.041 
164.472 165.404 167.05 168.141 169.937 171.033 172.775 173.752 175.377 
176.287 177.775 158.391 158.977 160.069 160.747 161.971 162.764 164.145 
165.055 166.621 167.686 169.425 170.585 172.326 173.421 175.013 175.993 
177.414 178.287 179.488 159.545 158.141 159.004 159.34 156.686 157.547 
157.855 158.785 159.201 155.272 156.086 156.352 157.26 157.654 158.665 
159.13 154 154.726 154.955 155.768 156.099 157.077 157.505 158.548 
158.915 152.873 153.531 153.72 154.417 154.629 155.498 155.818 156.848 
157.169 158.193 158.429 151.753 152.403 152.525 153.183 153.257 154.004 
154.149 155.095 155.33 156.375 156.616 157.645 157.914 150.617 151.223 
151.264 151.916 151.915 152.597 152.63 153.432 153.58 154.532 154.775 
155.814 156.132 157.202 157.597 149.595 150.089 150.067 150.636 150.623 
151.25 151.304 152.001 152.152 152.927 153.155 154.05 154.378 155.421 
155.857 156.963 157.436 148.734 149.128 149.094 149.54 149.541 150.056 
150.156 150.778 150.992 151.668 151.902 152.612 152.877 153.747 154.15 
155.217 155.725 156.838 157.335 148.277 147.801 148.223 148.645 147.579 
147.866 148.295 148.653 149.102 147.539 147.75 148.153 148.411 148.849 
149.182 149.721 147.416 147.645 147.971 148.269 148.666 148.988 149.519 
149.918 150.567 147.349 147.437 147.681 147.986 148.377 148.76 149.284 
149.721 150.367 150.814 151.471 147.814 147.56 147.778 147.811 148.282 
148.542 149.176 149.536 150.231 150.625 151.315 151.714 152.41 148.77 
148.329 148.569 148.271 148.784 148.761 149.536 149.691 150.518 150.698 
151.467 151.689 152.476 152.797 153.666 149.778 149.4 149.682 149.292 
149.737 149.527 150.26 150.291 151.18 151.253 152.082 152.116 152.937 
153.075 154.012 154.282 155.274 150.668 150.391 150.733 150.402 150.783 
150.509 151.079 151.04 151.851 151.96 152.807 152.856 153.656 153.704 
154.596 154.766 155.754 155.991 156.939 151.288 152.435 151.703 151.425 
153.801 152.957 152.641 151.841 151.53 155.373 154.444 154.164 153.205 
152.894 152.02 151.844 157.171 156.169 156.024 154.948 154.732 153.639 
153.494 152.573 152.62 159.186 158.123 158.084 156.986 156.913 155.734 
155.623 154.476 154.453 153.518 153.596 161.33 160.257 160.26 159.149 
159.146 158.007 157.949 156.743 156.632 155.49 155.443 154.484 154.496 
163.463 162.456 162.539 161.415 161.443 160.285 160.281 159.083 158.999 
157.754 157.649 156.482 156.465 155.438 155.491 165.54 164.602 164.79 
163.734 163.824 162.657 162.68 161.462 161.441 160.175 160.112 158.831 
158.793 157.595 157.634 156.557 156.649 167.623 166.702 166.934 165.959 
166.099 165.02 165.049 163.876 163.839 162.622 162.563 161.317 161.242 
159.998 159.941 158.775 158.772 157.724 157.776 158.671 159.729 159.576 
160.388 160.982 160.772 161.663 161.432 162.336 162.345 162.142 163.129 
162.86 163.864 163.571 164.587 163.69 163.548 164.636 164.42 165.554 
165.267 166.435 166.047 167.172 165.001 164.912 166.106 165.971 167.27 
167.069 168.422 168.075 169.369 168.854 170.042 166.252 166.241 167.532 
167.485 168.927 168.847 170.36 170.137 171.547 171.126 172.386 171.817 
172.941 167.325 167.45 168.802 168.895 170.404 170.483 172.061 172.02 
173.451 173.201 174.443 174.047 175.173 174.634 175.612 168.195 168.447 
169.851 170.082 171.606 171.835 173.4 173.548 174.952 174.897 176.079 
175.874 176.968 176.661 177.668 177.156 177.978 168.926 169.267 170.717 
171.05 172.565 172.891 174.4 174.681 176.049 176.173 177.324 177.285 
178.33 178.219 179.222 178.977 179.82 179.332 179.968 149.94 149.695 
149.624 149.3 149.404 149.345 148.958 148.984 148.71 149.002 148.973 
148.53 148.575 148.243 148.352 148.093 148.618 148.518 148.048 148.09 
147.796 147.905 147.72 147.801 147.642 148.607 148.279 147.826 147.694 
147.483 147.542 147.51 147.579 147.541 147.525 147.463 149.032 148.541 
148.129 147.742 147.523 147.395 147.394 147.449 147.457 147.479 147.379 
147.379 147.325 149.533 149.083 148.688 148.225 147.897 147.582 147.426 
147.366 147.299 147.335 147.184 147.205 147.062 147.182 147.233 149.953 
149.556 149.158 148.741 148.309 147.928 147.583 147.395 147.239 147.203 
147.105 147.051 146.959 146.951 147.021 147.184 147.454 150.441 150 
149.614 149.17 148.703 148.26 147.811 147.515 147.307 147.218 147.24 
147.163 147.233 147.084 147.219 147.165 147.461 147.586 147.98 149.968 
149.388 149.739 149.943 148.874 149.236 149.467 149.823 150.143 148.276 
148.699 148.989 149.396 149.741 150.133 150.606 147.739 148.079 148.398 
148.884 149.335 149.785 150.308 150.737 151.361 147.501 147.658 147.936 
148.334 148.883 149.397 150.026 150.487 151.101 151.547 152.146 147.466 
147.557 147.824 148.044 148.579 149.019 149.696 150.189 150.772 151.224 
151.708 152.185 152.648 147.523 147.612 147.958 148.078 148.562 148.842 
149.458 149.872 150.422 150.829 151.243 151.67 152.094 152.594 153.088 
147.782 147.803 148.225 148.291 148.768 148.918 149.463 149.723 150.253 
150.538 150.97 151.268 151.711 152.11 152.671 153.149 153.76 148.264 
148.198 148.618 148.625 149.092 149.168 149.678 149.823 150.335 150.506 
150.97 151.148 151.615 151.88 152.445 152.837 153.469 153.915 154.505 
150.441 150.394 150.664 151.31 150.602 150.733 151.384 151.692 152.523 
151.09 151.076 151.733 151.911 152.772 153.077 154.008 151.848 151.707 
152.33 152.369 153.191 153.416 154.342 154.629 155.505 152.642 152.53 
153.103 153.044 153.77 153.879 154.734 154.971 155.824 156.07 156.845 
153.181 153.215 153.785 153.784 154.449 154.494 155.276 155.407 156.231 
156.41 157.209 157.399 158.19 153.641 153.681 154.278 154.348 155.015 
155.117 155.87 155.984 156.759 156.874 157.648 157.804 158.609 158.806 
159.638 154.297 154.238 154.851 154.85 155.523 155.618 156.363 156.514 
157.249 157.38 158.073 158.226 158.962 159.19 159.989 160.24 161.029 
155.011 154.957 155.554 155.506 156.15 156.167 156.873 156.974 157.683 
157.807 158.466 158.602 159.282 159.49 160.247 160.517 161.296 161.556 
162.29 159.395 158.703 158.7 157.988 157.958 157.951 157.198 157.238 
156.53 157.247 157.193 156.393 156.405 155.67 155.755 155.098 156.617 
156.528 155.709 155.627 154.832 154.863 154.181 154.331 153.78 155.968 
155.918 155.121 155.001 154.167 154.08 153.347 153.418 152.859 153.071 
152.633 155.301 155.263 154.523 154.432 153.65 153.506 152.781 152.71 
152.142 152.221 151.78 151.979 151.569 154.848 154.697 154.032 153.897 
153.22 153.065 152.425 152.285 151.746 151.674 151.214 151.24 150.814 
150.944 150.521 154.709 154.428 153.797 153.552 152.923 152.728 152.151 
152.004 151.498 151.38 150.906 150.811 150.344 150.321 149.888 149.96 
149.561 154.719 154.396 153.737 153.42 152.759 152.509 151.929 151.767 
151.274 151.152 150.678 150.549 150.062 149.951 149.491 149.451 149.045 
149.085 148.724 
POINT_DATA 1002
SCALARS Distance double
LOOKUP_TABLE default
151.939 150.899 151.456 152.662 152.29 153.225 153.626 153.276 154.07 
154.673 154.679 154.2 155.065 155.578 156.293 155.675 155.156 156.147 
156.627 157.305 158.163 156.711 156.266 157.246 157.82 158.495 159.335 
160.251 157.87 157.401 158.403 159.052 159.779 160.571 161.457 162.364 
159.086 158.518 159.657 160.297 161.049 161.816 162.613 163.495 164.398 
160.269 159.658 160.905 161.539 162.271 163.075 163.863 164.683 165.57 
166.44 161.325 160.739 162.001 162.688 163.418 164.265 165.165 166.043 
166.921 167.785 168.545 150.348 150.956 149.94 150.547 149.509 151.805 
150.106 149.003 151.3 152.684 149.803 148.788 150.919 152.142 153.602 
149.871 149.053 150.881 152.006 153.307 154.785 150.147 149.47 151.003 
152.111 153.395 154.711 156.032 150.439 149.783 151.16 152.11 153.408 
154.747 155.92 157.139 150.729 150.014 151.478 152.249 153.337 154.701 
155.928 157.035 158.294 150.986 150.241 151.852 152.645 153.518 154.713 
156.012 157.162 158.306 159.539 150.991 151.923 152.037 153.078 153.4 
152.911 154.467 154.93 154.124 153.824 155.951 156.325 155.516 155.162 
154.887 157.334 157.589 157.004 156.626 156.365 156.195 158.773 159 
158.556 158.233 157.891 157.709 157.504 160.349 160.48 160.204 159.985 
159.581 159.244 159.059 158.74 161.813 161.805 161.743 161.626 161.321 
160.874 160.578 160.344 159.957 163.111 163.008 163.098 163.015 162.837 
162.48 162.091 161.803 161.49 161.096 162.098 162.483 163.596 162.912 
164.079 165.418 163.323 164.636 166.016 167.463 163.728 165.18 166.634 
168.061 169.562 164.091 165.614 167.188 168.641 170.231 171.964 164.32 
165.872 167.547 169.139 170.841 172.756 174.493 164.459 166.023 167.686 
169.378 171.246 173.276 175.099 176.489 164.516 166.121 167.753 169.402 
171.356 173.524 175.403 176.843 178.05 164.413 166.054 167.746 169.399 
171.331 173.602 175.63 177.139 178.44 179.728 162.807 164.531 163.632 
166.594 165.571 164.485 168.781 167.772 166.595 165.407 171.145 170.116 
168.946 167.721 166.472 173.828 172.805 171.603 170.339 169.029 167.586 
176.222 175.567 174.565 173.282 171.843 170.324 168.637 178.04 177.802 
177.253 176.231 174.736 173.112 171.436 169.59 179.805 179.701 179.394 
178.697 177.376 175.696 174.047 172.305 170.377 181.799 181.784 183.737 
183.451 184.734 181.463 184.131 185.028 182.772 180.851 184.236 185.471 
183.223 181.738 179.702 184.369 185.692 183.233 181.983 180.172 177.986 
184.16 184.952 183.081 181.881 180.289 178.305 176.201 183.32 183.607 
182.528 181.432 180.08 178.385 176.473 174.444 182.085 182.15 181.524 
180.555 179.42 178.055 176.368 174.47 172.442 180.601 180.56 180.213 
179.386 178.407 177.319 175.878 174.114 172.236 170.35 180.793 183.024 
181.704 183.649 182.018 184.646 183.503 181.644 184.872 185.367 182.871 
180.904 184.692 185.956 186.181 181.936 180.021 183.997 186.149 187.431 
187.053 180.797 178.879 182.639 184.925 187.139 187.713 186.55 179.444 
177.238 181.194 182.913 184.965 186.324 186.044 184.826 177.543 175.092 
179.636 181.221 182.703 184.04 184.497 183.959 183.059 175.07 172.792 
177.362 179.283 180.783 182 182.773 182.808 182.224 181.41 163.693 
165.337 164.508 166.315 165.407 167.204 167.392 166.374 168.447 169.139 
168.781 167.613 170.018 170.919 171.266 170.512 169.084 171.947 173.08 
173.664 173.75 172.099 170.31 173.786 175.072 175.914 176.261 176.08 
173.236 171.179 175.181 176.6 177.544 178.19 178.303 177.814 174.18 
171.985 176.274 177.843 178.865 179.649 180.16 180.024 179.292 162.061 
162.689 161.023 161.656 159.993 163.539 160.615 159.104 162.537 164.458 
159.658 158.348 161.41 163.41 165.379 158.85 157.582 160.324 162.196 
164.309 166.554 158.096 156.821 159.423 161.028 163.118 165.45 167.815 
157.343 156.171 158.567 159.971 161.857 164.184 166.496 168.732 156.624 
155.605 157.704 158.975 160.63 162.767 165.069 167.21 169.429 155.948 
155.053 156.913 158.114 159.626 161.478 163.612 165.751 167.828 170.151 