# vtk DataFile Version 4.0
vtk output
ASCII
DATASET POLYDATA
POINTS 1002 float
-106.828 -84.437 75.8354 -106.676 -83.8379 74.5346 -107.274 -83.7619 75.2499 
-107.539 -84.4533 76.5241 -107.985 -83.6897 76.0871 -107.165 -85.261 77.1668 
-108.376 -84.5854 77.4526 -108.734 -83.7037 77.1924 -107.977 -85.4229 77.981 
-107.698 -86.2708 78.6429 -109.19 -84.809 78.7278 -109.518 -83.9544 78.3619 
-108.826 -85.6347 79.1436 -108.522 -86.4876 79.7214 -108.318 -87.3834 80.3219 
-109.848 -84.9548 80.0229 -110.294 -84.1997 79.3654 -109.548 -85.7045 80.4843 
-109.418 -86.6268 80.8348 -109.235 -87.6438 81.3443 -109.029 -88.6809 81.9158 
-110.424 -84.9039 81.1255 -111.013 -84.2051 80.3639 -110.085 -85.6275 81.6995 
-110.22 -86.6537 81.834 -110.341 -87.9213 82.0505 -110.1 -89.0899 82.6663 
-109.861 -90.1784 83.3209 -111.247 -85.0166 82.1303 -111.796 -84.3167 81.4465 
-110.789 -85.7998 82.7586 -110.84 -86.8563 82.964 -111.14 -88.2456 83.0355 
-111.094 -89.6012 83.5076 -110.812 -90.724 84.2114 -110.697 -91.8079 84.7696 
-112.347 -85.5432 83.0374 -112.695 -84.7745 82.4159 -111.932 -86.4386 83.6479 
-111.697 -87.4738 84.0993 -111.673 -88.7102 84.4743 -111.598 -90.0641 84.9802 
-111.462 -91.3265 85.5104 -111.448 -92.4951 85.8837 -111.544 -93.6637 86.1553 
-113.353 -86.1728 83.8224 -113.565 -85.3365 83.2073 -113.079 -87.156 84.3928 
-112.816 -88.2375 84.9164 -112.555 -89.3532 85.5338 -112.256 -90.5531 86.2543 
-112.085 -91.8666 86.7889 -112.182 -93.2143 86.9937 -112.396 -94.5234 87.075 
-112.529 -95.7315 87.225 -114.108 -86.6678 84.5477 -114.314 -85.8223 83.915 
-113.868 -87.6541 85.1269 -113.699 -88.8073 85.6167 -113.584 -90.0269 86.1339 
-113.393 -91.2417 86.7591 -113.2 -92.5324 87.3092 -113.21 -93.9402 87.6028 
-113.396 -95.3601 87.7327 -113.545 -96.6651 87.8732 -113.551 -97.7748 88.0738 
-106.937 -83.2638 73.7083 -107.615 -83.1612 74.5118 -107.303 -82.6564 72.8813 
-108.079 -82.5126 73.7177 -107.789 -81.953 72.0562 -108.262 -82.8946 75.5559 
-108.615 -81.7851 72.8805 -108.239 -81.1337 71.3246 -108.645 -82.1052 74.8701 
-108.903 -82.7371 76.7698 -108.996 -80.9137 72.2887 -108.467 -80.2003 70.7864 
-109.212 -81.4059 74.0744 -109.252 -81.8639 76.1017 -109.775 -82.9986 77.8056 
-109.246 -79.9164 72.0212 -108.804 -79.4226 70.2534 -109.808 -80.5979 73.5963 
-109.972 -81.1746 75.338 -110.233 -82.0869 77.1366 -110.758 -83.3147 78.7368 
-109.844 -79.2283 71.5731 -109.648 -79.1398 69.5385 -110.356 -79.6832 73.3615 
-110.75 -80.4463 74.8386 -110.935 -81.3413 76.4812 -111.253 -82.4232 78.2366 
-111.569 -83.4333 79.8826 -110.852 -79.0768 70.7721 -110.697 -79.0805 68.8993 
-111.072 -79.2297 72.7814 -111.341 -79.8906 74.4162 -111.603 -80.8077 75.8954 
-111.86 -81.7515 77.6782 -112.083 -82.7179 79.4953 -112.326 -83.6979 81.0606 
-111.823 -79.0025 70.1252 -111.555 -78.7724 68.6401 -111.956 -79.2902 71.9522 
-111.995 -79.889 73.7625 -112.217 -80.6709 75.3134 -112.608 -81.3987 76.9903 
-112.821 -82.1743 78.9037 -112.899 -83.1143 80.622 -113.161 -84.1932 82.0113 
-112.591 -78.6806 69.9241 -112.287 -78.2734 68.6767 -112.783 -79.2818 71.4341 
-112.798 -80.031 73.1413 -112.934 -80.7253 74.7803 -113.385 -81.233 76.3979 
-113.723 -81.7594 78.2303 -113.69 -82.5372 80.0564 -113.698 -83.5569 81.5627 
-113.985 -84.696 82.8052 -113.252 -78.1179 69.5477 -113.476 -78.7768 70.9661 
-114.14 -78.3307 70.5647 -114.269 -78.9884 72.2599 -114.828 -78.7577 71.7753 
-113.594 -79.6449 72.585 -115.061 -78.9792 73.7088 -115.633 -79.203 73.0979 
-114.415 -79.5542 74.0338 -113.695 -80.3769 74.3023 -116.036 -79.1422 75.0499 
-116.589 -79.8244 74.2485 -115.266 -79.1822 75.5808 -114.612 -79.9981 75.8085 
-114.053 -80.8521 76.0163 -116.868 -79.9461 76.1225 -117.056 -80.7209 75.2329 
-116.166 -79.59 76.9413 -115.331 -79.8897 77.4241 -114.868 -80.6411 77.6563 
-114.46 -81.3276 77.8635 -117.182 -81.1314 77.193 -117.088 -81.9802 76.4704 
-116.968 -80.6617 78.0791 -116.172 -80.6644 78.8121 -115.367 -81.0092 79.292 
-114.946 -81.5141 79.5752 -114.461 -82.053 79.7797 -117.342 -82.6854 78.4367 
-117.359 -83.6624 77.9612 -117.437 -81.9233 79.1563 -117.144 -81.6626 79.9144 
-116.301 -81.7987 80.5284 -115.463 -82.0953 81.0072 -114.901 -82.5266 81.294 
-114.342 -83.0664 81.4285 -117.654 -84.5628 79.6327 -117.797 -85.369 79.3171 
-117.654 -83.6731 80.1692 -117.661 -83.0682 80.8938 -117.309 -82.9238 81.5438 
-116.535 -83.0724 82.0713 -115.729 -83.371 82.5014 -115.103 -83.8122 82.7168 
-114.54 -84.3004 82.7677 -117.927 -86.2924 80.7685 -117.986 -86.76 80.509 
-117.849 -85.6557 81.1878 -117.801 -85.0446 81.9042 -117.74 -84.6946 82.6765 
-117.432 -84.6359 83.2377 -116.801 -84.7596 83.6382 -116.094 -84.9991 83.9054 
-115.464 -85.2994 83.9834 -114.873 -85.5858 83.954 -114.866 -86.8793 85.0587 
-115.521 -86.8121 85.1824 -115.389 -88.2216 86.2791 -116.196 -86.7354 85.2828 
-116.076 -88.3144 86.4792 -116.032 -89.9157 87.4511 -116.898 -86.6062 85.2968 
-116.749 -88.2776 86.7463 -116.618 -89.9508 87.7776 -116.747 -91.9343 88.583 
-117.558 -86.502 85.1586 -117.509 -88.1247 86.9885 -117.265 -89.7651 88.2914 
-117.201 -91.9298 89.1857 -117.293 -94.2445 89.8803 -117.909 -86.5462 84.7646 
-118.145 -88.1441 86.935 -118.094 -89.7269 88.5824 -117.847 -91.9768 89.7877 
-117.745 -94.503 90.7566 -117.691 -96.6088 91.3381 -117.978 -86.789 83.9866 
-118.35 -88.4862 86.3765 -118.586 -90.2299 88.264 -118.466 -92.5588 89.6453 
-118.299 -95.0706 91.0051 -118.177 -97.0687 92.0418 -118.018 -98.8308 92.4732 
-118.046 -87.1913 83.0665 -118.365 -88.9708 85.4724 -118.575 -91.0442 87.5312 
-118.524 -93.5675 88.8644 -118.527 -96.0203 90.2251 -118.55 -97.7934 91.6533 
-118.385 -99.3485 92.5306 -118.203 -101.322 92.9065 -118.101 -87.6195 82.4286 
-118.395 -89.3699 84.6683 -118.56 -91.644 86.8086 -118.418 -94.3106 88.1432 
-118.462 -96.7633 89.2593 -118.72 -98.5033 90.6613 -118.636 -100.014 91.7796 
-118.389 -101.976 92.4012 -118.379 -104.297 92.8422 -118.04 -87.9427 82.0683 
-118.318 -89.6033 84.1221 -118.657 -91.8433 86.2226 -118.659 -94.4188 87.6414 
-118.657 -96.8113 88.6667 -119.003 -98.6929 89.9582 -119.036 -100.413 91.1085 
-118.601 -102.505 91.72 -118.449 -104.892 92.1707 -118.755 -107.114 92.6753 
-114.577 -87.8519 85.751 -115.176 -89.4357 87.0226 -114.372 -89.0614 86.3618 
-116.041 -91.5344 88.2134 -115.122 -91.0026 87.7154 -114.37 -90.5242 86.8515 
-116.793 -93.9043 89.2814 -115.977 -93.3683 88.968 -115.176 -92.7601 88.2182 
-114.447 -92.0436 87.2535 -117.232 -96.3123 90.4148 -116.562 -95.7663 89.9353 
-115.794 -95.1325 89.5022 -115.241 -94.4511 88.4727 -114.449 -93.5169 87.6032 
-117.621 -98.7513 91.6808 -117.124 -98.3793 90.8251 -116.397 -97.6589 90.4427 
-115.738 -96.9366 89.845 -115.275 -96.1263 88.722 -114.431 -95.0329 87.9402 
-117.927 -101.433 92.7104 -117.662 -101.421 91.9038 -117.286 -100.883 91.1911 
-116.518 -99.941 90.8931 -115.751 -98.9542 90.2779 -115.24 -97.8413 89.171 
-114.478 -96.571 88.2857 -118.167 -104.508 93.1647 -117.855 -104.656 92.8654 
-117.746 -104.419 92.0728 -117.436 -103.539 91.4984 -116.498 -102.258 91.3026 
-115.638 -100.862 90.7277 -115.184 -99.4077 89.6154 -114.536 -97.9834 88.5925 
-118.627 -107.511 93.1577 -118.077 -107.704 93.2649 -117.649 -107.561 92.8087 
-117.629 -106.859 92.0628 -117.224 -105.608 91.6291 -116.227 -104.043 91.4686 
-115.516 -102.348 90.8932 -115.146 -100.689 89.8399 -114.504 -99.1705 88.8342 
-119.404 -109.725 92.8353 -118.951 -110.235 93.0983 -119.911 -111.88 92.6373 
-119.023 -112.434 92.5281 -119.795 -113.896 91.8017 -117.966 -110.306 93.0116 
-118.826 -114.303 91.5099 -119.304 -116.082 90.5499 -117.903 -112.311 92.3215 
-117.441 -109.773 92.5327 -118.613 -115.968 90.3527 -118.991 -118.001 89.2733 
-118.063 -113.87 91.3411 -117.521 -111.423 91.9226 -117.418 -108.63 91.8642 
-118.362 -117.106 89.1766 -118.753 -118.88 88.0783 -118.135 -115.017 90.1407 
-117.784 -112.736 90.9447 -117.327 -110.027 91.3491 -116.839 -107.076 91.4914 
-117.958 -117.318 88.2059 -118.274 -118.441 87.0972 -117.846 -115.516 89.0127 
-117.714 -113.558 89.7551 -117.214 -111.17 90.5371 -116.523 -108.264 91.0869 
-115.916 -105.219 91.2873 -117.394 -116.662 87.6943 -117.569 -117.24 86.5609 
-117.362 -115.292 88.447 -117.312 -113.63 88.9542 -116.881 -111.69 89.7761 
-116.202 -109.096 90.6381 -115.686 -106.095 90.9704 -115.388 -103.22 90.6652 
-116.611 -115.6 87.4723 -116.784 -115.947 86.48 -116.637 -114.578 88.2574 
-116.7 -113.161 88.6818 -116.405 -111.527 89.3317 -115.777 -109.348 90.2847 
-115.309 -106.599 90.7573 -115.104 -103.818 90.4556 -114.892 -101.35 89.6997 
-115.768 -114.308 87.3218 -116.098 -114.546 86.676 -115.689 -113.525 88.0022 
-115.828 -112.379 88.4762 -115.798 -111.012 89.0218 -115.352 -109.171 89.8778 
-114.847 -106.719 90.4804 -114.592 -104.099 90.3063 -114.396 -101.748 89.6038 
-114.05 -99.6778 88.7915 -118.938 -108.088 92.2166 -119.745 -110.343 92.4008 
-119.081 -108.383 91.7013 -119.806 -110.337 91.7035 -119.357 -108.109 91.0881 
-120.225 -112.414 92.118 -119.904 -110.05 90.7611 -119.568 -107.578 90.5947 
-120.146 -112.799 91.1676 -119.94 -114.982 91.0249 -119.911 -109.502 90.0876 
-119.379 -106.836 90.3096 -120.192 -112.873 89.9631 -119.965 -115.953 89.8201 
-119.538 -117.738 89.4943 -119.506 -108.606 89.7671 -119.034 -105.903 89.8228 
-120.15 -112.052 89.1786 -120.192 -115.66 88.604 -119.898 -118.396 88.2504 
-119.468 -119.454 88.067 -118.986 -107.488 89.3528 -118.882 -104.725 89.0071 
-119.661 -110.713 88.9155 -120.098 -114.051 88.0571 -120.066 -117.089 87.4022 
-119.822 -119.107 86.99 -119.179 -119.439 86.808 -118.69 -105.813 88.7284 
-118.804 -103.063 88.0619 -119.026 -109.073 88.8217 -119.482 -112.316 88.2198 
-119.651 -115.142 87.3865 -119.618 -117.337 86.6073 -119.247 -118.372 85.9332 
-118.447 -118.166 85.859 -118.536 -103.461 87.821 -118.593 -101.075 86.9734 
-118.589 -106.556 88.4574 -118.768 -110.036 88.5136 -118.921 -113.187 87.9459 
-119.041 -115.526 87.0246 -118.952 -116.779 85.9731 -118.419 -117.016 85.315 
-117.608 -116.67 85.5829 -118.308 -101.108 86.5998 -118.178 -99.247 85.7845 
[...]
CELL_DATA 2000
SCALARS Distance double
LOOKUP_TABLE default
154.394 155.197 155.025 155.581 156.204 155.955 156.573 156.371 157.082 
157.411 157.112 157.798 157.508 158.256 158.032 158.851 158.606 158.355 
159.023 158.765 159.491 159.272 160.092 159.895 160.772 159.632 159.44 
160.033 159.868 160.557 160.438 161.276 161.149 162.052 161.873 162.805 
160.721 160.455 161.086 160.856 161.605 161.471 162.4 162.323 163.33 
163.186 164.162 163.96 164.943 162.047 161.709 162.482 162.124 162.992 
162.702 163.708 163.539 164.624 164.491 165.537 165.351 166.359 166.152 
167.181 163.399 163.127 163.963 163.656 164.553 164.246 165.223 164.974 
166.015 165.834 166.888 166.725 167.769 167.589 168.647 168.446 169.509 
164.586 164.411 165.208 165.032 165.876 165.705 166.622 166.447 167.425 
167.243 168.26 168.088 169.143 168.989 170.078 169.916 171.002 170.795 
171.821 153.866 153.388 153.957 154.658 152.955 153.52 154.211 154.78 
155.569 152.524 153.107 153.779 154.32 155.043 155.723 156.658 152.019 
152.66 153.369 153.905 154.583 155.18 156.076 156.874 157.879 151.53 
152.153 152.98 153.555 154.315 154.806 155.658 156.331 157.365 158.115 
159.034 151.388 151.811 152.711 153.257 154.151 154.633 155.49 156.023 
157.01 157.679 158.675 159.28 160.144 151.669 151.899 152.758 153.147 
154.066 154.524 155.417 155.901 156.845 157.421 158.419 159.004 159.941 
160.475 161.391 152.055 152.26 153.066 153.334 154.213 154.556 155.475 
155.879 156.849 157.331 158.34 158.853 159.814 160.317 161.24 161.779 
162.708 152.371 152.601 153.409 153.669 154.545 154.82 155.742 156.055 
157.034 157.425 158.437 158.87 159.82 160.251 161.132 161.618 162.506 
163.057 163.924 152.81 153.947 153.531 153.9 155.204 154.754 155.152 
154.714 155.098 156.517 156.02 156.402 155.984 156.397 155.949 156.318 
157.979 157.383 157.678 157.194 157.587 157.207 157.652 157.211 157.615 
159.414 158.875 159.157 158.557 158.889 158.401 158.881 158.511 159.028 
158.573 159.005 160.685 160.237 160.656 160.115 160.498 159.871 160.295 
159.792 160.322 159.927 160.414 159.947 160.328 162.18 161.589 162.091 
161.607 162.124 161.556 161.983 161.35 161.78 161.255 161.729 161.283 
161.709 161.222 161.595 163.962 163.256 163.682 163.108 163.646 163.146 
163.672 163.077 163.523 162.859 163.315 162.71 163.2 162.645 163.108 
162.545 162.971 165.593 164.996 165.358 164.75 165.235 164.704 165.307 
164.774 165.37 164.713 165.251 164.516 165.044 164.334 164.848 164.177 
164.635 163.991 164.394 165.353 165.699 166.015 166.983 166.032 166.426 
167.508 167.749 168.791 166.335 166.808 168.001 168.307 169.385 169.627 
170.772 166.585 167.141 168.444 168.831 169.969 170.217 171.373 171.687 
172.957 166.657 167.335 168.719 169.272 170.53 170.839 172.063 172.35 
173.715 174.01 175.326 166.521 167.275 168.681 169.447 170.827 171.356 
172.657 173.055 174.457 174.831 176.202 176.401 177.541 166.4 167.083 
168.478 169.322 170.789 171.528 172.876 173.476 174.821 175.403 176.705 
177.128 178.185 178.398 179.333 166.441 166.998 168.337 169.134 170.648 
171.46 172.86 173.538 174.825 175.509 176.75 177.363 178.381 178.78 
179.644 179.985 180.961 166.537 167.024 168.236 168.992 170.485 171.344 
172.791 173.497 174.757 175.408 176.641 177.299 178.408 178.878 179.773 
180.141 181.083 181.563 182.666 165.464 167.044 166.188 166.106 168.875 
167.894 167.825 166.893 166.839 170.995 169.934 169.966 168.837 168.818 
167.752 167.706 173.234 172.186 172.335 171.176 171.202 169.973 169.929 
168.729 168.623 175.479 174.44 174.562 173.505 173.542 172.398 172.346 
171.105 170.975 169.693 169.513 177.664 176.678 176.79 175.712 175.78 
174.667 174.684 173.507 173.441 172.15 171.987 170.632 170.435 179.65 
178.837 179.143 178.08 178.319 177.096 177.265 175.965 176.036 174.688 
174.632 173.221 173.054 171.623 171.42 181.519 180.86 181.406 180.501 
180.917 179.798 180.081 178.77 178.877 177.442 177.396 175.933 175.783 
174.314 174.089 172.626 172.37 183.372 182.829 183.489 182.726 183.143 
182.239 182.48 181.44 181.482 180.23 180.061 178.663 178.399 176.982 
176.693 175.269 174.944 173.509 173.167 184.639 186.402 185.359 184.754 
187.498 186.805 186.144 185.135 184.288 188.045 187.57 186.939 186.206 
185.345 184.436 183.531 188.418 187.984 187.401 186.832 186.047 185.293 
184.385 183.534 182.524 188.489 188.215 187.56 187.181 186.447 185.882 
184.959 184.216 183.143 182.303 181.093 187.901 187.965 187.225 187.094 
186.323 186.055 185.147 184.617 183.483 182.752 181.5 180.681 179.386 
186.743 187.096 186.462 186.527 185.751 185.679 184.82 184.558 183.487 
182.943 181.689 180.976 179.684 178.913 177.638 185.397 185.862 185.381 
185.627 184.918 184.976 184.15 184.065 183.095 182.778 181.596 181.05 
179.754 179.101 177.804 177.112 175.843 184.081 184.531 184.04 184.425 
183.759 184.005 183.225 183.311 182.417 182.284 181.187 180.814 179.537 
179.022 177.696 177.131 175.833 175.238 173.998 184.661 184.938 185.456 
186.477 184.743 185.479 186.584 187.064 187.682 184.32 185.092 186.197 
186.954 187.799 188.046 188.339 183.734 184.548 185.623 186.501 187.544 
188.086 188.694 188.697 188.84 182.853 183.786 184.794 185.818 186.875 
187.725 188.52 188.949 189.295 189.183 189.036 181.726 182.739 183.668 
184.792 185.731 186.791 187.52 188.399 188.784 189.253 189.099 188.994 
188.384 180.352 181.456 182.303 183.505 184.386 185.49 186.141 187.109 
187.458 188.253 188.123 188.5 187.842 187.83 186.995 178.629 179.841 
180.531 181.89 182.701 183.995 184.656 185.697 186.07 186.861 186.833 
187.3 186.783 186.949 186.195 186.253 185.537 176.704 177.911 178.415 
179.823 180.462 181.98 182.586 183.967 184.361 185.423 185.493 186.112 
185.777 185.981 185.397 185.445 184.859 184.892 184.303 166.856 167.837 
167.726 168.62 169.146 168.966 170.118 169.883 170.99 170.702 170.539 
171.805 171.565 172.726 172.388 173.33 171.986 172.054 173.269 173.184 
174.244 174.028 174.914 174.555 175.276 172.929 173.153 174.401 174.45 
175.521 175.401 176.387 176.117 176.996 176.514 177.227 173.931 174.136 
175.566 175.607 176.883 176.749 177.978 177.735 178.882 178.412 179.239 
178.534 179.057 174.952 175.224 176.726 176.863 178.214 178.194 179.458 
179.376 180.547 180.294 181.108 180.521 180.917 180.155 180.403 175.669 
176.105 177.515 177.863 179.098 179.312 180.389 180.555 181.517 181.59 
182.29 182.061 182.438 181.882 182.143 181.424 181.737 176.079 176.606 
177.948 178.421 179.613 179.942 180.952 181.186 182.075 182.24 182.966 
182.943 183.483 183.208 183.695 183.187 183.693 182.961 183.41 166.147 
165.321 166.128 166.946 164.304 165.225 166.004 166.918 167.987 163.084 
164.121 164.965 165.927 166.909 168.055 169.377 161.857 162.868 163.76 
164.82 165.802 166.928 168.099 169.401 170.658 160.83 161.694 162.512 
163.566 164.553 165.728 166.812 168.055 169.164 170.465 171.568 160.016 
160.741 161.434 162.341 163.235 164.393 165.466 166.709 167.761 168.971 
170.009 171.305 172.46 159.308 159.965 160.581 161.325 162.081 163.084 
164.101 165.325 166.413 167.604 168.608 169.801 170.889 172.252 173.45 
158.634 159.263 159.844 160.506 161.162 161.992 162.886 163.991 165.062 
166.259 167.268 168.425 169.407 170.677 171.767 173.176 174.242 157.989 
158.587 159.143 159.772 160.364 161.093 161.854 162.817 163.789 164.928 
165.919 167.062 167.98 169.168 170.131 171.46 172.464 173.836 174.737 
157.821 157.947 158.242 158.965 158.114 158.39 159.14 159.421 160.191 
158.399 158.608 159.385 159.641 160.497 160.765 161.7 158.885 158.994 
159.803 159.984 160.928 161.184 162.265 162.512 163.637 159.543 159.588 
160.439 160.544 161.567 161.769 162.954 163.194 164.405 164.602 165.744 
160.275 160.316 161.228 161.305 162.391 162.548 163.777 163.981 165.221 
165.405 166.566 166.708 167.801 161.044 161.099 162.086 162.174 163.306 
163.445 164.67 164.845 166.08 166.252 167.45 167.58 168.743 168.822 
169.964 161.838 161.912 162.949 163.068 164.231 164.381 165.605 165.754 
166.996 167.148 168.415 168.545 169.803 169.87 171.086 171.1 172.272 
162.622 162.718 163.763 163.921 165.096 165.287 166.538 166.706 167.995 
168.137 169.48 169.606 170.952 171.018 172.277 172.278 173.443 173.422 
174.515 163.376 165.093 164.325 164.616 167.23 166.279 166.622 165.726 
166.049 169.645 168.627 169.015 167.961 168.315 167.3 167.597 172.097 
171.127 171.609 170.515 170.931 169.786 170.132 168.959 169.19 174.807 
173.75 174.419 173.248 173.779 172.557 172.991 171.712 171.997 170.648 
170.796 177.943 176.81 177.703 176.367 177.031 175.613 176.1 174.701 
175.026 173.601 173.734 172.278 172.307 180.775 179.967 180.936 179.802 
180.543 179.105 179.597 178.01 178.297 176.712 176.807 175.254 175.194 
173.703 173.607 182.591 182.281 183.107 182.569 183.265 182.372 182.867 
181.529 181.758 180.113 180.121 178.401 178.255 176.603 176.397 174.893 
174.728 183.614 183.55 184.205 184.072 184.678 184.41 184.924 184.275 
184.509 183.33 183.252 181.69 181.416 179.704 179.353 177.7 177.399 
175.932 175.74 162.965 162.816 163.428 164.607 162.614 163.274 164.521 
165.242 166.679 162.346 163.058 164.354 165.157 166.691 167.491 169.061 
162.027 162.793 164.14 164.989 166.575 167.473 169.107 169.894 171.449 
161.714 162.511 163.931 164.795 166.403 167.334 169.007 169.882 171.507 
172.286 173.992 161.507 162.278 163.758 164.614 166.222 167.147 168.847 
169.776 171.487 172.343 174.139 175.009 176.955 161.434 162.156 163.643 
164.474 166.048 166.941 168.62 169.6 171.389 172.346 174.174 175.112 
177.007 177.984 179.777 161.4 162.091 163.523 164.353 165.868 166.733 
168.325 169.32 171.117 172.206 174.046 175.058 176.795 177.809 179.431 
180.424 181.732 161.338 161.995 163.325 164.163 165.604 166.48 167.957 
168.938 170.644 171.829 173.685 174.814 176.456 177.427 178.836 179.827 
181.062 181.973 182.898 161.971 160.42 161.401 161.783 158.788 159.785 
160.171 161.188 161.561 157.271 158.141 158.476 159.509 159.886 160.921 
161.261 156.01 156.698 156.869 157.778 158.076 159.151 159.467 160.542 
160.861 154.759 155.423 155.41 156.167 156.277 157.277 157.541 158.656 
158.95 160.08 160.449 153.357 154.045 153.952 154.653 154.622 155.488 
155.685 156.738 157.073 158.171 158.552 159.7 160.194 152.019 152.619 
152.539 153.185 153.158 153.895 154.054 154.977 155.345 156.388 156.847 
157.913 158.426 159.557 160.149 150.907 151.38 151.33 151.891 151.937 
152.559 152.71 153.468 153.778 154.731 155.201 156.274 156.833 157.918 
158.506 159.605 160.2 150.025 150.387 150.372 150.842 150.945 151.48 
151.634 152.242 152.463 153.241 153.614 154.62 155.173 156.312 156.943 
158.051 158.646 159.695 160.239 149.612 149.297 149.585 149.983 149.136 
149.365 149.732 150.061 150.554 149 149.196 149.489 149.796 150.226 
150.653 151.199 149.113 149.115 149.327 149.505 149.871 150.284 150.847 
151.333 151.989 149.702 149.457 149.633 149.501 149.859 150.05 150.706 
151.089 151.862 152.275 153.121 150.544 150.232 150.463 150.11 150.501 
150.383 151.126 151.258 152.155 152.377 153.325 153.656 154.701 151.439 
151.137 151.484 151.123 151.584 151.315 152.052 151.981 152.886 152.928 
153.895 154.071 155.157 155.456 156.558 152.427 152.098 152.523 152.212 
152.743 152.476 153.165 153.009 153.823 153.77 154.676 154.759 155.806 
156.029 157.127 157.357 158.336 153.467 153.131 153.559 153.28 153.824 
153.598 154.242 154.075 154.802 154.705 155.539 155.563 156.548 156.709 
157.758 157.954 158.913 159.064 159.917 154.166 155.365 154.579 154.309 
156.843 155.915 155.651 154.83 154.625 158.6 157.542 157.263 156.3 
156.093 155.239 155.082 160.57 159.442 159.206 158.085 157.884 156.854 
156.707 155.788 155.675 162.67 161.536 161.42 160.218 160.082 158.869 
158.751 157.617 157.539 156.515 156.476 164.856 163.738 163.734 162.549 
162.493 161.228 161.123 159.859 159.781 158.594 158.578 157.484 157.533 
167.134 166.017 166.092 164.926 164.931 163.683 163.586 162.291 162.172 
160.926 160.863 159.701 159.701 158.626 158.692 169.486 168.376 168.511 
167.344 167.405 166.158 166.108 164.784 164.673 163.355 163.266 162.019 
161.961 160.804 160.778 159.74 159.765 171.803 170.753 170.922 169.79 
169.882 168.665 168.656 167.347 167.258 165.908 165.814 164.489 164.413 
163.132 163.06 161.862 161.817 160.759 160.759 161.671 162.849 162.701 
163.699 164.185 164.018 165.096 164.924 165.992 165.595 165.438 166.549 
166.374 167.489 167.279 168.368 167.038 166.894 168.065 167.877 169.097 
168.885 170.192 169.885 171.181 168.53 168.405 169.702 169.506 170.92 
170.7 172.289 171.994 173.562 173.055 174.374 169.976 169.938 171.361 
171.25 172.832 172.697 174.46 174.272 175.945 175.529 176.809 176.161 
177.114 171.237 171.339 172.824 172.884 174.506 174.565 176.308 176.338 
177.931 177.726 178.864 178.362 179.152 178.551 179.303 172.286 172.508 
174 174.213 175.787 176.02 177.639 177.869 179.334 179.368 180.438 
180.14 180.882 180.396 181.097 180.605 181.373 173.139 173.453 174.907 
175.232 176.722 177.065 178.552 178.894 180.25 180.462 181.531 181.473 
182.273 181.981 182.687 182.291 182.978 182.553 183.165 151.666 151.326 
151.167 150.504 150.924 150.787 150.078 149.954 149.353 150.642 150.408 
149.764 149.571 148.985 148.891 148.591 150.813 150.347 149.823 149.473 
149.052 148.756 148.541 148.47 148.588 151.305 150.722 150.186 149.753 
149.383 149.032 148.839 148.644 148.751 148.767 149.019 151.778 151.201 
150.519 150.088 149.55 149.278 148.892 148.804 148.71 148.853 148.984 
149.136 149.224 152.225 151.63 150.904 150.37 149.754 149.365 148.868 
148.667 148.398 148.53 148.56 148.873 148.941 149.14 149.145 152.727 
152.128 151.497 150.867 150.355 149.775 149.392 148.873 148.626 148.351 
148.374 148.451 148.621 148.799 148.892 149.039 149.149 153.281 152.712 
152.193 151.578 151.153 150.56 150.254 149.665 149.426 148.905 148.836 
148.58 148.741 148.705 148.905 148.914 149.078 149.166 149.412 151.685 
150.553 151.235 151.572 149.491 150.139 150.542 151.292 151.877 148.821 
149.258 149.754 150.389 151.05 151.788 152.504 148.797 148.909 149.442 
149.85 150.552 151.117 151.863 152.512 153.217 149.121 149.077 149.48 
149.734 150.412 150.821 151.528 152.005 152.704 153.267 153.937 149.3 
149.313 149.541 149.752 150.326 150.731 151.421 151.808 152.435 152.854 
153.497 154.016 154.652 149.317 149.388 149.626 149.766 150.267 150.615 
151.319 151.72 152.36 152.689 153.256 153.645 154.252 154.739 155.348 
149.423 149.485 149.873 149.943 150.459 150.643 151.32 151.648 152.349 
152.661 153.243 153.509 154.055 154.408 155.003 155.456 156.068 149.716 
149.745 150.228 150.294 150.822 150.917 151.49 151.709 152.365 152.677 
153.306 153.56 154.092 154.32 154.854 155.184 155.779 156.21 156.82 
152.399 152.334 152.711 153.537 152.631 152.808 153.579 153.932 154.791 
153.185 153.224 153.888 154.067 154.857 155.229 156.139 153.823 153.799 
154.383 154.434 155.156 155.401 156.343 156.709 157.684 154.503 154.439 
155.009 154.977 155.69 155.818 156.767 157.046 158.032 158.302 159.137 
155.204 155.134 155.716 155.655 156.366 156.433 157.349 157.554 158.484 
158.682 159.456 159.64 160.364 155.902 155.845 156.453 156.393 157.087 
157.121 157.96 158.12 158.991 159.15 159.943 160.051 160.864 160.994 
161.906 156.628 156.571 157.221 157.161 157.857 157.843 158.614 158.696 
159.521 159.655 160.516 160.645 161.594 161.706 162.733 162.803 163.783 
157.37 157.321 157.987 157.945 158.638 158.61 159.332 159.35 160.123 
160.212 161.082 161.252 162.242 162.456 163.481 163.646 164.565 164.632 
165.407 161.767 160.962 160.986 160.21 160.183 160.173 159.361 159.372 
158.586 159.458 159.42 158.596 158.546 157.742 157.771 157.103 158.745 
158.7 157.853 157.787 156.944 156.95 156.281 156.406 155.886 158.089 
157.994 157.132 157.036 156.157 156.132 155.39 155.533 154.981 155.209 
154.67 157.623 157.422 156.609 156.413 155.6 155.44 154.68 154.654 
154.026 154.21 153.677 153.909 153.31 157.364 157.082 156.342 156.07 
155.391 155.117 154.454 154.177 153.528 153.403 152.873 152.963 152.485 
152.6 152.048 157.209 156.902 156.189 155.911 155.3 155.052 154.487 
154.164 153.541 153.183 152.614 152.429 151.999 151.965 151.526 151.494 
150.992 157.101 156.783 156.072 155.785 155.163 154.955 154.418 154.198 
153.618 153.285 152.662 152.349 151.833 151.669 151.23 151.122 150.647 
150.55 150.102 
POINT_DATA 1002
SCALARS Distance double
LOOKUP_TABLE default
154.862 153.803 154.52 155.694 155.378 156.19 156.795 156.443 157.232 
157.828 158.101 157.693 158.5 159.04 159.687 159.274 158.854 159.698 
160.279 160.959 161.671 160.194 159.851 160.634 161.34 162.21 162.99 
163.754 161.324 160.992 161.742 162.44 163.421 164.36 165.138 165.938 
162.813 162.338 163.309 163.926 164.76 165.695 166.56 167.381 168.227 
164.23 163.63 164.847 165.506 166.238 167.051 167.923 168.828 169.733 
170.568 165.374 164.756 166.02 166.763 167.598 168.441 169.292 170.218 
171.19 172.085 172.813 153.277 154.077 152.811 153.673 152.385 154.888 
153.265 151.924 154.405 155.841 152.795 151.342 154.052 155.299 157.092 
152.325 150.927 153.823 155.074 156.606 158.4 152.185 151.057 153.628 
155.006 156.392 158.034 159.593 152.46 151.495 153.633 154.939 156.306 
157.839 159.388 160.844 152.829 151.844 153.914 155.096 156.393 157.852 
159.334 160.723 162.156 153.133 152.14 154.269 155.455 156.679 158.033 
159.429 160.7 161.977 163.386 153.161 154.303 154.381 155.583 155.653 
155.574 156.828 157.074 156.8 156.822 158.249 158.618 157.961 158.005 
158.134 159.761 159.866 159.465 159.244 159.4 159.555 161.089 161.105 
161.124 160.908 160.738 160.831 160.861 162.58 162.861 162.611 162.639 
162.407 162.198 162.161 162.11 164.332 164.696 164.139 164.192 164.188 
163.976 163.774 163.667 163.55 165.963 166.122 165.784 165.787 165.947 
165.979 165.8 165.562 165.317 165.04 166.264 166.743 167.943 167.22 
168.564 169.868 167.646 169.142 170.452 171.999 167.981 169.709 171.059 
172.612 174.266 168.05 170.13 171.754 173.383 175.157 176.559 167.834 
170.166 172.19 174.036 175.96 177.493 178.575 167.634 169.973 172.237 
174.213 176.226 177.936 179.131 180.3 167.581 169.802 172.179 174.176 
176.098 177.933 179.28 180.53 182.061 167.531 169.601 172.058 174.146 
175.957 177.87 179.425 180.621 182.107 183.838 166.926 168.815 167.734 
171.121 169.964 168.76 173.441 172.446 171.199 169.831 175.619 174.631 
173.554 172.289 170.809 177.863 176.893 175.82 174.682 173.357 171.798 
180.082 179.491 178.581 177.399 176.032 174.513 172.855 182.208 181.939 
181.332 180.339 178.902 177.261 175.58 173.837 184.228 184.043 183.456 
182.66 181.457 179.832 178.111 176.393 174.606 185.857 185.999 187.355 
187.068 188.079 185.372 187.571 188.493 186.185 184.485 187.895 188.876 
186.746 185.215 183.463 187.881 188.717 186.91 185.691 183.977 181.996 
187.303 187.688 186.496 185.569 184.189 182.291 180.221 186.301 186.245 
185.786 184.975 183.921 182.358 180.425 178.413 185.045 184.906 184.8 
184.172 183.306 182.065 180.374 178.47 176.534 183.645 183.695 183.435 
183.047 182.461 181.49 180.013 178.23 176.392 174.577 184.292 186.223 
184.301 185.916 184.016 187.618 185.348 183.6 187.336 188.452 184.702 
182.906 186.83 188.485 189.16 183.757 181.901 185.935 187.876 189.214 
189.52 182.563 180.721 184.694 186.577 188.116 189.029 188.75 181.089 
179.253 183.265 185.209 186.645 187.62 187.723 187.055 179.188 177.451 
181.325 183.523 185.247 186.324 186.559 186.068 185.462 177.099 175.564 
178.965 181.105 183.142 184.705 185.457 185.319 184.805 184.311 166.917 
168.735 167.863 170.307 169.274 171.317 172.038 170.797 173.073 173.793 
173.329 171.836 174.443 175.221 175.732 174.298 172.655 175.58 176.545 
177.402 177.858 175.458 173.684 176.948 178.131 179.269 179.983 179.879 
176.535 174.64 178.19 179.514 180.74 181.642 181.711 181.171 177.145 
175.226 178.871 180.241 181.421 182.397 182.838 182.775 182.493 165.406 
166.065 164.496 165.12 163.301 166.832 163.945 162.009 165.835 168.067 
162.654 160.91 164.684 166.891 169.346 161.522 160.062 163.364 165.615 
167.936 170.217 160.643 159.347 162.141 164.203 166.583 168.768 171.046 
159.909 158.674 161.195 162.91 165.192 167.466 169.594 172.03 159.209 
158.022 160.42 161.877 163.875 166.122 168.219 170.412 172.861 158.533 
157.415 159.69 160.986 162.703 164.79 166.849 168.876 171.109 173.424 