# vtk DataFile Version 4.0
vtk output
ASCII
DATASET POLYDATA
POINTS 1002 float
-103.727 -83.4231 77.2563 -103.738 -82.7144 75.981 -104.102 -82.6546 76.9755 
-104.128 -83.4481 78.3062 -104.558 -82.6942 77.9479 -103.785 -84.3465 78.7278 
-104.671 -83.5727 79.2723 -105.031 -82.7033 79.0384 -104.354 -84.4919 79.6529 
-104.028 -85.4235 80.18 -105.209 -83.6328 80.4296 -105.494 -82.6944 80.3665 
-105.043 -84.6852 80.5702 -104.821 -85.6893 80.9579 -104.507 -86.5622 81.5279 
-105.738 -83.7101 81.8229 -106.088 -82.8955 81.6515 -105.57 -84.7604 81.9133 
-105.505 -85.9555 82.1074 -105.285 -86.9452 82.5422 -105.014 -87.8057 83.0649 
-106.417 -84.0433 83.0574 -106.851 -83.314 82.6722 -106.017 -84.8864 83.4554 
-105.846 -86.0691 83.786 -105.77 -87.3051 84.0915 -105.568 -88.2973 84.4835 
-105.403 -89.3184 84.8897 -107.155 -84.4794 84.1161 -107.53 -83.6593 83.7274 
-106.652 -85.2589 84.6749 -106.234 -86.2411 85.2794 -106.117 -87.5442 85.6638 
-106.08 -88.7868 85.9162 -105.963 -89.9131 86.2346 -105.929 -91.1567 86.5463 
-107.727 -84.7665 85.298 -108.012 -83.8708 84.9527 -107.37 -85.6933 85.7112 
-106.967 -86.6564 86.2504 -106.761 -87.8897 86.7079 -106.766 -89.2952 86.9426 
-106.725 -90.5918 87.1873 -106.658 -91.855 87.5108 -106.732 -93.1433 87.7306 
-108.196 -85.0444 86.441 -108.475 -84.1656 86.0267 -107.967 -86.0757 86.7811 
-107.755 -87.1954 87.1122 -107.601 -88.4516 87.487 -107.569 -89.8945 87.769 
-107.535 -91.3442 87.9799 -107.424 -92.6622 88.2802 -107.41 -93.9097 88.5499 
-107.571 -95.0722 88.6343 -108.724 -85.5057 87.2372 -109.037 -84.6532 86.742 
-108.492 -86.5179 87.6815 -108.367 -87.7307 88.0109 -108.278 -89.0802 88.3317 
-108.209 -90.5041 88.6604 -108.176 -91.9898 88.8798 -108.103 -93.4236 89.0871 
-108.029 -94.7131 89.3467 -108.094 -95.8805 89.492 -108.284 -96.9194 89.4657 
-104.034 -82.0717 75.4409 -104.483 -82.0138 76.4103 -104.468 -81.467 74.9091 
-104.905 -81.2532 75.9393 -104.898 -80.6668 74.4275 -104.955 -81.9254 77.4391 
-105.222 -80.1864 75.6147 -105.237 -79.619 73.9719 -105.335 -80.9409 77.0859 
-105.394 -81.7829 78.6975 -105.605 -79.1515 75.2428 -105.81 -78.7772 73.4627 
-105.672 -79.8718 76.8667 -105.776 -80.7791 78.4125 -105.856 -81.8008 80.1167 
-106.475 -78.6404 74.6443 -106.874 -78.4019 72.9939 -106.288 -79.1883 76.4948 
-106.261 -79.9744 78.1305 -106.316 -80.9632 79.7489 -106.527 -82.1306 81.3316 
-107.61 -78.3687 74.108 -107.886 -78.0643 72.7804 -107.312 -78.8485 75.9165 
-107.034 -79.4475 77.77 -106.935 -80.2713 79.3927 -107.073 -81.3834 80.9396 
-107.323 -82.57 82.3827 -108.362 -77.8051 74.0099 -108.392 -77.4388 72.8249 
-108.24 -78.3594 75.5208 -107.899 -78.903 77.396 -107.638 -79.5719 79.1695 
-107.697 -80.6489 80.6846 -107.861 -81.8574 82.1373 -107.956 -82.8982 83.5865 
-108.812 -77.036 74.2599 -108.797 -76.7482 72.9573 -108.821 -77.655 75.524 
-108.581 -78.3213 77.1328 -108.263 -78.915 78.9683 -108.254 -79.8848 80.5575 
-108.416 -81.1905 81.9472 -108.459 -82.2817 83.4009 -108.446 -83.1774 84.8261 
-109.424 -76.4564 74.5303 -109.51 -76.3148 73.0755 -109.38 -77.0205 75.7098 
-109.209 -77.8497 76.9944 -108.92 -78.5415 78.6755 -108.818 -79.3206 80.3457 
-108.941 -80.5422 81.7173 -109.003 -81.7518 83.1043 -108.977 -82.6463 84.5654 
-108.99 -83.5582 85.8054 -110.326 -76.2427 74.1928 -110.163 -76.5284 75.5543 
-111.01 -76.638 75.1577 -110.86 -77.1097 76.3709 -111.557 -77.4368 75.9476 
-110.012 -77.3388 76.6957 -111.599 -77.9757 77.3026 -112.305 -78.2703 76.9329 
-110.803 -78.0035 77.711 -109.814 -78.2764 78.1864 -112.373 -78.8518 78.5718 
-113.099 -78.9947 78.155 -111.679 -78.749 79.0129 -110.75 -78.8654 79.5133 
-109.657 -79.0465 79.9808 -112.919 -79.8538 79.8128 -113.545 -79.9258 79.35 
-112.297 -79.686 80.3119 -111.618 -79.6219 80.8421 -110.655 -79.8046 81.2188 
-109.651 -80.1096 81.4948 -113.386 -81.054 80.9674 -113.858 -81.1445 80.5944 
-112.743 -80.951 81.4058 -112.159 -80.7926 81.9739 -111.478 -80.8406 82.4085 
-110.544 -81.0719 82.6671 -109.655 -81.3881 82.9112 -113.993 -82.2185 82.248 
-114.272 -82.3807 81.8595 -113.389 -82.1784 82.6617 -112.743 -82.0921 83.1898 
-112.167 -82.0406 83.7007 -111.39 -82.0554 84.0671 -110.438 -82.1461 84.3269 
-109.61 -82.3655 84.4999 -114.493 -83.3355 83.4061 -114.613 -83.5778 82.8521 
-114.044 -83.2391 83.9891 -113.427 -83.1872 84.5476 -112.863 -83.1471 85.0163 
-112.209 -83.0693 85.4175 -111.322 -82.9845 85.7302 -110.405 -83.0678 85.8589 
-109.628 -83.3041 85.8526 -114.725 -84.5748 84.2566 -114.769 -84.8404 83.5749 
-114.442 -84.412 85.0033 -113.954 -84.3294 85.6535 -113.418 -84.3053 86.0677 
-112.841 -84.2654 86.3567 -112.098 -84.1671 86.6647 -111.246 -84.1627 86.8497 
-110.427 -84.3243 86.8322 -109.68 -84.5104 86.774 -109.479 -85.863 87.5695 
-110.227 -85.8562 87.5748 -109.994 -87.2423 88.4909 -111.039 -85.7829 87.6257 
-110.813 -87.3362 88.5596 -110.631 -88.6935 89.5466 -111.846 -85.7235 87.572 
-111.649 -87.4185 88.5933 -111.485 -88.8773 89.684 -111.332 -90.6209 90.3435 
-112.615 -85.7735 87.324 -112.391 -87.534 88.4361 -112.28 -89.1559 89.6459 
-112.104 -91.0421 90.4118 -111.858 -93.4138 90.8197 -113.31 -85.8193 87.0922 
-113.076 -87.6488 88.1706 -112.898 -89.4388 89.4201 -112.773 -91.5098 90.2781 
-112.52 -94.0779 90.8391 -112.262 -96.4289 91.5959 -113.925 -85.7946 86.8712 
-113.799 -87.6489 87.9584 -113.509 -89.5855 89.1588 -113.283 -91.807 90.097 
-113.172 -94.5512 90.7481 -112.992 -97.0509 91.6514 -112.845 -98.8243 92.5959 
-114.42 -85.8066 86.3854 -114.427 -87.5909 87.6515 -114.216 -89.5977 88.8588 
-113.827 -91.9066 89.8982 -113.684 -94.7206 90.6807 -113.691 -97.4236 91.5934 
-113.618 -99.3602 92.5663 -113.586 -100.974 93.0699 -114.711 -85.913 85.621 
-114.738 -87.6005 87.0887 -114.694 -89.6056 88.4389 -114.389 -91.97 89.5741 
-114.139 -94.7615 90.5137 -114.141 -97.5791 91.433 -114.159 -99.8118 92.3583 
-114.202 -101.625 92.9291 -114.355 -103.589 93.0254 -114.81 -86.1071 84.7893 
-114.794 -87.6938 86.3113 -114.78 -89.6421 87.8499 -114.672 -92.0315 89.1267 
-114.525 -94.807 90.1797 -114.479 -97.64 91.1148 -114.452 -100.109 91.9463 
-114.505 -102.187 92.5747 -114.796 -104.252 92.89 -115.16 -106.445 92.9837 
-109.155 -86.8326 88.1845 -109.724 -88.3521 89.1921 -108.962 -88.0411 88.7215 
-110.463 -90.1908 90.0649 -109.583 -89.8849 89.6928 -108.858 -89.539 89.124 
-111.2 -92.7558 90.6021 -110.368 -92.1829 90.3323 -109.435 -91.6489 90.0555 
-108.727 -91.0862 89.5066 -111.737 -95.8452 91.3682 -111.178 -95.1038 90.9464 
-110.288 -94.2103 90.6222 -109.328 -93.327 90.3525 -108.676 -92.624 89.772 
-112.252 -98.5793 92.537 -111.822 -98.2254 92.1388 -111.277 -97.4683 91.4771 
-110.428 -96.2648 90.8871 -109.517 -95.107 90.459 -108.748 -94.2426 89.8929 
-112.967 -100.935 93.1675 -112.393 -101.015 93.1611 -111.953 -100.894 92.7556 
-111.501 -100.009 91.8642 -110.81 -98.461 91.0216 -109.808 -96.9674 90.559 
-108.789 -95.7829 90.0829 -113.845 -103.692 93.0596 -113.145 -103.802 93.2309 
-112.479 -103.882 93.3838 -112.04 -103.521 92.9605 -111.728 -102.252 91.9676 
-111.06 -100.369 91.1751 -109.91 -98.5806 90.783 -108.816 -97.1192 90.2754 
-114.783 -106.831 92.9544 -114.107 -106.899 92.9977 -113.31 -106.658 93.2316 
-112.62 -106.226 93.289 -112.208 -105.381 92.7284 -111.863 -103.813 91.8635 
-111.071 -101.805 91.2963 -109.902 -99.8946 90.9139 -108.92 -98.2752 90.2971 
-115.856 -109.527 93.1339 -115.292 -109.98 93.0924 -116.289 -112.114 93.2085 
-115.585 -112.292 93.0679 -116.276 -113.814 92.5727 -114.531 -109.653 93.0489 
-115.653 -113.612 92.2423 -116.172 -115.198 91.2529 -114.965 -111.467 92.7481 
-113.76 -108.79 93.0431 -115.593 -114.697 90.9874 -116.176 -116.65 90.1051 
-115.18 -112.666 91.8276 -114.305 -110.318 92.4172 -113.037 -107.872 92.8051 
-115.317 -115.716 90.1532 -115.913 -117.55 89.3898 -114.869 -113.738 90.9846 
-114.379 -111.632 91.6688 -113.443 -109.251 92.0781 -112.481 -106.68 92.1949 
-114.856 -115.995 89.6497 -115.305 -117.264 88.7881 -114.292 -114.306 90.5218 
-113.843 -112.447 91.2084 -113.359 -110.286 91.5401 -112.628 -107.738 91.6481 
-111.857 -104.84 91.5895 -114.346 -115.182 89.1452 -114.602 -115.917 88.3221 
-113.889 -113.933 89.9979 -113.357 -112.347 90.6535 -112.939 -110.479 91.0415 
-112.424 -108.261 91.2412 -111.669 -105.598 91.3195 -110.799 -102.661 91.218 
-113.659 -113.652 88.6799 -113.809 -114.027 88.0707 -113.426 -112.803 89.3759 
-113.031 -111.56 89.8977 -112.557 -109.999 90.3104 -111.986 -108.15 90.769 
-111.244 -105.902 91.0902 -110.435 -103.26 91.0538 -109.649 -100.593 90.7364 
-112.747 -111.916 88.3055 -112.897 -111.97 87.9322 -112.625 -111.403 88.848 
-112.425 -110.477 89.3134 -112.054 -109.237 89.6993 -111.462 -107.724 90.2505 
-110.707 -105.83 90.7997 -109.992 -103.511 90.874 -109.403 -101.044 90.4674 
-108.845 -98.8037 89.9373 -115.75 -107.673 92.9347 -116.603 -110.478 93.0852 
-116.184 -108.452 92.6221 -117.028 -110.76 92.5411 -116.359 -108.797 92.0505 
-116.977 -112.651 92.742 -116.975 -110.762 91.6609 -116.292 -108.754 91.3678 
-117.316 -112.723 91.6746 -116.886 -114.5 91.5297 -116.631 -110.525 90.8059 
-116.095 -108.178 90.6085 -117.217 -112.696 90.5633 -117.409 -115.036 90.2366 
-116.938 -116.605 90.163 -116.196 -109.687 90.1526 -115.73 -107.044 89.9244 
-116.811 -112.132 89.8948 -117.535 -114.912 89.3094 -117.678 -117.438 89.1424 
-116.955 -118.313 89.28 -115.62 -108.228 89.7251 -115.203 -105.478 89.4599 
-116.149 -110.77 89.6598 -117.01 -113.543 89.0262 -117.727 -116.555 88.4654 
-117.434 -118.536 88.4267 -116.363 -118.579 88.5536 -115.048 -106.253 89.2551 
-114.738 -103.498 88.9095 -115.403 -108.894 89.432 -116.023 -111.515 89.1262 
-116.88 -114.299 88.4198 -117.192 -116.777 87.9223 -116.515 -117.928 87.8081 
-115.471 -117.425 87.9497 -114.641 -103.801 88.4797 -114.404 -101.254 88.0177 
-114.879 -106.486 88.8254 -115.17 -109.192 88.9615 -115.697 -111.769 88.6772 
-116.276 -114.081 88.1159 -116.259 -115.758 87.68 -115.54 -116.229 87.5599 
-114.626 -115.447 87.7361 -114.244 -101.247 87.5551 -114.058 -99.1477 86.9872 
-114.462 -103.654 87.9979 -114.631 -106.321 88.3665 -114.793 -108.929 88.5665 
[...]
CELL_DATA 2000
SCALARS Distance double
LOOKUP_TABLE default
152.468 153.249 153.076 153.604 154.122 153.928 154.493 154.342 154.995 
155.072 154.857 155.474 155.305 156.007 155.848 156.578 156.163 155.886 
156.536 156.339 157.109 156.946 157.746 157.536 158.326 157.4 157.073 
157.722 157.462 158.246 158.09 158.969 158.788 159.639 159.386 160.252 
158.643 158.345 158.992 158.696 159.434 159.244 160.129 160.01 160.925 
160.735 161.626 161.397 162.361 159.784 159.552 160.221 159.96 160.679 
160.449 161.301 161.17 162.129 162.003 162.957 162.771 163.738 163.558 
164.583 160.842 160.651 161.35 161.151 161.907 161.695 162.551 162.386 
163.367 163.241 164.26 164.101 165.096 164.918 165.918 165.763 166.754 
161.861 161.689 162.397 162.248 163.037 162.894 163.771 163.639 164.606 
164.498 165.51 165.397 166.391 166.248 167.217 167.065 168.021 167.866 
168.777 151.992 151.635 152.107 152.754 151.299 151.77 152.382 152.895 
153.583 150.826 151.361 151.95 152.499 153.166 153.737 154.491 150.395 
150.857 151.48 152.037 152.736 153.315 154.097 154.702 155.56 150.423 
150.623 151.303 151.699 152.475 152.955 153.779 154.342 155.248 155.86 
156.79 150.811 150.879 151.535 151.759 152.546 152.867 153.691 154.123 
155.031 155.592 156.553 157.138 158.046 151.044 151.224 151.801 152.044 
152.744 153.022 153.766 154.114 154.968 155.452 156.407 156.947 157.867 
158.381 159.21 151.082 151.327 151.902 152.196 152.847 153.152 153.826 
154.162 154.946 155.404 156.334 156.854 157.777 158.251 159.079 159.524 
160.289 151.292 151.437 152.068 152.288 152.967 153.233 153.929 154.218 
154.984 155.377 156.278 156.778 157.707 158.186 159.018 159.437 160.198 
160.604 161.33 151.772 152.877 152.365 152.516 154.05 153.503 153.633 
153.158 153.389 155.392 154.763 154.968 154.385 154.632 154.112 154.386 
156.918 156.252 156.526 155.871 156.186 155.53 155.817 155.193 155.502 
158.386 157.802 158.085 157.476 157.806 157.172 157.481 156.781 157.071 
156.415 156.799 159.831 159.264 159.59 158.996 159.339 158.759 159.116 
158.473 158.778 158.076 158.404 157.782 158.19 161.384 160.804 161.215 
160.569 160.969 160.334 160.774 160.137 160.531 159.816 160.129 159.418 
159.743 159.136 159.485 162.849 162.373 162.825 162.247 162.67 162.039 
162.484 161.855 162.281 161.594 161.913 161.162 161.423 160.713 160.994 
160.372 160.666 164.078 163.73 164.197 163.767 164.195 163.676 164.07 
163.509 163.871 163.272 163.558 162.885 163.103 162.391 162.611 161.924 
162.169 161.534 161.791 162.611 163.047 163.232 164.082 163.531 163.722 
164.635 164.81 165.746 164.013 164.22 165.18 165.404 166.407 166.574 
167.584 164.443 164.681 165.637 165.928 166.988 167.243 168.303 168.477 
169.569 164.788 165.075 166.026 166.351 167.42 167.765 168.874 169.158 
170.299 170.537 171.757 165.028 165.385 166.374 166.728 167.788 168.155 
169.27 169.645 170.851 171.224 172.519 172.815 174.069 165.129 165.568 
166.58 167.029 168.099 168.503 169.596 169.997 171.219 171.7 173.072 
173.518 174.821 175.074 176.182 165.062 165.567 166.539 167.113 168.188 
168.725 169.819 170.286 171.479 172.012 173.378 173.957 175.292 175.708 
176.836 177.056 178.093 164.883 165.4 166.302 166.937 167.982 168.66 
169.775 170.398 171.59 172.204 173.521 174.162 175.467 176.017 177.157 
177.56 178.63 178.943 180.08 162.653 164.123 163.316 163.232 165.797 
164.902 164.857 163.994 163.948 167.661 166.701 166.709 165.76 165.77 
164.821 164.787 169.713 168.697 168.765 167.737 167.774 166.755 166.753 
165.733 165.683 172.005 170.929 171.113 169.966 170.038 168.874 168.862 
167.758 167.722 166.667 166.601 174.35 173.344 173.679 172.524 172.746 
171.407 171.45 170.069 170.041 168.797 168.76 167.62 167.523 176.445 
175.618 176.033 175.1 175.511 174.311 174.531 173.009 173.016 171.429 
171.371 169.946 169.85 168.568 168.406 178.433 177.659 178.133 177.333 
177.831 176.941 177.312 176.1 176.176 174.613 174.469 172.814 172.604 
171.067 170.835 169.457 169.224 180.588 179.791 180.375 179.491 179.984 
179.124 179.496 178.574 178.696 177.509 177.34 175.862 175.522 173.92 
173.54 171.994 171.642 170.251 169.959 182.079 184.224 182.82 181.914 
185.595 184.708 183.824 182.434 181.389 186.017 185.605 184.889 183.996 
182.914 181.698 180.665 186.18 185.797 185.17 184.675 183.761 182.893 
181.787 180.775 179.728 186.333 185.933 185.206 184.827 184.064 183.493 
182.489 181.65 180.511 179.601 178.399 185.954 185.852 185.028 184.782 
183.98 183.642 182.722 182.14 180.994 180.204 178.919 178.025 176.625 
184.819 185.099 184.311 184.341 183.446 183.33 182.357 182.087 180.956 
180.444 179.123 178.388 176.936 176.068 174.585 183.19 183.712 182.995 
183.313 182.42 182.522 181.496 181.447 180.335 180.114 178.856 178.377 
176.945 176.239 174.742 173.956 172.56 181.353 181.977 181.318 181.814 
181.012 181.3 180.343 180.438 179.398 179.343 178.208 177.942 176.628 
176.11 174.67 174.008 172.621 171.959 170.75 182.444 183.328 183.557 
184.595 183.584 184.14 185.16 185.386 185.902 183.3 184.047 184.967 
185.524 186.079 186.231 186.337 182.622 183.494 184.343 185.07 185.79 
186.244 186.713 186.653 186.718 181.561 182.587 183.41 184.295 185.129 
185.899 186.739 187.099 187.531 187.209 187.071 180.17 181.325 182.111 
183.17 183.936 185.01 185.878 186.838 187.428 187.762 187.636 187.267 
186.63 178.509 179.759 180.47 181.667 182.312 183.521 184.192 185.474 
186.004 186.998 186.93 187.234 186.521 186.286 185.329 176.587 177.9 
178.5 179.821 180.381 181.676 182.193 183.499 183.914 185.135 185.19 
185.99 185.475 185.703 184.782 184.643 183.612 174.555 175.822 176.294 
177.659 178.131 179.532 179.957 181.323 181.618 182.901 182.966 184.033 
183.722 184.364 183.63 183.821 182.823 182.752 181.707 165.024 165.762 
165.728 166.489 166.707 166.604 167.447 167.366 168.225 167.821 167.676 
168.581 168.455 169.412 169.262 170.135 168.959 168.859 169.847 169.713 
170.803 170.627 171.678 171.336 172.168 170.022 170.024 171.15 171.073 
172.322 172.185 173.433 173.102 174.111 173.519 174.257 171.079 171.155 
172.454 172.447 173.816 173.768 175.133 174.935 176.042 175.548 176.306 
175.607 176.175 172.182 172.325 173.765 173.817 175.249 175.255 176.656 
176.582 177.767 177.425 178.233 177.607 178.153 177.419 177.85 173.163 
173.44 174.94 175.122 176.574 176.648 178.039 178.041 179.304 179.104 
180.076 179.547 180.234 179.465 179.99 179.109 179.486 173.839 174.278 
175.759 176.144 177.58 177.828 179.168 179.305 180.542 180.54 181.595 
181.331 182.164 181.597 182.269 181.432 181.934 180.869 181.15 164.296 
163.356 164.185 164.947 162.301 163.18 163.944 164.883 165.801 161.155 
162.052 162.773 163.786 164.736 165.813 166.863 160.024 160.886 161.551 
162.541 163.473 164.654 165.779 166.91 167.968 159.051 159.833 160.513 
161.37 162.248 163.361 164.498 165.734 166.843 167.945 168.934 158.271 
158.982 159.689 160.439 161.243 162.195 163.246 164.435 165.553 166.724 
167.715 168.822 169.834 157.583 158.253 158.903 159.628 160.317 161.182 
162.076 163.187 164.261 165.436 166.453 167.559 168.55 169.716 170.819 
156.941 157.548 158.106 158.791 159.384 160.184 160.943 161.971 162.977 
164.157 165.223 166.343 167.339 168.439 169.473 170.686 171.772 156.414 
156.911 157.415 158.003 158.573 159.268 159.982 160.857 161.787 162.88 
163.95 165.114 166.144 167.249 168.214 169.338 170.312 171.532 172.484 
156.334 156.498 156.695 157.277 156.683 156.896 157.566 157.751 158.458 
156.952 157.168 157.989 158.173 159.008 159.108 159.937 157.364 157.544 
158.434 158.664 159.604 159.763 160.683 160.756 161.731 157.945 158.064 
158.948 159.139 160.085 160.32 161.306 161.51 162.565 162.713 163.84 
158.666 158.745 159.679 159.764 160.729 160.859 161.91 162.122 163.297 
163.537 164.767 164.921 166.062 159.441 159.524 160.523 160.6 161.644 
161.689 162.813 162.905 164.17 164.351 165.68 165.856 167.082 167.133 
168.18 160.205 160.301 161.301 161.44 162.519 162.645 163.794 163.918 
165.173 165.335 166.652 166.817 168.062 168.151 169.256 169.234 170.241 
160.94 161.042 162.014 162.176 163.233 163.436 164.56 164.791 165.993 
166.252 167.506 167.744 168.96 169.112 170.235 170.29 171.347 171.321 
172.343 161.65 163.182 162.519 162.78 164.929 164.192 164.503 163.755 
164.046 166.926 166.109 166.523 165.654 165.986 165.126 165.437 169.156 
168.289 168.827 167.877 168.296 167.274 167.603 166.627 166.952 171.529 
170.656 171.29 170.328 170.855 169.772 170.15 169.004 169.316 168.24 
168.536 174.055 173.182 173.967 172.947 173.609 172.477 172.984 171.74 
172.085 170.807 171.057 169.862 170.048 176.632 175.869 176.902 175.872 
176.727 175.482 176.149 174.782 175.243 173.791 174.034 172.579 172.678 
171.342 171.377 178.885 178.412 179.614 178.866 179.869 178.759 179.479 
178.113 178.586 177.083 177.309 175.713 175.721 174.141 174.058 172.63 
172.545 180.581 180.409 181.605 181.283 182.31 181.643 182.321 181.267 
181.6 180.286 180.367 178.894 178.777 177.2 176.978 175.416 175.203 
173.761 173.585 161.254 161.095 161.688 162.748 160.889 161.529 162.641 
163.266 164.437 160.619 161.305 162.449 163.146 164.375 165.041 166.349 
160.237 160.981 162.135 162.918 164.212 164.972 166.357 167.067 168.511 
159.773 160.551 161.737 162.577 163.932 164.784 166.237 167.05 168.554 
169.304 170.822 159.387 160.134 161.404 162.229 163.645 164.509 165.989 
166.865 168.394 169.27 170.837 171.638 173.218 159.173 159.867 161.203 
161.994 163.454 164.281 165.756 166.6 168.123 169.041 170.656 171.575 
173.198 174.039 175.639 159.072 159.734 161.062 161.838 163.286 164.112 
165.569 166.387 167.891 168.784 170.436 171.39 173.064 173.953 175.518 
176.363 177.829 158.997 159.639 160.911 161.672 163.059 163.897 165.317 
166.163 167.633 168.543 170.174 171.174 172.864 173.801 175.33 176.159 
177.512 178.337 179.565 160.318 158.876 159.759 160.101 157.411 158.269 
158.536 159.486 159.839 155.96 156.765 156.946 157.859 158.158 159.19 
159.555 154.671 155.358 155.478 156.26 156.464 157.45 157.795 158.869 
159.19 153.597 154.188 154.307 154.909 154.987 155.76 155.973 157.023 
157.331 158.425 158.694 152.562 153.146 153.261 153.832 153.824 154.377 
154.352 155.175 155.352 156.459 156.749 157.89 158.223 151.509 152.056 
152.082 152.704 152.647 153.197 153.027 153.628 153.607 154.509 154.77 
155.904 156.309 157.487 157.958 150.557 151 150.925 151.459 151.343 
151.908 151.748 152.316 152.257 152.946 153.148 154.07 154.503 155.608 
156.14 157.311 157.865 149.763 150.115 150.029 150.396 150.25 150.663 
150.538 151.058 151.093 151.724 151.956 152.69 153.087 153.977 154.496 
155.554 156.128 157.268 157.833 149.386 149.082 149.346 149.637 148.994 
149.098 149.253 149.528 149.774 148.957 149.009 149.03 149.17 149.309 
149.638 149.99 148.762 148.881 148.874 148.971 149.085 149.284 149.657 
150.034 150.618 148.597 148.686 148.797 148.866 149.052 149.174 149.604 
149.888 150.558 150.91 151.617 148.884 148.775 149.063 148.995 149.305 
149.292 149.761 149.948 150.657 150.981 151.756 152.039 152.775 149.654 
149.381 149.766 149.556 149.966 149.783 150.278 150.268 150.985 151.186 
152.022 152.268 153.08 153.304 154.135 150.612 150.294 150.684 150.429 
150.881 150.629 151.153 150.986 151.709 151.719 152.601 152.704 153.597 
153.728 154.624 154.807 155.743 151.576 151.259 151.636 151.378 151.851 
151.609 152.168 151.965 152.688 152.599 153.48 153.472 154.385 154.407 
155.316 155.402 156.345 156.503 157.453 152.231 153.384 152.619 152.341 
154.787 153.913 153.642 152.835 152.602 156.368 155.429 155.201 154.287 
154.077 153.2 153.007 158.107 157.107 156.942 155.974 155.837 154.854 
154.713 153.744 153.627 160.07 158.985 158.888 157.846 157.793 156.753 
156.673 155.616 155.527 154.507 154.448 162.27 161.124 161.114 159.964 
159.974 158.845 158.815 157.682 157.599 156.5 156.422 155.391 155.334 
164.571 163.456 163.532 162.337 162.38 161.167 161.171 159.947 159.884 
158.668 158.581 157.433 157.366 156.299 156.258 166.777 165.774 165.907 
164.781 164.836 163.63 163.643 162.397 162.37 161.082 161.011 159.727 
159.657 158.443 158.403 157.285 157.286 168.809 167.92 168.097 167.087 
167.165 166.041 166.054 164.863 164.854 163.607 163.562 162.254 162.17 
160.857 160.78 159.538 159.5 158.365 158.374 159.34 160.543 160.374 
161.303 161.904 161.706 162.724 162.49 163.486 163.364 163.176 164.278 
164.024 165.084 164.779 165.773 164.792 164.678 165.867 165.656 166.803 
166.485 167.577 167.171 168.184 166.103 166.087 167.381 167.275 168.563 
168.303 169.554 169.146 170.345 169.79 170.87 167.317 167.375 168.775 
168.797 170.256 170.129 171.544 171.23 172.565 172.089 173.29 172.627 
173.622 168.419 168.557 170.004 170.164 171.732 171.801 173.316 173.186 
174.54 174.233 175.418 174.952 175.93 175.263 176.035 169.327 169.571 
171.002 171.298 172.869 173.142 174.668 174.773 176.086 175.984 177.093 
176.835 177.782 177.344 178.116 177.474 178.122 170.013 170.354 171.752 
172.157 173.687 174.103 175.604 175.896 177.186 177.272 178.349 178.273 
179.227 178.994 179.823 179.383 180.076 179.457 180.074 150.732 150.596 
150.391 149.952 150.635 150.433 150.067 149.791 149.459 150.384 150.389 
150.049 149.931 149.558 149.362 149.108 149.938 149.968 149.591 149.669 
149.233 149.242 148.871 148.932 148.809 149.905 149.647 149.261 149.175 
148.782 148.762 148.413 148.513 148.402 148.636 148.684 150.321 149.862 
149.444 149.101 148.777 148.544 148.348 148.236 148.235 148.3 148.422 
148.572 148.63 150.739 150.296 149.766 149.374 148.964 148.71 148.56 
148.431 148.505 148.42 148.546 148.483 148.536 148.533 148.552 151.053 
150.628 150.047 149.629 149.106 148.834 148.583 148.563 148.624 148.695 
148.817 148.753 148.763 148.609 148.607 148.552 148.684 151.438 150.971 
150.462 149.964 149.475 149.035 148.718 148.538 148.526 148.632 148.78 
148.894 148.952 148.886 148.876 148.751 148.853 148.84 149.109 150.844 
149.907 150.458 150.801 149.299 149.586 149.789 150.452 150.904 149.044 
149.138 149.259 149.623 150.078 150.696 151.248 148.948 149.008 149.156 
149.313 149.753 150.154 150.8 151.276 151.915 148.872 148.964 149.118 
149.25 149.625 149.971 150.61 151.037 151.675 152.078 152.674 148.752 
148.882 149.01 149.153 149.448 149.787 150.378 150.854 151.468 151.863 
152.348 152.758 153.255 148.67 148.772 148.969 149.076 149.388 149.616 
150.183 150.606 151.271 151.657 152.164 152.46 152.916 153.302 153.839 
148.852 148.838 149.172 149.201 149.627 149.706 150.256 150.504 151.17 
151.515 152.126 152.388 152.915 153.146 153.718 154.026 154.638 149.316 
149.216 149.629 149.599 150.114 150.113 150.647 150.71 151.269 151.481 
152.079 152.379 152.977 153.249 153.841 154.078 154.668 154.921 155.476 
151.529 151.608 151.952 152.706 151.709 152.065 152.871 153.169 153.887 
151.904 152.157 152.962 153.32 154.119 154.389 155.18 152.435 152.452 
153.198 153.455 154.352 154.658 155.545 155.798 156.675 153.192 153.115 
153.797 153.863 154.746 154.977 155.911 156.173 157.039 157.288 158.115 
153.812 153.832 154.476 154.518 155.264 155.426 156.265 156.518 157.335 
157.593 158.386 158.66 159.498 154.364 154.384 155.004 155.077 155.71 
155.855 156.577 156.824 157.621 157.877 158.691 158.941 159.815 160.098 
161.012 155.086 154.998 155.604 155.591 156.212 156.258 156.946 157.118 
157.939 158.194 159.074 159.315 160.207 160.457 161.363 161.633 162.482 
155.863 155.755 156.335 156.272 156.914 156.867 157.554 157.586 158.372 
158.553 159.422 159.689 160.56 160.838 161.682 161.956 162.752 163.007 
163.722 160.132 159.374 159.403 158.707 158.57 158.599 157.878 157.956 
157.268 157.791 157.777 157.014 157.086 156.403 156.506 155.844 157.126 
157.052 156.309 156.286 155.631 155.675 155.071 155.136 154.565 156.59 
156.472 155.803 155.716 155.141 155.079 154.559 154.506 153.981 153.975 
153.49 156.225 156.043 155.412 155.29 154.744 154.682 154.205 154.144 
153.654 153.544 153.02 152.972 152.495 156.064 155.822 155.23 155.002 
154.407 154.27 153.722 153.718 153.228 153.225 152.697 152.602 152.051 
151.993 151.513 155.964 155.744 155.197 154.925 154.305 154.015 153.368 
153.21 152.66 152.681 152.196 152.215 151.676 151.608 151.066 151.029 
150.581 155.788 155.615 155.05 154.852 154.234 153.959 153.294 152.993 
152.375 152.199 151.691 151.666 151.18 151.171 150.638 150.601 150.106 
150.122 149.745 
POINT_DATA 1002
SCALARS Distance double
LOOKUP_TABLE default
152.907 151.894 152.605 153.72 153.424 154.19 154.643 154.302 155.12 
155.678 155.629 155.289 156.154 156.748 157.309 156.744 156.459 157.238 
157.939 158.555 159.118 158.017 157.724 158.406 159.099 159.876 160.489 
161.154 159.295 158.912 159.667 160.233 161.059 161.843 162.551 163.38 
160.451 159.991 160.92 161.452 162.221 163.109 163.921 164.745 165.626 
161.515 161.023 162.086 162.716 163.487 164.395 165.277 166.092 166.92 
167.72 162.531 162.032 163.146 163.882 164.717 165.616 166.523 167.377 
168.185 168.959 169.654 151.481 152.237 151.191 151.886 150.823 153.027 
151.379 150.281 152.588 153.886 150.918 149.992 152.149 153.475 154.935 
150.964 150.318 152.034 153.246 154.622 156.189 151.36 150.758 152.285 
153.326 154.505 155.969 157.503 151.557 150.819 152.491 153.46 154.517 
155.885 157.371 158.729 151.608 150.822 152.546 153.511 154.514 155.812 
157.308 158.654 159.856 151.886 151.172 152.715 153.646 154.635 155.807 
157.218 158.598 159.804 160.936 152.262 152.951 153.419 154.14 154.594 
153.81 155.558 156.027 155.208 154.883 157.174 157.555 156.85 156.505 
156.067 158.679 158.928 158.407 158.166 157.776 157.374 160.189 160.38 
159.907 159.707 159.48 159.083 158.758 161.847 161.928 161.614 161.39 
161.228 160.889 160.418 160.055 163.347 163.274 163.283 163.116 162.949 
162.669 162.183 161.669 161.261 164.571 164.392 164.674 164.631 164.465 
164.201 163.806 163.323 162.843 162.406 163.398 163.896 164.954 164.429 
165.583 166.704 164.913 166.202 167.438 168.615 165.327 166.675 168.092 
169.383 170.717 165.701 167.056 168.533 170.003 171.52 173.043 165.992 
167.432 168.88 170.404 172.156 173.889 175.279 166.084 167.667 169.203 
170.713 172.549 174.518 176.059 177.212 165.945 167.592 169.31 170.951 
172.782 174.812 176.552 177.901 179.171 165.688 167.278 169.082 170.94 
172.888 174.901 176.694 178.231 179.763 181.314 164.019 165.736 164.818 
167.666 166.728 165.765 169.816 168.82 167.777 166.719 172.262 171.269 
170.031 168.783 167.668 174.731 174.048 172.927 171.4 169.945 168.672 
176.847 176.525 175.965 174.708 172.949 171.225 169.659 178.925 178.635 
178.342 177.637 176.191 174.275 172.32 170.53 181.287 180.925 180.404 
179.749 178.707 177.128 175.171 173.134 171.265 183.643 183.538 185.496 
185.094 186.199 182.846 185.526 186.333 184.052 181.849 185.537 186.678 
184.452 182.785 180.733 185.59 186.735 184.498 183.249 181.438 179.368 
185.236 185.894 184.264 183.184 181.738 179.81 177.584 184.172 184.395 
183.529 182.548 181.344 179.789 177.775 175.455 182.574 182.606 182.243 
181.492 180.452 179.212 177.572 175.492 173.284 180.755 180.701 180.629 
180.167 179.374 178.37 177.047 175.27 173.251 171.332 182.381 184.652 
182.956 184.815 182.983 186.016 184.346 182.575 185.745 186.484 183.566 
181.731 185.124 186.512 187.15 182.468 180.49 184.201 186.071 187.643 
187.805 181.022 179.002 182.847 184.766 186.805 187.841 187.263 179.257 
177.274 181.137 182.958 184.858 186.353 186.598 185.701 177.174 175.317 
179.074 180.938 182.689 184.2 185.021 184.81 183.837 174.979 173.374 
176.734 178.592 180.348 181.821 182.884 183.266 182.818 181.818 164.995 
166.506 165.79 167.521 166.815 168.319 168.698 167.954 169.532 170.39 
169.932 168.999 170.918 171.967 172.686 171.149 169.926 172.379 173.679 
174.663 174.992 172.399 170.92 173.822 175.256 176.473 176.998 176.938 
173.663 171.971 175.24 176.695 178.025 178.813 178.896 178.632 174.694 
172.831 176.471 178.019 179.413 180.484 180.939 180.875 180.471 163.503 
164.059 162.509 162.975 161.423 164.803 161.763 160.284 163.584 165.824 
160.615 159.178 162.279 164.558 166.958 159.711 158.268 161.22 163.249 
165.69 167.884 158.971 157.578 160.393 162.121 164.369 166.601 168.663 
158.216 156.961 159.527 161.038 163.074 165.342 167.418 169.572 157.469 
156.396 158.637 159.993 161.805 164.057 166.272 168.33 170.52 156.872 