# vtk DataFile Version 4.0
vtk output
ASCII
DATASET POLYDATA
POINTS 1002 float
-105.852 -72.3828 67.7647 -105.967 -71.8968 66.3892 -106.226 -71.4882 67.4315 
-106.176 -72.1354 68.9402 -106.768 -71.3213 68.5554 -105.744 -73.0705 69.3281 
-106.828 -72.1297 70.0183 -107.533 -71.3093 69.5403 -106.176 -72.984 70.5322 
-105.72 -73.9027 71.0137 -107.693 -72.2818 70.8456 -108.286 -71.3647 70.41 
-106.967 -73.1249 71.4606 -106.311 -73.9689 72.133 -105.918 -74.9365 72.7039 
-108.538 -72.5143 71.7115 -109.072 -71.5429 71.3799 -107.956 -73.4495 72.2331 
-107.243 -74.2712 72.963 -106.684 -75.2255 73.6852 -106.335 -76.2665 74.3002 
-109.394 -72.8241 72.7956 -110.003 -71.9075 72.4097 -108.851 -73.8041 73.2527 
-108.268 -74.7178 73.8504 -107.697 -75.7134 74.5499 -107.276 -76.768 75.1985 
-106.972 -77.7235 75.7228 -110.239 -73.2482 73.8755 -110.812 -72.3933 73.398 
-109.603 -74.1312 74.4492 -109.062 -75.0877 75.0152 -108.655 -76.2225 75.5845 
-108.313 -77.3894 76.1997 -108.01 -78.3433 76.7308 -107.791 -79.2123 77.0993 
-110.897 -73.7373 74.9087 -111.344 -72.8532 74.417 -110.284 -74.5632 75.5694 
-109.671 -75.4505 76.2615 -109.336 -76.625 76.8197 -109.183 -77.9783 77.324 
-108.966 -79.1082 77.8797 -108.71 -80.0022 78.36 -108.55 -80.9374 78.6845 
-111.429 -74.2029 75.9539 -111.81 -73.2704 75.4043 -110.955 -75.1058 76.6228 
-110.358 -76.007 77.3814 -109.938 -77.1098 78.0729 -109.839 -78.4912 78.5571 
-109.758 -79.8492 78.9785 -109.523 -80.935 79.505 -109.277 -81.8947 80.017 
-109.142 -82.8662 80.3788 -111.969 -74.7046 76.8815 -112.347 -73.7807 76.2093 
-111.615 -75.6717 77.592 -111.151 -76.6686 78.3138 -110.69 -77.7731 79.056 
-110.489 -79.0803 79.6909 -110.443 -80.5032 80.0959 -110.285 -81.7911 80.4698 
-110.033 -82.8677 80.9836 -109.831 -83.8435 81.4985 -109.714 -84.7475 81.865 
-106.315 -71.2419 65.6554 -106.697 -70.8293 66.7078 -106.965 -70.7105 64.8696 
-107.432 -70.2807 65.8944 -107.849 -70.2613 64.1534 -107.366 -70.6313 67.8412 
-108.371 -69.7657 65.1357 -108.823 -69.8141 63.5748 -108.162 -70.0291 67.007 
-108.157 -70.5485 68.8963 -109.478 -69.2394 64.5227 -109.939 -69.3952 62.9659 
-109.182 -69.4715 66.2053 -109.03 -69.9697 68.127 -108.937 -70.5874 69.9289 
-110.632 -68.7213 63.913 -111.053 -68.9641 62.254 -110.307 -68.8724 65.5714 
-110.141 -69.479 67.3466 -109.936 -70.0932 69.2878 -109.844 -70.8058 71.0143 
-111.549 -68.158 63.2545 -111.86 -68.427 61.63 -111.274 -68.2295 65.0397 
-111.16 -68.8322 66.743 -111.016 -69.5893 68.567 -110.806 -70.2488 70.4713 
-110.753 -71.17 72.0814 -112.353 -67.5867 62.6877 -112.599 -67.9402 61.1978 
-112.146 -67.613 64.5418 -112.047 -68.0996 66.3435 -111.94 -68.8489 68.0069 
-111.703 -69.5973 69.8375 -111.485 -70.4573 71.6707 -111.391 -71.6014 73.1663 
-113.413 -67.2169 62.2752 -113.641 -67.7154 60.9326 -113.204 -67.1371 64.0645 
-113.062 -67.4829 65.9964 -112.909 -68.101 67.6676 -112.623 -68.8959 69.291 
-112.287 -69.8086 71.1431 -112.047 -70.8512 72.8812 -111.895 -72.037 74.2427 
-114.607 -67.1493 62.0004 -114.819 -67.7202 60.8168 -114.335 -66.9433 63.5992 
-114.097 -67.1161 65.5275 -113.897 -67.5616 67.3324 -113.607 -68.3416 68.8666 
-113.224 -69.3772 70.5303 -112.899 -70.3898 72.3584 -112.666 -71.3898 73.9221 
-112.475 -72.5353 75.1291 -115.706 -67.4628 61.4733 -115.353 -67.1122 62.8083 
-116.118 -67.5776 62.2654 -115.602 -67.5422 63.7657 -116.26 -68.1737 63.294 
-114.954 -67.1046 64.5996 -115.867 -68.299 64.9753 -116.734 -68.8732 64.624 
-115.235 -67.6548 65.6982 -114.682 -67.3347 66.6232 -116.596 -69.0169 66.4282 
-117.365 -69.4358 66.0563 -115.763 -68.5255 66.9953 -115.101 -68.0408 67.7339 
-114.459 -67.993 68.3985 -117.177 -69.8115 67.9277 -117.59 -70.4124 67.4694 
-116.538 -69.5223 68.4966 -115.715 -69.2583 69.0253 -114.906 -69.1208 69.5111 
-114.116 -69.1915 70.0214 -117.335 -71.127 69.4142 -117.639 -71.9988 68.9846 
-116.961 -70.6455 70.0463 -116.337 -70.5066 70.5423 -115.424 -70.4898 70.8431 
-114.566 -70.4615 71.2656 -113.768 -70.3757 71.8573 -117.552 -72.7036 70.9441 
-117.758 -73.4729 70.5633 -117.211 -72.0215 71.5657 -116.759 -71.6662 72.1175 
-115.981 -71.584 72.3792 -115.076 -71.5487 72.6434 -114.324 -71.4226 73.1309 
-113.53 -71.299 73.6386 -117.793 -74.0508 72.4928 -117.725 -74.5359 72.0594 
-117.568 -73.485 73.1042 -117.143 -73.0119 73.6619 -116.499 -72.741 73.9491 
-115.656 -72.5982 74.1438 -114.88 -72.4822 74.4417 -114.154 -72.3684 74.7776 
-113.303 -72.3522 75.0334 -117.799 -75.2841 73.9868 -117.532 -75.5978 73.4395 
-117.79 -74.8977 74.6439 -117.442 -74.4907 75.1802 -116.863 -74.1564 75.4347 
-116.147 -73.9127 75.6186 -115.401 -73.7675 75.8744 -114.681 -73.7043 76.0462 
-113.894 -73.659 76.124 -113.059 -73.6609 76.1955 -112.663 -75.0731 77.4062 
-113.381 -75.138 77.4423 -112.977 -76.577 78.8413 -114.216 -75.1797 77.5318 
-113.685 -76.6852 79.0363 -113.238 -78.1106 80.4789 -115.029 -75.1334 77.5849 
-114.524 -76.6199 79.2494 -113.978 -78.1949 80.7882 -113.457 -79.8879 82.1326 
-115.742 -75.1696 77.3314 -115.286 -76.5483 79.1715 -114.768 -78.2373 80.9346 
-114.199 -80.2418 82.4042 -113.67 -82.3115 83.5977 -116.395 -75.4048 76.9781 
-115.832 -76.75 78.6403 -115.315 -78.5096 80.6142 -114.827 -80.7397 82.5166 
-114.334 -82.9946 83.8838 -113.944 -85.2661 84.8943 -117.052 -75.7364 76.8413 
-116.367 -77.0974 78.2222 -115.657 -78.8746 79.9135 -115.176 -81.2528 82.2035 
-114.869 -83.6435 84.1902 -114.553 -85.9425 85.3881 -114.294 -88.5908 86.2975 
-117.598 -76.1183 76.5857 -117.037 -77.4506 78.1079 -116.173 -79.0273 79.4237 
-115.452 -81.3262 81.4704 -115.209 -84.0082 83.9915 -115.117 -86.5536 85.8088 
-114.856 -89.2993 86.9218 -114.619 -92.2676 87.868 -117.774 -76.5099 75.9503 
-117.525 -77.8763 77.7583 -116.831 -79.211 79.1404 -115.905 -81.0976 80.7976 
-115.423 -83.9195 83.2499 -115.445 -87.0599 85.5804 -115.365 -90.1291 87.1238 
-115.083 -93.1262 88.2637 -114.93 -95.7257 89.1728 -117.578 -76.8238 75.191 
-117.58 -78.2746 77.0359 -117.217 -79.577 78.6483 -116.382 -81.1032 80.2747 
-115.653 -83.7094 82.5064 -115.533 -87.2383 84.9529 -115.612 -90.79 86.7791 
-115.464 -93.9189 88.063 -115.314 -96.4593 89.1176 -115.368 -98.3115 89.7966 
-112.308 -76.0715 78.2745 -112.61 -77.6493 79.8112 -111.959 -77.1543 79.0601 
-112.798 -79.3982 81.4908 -112.233 -78.9052 80.5847 -111.538 -78.3784 79.7648 
-112.989 -81.6296 83.2062 -112.425 -81.0099 82.3137 -111.916 -80.4535 81.2703 
-111.236 -79.7888 80.5101 -113.339 -84.607 84.6784 -112.748 -83.782 84.126 
-112.278 -83.0313 83.0481 -111.793 -82.2515 82.0424 -111.137 -81.3409 81.1581 
-113.829 -88.2175 85.9623 -113.315 -87.3535 85.6079 -112.756 -86.2675 84.8524 
-112.244 -85.2042 83.8204 -111.686 -84.0238 82.7605 -111.002 -82.8297 81.5957 
-114.287 -92.1633 87.4563 -113.945 -91.4722 86.9213 -113.4 -90.1306 86.2988 
-112.707 -88.6279 85.5484 -112.075 -87.1012 84.5826 -111.472 -85.5173 83.3115 
-110.773 -84.0917 82.0283 -114.664 -95.7978 88.9684 -114.424 -95.4473 88.3516 
-114.033 -94.2778 87.5845 -113.333 -92.5325 86.9363 -112.533 -90.6586 86.2756 
-111.907 -88.6899 85.1737 -111.322 -86.7798 83.7512 -110.587 -85.179 82.5259 
-115.126 -98.509 89.8409 -114.83 -98.533 89.4223 -114.496 -97.9737 88.6971 
-113.98 -96.5852 88.017 -113.204 -94.6871 87.5171 -112.453 -92.5202 86.7818 
-111.898 -90.1473 85.5005 -111.274 -87.9328 84.0981 -110.47 -86.1632 82.9508 
-115.896 -100.405 89.8749 -115.514 -100.74 89.7522 -116.459 -102.623 89.2951 
-115.799 -103.254 89.0557 -116.68 -105.541 88.5353 -115.01 -100.95 89.3019 
-115.858 -106.299 88.3384 -116.527 -108.745 88.0033 -115.127 -103.61 88.7267 
-114.55 -100.435 88.7181 -115.747 -108.987 87.8354 -116.183 -111.121 87.3742 
-115.211 -106.144 88.0788 -114.622 -102.844 88.3625 -113.954 -98.9212 88.2483 
-115.352 -110.302 87.2363 -115.645 -111.908 86.3902 -115.066 -107.68 87.5291 
-114.599 -104.562 87.8002 -113.912 -100.988 88.0979 -113.133 -96.757 87.7987 
-114.687 -110.019 86.4898 -115.033 -110.986 85.4974 -114.475 -108.005 87.058 
-114.208 -105.33 87.3399 -113.686 -102.276 87.7438 -113.038 -98.4604 87.7242 
-112.431 -94.0611 86.8587 -114.133 -108.563 85.8542 -114.568 -108.924 85.0873 
-113.775 -107.349 86.5583 -113.546 -105.358 86.9856 -113.242 -102.761 87.4325 
-112.81 -99.3766 87.5369 -112.341 -95.1767 86.7602 -111.823 -91.0839 85.4438 
-113.755 -106.495 85.4651 -114.139 -106.369 85.0336 -113.312 -105.926 86.022 
-112.99 -104.589 86.5033 -112.757 -102.442 87.009 -112.468 -99.4193 87.2584 
-112.075 -95.5872 86.653 -111.574 -91.6657 85.3943 -111.001 -88.4902 84.0981 
-113.292 -103.963 85.2211 -113.564 -103.502 84.9868 -112.932 -103.823 85.5656 
-112.607 -102.942 85.9543 -112.356 -101.217 86.409 -112.081 -98.6303 86.7236 
-111.682 -95.3045 86.3644 -111.162 -91.7827 85.2872 -110.604 -88.7957 84.0265 
-110.102 -86.5412 82.8945 -115.825 -99.3093 89.5769 -116.549 -101.425 89.4492 
-116.222 -99.6919 89.0311 -116.949 -102.098 88.8453 -116.514 -99.17 88.3277 
-117.177 -104.1 88.836 -116.982 -101.99 88.1143 -116.682 -98.2647 87.5619 
-117.429 -105.323 88.3055 -117.277 -107.399 88.1722 -116.76 -101.225 87.3846 
-116.572 -97.7357 86.9278 -117.237 -105.301 87.5264 -117.458 -108.431 87.5035 
-116.998 -110.346 87.4507 -116.341 -100.248 86.9792 -116.153 -97.0665 86.3732 
-116.819 -103.948 86.8682 -117.321 -107.619 86.5333 -117.263 -110.516 86.3915 
-116.566 -112.113 86.342 -115.856 -98.6671 86.535 -115.701 -95.1676 85.3598 
-116.236 -102.011 86.7096 -116.839 -105.386 86.0985 -117.161 -108.822 85.5987 
-116.788 -111.473 85.3349 -115.937 -112.183 85.2364 -115.514 -95.9001 85.3091 
-115.378 -92.2466 83.68 -115.691 -99.4365 86.2708 -116.071 -102.602 86.1615 
-116.5 -105.842 85.6699 -116.505 -109 85.3021 -115.997 -110.76 84.8987 
-115.285 -110.462 84.7594 -115.28 -92.5069 83.3818 -115.106 -89.4227 81.7251 
-115.366 -95.9525 84.8581 -115.452 -99.1847 85.5956 -115.66 -102.163 85.6935 
-115.785 -105.134 85.6666 -115.606 -107.501 85.423 -115.222 -108.324 84.9763 
-114.734 -107.68 84.8232 -115.004 -89.5648 81.3478 -114.823 -87.352 79.8881 
-115.113 -92.3154 82.8602 -115.116 -95.2645 84.0808 -115.123 -98.0633 84.8136 
[...]
CELL_DATA 2000
SCALARS Distance double
LOOKUP_TABLE default
143.663 144.322 144.15 144.592 145.271 144.981 145.424 145.208 145.721 
146.31 146.016 146.482 146.18 146.699 146.457 147.072 147.398 147.096 
147.647 147.326 147.886 147.561 148.203 147.957 148.702 148.657 148.286 
148.9 148.563 149.205 148.849 149.538 149.219 150.01 149.74 150.565 
149.991 149.618 150.21 149.864 150.514 150.192 150.926 150.628 151.47 
151.172 152.049 151.712 152.563 151.2 150.907 151.482 151.159 151.771 
151.473 152.21 151.984 152.876 152.659 153.598 153.286 154.182 153.795 
154.69 152.284 152.056 152.686 152.406 153.053 152.742 153.493 153.259 
154.186 154.028 155.028 154.815 155.76 155.439 156.346 155.983 156.916 
153.332 153.136 153.836 153.614 154.339 154.059 154.839 154.584 155.511 
155.347 156.374 156.213 157.197 156.958 157.876 157.585 158.494 158.187 
159.096 143.262 142.976 143.314 143.887 142.938 143.131 143.673 144.09 
144.816 143.1 143.175 143.647 143.951 144.638 145.085 145.834 143.414 
143.399 143.827 144 144.654 144.987 145.724 146.124 146.902 143.771 
143.746 144.141 144.237 144.868 145.112 145.874 146.153 146.941 147.291 
148.159 143.966 144.028 144.375 144.514 145.088 145.346 146.093 146.377 
147.15 147.435 148.25 148.624 149.496 144.089 144.146 144.514 144.681 
145.256 145.524 146.237 146.548 147.28 147.598 148.338 148.704 149.491 
149.909 150.698 144.498 144.393 144.836 144.899 145.55 145.74 146.478 
146.707 147.426 147.688 148.411 148.744 149.507 149.889 150.651 151.043 
151.773 145.25 145.011 145.451 145.381 146.014 146.121 146.849 147.016 
147.721 147.901 148.618 148.867 149.648 149.957 150.741 151.053 151.787 
152.115 152.822 145.825 146.648 146.151 146.015 147.423 146.956 146.914 
146.471 146.54 148.473 147.853 147.856 147.384 147.533 147.132 147.335 
149.858 149.141 149.183 148.518 148.69 148.176 148.433 147.992 148.21 
151.22 150.598 150.759 150.062 150.261 149.554 149.806 149.198 149.472 
148.925 149.153 152.581 151.968 152.229 151.642 151.929 151.245 151.469 
150.736 150.975 150.319 150.59 149.971 150.218 154.092 153.446 153.732 
153.128 153.479 152.867 153.125 152.41 152.581 151.879 152.106 151.474 
151.722 151.085 151.298 155.486 154.984 155.327 154.722 155.087 154.449 
154.754 154.041 154.229 153.483 153.675 153.001 153.24 152.593 152.792 
152.134 152.31 156.634 156.308 156.782 156.303 156.705 156.095 156.392 
155.69 155.894 155.146 155.342 154.617 154.856 154.153 154.367 153.653 
153.819 153.133 153.318 154.14 154.673 154.81 155.695 155.274 155.414 
156.327 156.47 157.423 155.818 156.023 156.974 157.139 158.109 158.25 
159.239 156.28 156.518 157.47 157.722 158.713 158.936 159.978 160.141 
161.225 156.77 156.96 157.824 158.095 159.069 159.434 160.566 160.887 
162.07 162.245 163.455 157.302 157.477 158.271 158.428 159.287 159.656 
160.825 161.37 162.718 163.096 164.398 164.581 165.945 157.677 157.977 
158.817 158.937 159.673 159.866 160.872 161.463 162.893 163.603 165.096 
165.512 166.949 167.199 168.748 157.707 158.2 159.106 159.422 160.146 
160.277 161.04 161.443 162.714 163.574 165.235 166.048 167.673 168.158 
169.727 170.067 171.623 157.449 158.048 158.954 159.519 160.312 160.622 
161.283 161.571 162.593 163.334 164.982 166.025 167.855 168.69 170.33 
170.881 172.351 172.751 174.026 154.157 155.726 154.857 154.733 157.453 
156.531 156.419 155.49 155.318 159.277 158.318 158.229 157.253 157.112 
156.106 155.908 161.31 160.263 160.24 159.165 159.097 158.02 157.921 
156.814 156.672 163.635 162.51 162.636 161.413 161.458 160.217 160.234 
159.014 158.964 157.729 157.594 166.273 165.088 165.428 164.101 164.284 
162.864 162.942 161.552 161.537 160.169 160.01 158.671 158.434 169.22 
167.998 168.538 167.151 167.45 165.91 165.987 164.438 164.383 162.872 
162.665 161.171 160.849 159.452 159.133 172.135 171.053 171.67 170.376 
170.725 169.186 169.243 167.585 167.482 165.83 165.597 163.943 163.575 
161.975 161.582 160.136 159.788 174.487 173.727 174.267 173.293 173.613 
172.339 172.395 170.839 170.719 169.021 168.798 167.026 166.66 164.863 
164.403 162.722 162.284 160.797 160.411 175.687 177.141 176.167 175.507 
178.495 177.524 176.893 175.85 174.93 179.98 178.92 178.243 177.187 
176.321 175.109 173.847 181.223 180.348 179.564 178.519 177.584 176.444 
175.213 173.831 172.259 181.503 181.164 180.261 179.537 178.411 177.504 
176.226 175.077 173.504 172.069 170.305 180.618 180.822 179.892 179.669 
178.45 177.916 176.595 175.812 174.29 173.13 171.297 169.908 168.035 
179.065 179.534 178.701 178.855 177.76 177.577 176.341 175.892 174.47 
173.65 171.847 170.654 168.637 167.407 165.573 177.311 177.881 177.161 
177.512 176.581 176.674 175.562 175.41 174.069 173.578 171.827 170.917 
168.849 167.76 165.795 164.837 163.231 175.358 176.069 175.391 175.914 
175.044 175.361 174.294 174.401 173.086 172.905 171.204 170.617 168.574 
167.714 165.703 164.87 163.197 162.516 161.184 175.945 176.523 176.728 
177.445 176.552 177.172 178.184 178.253 178.92 176.005 177 178.368 
178.934 179.921 179.839 180.473 175.204 176.291 177.746 178.831 180.088 
180.612 181.374 181.318 181.7 174.324 175.406 176.629 177.884 179.11 
180.23 181.088 181.709 182.075 182.123 181.986 172.918 174.276 175.282 
176.555 177.511 178.811 179.642 180.8 181.271 181.926 181.802 181.814 
181.127 170.622 172.384 173.328 174.869 175.605 176.973 177.608 178.976 
179.495 180.632 180.665 181.18 180.565 180.5 179.522 167.859 169.715 
170.586 172.436 173.085 174.712 175.132 176.658 177.01 178.476 178.573 
179.623 179.161 179.587 178.683 178.682 177.656 165.315 166.91 167.618 
169.436 170.02 171.817 172.151 173.838 174.006 175.649 175.664 177.12 
176.771 177.763 176.99 177.485 176.484 176.654 175.6 157.522 158.221 
158.257 159.09 159.054 159.052 159.863 159.866 160.523 159.678 159.794 
160.518 160.588 161.24 161.171 161.622 160.101 160.281 161.107 161.227 
162.112 162.053 162.856 162.492 163.178 160.868 160.915 162.126 162.137 
163.58 163.432 164.882 164.362 165.587 164.763 165.829 162.016 162.07 
163.667 163.677 165.587 165.48 167.403 166.953 168.526 167.679 168.885 
167.858 168.841 163.027 163.317 165.075 165.374 167.385 167.59 169.482 
169.403 170.839 170.414 171.446 170.766 171.596 170.698 171.351 163.771 
164.227 166.029 166.589 168.574 169.071 170.806 171.01 172.197 172.105 
172.932 172.7 173.451 173.028 173.686 172.906 173.353 164.43 164.931 
166.762 167.406 169.408 170.016 171.765 172.055 173.259 173.195 174.06 
173.888 174.749 174.543 175.354 174.919 175.468 174.683 174.954 156.731 
155.79 156.559 157.314 154.882 155.601 156.29 157.234 158.142 153.94 
154.659 155.255 156.168 157.034 158.064 158.859 152.938 153.687 154.216 
155.066 155.787 156.842 157.639 158.625 159.263 151.911 152.669 153.198 
153.996 154.598 155.539 156.267 157.312 158.053 159.019 159.809 151.013 
151.673 152.197 152.964 153.552 154.387 155.058 155.998 156.779 157.79 
158.661 159.714 160.72 150.37 150.873 151.315 151.979 152.527 153.332 
153.976 154.866 155.604 156.577 157.429 158.502 159.445 160.61 161.618 
149.883 150.297 150.638 151.153 151.565 152.274 152.829 153.725 154.406 
155.395 156.173 157.235 158.108 159.245 160.163 161.371 162.325 149.449 
149.817 150.11 150.517 150.816 151.35 151.777 152.548 153.172 154.135 
154.894 155.943 156.785 157.887 158.779 159.918 160.823 162.023 162.969 
149.336 149.342 149.546 149.952 149.268 149.519 149.932 150.161 150.619 
149.182 149.44 149.944 150.184 150.713 150.918 151.543 149.278 149.44 
150.059 150.304 151.002 151.17 151.906 152.074 152.933 149.59 149.669 
150.331 150.559 151.425 151.623 152.518 152.633 153.569 153.701 154.7 
149.929 150.045 150.761 150.969 151.924 152.153 153.169 153.336 154.36 
154.478 155.527 155.616 156.652 150.264 150.433 151.301 151.512 152.555 
152.759 153.835 154.016 155.111 155.286 156.415 156.537 157.638 157.664 
158.689 150.757 150.91 151.922 152.144 153.281 153.481 154.608 154.759 
155.891 156.061 157.259 157.436 158.629 158.709 159.801 159.756 160.752 
151.425 151.551 152.602 152.82 153.977 154.217 155.376 155.568 156.733 
156.906 158.137 158.32 159.576 159.708 160.891 160.904 161.985 161.878 
162.896 152.155 153.744 153.079 153.401 155.504 154.79 155.169 154.444 
154.803 157.599 156.75 157.224 156.357 156.757 155.928 156.261 160.175 
159.163 159.784 158.695 159.174 158.103 158.491 157.477 157.757 163.061 
162.006 162.771 161.562 162.146 160.848 161.294 160.008 160.328 159.091 
159.298 166.047 165.03 165.93 164.725 165.426 164.055 164.556 163.093 
163.407 161.93 162.089 160.694 160.789 169.085 168.129 169.198 168.015 
168.846 167.46 168.034 166.5 166.821 165.192 165.294 163.669 163.655 
162.17 162.14 171.945 171.184 172.382 171.351 172.297 170.973 171.612 
170.057 170.406 168.704 168.816 167.035 166.978 165.223 165.078 163.48 
163.312 174.236 173.805 174.997 174.335 175.328 174.32 174.992 173.606 
173.93 172.284 172.373 170.607 170.551 168.703 168.504 166.634 166.33 
164.607 164.297 151.733 151.543 152.174 153.261 151.261 151.966 153.097 
153.761 154.957 150.93 151.679 152.862 153.574 154.795 155.515 156.91 
150.578 151.344 152.522 153.29 154.506 155.299 156.738 157.63 159.331 
150.145 150.928 152.019 152.848 154.041 154.932 156.423 157.435 159.25 
160.254 162.153 149.645 150.409 151.437 152.265 153.471 154.42 156.013 
157.124 159.064 160.176 162.179 163.151 165.077 149.221 149.906 150.953 
151.721 152.991 153.914 155.599 156.749 158.783 159.986 162.042 163.123 
165.086 166.068 167.994 148.948 149.547 150.602 151.324 152.618 153.518 
155.183 156.341 158.34 159.63 161.673 162.882 164.828 165.952 167.881 
168.941 170.793 148.775 149.316 150.33 151.017 152.261 153.141 154.687 
155.83 157.68 159.032 161.007 162.358 164.289 165.551 167.45 168.658 
170.487 171.564 173.148 150.803 149.625 150.302 150.601 148.937 149.297 
149.416 150.042 150.279 148.557 148.793 148.801 149.062 149.058 149.65 
149.882 147.906 148.325 148.372 148.611 148.468 148.654 148.599 149.237 
149.519 146.846 147.39 147.399 147.963 147.863 148.128 147.855 148.14 
148.121 148.863 149.139 145.787 146.216 146.044 146.684 146.581 147.197 
146.931 147.322 147.031 147.544 147.568 148.422 148.664 144.844 145.192 
144.931 145.354 145.158 145.745 145.549 146.119 145.814 146.333 146.148 
146.869 147 147.942 148.237 143.893 144.25 144.024 144.356 144.141 
144.519 144.343 144.786 144.569 145.027 144.828 145.43 145.489 146.339 
146.663 147.621 148.006 143.073 143.34 143.141 143.467 143.306 143.647 
143.521 143.839 143.677 143.964 143.788 144.194 144.225 144.919 145.254 
146.148 146.6 147.5 147.901 142.687 142.224 142.471 142.657 142.007 
142.076 142.175 142.509 142.832 141.951 141.958 142.015 142.164 142.444 
142.778 143.126 141.768 141.883 141.965 142.089 142.287 142.493 142.75 
143.049 143.282 141.518 141.641 141.749 141.957 142.103 142.308 142.427 
142.662 142.794 143.114 143.334 141.612 141.535 141.634 141.725 141.857 
142.028 142.113 142.307 142.436 142.688 142.989 143.314 143.8 142.077 
141.871 141.988 141.828 141.945 141.883 142.013 142.072 142.328 142.498 
142.983 143.221 143.9 144.153 144.912 142.606 142.441 142.632 142.385 
142.505 142.225 142.367 142.215 142.571 142.624 143.248 143.436 144.23 
144.454 145.285 145.49 146.283 143.122 142.993 143.262 143.066 143.24 
142.927 143.076 142.796 143.16 143.086 143.736 143.845 144.638 144.835 
145.642 145.868 146.635 146.845 147.563 143.564 144.423 143.882 143.71 
145.486 144.803 144.535 143.983 143.709 146.824 145.974 145.651 144.896 
144.565 143.931 143.612 148.471 147.477 147.185 146.209 145.894 145.006 
144.745 143.985 143.813 150.324 149.268 149.05 147.96 147.716 146.627 
146.427 145.433 145.329 144.469 144.466 152.302 151.21 151.061 149.956 
149.803 148.652 148.491 147.356 147.232 146.199 146.151 145.278 145.342 
154.463 153.307 153.228 152.074 151.997 150.83 150.722 149.533 149.401 
148.236 148.114 147.062 147.033 146.185 146.29 156.764 155.604 155.604 
154.384 154.342 153.11 153.027 151.806 151.707 150.491 150.381 149.171 
149.075 147.989 148.001 147.149 147.269 159.008 157.948 158.014 156.83 
156.801 155.534 155.426 154.151 154.042 152.819 152.748 151.526 151.433 
150.193 150.103 148.997 149.003 148.127 148.211 148.976 149.902 149.791 
150.603 151.143 150.935 151.876 151.654 152.625 152.559 152.359 153.417 
153.141 154.239 153.945 155.128 153.909 153.814 155.014 154.818 156.075 
155.773 157.126 156.775 158.184 155.245 155.184 156.555 156.481 158.006 
157.797 159.396 159.026 160.621 160.129 161.601 156.701 156.629 158.139 
158.126 159.913 159.867 161.779 161.516 163.333 162.807 164.402 163.688 
165.025 158.137 158.144 159.726 159.792 161.699 161.832 163.949 163.941 
165.95 165.603 167.306 166.63 168.03 167.137 168.302 159.352 159.503 
161.098 161.313 163.233 163.552 165.731 165.995 168.09 168.053 169.8 
169.4 170.806 170.111 171.271 170.353 171.332 160.297 160.575 162.142 
162.515 164.401 164.905 167.064 167.572 169.667 169.921 171.639 171.556 
172.895 172.546 173.629 173.049 173.942 173.143 173.881 145.041 144.282 
144.586 144.494 143.89 143.979 143.876 144.087 143.957 143.729 143.711 
143.514 143.59 143.421 143.577 143.394 143.462 143.482 143.133 143.183 
142.883 143.046 142.85 143.041 142.897 143.113 143.137 142.759 142.735 
142.352 142.451 142.266 142.501 142.46 142.664 142.68 142.839 142.837 
142.575 142.473 142.157 142.06 141.922 142.029 142.127 142.323 142.468 
142.621 142.764 142.648 142.624 142.43 142.382 142.146 142.022 141.876 
141.872 141.976 142.124 142.321 142.47 142.601 142.743 142.845 142.644 
142.51 142.31 142.254 142.032 141.971 141.77 141.799 141.797 141.978 
142.104 142.299 142.357 142.512 142.514 142.706 142.743 142.929 142.649 
142.456 142.251 142.037 141.873 141.654 141.612 141.553 141.709 141.801 
142.014 142.049 142.197 142.148 142.31 142.318 142.559 142.681 145.523 
144.935 145.508 146.046 144.276 144.847 145.37 145.995 146.497 143.623 
144.126 144.584 145.256 145.844 146.46 146.989 143.102 143.476 143.869 
144.475 145.112 145.809 146.469 147.033 147.573 142.875 143.064 143.409 
143.841 144.446 145.111 145.831 146.493 147.073 147.589 147.986 142.958 
143.009 143.336 143.547 144.082 144.549 145.243 145.86 146.472 147.024 
147.406 147.852 148.086 143.058 143.149 143.473 143.606 144.108 144.372 
145.052 145.455 146.151 146.551 147.04 147.343 147.621 147.918 148.142 
142.998 143.174 143.496 143.703 144.192 144.462 145.151 145.476 146.263 
146.536 147.184 147.289 147.669 147.699 147.955 148.101 148.394 142.991 
143.124 143.482 143.678 144.171 144.477 145.154 145.557 146.347 146.729 
147.43 147.614 148.041 147.993 148.209 148.143 148.37 148.475 148.794 
145.992 146.513 146.445 146.775 146.963 146.928 147.263 147.178 147.516 
147.452 147.389 147.797 147.706 148.128 148.025 148.551 148.03 147.954 
148.429 148.334 148.86 148.746 149.318 149.227 149.867 148.433 148.494 
148.964 148.975 149.493 149.472 150.01 149.97 150.528 150.516 151.13 
148.503 148.717 149.137 149.323 149.748 149.906 150.356 150.479 150.992 
151.08 151.696 151.756 152.46 148.506 148.699 149.098 149.323 149.704 
149.943 150.372 150.626 151.18 151.422 152.125 152.31 153.086 153.175 
153.943 148.714 148.786 149.2 149.319 149.729 149.89 150.374 150.617 
151.255 151.563 152.327 152.646 153.433 153.688 154.398 154.563 155.215 
149.094 149.097 149.517 149.548 149.988 150.049 150.572 150.736 151.415 
151.691 152.455 152.783 153.519 153.849 154.495 154.787 155.364 155.626 
156.224 150.617 150.009 149.995 149.503 149.668 149.565 149.19 149.142 
148.903 149.535 149.442 149.225 149.075 148.878 148.753 148.551 149.273 
149.333 149.235 149.22 149.057 148.864 148.537 148.348 147.936 148.891 
148.965 148.81 149.021 148.868 148.919 148.544 148.353 147.81 147.579 
147.006 148.776 148.649 148.397 148.485 148.298 148.472 148.156 148.177 
147.648 147.47 146.847 146.613 146.024 148.924 148.691 148.469 148.303 
148.153 148.061 147.843 147.765 147.35 147.212 146.603 146.416 145.759 
145.602 145.016 149.008 148.84 148.646 148.508 148.421 148.233 148.078 
147.78 147.412 147.058 146.47 146.152 145.466 145.261 144.633 144.545 
144.016 148.952 148.828 148.564 148.55 148.423 148.432 148.268 148.102 
147.693 147.299 146.656 146.178 145.467 145.072 144.453 144.218 143.74 
143.624 143.233 
POINT_DATA 1002
SCALARS Distance double
LOOKUP_TABLE default
144.038 143.242 143.712 144.704 144.554 145.04 145.689 145.575 145.884 
146.246 146.789 146.568 146.972 147.245 147.728 147.934 147.695 148.221 
148.469 148.9 149.48 149.232 149.048 149.538 149.86 150.291 150.843 
151.375 150.577 150.352 150.825 151.184 151.738 152.386 152.921 153.395 
151.796 151.457 152.078 152.416 153.036 153.857 154.554 155.072 155.606 
152.92 152.479 153.347 153.738 154.331 155.195 156.036 156.692 157.275 
157.87 154.012 153.51 154.578 155.095 155.687 156.519 157.41 158.148 
158.79 159.42 160.001 142.837 143.399 142.7 143.302 142.818 144.323 
143.41 143.077 144.235 145.362 143.716 143.454 144.362 145.372 146.445 
144.076 143.791 144.639 145.608 146.648 147.736 144.224 143.89 144.834 
145.796 146.881 147.927 149.091 144.331 144.05 144.993 145.948 146.972 
147.992 149.1 150.288 144.805 144.645 145.38 146.284 147.207 148.104 
149.144 150.282 151.387 145.588 145.52 145.966 146.705 147.563 148.398 
149.358 150.449 151.495 152.481 146.371 146.497 147.078 147.297 147.897 
146.955 148.372 149.156 147.905 147.744 149.9 150.524 149.284 148.886 
148.674 151.376 151.767 151.008 150.497 150.04 149.708 152.769 153.213 
152.549 152.238 151.677 151.214 150.854 154.362 154.706 154.072 153.822 
153.32 152.75 152.361 151.955 155.888 155.867 155.737 155.459 154.987 
154.384 153.896 153.467 152.956 157.172 156.868 157.291 157.094 156.628 
156.072 155.576 155.1 154.539 153.965 154.951 155.519 156.619 156.189 
157.277 158.377 156.785 157.955 159.101 160.247 157.199 158.432 159.758 
161.082 162.354 157.617 158.662 160.121 161.829 163.307 164.712 158.191 
159.013 160.195 162.172 164.164 165.732 167.401 158.652 159.615 160.399 
162.036 164.485 166.65 168.475 170.382 158.665 160.007 160.824 161.908 
164.214 167.021 169.361 171.358 173.138 158.312 159.893 161.043 161.993 
163.895 166.855 169.704 171.939 173.768 175.177 155.611 157.368 156.284 
159.213 158.111 156.944 161.337 160.176 159.009 157.813 163.847 162.734 
161.473 160.227 158.858 166.717 165.732 164.396 162.965 161.429 159.749 
169.893 169.018 167.614 165.962 164.232 162.34 160.464 172.898 172.231 
170.939 169.19 167.304 165.264 163.127 161.159 175.152 174.758 173.858 
172.399 170.581 168.519 166.207 163.884 161.815 176.737 176.616 178.075 
177.89 179.532 176.181 179.351 181.068 177.499 175.295 180.633 181.977 
178.717 176.547 173.81 180.887 181.649 179.268 177.256 174.886 171.828 
179.936 180.274 178.858 177.231 175.306 172.688 169.39 178.397 178.528 
177.776 176.65 175.148 172.967 169.899 166.635 176.724 176.688 176.369 
175.603 174.44 172.63 169.899 166.761 163.998 174.802 174.592 174.654 
174.116 173.17 171.659 169.337 166.496 163.859 161.737 175.923 177.527 
176.123 177.87 175.669 179.164 177.468 174.891 179.777 180.832 176.526 
174.208 179.26 181.238 182.064 175.494 173.281 177.88 180.202 181.833 
182.336 174.06 171.424 176.301 178.362 180.373 181.614 181.46 171.679 
168.776 174.256 176.267 178.205 179.917 180.469 179.767 168.705 166.107 
171.387 173.624 175.516 177.321 178.495 178.531 177.757 165.929 163.915 
168.231 170.455 172.387 174.126 175.559 176.276 176.178 175.527 157.39 
159.073 158.206 159.884 159.076 160.638 160.428 159.535 161.251 161.84 
160.89 159.887 162.016 163.084 163.661 161.98 160.747 163.527 165.22 
166.365 166.756 163.496 161.819 165.543 167.713 169.294 169.936 169.982 
164.646 162.628 167.098 169.53 171.212 172.02 172.392 172.426 165.418 
163.277 168.038 170.6 172.295 173.088 173.693 174.275 174.364 155.94 
156.352 155.083 155.375 154.196 157.149 154.412 153.218 155.986 157.971 
153.438 152.164 154.807 156.575 158.375 152.411 151.162 153.752 155.242 
156.991 158.8 151.451 150.433 152.735 154.175 155.766 157.585 159.604 
150.742 149.943 151.756 153.093 154.666 156.387 158.322 160.414 150.212 
149.5 150.966 151.978 153.422 155.137 157.001 159.005 161.077 149.745 
149.107 150.378 151.11 152.249 153.853 155.697 157.661 159.677 161.722 