# vtk DataFile Version 4.0
vtk output
ASCII
DATASET POLYDATA
POINTS 1002 float
-105.221 -81.4404 75.1904 -105.335 -80.9852 73.8486 -105.688 -80.7071 74.7924 
-105.671 -81.3516 76.1828 -105.964 -80.4277 75.9843 -105.235 -82.1514 76.518 
-106.038 -81.3063 77.4206 -106.34 -80.3773 77.2223 -105.711 -82.2861 77.6062 
-105.469 -83.1951 77.8552 -106.517 -81.4656 78.6259 -106.957 -80.6646 78.2439 
-106.141 -82.4296 78.937 -105.872 -83.4661 79.2051 -105.776 -84.4923 79.4693 
-107.253 -81.8811 79.5869 -107.726 -81.1196 79.147 -106.808 -82.7069 80.0987 
-106.442 -83.7271 80.523 -106.232 -84.8823 80.8614 -106.096 -86.0025 81.189 
-108.127 -82.3569 80.547 -108.525 -81.5566 80.1706 -107.719 -83.1998 81.0162 
-107.322 -84.1549 81.4618 -107.048 -85.316 81.8213 -106.824 -86.5031 82.189 
-106.608 -87.5829 82.5772 -108.958 -82.7855 81.6233 -109.322 -82.0064 81.203 
-108.587 -83.7454 82.0251 -108.188 -84.7919 82.3683 -107.912 -85.9352 82.6538 
-107.733 -87.1044 83.0025 -107.506 -88.1594 83.4017 -107.349 -89.1791 83.7292 
-109.667 -83.2937 82.5679 -110.062 -82.5011 82.1024 -109.277 -84.2964 83.0436 
-108.862 -85.4262 83.4703 -108.55 -86.626 83.7994 -108.424 -87.8494 84.1385 
-108.288 -88.9613 84.5128 -108.133 -89.9789 84.7795 -108.126 -91.048 84.9166 
-110.268 -83.9073 83.3529 -110.701 -82.9996 82.9417 -109.868 -84.9562 83.8349 
-109.501 -86.0628 84.3988 -109.192 -87.2486 84.9129 -109.038 -88.5599 85.3313 
-108.929 -89.8515 85.6992 -108.768 -91.0037 85.9615 -108.715 -92.1062 86.0798 
-108.818 -93.2053 86.1516 -110.807 -84.5368 84.1071 -111.228 -83.5394 83.7219 
-110.445 -85.6511 84.5198 -110.186 -86.7639 85.0514 -109.972 -87.9185 85.6232 
-109.798 -89.2489 86.1081 -109.642 -90.6601 86.4983 -109.439 -91.9516 86.8125 
-109.298 -93.1448 87.0369 -109.337 -94.3064 87.2033 -109.47 -95.3586 87.3649 
-105.622 -80.3207 73.1341 -105.873 -79.9012 74.191 -105.864 -79.4846 72.514 
-106.207 -79.1732 73.5531 -106.424 -78.8123 71.8284 -106.167 -79.6047 75.4697 
-107.046 -78.7639 72.8265 -107.345 -78.4506 71.0135 -106.754 -79.0655 74.7993 
-106.747 -79.635 76.7102 -108.049 -78.363 72.1643 -108.106 -78.0166 70.3398 
-107.778 -78.7293 74.0704 -107.548 -79.1196 76.0499 -107.533 -79.9351 77.761 
-108.658 -77.5636 71.7621 -108.636 -77.3562 70.0466 -108.62 -78.122 73.4739 
-108.468 -78.6646 75.3288 -108.314 -79.2871 77.2056 -108.303 -80.3571 78.7892 
-109.209 -76.7523 71.5467 -109.401 -76.8413 69.9588 -109.146 -77.2668 73.0604 
-109.161 -78.0885 74.6688 -109.104 -78.754 76.5197 -109.013 -79.682 78.3054 
-109.075 -80.8896 79.8484 -110.057 -76.3624 71.3247 -110.333 -76.5581 69.8015 
-109.857 -76.6614 72.781 -109.877 -77.4798 74.2446 -109.932 -78.2459 75.8999 
-109.836 -79.1175 77.6518 -109.762 -80.3291 79.3174 -109.886 -81.4721 80.8319 
-110.91 -76.15 71.0661 -111.084 -76.2715 69.5659 -110.729 -76.32 72.5907 
-110.711 -76.9248 74.094 -110.808 -77.6517 75.6014 -110.746 -78.5282 77.1204 
-110.552 -79.7679 78.6875 -110.528 -80.9789 80.3108 -110.655 -81.9512 81.7906 
-111.61 -75.8702 70.8468 -111.679 -75.9661 69.3805 -111.521 -75.979 72.4388 
-111.461 -76.4025 74.0238 -111.492 -77.0375 75.4793 -111.498 -77.9334 76.8004 
-111.339 -79.2055 78.1609 -111.202 -80.4832 79.7282 -111.247 -81.4485 81.3533 
-111.301 -82.3777 82.7176 -112.322 -75.6733 70.1961 -112.329 -75.6209 71.8588 
-113.152 -75.5937 71.1894 -113.198 -75.6819 72.9557 -113.915 -75.9477 72.1833 
-112.257 -75.8922 73.5925 -113.931 -76.3211 73.7949 -114.389 -76.7696 72.983 
-112.999 -76.2107 74.5519 -112.105 -76.4865 75.1346 -114.41 -77.3703 74.4048 
-114.75 -77.7985 73.6926 -113.676 -77.1417 75.1508 -112.722 -77.1615 75.8649 
-112.042 -77.4459 76.4407 -114.734 -78.5026 75.258 -115.116 -78.9162 74.6591 
-114.288 -78.2592 75.9286 -113.559 -78.2743 76.6125 -112.733 -78.511 77.2542 
-112.029 -78.8241 77.7735 -114.913 -79.8505 76.5411 -115.333 -80.2242 75.9617 
-114.633 -79.5215 77.2157 -114.347 -79.3518 77.924 -113.711 -79.5648 78.5112 
-112.811 -79.9323 78.9721 -111.941 -80.2086 79.3759 -115.067 -81.3515 77.9165 
-115.419 -81.6047 77.2713 -114.761 -81.1575 78.624 -114.607 -80.8277 79.4008 
-114.292 -80.6509 80.0493 -113.569 -80.8356 80.4459 -112.671 -81.0668 80.7855 
-111.891 -81.2269 81.1251 -115.317 -82.6668 79.1212 -115.487 -82.9046 78.3939 
-115.032 -82.6656 79.8491 -114.725 -82.5748 80.5827 -114.362 -82.2893 81.2601 
-113.813 -82.1409 81.6923 -113.13 -82.1621 81.9993 -112.476 -82.1461 82.3764 
-111.882 -82.1834 82.6647 -115.531 -83.9027 80.2482 -115.53 -84.2005 79.4583 
-115.388 -83.8622 80.9997 -115.059 -83.9402 81.6343 -114.571 -83.8872 82.2159 
-113.988 -83.7748 82.6712 -113.39 -83.744 82.9566 -112.843 -83.6425 83.2826 
-112.328 -83.455 83.657 -111.787 -83.4025 83.8234 -111.456 -84.8677 84.7028 
-112.044 -84.9069 84.789 -111.79 -86.4064 85.7407 -112.652 -85.1394 84.6005 
-112.436 -86.5648 85.8449 -112.232 -88.0377 86.8419 -113.265 -85.3451 84.328 
-113.186 -86.8084 85.8149 -112.902 -88.2704 87.0209 -112.592 -90.1519 87.8784 
-113.873 -85.3215 84.1018 -113.917 -86.9208 85.7628 -113.668 -88.5624 87.1731 
-113.236 -90.5577 88.0691 -112.98 -92.9672 88.8412 -114.448 -85.2542 83.7406 
-114.431 -86.9214 85.4805 -114.257 -88.8707 87.1173 -113.882 -91.0099 88.1942 
-113.686 -93.3915 88.9955 -113.685 -95.8438 89.9289 -114.977 -85.2774 83.2521 
-114.77 -87.0084 84.9326 -114.536 -89.184 86.5936 -114.314 -91.4876 87.9669 
-114.275 -93.7356 89.0283 -114.402 -96.0556 90.069 -114.421 -98.4224 90.9806 
-115.394 -85.2819 82.7585 -115.129 -87.148 84.4731 -114.79 -89.3827 85.995 
-114.633 -91.7379 87.4149 -114.686 -94.0595 88.7694 -114.847 -96.3519 90.0157 
-114.937 -98.7218 91.0018 -114.872 -101.169 91.4834 -115.59 -85.3172 82.0949 
-115.451 -87.2428 84.0124 -115.174 -89.4361 85.6173 -115.025 -91.6546 86.9775 
-115.049 -94.115 88.3751 -115.108 -96.8195 89.7218 -115.171 -99.4008 90.7681 
-115.243 -101.846 91.3149 -115.288 -104.261 91.3725 -115.585 -85.5007 81.2071 
-115.58 -87.3031 83.2216 -115.477 -89.4044 85.0718 -115.375 -91.5119 86.5888 
-115.342 -93.9655 88.0202 -115.319 -97.0693 89.3492 -115.322 -100.165 90.3418 
-115.458 -102.738 90.9418 -115.692 -105.047 91.1462 -115.866 -107.258 91.0692 
-111.11 -86.0233 85.1613 -111.59 -87.6413 86.3211 -110.912 -87.2579 85.6355 
-112.04 -89.6083 87.4852 -111.493 -89.1276 86.8249 -110.793 -88.5645 86.1442 
-112.351 -92.3321 88.587 -111.859 -91.6127 88.0306 -111.343 -90.8928 87.2514 
-110.628 -90.059 86.6161 -112.916 -95.4655 89.7451 -112.244 -94.6496 89.2946 
-111.71 -93.7408 88.5213 -111.136 -92.7572 87.6837 -110.418 -91.6515 87.0471 
-113.749 -98.3809 90.8711 -113.049 -97.7418 90.4819 -112.422 -96.7393 89.8251 
-111.735 -95.6596 89.036 -110.969 -94.3785 88.1994 -110.183 -93.0755 87.463 
-114.383 -101.253 91.4958 -113.861 -100.865 91.2349 -113.414 -99.9256 90.683 
-112.781 -98.7729 90.1203 -111.85 -97.3623 89.5374 -110.879 -95.769 88.7043 
-110.014 -94.3703 87.8336 -114.879 -104.406 91.4504 -114.425 -104.217 91.4206 
-114.106 -103.457 91.0772 -113.733 -102.335 90.5765 -112.972 -100.901 90.2947 
-111.937 -99.0568 89.9126 -110.914 -97.2171 89.1014 -110.025 -95.69 88.1481 
-115.489 -107.559 91.1269 -115.007 -107.545 91.2737 -114.606 -106.989 91.2809 
-114.271 -105.966 90.8945 -113.747 -104.645 90.5087 -112.95 -102.877 90.4212 
-112.004 -100.724 90.1339 -111.022 -98.6679 89.3841 -110.144 -96.9182 88.414 
-116.273 -110.296 90.8559 -115.768 -110.588 90.9931 -116.377 -113.01 90.7098 
-115.732 -113.081 90.9664 -116.053 -115.003 90.3383 -115.228 -110.339 91.2913 
-115.358 -114.91 90.5279 -115.573 -116.541 89.4946 -115.213 -112.549 91.218 
-114.766 -109.456 91.2773 -114.992 -116.371 89.5155 -115.169 -117.836 88.4241 
-114.989 -114.123 90.4961 -114.722 -111.299 90.9778 -114.236 -108.129 90.7856 
-114.76 -117.01 88.5548 -114.84 -118.072 87.4187 -114.716 -114.988 89.5026 
-114.498 -112.405 90.2215 -114.041 -109.642 90.4815 -113.561 -106.495 90.475 
-114.476 -116.217 87.9733 -114.571 -116.932 86.645 -114.326 -114.709 88.9986 
-114.093 -112.717 89.6128 -113.754 -110.495 90.0083 -113.338 -107.784 90.3041 
-112.793 -104.345 90.4478 -114.011 -114.831 87.6044 -114.206 -115.397 86.4226 
-113.752 -113.704 88.7327 -113.512 -112.327 89.3087 -113.365 -110.744 89.5462 
-113.119 -108.475 89.8863 -112.613 -105.312 90.2404 -111.873 -101.804 90.1155 
-113.347 -113.642 87.4268 -113.599 -113.884 86.7412 -113.083 -112.828 88.309 
-112.904 -111.706 88.8804 -112.931 -110.411 89.0615 -112.895 -108.476 89.3089 
-112.436 -105.605 89.759 -111.671 -102.355 89.8853 -110.869 -99.3933 89.3367 
-112.644 -112.131 87.3854 -112.918 -111.907 87.1075 -112.44 -111.771 87.8878 
-112.379 -110.852 88.3663 -112.51 -109.547 88.6218 -112.618 -107.75 88.8317 
-112.27 -105.224 89.2113 -111.478 -102.316 89.4545 -110.659 -99.6403 89.1127 
-110.006 -97.3592 88.2722 -116.411 -108.619 90.8867 -116.839 -111.635 90.7069 
-116.81 -109.373 90.6282 -117.11 -112.227 90.3617 -116.837 -109.157 90.2132 
-116.882 -114.266 90.307 -116.851 -111.795 89.7846 -116.477 -108.337 89.8249 
-117.225 -114.833 89.543 -116.637 -116.132 89.44 -116.223 -110.681 89.3988 
-116.137 -107.616 89.5291 -117.028 -114.355 88.7943 -117.235 -116.67 88.3366 
-116.2 -117.55 88.346 -115.856 -109.473 89.1998 -116.089 -106.821 89.0149 
-116.345 -112.969 88.6713 -117.075 -116.123 87.8129 -116.663 -117.824 87.3597 
-115.514 -118.473 87.2684 -115.857 -107.946 88.7269 -116.02 -105.129 88.2264 
-115.843 -111.165 88.7325 -116.267 -114.521 88.1074 -116.362 -116.937 87.2065 
-115.662 -118.081 86.434 -114.942 -118.081 86.1506 -115.713 -105.475 87.9942 
-115.669 -102.49 87.3415 -115.616 -108.747 88.3731 -115.643 -112.155 88.318 
-115.776 -114.971 87.6499 -115.602 -116.64 86.4851 -115.13 -117.155 85.5255 
-114.683 -116.624 85.5455 -115.313 -102.347 87.0914 -115.187 -99.6905 86.3061 
-115.326 -105.451 87.6781 -115.304 -108.844 88.0038 -115.381 -111.935 87.8646 
-115.481 -114.159 87.0735 -115.336 -115.349 86.0141 -114.902 -115.525 85.5414 
-114.303 -114.899 85.9554 -114.877 -99.4365 85.9205 -114.714 -97.3651 85.0933 
[...]
CELL_DATA 2000
SCALARS Distance double
LOOKUP_TABLE default
151.47 152.118 151.995 152.431 152.893 152.738 153.277 153.093 153.652 
153.88 153.643 154.245 154.034 154.678 154.48 155.201 155.054 154.749 
155.385 155.118 155.82 155.591 156.374 156.182 157.023 156.338 156.005 
156.682 156.367 157.101 156.821 157.63 157.412 158.278 158.081 158.944 
157.653 157.329 158.039 157.726 158.477 158.166 158.973 158.716 159.598 
159.377 160.261 160.025 160.891 158.908 158.623 159.324 159.064 159.82 
159.546 160.35 160.087 160.988 160.755 161.702 161.428 162.342 162.041 
162.965 160.069 159.819 160.497 160.287 161.048 160.841 161.664 161.448 
162.366 162.169 163.16 162.926 163.888 163.578 164.517 164.204 165.184 
161.152 160.933 161.605 161.419 162.192 162.031 162.885 162.725 163.654 
163.511 164.498 164.344 165.304 165.083 165.998 165.742 166.689 166.444 
167.434 151.031 150.476 151.019 151.582 150.037 150.479 151.05 151.611 
152.302 149.976 150.239 150.839 151.209 151.933 152.466 153.294 150.066 
150.336 150.974 151.214 151.917 152.266 153.087 153.583 154.473 149.979 
150.344 150.98 151.339 151.999 152.336 153.072 153.474 154.318 154.822 
155.736 149.99 150.216 150.798 151.196 151.87 152.313 153.03 153.451 
154.245 154.709 155.603 156.125 157.052 150.331 150.364 150.886 151.095 
151.807 152.185 152.996 153.398 154.221 154.646 155.533 156.025 156.958 
157.463 158.349 150.714 150.752 151.244 151.345 152.036 152.29 153.137 
153.465 154.316 154.669 155.531 155.97 156.892 157.388 158.289 158.746 
159.554 150.969 151.072 151.576 151.71 152.352 152.577 153.343 153.649 
154.444 154.782 155.588 155.984 156.853 157.322 158.217 158.688 159.513 
159.922 160.656 151.269 152.138 151.753 151.957 153.276 152.783 152.99 
152.549 152.81 154.466 153.993 154.186 153.676 153.89 153.465 153.773 
155.595 155.169 155.399 154.889 155.065 154.576 154.854 154.476 154.841 
156.789 156.322 156.641 156.143 156.44 155.871 156.211 155.683 156.105 
155.64 156.049 158.162 157.62 158.011 157.499 157.975 157.413 157.911 
157.277 157.76 157.117 157.563 156.959 157.368 159.609 159.077 159.524 
159.001 159.555 159.041 159.611 159.042 159.521 158.872 159.256 158.59 
158.952 158.333 158.713 160.964 160.525 161.029 160.562 161.122 160.639 
161.169 160.655 161.069 160.503 160.811 160.211 160.501 159.908 160.231 
159.655 159.984 162.229 161.862 162.426 162.033 162.601 162.158 162.649 
162.144 162.523 161.963 162.268 161.682 161.981 161.399 161.715 161.14 
161.443 160.862 161.125 161.928 162.309 162.532 163.382 162.646 162.938 
163.875 164.095 165.037 162.95 163.3 164.357 164.64 165.657 165.835 
166.852 163.231 163.614 164.759 165.152 166.29 166.513 167.572 167.734 
168.903 163.464 163.866 164.984 165.494 166.713 167.116 168.244 168.478 
169.657 169.92 171.297 163.613 164.048 165.087 165.622 166.809 167.39 
168.592 169.043 170.243 170.623 171.974 172.384 173.811 163.612 164.133 
165.174 165.694 166.827 167.408 168.632 169.235 170.512 171.069 172.419 
172.944 174.344 174.8 176.097 163.43 164.048 165.144 165.751 166.902 
167.46 168.654 169.246 170.555 171.219 172.64 173.285 174.716 175.25 
176.584 176.974 178.162 163.154 163.791 164.878 165.613 166.795 167.477 
168.646 169.265 170.519 171.218 172.669 173.429 174.94 175.583 176.977 
177.443 178.694 179.022 180.159 161.949 163.428 162.599 162.475 165.118 
164.222 164.156 163.238 163.141 166.977 166.039 166.064 165.076 165.031 
164.014 163.919 169.116 168.07 168.196 167.127 167.162 166.053 165.992 
164.874 164.77 171.637 170.472 170.696 169.466 169.57 168.336 168.325 
167.09 166.988 165.786 165.657 174.237 173.15 173.459 172.17 172.312 
170.943 170.974 169.591 169.491 168.124 167.937 166.672 166.472 176.537 
175.666 176.049 174.928 175.114 173.787 173.86 172.417 172.36 170.818 
170.596 169.082 168.81 167.465 167.212 178.597 177.849 178.326 177.395 
177.686 176.524 176.665 175.327 175.351 173.827 173.664 171.975 171.671 
170.021 169.726 168.262 167.995 180.602 179.901 180.465 179.637 180.055 
179.034 179.253 178.045 178.103 176.747 176.658 175.099 174.831 173.093 
172.733 171.017 170.677 169.12 168.803 181.909 183.743 182.536 181.793 
185.057 184.209 183.526 182.317 181.407 185.644 185.204 184.672 183.843 
182.963 181.736 180.603 185.809 185.576 185.117 184.654 183.86 182.999 
181.837 180.668 179.376 185.584 185.59 185.075 184.835 184.031 183.52 
182.412 181.591 180.306 179.26 177.899 184.675 185.031 184.472 184.51 
183.654 183.414 182.381 181.889 180.731 179.969 178.653 177.629 176.121 
183.383 183.854 183.343 183.605 182.817 182.827 181.906 181.697 180.682 
180.206 178.972 178.181 176.67 175.634 173.985 182.148 182.567 182.101 
182.407 181.739 181.887 181.097 181.105 180.196 179.981 178.793 178.26 
176.751 175.951 174.284 173.353 171.762 180.801 181.3 180.807 181.19 
180.567 180.811 180.073 180.211 179.342 179.319 178.167 177.856 176.367 
175.793 174.151 173.439 171.853 171.106 169.705 182.274 183.181 183.288 
184.131 183.386 183.962 184.909 184.97 185.431 182.743 183.741 184.858 
185.45 186.001 185.919 185.986 181.759 182.785 183.945 185.021 185.868 
186.255 186.415 186.227 186.118 180.893 181.751 182.729 183.897 184.934 
185.829 186.247 186.445 186.299 186.16 185.845 179.787 180.768 181.535 
182.638 183.573 184.7 185.292 185.944 185.846 186.002 185.514 185.496 
184.879 177.942 179.275 179.926 181.205 181.939 183.204 183.796 184.757 
184.804 185.241 184.771 184.887 184.24 184.25 183.576 175.558 177.064 
177.62 179.149 179.73 181.24 181.752 183.041 183.221 184.022 183.753 
184.065 183.54 183.599 183.021 182.986 182.376 173.163 174.568 175.018 
176.563 177.031 178.667 179.086 180.659 180.868 182.139 182.029 182.841 
182.45 182.837 182.287 182.411 181.771 181.768 181.044 163.314 164.152 
164.145 165.072 165.123 165.085 166.095 166.09 167.077 166.228 166.146 
167.197 167.184 168.269 168.167 169.053 167.457 167.364 168.526 168.441 
169.682 169.521 170.619 170.252 171.099 168.708 168.702 170.119 170.036 
171.596 171.327 172.758 172.209 173.334 172.589 173.462 169.906 170.034 
171.715 171.807 173.692 173.565 175.282 174.744 176.034 175.173 176.109 
175.142 175.861 171.017 171.282 173.089 173.395 175.362 175.567 177.29 
177.131 178.321 177.763 178.559 177.769 178.382 177.442 177.914 171.9 
172.334 174.122 174.613 176.455 176.898 178.418 178.603 179.579 179.455 
180.11 179.773 180.368 179.767 180.254 179.341 179.653 172.451 173.038 
174.737 175.388 177.087 177.663 179.03 179.341 180.224 180.274 180.953 
180.911 181.677 181.47 182.182 181.566 181.99 180.99 181.166 162.495 
161.609 162.425 163.251 160.7 161.534 162.33 163.23 164.17 159.675 
160.551 161.337 162.282 163.212 164.199 165.235 158.687 159.5 160.247 
161.207 162.129 163.19 164.238 165.296 166.382 157.827 158.56 159.247 
160.12 161.001 162.05 163.108 164.235 165.324 166.413 167.493 156.974 
157.687 158.323 159.151 159.98 160.958 161.987 163.088 164.178 165.286 
166.324 167.442 168.53 156.164 156.809 157.393 158.195 158.981 159.939 
160.92 161.99 163.032 164.118 165.101 166.199 167.19 168.402 169.514 
155.527 156.064 156.613 157.297 158.027 158.91 159.824 160.875 161.853 
162.938 163.845 164.921 165.808 166.979 167.962 169.285 170.355 155.042 
155.517 156.061 156.62 157.281 158.004 158.809 159.746 160.647 161.702 
162.567 163.623 164.437 165.544 166.416 167.663 168.618 169.986 170.946 
154.97 155.247 155.408 156.025 155.483 155.702 156.372 156.534 157.231 
155.748 155.956 156.704 156.901 157.681 157.849 158.704 156.236 156.349 
157.17 157.316 158.187 158.353 159.288 159.47 160.477 156.813 156.927 
157.761 157.891 158.809 158.959 159.957 160.119 161.156 161.332 162.367 
157.291 157.453 158.284 158.478 159.428 159.631 160.679 160.855 161.926 
162.065 163.111 163.237 164.25 157.856 157.954 158.851 159.019 160.05 
160.266 161.382 161.593 162.716 162.873 163.955 164.053 165.111 165.182 
166.241 158.62 158.655 159.624 159.723 160.817 160.976 162.128 162.318 
163.469 163.656 164.786 164.928 166.044 166.128 167.252 167.294 168.424 
159.397 159.468 160.431 160.552 161.619 161.786 162.901 163.085 164.214 
164.409 165.57 165.761 166.951 167.092 168.281 168.357 169.536 169.561 
170.713 160.079 161.495 160.906 161.186 163.105 162.436 162.784 162.124 
162.436 165.071 164.253 164.68 163.88 164.264 163.48 163.779 167.419 
166.484 167.048 166.062 166.532 165.533 165.886 164.915 165.168 170.025 
169.04 169.74 168.682 169.276 168.112 168.539 167.312 167.593 166.42 
166.628 172.877 171.854 172.705 171.575 172.314 171.073 171.619 170.249 
170.582 169.153 169.344 167.993 168.125 175.801 174.883 175.951 174.793 
175.691 174.341 175.004 173.522 173.934 172.363 172.553 170.963 171.015 
169.53 169.545 178.303 177.714 178.869 178.022 178.984 177.809 178.499 
177.043 177.465 175.838 176.019 174.305 174.288 172.589 172.487 170.929 
170.844 180.052 179.816 180.809 180.45 181.287 180.668 181.28 180.286 
180.643 179.279 179.393 177.76 177.662 175.904 175.69 173.973 173.766 
172.196 172.04 159.674 159.446 160.059 161.053 159.148 159.839 160.926 
161.527 162.638 158.773 159.55 160.729 161.414 162.597 163.22 164.505 
158.333 159.165 160.382 161.169 162.386 163.129 164.469 165.222 166.723 
157.93 158.739 159.965 160.777 161.999 162.821 164.216 165.12 166.745 
167.594 169.274 157.683 158.411 159.672 160.418 161.665 162.435 163.86 
164.819 166.565 167.585 169.413 170.253 172.025 157.572 158.242 159.53 
160.232 161.518 162.205 163.607 164.493 166.241 167.353 169.264 170.304 
172.123 173.006 174.773 157.486 158.135 159.391 160.117 161.408 162.106 
163.449 164.263 165.894 166.986 168.87 170.036 171.878 172.927 174.656 
175.621 177.237 157.378 158 159.19 159.933 161.198 161.947 163.232 
164.036 165.524 166.568 168.36 169.57 171.426 172.569 174.295 175.335 
176.903 177.84 179.143 158.777 157.345 158.208 158.492 155.865 156.722 
156.929 157.836 158.098 154.38 155.197 155.356 156.231 156.404 157.365 
157.638 153.004 153.708 153.822 154.652 154.794 155.67 155.85 156.856 
157.16 151.786 152.377 152.399 153.141 153.252 154.075 154.206 155.104 
155.324 156.373 156.737 150.593 151.162 151.125 151.771 151.792 152.531 
152.6 153.453 153.621 154.593 154.914 156.008 156.473 149.439 149.958 
149.93 150.528 150.501 151.118 151.093 151.836 151.968 152.901 153.231 
154.272 154.739 155.845 156.386 148.515 148.885 148.827 149.353 149.329 
149.878 149.823 150.42 150.51 151.314 151.676 152.661 153.184 154.221 
154.775 155.833 156.372 147.833 148.067 147.928 148.318 148.257 148.741 
148.701 149.234 149.319 149.997 150.35 151.225 151.784 152.758 153.351 
154.331 154.872 155.854 156.347 147.428 146.858 147.224 147.49 146.5 
146.728 146.957 147.354 147.73 146.392 146.476 146.609 146.863 147.176 
147.646 148.133 146.403 146.419 146.511 146.617 146.898 147.202 147.74 
148.201 148.854 146.654 146.534 146.735 146.695 147.06 147.156 147.776 
148.056 148.86 149.197 150.015 147.43 147.077 147.421 147.2 147.697 
147.597 148.263 148.346 149.195 149.429 150.348 150.597 151.491 148.586 
148.113 148.458 148.119 148.627 148.426 149.058 148.995 149.767 149.885 
150.791 151.021 151.954 152.176 153.061 149.717 149.284 149.528 149.174 
149.576 149.367 149.939 149.831 150.535 150.534 151.38 151.519 152.448 
152.653 153.549 153.736 154.568 150.67 150.308 150.495 150.148 150.47 
150.251 150.796 150.693 151.404 151.354 152.166 152.192 153.072 153.188 
154.064 154.22 155.046 155.207 156.003 151.232 152.146 151.471 151.097 
153.375 152.531 152.178 151.419 151.139 154.961 153.963 153.67 152.73 
152.509 151.677 151.554 156.811 155.73 155.484 154.423 154.242 153.269 
153.18 152.296 152.25 158.773 157.697 157.516 156.384 156.208 155.128 
155.026 154.051 154.002 153.085 153.051 160.756 159.72 159.665 158.536 
158.427 157.232 157.104 155.979 155.896 154.894 154.849 153.923 153.918 
162.847 161.789 161.843 160.754 160.77 159.571 159.49 158.219 158.103 
156.906 156.829 155.774 155.746 154.816 154.847 165.112 164.016 164.127 
163.012 163.092 161.937 161.932 160.683 160.601 159.292 159.199 157.934 
157.874 156.741 156.73 155.765 155.809 167.43 166.369 166.534 165.389 
165.476 164.294 164.3 163.092 163.043 161.799 161.728 160.436 160.35 
159.053 158.978 157.788 157.766 156.752 156.786 157.661 158.758 158.619 
159.526 160.082 159.883 160.863 160.644 161.574 161.521 161.328 162.361 
162.094 163.054 162.753 163.662 162.905 162.785 163.888 163.657 164.704 
164.367 165.414 165.01 166.069 164.238 164.172 165.415 165.252 166.518 
166.2 167.503 167.054 168.379 167.798 169.045 165.582 165.57 167.006 
166.918 168.469 168.232 169.835 169.423 170.997 170.401 171.805 171.029 
172.201 166.86 166.96 168.541 168.6 170.34 170.297 172.081 171.856 
173.533 173.085 174.53 173.844 175.005 174.135 175.088 167.96 168.199 
169.831 170.073 171.853 172.061 173.872 173.936 175.57 175.393 176.739 
176.323 177.401 176.766 177.645 176.836 177.61 168.83 169.195 170.816 
171.214 172.961 173.359 175.12 175.426 176.983 177.064 178.271 178.123 
179.056 178.75 179.522 179.053 179.714 179.081 179.675 150.534 150.283 
150.206 149.693 149.883 149.873 149.307 149.204 148.561 149.46 149.385 
148.777 148.708 148.042 147.997 147.533 149.339 149.046 148.37 148.175 
147.548 147.483 147.119 147.214 147.167 149.399 149.037 148.331 147.956 
147.349 147.135 146.834 146.883 146.903 147.093 147.199 149.387 149.079 
148.426 148.039 147.445 147.129 146.786 146.705 146.634 146.783 146.819 
147.045 147.069 149.536 149.148 148.578 148.163 147.582 147.251 146.857 
146.709 146.527 146.533 146.445 146.582 146.566 146.827 146.935 150.011 
149.512 149.004 148.458 147.864 147.402 146.94 146.726 146.515 146.464 
146.362 146.336 146.29 146.383 146.502 146.793 147.07 150.557 150.08 
149.603 149.026 148.442 147.826 147.286 146.862 146.584 146.451 146.39 
146.352 146.338 146.303 146.381 146.489 146.738 147.028 147.353 150.566 
149.702 150.247 150.509 148.606 149.259 149.545 150.25 150.703 147.669 
148.179 148.508 149.22 149.71 150.488 150.994 147.344 147.527 147.854 
148.325 148.859 149.531 150.099 150.785 151.293 147.349 147.42 147.648 
147.9 148.414 148.902 149.553 150.078 150.688 151.218 151.831 147.267 
147.393 147.539 147.722 148.128 148.568 149.248 149.746 150.405 150.823 
151.438 151.916 152.554 147.268 147.358 147.586 147.64 147.966 148.269 
148.898 149.437 150.12 150.591 151.122 151.551 152.065 152.59 153.11 
147.484 147.541 147.914 147.869 148.203 148.244 148.759 149.11 149.788 
150.259 150.819 151.21 151.652 152.077 152.552 153.06 153.534 147.742 
147.832 148.262 148.288 148.661 148.62 149.03 149.128 149.702 150.013 
150.635 150.97 151.492 151.782 152.28 152.625 153.165 153.565 154.081 
151.042 151.092 151.306 151.918 151.375 151.505 152.112 152.311 153.024 
151.693 151.859 152.448 152.571 153.184 153.439 154.164 151.956 152.147 
152.776 152.911 153.468 153.618 154.261 154.552 155.281 152.426 152.476 
153.142 153.251 153.882 153.964 154.602 154.748 155.495 155.736 156.517 
153.119 153.076 153.694 153.709 154.369 154.433 155.116 155.202 155.953 
156.1 156.922 157.099 157.913 153.675 153.721 154.277 154.292 154.876 
154.937 155.591 155.705 156.422 156.583 157.372 157.565 158.375 158.547 
159.329 154.057 154.148 154.688 154.77 155.319 155.409 156.024 156.144 
156.819 156.982 157.723 157.953 158.745 158.974 159.732 159.914 160.636 
154.523 154.531 155.059 155.125 155.692 155.804 156.441 156.571 157.245 
157.373 158.082 158.269 159.048 159.295 160.07 160.277 160.983 161.158 
161.854 158.603 157.83 157.885 157.196 157.101 157.109 156.433 156.465 
155.757 156.549 156.457 155.763 155.731 155.037 155.032 154.322 156.016 
155.915 155.147 155.088 154.391 154.372 153.727 153.682 153.036 155.412 
155.307 154.475 154.417 153.697 153.731 153.168 153.182 152.618 152.516 
151.894 154.997 154.774 153.995 153.8 153.086 153.042 152.51 152.602 
152.119 152.12 151.491 151.367 150.689 154.806 154.528 153.841 153.53 
152.858 152.609 152.031 151.976 151.494 151.545 150.987 150.932 150.258 
150.139 149.524 154.591 154.369 153.693 153.443 152.786 152.513 151.876 
151.643 151.058 150.964 150.441 150.413 149.879 149.779 149.245 149.108 
148.653 154.352 154.135 153.463 153.244 152.6 152.393 151.783 151.539 
150.913 150.665 150.076 149.946 149.475 149.435 149.031 148.941 148.544 
148.393 148.022 
POINT_DATA 1002
SCALARS Distance double
LOOKUP_TABLE default
151.832 151.013 151.57 152.585 152.201 152.878 153.431 153.052 153.818 
154.263 154.45 154.141 154.858 155.362 155.981 155.658 155.364 156.049 
156.557 157.205 157.885 156.994 156.66 157.396 157.859 158.477 159.154 
159.795 158.335 157.966 158.789 159.247 159.815 160.503 161.128 161.75 
159.568 159.19 160.07 160.604 161.202 161.95 162.655 163.246 163.9 
160.701 160.317 161.225 161.851 162.54 163.358 164.177 164.836 165.47 
166.185 161.784 161.357 162.334 163.021 163.787 164.637 165.501 166.238 
166.921 167.679 168.439 150.513 150.979 149.942 150.52 149.655 151.657 
150.547 149.733 151.456 152.692 150.734 149.736 151.646 152.656 153.919 
150.567 149.64 151.643 152.714 153.852 155.188 150.448 149.889 151.384 
152.588 153.794 155.092 156.532 150.76 150.35 151.455 152.585 153.817 
155.056 156.454 157.891 151.152 150.646 151.824 152.832 153.996 155.138 
156.405 157.82 159.157 151.422 150.844 152.157 153.079 154.121 155.217 
156.414 157.745 159.088 160.296 151.546 152.297 152.576 153.48 153.774 
153.198 154.727 154.9 154.354 154.122 155.882 156.006 155.591 155.255 
155.188 157.083 157.283 156.96 156.772 156.61 156.52 158.498 158.712 
158.458 158.512 158.452 158.223 157.949 160.027 160.096 160.054 160.16 
160.168 159.947 159.602 159.308 161.456 161.346 161.61 161.708 161.645 
161.401 161.089 160.817 160.571 162.789 162.556 163.037 163.161 163.082 
162.848 162.561 162.296 162.036 161.723 162.706 163.172 164.271 163.61 
164.846 165.998 163.997 165.466 166.664 167.899 164.288 165.996 167.413 
168.645 170.173 164.466 166.203 167.944 169.383 170.95 172.775 164.599 
166.201 168.029 169.81 171.544 173.434 175.229 164.643 166.288 168.001 
169.874 171.859 173.861 175.743 177.326 164.468 166.327 168.099 169.87 
171.928 174.14 176.155 177.863 179.307 164.121 166.052 168.013 169.832 
171.861 174.227 176.465 178.321 179.907 181.271 163.311 165.086 164.072 
167.037 166.072 164.951 169.281 168.277 167.142 165.888 171.968 170.846 
169.595 168.244 166.838 174.714 173.701 172.395 170.939 169.296 167.681 
177.065 176.375 175.271 173.921 172.225 170.273 168.481 179.169 178.755 
177.937 176.797 175.343 173.432 171.314 169.388 181.238 180.999 180.421 
179.412 178.111 176.531 174.54 172.352 170.295 183.227 183.152 184.858 
184.624 185.695 182.811 185.299 185.945 184.101 181.985 185.49 185.997 
184.57 182.918 180.615 185.288 185.471 184.453 183.078 181.247 179.064 
184.339 184.221 183.796 182.72 181.348 179.604 177.3 183.009 182.925 
182.689 181.971 181.029 179.672 177.65 175.069 181.772 181.752 181.528 
181.004 180.318 179.246 177.469 175.143 172.643 180.379 180.277 180.273 
179.903 179.314 178.399 176.863 174.778 172.536 170.383 182.331 184.315 
182.904 184.675 182.588 185.745 183.97 181.681 185.939 186.324 182.713 
180.892 185.164 186.508 186.418 181.658 180.139 183.827 185.821 186.415 
186.07 180.515 178.713 182.442 184.462 185.599 185.525 184.948 178.604 
176.517 180.667 182.718 184.216 184.603 184.189 183.584 176.079 174.086 
178.186 180.348 182.201 183.255 183.408 183.027 182.454 173.547 171.859 
175.434 177.482 179.441 180.975 181.869 182.083 181.759 181.105 163.269 
165.051 164.142 166.068 165.166 167.174 167.21 166.314 168.319 169.32 
168.576 167.488 169.803 170.936 171.611 170.052 168.591 171.743 173.259 
174.096 174.309 171.468 169.668 173.64 175.708 176.892 177.129 176.906 
172.72 170.672 175.09 177.367 178.803 179.276 179.281 178.968 173.618 
171.416 176.04 178.246 179.646 180.291 180.768 181.059 180.743 161.664 
162.348 160.819 161.44 159.846 163.207 160.373 158.809 162.203 164.231 
159.323 157.932 161.049 163.14 165.349 158.429 157.125 159.993 161.967 
164.222 166.406 157.51 156.292 159.033 160.918 163.082 165.235 167.335 
156.629 155.574 158.044 159.869 161.976 164.043 166.032 168.207 155.992 
155.019 157.221 158.82 160.784 162.802 164.695 166.701 168.982 155.544 