# vtk DataFile Version 4.0
vtk output
ASCII
DATASET POLYDATA
POINTS 1002 float
-106.198 -75.7425 69.4587 -106.161 -75.0791 68.1701 -106.637 -74.8481 69.125 
-106.839 -75.6733 70.4211 -107.365 -74.7438 70.0746 -106.337 -76.636 70.9516 
-107.741 -75.7779 71.3638 -108.17 -74.8226 71.0417 -107.145 -76.667 71.9333 
-106.651 -77.5885 72.6311 -108.588 -75.9717 72.4364 -108.932 -74.9745 72.1378 
-108.061 -76.8184 72.9911 -107.518 -77.6875 73.6517 -107.256 -78.6939 74.2313 
-109.262 -76.0908 73.8227 -109.751 -75.1718 73.3979 -108.76 -76.9635 74.3985 
-108.271 -77.8952 74.9713 -108.037 -79.0306 75.4416 -107.992 -80.2694 75.941 
-109.979 -76.3178 75.3107 -110.657 -75.6039 74.5972 -109.334 -77.1372 76.0613 
-108.857 -78.19 76.6413 -108.644 -79.4807 77.0453 -108.616 -80.8462 77.4922 
-108.574 -82.1395 78.0793 -110.856 -76.9026 76.4726 -111.516 -76.2231 75.6249 
-110.108 -77.6482 77.3974 -109.56 -78.7101 78.1049 -109.315 -80.0529 78.6216 
-109.238 -81.4384 79.1345 -109.22 -82.7597 79.6571 -109.245 -84.0014 80.1071 
-111.758 -77.6552 77.3668 -112.256 -76.794 76.6315 -111.117 -78.4984 78.2601 
-110.535 -79.5277 79.0523 -110.233 -80.8045 79.7324 -110.109 -82.1645 80.4244 
-110.061 -83.5003 81.0183 -110.135 -84.8166 81.3783 -110.293 -86.0799 81.6188 
-112.551 -78.3745 78.2508 -112.922 -77.3518 77.607 -112.114 -79.3957 79.0531 
-111.604 -80.4532 79.8765 -111.245 -81.6504 80.6558 -111.129 -83.0325 81.4144 
-111.102 -84.5024 82.082 -111.135 -85.9281 82.5349 -111.259 -87.271 82.8045 
-111.392 -88.5205 83.0656 -113.243 -79.1106 79.0922 -113.561 -78.0488 78.3987 
-112.947 -80.2273 79.9103 -112.557 -81.3348 80.7865 -112.163 -82.4877 81.6397 
-112.022 -83.8877 82.3856 -112.092 -85.5592 82.9851 -112.132 -87.1952 83.5074 
-112.126 -88.6083 83.979 -112.155 -89.8782 84.3637 -112.198 -91.0562 84.686 
-106.463 -74.3987 67.4093 -107.018 -74.0412 68.4469 -106.966 -73.6985 66.406 
-107.592 -73.3177 67.5246 -107.675 -73.0742 65.2795 -107.712 -73.8227 69.5185 
-108.37 -72.8196 66.4472 -108.511 -72.6223 64.3001 -108.273 -73.087 68.7184 
-108.454 -73.7984 70.6397 -109.259 -72.3286 65.5221 -109.411 -72.1006 63.5561 
-109.14 -72.6174 67.7039 -109.091 -73.0035 70.0054 -109.342 -73.9302 71.8472 
-110.168 -71.5526 64.8733 -110.318 -71.4345 62.9443 -110.119 -72.0215 66.7878 
-110.092 -72.5191 69.052 -110.131 -73.1598 71.3229 -110.385 -74.3059 73.0331 
-111.052 -70.8574 64.3358 -111.146 -70.9239 62.3768 -111.036 -71.2683 66.1445 
-111.093 -72.0371 68.0629 -111.094 -72.7326 70.4102 -111.15 -73.622 72.5135 
-111.348 -74.9096 74.1005 -111.895 -70.4587 63.7609 -111.914 -70.5051 61.8305 
-111.928 -70.7593 65.6688 -112.014 -71.5141 67.3754 -112.028 -72.3431 69.4131 
-111.958 -73.0886 71.7513 -112 -74.1326 73.6943 -112.141 -75.4596 75.2197 
-112.751 -70.0544 63.2093 -112.75 -70.0319 61.3965 -112.822 -70.3648 65.2406 
-112.941 -70.988 67.0314 -112.991 -71.7927 68.7609 -112.88 -72.557 70.9194 
-112.77 -73.4103 73.1868 -112.797 -74.5642 74.9997 -112.863 -75.9267 76.3913 
-113.642 -69.7079 62.8469 -113.644 -69.7615 61.2168 -113.693 -69.9444 64.8559 
-113.797 -70.4242 66.8056 -113.883 -71.129 68.4756 -113.818 -71.9921 70.2759 
-113.652 -72.9119 72.4532 -113.576 -73.9221 74.548 -113.579 -75.1339 76.1443 
-113.563 -76.5509 77.3389 -114.51 -69.7756 62.2269 -114.547 -69.7392 64.0689 
-115.324 -70.1334 63.5028 -115.379 -70.0748 65.3771 -116.076 -70.6033 64.7235 
-114.583 -69.973 66.1605 -116.109 -70.7377 66.4599 -116.804 -71.2296 65.7639 
-115.356 -70.3821 67.3513 -114.633 -70.5213 68.0726 -116.798 -71.7801 67.5179 
-117.414 -72.2296 66.9179 -116.081 -71.3888 68.3941 -115.343 -71.2172 69.243 
-114.625 -71.4715 69.8084 -117.413 -72.9992 68.9503 -117.896 -73.463 68.3964 
-116.871 -72.6487 69.7308 -116.127 -72.4852 70.5194 -115.28 -72.532 71.1559 
-114.483 -72.6759 71.7869 -117.902 -74.2417 70.5802 -118.394 -74.7171 70.0031 
-117.503 -73.8266 71.3698 -116.961 -73.6432 72.0994 -116.046 -73.7847 72.6081 
-115.124 -73.893 73.198 -114.357 -73.8294 73.9689 -118.302 -75.5546 72.0222 
-118.842 -75.9337 71.4256 -117.806 -75.2248 72.84 -117.421 -74.9051 73.629 
-116.727 -74.8753 74.1143 -115.794 -75.0711 74.513 -115.034 -75.0819 75.1678 
-114.341 -74.9817 75.8445 -118.624 -76.8307 73.2413 -119.041 -77.0808 72.5703 
-118.041 -76.795 74.0906 -117.578 -76.6673 74.909 -117.078 -76.4388 75.4878 
-116.337 -76.3939 75.8586 -115.62 -76.4641 76.272 -115.01 -76.4168 76.8105 
-114.306 -76.3778 77.2273 -118.795 -78.0773 74.4144 -118.976 -78.2778 73.6258 
-118.357 -78.2029 75.3426 -117.862 -78.3869 76.1556 -117.391 -78.3265 76.7514 
-116.802 -78.1421 77.2145 -116.148 -78.0904 77.5788 -115.569 -78.0915 77.8762 
-114.949 -78.0161 78.1596 -114.232 -77.9663 78.359 -114.012 -79.6033 79.5629 
-114.706 -79.6921 79.518 -114.544 -81.344 80.9798 -115.429 -79.8259 79.4355 
-115.245 -81.5137 81.0266 -115.08 -83.2229 82.5759 -116.088 -79.8837 79.3432 
-115.988 -81.6669 81.0741 -115.77 -83.4921 82.7154 -115.551 -85.6143 84.165 
-116.736 -79.8783 79.0682 -116.714 -81.7212 80.9989 -116.523 -83.7497 82.7856 
-116.235 -86.1103 84.3815 -116.067 -88.6395 85.7527 -117.365 -79.9637 78.5691 
-117.343 -81.7431 80.5867 -117.191 -83.9427 82.6579 -116.959 -86.537 84.5165 
-116.809 -89.2048 86.0595 -116.793 -91.6332 87.3191 -117.871 -80.049 78.0649 
-117.801 -81.8643 80.0437 -117.594 -84.1638 82.2393 -117.471 -86.9215 84.4665 
-117.495 -89.6457 86.2562 -117.567 -92.116 87.5911 -117.596 -94.3996 88.6488 
-118.299 -79.9144 77.4675 -118.154 -81.9858 79.63 -117.856 -84.4861 81.8009 
-117.752 -87.338 84.1315 -117.948 -90.1084 86.1652 -118.12 -92.635 87.5863 
-118.18 -95.1069 88.7105 -118.164 -97.4905 89.644 -118.642 -79.6949 76.551 
-118.44 -81.9755 79.0524 -118.157 -84.7538 81.4701 -118.09 -87.6958 83.7622 
-118.364 -90.4862 85.8187 -118.535 -93.1216 87.2667 -118.467 -95.8146 88.3409 
-118.44 -98.4714 89.3831 -118.453 -100.747 90.2116 -118.781 -79.6901 75.5018 
-118.564 -81.9188 78.0965 -118.375 -84.8094 80.9159 -118.451 -87.8415 83.4257 
-118.853 -90.6257 85.486 -119.056 -93.2765 86.938 -118.792 -96.1096 87.865 
-118.54 -99.0173 88.7265 -118.578 -101.517 89.598 -118.651 -103.355 90.1959 
-113.752 -80.7794 80.5107 -114.313 -82.6434 82.1103 -113.466 -82.0113 81.5167 
-114.849 -84.8716 83.7004 -114.007 -84.0874 83.1374 -113.07 -83.2655 82.4778 
-115.384 -87.8276 85.2852 -114.616 -86.806 84.6396 -113.701 -85.7362 84.0024 
-112.819 -84.7517 83.2947 -116.037 -91.135 86.9852 -115.307 -90.2351 86.3763 
-114.528 -89.0565 85.5527 -113.707 -87.8353 84.7306 -112.924 -86.6842 83.8889 
-116.832 -94.1384 88.5085 -116.011 -93.6587 88.2123 -115.324 -92.8136 87.5522 
-114.665 -91.5886 86.4754 -113.911 -90.156 85.3674 -113.06 -88.6814 84.4229 
-117.581 -97.155 89.6348 -116.727 -96.7505 89.4687 -115.979 -96.2317 89.194 
-115.431 -95.3024 88.4115 -114.759 -93.7823 87.1853 -113.871 -92.0103 86.0732 
-112.969 -90.2829 85.0863 -118.097 -100.467 90.4005 -117.394 -99.9223 90.1848 
-116.64 -99.2798 89.864 -116.116 -98.5138 89.41 -115.561 -97.2187 88.5819 
-114.654 -95.3498 87.6478 -113.641 -93.413 86.7933 -112.835 -91.6165 85.7135 
-118.393 -103.409 90.6145 -117.87 -103.054 90.5484 -117.241 -102.309 90.089 
-116.766 -101.405 89.5357 -116.357 -100.34 88.9697 -115.62 -98.7684 88.4074 
-114.538 -96.7711 87.9124 -113.536 -94.7751 87.2371 -112.815 -92.8888 86.1022 
-118.726 -105.394 89.9613 -118.285 -105.672 90.304 -118.646 -107.205 89.1856 
-118.123 -107.827 89.4163 -118.55 -109.401 88.2166 -117.748 -105.428 90.1288 
-118.134 -110.1 88.2317 -118.683 -112.093 87.3685 -117.69 -107.697 89.1593 
-117.291 -104.545 89.5196 -118.275 -112.017 87.02 -118.745 -114.221 86.5154 
-117.706 -109.667 87.8747 -117.267 -106.691 88.6554 -116.929 -103.415 88.9136 
-118.041 -112.921 85.9066 -118.207 -114.802 85.4438 -117.579 -110.863 86.589 
-116.97 -108.437 87.7451 -116.713 -105.428 88.4212 -116.395 -102.108 88.5177 
-117.281 -113.035 84.977 -117.267 -114.171 84.2501 -117.155 -111.413 85.6143 
-116.527 -109.472 86.8297 -116.106 -106.964 87.9846 -116.021 -103.818 88.2878 
-115.465 -100.232 88.2299 -116.418 -112.708 84.2474 -116.469 -113.157 83.2714 
-116.548 -111.581 85.0703 -116.197 -109.883 86.0668 -115.627 -107.602 87.2499 
-115.466 -104.774 87.871 -115.169 -101.456 87.9712 -114.346 -97.9337 87.8611 
-115.718 -111.74 83.7581 -115.943 -111.939 82.8529 -115.835 -110.897 84.7537 
-115.817 -109.433 85.6283 -115.435 -107.362 86.4829 -115.125 -104.777 87.1418 
-114.849 -101.873 87.4614 -114.193 -98.7471 87.527 -113.393 -95.6407 87.1105 
-115.175 -110.009 83.6192 -115.56 -110.247 83.048 -115.065 -109.185 84.4985 
-115.108 -107.914 85.342 -115.049 -106.275 85.9914 -114.876 -104.171 86.4945 
-114.581 -101.666 86.8854 -113.994 -98.9557 87.0762 -113.25 -96.1586 86.7857 
-112.648 -93.4598 85.8825 -118.886 -104.25 89.4712 -119.116 -106.025 88.9665 
-119.207 -104.634 88.7541 -119.543 -106.544 88.214 -119.541 -104.641 88.3854 
-119.121 -107.921 88.1217 -119.838 -107.027 87.8554 -119.789 -104.159 87.9395 
-119.612 -109.058 87.4923 -119.114 -110.775 87.3797 -119.969 -106.642 87.1808 
-119.93 -103.11 87.0319 -119.957 -109.971 86.9739 -119.724 -112.511 86.7122 
-119.304 -114.16 86.7183 -119.951 -105.206 86.2172 -119.798 -101.89 86.2415 
-120.104 -109.258 86.0597 -120.132 -113.003 85.7628 -119.898 -115.632 85.6729 
-119.184 -116.168 85.7211 -119.556 -103.521 85.8186 -119.281 -100.499 85.884 
-119.897 -107.352 85.466 -120.069 -111.399 84.9839 -120.041 -114.818 84.572 
-119.545 -116.446 84.4269 -118.415 -115.764 84.3598 -118.866 -101.494 85.7572 
-118.682 -98.4092 85.3175 -119.243 -105.164 85.591 -119.497 -108.979 85.0636 
-119.507 -112.288 84.439 -119.374 -114.499 83.8175 -118.703 -114.933 83.2977 
-117.502 -114.117 83.0742 -118.314 -98.7062 85.1186 -118.25 -95.7466 84.0985 
-118.54 -102.291 85.5262 -118.782 -106.1 85.3559 -118.744 -109.362 84.9307 
-118.661 -111.718 84.3173 -118.552 -112.895 83.4097 -117.905 -112.964 82.5939 
-116.843 -112.584 82.4066 -117.975 -95.702 83.7452 -117.88 -93.2477 82.4722 
-118.109 -98.7972 84.6421 -118.289 -102.352 85.0083 -118.249 -105.735 85.0203 
[...]
CELL_DATA 2000
SCALARS Distance double
LOOKUP_TABLE default
146.36 147.184 146.976 147.496 148.234 147.959 148.526 148.271 148.906 
149.383 149.108 149.729 149.421 150.059 149.798 150.542 150.603 150.302 
150.957 150.658 151.317 151.025 151.794 151.571 152.499 151.968 151.589 
152.249 151.917 152.635 152.332 153.166 152.919 153.92 153.722 154.819 
153.422 153.019 153.685 153.295 154.057 153.728 154.641 154.381 155.439 
155.225 156.359 156.151 157.281 154.819 154.477 155.192 154.804 155.595 
155.238 156.189 155.921 157.026 156.804 157.972 157.741 158.912 158.659 
159.816 156.119 155.852 156.648 156.331 157.178 156.829 157.791 157.507 
158.639 158.425 159.658 159.427 160.672 160.387 161.624 161.305 162.53 
157.353 157.142 158.005 157.779 158.697 158.414 159.38 159.106 160.211 
160.027 161.288 161.133 162.44 162.211 163.487 163.184 164.425 164.09 
165.297 145.877 145.418 145.951 146.642 145.044 145.529 146.211 146.792 
147.608 144.874 145.248 145.921 146.4 147.175 147.803 148.704 144.89 
145.179 145.845 146.213 146.968 147.452 148.344 148.967 149.948 144.953 
145.212 145.855 146.198 146.972 147.373 148.269 148.755 149.763 150.332 
151.366 145.059 145.276 145.9 146.219 147.007 147.416 148.328 148.78 
149.762 150.259 151.284 151.822 152.828 145.221 145.418 146.069 146.332 
147.132 147.487 148.403 148.835 149.79 150.266 151.234 151.754 152.728 
153.263 154.201 145.423 145.609 146.309 146.571 147.402 147.698 148.595 
148.943 149.868 150.282 151.228 151.703 152.664 153.168 154.104 154.601 
155.488 145.784 145.883 146.604 146.844 147.695 147.99 148.862 149.169 
150.041 150.391 151.306 151.728 152.691 153.152 154.102 154.55 155.437 
155.878 156.721 146.314 147.539 146.946 147.138 148.881 148.259 148.428 
147.9 148.217 150.206 149.604 149.768 149.215 149.494 149.023 149.372 
151.614 150.98 151.207 150.597 150.892 150.341 150.697 150.199 150.56 
153.187 152.514 152.858 152.185 152.576 151.893 152.29 151.645 152.049 
151.463 151.858 154.848 154.171 154.574 153.935 154.4 153.714 154.127 
153.386 153.773 153.081 153.498 152.861 153.273 156.458 155.825 156.188 
155.614 156.066 155.491 155.889 155.211 155.525 154.828 155.189 154.551 
154.955 154.313 154.682 157.856 157.344 157.69 157.167 157.612 157.085 
157.512 156.891 157.213 156.525 156.85 156.211 156.603 155.985 156.349 
155.687 155.995 159.027 158.646 159.085 158.642 159.159 158.652 159.159 
158.546 158.961 158.249 158.623 157.913 158.327 157.655 158.051 157.362 
157.679 156.973 157.259 158.232 158.692 158.96 160.027 159.136 159.461 
160.581 160.879 162.065 159.494 159.909 161.122 161.47 162.705 163.003 
164.292 159.804 160.261 161.552 161.999 163.314 163.673 165.033 165.355 
166.816 160.096 160.564 161.832 162.363 163.736 164.241 165.695 166.128 
167.679 168.045 169.632 160.28 160.803 162.012 162.573 163.925 164.557 
166.102 166.736 168.386 168.895 170.525 170.894 172.431 160.26 160.874 
162.091 162.707 164.047 164.705 166.29 167.055 168.812 169.508 171.178 
171.684 173.222 173.598 175.047 160.069 160.726 161.952 162.704 164.12 
164.848 166.475 167.26 169.076 169.862 171.578 172.197 173.695 174.213 
175.642 176.099 177.448 159.837 160.441 161.591 162.448 163.932 164.855 
166.563 167.455 169.292 170.127 171.855 172.52 173.96 174.518 175.833 
176.44 177.728 178.279 179.375 158.307 160.147 159.154 159.064 162.217 
161.15 161.099 160.005 159.865 164.478 163.34 163.332 162.158 162.036 
160.837 160.635 167.07 165.793 165.864 164.54 164.475 163.146 163.013 
161.702 161.551 169.952 168.619 168.832 167.353 167.418 165.864 165.852 
164.329 164.298 162.83 162.751 172.782 171.566 171.904 170.502 170.738 
169.133 169.246 167.519 167.543 165.844 165.795 164.169 164.015 175.441 
174.344 174.716 173.491 173.798 172.446 172.649 171.054 171.042 169.258 
169.088 167.324 167.088 165.404 165.105 177.912 176.959 177.329 176.184 
176.408 175.247 175.428 174.182 174.169 172.623 172.331 170.58 170.198 
168.47 168.107 166.426 166.049 179.861 179.23 179.593 178.647 178.754 
177.661 177.694 176.622 176.608 175.401 175.171 173.646 173.226 171.528 
171.106 169.413 169.018 167.334 166.917 180.761 181.694 181.143 180.606 
182.394 181.947 181.562 180.773 179.867 183.343 182.701 182.332 181.641 
180.84 179.856 178.776 184.312 183.619 183.003 182.358 181.566 180.74 
179.704 178.724 177.628 184.425 184.115 183.196 182.777 181.895 181.33 
180.369 179.57 178.473 177.512 176.262 183.47 183.633 182.742 182.614 
181.738 181.438 180.568 180.065 179.044 178.251 176.951 175.923 174.412 
182.067 182.475 181.917 182.021 181.318 181.163 180.33 180.035 179.046 
178.558 177.284 176.47 174.915 173.885 172.277 180.688 181.161 180.79 
181.137 180.556 180.634 179.769 179.619 178.547 178.269 177.016 176.519 
175.03 174.239 172.614 171.681 170.115 179.37 179.819 179.323 179.821 
179.161 179.549 178.647 178.789 177.681 177.587 176.354 176.061 174.685 
174.15 172.608 171.861 170.262 169.448 167.934 180.84 181.013 181.252 
181.724 181.126 181.394 181.911 182.002 182.419 181.13 181.581 182.313 
182.374 182.982 182.936 183.553 180.549 181.417 182.431 182.878 183.76 
183.802 184.639 184.435 184.919 179.411 180.511 181.588 182.644 183.72 
184.391 185.322 185.528 186.009 185.603 185.306 178.114 179.214 180.165 
181.441 182.496 183.722 184.602 185.533 185.912 186.182 185.695 185.224 
184.18 176.513 177.754 178.59 179.902 180.836 182.154 182.897 184.12 
184.425 185.286 184.831 184.97 183.848 183.528 182.41 174.359 175.837 
176.57 178.082 178.887 180.328 180.944 182.193 182.448 183.456 183.218 
183.733 182.917 182.894 181.876 181.712 180.896 171.916 173.445 174.066 
175.713 176.38 178.041 178.564 180.024 180.251 181.425 181.362 182.146 
181.725 181.982 181.271 181.189 180.47 180.341 179.684 160.004 160.877 
160.826 161.811 162.142 161.983 163.202 163.08 164.348 163.695 163.517 
164.938 164.782 166.307 165.993 167.286 165.2 165.159 166.722 166.68 
168.409 168.191 169.716 169.125 170.237 166.573 166.676 168.422 168.509 
170.406 170.347 172.023 171.609 172.79 172.01 172.792 167.973 168.169 
170.154 170.303 172.315 172.329 174.019 173.771 174.924 174.357 175.056 
174.271 174.776 169.315 169.661 171.743 172.04 173.988 174.112 175.637 
175.529 176.572 176.215 176.898 176.306 176.827 176.081 176.582 170.347 
170.878 172.838 173.357 175.089 175.421 176.714 176.805 177.752 177.627 
178.38 178.009 178.634 178.045 178.621 177.904 178.442 171.034 171.665 
173.46 174.103 175.677 176.143 177.339 177.577 178.551 178.635 179.535 
179.405 180.135 179.736 180.277 179.751 180.219 179.628 180.009 159.318 
158.619 159.274 160.011 157.75 158.512 159.169 160.014 161.038 156.563 
157.485 158.156 159.079 160.025 161.141 162.422 155.346 156.258 156.953 
157.93 158.861 160.034 161.273 162.545 163.86 154.296 155.142 155.851 
156.75 157.656 158.791 160.018 161.327 162.601 163.861 165.098 153.32 
154.135 154.847 155.717 156.572 157.611 158.759 160.031 161.28 162.54 
163.67 164.967 166.247 152.498 153.188 153.836 154.681 155.461 156.482 
157.506 158.743 159.916 161.18 162.248 163.478 164.585 166.056 167.437 
151.897 152.441 152.976 153.682 154.356 155.291 156.207 157.402 158.51 
159.786 160.841 162.039 163.046 164.362 165.562 167.166 168.515 151.319 
151.836 152.291 152.886 153.474 154.239 155.06 156.094 157.15 158.371 
159.453 160.646 161.635 162.836 163.897 165.306 166.52 168.125 169.327 
151.06 151.006 151.376 152.089 151.187 151.467 152.307 152.56 153.35 
151.6 151.811 152.744 152.96 153.893 154.03 154.976 152.06 152.269 
153.225 153.488 154.527 154.716 155.779 155.902 157.042 152.616 152.76 
153.728 153.983 155.089 155.37 156.541 156.762 157.963 158.12 159.31 
153.416 153.462 154.501 154.624 155.806 156.016 157.288 157.532 158.82 
159.03 160.261 160.384 161.516 154.322 154.379 155.49 155.566 156.815 
156.932 158.271 158.417 159.777 159.936 161.261 161.376 162.624 162.64 
163.82 155.171 155.287 156.416 156.562 157.824 158.001 159.373 159.526 
160.931 161.036 162.435 162.501 163.871 163.878 165.2 165.126 166.416 
155.981 156.113 157.234 157.42 158.669 158.927 160.319 160.589 162.056 
162.245 163.716 163.8 165.246 165.251 166.654 166.597 167.95 167.844 
169.15 156.802 158.615 157.818 158.118 160.824 159.855 160.226 159.287 
159.652 163.446 162.339 162.825 161.682 162.114 161.023 161.433 166.369 
165.194 165.815 164.554 165.082 163.786 164.239 162.978 163.332 169.629 
168.365 169.161 167.785 168.44 166.997 167.511 166.049 166.413 164.958 
165.152 173.122 171.89 172.898 171.428 172.211 170.596 171.155 169.512 
169.88 168.243 168.409 166.775 166.784 176.126 175.303 176.396 175.219 
176.058 174.517 175.048 173.3 173.613 171.836 171.972 170.182 170.132 
168.369 168.234 178.017 177.746 178.716 178.189 178.971 178.018 178.493 
177.064 177.279 175.577 175.649 173.822 173.727 171.827 171.6 169.771 
169.544 179.015 179.036 179.834 179.785 180.503 180.217 180.728 179.958 
180.171 178.921 178.938 177.37 177.221 175.408 175.086 173.18 172.824 
171.018 170.729 156.333 156.146 156.842 158.108 155.874 156.638 157.961 
158.735 160.212 155.456 156.296 157.64 158.542 160.118 161.015 162.734 
154.934 155.812 157.182 158.171 159.848 160.894 162.755 163.698 165.586 
154.473 155.325 156.76 157.74 159.497 160.616 162.598 163.691 165.711 
166.663 168.709 154.153 154.976 156.476 157.408 159.187 160.296 162.326 
163.508 165.622 166.732 168.867 169.893 172.041 153.92 154.733 156.219 
157.139 158.855 159.971 161.992 163.238 165.412 166.612 168.772 169.918 
172.021 173.121 175.022 153.742 154.521 155.921 156.805 158.381 159.51 
161.487 162.853 165.107 166.42 168.576 169.728 171.674 172.823 174.559 
175.661 177.036 153.617 154.343 155.648 156.448 157.87 158.919 160.781 
162.22 164.524 166.045 168.25 169.468 171.232 172.286 173.775 174.9 
176.193 177.228 178.189 155.198 153.343 154.488 154.927 151.495 152.55 
152.95 154.183 154.637 150.01 150.773 151.021 152.144 152.597 153.857 
154.254 148.957 149.465 149.481 150.275 150.547 151.747 152.167 153.415 
153.739 147.938 148.454 148.327 148.845 148.807 149.715 150.002 151.255 
151.627 152.865 153.208 146.674 147.312 147.205 147.703 147.502 148.088 
148.139 149.146 149.492 150.722 151.104 152.353 152.795 145.368 145.987 
145.972 146.551 146.426 146.878 146.794 147.469 147.702 148.719 149.109 
150.264 150.689 151.97 152.515 144.355 144.805 144.857 145.405 145.419 
145.86 145.765 146.246 146.34 147.121 147.456 148.427 148.81 149.916 
150.41 151.727 152.352 143.709 143.987 144.058 144.478 144.566 144.958 
144.882 145.248 145.212 145.823 146.064 146.915 147.275 148.199 148.61 
149.714 150.299 151.62 152.285 143.433 143.115 143.425 143.773 142.802 
143.139 143.524 143.848 144.221 142.66 142.904 143.278 143.562 143.828 
144.165 144.434 142.727 142.846 143.101 143.289 143.426 143.682 143.869 
144.285 144.698 142.82 142.866 142.936 143.052 143.083 143.269 143.46 
143.803 144.333 144.811 145.566 143.062 142.941 142.932 142.88 142.913 
142.999 143.31 143.583 144.264 144.67 145.545 145.964 146.821 143.71 
143.384 143.472 143.142 143.296 143.12 143.594 143.698 144.533 144.826 
145.786 146.101 146.999 147.302 148.167 144.616 144.245 144.477 144.031 
144.329 143.926 144.48 144.326 145.212 145.315 146.331 146.509 147.468 
147.644 148.594 148.814 149.842 145.526 145.209 145.528 145.167 145.559 
145.166 145.715 145.432 146.235 146.169 147.152 147.21 148.21 148.29 
149.298 149.426 150.51 150.705 151.827 146.138 147.246 146.504 146.21 
148.636 147.751 147.459 146.66 146.37 150.286 149.273 148.98 148.051 
147.797 146.914 146.652 152.279 151.096 150.826 149.723 149.497 148.5 
148.332 147.367 147.232 154.639 153.322 153.111 151.798 151.615 150.417 
150.333 149.244 149.212 148.165 148.151 157.142 155.832 155.711 154.308 
154.167 152.788 152.724 151.467 151.476 150.309 150.316 149.206 149.206 
159.702 158.405 158.394 157.011 156.936 155.496 155.409 154.017 153.972 
152.688 152.676 151.471 151.47 150.315 150.327 162.438 161.098 161.199 
159.792 159.823 158.35 158.304 156.803 156.715 155.275 155.21 153.895 
153.896 152.675 152.72 151.526 151.58 165.259 163.96 164.166 162.745 
162.879 161.364 161.404 159.816 159.762 158.161 158.065 156.554 156.501 
155.158 155.184 153.967 154.024 152.832 152.883 153.978 155.134 155.036 
155.981 156.374 156.266 157.329 157.142 158.231 157.863 157.71 159.042 
158.769 160.157 159.806 161.307 159.605 159.457 161.09 160.829 162.572 
162.173 164.007 163.492 165.272 161.427 161.367 163.201 163.073 165.025 
164.785 166.753 166.374 168.177 167.588 169.047 163.153 163.232 165.186 
165.216 167.233 167.171 169.076 168.898 170.506 170.163 171.388 170.859 
171.826 164.662 164.897 166.896 167.107 169.118 169.216 171.027 170.951 
172.392 172.124 173.186 172.793 173.674 173.236 174.131 165.913 166.275 
168.226 168.612 170.539 170.835 172.554 172.649 174.047 173.865 174.953 
174.542 175.48 175.006 175.945 175.508 176.445 166.909 167.358 169.196 
169.702 171.514 171.965 173.593 173.886 175.27 175.336 176.513 176.312 
177.338 176.917 177.838 177.34 178.165 177.707 178.416 145.326 144.938 
144.939 144.706 144.725 144.629 144.32 144.395 144.245 144.559 144.424 
144.032 144.024 143.775 143.921 143.753 144.431 144.255 143.818 143.73 
143.401 143.454 143.253 143.407 143.243 144.315 144.115 143.658 143.537 
143.195 143.147 142.926 142.979 142.866 142.977 142.899 144.261 143.991 
143.496 143.363 143.03 142.984 142.735 142.726 142.565 142.652 142.618 
142.755 142.792 144.451 144.042 143.536 143.261 142.93 142.832 142.604 
142.554 142.315 142.335 142.219 142.415 142.486 142.725 142.866 144.87 
144.387 143.92 143.479 143.141 142.868 142.697 142.531 142.371 142.204 
142.066 142.061 142.131 142.359 142.573 142.84 143.045 145.363 144.89 
144.459 143.973 143.595 143.205 142.999 142.764 142.707 142.48 142.454 
142.207 142.293 142.223 142.487 142.61 142.9 143.068 143.291 145.583 
144.974 145.464 145.982 144.505 144.923 145.391 145.961 146.556 143.991 
144.418 144.807 145.362 145.924 146.549 147.134 143.43 143.831 144.174 
144.722 145.252 145.898 146.51 147.121 147.683 143.022 143.287 143.61 
144.096 144.669 145.276 145.925 146.513 147.089 147.649 148.17 142.91 
142.996 143.258 143.607 144.209 144.785 145.495 146.029 146.584 147.056 
147.534 148.088 148.598 143.056 143.034 143.256 143.394 143.91 144.375 
145.094 145.639 146.2 146.612 147.019 147.469 147.968 148.543 149.116 
143.291 143.277 143.56 143.562 144.01 144.219 144.87 145.28 145.9 
146.276 146.716 147.049 147.504 147.973 148.566 149.134 149.732 143.513 
143.537 143.903 143.941 144.431 144.498 145.1 145.263 145.905 146.132 
146.692 146.902 147.378 147.648 148.169 148.618 149.204 149.75 150.294 
146.188 146.596 146.684 147.402 147.144 147.163 147.816 147.968 148.726 
147.683 147.686 148.265 148.375 149.083 149.282 150.039 148.242 148.229 
148.811 148.843 149.552 149.681 150.469 150.628 151.428 148.781 148.818 
149.483 149.488 150.248 150.279 151.095 151.156 151.974 152.088 152.948 
149.218 149.319 149.998 150.125 150.879 150.995 151.753 151.821 152.574 
152.666 153.509 153.677 154.594 149.694 149.741 150.334 150.491 151.155 
151.417 152.107 152.326 153.005 153.184 154.002 154.235 155.188 155.38 
156.267 150.284 150.265 150.793 150.816 151.403 151.586 152.287 152.546 
153.281 153.521 154.362 154.664 155.651 155.943 156.848 156.98 157.685 
150.848 150.856 151.387 151.344 151.91 151.947 152.668 152.824 153.638 
153.836 154.698 154.984 155.938 156.302 157.194 157.447 158.111 158.217 
158.769 154.996 154.166 154.122 153.18 153.34 153.298 152.368 152.292 
151.402 152.498 152.478 151.6 151.531 150.7 150.647 149.978 151.775 
151.702 150.885 150.802 150.006 149.973 149.342 149.401 148.926 151.256 
151.115 150.384 150.226 149.483 149.344 148.699 148.731 148.249 148.385 
147.9 150.792 150.659 150.014 149.88 149.268 149.029 148.419 148.228 
147.731 147.72 147.237 147.281 146.681 150.392 150.209 149.59 149.529 
149.035 148.909 148.371 148.121 147.591 147.392 146.901 146.757 146.171 
146.051 145.425 150.269 149.935 149.297 149.135 148.644 148.605 148.108 
148 147.419 147.26 146.691 146.531 145.942 145.725 145.1 144.919 
144.413 150.404 149.983 149.327 148.975 148.403 148.233 147.73 147.642 
147.081 146.965 146.349 146.234 145.627 145.494 144.9 144.723 144.215 
144.085 143.749 
POINT_DATA 1002
SCALARS Distance double
LOOKUP_TABLE default
146.783 145.814 146.486 147.662 147.406 148.047 148.811 148.486 149.108 
149.565 150.03 149.636 150.348 150.724 151.339 151.243 150.932 151.602 
152.007 152.654 153.508 152.595 152.381 152.914 153.394 154.103 155.009 
155.945 154.084 153.806 154.382 154.882 155.652 156.568 157.504 158.399 
155.544 155.113 155.951 156.455 157.234 158.196 159.156 160.078 160.975 
156.904 156.345 157.501 158.087 158.837 159.849 160.932 161.932 162.864 
163.754 158.18 157.537 158.935 159.658 160.4 161.4 162.62 163.773 
164.759 165.656 166.485 145.334 146.038 144.887 145.667 144.586 146.934 
145.5 144.545 146.604 147.992 145.5 144.632 146.542 147.766 149.278 
145.511 144.722 146.56 147.82 149.227 150.79 145.603 144.858 146.592 
147.874 149.298 150.765 152.299 145.801 145.01 146.808 148 149.34 
150.739 152.201 153.686 146.023 145.242 147.109 148.292 149.497 150.776 
152.175 153.622 155.008 146.389 145.728 147.407 148.574 149.724 150.908 
152.24 153.665 155.023 156.283 146.829 147.625 148.168 148.99 149.491 
148.675 150.334 150.795 149.986 149.824 151.816 152.236 151.476 151.219 
151.054 153.495 153.837 153.269 152.989 152.667 152.432 155.187 155.526 
155.048 154.889 154.508 154.15 153.918 156.769 157.085 156.616 156.543 
156.24 155.832 155.59 155.36 158.182 158.307 158.124 158.103 157.898 
157.508 157.216 157.009 156.682 159.455 159.323 159.626 159.735 159.644 
159.346 159.022 158.747 158.401 157.959 159.205 159.722 161.157 160.264 
161.762 163.281 160.72 162.389 163.971 165.631 161.048 162.895 164.666 
166.469 168.358 161.302 163.151 165.17 167.26 169.318 171.226 161.467 
163.274 165.359 167.789 170.119 172.146 173.925 161.426 163.387 165.492 
168.032 170.627 172.796 174.731 176.491 161.134 163.309 165.679 168.269 
170.938 173.177 175.122 177.084 178.776 160.741 162.912 165.592 168.431 
171.183 173.451 175.264 177.125 178.984 180.372 160.08 162.216 161.005 
164.528 163.257 161.852 167.229 165.842 164.334 162.857 170.279 168.997 
167.425 165.804 164.237 173.2 172.24 170.987 169.337 167.498 165.656 
175.915 175.041 174.121 172.849 170.948 168.827 166.788 178.479 177.603 
176.587 175.585 174.079 171.972 169.802 167.737 180.443 179.866 178.802 
177.701 176.547 174.895 172.817 170.707 168.615 181.475 181.518 182.096 
182.235 182.861 180.942 183.018 184.159 181.754 179.834 183.687 185.096 
182.313 180.644 178.646 183.567 184.616 182.339 181.043 179.431 177.352 
182.72 183.078 181.943 180.94 179.73 177.98 175.531 181.631 181.493 
181.403 180.614 179.445 177.973 175.908 173.315 180.361 180.212 180.381 
179.891 178.809 177.398 175.686 173.505 171.027 178.887 179.015 178.726 
178.384 177.676 176.565 175.108 173.268 171.058 168.706 180.679 181.607 
180.758 181.822 180.802 182.309 182.125 180.472 182.999 183.647 181.663 
179.526 183.521 184.773 185.51 180.356 178.362 182.762 184.894 186.313 
186.211 178.931 177.057 181.22 183.523 185.401 186.026 184.85 177.282 
175.207 179.567 181.734 183.446 184.434 184.037 182.66 175.029 172.848 
177.41 179.699 181.41 182.496 182.731 181.987 180.984 172.465 170.443 
174.713 177.031 178.976 180.38 181.218 181.232 180.599 179.829 159.956 
161.791 160.894 163.276 162.267 164.555 165.022 163.81 166.533 167.848 
166.66 165.145 168.499 170.206 171.105 168.238 166.349 170.381 172.347 
173.525 173.749 169.933 167.65 172.305 174.269 175.45 175.808 175.623 
171.413 168.894 173.895 175.773 176.876 177.398 177.501 177.37 172.337 
169.821 174.775 176.604 177.771 178.615 179.137 179.275 179.226 158.681 
159.191 157.99 158.359 156.907 159.964 157.195 155.594 158.92 161.2 
155.99 154.458 157.681 159.99 162.636 154.982 153.451 156.587 158.708 
161.363 163.811 153.976 152.539 155.59 157.544 160.03 162.453 164.753 
153.055 151.908 154.484 156.316 158.661 161.062 163.236 165.775 152.367 
151.421 153.514 155.078 157.233 159.641 161.826 164.082 166.837 151.727 