# vtk DataFile Version 4.0
vtk output
ASCII
DATASET POLYDATA
POINTS 1002 float
-105.314 -78.6538 76.3942 -105.481 -78.0502 75.0301 -105.961 -77.8619 75.7933 
-105.945 -78.6313 77.1228 -106.646 -77.8536 76.5169 -105.243 -79.4308 77.7488 
-106.716 -78.7631 77.8332 -107.458 -77.9475 77.3108 -106 -79.5539 78.4893 
-105.347 -80.3664 79.1483 -107.542 -78.9517 78.69 -108.224 -78.0303 78.2865 
-106.836 -79.7898 79.2801 -106.219 -80.6465 79.9684 -105.701 -81.5856 80.5832 
-108.363 -79.1369 79.7058 -108.945 -78.2 79.2826 -107.69 -80.0392 80.2431 
-107.122 -80.9993 80.876 -106.665 -82.0517 81.4673 -106.249 -83.0496 81.9874 
-109.24 -79.4558 80.6612 -109.773 -78.5332 80.1355 -108.556 -80.3105 81.3153 
-107.977 -81.326 81.9173 -107.562 -82.4976 82.4556 -107.177 -83.5752 82.9682 
-106.841 -84.4969 83.4829 -110.161 -79.92 81.5103 -110.635 -78.9096 80.9901 
-109.446 -80.7439 82.3097 -108.788 -81.6838 83.0372 -108.369 -82.8846 83.5464 
-108.016 -84.0611 84.0524 -107.698 -85.0827 84.5784 -107.511 -86.0864 85.0401 
-110.946 -80.3692 82.4182 -111.303 -79.2825 81.9504 -110.322 -81.2957 83.1699 
-109.636 -82.1945 84.0226 -109.193 -83.3372 84.633 -108.893 -84.5761 85.1256 
-108.607 -85.73 85.6388 -108.434 -86.8712 86.0462 -108.373 -87.9936 86.357 
-111.526 -80.7588 83.3914 -111.81 -79.6935 82.8814 -111.088 -81.8031 84.0139 
-110.536 -82.7935 84.7894 -110.115 -83.9271 85.4898 -109.855 -85.2001 86.0382 
-109.619 -86.4446 86.5518 -109.451 -87.6644 86.9393 -109.393 -88.8529 87.1724 
-109.339 -89.8781 87.4167 -112.041 -81.1629 84.276 -112.343 -80.1525 83.6565 
-111.716 -82.2429 84.8894 -111.349 -83.3476 85.5427 -111.022 -84.5526 86.1927 
-110.789 -85.8736 86.7598 -110.589 -87.1933 87.2928 -110.429 -88.4525 87.7507 
-110.367 -89.6457 88.0164 -110.337 -90.702 88.1949 -110.233 -91.5469 88.4438 
-105.903 -77.3581 74.1221 -106.465 -77.1676 74.9448 -106.432 -76.7197 73.2231 
-107.212 -76.616 74.071 -107.283 -76.1982 72.3877 -107.277 -77.1364 75.7575 
-108.111 -76.0114 73.2528 -108.192 -75.5263 71.6147 -108.061 -76.4662 74.9679 
-108.103 -77.082 76.7173 -108.716 -74.9998 72.5948 -108.722 -74.5414 70.9179 
-108.747 -75.5837 74.28 -108.741 -76.1731 76.0997 -108.758 -77.0322 77.8534 
-109.19 -73.9259 72.0444 -109.237 -73.6951 70.2582 -109.272 -74.4437 73.7914 
-109.342 -75.1593 75.5495 -109.298 -76.009 77.3701 -109.412 -77.1726 78.9176 
-110.118 -73.3616 71.4288 -110.128 -73.2449 69.6011 -110.086 -73.5953 73.3256 
-110.077 -74.2023 75.0871 -110.01 -75.0498 76.8462 -109.993 -76.1024 78.5268 
-110.256 -77.4532 79.8553 -111.148 -72.9917 70.8471 -110.992 -72.8511 69.0828 
-111.131 -73.1151 72.8149 -110.959 -73.527 74.6599 -110.826 -74.264 76.3481 
-110.789 -75.2089 78.0317 -110.866 -76.4054 79.55 -111.084 -77.8316 80.8024 
-111.785 -72.4406 70.5056 -111.627 -72.4052 68.813 -111.88 -72.535 72.4493 
-111.742 -72.9075 74.3445 -111.563 -73.5693 76.013 -111.585 -74.4875 77.5705 
-111.654 -75.671 79.0762 -111.661 -76.9946 80.4633 -111.714 -78.3527 81.724 
-112.322 -71.9829 70.3374 -112.317 -72.1472 68.7117 -112.427 -71.9406 72.211 
-112.443 -72.2672 74.0932 -112.342 -72.8856 75.7841 -112.356 -73.7476 77.277 
-112.472 -75.0092 78.6423 -112.443 -76.4406 79.9665 -112.328 -77.715 81.2883 
-112.303 -78.914 82.5381 -113.153 -72.0018 69.6384 -113.157 -71.7272 71.4537 
-114.139 -72.0769 70.6233 -114.217 -72.0017 72.4862 -114.974 -72.5611 71.6565 
-113.274 -71.8528 73.3988 -115.055 -72.8861 73.5298 -115.48 -73.478 72.8902 
-114.348 -72.4619 74.404 -113.333 -72.4041 75.2489 -115.552 -74.0204 74.7249 
-116.069 -74.6148 74.0812 -115.086 -73.5984 75.4176 -114.375 -73.1332 76.223 
-113.322 -73.1469 76.9116 -116.259 -75.096 75.7613 -116.907 -75.832 74.9401 
-115.545 -74.8253 76.4987 -115.013 -74.4116 77.1467 -114.306 -74.0447 77.862 
-113.362 -74.3558 78.3657 -117.041 -76.3051 76.7082 -117.331 -77.2408 75.981 
-116.244 -75.9761 77.5232 -115.488 -75.8915 78.1151 -114.92 -75.5524 78.7678 
-114.221 -75.524 79.3865 -113.328 -75.9996 79.7161 -117.201 -77.8571 78.0031 
-117.046 -78.798 77.5177 -116.821 -77.2578 78.7109 -116.102 -77.2256 79.2642 
-115.444 -77.1136 79.8535 -114.864 -76.8613 80.5615 -114.102 -77.0306 80.9623 
-113.169 -77.4314 81.1076 -116.925 -79.5438 79.3866 -116.637 -80.2881 79.0179 
-116.929 -78.7904 80.0229 -116.553 -78.5192 80.6007 -115.959 -78.505 81.1282 
-115.397 -78.2404 81.8265 -114.808 -78.0525 82.3457 -113.988 -78.2739 82.4431 
-113.056 -78.6169 82.4572 -116.818 -81.1778 80.4998 -116.573 -81.6805 80.1525 
-116.953 -80.4898 81.1559 -116.849 -80.004 81.8699 -116.42 -79.917 82.4107 
-115.828 -79.8382 82.9413 -115.283 -79.5792 83.4625 -114.683 -79.4824 83.6694 
-113.872 -79.6485 83.6443 -113.014 -79.8915 83.6495 -112.742 -81.3653 84.7913 
-113.49 -81.2931 84.7866 -113.118 -82.8975 86.0725 -114.295 -81.2998 84.7452 
-113.82 -83.0909 86.0688 -113.491 -84.6688 87.5126 -114.971 -81.3895 84.6464 
-114.506 -83.3008 85.9396 -114.155 -84.9404 87.5723 -114.012 -86.6799 88.954 
-115.607 -81.523 84.3757 -115.207 -83.3792 85.6909 -114.823 -85.0794 87.4103 
-114.69 -86.9984 89.1191 -114.577 -89.146 90.2725 -116.348 -81.551 84.0599 
-116.056 -83.33 85.4911 -115.542 -85.0982 87.0638 -115.219 -87.3005 88.9461 
-115.148 -89.8286 90.5085 -114.954 -91.8668 91.597 -116.952 -81.5904 83.6887 
-116.84 -83.4128 85.4411 -116.229 -85.3071 86.8875 -115.565 -87.7196 88.4777 
-115.412 -90.5926 90.2989 -115.468 -92.84 91.7946 -115.324 -94.3621 92.8141 
-117.161 -81.9723 82.9779 -117.217 -83.8636 85.103 -116.67 -85.9057 86.8543 
-115.808 -88.2909 88.1378 -115.506 -91.191 89.75 -115.813 -93.6489 91.549 
-116.011 -95.2375 92.8169 -115.897 -96.8353 93.5036 -117.08 -82.5761 82.0906 
-117.228 -84.4651 84.2684 -116.858 -86.5835 86.4576 -116.097 -88.7803 87.8867 
-115.718 -91.3527 89.2015 -116.086 -93.9152 91.0143 -116.582 -95.8038 92.5375 
-116.665 -97.5092 93.2888 -116.494 -99.6224 93.6323 -116.895 -83.0207 81.4507 
-117.093 -84.816 83.3668 -116.888 -86.8905 85.6703 -116.399 -88.9139 87.412 
-116.127 -91.0868 88.6366 -116.395 -93.6041 90.2887 -116.907 -95.9254 92.0397 
-117.155 -97.9124 92.9988 -117.079 -100.061 93.3222 -116.927 -102.364 93.5446 
-112.385 -82.4769 85.5763 -112.769 -84.1181 87.0365 -112.077 -83.6905 86.316 
-113.223 -86.1285 88.5359 -112.493 -85.565 87.8811 -111.812 -85.0523 86.9882 
-113.764 -88.5223 89.8966 -112.923 -87.8639 89.424 -112.25 -87.1907 88.5912 
-111.594 -86.5331 87.5701 -114.247 -91.1524 91.2491 -113.42 -90.4479 90.8585 
-112.705 -89.6825 90.2112 -112.106 -88.8727 89.1469 -111.423 -88.0398 88.0936 
-114.661 -93.7858 92.64 -113.98 -93.2177 92.2558 -113.358 -92.5456 91.6746 
-112.755 -91.6607 90.7504 -112.07 -90.6066 89.6329 -111.288 -89.495 88.6213 
-115.212 -96.5961 93.5981 -114.585 -96.2619 93.3754 -114.059 -95.7611 92.8433 
-113.511 -94.9328 92.1004 -112.808 -93.7098 91.1932 -112.018 -92.2378 90.1467 
-111.222 -90.8196 89.033 -115.89 -99.7794 93.8982 -115.258 -99.6255 93.9323 
-114.653 -99.1131 93.6132 -114.041 -98.256 93.0875 -113.358 -97.0322 92.4814 
-112.633 -95.4086 91.671 -111.938 -93.5804 90.5295 -111.2 -91.9557 89.2618 
-116.51 -102.875 93.8679 -115.953 -102.906 94.0799 -115.26 -102.344 94.0253 
-114.464 -101.319 93.7614 -113.665 -100.043 93.4001 -112.974 -98.5504 92.8561 
-112.415 -96.7015 91.9411 -111.852 -94.6593 90.6953 -111.118 -92.8839 89.4461 
-117.109 -105.242 93.6665 -116.733 -105.708 94.0012 -117.33 -107.707 93.7018 
-116.874 -107.963 93.9428 -117.402 -109.93 93.2843 -116.096 -105.451 94.16 
-116.767 -110.021 93.4127 -117.219 -112.252 92.4063 -116.098 -107.572 94.0043 
-115.197 -104.493 94.1225 -116.391 -111.864 92.5594 -116.836 -114.075 91.4599 
-115.939 -109.556 93.3952 -115.108 -106.459 93.9675 -114.18 -103.051 93.9605 
-115.873 -112.763 91.7035 -116.259 -114.707 90.6115 -115.605 -110.778 92.5576 
-115.042 -108.111 93.3678 -114.054 -104.696 93.8192 -113.288 -101.456 93.5918 
-115.361 -112.679 90.9802 -115.57 -114.114 90.0006 -115.171 -110.911 91.826 
-114.83 -108.757 92.6476 -114.043 -105.917 93.2767 -113.168 -102.783 93.3411 
-112.677 -99.6864 92.8464 -114.876 -111.743 90.5531 -114.942 -112.437 89.7849 
-114.701 -110.45 91.292 -114.438 -108.656 92.0304 -113.91 -106.347 92.6273 
-113.162 -103.636 92.7682 -112.56 -100.596 92.4413 -112.193 -97.4456 91.7221 
-114.263 -109.973 90.3315 -114.325 -110.165 89.702 -114.037 -109.321 90.9264 
-113.789 -108.087 91.4932 -113.512 -106.184 91.9596 -113.028 -103.754 92.0918 
-112.423 -100.912 91.8655 -111.922 -97.8425 91.3363 -111.528 -95.0596 90.4698 
-113.446 -107.918 90.0128 -113.567 -107.95 89.4562 -113.147 -107.599 90.5653 
-112.848 -106.853 91.0576 -112.711 -105.416 91.4247 -112.533 -103.253 91.5188 
-112.083 -100.602 91.3266 -111.507 -97.768 90.935 -111.021 -95.1772 90.272 
-110.627 -93.1366 89.3565 -117.258 -103.353 93.2719 -117.45 -106.135 93.3169 
-117.406 -103.98 92.899 -117.654 -106.655 92.7282 -117.517 -104.293 92.2529 
-117.676 -108.765 93.0929 -117.811 -106.98 91.8415 -117.673 -104.324 91.3421 
-117.83 -109.744 92.1056 -117.74 -111.67 92.2312 -117.868 -106.975 90.918 
-117.567 -103.893 90.5446 -117.8 -110.243 91.0266 -117.853 -113.237 90.871 
-117.664 -114.536 91.0325 -117.536 -106.275 90.3456 -116.889 -102.752 90.1507 
-117.603 -109.582 90.3289 -117.656 -113.112 89.8867 -117.876 -115.816 89.6024 
-117.349 -116.146 90.0072 -116.754 -104.706 90.1228 -115.974 -100.894 89.8848 
-117.183 -107.98 90.0463 -117.266 -111.05 89.6221 -117.577 -114.404 88.9884 
-117.478 -116.431 88.8085 -116.527 -115.974 89.3025 -115.926 -102.344 89.8185 
-115.316 -98.6057 89.257 -116.562 -105.875 89.8255 -116.833 -108.642 89.5426 
-117.022 -111.445 89.1064 -117.043 -114.183 88.615 -116.378 -115.243 88.532 
-115.499 -114.289 89.0518 -115.296 -99.516 89.0647 -114.877 -96.2982 88.157 
-115.891 -103.092 89.3804 -116.331 -106.182 89.2488 -116.521 -108.712 89.0853 
-116.493 -111.086 88.8658 -115.99 -112.73 88.5618 -115.224 -112.852 88.6042 
-114.704 -111.733 89.1108 -114.727 -96.765 87.887 -114.407 -94.2986 86.8363 
-115.209 -99.8107 88.5765 -115.682 -102.95 88.7776 -115.952 -105.688 88.7853 
[...]
CELL_DATA 2000
SCALARS Distance double
LOOKUP_TABLE default
150.652 151.401 151.208 151.641 152.338 152.072 152.546 152.307 152.813 
153.401 153.098 153.601 153.315 153.887 153.624 154.266 154.517 154.217 
154.766 154.453 155.08 154.801 155.527 155.256 156.03 155.695 155.396 
156.009 155.679 156.342 156.056 156.831 156.581 157.402 157.122 157.939 
156.934 156.646 157.314 156.976 157.66 157.355 158.14 157.901 158.754 
158.505 159.357 159.071 159.949 158.138 157.904 158.606 158.305 159.003 
158.696 159.485 159.233 160.12 159.879 160.794 160.52 161.456 161.171 
162.148 159.233 159.065 159.793 159.568 160.294 160.03 160.836 160.598 
161.517 161.291 162.263 162.007 162.991 162.715 163.711 163.43 164.407 
160.252 160.118 160.87 160.713 161.482 161.289 162.122 161.933 162.864 
162.687 163.676 163.478 164.478 164.246 165.236 164.977 165.935 165.646 
166.538 150.189 149.747 150.254 150.909 149.532 149.92 150.606 151.087 
151.845 149.47 149.816 150.465 150.867 151.592 152.089 152.885 149.174 
149.646 150.217 150.691 151.334 151.833 152.572 153.126 153.942 148.758 
149.218 149.795 150.323 150.98 151.517 152.229 152.784 153.58 154.184 
155.058 148.716 148.984 149.662 150.013 150.765 151.204 151.982 152.47 
153.276 153.832 154.715 155.337 156.264 148.928 149.162 149.893 150.126 
150.877 151.165 151.946 152.325 153.147 153.611 154.49 155.038 155.965 
156.568 157.473 149.055 149.347 150.041 150.354 151.044 151.334 152.032 
152.355 153.141 153.554 154.435 154.906 155.814 156.324 157.212 157.758 
158.591 149.248 149.439 150.093 150.404 151.108 151.436 152.144 152.449 
153.214 153.581 154.467 154.907 155.829 156.264 157.13 157.569 158.388 
158.865 159.641 149.69 150.768 150.256 150.468 152.092 151.476 151.663 
151.166 151.496 153.511 152.902 153.165 152.541 152.829 152.28 152.6 
154.978 154.367 154.691 154.097 154.402 153.757 154.021 153.414 153.722 
156.537 155.882 156.173 155.593 155.913 155.316 155.594 154.945 155.245 
154.629 155.007 158.104 157.463 157.738 157.103 157.423 156.813 157.148 
156.527 156.882 156.249 156.633 156.007 156.389 159.523 158.99 159.308 
158.696 159.031 158.392 158.763 158.129 158.539 157.913 158.321 157.673 
158.018 157.36 157.667 160.771 160.346 160.724 160.219 160.595 160.019 
160.412 159.795 160.217 159.595 160.014 159.365 159.703 159.004 159.268 
158.589 158.871 161.987 161.593 162.052 161.609 162.075 161.567 162.026 
161.446 161.88 161.267 161.675 161.043 161.389 160.698 160.959 160.228 
160.471 159.793 160.086 160.982 161.413 161.632 162.576 161.92 162.132 
163.109 163.334 164.375 162.365 162.635 163.616 163.878 164.946 165.219 
166.375 162.692 163.036 164.027 164.336 165.396 165.744 166.967 167.326 
168.616 162.963 163.368 164.431 164.747 165.791 166.132 167.363 167.851 
169.281 169.688 171.03 163.138 163.642 164.829 165.214 166.295 166.556 
167.701 168.167 169.645 170.272 171.794 172.144 173.391 163.142 163.746 
165.012 165.592 166.785 167.103 168.155 168.492 169.839 170.526 172.158 
172.798 174.198 174.44 175.551 163.034 163.657 164.901 165.653 166.943 
167.496 168.55 168.891 170.023 170.633 172.185 173.021 174.569 175.104 
176.29 176.496 177.542 162.901 163.489 164.636 165.426 166.709 167.475 
168.578 169.1 170.089 170.67 172.001 172.905 174.477 175.304 176.605 
177.057 178.079 178.359 179.359 161.076 162.657 161.806 161.735 164.478 
163.517 163.456 162.524 162.429 166.536 165.481 165.473 164.408 164.342 
163.295 163.182 168.808 167.678 167.721 166.57 166.545 165.382 165.292 
164.14 164.012 171.192 170.042 170.117 168.925 168.948 167.719 167.664 
166.401 166.278 165.041 164.883 173.531 172.447 172.59 171.409 171.536 
170.267 170.317 168.944 168.865 167.462 167.299 165.957 165.749 175.76 
174.788 175.069 173.954 174.215 172.977 173.157 171.765 171.769 170.242 
170.078 168.537 168.284 166.838 166.555 177.897 177.058 177.508 176.488 
176.833 175.673 175.871 174.592 174.61 173.179 173 171.426 171.097 
169.495 169.11 167.617 167.255 179.856 179.211 179.787 178.921 179.289 
178.219 178.337 177.148 177.073 175.814 175.6 174.217 173.858 172.312 
171.835 170.235 169.74 168.254 167.825 181.052 182.797 181.725 181.105 
184.162 183.32 182.701 181.558 180.608 185.11 184.448 183.833 182.928 
181.934 180.757 179.556 185.666 185.162 184.523 183.857 182.904 181.888 
180.604 179.45 178.156 185.603 185.373 184.634 184.288 183.397 182.68 
181.409 180.35 178.943 177.903 176.606 184.869 184.934 184.138 184.067 
183.206 182.881 181.718 180.962 179.531 178.57 177.157 176.232 174.867 
183.637 183.969 183.257 183.361 182.536 182.452 181.419 181.009 179.681 
178.958 177.48 176.639 175.143 174.296 172.81 182.006 182.579 181.95 
182.296 181.494 181.629 180.647 180.521 179.276 178.845 177.352 176.709 
175.098 174.372 172.774 172.058 170.589 180.127 180.822 180.206 180.761 
179.965 180.352 179.385 179.545 178.339 178.195 176.707 176.294 174.632 
174.079 172.428 171.848 170.354 169.81 168.534 181.201 181.684 181.992 
182.916 181.789 182.308 183.322 183.621 184.345 181.598 182.274 183.373 
183.902 184.822 184.965 185.446 181.103 181.967 183.093 183.824 184.912 
185.381 186.131 186.051 186.221 180.132 181.284 182.363 183.31 184.314 
185.187 186.099 186.574 186.924 186.65 186.324 178.598 180.043 181.101 
182.27 183.037 184.134 184.883 185.977 186.448 186.92 186.624 186.303 
185.515 176.641 178.256 179.329 180.729 181.42 182.559 183.062 184.287 
184.714 185.781 185.631 186.001 185.186 185.021 184.043 174.454 176.096 
177.091 178.709 179.443 180.755 181.183 182.35 182.657 183.793 183.749 
184.52 183.866 184.161 183.186 183.233 182.255 172.214 173.751 174.55 
176.247 176.936 178.514 178.932 180.289 180.488 181.687 181.617 182.541 
182.025 182.579 181.731 182.042 181.113 181.278 180.336 163.133 164.051 
164 164.916 164.954 164.979 165.979 165.966 166.971 165.719 165.834 
166.85 166.971 167.993 168.006 168.847 166.534 166.619 167.706 167.821 
168.92 168.972 169.916 169.779 170.498 167.644 167.653 168.946 168.913 
170.213 170.104 171.293 171.053 172.093 171.676 172.598 168.826 168.932 
170.394 170.398 171.866 171.713 173.094 172.782 174.064 173.614 174.776 
174.177 175.153 169.767 170.055 171.541 171.774 173.269 173.357 174.778 
174.667 175.974 175.681 176.834 176.378 177.293 176.667 177.293 170.539 
170.909 172.43 172.774 174.321 174.583 176.073 176.18 177.504 177.409 
178.494 178.212 179.037 178.574 179.136 178.481 178.816 171.284 171.694 
173.325 173.692 175.364 175.649 177.268 177.428 178.848 178.816 179.92 
179.692 180.507 180.133 180.739 180.204 180.63 179.896 180.158 162.307 
161.277 162.214 163.09 160.14 161.094 161.953 163.012 163.948 159.046 
159.92 160.739 161.818 162.787 163.858 164.749 158.112 158.866 159.581 
160.58 161.55 162.679 163.638 164.637 165.522 157.264 157.962 158.559 
159.423 160.287 161.415 162.434 163.528 164.453 165.448 166.451 156.42 
157.104 157.628 158.384 159.094 160.132 161.13 162.304 163.302 164.358 
165.305 166.404 167.491 155.586 156.252 156.746 157.438 158.038 158.937 
159.838 160.993 162.034 163.169 164.109 165.189 166.147 167.349 168.398 
154.785 155.415 155.892 156.556 157.105 157.895 158.671 159.715 160.705 
161.869 162.826 163.93 164.807 165.943 166.88 168.132 169.133 154.095 
154.64 155.097 155.719 156.25 156.972 157.658 158.567 159.444 160.538 
161.479 162.603 163.471 164.57 165.419 166.593 167.519 168.807 169.803 
153.925 154.04 154.258 154.884 154.288 154.442 155.091 155.315 156.06 
154.617 154.777 155.489 155.648 156.453 156.64 157.517 154.878 155.129 
155.937 156.137 157.01 157.167 158.108 158.27 159.288 155.148 155.406 
156.321 156.601 157.587 157.796 158.811 158.965 160.031 160.191 161.288 
155.702 155.825 156.813 157.051 158.149 158.405 159.535 159.732 160.863 
161.007 162.121 162.242 163.3 156.515 156.557 157.553 157.686 158.798 
159.023 160.213 160.469 161.673 161.87 163.018 163.125 164.199 164.253 
165.273 157.322 157.405 158.39 158.496 159.567 159.735 160.908 161.161 
162.411 162.668 163.888 164.041 165.173 165.223 166.312 166.307 167.38 
158.016 158.162 159.158 159.303 160.368 160.525 161.694 161.908 163.195 
163.446 164.759 164.945 166.191 166.266 167.466 167.462 168.652 168.574 
169.711 158.704 160.277 159.627 159.936 162.115 161.369 161.746 160.963 
161.251 164.248 163.4 163.903 162.995 163.379 162.418 162.704 166.733 
165.767 166.396 165.379 165.898 164.806 165.179 164.038 164.315 169.547 
168.503 169.24 168.099 168.707 167.523 167.991 166.739 167.037 165.754 
165.948 172.469 171.484 172.368 171.167 171.859 170.539 171.087 169.723 
170.1 168.665 168.834 167.4 167.458 175.162 174.386 175.403 174.368 
175.201 173.891 174.55 173.064 173.552 171.95 172.2 170.518 170.543 
168.917 168.85 177.4 176.883 177.922 177.217 178.148 177.166 177.933 
176.626 177.167 175.578 175.864 174.087 174.118 172.255 172.103 170.325 
170.131 179.168 178.864 179.866 179.441 180.377 179.788 180.589 179.716 
180.227 178.987 179.176 177.643 177.597 175.85 175.605 173.722 173.354 
171.542 171.199 158.214 157.898 158.604 159.743 157.521 158.279 159.473 
160.232 161.511 157.084 157.881 159.103 159.937 161.291 162.107 163.558 
156.636 157.442 158.689 159.553 160.983 161.887 163.457 164.312 165.968 
156.255 157.046 158.342 159.18 160.657 161.596 163.27 164.227 165.99 
166.876 168.685 155.94 156.729 158.083 158.905 160.385 161.3 163.001 
164.033 165.879 166.88 168.744 169.663 171.509 155.666 156.438 157.824 
158.68 160.164 161.047 162.702 163.741 165.649 166.755 168.708 169.696 
171.556 172.45 174.185 155.497 156.183 157.551 158.421 159.934 160.821 
162.423 163.42 165.314 166.503 168.57 169.669 171.563 172.463 174.142 
174.97 176.465 155.48 156.052 157.349 158.162 159.669 160.571 162.135 
163.1 164.877 166.094 168.159 169.447 171.388 172.407 173.998 174.833 
176.221 177.024 178.264 157.242 155.725 156.597 156.863 154.26 155.056 
155.232 156.168 156.444 152.835 153.571 153.635 154.501 154.689 155.697 
155.976 151.42 152.109 152.083 152.872 152.931 153.883 154.083 155.171 
155.472 150.074 150.683 150.594 151.304 151.259 152.097 152.175 153.211 
153.467 154.642 155.015 148.857 149.37 149.204 149.82 149.713 150.442 
150.437 151.332 151.534 152.634 153.021 154.228 154.679 147.78 148.217 
148.014 148.488 148.317 148.926 148.882 149.663 149.833 150.808 151.215 
152.329 152.835 153.978 154.468 146.891 147.261 147.131 147.446 147.255 
147.652 147.567 148.188 148.326 149.189 149.575 150.626 151.18 152.275 
152.83 153.88 154.392 146.245 146.543 146.532 146.749 146.607 146.798 
146.682 147.055 147.144 147.794 148.113 149.03 149.553 150.651 151.27 
152.354 152.932 153.921 154.454 146.015 145.848 146.054 146.273 145.638 
145.817 145.933 146.183 146.3 145.505 145.554 145.573 145.774 145.871 
146.148 146.338 145.747 145.54 145.488 145.471 145.596 145.795 146.088 
146.354 146.788 146.451 146.032 145.952 145.614 145.722 145.72 146.121 
146.29 146.815 147.045 147.72 147.371 146.915 146.841 146.296 146.323 
146.086 146.52 146.557 147.172 147.261 147.977 148.206 149.121 148.248 
147.863 147.824 147.257 147.233 146.843 147.263 147.177 147.889 147.847 
148.619 148.661 149.607 149.838 150.889 149.049 148.718 148.76 148.25 
148.271 147.821 148.224 148.056 148.818 148.736 149.555 149.479 150.393 
150.479 151.517 151.695 152.654 149.855 149.537 149.679 149.233 149.356 
148.905 149.289 149.06 149.769 149.695 150.492 150.433 151.27 151.305 
152.257 152.383 153.319 153.412 154.223 150.414 151.339 150.67 150.252 
152.487 151.68 151.252 150.494 150.045 153.94 152.971 152.579 151.667 
151.292 150.428 150.124 155.714 154.613 154.262 153.195 152.875 151.884 
151.646 150.75 150.625 157.669 156.535 156.266 155.092 154.832 153.681 
153.457 152.413 152.277 151.385 151.326 159.748 158.599 158.447 157.248 
157.095 155.852 155.687 154.442 154.296 153.175 153.12 152.163 152.166 
162.005 160.826 160.769 159.539 159.456 158.212 158.111 156.828 156.698 
155.412 155.327 154.157 154.17 153.136 153.192 164.295 163.174 163.182 
161.955 161.888 160.619 160.513 159.25 159.125 157.857 157.735 156.492 
156.423 155.271 155.254 154.209 154.21 166.43 165.427 165.478 164.354 
164.314 163.075 162.965 161.672 161.538 160.255 160.132 158.881 158.777 
157.562 157.465 156.309 156.21 155.156 155.076 155.879 157.144 156.892 
157.791 158.526 158.303 159.332 159.072 160.136 159.914 159.76 160.908 
160.703 161.864 161.558 162.654 161.322 161.208 162.484 162.339 163.658 
163.388 164.68 164.252 165.51 162.791 162.698 164.109 164.01 165.523 
165.317 166.86 166.493 168.031 167.477 168.909 164.244 164.203 165.676 
165.674 167.303 167.251 168.945 168.76 170.426 170.065 171.565 170.963 
172.156 165.568 165.608 167.059 167.168 168.809 168.947 170.691 170.742 
172.412 172.282 173.713 173.357 174.466 173.866 174.689 166.703 166.833 
168.264 168.45 170.085 170.335 172.115 172.333 174.046 174.074 175.502 
175.271 176.369 175.919 176.771 176.142 176.838 167.642 167.864 169.299 
169.57 171.204 171.533 173.309 173.641 175.376 175.563 177.037 176.948 
178.09 177.742 178.651 178.13 178.889 178.227 178.849 148.719 148.409 
148.264 147.756 148.217 147.99 147.349 147.261 146.845 148.084 147.819 
147.198 146.956 146.476 146.454 146.298 148.261 147.855 147.368 146.976 
146.543 146.285 146.103 146.138 146.237 148.656 148.203 147.714 147.286 
146.849 146.498 146.231 146.094 146.088 146.196 146.316 148.827 148.484 
147.824 147.507 146.916 146.686 146.271 146.168 145.971 146.03 145.989 
146.168 146.134 148.89 148.53 147.856 147.493 146.859 146.598 146.146 
146.049 145.794 145.821 145.688 145.798 145.706 145.863 145.76 149.212 
148.743 148.268 147.741 147.294 146.775 146.429 146.06 145.859 145.69 
145.593 145.564 145.524 145.555 145.535 145.582 145.582 149.717 149.247 
148.897 148.388 148.069 147.502 147.189 146.634 146.351 145.945 145.759 
145.576 145.528 145.505 145.566 145.565 145.668 145.638 145.778 148.883 
147.95 148.622 149.097 147.096 147.707 148.209 148.927 149.478 146.587 
146.995 147.523 148.127 148.746 149.379 149.947 146.489 146.679 147.148 
147.584 148.237 148.795 149.466 149.985 150.614 146.52 146.652 146.962 
147.267 147.809 148.343 149.026 149.592 150.233 150.736 151.317 146.338 
146.576 146.799 147.053 147.43 147.882 148.484 149.095 149.71 150.283 
150.774 151.306 151.736 145.936 146.244 146.506 146.822 147.184 147.538 
148.07 148.565 149.186 149.721 150.234 150.715 151.133 151.621 152.04 
145.682 145.859 146.158 146.497 146.955 147.325 147.865 148.256 148.856 
149.292 149.878 150.286 150.794 151.16 151.643 152.034 152.531 145.839 
145.799 146.099 146.28 146.804 147.139 147.732 148.087 148.642 149.021 
149.587 150.008 150.589 150.968 151.512 151.822 152.33 152.649 153.142 
149.513 149.8 149.956 150.644 150.161 150.314 150.995 151.168 151.907 
150.524 150.639 151.291 151.493 152.198 152.438 153.232 151.111 151.059 
151.662 151.778 152.516 152.733 153.565 153.823 154.714 151.83 151.746 
152.292 152.259 152.972 153.112 154.015 154.25 155.214 155.419 156.34 
152.291 152.373 152.904 152.906 153.501 153.6 154.426 154.701 155.673 
155.95 156.869 157.054 157.892 152.589 152.726 153.309 153.404 153.975 
154.07 154.781 155.038 155.926 156.285 157.164 157.47 158.261 158.498 
159.243 153.036 153.089 153.731 153.814 154.476 154.542 155.256 155.4 
156.214 156.482 157.304 157.627 158.393 158.721 159.459 159.745 160.45 
153.599 153.611 154.251 154.319 155.023 155.097 155.828 155.921 156.673 
156.822 157.563 157.777 158.506 158.8 159.561 159.892 160.655 160.927 
161.643 157.139 156.467 156.429 155.661 155.684 155.719 155 154.979 
154.249 154.894 154.918 154.253 154.3 153.633 153.601 152.877 154.371 
154.239 153.598 153.587 152.983 152.981 152.307 152.235 151.502 154.14 
153.89 153.214 153.053 152.428 152.368 151.74 151.681 151.001 150.894 
150.203 153.945 153.719 153.009 152.754 152.015 151.849 151.169 151.119 
150.486 150.426 149.775 149.658 149.016 153.701 153.519 152.866 152.582 
151.801 151.489 150.717 150.563 149.93 149.903 149.297 149.229 148.573 
148.477 147.88 153.496 153.312 152.75 152.486 151.798 151.397 150.635 
150.267 149.626 149.443 148.895 148.776 148.15 148.015 147.379 147.34 
146.868 153.363 153.151 152.612 152.395 151.803 151.47 150.8 150.366 
149.733 149.361 148.836 148.553 148.005 147.72 147.112 146.905 146.415 
146.417 146.141 
POINT_DATA 1002
SCALARS Distance double
LOOKUP_TABLE default
151.032 150.154 150.773 151.824 151.609 152.07 152.786 152.623 153.031 
153.341 153.89 153.693 154.131 154.503 154.957 155.071 154.789 155.341 
155.77 156.311 156.823 156.33 155.969 156.627 157.061 157.664 158.234 
158.763 157.64 157.197 157.975 158.381 158.98 159.619 160.219 160.869 
158.878 158.342 159.303 159.735 160.341 161.041 161.724 162.428 163.15 
159.979 159.381 160.526 161.056 161.719 162.493 163.257 163.994 164.713 
165.358 160.997 160.381 161.636 162.288 163.025 163.851 164.689 165.489 
166.225 166.868 167.388 149.645 150.349 149.251 150.165 149.186 151.308 
150.102 149.128 151.133 152.341 149.712 148.687 150.843 152.03 153.348 
149.26 148.332 150.418 151.684 152.979 154.418 149.366 148.457 150.367 
151.516 152.753 154.102 155.628 149.669 148.663 150.651 151.618 152.71 
153.983 155.388 156.881 149.714 148.794 150.748 151.738 152.743 153.974 
155.352 156.705 158.054 149.815 149.139 150.756 151.826 152.871 154.031 
155.4 156.738 157.95 159.163 150.12 150.839 151.35 152.245 152.684 
151.91 153.78 154.073 153.474 153.108 155.254 155.612 155.043 154.692 
154.267 156.783 157.221 156.485 156.216 155.879 155.592 158.39 158.706 
158.044 157.742 157.491 157.28 157.031 159.88 159.991 159.659 159.394 
159.158 158.974 158.712 158.315 161.176 161.155 161.124 161.007 160.838 
160.659 160.413 159.988 159.504 162.452 162.357 162.533 162.576 162.499 
162.308 162.062 161.697 161.195 160.716 161.852 162.332 163.548 162.874 
164.127 165.456 163.34 164.639 166.078 167.597 163.713 165.035 166.521 
168.307 169.951 164.087 165.498 166.844 168.73 170.814 172.332 164.344 
166.062 167.333 168.936 171.282 173.294 174.552 164.322 166.378 167.924 
169.221 171.373 173.826 175.476 176.63 164.122 166.266 168.196 169.542 
171.317 173.871 176.012 177.386 178.618 163.897 165.897 167.974 169.573 
171.159 173.533 176.032 177.776 179.08 180.386 162.573 164.433 163.365 
166.56 165.431 164.236 168.882 167.726 166.484 165.162 171.301 170.173 
168.952 167.563 166.113 173.715 172.759 171.682 170.322 168.716 167.072 
176.103 175.395 174.498 173.298 171.695 169.829 167.954 178.453 177.978 
177.135 175.989 174.551 172.761 170.707 168.674 180.574 180.345 179.555 
178.329 176.91 175.345 173.475 171.328 169.222 182.204 182.404 183.79 
183.773 184.93 181.933 184.648 185.762 183.085 180.792 185.086 186.16 
183.844 181.793 179.236 184.881 185.773 183.942 182.413 180.029 177.569 
184.154 184.684 183.385 182.297 180.452 178.12 175.788 183.073 183.161 
182.548 181.68 180.287 178.31 176.016 173.631 181.51 181.354 181.273 
180.665 179.601 177.945 175.809 173.477 171.22 179.607 179.425 179.505 
179.122 178.374 177.047 175.136 172.959 170.853 168.993 181.019 182.759 
181.281 182.892 181.203 184.321 182.736 180.862 184.503 185.654 182.31 
180.147 184.247 186.002 186.751 181.405 178.856 183.386 185.325 186.981 
187.048 179.878 177.07 182.03 183.704 185.632 186.734 186.092 177.831 
175.033 180.287 181.951 183.538 184.982 185.179 184.29 175.434 172.902 
178.018 180.033 181.57 182.869 183.404 183.019 182.254 172.925 170.819 
175.298 177.501 179.271 180.629 181.359 181.321 180.859 180.231 163.148 
164.958 164.05 165.934 164.884 167.052 166.691 165.587 167.934 169.002 
167.587 166.435 168.846 169.985 170.767 168.945 167.559 170.312 171.486 
172.413 173.107 170.299 168.626 171.946 173.347 174.456 175.332 175.898 
171.246 169.435 173.083 174.787 176.21 177.267 177.914 178.077 172.051 
170.137 174 175.888 177.552 178.759 179.464 179.741 179.6 161.42 
162.076 160.338 160.871 159.216 162.914 159.679 158.25 161.672 163.78 
158.677 157.415 160.395 162.589 164.55 157.8 156.581 159.205 161.267 
163.45 165.366 156.936 155.748 158.153 159.928 162.2 164.263 166.292 
156.076 154.937 157.23 158.735 160.854 163.051 165.02 167.135 155.236 
154.185 156.368 157.723 159.558 161.706 163.726 165.679 167.829 154.502 