# vtk DataFile Version 4.0
vtk output
ASCII
DATASET POLYDATA
POINTS 1002 float
-84.9531 -83.8117 74.4162 -84.911 -83.3119 73.1528 -84.6767 -82.9421 74.0801 
-84.5751 -83.5907 75.2743 -84.4338 -82.5728 75.0457 -84.9639 -84.3914 75.7742 
-84.2083 -83.4417 76.2285 -84.0611 -82.3787 76.0008 -84.5136 -84.3872 76.6336 
-84.9176 -85.2963 77.174 -83.8202 -83.4685 77.3247 -83.4572 -82.4902 76.8556 
-84.1867 -84.4565 77.8126 -84.5731 -85.4466 78.2568 -84.8006 -86.5463 78.6967 
-83.3368 -83.6867 78.342 -82.8644 -82.7921 77.7291 -83.8708 -84.6351 79.0809 
-84.3225 -85.6465 79.6815 -84.5465 -86.7854 80.0554 -84.64 -87.9402 80.4199 
-82.9085 -83.9933 79.4148 -82.5892 -83.1116 79.0227 -83.3976 -84.9383 80.0301 
-83.8604 -85.9913 80.7621 -84.1794 -87.1461 81.3727 -84.3538 -88.3457 81.8398 
-84.5314 -89.4403 82.2436 -82.6113 -84.3514 80.8405 -82.4346 -83.4386 80.5985 
-82.9138 -85.3535 81.1066 -83.1925 -86.4892 81.529 -83.5137 -87.6895 82.1466 
-83.8705 -88.9156 82.8454 -84.1657 -90.0867 83.4766 -84.3923 -91.1371 83.8853 
-82.2639 -84.7218 82.1772 -82.1225 -83.7531 81.8933 -82.5191 -85.8354 82.4394 
-82.6783 -87.062 82.7018 -82.8748 -88.2801 83.0752 -83.2431 -89.5245 83.5882 
-83.5934 -90.8136 84.215 -83.8539 -92.0035 84.8036 -84.0518 -93.0187 85.1565 
-81.874 -85.0235 83.1222 -81.7785 -84.0195 82.9042 -82.151 -86.256 83.4634 
-82.3534 -87.6254 83.8929 -82.5061 -88.885 84.353 -82.782 -90.0732 84.707 
-83.0126 -91.4306 84.9743 -83.1511 -92.8511 85.3639 -83.3732 -94.0517 85.8422 
-83.6458 -94.9912 86.1895 -81.6315 -85.3162 84.0368 -81.6145 -84.3126 83.9475 
-81.8534 -86.6005 84.2878 -82.0645 -88.1134 84.7239 -82.2101 -89.5369 85.2947 
-82.4573 -90.7238 85.7963 -82.6577 -91.9955 86.009 -82.6541 -93.5302 86.0984 
-82.7321 -94.9979 86.388 -83.0483 -96.1179 86.8336 -83.4133 -96.9574 87.188 
-84.7698 -82.4539 72.5902 -84.6099 -81.9585 73.6638 -84.6715 -81.468 72.1348 
-84.4399 -80.938 73.2775 -84.5875 -80.4906 71.733 -84.3718 -81.511 74.7529 
-84.1483 -79.9793 72.8378 -84.6164 -79.381 71.5063 -83.9798 -80.5378 74.3463 
-83.8059 -81.3525 75.6431 -84.0203 -78.9578 72.5874 -84.6865 -78.1666 71.5845 
-83.429 -79.6607 73.8122 -83.2042 -80.4087 75.1266 -83.0195 -81.5198 76.335 
-84.1217 -77.9704 72.7756 -84.6555 -77.1867 71.845 -83.323 -78.7584 73.6501 
-82.7352 -79.4329 74.7202 -82.5775 -80.3969 75.9153 -82.565 -81.7831 77.3367 
-84.3097 -77.0777 73.2769 -84.777 -76.4115 72.2812 -83.7193 -77.8973 74.1245 
-82.9408 -78.486 74.9686 -82.4705 -79.1181 75.9806 -82.4753 -80.4277 77.2985 
-82.5249 -82.0731 78.9482 -84.6078 -76.1535 73.9388 -85.2176 -75.7511 73.0266 
-84.1697 -77.0076 74.8636 -83.5571 -77.7563 75.74 -82.7879 -78.1541 76.644 
-82.4719 -79.0396 77.7482 -82.5398 -80.7413 79.1378 -82.4156 -82.4558 80.6236 
-84.9992 -75.4728 74.7202 -85.7275 -75.455 73.9467 -84.4676 -76.1415 75.5941 
-84.0367 -77.1075 76.5278 -83.3264 -77.6961 77.4702 -82.6259 -78.2406 78.468 
-82.4571 -79.5544 79.5982 -82.4285 -81.3332 80.822 -82.1162 -82.8453 81.9664 
-85.4276 -75.3282 75.529 -86.1511 -75.5666 74.8033 -84.7481 -75.6508 76.3406 
-84.2933 -76.5098 77.2539 -83.8271 -77.3516 78.2024 -83.1296 -77.9816 79.144 
-82.6086 -78.9398 80.1213 -82.4574 -80.4089 81.1776 -82.2542 -81.9208 82.244 
-81.8782 -83.1888 83.1799 -86.1823 -75.6255 76.073 -85.4119 -75.5643 76.9313 
-86.3487 -75.8588 77.458 -85.5755 -75.9887 78.5085 -86.6001 -76.2899 78.8745 
-84.7143 -76.0246 77.8963 -85.8407 -76.527 80.0344 -86.782 -76.9858 80.1987 
-84.8659 -76.4705 79.5835 -84.2659 -76.8452 78.8857 -85.9853 -77.4186 81.2978 
-86.8469 -77.959 81.503 -85.068 -77.1768 80.9924 -84.4135 -77.3706 80.4524 
-83.8153 -77.7477 79.7835 -86.0064 -78.6714 82.5271 -86.8326 -79.0922 82.8325 
-85.1485 -78.4538 82.1199 -84.5591 -78.514 81.64 -84.0019 -78.698 81.1382 
-83.2176 -78.8071 80.6486 -86.0019 -79.9311 83.8614 -86.7376 -80.3252 84.0046 
-85.206 -79.798 83.5108 -84.5919 -79.9489 82.9419 -84.0959 -80.0952 82.3824 
-83.4294 -80.0786 82.012 -82.7636 -80.1022 81.6614 -85.9584 -81.1948 84.992 
-86.6217 -81.6335 84.9402 -85.2808 -80.8827 85.0102 -84.6542 -80.923 84.7205 
-84.0474 -81.1414 84.0949 -83.4258 -81.2069 83.5701 -82.8507 -81.2194 83.2535 
-82.4471 -81.4498 82.8213 -85.9317 -82.5871 85.8085 -86.5865 -82.9069 85.7529 
-85.3167 -82.1583 86.0294 -84.7632 -81.8598 86.2028 -84.1061 -81.8752 85.9242 
-83.3718 -82.0241 85.3489 -82.789 -82.1512 84.9249 -82.3842 -82.3675 84.5252 
-82.0713 -82.7371 83.8852 -86.0021 -83.9545 86.54 -86.6362 -84.0748 86.5327 
-85.3817 -83.6875 86.684 -84.8596 -83.31 86.9767 -84.2718 -83.0664 87.0731 
-83.5222 -83.0817 86.7504 -82.8505 -83.2364 86.3131 -82.4016 -83.4416 85.9634 
-82.0487 -83.6936 85.4571 -81.7519 -83.9846 84.6989 -81.601 -85.3983 85.1546 
-81.7954 -85.2212 85.9639 -81.7341 -86.9423 86.5193 -82.1355 -85.0713 86.5842 
-81.971 -86.8705 87.144 -81.8678 -88.8953 87.8824 -82.5211 -84.9016 86.9675 
-82.3021 -86.7602 87.5604 -82.1352 -88.7929 88.284 -82.0141 -91.0273 89.0569 
-83.0323 -84.749 87.3331 -82.661 -86.6372 87.9896 -82.4116 -88.6438 88.7692 
-82.2962 -90.9273 89.4976 -82.2519 -93.2154 90.0831 -83.7548 -84.6981 87.6714 
-83.1897 -86.5878 88.3857 -82.7481 -88.576 89.3323 -82.5643 -90.8716 90.1442 
-82.5068 -93.3027 90.6997 -82.4558 -95.6571 91.2094 -84.4783 -84.8324 87.7321 
-83.9501 -86.6166 88.5456 -83.3786 -88.5587 89.5496 -83.033 -90.848 90.4907 
-82.886 -93.382 91.1624 -82.7076 -95.8653 91.7674 -82.5437 -98.4856 92.3528 
-85.0685 -85.0796 87.5577 -84.7014 -86.6832 88.5331 -84.2263 -88.4894 89.536 
-83.8004 -90.6857 90.4185 -83.5189 -93.2451 91.1415 -83.2376 -95.8406 91.8637 
-82.9042 -98.4947 92.6002 -82.6448 -101.313 93.0816 -85.6775 -85.2307 87.4199 
-85.351 -86.6957 88.4764 -84.9713 -88.3791 89.5303 -84.5784 -90.4261 90.3708 
-84.2169 -92.853 91.0535 -83.8609 -95.4537 91.7673 -83.5038 -98.1508 92.5239 
-83.1541 -100.966 93.1091 -82.8291 -103.634 93.3157 -86.3378 -85.2467 87.3785 
-85.9988 -86.6187 88.3931 -85.597 -88.2304 89.4389 -85.1904 -90.1808 90.3041 
-84.805 -92.4357 91.0337 -84.3897 -94.8603 91.7859 -84.0141 -97.4763 92.517 
-83.7289 -100.301 93.0869 -83.4175 -103.053 93.3815 -83.0349 -105.351 93.3608 
-81.6664 -86.6813 85.3192 -81.7101 -88.5943 86.9022 -81.7943 -88.3239 85.6321 
-81.7182 -90.8645 88.4406 -81.6266 -90.5367 87.2585 -81.8532 -90.0803 86.0571 
-81.9202 -93.1247 89.5758 -81.6012 -92.8844 88.7374 -81.6381 -92.3563 87.5024 
-82.044 -91.5503 86.5549 -82.2981 -95.5465 90.5801 -82.0182 -95.2877 89.8792 
-81.8213 -94.7679 88.8897 -82.0126 -93.902 87.8322 -82.3757 -92.863 86.9633 
-82.5099 -98.6419 91.8084 -82.5116 -98.4459 91.0445 -82.3634 -97.813 90.2216 
-82.317 -96.8124 89.2815 -82.4203 -95.6089 88.2409 -82.4813 -94.4676 87.1356 
-82.5091 -101.988 92.8095 -82.6115 -102.228 92.155 -82.6088 -101.752 91.3779 
-82.5301 -100.621 90.6296 -82.5798 -99.1274 89.7093 -82.5504 -97.5854 88.5093 
-82.4865 -96.208 87.2962 -82.5002 -104.63 93.1475 -82.4409 -105.286 92.6778 
-82.3977 -105.261 91.9862 -82.2519 -104.463 91.3271 -82.3499 -103.032 90.7017 
-82.6219 -101.186 89.8363 -82.6938 -99.2837 88.7177 -82.7412 -97.5905 87.6561 
-82.5711 -106.376 93.1114 -82.3031 -107.151 92.6897 -82.1342 -107.433 92.0764 
-81.8817 -107.132 91.4081 -81.8374 -106.258 90.8811 -82.2677 -104.695 90.4328 
-82.7577 -102.575 89.8106 -82.9818 -100.417 88.9649 -83.1397 -98.547 88.0534 
-82.8807 -107.396 93.197 -82.3979 -108.337 92.7452 -82.7375 -109.345 92.8392 
-82.2653 -110.444 92.2838 -82.7205 -111.423 92.1927 -82.0812 -108.969 92.1633 
-82.1906 -112.984 91.6063 -82.8181 -113.454 91.273 -81.8953 -111.232 91.6068 
-81.7932 -109.106 91.4368 -82.1862 -115.079 90.5475 -83.1172 -114.878 90.3267 
-81.7459 -113.896 90.7963 -81.6632 -111.351 90.767 -81.5996 -108.75 90.7428 
-82.6312 -115.757 89.2879 -83.8137 -115.34 89.5185 -81.7684 -115.421 89.5137 
-81.7124 -113.603 89.8853 -81.7897 -110.685 90.1008 -81.8814 -107.699 90.3389 
-83.6057 -115.305 88.2945 -84.5774 -114.736 88.8569 -82.3626 -115.29 88.2083 
-81.8731 -114.424 88.7461 -82.0568 -112.156 89.4009 -82.2517 -108.957 89.8787 
-82.5163 -105.667 90.1058 -84.3685 -114.232 87.883 -84.9259 -113.282 88.4084 
-83.2978 -114.49 87.6221 -82.3341 -113.996 87.9286 -82.1399 -112.39 88.6466 
-82.4081 -109.58 89.3686 -82.7498 -106.246 89.8 -83.0161 -103.108 89.6826 
-84.609 -112.589 87.9618 -85.0545 -111.461 88.2291 -83.9285 -113.226 87.8387 
-83.0224 -112.99 87.9282 -82.4299 -111.645 88.2806 -82.4611 -109.289 88.8416 
-82.8283 -106.358 89.3536 -83.1903 -103.383 89.4402 -83.304 -100.746 88.9368 
-84.8176 -110.463 88.22 -85.3809 -109.533 88.2535 -84.2964 -111.163 88.3166 
-83.7001 -111.171 88.4064 -83.12 -110.1 88.4555 -82.8951 -108.129 88.6165 
-83.0857 -105.776 88.9037 -83.3979 -103.324 89.0107 -83.5735 -100.922 88.6786 
-83.5427 -98.7733 87.9858 -83.508 -105.525 93.542 -83.3698 -107.676 93.4318 
-83.982 -105.492 93.7205 -83.9147 -107.733 93.5807 -84.452 -105.003 93.6898 
-83.2767 -109.624 92.9403 -84.4881 -107.218 93.5096 -84.9691 -103.856 93.3884 
-83.9022 -109.555 92.9401 -83.3475 -111.367 92.0052 -85.0181 -105.819 93.1682 
-85.4287 -102.298 92.8937 -84.5302 -108.839 92.8997 -83.963 -110.851 91.9012 
-83.544 -112.898 91.0165 -85.3312 -103.931 92.5313 -85.8193 -100.845 92.3009 
-85.015 -107.216 92.6424 -84.4784 -109.718 91.9351 -84.0306 -111.868 90.9626 
-83.9267 -114.055 90.3502 -85.6416 -102.199 91.8685 -86.4323 -99.4636 91.7688 
-85.2921 -105.245 92.0939 -84.9677 -107.873 91.815 -84.4259 -110.111 90.9325 
-84.2678 -112.431 90.3551 -84.5052 -114.2 89.8435 -86.4256 -100.413 91.4575 
-87.3678 -97.7904 91.2921 -85.776 -103.345 91.6593 -85.5511 -105.917 91.6585 
-85.1764 -107.955 90.992 -84.7461 -109.97 90.2954 -84.7651 -111.899 89.9529 
-84.9742 -113.037 89.3052 -87.6194 -98.3191 91.0927 -88.3648 -96.0259 90.7194 
-86.7942 -101.099 91.3877 -86.3746 -103.787 91.5973 -86.1765 -105.921 91.3197 
-85.7903 -107.647 90.638 -85.4501 -109.25 90.1269 -85.3614 -110.564 89.6116 
-85.2851 -111.296 88.8346 -88.7577 -96.4157 90.5582 -89.185 -94.6524 90.0589 
-88.0345 -98.6738 90.9554 -87.3868 -101.163 91.2807 -87.06 -103.505 91.3924 
[...]
CELL_DATA 2000
SCALARS Distance double
LOOKUP_TABLE default
139.021 139.145 139.383 140.028 139.322 139.533 140.192 140.45 141.197 
139.565 139.787 140.55 140.744 141.58 141.776 142.635 139.859 140.106 
141.017 141.239 142.2 142.347 143.29 143.382 144.288 140.385 140.518 
141.471 141.723 142.728 142.983 143.964 144.124 145.067 145.138 146.071 
141.243 141.222 142.115 142.232 143.174 143.419 144.382 144.672 145.646 
145.88 146.859 146.978 147.929 142.079 142.09 142.926 142.972 143.872 
143.958 144.904 145.083 146.087 146.359 147.39 147.656 148.644 148.797 
149.686 142.672 142.763 143.56 143.712 144.629 144.744 145.712 145.786 
146.789 146.91 147.93 148.138 149.131 149.371 150.298 150.459 151.295 
143.268 143.297 144.084 144.257 145.211 145.432 146.448 146.614 147.618 
147.72 148.692 148.781 149.725 149.868 150.816 151.006 151.939 152.066 
152.929 138.394 137.521 138.155 138.544 136.645 137.276 137.687 138.32 
138.71 135.791 136.37 136.717 137.403 137.779 138.453 138.842 135.066 
135.527 135.746 136.358 136.661 137.396 137.755 138.527 139.003 134.577 
134.916 135.117 135.486 135.7 136.263 136.616 137.373 137.918 138.776 
139.499 134.344 134.592 134.942 135.127 135.381 135.584 135.906 136.375 
136.99 137.775 138.652 139.518 140.425 134.409 134.514 134.967 135.146 
135.569 135.618 135.941 136.025 136.552 137.047 137.962 138.781 139.786 
140.565 141.371 134.827 134.721 135.106 135.246 135.783 135.926 136.366 
136.332 136.746 136.881 137.638 138.223 139.235 139.979 140.84 141.454 
142.072 135.521 135.248 135.52 135.483 135.999 136.158 136.739 136.805 
137.277 137.253 137.846 138.096 138.99 139.544 140.463 141.016 141.72 
142.163 142.735 136.037 136.921 136.275 136.031 138.057 137.315 137.091 
136.452 136.457 139.309 138.56 138.372 137.645 137.606 137.057 137.18 
140.595 139.849 139.687 138.959 138.904 138.279 138.34 137.791 137.823 
141.962 141.191 141.057 140.299 140.28 139.612 139.708 139.061 139.127 
138.438 138.486 143.344 142.608 142.545 141.765 141.8 141.073 141.22 
140.522 140.662 139.914 140.034 139.295 139.549 144.623 143.976 143.987 
143.291 143.377 142.665 142.802 142.084 142.213 141.489 141.627 140.92 
141.145 140.513 140.873 145.826 145.235 145.289 144.688 144.816 144.2 
144.336 143.65 143.731 143.013 143.123 142.461 142.667 142.058 142.321 
141.767 142.062 147.008 146.451 146.545 145.974 146.131 145.574 145.749 
145.127 145.226 144.517 144.611 143.935 144.141 143.535 143.794 143.189 
143.414 142.84 143.07 143.831 144.248 144.436 145.365 144.671 144.9 
145.833 146.111 147.222 145.018 145.289 146.226 146.541 147.603 148.007 
149.213 145.456 145.658 146.607 146.905 147.969 148.352 149.555 150.013 
151.271 146.038 146.174 147.105 147.337 148.422 148.756 149.995 150.411 
151.737 152.139 153.459 146.556 146.745 147.652 147.876 148.923 149.237 
150.459 150.884 152.224 152.662 154.014 154.409 155.799 146.935 147.185 
148.103 148.381 149.394 149.712 150.847 151.281 152.548 153.067 154.377 
154.887 156.215 156.732 158.106 147.309 147.542 148.461 148.772 149.775 
150.119 151.186 151.596 152.753 153.272 154.502 155.089 156.355 156.972 
158.258 158.876 160.081 147.718 147.925 148.792 149.095 150.051 150.42 
151.424 151.846 152.907 153.404 154.531 155.11 156.296 156.954 158.184 
158.872 160.047 160.639 161.598 143.94 145.501 144.68 144.796 147.467 
146.492 146.604 145.729 145.972 149.581 148.619 148.781 147.741 147.901 
147.007 147.262 151.662 150.771 151.009 149.982 150.087 149.046 149.191 
148.301 148.492 153.856 152.926 153.268 152.242 152.427 151.299 151.406 
150.339 150.472 149.515 149.613 156.344 155.35 155.904 154.75 155.161 
153.863 154.116 152.786 152.941 151.694 151.762 150.637 150.66 158.809 
157.98 158.739 157.655 158.243 156.901 157.282 155.793 156.008 154.485 
154.54 153.063 153.02 151.741 151.754 160.752 160.251 160.985 160.302 
160.826 159.85 160.111 158.883 158.983 157.597 157.582 156.049 155.914 
154.363 154.236 152.907 152.902 162.113 161.827 162.378 162.038 162.381 
161.854 161.922 161.155 161.069 160.126 160.01 158.854 158.659 157.253 
156.988 155.524 155.322 154.03 153.93 162.911 163.96 163.335 163.089 
164.99 164.357 164.038 163.396 163.029 166.062 165.481 165.195 164.384 
163.852 163.139 162.56 166.849 166.499 166.337 165.612 165.004 164.055 
163.293 162.513 161.789 167.131 166.988 166.746 166.446 165.912 165.196 
164.351 163.399 162.543 161.715 160.879 166.963 166.949 166.467 166.407 
165.881 165.686 164.968 164.35 163.392 162.538 161.55 160.72 159.657 
166.296 166.514 166.027 165.993 165.417 165.365 164.742 164.54 163.643 
163.114 161.987 161.278 160.094 159.302 158.041 165.207 165.656 165.374 
165.526 165.025 164.951 164.274 164.118 163.237 162.965 161.863 161.414 
160.203 159.59 158.341 157.582 156.329 164.021 164.521 164.34 164.743 
164.348 164.477 163.745 163.615 162.624 162.401 161.319 161.051 159.936 
159.533 158.365 157.783 156.593 155.897 154.791 162.967 163.413 163.539 
164.107 163.622 163.966 164.597 164.613 165.098 163.352 164.04 164.791 
165.005 165.415 165.493 165.963 162.523 163.525 164.43 165.008 165.415 
165.609 165.938 166.215 166.663 161.365 162.439 163.368 164.357 164.882 
165.362 165.591 165.974 166.404 166.817 167.147 160.301 161.186 161.985 
163.091 163.742 164.544 164.761 165.327 165.607 166.301 166.704 167.137 
167.135 159.446 160.159 160.833 161.774 162.51 163.371 163.733 164.32 
164.464 165.184 165.463 166.288 166.355 166.769 166.378 158.612 159.296 
159.893 160.717 161.443 162.295 162.852 163.427 163.655 164.103 164.276 
164.915 165.028 165.643 165.397 165.718 165.186 157.803 158.449 158.971 
159.73 160.311 161.199 161.753 162.553 162.9 163.427 163.594 163.995 
164.092 164.487 164.4 164.695 164.345 164.515 164.035 148.184 149.232 
148.893 149.295 150.367 150.024 150.498 150.107 150.561 151.557 151.229 
151.751 151.363 151.857 151.445 151.94 152.669 152.418 152.995 152.656 
153.211 152.801 153.364 152.914 153.46 153.689 153.506 154.208 153.948 
154.659 154.261 154.931 154.444 155.073 154.538 155.112 154.728 154.582 
155.456 155.265 156.175 155.829 156.619 156.119 156.793 156.234 156.867 
156.28 156.884 155.711 155.659 156.608 156.551 157.519 157.334 158.142 
157.773 158.435 157.955 158.617 158.087 158.78 158.163 158.805 156.515 
156.558 157.434 157.536 158.393 158.432 159.158 159.053 159.715 159.466 
160.193 159.824 160.612 160.097 160.804 160.128 160.682 157.2 157.254 
158.018 158.156 158.899 159.033 159.723 159.808 160.565 160.577 161.459 
161.324 162.215 161.871 162.591 162.038 162.517 161.836 162.16 147.744 
147.363 147.928 148.706 146.97 147.519 148.275 148.897 149.765 146.682 
147.176 147.927 148.476 149.331 149.998 150.927 146.436 146.945 147.714 
148.201 149.013 149.594 150.514 151.181 152.061 146.032 146.637 147.407 
147.974 148.751 149.303 150.167 150.798 151.692 152.289 153.08 145.489 
146.125 146.865 147.542 148.304 148.945 149.766 150.436 151.34 151.967 
152.785 153.301 154.056 145.003 145.566 146.272 146.936 147.678 148.369 
149.147 149.901 150.799 151.569 152.445 153.035 153.76 154.264 154.989 
144.686 145.143 145.824 146.391 147.109 147.732 148.44 149.163 149.974 
150.856 151.759 152.58 153.361 153.952 154.613 155.146 155.825 144.529 
144.904 145.57 146.033 146.746 147.255 147.935 148.496 149.193 149.947 
150.772 151.703 152.557 153.394 154.127 154.754 155.411 155.949 156.586 
144.686 145.293 145.236 145.746 145.825 145.871 146.448 146.379 146.917 
146.236 146.38 147.113 147.134 147.739 147.59 148.099 146.819 146.878 
147.809 147.9 148.717 148.535 149.06 148.774 149.306 147.712 147.645 
148.631 148.735 149.737 149.628 150.226 149.84 150.291 150.044 150.756 
148.655 148.59 149.447 149.554 150.477 150.556 151.165 150.944 151.329 
151.062 151.694 151.635 152.506 149.504 149.472 150.196 150.234 150.931 
151.065 151.633 151.654 152.12 152.016 152.681 152.625 153.509 153.449 
154.232 150.264 150.268 150.923 150.883 151.443 151.452 152.04 152.087 
152.784 152.797 153.672 153.659 154.635 154.54 155.356 155.109 155.66 
150.834 150.919 151.517 151.517 152.055 152.021 152.694 152.705 153.61 
153.643 154.687 154.704 155.72 155.663 156.468 156.255 156.79 156.442 
156.83 151.27 152.17 151.796 151.957 153.56 152.881 153.062 152.513 
152.611 155.432 154.594 154.813 153.959 154.165 153.366 153.484 156.925 
156.418 156.669 155.902 156.135 155.252 155.469 154.5 154.615 157.911 
157.626 157.946 157.497 157.682 157.087 157.242 156.506 156.618 155.695 
155.734 159.326 158.802 159.314 158.742 159.038 158.427 158.548 157.958 
158.014 157.409 157.429 156.677 156.646 161.131 160.56 161.213 160.489 
160.973 160.093 160.341 159.407 159.484 158.681 158.714 158.069 158.057 
157.388 157.267 162.504 162.217 162.796 162.362 162.817 162.153 162.424 
161.493 161.57 160.495 160.464 159.487 159.428 158.645 158.508 157.8 
157.536 163.397 163.263 163.731 163.551 163.871 163.571 163.706 163.223 
163.209 162.487 162.345 161.397 161.153 160.16 159.871 159.003 158.682 
157.924 157.566 150.912 150.614 151.11 151.842 150.374 150.876 151.76 
152.229 153.236 150.255 150.749 151.753 152.262 153.401 153.906 155.067 
150.153 150.686 151.703 152.276 153.377 153.994 155.065 155.634 156.506 
149.888 150.503 151.426 152.093 153.05 153.761 154.664 155.352 156.122 
156.708 157.412 149.449 150.095 150.91 151.627 152.488 153.243 154.09 
154.8 155.602 156.237 157.103 157.692 158.714 148.991 149.59 150.352 
151.027 151.862 152.606 153.502 154.231 155.15 155.812 156.831 157.487 
158.663 159.301 160.482 148.611 149.151 149.903 150.506 151.331 152.013 
152.922 153.668 154.64 155.393 156.447 157.223 158.397 159.181 160.338 
161.002 161.938 148.297 148.798 149.543 150.108 150.924 151.544 152.416 
153.113 154.042 154.825 155.829 156.698 157.81 158.733 159.867 160.689 
161.647 162.232 162.933 150.232 148.946 149.713 149.897 147.669 148.416 
148.659 149.373 149.588 146.603 147.249 147.479 148.142 148.336 149.068 
149.36 145.559 146.215 146.375 146.992 147.096 147.778 147.99 148.84 
149.201 144.329 145.061 145.175 145.832 145.864 146.511 146.625 147.423 
147.725 148.654 148.992 143.008 143.747 143.857 144.553 144.59 145.244 
145.311 146.044 146.269 147.152 147.475 148.385 148.636 141.742 142.433 
142.547 143.231 143.288 143.95 144.002 144.708 144.859 145.686 145.956 
146.862 147.147 148.01 148.224 140.574 141.205 141.312 141.962 142.024 
142.665 142.698 143.372 143.467 144.247 144.472 145.354 145.661 146.547 
146.833 147.647 147.873 139.492 140.068 140.157 140.77 140.846 141.45 
141.49 142.097 142.169 142.864 143.068 143.895 144.226 145.11 145.464 
146.301 146.597 147.356 147.593 138.912 138.224 138.899 139.568 137.613 
138.25 138.96 139.603 140.267 137.182 137.718 138.426 139.031 139.712 
140.306 140.924 136.991 137.379 138.036 138.548 139.229 139.788 140.439 
140.981 141.619 137.068 137.306 137.925 138.268 138.946 139.395 140.106 
140.59 141.314 141.8 142.554 137.288 137.471 138.112 138.328 139.032 
139.306 140.061 140.412 141.215 141.633 142.479 142.914 143.759 137.558 
137.716 138.389 138.602 139.354 139.568 140.342 140.561 141.369 141.672 
142.553 142.943 143.838 144.22 145.041 137.991 138.052 138.718 138.897 
139.659 139.903 140.696 140.922 141.717 141.945 142.799 143.105 144.003 
144.347 145.176 145.489 146.208 138.605 138.583 139.218 139.293 140.009 
140.197 140.975 141.23 142.037 142.299 143.137 143.411 144.274 144.561 
145.37 145.641 146.344 146.598 147.224 139.16 140.22 139.714 139.794 
141.409 140.854 140.98 140.426 140.566 142.789 142.142 142.299 141.691 
141.844 141.273 141.494 144.363 143.611 143.757 143.091 143.268 142.628 
142.845 142.282 142.571 146.124 145.266 145.377 144.62 144.79 144.103 
144.32 143.701 143.997 143.43 143.735 148.004 147.106 147.204 146.332 
146.47 145.685 145.87 145.192 145.464 144.888 145.205 144.62 144.885 
149.798 148.985 149.088 148.204 148.314 147.451 147.598 146.802 147.013 
146.352 146.633 146.061 146.316 145.725 145.922 151.448 150.725 150.861 
150.037 150.126 149.287 149.403 148.577 148.73 147.961 148.169 147.502 
147.724 147.11 147.283 146.686 146.837 153.108 152.399 152.61 151.795 
151.899 151.054 151.136 150.324 150.426 149.658 149.799 149.079 149.251 
148.564 148.717 148.051 148.177 147.56 147.693 148.36 148.907 148.957 
149.639 149.519 149.583 150.341 150.347 151.066 150.106 150.221 151.04 
151.096 151.876 151.839 152.569 150.666 150.802 151.657 151.781 152.631 
152.669 153.47 153.405 154.182 151.32 151.419 152.34 152.442 153.406 
153.47 154.416 154.376 155.27 155.139 156.004 152.122 152.205 153.28 
153.317 154.443 154.43 155.564 155.485 156.573 156.397 157.412 157.149 
158.086 152.972 153.113 154.349 154.435 155.703 155.675 156.911 156.812 
158.046 157.885 159.069 158.77 159.801 159.378 160.237 153.709 153.967 
155.258 155.5 156.817 156.935 158.159 158.163 159.381 159.362 160.617 
160.482 161.573 161.188 161.984 161.454 162.042 154.215 154.605 155.875 
156.272 157.569 157.873 159.069 159.238 160.37 160.51 161.681 161.807 
162.879 162.779 163.515 163.105 163.533 163 163.305 135.496 134.711 
135.106 135.153 134.109 134.305 134.222 134.675 134.713 133.93 133.8 
133.499 133.725 133.698 134.232 134.43 134.232 133.834 133.394 133.189 
133.004 133.286 133.521 134.13 134.56 134.83 134.337 133.943 133.4 
133.087 132.896 133.049 133.393 133.901 134.459 134.976 135.554 135.055 
134.799 134.182 133.9 133.349 133.379 133.271 133.728 134.015 134.594 
134.998 135.53 136.354 135.843 135.685 135.141 135.014 134.391 134.402 
133.942 134.272 134.167 134.712 134.853 135.435 135.709 136.313 137.22 
136.685 136.558 136.07 136.063 135.552 135.632 135.105 135.335 134.963 
135.39 135.244 135.79 135.841 136.465 136.664 137.318 138.127 137.586 
137.473 136.98 137.004 136.576 136.702 136.269 136.452 136.046 136.347 
136.064 136.512 136.385 136.95 136.98 137.617 137.756 138.376 135.988 
135.657 136.102 136.633 135.252 135.719 136.244 136.714 137.277 135.031 
135.374 135.911 136.315 136.899 137.391 138.033 135.175 135.347 135.902 
136.124 136.698 137.068 137.742 138.215 138.866 135.52 135.617 136.18 
136.294 136.849 137.031 137.668 138.009 138.706 139.09 139.721 135.99 
136.002 136.559 136.64 137.208 137.304 137.898 138.08 138.768 139.053 
139.769 140.053 140.728 136.714 136.571 137.104 137.08 137.66 137.707 
138.299 138.394 139.034 139.225 139.942 140.201 140.919 141.163 141.823 
137.654 137.401 137.877 137.723 138.257 138.218 138.804 138.839 139.443 
139.543 140.186 140.393 141.08 141.347 142 142.234 142.806 138.643 
138.359 138.763 138.535 138.987 138.863 139.402 139.382 139.962 139.988 
140.561 140.659 141.273 141.487 142.137 142.384 142.984 143.173 143.69 
136.325 137.02 136.827 137.184 137.709 137.533 137.918 137.763 138.241 
138.472 138.262 138.633 138.466 138.927 138.858 139.423 139.274 139.062 
139.425 139.207 139.632 139.519 140.105 140.078 140.71 140.083 139.861 
140.288 140.064 140.539 140.326 140.919 140.812 141.511 141.437 142.094 
141.05 140.738 141.225 140.997 141.595 141.36 141.983 141.756 142.419 
142.281 142.956 142.843 143.448 142.122 141.784 142.251 142.005 142.624 
142.442 143.087 142.862 143.441 143.224 143.808 143.678 144.274 144.157 
144.701 143.08 142.807 143.219 143.002 143.539 143.408 144.018 143.879 
144.431 144.217 144.719 144.527 145.073 144.95 145.51 145.378 145.891 
143.928 143.685 144.067 143.875 144.353 144.234 144.808 144.722 145.31 
145.158 145.678 145.453 145.948 145.76 146.288 146.161 146.687 146.55 
147.042 150.178 149.524 149.523 148.812 148.762 148.787 148.052 148.078 
147.465 147.981 148.057 147.403 147.374 146.758 146.823 146.38 147.057 
147.262 146.728 146.793 146.173 146.168 145.622 145.77 145.335 146.128 
146.3 145.79 146.012 145.405 145.501 144.816 144.943 144.371 144.615 
144.107 145.546 145.498 144.909 145.03 144.419 144.573 143.872 144.02 
143.356 143.581 143.023 143.305 142.787 145.176 145.041 144.359 144.276 
143.598 143.62 142.961 143.059 142.429 142.578 141.999 142.22 141.703 
141.989 141.518 144.7 144.629 143.918 143.784 143.038 142.935 142.262 
142.266 141.681 141.745 141.174 141.279 140.741 140.944 140.486 140.774 
140.367 144.156 144.114 143.459 143.334 142.612 142.451 141.762 141.677 
141.091 141.091 140.536 140.554 140 140.082 139.607 139.807 139.415 
139.686 139.318 
POINT_DATA 1002
SCALARS Distance double
LOOKUP_TABLE default
139.639 138.65 138.776 139.736 138.926 140.713 139.941 139.102 140.903 
141.977 140.322 139.273 141.391 142.45 143.481 140.725 139.581 142.008 
143.204 144.22 145.167 141.252 140.327 142.439 143.74 144.953 146.032 
147.018 142.091 141.315 143.008 144.081 145.329 146.661 147.889 148.883 
142.869 142.057 143.822 144.791 145.844 147.092 148.423 149.625 150.555 
143.366 142.597 144.448 145.623 146.727 147.8 148.905 150.072 151.203 
152.13 143.93 143.28 144.959 146.23 147.494 148.637 149.642 150.634 
151.749 152.87 153.791 137.759 137.933 136.876 137.024 136.038 138.107 
136.051 135.288 137.081 138.153 135.245 134.67 135.947 136.958 138.157 
134.839 134.226 135.272 135.886 137.007 138.594 134.715 134.095 135.277 
135.6 136.238 137.73 139.639 134.738 134.401 135.453 135.983 136.245 
137.18 138.982 140.745 135.03 135.055 135.554 136.348 136.774 137.225 
138.514 140.216 141.566 135.664 135.85 135.87 136.577 137.297 137.765 
138.554 139.907 141.271 142.329 136.6 136.563 137.602 137.784 138.789 
136.928 139.109 140.031 138.225 137.669 140.409 141.348 139.544 138.945 
138.411 141.819 142.725 140.948 140.351 139.831 139.143 143.285 144.026 
142.534 141.924 141.388 140.772 140.191 144.62 145.227 144.058 143.543 
142.944 142.313 141.801 141.447 145.861 146.392 145.39 145.003 144.466 
143.787 143.275 142.931 142.589 147.101 147.534 146.675 146.332 145.914 
145.302 144.748 144.404 144.05 143.605 144.612 145.092 146.394 145.561 
146.851 148.426 145.906 147.215 148.748 150.471 146.322 147.597 149.098 
150.823 152.524 146.902 148.097 149.576 151.317 153.076 154.784 147.425 
148.634 150.042 151.763 153.6 155.372 157.247 147.801 149.088 150.463 
152.042 153.845 155.694 157.585 159.495 148.155 149.43 150.811 152.288 
153.935 155.734 157.642 159.556 161.199 148.52 149.705 151.022 152.443 
153.995 155.668 157.492 159.425 161.168 162.432 145.501 147.585 146.731 
149.851 148.913 148.065 151.994 151.187 150.166 149.348 154.265 153.549 
152.549 151.507 150.565 157.01 156.445 155.497 154.306 153.016 151.709 
159.695 159.524 158.774 157.586 156.142 154.472 152.886 161.574 161.699 
161.267 160.303 159.075 157.542 155.737 154.093 162.718 162.849 162.603 
161.903 161.011 159.957 158.488 156.748 155.132 163.587 163.706 164.593 
164.777 165.606 163.638 166.071 166.516 164.745 163.18 166.919 167.12 
166.029 164.248 162.461 166.929 167.35 166.394 165.319 163.497 161.68 
166.574 166.968 165.902 165.349 164.242 162.448 160.535 166.004 165.917 
165.506 164.848 164.036 162.664 160.864 158.894 165.049 164.657 165.072 
164.502 163.478 162.208 160.73 159.026 157.111 163.861 163.548 164.115 
163.865 162.877 161.532 160.232 158.856 157.22 155.452 162.888 164.149 
163.21 164.546 163.121 165.104 164.463 162.485 165.372 165.777 163.639 
161.457 165.198 165.684 166.361 162.234 160.413 164.244 165.213 165.883 
166.975 160.923 159.578 162.807 164.185 164.895 166.051 167.091 159.987 
158.783 161.601 163.13 163.891 164.616 165.728 166.253 159.131 157.932 
160.574 162.164 163.271 163.812 164.409 164.956 164.988 158.295 157.189 
159.498 160.872 162.234 163.206 163.772 164.104 164.148 163.906 148.499 
149.661 149.537 150.877 150.689 150.959 152.125 151.86 152.257 152.359 
153.274 152.877 153.591 153.792 153.947 154.372 153.824 154.986 155.407 
155.602 155.679 155.56 154.81 156.447 157.102 157.356 157.43 157.499 
156.615 155.715 157.656 158.462 158.869 159.088 159.342 159.507 157.35 
156.487 158.346 159.186 159.835 160.448 161.052 161.453 161.461 147.202 
148.085 146.805 147.671 146.437 149.072 147.424 146.188 148.69 150.236 
147.228 145.896 148.494 149.861 151.449 146.791 145.412 148.205 149.559 
151.087 152.545 146.175 144.882 147.633 149.078 150.665 152.274 153.541 
145.642 144.488 147.002 148.402 149.965 151.772 153.296 154.449 145.302 
144.269 146.532 147.796 149.128 150.834 152.678 154.116 155.278 145.143 