# vtk DataFile Version 4.0
vtk output
ASCII
DATASET POLYDATA
POINTS 1002 float
-83.0998 -86.539 73.4497 -83.2579 -85.7049 72.4746 -82.7885 -85.553 73.1273 
-82.5542 -86.5234 74.128 -82.2681 -85.4474 73.8768 -82.8908 -87.5647 74.4841 
-82.0241 -86.5492 74.9263 -81.7564 -85.4288 74.6986 -82.3781 -87.6352 75.285 
-82.8039 -88.5805 75.8264 -81.569 -86.5948 75.8909 -81.244 -85.472 75.6475 
-81.9317 -87.7107 76.279 -82.35 -88.6995 76.8009 -82.7553 -89.6533 77.4662 
-81.1742 -86.6484 77.0744 -80.7319 -85.6264 76.7157 -81.5356 -87.7929 77.4774 
-81.871 -88.8457 77.9077 -82.2022 -89.8948 78.4438 -82.5931 -90.9166 79.0883 
-80.8247 -86.8457 78.343 -80.3138 -86.0201 77.8386 -81.1738 -87.9465 78.8153 
-81.4399 -89.0929 79.1981 -81.6928 -90.1979 79.5968 -81.9977 -91.3238 80.1165 
-82.3957 -92.2739 80.68 -80.4527 -87.2868 79.5459 -79.9448 -86.5565 79.056 
-80.7892 -88.2714 80.0592 -81.0634 -89.471 80.5388 -81.3985 -90.64 81.0205 
-81.6766 -91.7967 81.5188 -81.9294 -92.8922 81.9733 -82.1902 -93.7881 82.3612 
-79.9433 -87.8458 80.6781 -79.5003 -87.0182 80.2924 -80.2858 -88.7845 81.1171 
-80.5727 -89.9371 81.64 -81.0235 -91.1668 82.2883 -81.4106 -92.365 82.9384 
-81.5803 -93.5539 83.3986 -81.7186 -94.6319 83.6705 -81.8812 -95.5302 83.901 
-79.3889 -88.3748 81.6952 -79.0645 -87.3803 81.3555 -79.7302 -89.4067 82.08 
-80.0062 -90.4974 82.5622 -80.4033 -91.7057 83.2004 -80.7995 -92.9825 83.8739 
-80.9564 -94.2485 84.3902 -81.0538 -95.4494 84.6976 -81.2468 -96.4956 84.9007 
-81.4529 -97.339 85.1138 -78.9884 -88.8387 82.5875 -78.7845 -87.7338 82.2572 
-79.2974 -90.0115 82.9815 -79.5701 -91.129 83.4734 -79.8531 -92.2868 84.0761 
-80.1138 -93.6197 84.6326 -80.1964 -95.015 85.0366 -80.2404 -96.3165 85.3679 
-80.4398 -97.4845 85.6563 -80.6983 -98.4702 85.8801 -80.897 -99.2234 86.0704 
-82.949 -84.9544 71.7597 -82.4747 -84.6853 72.5185 -82.3598 -84.2226 70.9112 
-81.9263 -83.8686 71.8255 -81.7803 -83.303 70.224 -82.0178 -84.4763 73.4486 
-81.5087 -82.8764 71.354 -81.7234 -82.0722 70.038 -81.6441 -83.5601 73.0523 
-81.5381 -84.3926 74.4591 -81.5157 -81.593 71.2788 -82.0043 -80.719 70.1845 
-81.3426 -82.4781 72.8037 -81.213 -83.3641 74.2903 -80.8881 -84.4454 75.448 
-81.5372 -80.2687 71.4075 -82.0248 -79.445 70.3524 -81.1024 -81.2122 72.6802 
-80.7736 -82.1832 74.0321 -80.4248 -83.3701 75.194 -80.1988 -84.749 76.3716 
-81.3859 -79.1264 71.7615 -81.9627 -78.4161 70.779 -80.803 -80.0268 72.7821 
-80.2646 -80.9536 73.7634 -79.9345 -82.1201 74.7853 -79.7487 -83.7071 75.989 
-79.7609 -85.2954 77.4746 -81.4831 -78.3394 72.5365 -82.2193 -77.9524 71.6551 
-80.7558 -79.0396 73.373 -79.9941 -79.8636 73.9821 -79.568 -80.8626 74.6487 
-79.5403 -82.3787 75.7712 -79.5253 -84.2314 77.2985 -79.4827 -85.8064 78.8965 
-81.8521 -78.093 73.523 -82.6262 -78.0959 72.6784 -81.0818 -78.3917 74.3174 
-80.2038 -78.9846 74.8271 -79.5121 -79.8185 75.2324 -79.4299 -81.0809 76.0812 
-79.5785 -82.8829 77.4846 -79.4426 -84.7257 78.993 -79.1824 -86.1695 80.2891 
-82.2158 -78.2405 74.4207 -82.9596 -78.4498 73.5984 -81.4727 -78.2015 75.2322 
-80.6494 -78.493 75.8514 -79.8038 -79.1475 76.2856 -79.3851 -80.1707 76.9087 
-79.5117 -81.6993 78.0226 -79.5828 -83.5555 79.3447 -79.2817 -85.2064 80.4768 
-78.9241 -86.5117 81.406 -82.8285 -78.5435 75.0065 -82.0338 -78.3421 75.8557 
-82.8015 -78.6132 76.4837 -81.9308 -78.628 77.2995 -82.8507 -79.0366 77.8554 
-81.2362 -78.3951 76.6536 -81.9786 -79.4143 78.6599 -82.8423 -79.9267 79.0793 
-81.1449 -79.0448 78.1079 -80.4016 -78.8845 77.3142 -82.0839 -80.5145 79.96 
-82.8315 -80.8914 80.4483 -81.3157 -80.1701 79.4765 -80.4108 -79.8448 78.8421 
-79.6618 -79.7631 77.9337 -82.1533 -81.5057 81.4605 -82.9821 -81.7471 82.0513 
-81.4876 -81.3182 80.8347 -80.6721 -81.0705 80.2634 -79.7805 -80.8827 79.629 
-79.4154 -81.0562 78.8391 -82.2189 -82.4307 83.1226 -83.1448 -82.7312 83.5005 
-81.4578 -82.3312 82.4612 -80.8352 -82.2432 81.784 -80.0715 -82.1735 81.2478 
-79.5534 -82.3432 80.6966 -79.5356 -82.8254 80.026 -82.2887 -83.5026 84.5425 
-83.1016 -83.9072 84.603 -81.4712 -83.421 84.1301 -80.8806 -83.4919 83.4721 
-80.3261 -83.5307 82.9178 -79.7786 -83.7186 82.4367 -79.5167 -84.1265 81.7985 
-79.4184 -84.6267 81.0818 -82.3353 -84.7504 85.5754 -82.957 -85.1431 85.5064 
-81.6774 -84.66 85.4089 -81.0976 -84.8469 84.9016 -80.5682 -84.9798 84.372 
-79.9976 -85.0693 83.9911 -79.5289 -85.3369 83.4449 -79.2342 -85.6959 82.6483 
-79.0156 -86.0674 81.9111 -82.3779 -86.1184 86.3638 -82.9068 -86.3622 86.3071 
-81.891 -86.0338 86.3078 -81.3907 -86.1963 85.9581 -80.8249 -86.3671 85.4616 
-80.1808 -86.3921 85.1341 -79.5703 -86.4817 84.8391 -79.1288 -86.7246 84.2269 
-78.8482 -87.0088 83.4041 -78.7159 -87.3394 82.7122 -78.713 -88.891 83.4236 
-78.6403 -88.5415 84.0893 -78.7227 -90.3517 84.8451 -78.767 -88.2456 84.9221 
-78.6773 -90.1087 85.6978 -78.7104 -92.0641 86.3742 -79.0974 -87.9863 85.6202 
-78.8751 -89.8987 86.4724 -78.7819 -91.9949 87.2266 -78.6764 -94.1216 87.8024 
-79.6224 -87.7936 85.9626 -79.2552 -89.6517 86.924 -79.1191 -91.8864 87.8203 
-78.8793 -94.1534 88.5597 -78.6917 -96.6951 89.1162 -80.2836 -87.7454 86.2046 
-79.6766 -89.3778 87.2507 -79.4316 -91.5877 88.2582 -79.2123 -94.0152 89.0808 
-78.8469 -96.6066 89.8133 -78.6275 -99.6183 90.2223 -80.9751 -87.7166 86.6132 
-80.1971 -89.2157 87.6698 -79.6273 -91.138 88.8163 -79.4063 -93.6113 89.6077 
-79.066 -96.2836 90.2785 -78.6606 -99.2816 90.7984 -78.3231 -102.493 90.8294 
-81.5845 -87.6151 86.9867 -80.8983 -89.1811 87.9699 -80.0846 -90.8079 89.2005 
-79.6609 -93.0242 90.0947 -79.396 -95.7516 90.6327 -78.9522 -98.7285 91.1159 
-78.4388 -102.011 91.2562 -77.9068 -105.182 90.9747 -82.0918 -87.5614 87.1121 
-81.6187 -89.1664 88.0101 -80.8883 -90.6831 89.1591 -80.299 -92.5095 90.1774 
-79.9763 -95.0386 90.7687 -79.5596 -97.9913 91.2024 -78.9365 -101.251 91.4782 
-78.242 -104.697 91.3571 -77.5712 -107.711 91.0348 -82.6128 -87.5875 87.09 
-82.2727 -89.0821 87.9464 -81.7364 -90.5758 88.9746 -81.1522 -92.1622 89.9936 
-80.7364 -94.3285 90.6856 -80.313 -97.0919 91.1187 -79.6562 -100.228 91.4521 
-78.846 -103.741 91.5495 -78.0439 -107.216 91.3963 -77.3459 -109.959 91.2 
-78.9436 -90.2334 83.8156 -78.9156 -91.8579 85.2746 -79.2265 -91.5622 84.3236 
-78.7985 -93.8076 86.8006 -79.1437 -93.3799 85.8827 -79.4803 -92.8386 84.9958 
-78.7031 -96.4566 88.2097 -78.9685 -95.8648 87.377 -79.3412 -95.0907 86.6114 
-79.6656 -94.3152 85.6137 -78.6534 -99.761 89.4325 -78.746 -99.2557 88.5887 
-79.0319 -98.2488 87.9142 -79.3798 -97.1135 87.0558 -79.6819 -96.0078 85.9277 
-78.3379 -103.026 90.2653 -78.3041 -102.888 89.5269 -78.3836 -102 88.8054 
-78.8249 -100.682 88.1326 -79.2856 -99.1603 87.2083 -79.6467 -97.6134 86.1588 
-77.7373 -105.858 90.5793 -77.5798 -106.007 90.1336 -77.4105 -105.516 89.4879 
-77.7163 -104.473 88.8009 -78.5457 -102.93 88.2274 -79.2468 -100.964 87.4594 
-79.7704 -99.0131 86.4967 -77.2046 -108.402 90.6778 -76.9464 -108.636 90.4119 
-76.6642 -108.456 89.9916 -76.5968 -107.842 89.2513 -77.2502 -106.695 88.6737 
-78.3425 -104.849 88.3483 -79.2359 -102.476 87.7057 -79.9598 -100.208 86.7546 
-76.8831 -110.696 90.8756 -76.5755 -110.99 90.5817 -76.3673 -110.984 90.2532 
-76.1811 -110.612 89.5972 -76.3242 -109.765 88.8311 -77.0974 -108.378 88.4953 
-78.1695 -106.268 88.2947 -79.1636 -103.618 87.6914 -80.0766 -101.12 86.8516 
-76.8556 -112.471 91.2506 -76.3947 -113.055 90.8757 -76.4306 -114.594 91.1407 
-75.9566 -115.328 90.5054 -76.2107 -116.508 90.5216 -76.1637 -113.339 90.409 
-75.7502 -117.671 89.5588 -76.4594 -118.303 89.5387 -75.804 -115.784 89.7411 
-76.1084 -113.222 89.815 -76.1693 -119.537 88.4954 -77.1977 -119.178 88.7788 
-75.6797 -118.055 88.725 -75.9583 -115.228 89.0644 -76.1289 -112.379 89.0298 
-77.0943 -119.829 87.8284 -78.0162 -118.483 88.4337 -76.1339 -119.396 87.8286 
-75.9952 -116.757 88.3308 -76.2717 -113.608 88.535 -76.4429 -111.042 88.4485 
-77.9633 -118.589 87.5608 -78.761 -116.976 88.233 -76.9248 -119.204 87.2787 
-76.3617 -117.591 87.7132 -76.5328 -114.572 88.1921 -76.761 -111.853 88.2247 
-77.2101 -109.31 88.2591 -78.7869 -116.789 87.5491 -79.6333 -115.402 88.0744 
-77.7589 -117.721 87.1876 -76.9992 -117.196 87.3558 -76.9698 -115.039 87.8624 
-77.2315 -112.37 88.0633 -77.5326 -109.717 88.0067 -78.2508 -106.743 87.9681 
-79.7779 -114.658 87.6928 -80.5762 -113.496 88.03 -78.8023 -115.43 87.4689 
-77.9929 -115.336 87.4818 -77.7647 -114.083 87.7518 -77.9543 -111.985 87.9566 
-78.1885 -109.439 87.8759 -78.6454 -106.575 87.6771 -79.4029 -103.669 87.3783 
-80.7738 -112.042 87.8257 -81.3941 -111.081 88.0303 -79.9916 -112.612 87.75 
-79.2849 -112.54 87.7852 -78.9513 -111.736 87.879 -78.9839 -110.293 87.9398 
-79.1482 -108.262 87.8427 -79.4405 -105.774 87.5833 -79.9514 -103.237 87.2103 
-80.5093 -101.025 86.6965 -77.6198 -110.397 91.4373 -77.1763 -112.995 91.4611 
-78.067 -110.223 91.4775 -77.7683 -112.732 91.4207 -78.8125 -109.287 91.4743 
-76.9153 -114.95 91.2414 -78.6509 -111.544 91.3684 -79.7937 -107.743 91.5697 
-77.7245 -114.433 91.1433 -76.9832 -116.503 90.5726 -79.6012 -109.664 91.3721 
-80.6897 -105.858 91.4676 -78.6681 -112.974 91.0949 -77.9389 -115.597 90.6102 
-77.4233 -117.678 89.7931 -80.4896 -107.384 91.1695 -81.5882 -103.784 91.1458 
-79.563 -110.819 91.0401 -78.8966 -113.812 90.7108 -78.3375 -116.184 90.1277 
-78.0407 -117.698 89.3478 -81.6809 -104.826 90.9826 -82.795 -101.68 90.9507 
-80.5726 -108.207 90.8904 -79.9179 -111.365 90.7563 -79.4411 -113.999 90.4096 
-78.9334 -115.707 89.8485 -78.7322 -116.53 89.1007 -83.1718 -102.25 90.9129 
-83.9678 -99.8001 90.6415 -81.9971 -105.287 90.88 -81.1062 -108.465 90.7888 
-80.7166 -111.255 90.6135 -80.276 -113.303 90.1968 -79.7823 -114.478 89.5714 
-79.6217 -115.09 88.7968 -84.3492 -100.099 90.4761 -84.6886 -98.3119 89.9055 
-83.5347 -102.505 90.7567 -82.5286 -105.385 90.7976 -81.9057 -108.155 90.7272 
-81.5509 -110.391 90.4515 -81.0813 -111.99 89.9225 -80.6994 -112.986 89.235 
-80.5993 -113.485 88.5378 -85.0343 -98.5509 89.6398 -85.148 -97.1697 89.0423 
-84.6723 -100.36 90.172 -83.9404 -102.665 90.4719 -83.1424 -105.117 90.5621 
[...]
CELL_DATA 2000
SCALARS Distance double
LOOKUP_TABLE default
139.047 139.052 139.364 140.033 139.143 139.422 140.14 140.439 141.21 
139.358 139.6 140.382 140.644 141.483 141.749 142.626 139.712 139.921 
140.781 141 141.883 142.104 142.994 143.25 144.165 140.249 140.401 
141.342 141.512 142.45 142.602 143.512 143.684 144.621 144.847 145.782 
140.961 141.054 142.012 142.148 143.134 143.266 144.268 144.362 145.391 
145.478 146.517 146.595 147.555 141.697 141.79 142.692 142.821 143.776 
143.953 145.006 145.188 146.295 146.403 147.482 147.508 148.505 148.473 
149.373 142.329 142.459 143.325 143.466 144.375 144.556 145.569 145.842 
146.931 147.202 148.223 148.395 149.303 149.386 150.224 150.241 151.033 
142.906 143.04 143.929 144.085 145.02 145.169 146.163 146.381 147.438 
147.715 148.713 148.95 149.83 150.011 150.839 150.968 151.766 151.813 
152.55 138.4 137.303 138.044 138.379 136.073 136.89 137.316 138.064 
138.458 134.991 135.706 136.224 137.017 137.511 138.204 138.647 134.237 
134.776 135.265 135.999 136.558 137.278 137.737 138.413 138.914 133.591 
134.078 134.434 135.083 135.544 136.285 136.713 137.446 137.906 138.698 
139.343 133.038 133.427 133.727 134.246 134.55 135.198 135.529 136.303 
136.765 137.635 138.314 139.23 140.043 133.02 133.099 133.441 133.679 
133.947 134.298 134.559 135.142 135.651 136.5 137.307 138.251 139.162 
140.038 140.863 133.637 133.426 133.763 133.699 133.986 133.996 134.244 
134.455 134.972 135.584 136.512 137.385 138.435 139.269 140.154 140.873 
141.577 134.499 134.191 134.444 134.226 134.491 134.315 134.573 134.492 
134.951 135.219 136.11 136.79 137.922 138.693 139.665 140.293 141.012 
141.578 142.196 135.048 135.823 135.253 134.957 136.752 136.084 135.761 
135.203 134.955 137.913 137.149 136.861 136.141 135.891 135.263 135.057 
139.23 138.441 138.263 137.446 137.257 136.421 136.237 135.5 135.475 
140.661 139.851 139.745 138.947 138.838 137.965 137.835 136.942 136.985 
136.254 136.62 142.17 141.351 141.249 140.453 140.404 139.587 139.561 
138.682 138.799 137.994 138.404 137.761 138.381 143.596 142.856 142.792 
142.003 142.022 141.218 141.325 140.485 140.7 139.893 140.278 139.593 
140.093 139.524 140.036 144.865 144.234 144.267 143.565 143.672 142.917 
143.099 142.311 142.556 141.785 142.094 141.394 141.725 141.109 141.424 
140.92 141.269 146.064 145.5 145.63 145.029 145.209 144.554 144.74 
144.039 144.219 143.523 143.727 143.069 143.283 142.64 142.841 142.242 
142.49 142.021 142.382 143.212 143.34 143.702 144.727 143.708 143.96 
145.001 145.407 146.582 144.157 144.381 145.412 145.782 146.997 147.392 
148.626 144.583 144.799 145.785 146.175 147.399 147.852 149.132 149.512 
150.84 145.071 145.232 146.15 146.488 147.669 148.191 149.496 149.986 
151.304 151.78 153.207 145.617 145.768 146.652 146.873 147.95 148.408 
149.683 150.25 151.55 152.115 153.457 154.075 155.437 146.079 146.301 
147.196 147.396 148.362 148.694 149.847 150.378 151.639 152.245 153.527 
154.175 155.474 156.118 157.303 146.435 146.703 147.604 147.875 148.786 
149.073 150.071 150.512 151.663 152.26 153.487 154.149 155.395 156.072 
157.283 157.871 158.937 146.785 147.026 147.899 148.208 149.107 149.413 
150.32 150.69 151.702 152.234 153.362 154.018 155.182 155.896 157.07 
157.781 158.92 159.489 160.485 143.543 145.075 144.381 144.632 146.903 
146.075 146.315 145.565 145.798 148.922 148.007 148.261 147.397 147.647 
146.798 147.013 151.224 150.19 150.524 149.509 149.836 148.838 149.074 
148.098 148.305 153.769 152.723 153.174 152.007 152.387 151.229 151.503 
150.345 150.468 149.403 149.535 156.086 155.284 155.803 154.737 155.056 
153.871 154.104 152.893 152.997 151.73 151.713 150.583 150.641 157.898 
157.362 157.879 157.12 157.368 156.368 156.482 155.401 155.523 154.33 
154.336 152.987 152.905 151.69 151.707 159.462 158.991 159.499 158.923 
159.22 158.423 158.51 157.567 157.651 156.686 156.788 155.63 155.549 
154.174 154 152.749 152.679 160.983 160.512 161.009 160.466 160.839 
160.169 160.344 159.482 159.509 158.621 158.682 157.813 157.798 156.691 
156.434 155.12 154.808 153.62 153.443 161.986 163.354 162.482 161.976 
164.444 163.736 163.27 162.382 161.787 165.371 164.771 164.397 163.604 
163.012 162.085 161.312 166.157 165.718 165.395 164.675 164.042 163.175 
162.304 161.37 160.429 166.337 166.315 166.037 165.557 164.84 164.047 
163.06 162.186 161.18 160.358 159.498 165.757 166.102 165.902 165.86 
165.194 164.655 163.64 162.838 161.796 161.011 160.121 159.431 158.598 
164.93 165.323 165.158 165.391 164.875 164.72 163.845 163.304 162.282 
161.574 160.58 159.911 158.942 158.32 157.264 164.064 164.455 164.222 
164.53 164.051 164.163 163.409 163.246 162.289 161.863 160.769 160.191 
159.032 158.451 157.29 156.722 155.585 162.935 163.43 163.081 163.48 
162.927 163.19 162.431 162.539 161.616 161.527 160.435 160.1 158.871 
158.379 157.166 156.656 155.57 155.063 154.113 162.139 162.573 162.851 
163.57 162.546 163.124 163.979 164.148 164.638 162.148 162.917 163.852 
164.337 164.929 165.064 165.468 161.427 162.341 163.247 163.99 164.667 
165.123 165.586 165.798 166.14 160.383 161.387 162.224 163.169 163.874 
164.63 165.141 165.642 165.921 166.207 166.247 159.347 160.232 160.983 
161.969 162.688 163.647 164.235 164.973 165.26 165.707 165.665 165.919 
165.665 158.506 159.245 159.87 160.72 161.387 162.367 163.021 163.929 
164.325 164.917 164.93 165.232 165.01 165.189 164.887 157.603 158.353 
158.871 159.646 160.188 161.078 161.663 162.626 163.067 163.857 163.957 
164.438 164.26 164.531 164.249 164.426 164.076 156.605 157.342 157.818 
158.594 159.064 159.881 160.339 161.231 161.585 162.458 162.562 163.27 
163.108 163.618 163.304 163.665 163.263 163.497 162.989 147.272 148.399 
148.001 148.387 149.588 149.203 149.623 149.205 149.615 150.771 150.447 
150.952 150.513 150.944 150.464 150.862 151.903 151.664 152.274 151.886 
152.373 151.869 152.305 151.777 152.248 152.912 152.761 153.398 153.151 
153.691 153.3 153.795 153.304 153.827 153.299 153.881 153.809 153.697 
154.303 154.156 154.729 154.511 155.107 154.782 155.39 154.927 155.544 
155.026 155.671 154.665 154.575 155.222 155.062 155.702 155.517 156.257 
156.066 156.856 156.505 157.221 156.722 157.422 156.887 157.573 155.431 
155.43 156.185 156.068 156.799 156.594 157.427 157.276 158.244 158.016 
158.906 158.462 159.257 158.715 159.483 158.874 159.511 156.043 156.148 
156.969 157.009 157.792 157.702 158.514 158.446 159.427 159.377 160.372 
160.131 160.992 160.564 161.349 160.81 161.457 160.766 161.17 146.856 
146.623 147.135 147.949 146.319 146.889 147.694 148.242 149.076 145.944 
146.542 147.367 147.949 148.735 149.315 150.15 145.673 146.195 147.031 
147.605 148.392 148.94 149.713 150.342 151.203 145.505 145.976 146.775 
147.309 148.125 148.635 149.423 149.952 150.789 151.41 152.262 145.262 
145.767 146.519 147.057 147.846 148.381 149.208 149.74 150.615 151.134 
151.985 152.492 153.254 144.978 145.468 146.21 146.756 147.489 148.04 
148.81 149.443 150.356 150.997 151.887 152.357 153.071 153.463 154.108 
144.823 145.216 145.939 146.443 147.166 147.666 148.336 148.928 149.751 
150.546 151.494 152.194 152.931 153.339 153.867 154.244 154.803 144.808 
145.11 145.767 146.203 146.928 147.388 148.043 148.491 149.162 149.831 
150.701 151.569 152.409 153.07 153.619 154.007 154.441 154.859 155.382 
145.003 145.566 145.486 145.947 146.171 146.101 146.63 146.557 147.102 
146.807 146.758 147.359 147.302 147.887 147.76 148.241 147.465 147.431 
148.107 148.084 148.73 148.59 149.075 148.852 149.326 148.204 148.148 
148.897 148.89 149.612 149.475 149.991 149.731 150.221 150.039 150.746 
148.995 148.935 149.714 149.731 150.52 150.407 150.975 150.696 151.198 
150.983 151.682 151.626 152.421 149.747 149.71 150.462 150.526 151.339 
151.315 151.954 151.727 152.264 152.014 152.674 152.556 153.269 153.19 
153.727 150.497 150.455 151.191 151.235 152.026 152.066 152.749 152.661 
153.256 153.086 153.735 153.573 154.219 154.033 154.512 154.284 154.61 
151.278 151.245 152.004 151.991 152.749 152.74 153.403 153.373 153.984 
153.955 154.615 154.565 155.201 155.018 155.483 155.163 155.5 155.175 
155.529 151.949 153.259 152.672 152.759 154.476 153.992 154.119 153.473 
153.475 155.638 155.19 155.375 154.788 154.763 154.096 154.033 156.903 
156.421 156.66 156.062 156.078 155.366 155.277 154.611 154.592 158.05 
157.675 157.926 157.392 157.464 156.748 156.692 155.934 155.934 155.259 
155.31 158.883 158.66 158.912 158.551 158.668 158.113 158.108 157.402 
157.393 156.683 156.711 156.013 155.954 159.751 159.491 159.851 159.493 
159.717 159.251 159.356 158.766 158.787 158.12 158.081 157.383 157.227 
156.496 156.208 160.926 160.578 161.105 160.637 161.018 160.454 160.705 
160.072 160.186 159.492 159.452 158.71 158.504 157.72 157.371 156.591 
156.202 162.172 161.875 162.458 162.036 162.481 161.931 162.245 161.582 
161.737 160.975 160.926 160.098 159.865 159.014 158.669 157.811 157.427 
156.599 156.251 151.685 151.6 152.074 152.925 151.448 151.939 152.766 
153.279 154.097 151.243 151.755 152.555 153.075 153.896 154.406 155.233 
150.875 151.473 152.272 152.841 153.68 154.216 155.106 155.614 156.501 
150.348 151.002 151.81 152.482 153.346 153.975 154.889 155.484 156.399 
156.908 157.684 149.856 150.464 151.273 151.965 152.838 153.547 154.438 
155.151 156.03 156.684 157.439 157.93 158.518 149.475 150.023 150.802 
151.444 152.275 152.976 153.813 154.566 155.398 156.149 156.897 157.533 
158.167 158.66 159.285 149.124 149.646 150.346 150.955 151.688 152.366 
153.125 153.871 154.668 155.442 156.216 156.919 157.631 158.243 158.982 
159.531 160.345 148.748 149.248 149.861 150.437 151.081 151.723 152.417 
153.14 153.92 154.702 155.516 156.256 157.038 157.71 158.526 159.186 
160.087 160.697 161.576 150.907 149.913 150.521 150.825 149.166 149.599 
149.782 150.401 150.684 148.468 148.88 148.932 149.402 149.569 150.233 
150.484 147.493 148.082 148.104 148.543 148.564 149.121 149.277 149.975 
150.136 146.166 146.946 147.042 147.612 147.577 148.091 148.146 148.774 
148.897 149.561 149.646 144.727 145.539 145.701 146.424 146.439 147.022 
147.034 147.643 147.747 148.372 148.457 149.067 149.161 143.397 144.124 
144.28 145.046 145.131 145.8 145.809 146.459 146.526 147.204 147.287 
147.915 147.987 148.623 148.77 142.178 142.828 142.95 143.676 143.805 
144.493 144.524 145.169 145.175 145.881 145.935 146.663 146.735 147.432 
147.557 148.259 148.442 141.042 141.631 141.737 142.407 142.56 143.232 
143.307 143.91 143.892 144.512 144.527 145.244 145.346 146.109 146.276 
147.027 147.232 147.944 148.126 140.463 139.871 140.482 141.167 139.277 
139.915 140.612 141.253 141.976 138.59 139.281 139.963 140.657 141.363 
142.041 142.7 137.98 138.607 139.309 139.974 140.683 141.377 142.043 
142.688 143.277 137.706 138.166 138.92 139.435 140.19 140.772 141.503 
142.08 142.728 143.281 143.911 137.716 138.056 138.798 139.202 139.961 
140.433 141.212 141.7 142.435 142.887 143.584 144.056 144.773 137.9 
138.135 138.824 139.148 139.871 140.281 141.052 141.511 142.3 142.737 
143.508 143.903 144.664 145.062 145.802 138.279 138.392 139.065 139.261 
139.992 140.279 141.058 141.421 142.229 142.65 143.468 143.889 144.68 
145.059 145.801 146.145 146.823 138.784 138.836 139.494 139.61 140.348 
140.533 141.316 141.554 142.339 142.651 143.446 143.843 144.628 145.044 
145.766 146.145 146.794 147.129 147.719 139.273 140.277 139.834 140.003 
141.444 140.917 141.125 140.655 140.883 142.84 142.197 142.383 141.837 
142.085 141.601 141.848 144.416 143.715 143.886 143.198 143.397 142.83 
143.077 142.579 142.832 146.013 145.328 145.555 144.815 144.991 144.262 
144.469 143.851 144.106 143.585 143.887 147.653 146.923 147.151 146.468 
146.69 145.953 146.14 145.386 145.588 144.926 145.193 144.676 145.02 
149.418 148.616 148.784 148.048 148.27 147.594 147.811 147.094 147.253 
146.501 146.663 146.017 146.276 145.796 146.126 151.144 150.398 150.578 
149.766 149.938 149.178 149.374 148.683 148.855 148.142 148.252 147.525 
147.667 147.063 147.312 146.855 147.143 152.681 152.055 152.289 151.558 
151.714 150.907 151.019 150.247 150.376 149.675 149.803 149.094 149.192 
148.492 148.636 148.06 148.288 147.828 148.068 148.706 148.979 149.157 
149.812 149.403 149.516 150.222 150.34 151.033 150.009 150.075 150.846 
150.88 151.617 151.653 152.395 150.619 150.726 151.557 151.61 152.419 
152.392 153.183 153.149 153.951 151.222 151.337 152.213 152.326 153.224 
153.263 154.126 154.073 154.906 154.817 155.6 151.953 152.026 152.966 
153.038 154.018 154.091 155.067 155.063 155.968 155.863 156.673 156.498 
157.195 152.687 152.814 153.805 153.884 154.927 154.99 156.079 156.084 
157.121 157.008 157.927 157.696 158.485 158.158 158.816 153.226 153.469 
154.471 154.681 155.778 155.945 157.132 157.202 158.358 158.27 159.305 
159.073 159.98 159.621 160.384 159.904 160.514 153.598 153.911 154.929 
155.248 156.395 156.715 157.976 158.225 159.453 159.514 160.585 160.462 
161.386 161.134 161.917 161.524 162.135 161.604 162.054 134.428 133.483 
133.966 134.07 132.786 133.039 133.079 133.627 133.831 132.803 132.63 
132.571 132.767 132.915 133.431 133.707 133.389 132.991 132.882 132.634 
132.641 132.726 132.936 133.401 133.856 133.998 133.637 133.538 133.181 
133.097 132.804 132.881 132.928 133.397 133.86 134.662 134.701 134.245 
134.172 133.827 133.8 133.427 133.497 133.243 133.693 133.8 134.681 
135.081 136.087 135.807 135.149 135.12 134.598 134.69 134.238 134.445 
134.077 134.582 134.451 135.322 135.445 136.451 136.694 137.59 137.095 
136.416 136.418 135.779 135.927 135.359 135.647 135.185 135.705 135.468 
136.27 136.253 137.152 137.227 138.035 138.155 138.852 138.23 137.666 
137.663 137.094 137.218 136.688 136.951 136.478 136.892 136.581 137.208 
137.133 137.888 137.924 138.623 138.659 139.269 139.343 139.925 134.952 
134.677 135.097 135.679 134.489 134.891 135.512 135.879 136.501 134.385 
134.767 135.451 135.794 136.468 136.808 137.518 134.552 134.774 135.517 
135.811 136.553 136.866 137.624 137.935 138.661 135.317 135.211 135.955 
136.038 136.804 137.025 137.801 138.087 138.821 139.085 139.753 136.582 
136.231 136.865 136.696 137.397 137.422 138.185 138.343 139.085 139.278 
139.968 140.179 140.855 137.919 137.518 137.99 137.688 138.246 138.125 
138.833 138.867 139.62 139.679 140.388 140.484 141.198 141.357 142.05 
139.121 138.753 139.156 138.794 139.243 138.997 139.61 139.566 140.293 
140.312 140.99 141.007 141.675 141.771 142.461 142.581 143.186 140.19 
139.876 140.304 139.952 140.393 140.046 140.577 140.386 141.032 140.983 
141.601 141.588 142.154 142.224 142.832 142.973 143.557 143.65 144.126 
135.312 136.034 135.812 136.117 136.87 136.603 136.977 136.713 137.086 
137.854 137.514 137.923 137.653 138.081 137.778 138.208 138.934 138.544 
138.899 138.618 139.064 138.796 139.229 138.943 139.436 140.024 139.627 
139.961 139.622 140.061 139.783 140.261 139.974 140.485 140.233 140.837 
141.14 140.735 141.126 140.748 141.223 140.874 141.385 141.05 141.59 
141.311 141.929 141.707 142.351 142.28 141.873 142.263 141.921 142.415 
142.095 142.598 142.238 142.714 142.401 142.955 142.761 143.375 143.186 
143.746 143.341 142.967 143.275 142.979 143.415 143.193 143.671 143.397 
143.803 143.48 143.917 143.704 144.26 144.124 144.674 144.484 144.965 
144.257 143.936 144.2 143.914 144.298 144.096 144.569 144.367 144.798 
144.51 144.913 144.644 145.153 144.982 145.55 145.378 145.881 145.658 
146.121 150.669 149.969 150.109 149.739 149.264 149.444 149.17 149.325 
149.066 148.487 148.719 148.458 148.729 148.501 148.683 148.37 147.668 
147.891 147.585 147.921 147.652 147.96 147.573 147.801 147.309 146.927 
147.074 146.705 146.994 146.678 147 146.561 146.826 146.255 146.51 
145.913 146.265 146.351 145.88 146.087 145.681 145.983 145.542 145.799 
145.238 145.429 144.829 145.058 144.5 145.642 145.687 145.121 145.228 
144.682 144.928 144.44 144.753 144.235 144.463 143.891 144.066 143.524 
143.728 143.23 145.086 145.092 144.514 144.498 143.878 143.956 143.404 
143.642 143.131 143.411 142.852 143.104 142.549 142.794 142.284 142.515 
142.033 144.577 144.579 144.036 143.964 143.345 143.274 142.692 142.744 
142.218 142.367 141.798 142.003 141.428 141.723 141.217 141.534 141.061 
141.329 140.886 
POINT_DATA 1002
SCALARS Distance double
LOOKUP_TABLE default
139.675 138.75 138.718 139.7 138.74 140.727 139.829 138.865 140.894 
142.013 140.109 139.102 141.213 142.344 143.524 140.555 139.481 141.683 
142.757 143.885 145.091 141.171 140.098 142.303 143.369 144.414 145.569 
146.692 141.896 140.892 142.973 144.131 145.307 146.455 147.53 148.449 
142.586 141.617 143.598 144.76 146.132 147.452 148.543 149.446 150.229 
143.177 142.197 144.216 145.313 146.638 148.028 149.195 150.176 151.055 
151.82 143.749 142.773 144.864 145.982 147.197 148.484 149.634 150.668 
151.679 152.571 153.265 137.735 137.682 136.496 136.495 135.231 137.773 
135.396 134.352 136.786 137.978 134.584 133.782 135.82 137.073 138.163 
133.872 133.124 134.851 135.965 137.105 138.452 133.293 132.704 134.021 
134.783 135.843 137.351 139.141 133.306 133.056 133.731 134.095 134.802 
136.311 138.264 140.085 133.922 133.938 134.065 134.168 134.474 135.644 
137.586 139.462 140.921 134.719 134.844 134.695 134.716 134.84 135.544 
137.146 139.038 140.5 141.62 135.586 135.459 136.426 136.369 137.465 
135.458 137.617 138.659 136.599 135.619 139.05 139.984 138.126 137.048 
136.047 140.521 141.482 139.667 138.724 137.736 137.176 142.053 142.979 
141.175 140.375 139.589 139.076 138.965 143.539 144.272 142.786 142.109 
141.496 141.019 140.744 140.574 144.893 145.433 144.373 143.859 143.331 
142.843 142.424 142.013 141.691 146.177 146.584 145.823 145.434 144.93 
144.397 143.942 143.488 143.027 142.756 144.11 144.241 145.831 144.614 
146.153 147.767 145.044 146.583 148.259 149.858 145.414 146.901 148.718 
150.425 152.245 145.888 147.154 148.958 150.819 152.675 154.712 146.489 
147.584 149.117 150.98 152.858 154.848 156.764 146.984 148.119 149.388 
151.041 152.904 154.83 156.755 158.403 147.306 148.526 149.718 151.112 
152.843 154.724 156.642 158.467 159.955 147.597 148.797 150.001 151.245 
152.754 154.498 156.335 158.249 160.058 161.453 145.285 147.113 146.55 
149.145 148.531 147.864 151.575 150.858 150.125 149.239 154.36 153.598 
152.713 151.679 150.494 156.795 156.266 155.315 154.299 153.027 151.628 
158.542 158.312 157.538 156.608 155.679 154.316 152.781 160.041 159.925 
159.433 158.571 157.791 156.913 155.436 153.795 161.552 161.443 161.158 
160.45 159.514 158.754 157.743 156.142 154.502 162.961 162.939 164.167 
164.11 165.061 162.769 165.149 165.91 163.942 162.335 166.1 166.466 
164.942 163.255 161.33 166.382 166.169 165.631 163.954 161.98 160.236 
165.759 165.349 165.568 164.386 162.591 160.824 159.312 164.868 164.579 
164.851 164.212 162.946 161.317 159.606 157.921 163.928 163.691 163.878 
163.434 162.593 161.339 159.663 157.842 156.122 162.68 162.442 162.647 
162.272 161.607 160.668 159.317 157.65 156.022 154.577 162.013 163.588 
162.131 163.664 161.858 164.694 163.244 161.36 164.66 165.442 162.437 
160.503 164.076 165.275 166.049 161.24 159.422 163.011 164.549 165.609 
166.112 160.053 158.58 161.671 163.395 164.773 165.407 165.484 159.118 
157.829 160.456 162.051 163.632 164.582 164.812 164.742 158.124 156.862 
159.381 160.744 162.21 163.372 163.93 164.049 163.967 157.046 155.91 
158.288 159.534 160.752 161.806 162.52 162.887 162.989 162.843 147.638 
148.771 148.79 150.05 149.926 150.052 151.37 151.022 151.441 151.343 
152.605 152.087 152.853 152.829 152.749 153.594 153.06 154.001 154.225 
154.34 154.401 154.442 153.932 154.879 155.317 155.791 156.051 156.191 
155.359 154.712 155.873 156.365 157.103 157.689 157.941 158.152 156.224 
155.362 156.98 157.557 158.374 159.274 159.779 160.075 160.242 146.35 
147.421 146.1 147.147 145.712 148.517 146.771 145.353 148.185 149.506 
146.465 145.204 147.862 149.134 150.503 146.263 145.052 147.603 148.915 
150.223 151.643 145.988 144.749 147.31 148.629 150.086 151.54 152.777 
145.67 144.516 146.974 148.187 149.618 151.369 152.757 153.686 145.463 
144.49 146.687 147.842 148.984 150.656 152.461 153.581 154.34 145.378 