# vtk DataFile Version 4.0
vtk output
ASCII
DATASET POLYDATA
POINTS 1002 float
-81.9264 -86.5201 74.3177 -82.089 -85.9291 73.2088 -81.6831 -85.5828 73.9682 
-81.4502 -86.301 75.1277 -81.2042 -85.349 74.7236 -81.7578 -87.2869 75.6 
-80.8192 -86.3124 75.9126 -80.4437 -85.3391 75.456 -81.1973 -87.2621 76.5102 
-81.5084 -88.2544 77.1013 -79.9749 -86.4835 76.6955 -79.5428 -85.4355 76.3243 
-80.4931 -87.4516 77.3651 -80.9615 -88.3286 78.134 -81.212 -89.3865 78.7883 
-79.2538 -86.5297 77.6665 -78.9779 -85.4847 77.3872 -79.783 -87.5978 78.2515 
-80.3325 -88.5229 79.0649 -80.7346 -89.5195 79.8478 -80.976 -90.7292 80.5474 
-78.9531 -86.5225 78.9504 -78.7999 -85.5302 78.674 -79.3567 -87.5872 79.469 
-79.7802 -88.6981 80.1343 -80.1243 -89.8318 80.8388 -80.4224 -91.0368 81.5489 
-80.6963 -92.1901 82.2551 -78.8279 -86.7893 80.6243 -78.6976 -85.6968 80.3586 
-79.1335 -87.8421 81.0892 -79.4137 -88.9708 81.5966 -79.5638 -90.2732 82.0789 
-79.7341 -91.5879 82.6449 -79.986 -92.7045 83.2857 -80.2274 -93.6808 83.8373 
-78.6348 -87.3106 82.5562 -78.6423 -86.0615 82.2789 -78.7985 -88.511 82.8748 
-79.0364 -89.5639 83.2103 -79.1649 -90.7501 83.5468 -79.2294 -92.1757 83.9659 
-79.3642 -93.4367 84.5105 -79.558 -94.4199 84.9958 -79.7125 -95.424 85.2795 
-78.4836 -87.8644 84.2661 -78.7157 -86.6093 83.9151 -78.408 -89.1741 84.4938 
-78.558 -90.2605 84.6611 -78.7708 -91.2529 84.9234 -78.9039 -92.6057 85.3191 
-78.9867 -94.1403 85.7856 -79.0966 -95.3492 86.2149 -79.2345 -96.3481 86.4779 
-79.3361 -97.4234 86.5732 -78.4866 -88.3667 85.4464 -78.8495 -87.2305 85.0424 
-78.2217 -89.5992 85.7356 -78.2227 -90.7409 85.9096 -78.3989 -91.7475 86.1495 
-78.5456 -93.0151 86.552 -78.6177 -94.7002 86.9806 -78.6908 -96.2514 87.3124 
-78.8207 -97.3677 87.5366 -78.9778 -98.3436 87.6593 -79.095 -99.3482 87.7047 
-82.0087 -85.1102 72.6074 -81.5874 -84.7186 73.4137 -81.8452 -84.1614 71.9845 
-81.3112 -83.8042 72.8183 -81.5634 -83.1501 71.3953 -81.0005 -84.4576 74.1752 
-80.9247 -82.819 72.2964 -81.465 -82.1572 71.0475 -80.5518 -83.5642 73.5887 
-80.1163 -84.3877 74.9817 -80.8416 -81.6625 72.1091 -81.7221 -81.1432 71.0318 
-80.1121 -82.4645 73.1328 -79.7524 -83.3816 74.4992 -79.3628 -84.4155 76.0414 
-81.0635 -80.3908 72.2771 -81.963 -80.0836 71.1804 -80.0415 -81.025 73.1274 
-79.5742 -82.0286 74.2312 -79.4212 -83.2236 75.8441 -79.0603 -84.433 77.3163 
-81.2767 -79.355 72.6254 -82.0725 -79.1434 71.5203 -80.2461 -79.7443 73.5683 
-79.5893 -80.5266 74.5199 -79.4852 -81.7296 75.9928 -79.2529 -83.1216 77.5228 
-78.8576 -84.4297 78.8131 -81.6451 -78.7526 73.2116 -82.4233 -78.4903 72.2494 
-80.6973 -79.1375 74.2334 -79.8525 -79.6488 75.2537 -79.4714 -80.5029 76.6032 
-79.2144 -81.776 78.0741 -78.8578 -83.1953 79.2786 -78.6781 -84.5821 80.6167 
-82.2924 -78.429 74.0519 -83.0463 -78.1533 73.2212 -81.4405 -78.9356 75.0381 
-80.5353 -79.4413 76.1063 -79.8384 -80.0199 77.3565 -79.3192 -80.9781 78.6969 
-78.8793 -82.2645 79.8267 -78.7165 -83.6179 80.9745 -78.7707 -85.0508 82.4341 
-82.931 -78.2561 74.9182 -83.6316 -78.0926 74.124 -82.1658 -78.7242 75.8813 
-81.3315 -79.2875 76.9376 -80.5924 -79.865 78.0364 -79.9711 -80.704 79.1472 
-79.3797 -81.8503 80.1745 -79.0158 -83.0487 81.2354 -78.9952 -84.2969 82.5298 
-79.0194 -85.7325 83.8974 -83.6476 -78.2237 75.4468 -82.8901 -78.4301 76.4414 
-83.6101 -78.4753 76.9837 -82.7462 -78.7147 78.1574 -83.6911 -78.9495 78.6808 
-82.0517 -78.905 77.5742 -82.7908 -79.3768 79.8397 -83.9082 -79.8106 80.2266 
-81.8916 -79.2602 79.2896 -81.3092 -79.546 78.6431 -83.0374 -80.4429 81.2947 
-83.9979 -80.8704 81.6102 -81.9873 -80.1654 80.8121 -81.3479 -80.2155 80.1639 
-80.7891 -80.4901 79.5715 -83.1286 -81.5115 82.7884 -83.9053 -81.8834 83.1316 
-82.2051 -81.3385 82.3574 -81.4881 -81.3972 81.7034 -81.0069 -81.587 80.9817 
-80.2578 -81.7471 80.4882 -83.0682 -82.5528 84.4834 -83.8825 -82.9274 84.7555 
-82.2552 -82.3629 84.1594 -81.5247 -82.4831 83.6313 -80.9934 -82.6866 82.8693 
-80.4423 -82.826 82.1154 -79.6771 -82.9195 81.6013 -83.1389 -83.7157 86.1139 
-84.0028 -83.9897 86.2515 -82.2991 -83.459 85.8927 -81.5577 -83.4422 85.5194 
-80.8705 -83.5426 84.9845 -80.2851 -83.5999 84.2925 -79.8066 -83.756 83.5489 
-79.3627 -84.0153 82.9574 -83.3153 -84.8628 87.4853 -84.1233 -84.9867 87.5385 
-82.46 -84.695 87.3 -81.7589 -84.6328 86.9302 -81.08 -84.6723 86.509 
-80.3065 -84.6292 86.126 -79.7313 -84.6702 85.5848 -79.4732 -84.993 84.8776 
-79.2808 -85.3938 84.2936 -83.4205 -85.9706 88.6055 -84.1493 -86.0136 88.6055 
-82.5885 -85.9099 88.4839 -81.9381 -85.908 88.1436 -81.4444 -86.0463 87.6577 
-80.7629 -86.1434 87.307 -79.9813 -86.1267 87.0484 -79.5153 -86.2733 86.5426 
-79.3339 -86.6249 85.8744 -79.1348 -86.9576 85.3716 -78.7513 -88.5171 86.1743 
-79.0841 -88.3034 86.6011 -78.7513 -89.7718 87.4183 -79.3642 -88.0434 87.2605 
-79.1345 -89.591 88.0683 -78.9249 -91.2037 88.9282 -79.7363 -87.84 87.9151 
-79.4934 -89.3832 88.8425 -79.2736 -91.0449 89.6916 -79.0951 -93.2222 90.2925 
-80.4172 -87.78 88.2609 -79.9629 -89.274 89.376 -79.6123 -90.8714 90.3362 
-79.4223 -93.1681 90.9289 -79.1747 -95.5985 91.2764 -81.161 -87.6275 88.5839 
-80.6387 -89.1884 89.7197 -80.0952 -90.8308 90.6724 -79.8402 -93.1014 91.3534 
-79.601 -95.643 91.8704 -79.2084 -97.6996 92.2871 -81.6139 -87.3363 89.1183 
-81.2276 -88.9224 90.2768 -80.7522 -90.7381 91.0942 -80.4174 -93.0742 91.59 
-80.1308 -95.5994 92.2772 -79.6387 -97.7345 92.9349 -79.2058 -99.7986 93.2922 
-82.059 -87.1898 89.5174 -81.6197 -88.667 90.7625 -81.3051 -90.4413 91.7039 
-81.0424 -92.8042 92.0074 -80.7011 -95.4049 92.4762 -80.1198 -97.6199 93.3117 
-79.529 -99.8114 93.798 -79.2776 -102.504 93.9049 -82.8173 -87.1992 89.6142 
-82.1963 -88.6064 90.7925 -81.7839 -90.1645 91.9308 -81.5484 -92.2663 92.4617 
-81.2374 -94.9071 92.7168 -80.6752 -97.343 93.3875 -79.9928 -99.6304 94.0343 
-79.563 -102.412 94.2283 -79.4624 -105.446 94.2761 -83.6622 -87.2105 89.5767 
-83.0427 -88.6039 90.6017 -82.4851 -90.02 91.7059 -82.1082 -91.7619 92.5382 
-81.7639 -94.2461 92.9497 -81.2827 -96.9309 93.4366 -80.6588 -99.3318 94.0608 
-80.0793 -101.996 94.4116 -79.7543 -105.063 94.5542 -79.6237 -107.833 94.7061 
-78.3783 -89.6546 86.6179 -78.5146 -91.022 87.9877 -78.208 -90.8772 87.0081 
-78.7707 -92.9211 89.4951 -78.4353 -92.5052 88.5345 -78.2508 -92.1233 87.3579 
-78.8598 -95.3242 90.6699 -78.5705 -94.7859 89.9705 -78.2881 -94.1568 88.9764 
-78.2559 -93.5422 87.7611 -78.8532 -97.5852 91.6878 -78.5494 -97.1868 91.0749 
-78.19 -96.6588 90.2873 -77.9584 -96.0762 89.2839 -78.1719 -95.3885 88.1536 
-78.9211 -99.9249 92.8159 -78.6597 -99.7339 92.2552 -78.3252 -99.2873 91.4525 
-77.8998 -98.7853 90.4805 -77.7906 -98.1575 89.4772 -78.1855 -97.272 88.4074 
-79.0763 -103.013 93.6367 -78.8615 -103.197 93.3223 -78.6817 -102.838 92.7089 
-78.4124 -101.992 91.7517 -78.034 -100.981 90.6997 -77.9739 -99.8831 89.6208 
-78.3574 -98.6442 88.5501 -79.2768 -106.326 94.0822 -78.9867 -106.946 93.8752 
-78.7777 -107.043 93.5154 -78.8118 -106.236 92.8657 -78.7124 -104.657 91.9787 
-78.3663 -102.859 90.8938 -78.2873 -101.172 89.7213 -78.6005 -99.6683 88.654 
-79.4143 -108.907 94.5048 -79.0324 -109.754 94.1925 -78.6136 -110.322 93.781 
-78.6126 -110.189 93.2945 -78.9105 -108.962 92.7334 -78.8653 -106.848 91.9566 
-78.5665 -104.447 90.8925 -78.5537 -102.31 89.766 -78.8186 -100.656 88.7289 
-79.5436 -110.304 95.0643 -79.1618 -111.408 94.6575 -79.3273 -112.436 94.9982 
-78.7554 -113.916 94.2991 -79.1105 -114.902 94.1689 -78.5743 -112.378 94.0453 
-78.467 -117.059 93.4933 -78.9213 -117.498 93.0282 -78.1511 -115.234 93.5312 
-78.2072 -113.008 93.3794 -78.3836 -119.501 92.5752 -78.8908 -118.773 92.0328 
-78.0049 -118.308 92.8356 -77.9976 -115.726 92.7543 -78.4733 -112.724 92.8075 
-78.7112 -119.714 91.2168 -79.4506 -118.636 90.931 -78.088 -119.787 91.6936 
-77.9418 -118.009 91.9012 -78.3371 -115.019 92.0764 -78.8363 -111.164 92.2802 
-79.6161 -118.961 89.5554 -80.4391 -118.241 89.9293 -78.5938 -119.331 89.9223 
-78.0482 -118.684 90.6458 -78.2214 -116.521 91.2336 -78.6334 -112.911 91.6143 
-78.7755 -108.465 91.5541 -80.4923 -118.271 88.8805 -81.1076 -117.388 89.7192 
-79.4501 -118.482 88.779 -78.5797 -118.066 89.5897 -78.4358 -116.59 90.5916 
-78.6753 -113.576 91.1329 -78.7739 -109.436 91.1129 -78.6819 -105.39 90.5855 
-80.853 -116.69 89.4714 -81.342 -115.406 90.155 -80.0945 -117.156 89.1525 
-79.3074 -116.746 89.5891 -78.9958 -115.451 90.4304 -79.082 -112.942 90.9284 
-79.0841 -109.389 90.8283 -78.9393 -105.791 90.2942 -78.8335 -102.882 89.5261 
-81.0572 -113.994 90.2341 -81.5983 -112.748 90.5121 -80.4881 -114.703 90.0696 
-79.9227 -114.521 90.2169 -79.5937 -113.444 90.5688 -79.5541 -111.434 90.7269 
-79.4942 -108.574 90.4816 -79.2787 -105.595 89.9295 -79.0937 -103.148 89.2005 
-79.0491 -101.153 88.4191 -79.8551 -108.083 95.0842 -79.7868 -110.419 95.4579 
-80.2647 -107.874 95.3671 -80.2975 -110.164 95.6359 -80.851 -107.388 95.3836 
-79.7449 -112.471 95.1558 -80.985 -109.717 95.4347 -81.4356 -106.673 94.9765 
-80.4419 -112.21 95.1443 -79.6922 -114.676 93.9675 -81.5132 -108.762 94.7729 
-82.0522 -105.407 94.3312 -81.0897 -111.685 94.8818 -80.3943 -114.071 93.8889 
-79.475 -116.579 92.6615 -82.0546 -106.908 94.0687 -82.9486 -103.68 93.9393 
-81.4467 -110.231 94.2635 -80.9412 -113.119 93.8277 -80.1252 -115.492 92.7007 
-79.4889 -117.435 91.795 -82.9856 -104.798 93.774 -83.9319 -102.048 93.7181 
-82.0336 -107.841 93.7146 -81.4686 -111.071 93.5644 -80.8919 -113.987 92.9328 
-80.2522 -116.135 92.0707 -80.1705 -117.499 91.1417 -83.9727 -103.018 93.4658 
-84.5812 -100.58 93.1078 -83.0683 -105.616 93.4487 -82.3536 -108.429 93.3285 
-81.8653 -111.357 93.0538 -81.2446 -113.916 92.4794 -80.8706 -115.746 91.7174 
-81.0072 -116.882 90.7175 -84.6317 -101.3 92.6915 -84.9635 -99.109 92.1113 
-84.0377 -103.719 92.9929 -83.3915 -106.194 93.0803 -82.9186 -108.589 93.0325 
-82.3677 -110.832 92.6909 -81.7624 -112.821 92.1043 -81.5172 -114.345 91.4162 
-81.5086 -115.223 90.6831 -85.1497 -99.5908 91.7313 -85.4072 -97.7855 91.166 
[...]
CELL_DATA 2000
SCALARS Distance double
LOOKUP_TABLE default
138.845 138.827 139.135 139.789 138.824 139.156 139.867 140.191 140.957 
138.827 139.176 139.964 140.323 141.166 141.476 142.329 138.982 139.248 
140.089 140.457 141.377 141.727 142.653 142.945 143.885 139.475 139.577 
140.464 140.71 141.709 142.009 143.011 143.304 144.299 144.588 145.58 
140.366 140.317 141.303 141.347 142.429 142.545 143.623 143.79 144.847 
145.063 146.091 146.318 147.261 141.564 141.431 142.499 142.42 143.515 
143.48 144.547 144.575 145.651 145.757 146.837 146.955 147.958 148.036 
148.933 142.848 142.713 143.727 143.648 144.64 144.587 145.537 145.533 
146.54 146.63 147.73 147.831 148.899 148.908 149.871 149.817 150.712 
143.989 143.899 144.769 144.733 145.592 145.579 146.425 146.437 147.368 
147.475 148.559 148.724 149.832 149.906 150.892 150.847 151.737 151.654 
152.502 138.272 137.355 137.962 138.227 136.311 136.989 137.269 137.901 
138.169 135.298 135.911 136.182 136.863 137.135 137.81 138.116 134.579 
134.979 135.142 135.731 136.01 136.732 137.118 137.827 138.273 134.108 
134.361 134.375 134.754 134.96 135.624 136.135 136.906 137.502 138.16 
138.767 133.769 133.946 133.962 134.137 134.278 134.72 135.275 136.024 
136.787 137.493 138.18 138.795 139.553 133.802 133.806 134.017 133.996 
134.25 134.357 134.913 135.389 136.224 136.873 137.66 138.261 139.029 
139.705 140.652 134.333 134.163 134.557 134.407 134.851 134.715 135.298 
135.39 136.192 136.552 137.395 137.855 138.678 139.251 140.209 140.933 
141.982 135.095 134.874 135.291 135.144 135.65 135.506 136.077 136.005 
136.714 136.809 137.614 137.841 138.676 139.053 139.997 140.579 141.62 
142.298 143.255 135.636 136.535 135.975 135.851 137.628 136.95 136.83 
136.291 136.237 139.002 138.173 137.99 137.325 137.291 136.742 136.726 
140.511 139.652 139.453 138.621 138.56 137.895 137.969 137.35 137.409 
141.966 141.17 141.054 140.195 140.155 139.352 139.468 138.75 138.897 
138.176 138.286 143.456 142.66 142.633 141.822 141.864 141.055 141.181 
140.397 140.553 139.772 139.898 139.132 139.296 145.037 144.239 144.261 
143.451 143.538 142.761 142.887 142.116 142.228 141.449 141.566 140.796 
140.99 140.255 140.579 146.544 145.834 145.884 145.11 145.187 144.426 
144.553 143.792 143.909 143.116 143.242 142.472 142.709 141.997 142.368 
141.684 142.144 147.876 147.277 147.354 146.671 146.746 146.037 146.181 
145.458 145.642 144.853 145.042 144.223 144.483 143.738 144.108 143.449 
143.873 143.252 143.685 144.639 144.87 145.202 146.1 145.162 145.499 
146.489 146.758 147.774 145.57 145.879 146.949 147.221 148.289 148.572 
149.742 146.103 146.371 147.453 147.721 148.786 149.082 150.247 150.625 
151.851 146.645 146.917 147.973 148.241 149.27 149.547 150.688 151.093 
152.366 152.748 153.915 147.113 147.394 148.439 148.746 149.788 150.045 
151.156 151.523 152.815 153.254 154.486 154.765 155.845 147.595 147.819 
148.82 149.16 150.232 150.552 151.637 151.985 153.193 153.657 154.879 
155.268 156.342 156.639 157.774 148.134 148.3 149.212 149.509 150.525 
150.908 151.947 152.357 153.443 153.932 155.068 155.551 156.613 157.014 
158.107 158.57 159.855 148.62 148.801 149.638 149.883 150.791 151.135 
152.09 152.519 153.533 154.048 155.14 155.672 156.75 157.208 158.282 
158.781 159.998 160.609 161.884 144.82 146.251 145.533 145.572 147.938 
147.072 147.12 146.338 146.393 149.997 148.992 149.094 148.089 148.144 
147.232 147.277 152.146 151.174 151.342 150.267 150.336 149.219 149.25 
148.22 148.3 154.155 153.283 153.468 152.498 152.587 151.499 151.529 
150.396 150.473 149.405 149.558 156.16 155.32 155.649 154.669 154.892 
153.78 153.891 152.728 152.819 151.696 151.817 150.747 150.856 158.346 
157.525 158.198 157.16 157.721 156.432 156.776 155.346 155.514 154.149 
154.23 153.021 153.042 151.947 151.909 160.622 159.91 160.817 159.924 
160.727 159.559 160.123 158.626 158.885 157.201 157.216 155.609 155.504 
154.146 154.02 152.878 152.75 162.657 162.151 163.011 162.39 163.107 
162.337 162.884 161.837 162.134 160.679 160.649 158.87 158.593 156.834 
156.531 155.074 154.863 153.68 153.515 163.888 165.46 164.596 164.226 
166.686 165.999 165.687 164.777 164.282 167.931 167.321 167.128 166.182 
165.717 164.727 164.099 168.786 168.588 168.6 167.751 167.234 166.149 
165.492 164.434 163.515 168.609 168.943 168.996 168.85 168.311 167.545 
166.695 165.73 164.733 163.579 162.167 168.02 168.323 168.173 168.512 
168.065 168.01 167.184 166.636 165.515 164.58 163.069 161.813 160.018 
167.634 167.735 167.432 167.567 167.2 167.361 166.813 166.693 165.693 
165.064 163.513 162.453 160.586 159.406 157.68 166.956 167.258 166.941 
167.014 166.595 166.646 166.162 166.168 165.303 164.949 163.451 162.642 
160.783 159.783 158.048 157.123 155.763 165.663 166.257 165.942 166.323 
165.806 166.004 165.321 165.427 164.453 164.322 162.85 162.332 160.534 
159.79 158.108 157.364 156.016 155.34 154.275 163.889 164.268 164.629 
165.492 164.396 164.903 165.795 166.024 166.677 164.225 164.929 165.879 
166.237 166.834 167.047 167.664 163.542 164.516 165.54 166.2 166.782 
167.06 167.434 167.827 168.292 162.505 163.522 164.46 165.507 166.201 
166.819 167.117 167.455 167.699 168.142 168.303 161.639 162.425 163.124 
164.143 164.866 165.878 166.379 167 167.252 167.612 167.798 168.046 
168.048 160.841 161.583 162.142 162.897 163.493 164.442 165.066 165.99 
166.391 167.032 167.207 167.614 167.662 167.849 167.719 159.705 160.608 
161.152 161.943 162.449 163.243 163.785 164.657 165.071 165.879 166.014 
166.701 166.649 167.202 166.998 167.326 166.939 158.452 159.335 159.869 
160.781 161.286 162.162 162.64 163.468 163.811 164.541 164.632 165.297 
165.21 165.875 165.669 166.239 165.845 166.217 165.637 149.091 150.144 
149.804 150.17 151.214 150.918 151.355 150.946 151.322 152.274 152.024 
152.555 152.182 152.608 152.156 152.58 153.422 153.147 153.793 153.45 
154.011 153.541 154.047 153.537 154.062 154.666 154.375 155.068 154.76 
155.476 155.069 155.764 155.211 155.849 155.208 155.773 155.746 155.581 
156.265 156.043 156.804 156.546 157.383 157.009 157.777 157.169 157.747 
156.991 157.437 156.526 156.533 157.304 157.201 157.989 157.815 158.66 
158.487 159.328 158.992 159.632 158.995 159.435 158.633 159.02 157.17 
157.274 158.21 158.232 159.128 158.989 159.815 159.661 160.52 160.36 
161.148 160.755 161.356 160.674 161.177 160.325 160.804 157.804 157.952 
158.969 159.123 160.09 160.074 160.878 160.76 161.6 161.515 162.441 
162.234 163.044 162.56 163.207 162.507 163.061 162.21 162.678 148.615 
148.172 148.791 149.606 147.765 148.36 149.173 149.801 150.635 147.334 
147.978 148.802 149.403 150.212 150.817 151.646 146.674 147.448 148.31 
149.021 149.834 150.425 151.229 151.846 152.749 145.937 146.69 147.546 
148.393 149.268 149.999 150.832 151.471 152.391 153.052 154.016 145.387 
146.006 146.791 147.578 148.473 149.317 150.23 151.013 151.971 152.709 
153.671 154.317 155.133 144.925 145.489 146.191 146.873 147.69 148.503 
149.408 150.291 151.264 152.161 153.12 153.892 154.657 155.252 155.857 
144.53 145.014 145.651 146.263 146.989 147.734 148.545 149.407 150.297 
151.272 152.212 153.164 153.971 154.692 155.279 155.85 156.415 144.381 
144.704 145.298 145.76 146.441 147.057 147.812 148.555 149.345 150.226 
151.083 152.095 152.975 153.899 154.626 155.285 155.864 156.423 157.031 
144.588 145.251 145.081 145.467 145.993 145.829 146.249 146.056 146.567 
146.66 146.606 147.122 146.928 147.425 147.256 147.884 147.187 147.239 
147.856 147.794 148.337 148.161 148.723 148.614 149.332 147.804 147.821 
148.548 148.531 149.182 149.05 149.614 149.463 150.131 150.11 150.98 
148.679 148.624 149.472 149.378 150.12 149.941 150.558 150.363 151.056 
150.975 151.883 151.909 152.893 149.563 149.561 150.412 150.376 151.107 
150.945 151.559 151.352 152.084 151.983 152.959 152.939 153.958 153.884 
154.693 150.21 150.275 150.972 151.111 151.78 151.812 152.432 152.341 
153.103 153.053 154.069 154.077 155.112 155.013 155.783 155.537 156.049 
150.71 150.727 151.277 151.458 152.158 152.342 153.118 153.177 154.062 
154.078 155.126 155.167 156.191 156.129 156.877 156.631 157.118 156.782 
157.205 151.132 152.146 151.592 151.721 153.895 153.034 153.254 152.495 
152.751 155.872 155.101 155.457 154.471 154.712 153.752 153.935 157.312 
156.89 157.32 156.659 156.933 155.973 156.101 155.024 155.092 158.668 
158.198 158.659 158.203 158.584 157.977 158.198 157.284 157.343 156.229 
156.246 160.467 159.822 160.354 159.661 160.113 159.493 159.873 159.187 
159.342 158.413 158.352 157.3 157.203 162.151 161.686 162.243 161.555 
161.941 161.192 161.54 160.842 161.058 160.245 160.153 159.19 158.919 
157.985 157.72 163.456 163.168 163.706 163.246 163.541 162.924 163.119 
162.484 162.636 161.909 161.828 160.886 160.55 159.547 159.154 158.262 
157.905 164.709 164.409 164.966 164.55 164.861 164.313 164.457 163.88 
163.969 163.361 163.293 162.488 162.177 161.182 160.767 159.745 159.349 
158.403 158.038 151.133 151.474 151.485 152.037 151.643 151.799 152.323 
152.55 153.519 151.355 151.801 152.382 152.748 153.63 154.174 155.321 
150.744 151.374 152.101 152.663 153.549 154.15 155.189 155.816 156.789 
150.177 150.797 151.635 152.31 153.275 153.952 154.968 155.604 156.592 
157.15 158.143 149.748 150.322 151.155 151.849 152.824 153.576 154.597 
155.312 156.336 156.98 158.063 158.669 159.839 149.315 149.894 150.683 
151.37 152.292 153.053 154.039 154.832 155.882 156.671 157.795 158.544 
159.705 160.395 161.488 148.859 149.43 150.216 150.889 151.801 152.517 
153.469 154.23 155.275 156.134 157.306 158.177 159.351 160.13 161.21 
161.878 162.83 148.485 149.006 149.803 150.442 151.362 152.047 152.977 
153.683 154.673 155.504 156.661 157.604 158.822 159.698 160.827 161.56 
162.588 163.19 164.117 150.678 149.861 150.569 151.014 148.666 149.526 
150.051 150.83 151.134 147.721 148.272 148.641 149.56 149.902 150.697 
150.76 147.243 147.483 147.526 148.133 148.38 149.231 149.366 150.1 
150.065 146.413 146.861 146.727 147.151 147.19 147.812 147.945 148.649 
148.714 149.397 149.456 144.972 145.676 145.569 146.171 146.109 146.703 
146.709 147.329 147.376 148.057 148.168 148.885 149.032 143.559 144.208 
144.16 144.817 144.779 145.467 145.426 146.073 146.019 146.701 146.78 
147.566 147.743 148.492 148.629 142.371 142.949 142.91 143.473 143.434 
144.082 144.082 144.738 144.694 145.328 145.363 146.132 146.342 147.166 
147.362 148.074 148.189 141.2 141.799 141.763 142.297 142.221 142.795 
142.797 143.436 143.468 144.07 144.118 144.777 144.978 145.774 146.05 
146.813 146.996 147.66 147.81 140.528 139.701 140.461 141.097 138.887 
139.634 140.274 140.977 141.568 138.134 138.852 139.511 140.187 140.818 
141.495 142.15 137.547 138.162 138.865 139.496 140.172 140.818 141.533 
142.188 142.867 137.329 137.732 138.447 138.965 139.689 140.264 141.011 
141.633 142.373 142.951 143.6 137.494 137.707 138.394 138.732 139.473 
139.913 140.67 141.194 141.972 142.529 143.287 143.78 144.499 137.844 
137.976 138.646 138.85 139.594 139.878 140.66 141.013 141.815 142.251 
143.084 143.563 144.38 144.823 145.577 138.243 138.35 139.015 139.178 
139.935 140.146 140.975 141.204 142.054 142.312 143.172 143.509 144.361 
144.754 145.526 145.907 146.562 138.651 138.744 139.384 139.548 140.292 
140.516 141.346 141.594 142.452 142.682 143.514 143.746 144.55 144.829 
145.585 145.89 146.557 146.849 147.432 139.079 140.042 139.623 139.836 
141.193 140.68 140.907 140.482 140.775 142.529 141.911 142.094 141.603 
141.908 141.505 141.853 144.111 143.37 143.506 142.848 143.078 142.63 
143.004 142.63 142.981 145.871 145.105 145.301 144.443 144.58 143.874 
144.159 143.737 144.138 143.755 144.058 147.526 146.875 147.184 146.375 
146.542 145.604 145.75 145.011 145.337 144.885 145.263 144.819 145.079 
149.094 148.462 148.802 148.175 148.463 147.638 147.774 146.824 146.995 
146.247 146.585 146.053 146.38 145.85 146.078 150.811 150.077 150.387 
149.743 150.093 149.439 149.686 148.845 148.958 148.058 148.247 147.523 
147.821 147.209 147.446 146.844 147.019 152.61 151.861 152.149 151.409 
151.729 151.056 151.365 150.649 150.811 149.961 150.039 149.226 149.402 
148.721 148.934 148.271 148.407 147.758 147.879 148.552 149.174 149.196 
149.927 149.765 149.868 150.665 150.702 151.498 150.277 150.427 151.274 
151.409 152.26 152.311 153.106 150.97 151.032 151.957 152.049 153.013 
153.088 154.025 153.991 154.853 151.784 151.865 152.891 152.921 154.015 
154.014 155.127 155.062 156.124 155.95 156.927 152.371 152.627 153.715 
153.898 155.068 155.154 156.361 156.334 157.527 157.382 158.496 158.215 
159.168 152.797 153.131 154.271 154.599 155.841 156.127 157.454 157.602 
158.927 158.879 160.116 159.877 160.916 160.487 161.271 153.267 153.596 
154.803 155.144 156.496 156.865 158.403 158.706 160.277 160.35 161.756 
161.57 162.719 162.303 163.144 162.539 163.123 153.71 154.079 155.32 
155.715 157.154 157.595 159.291 159.731 161.49 161.733 163.224 163.173 
164.297 164.028 164.856 164.385 164.955 164.297 164.688 134.945 134.144 
134.534 134.637 133.636 133.807 133.875 134.315 134.551 133.675 133.546 
133.541 133.699 133.903 134.316 134.599 134.039 133.784 133.7 133.587 
133.669 133.828 134.071 134.43 134.786 134.449 134.163 134.045 133.837 
133.813 133.759 133.891 134.044 134.366 134.748 135.293 135.096 134.648 
134.551 134.234 134.235 134.022 134.113 134.037 134.308 134.484 135.031 
135.457 136.179 136.102 135.501 135.445 134.943 135.018 134.627 134.778 
134.477 134.761 134.668 135.224 135.411 136.182 136.524 137.31 137.188 
136.613 136.588 136.02 136.104 135.602 135.775 135.341 135.641 135.36 
135.916 135.872 136.656 136.78 137.618 137.806 138.588 138.146 137.669 
137.673 137.168 137.231 136.734 136.865 136.407 136.659 136.326 136.811 
136.681 137.388 137.407 138.188 138.275 139.041 139.166 139.892 135.421 
135.187 135.56 136.144 135.098 135.411 135.984 136.343 136.956 135.106 
135.369 135.934 136.235 136.817 137.179 137.814 135.308 135.459 136.083 
136.295 136.946 137.167 137.801 138.086 138.712 135.873 135.851 136.533 
136.614 137.355 137.475 138.178 138.283 138.901 139.045 139.614 136.729 
136.587 137.224 137.192 137.849 137.93 138.595 138.722 139.344 139.417 
139.97 140.023 140.571 137.73 137.494 138.038 137.91 138.437 138.408 
138.939 139.045 139.641 139.813 140.426 140.51 141.08 141.088 141.658 
138.894 138.531 139.011 138.753 139.27 139.081 139.62 139.507 140.106 
140.133 140.814 140.935 141.603 141.664 142.242 142.227 142.757 140.164 
139.744 140.177 139.806 140.315 140.037 140.648 140.42 141.071 140.87 
141.511 141.428 142.071 142.126 142.725 142.78 143.28 143.272 143.712 
135.808 136.498 136.301 136.689 137.352 137.094 137.5 137.292 137.815 
138.253 138.014 138.469 138.213 138.74 138.551 139.193 139.095 138.908 
139.373 139.172 139.646 139.47 140.06 139.972 140.64 139.895 139.708 
140.166 140.017 140.47 140.3 140.831 140.766 141.439 141.401 142.068 
140.783 140.515 140.992 140.829 141.366 141.156 141.732 141.577 142.31 
142.237 143.005 142.875 143.571 141.825 141.468 141.947 141.738 142.356 
142.147 142.795 142.59 143.352 143.226 144.045 143.898 144.634 144.437 
145.121 142.893 142.53 142.965 142.739 143.339 143.164 143.799 143.639 
144.346 144.263 145.037 144.944 145.643 145.48 146.109 145.948 146.574 
143.829 143.525 143.902 143.704 144.242 144.103 144.683 144.553 145.188 
145.141 145.873 145.852 146.539 146.422 147.005 146.855 147.427 147.308 
147.877 150.381 149.648 149.835 149.424 148.805 148.955 148.411 148.693 
148.27 147.927 148.052 147.565 147.775 147.538 147.752 147.597 147.173 
147.242 146.878 147.077 147.021 147.273 147.335 147.445 147.329 146.587 
146.589 146.187 146.406 146.288 146.704 146.694 147.073 146.854 147 
146.465 146.042 146.02 145.456 145.62 145.292 145.741 145.532 146.069 
145.676 146.083 145.426 145.663 144.907 145.447 145.442 144.804 144.84 
144.364 144.652 144.362 144.793 144.387 144.732 144.099 144.387 143.719 
144.002 143.419 144.822 144.855 144.281 144.236 143.689 143.781 143.405 
143.698 143.324 143.581 142.999 143.17 142.535 142.796 142.287 142.627 
142.188 144.205 144.268 143.783 143.763 143.206 143.176 142.641 142.778 
142.292 142.544 141.964 142.161 141.496 141.698 141.129 141.457 141.013 
141.405 140.988 
POINT_DATA 1002
SCALARS Distance double
LOOKUP_TABLE default
139.431 138.578 138.528 139.45 138.507 140.488 139.515 138.455 140.639 
141.749 139.562 138.47 140.818 142.045 143.198 139.715 138.764 140.994 
142.322 143.595 144.866 140.255 139.409 141.424 142.715 143.999 145.307 
146.57 141.291 140.403 142.366 143.501 144.66 145.888 147.083 148.135 
142.604 141.692 143.609 144.577 145.57 146.729 147.9 148.896 149.773 
143.847 143.011 144.737 145.581 146.458 147.597 148.868 149.933 150.788 
151.579 144.843 144.116 145.62 146.422 147.276 148.374 149.713 150.921 
151.826 152.601 153.332 137.712 137.648 136.709 136.613 135.616 137.55 
135.509 134.772 136.43 137.428 134.661 134.308 135.26 136.343 137.589 
134.122 133.9 134.349 135.276 136.791 138.131 133.824 133.591 133.948 
134.544 136.013 137.564 138.852 134.011 133.812 134.224 134.586 135.618 
137.05 138.374 139.867 134.672 134.521 134.993 135.342 135.972 136.994 
138.146 139.517 141.246 135.435 135.335 135.773 136.189 136.707 137.466 
138.386 139.498 140.977 142.642 136.143 136.352 137.115 137.39 138.385 
136.755 138.748 139.879 137.836 137.288 140.334 141.324 139.282 138.565 
138.058 141.858 142.722 140.973 140.214 139.629 139.008 143.405 144.247 
142.64 141.982 141.353 140.683 140.007 145.069 145.8 144.314 143.665 
143.02 142.317 141.705 141.264 146.638 147.198 145.95 145.302 144.696 
144.014 143.399 143.028 142.816 148 148.434 147.428 146.863 146.381 
145.853 145.261 144.793 144.507 144.301 145.503 145.805 146.996 146.19 
147.475 148.852 146.658 148.002 149.393 150.985 147.197 148.506 149.852 
151.5 153.075 147.704 149.023 150.285 151.931 153.675 155.001 148.099 
149.516 150.831 152.358 154.163 155.625 156.914 148.497 149.869 151.315 
152.772 154.457 156.022 157.383 159.032 148.977 150.165 151.544 152.988 
154.574 156.18 157.643 159.304 161.238 149.43 150.511 151.701 153.03 
154.587 156.267 157.809 159.404 161.295 163.126 146.255 147.968 147.141 
150.158 149.159 148.135 152.384 151.488 150.365 149.254 154.394 153.629 
152.65 151.577 150.595 156.57 155.988 155.066 153.964 152.924 151.94 
159.102 158.931 158.253 157.017 155.566 154.205 152.986 161.609 161.755 
161.51 160.622 159.028 157.06 155.252 153.827 163.617 163.817 163.761 
163.395 162.399 160.532 158.196 156.15 154.618 164.927 165.248 166.211 
166.546 167.312 165.275 168.118 168.377 166.734 165.153 169.278 168.708 
168.411 166.569 164.765 168.845 168.279 168.866 167.662 165.866 163.585 
167.851 167.934 167.828 167.506 166.39 164.304 161.335 167.424 167.546 
167.024 166.752 166.189 164.513 161.737 158.699 166.806 166.52 166.597 
166.169 165.574 164.16 161.697 158.926 156.526 165.455 165.021 165.576 
165.258 164.552 163.249 161.157 158.759 156.646 154.88 163.621 165.345 
163.846 165.524 163.825 166.522 165.446 163.413 166.674 167.319 164.698 
162.529 166.487 167.198 167.799 163.351 161.649 165.344 166.783 167.38 
167.925 162.288 160.992 163.748 165.519 166.849 167.537 167.938 161.481 
160.057 162.67 164.074 165.618 166.72 167.373 167.681 160.295 158.768 
161.689 162.998 164.294 165.313 166.024 166.561 166.76 158.948 157.643 
160.369 161.809 163.121 164.026 164.566 165.053 165.406 165.381 149.413 
150.573 150.449 151.736 151.462 151.76 152.877 152.487 153.055 153.013 
154.082 153.702 154.423 154.56 154.575 155.347 154.954 155.781 156.232 
156.511 156.472 156.446 155.844 157.007 157.634 158.296 158.536 158.243 
157.317 156.423 158.155 158.816 159.543 160.155 160.215 159.858 158.089 
157.005 159.231 160.007 160.637 161.393 161.906 161.959 161.725 148.001 
148.96 147.556 148.566 147.176 149.998 148.195 146.636 149.65 150.995 
147.518 145.873 149.222 150.635 152.063 146.684 145.258 148.442 150.145 
151.719 153.397 146.081 144.826 147.613 149.369 151.181 153.017 154.606 
145.564 144.388 146.932 148.531 150.329 152.29 154.059 155.311 145.095 
144.11 146.298 147.743 149.367 151.203 153.149 154.71 155.821 144.91 