# vtk DataFile Version 4.0
vtk output
ASCII
DATASET POLYDATA
POINTS 1002 float
-85.0747 -78.4585 62.1297 -84.9906 -78.111 60.7465 -84.5129 -77.7107 61.4358 
-84.5364 -78.1758 62.9058 -84.031 -77.3051 62.2488 -85.0694 -78.8633 63.7007 
-83.9817 -77.8606 63.7615 -83.4912 -76.9173 63.0804 -84.5578 -78.6395 64.639 
-85.0343 -79.3656 65.56 -83.3847 -77.5778 64.6596 -82.8812 -76.6169 63.9317 
-84.0108 -78.4258 65.6286 -84.5976 -79.2175 66.6509 -84.9742 -80.1391 67.6053 
-82.8088 -77.4607 65.6829 -82.3747 -76.4152 64.948 -83.4093 -78.3387 66.691 
-84.0522 -79.1714 67.7405 -84.4801 -80.1446 68.7104 -84.6739 -81.2332 69.6099 
-82.3759 -77.3407 66.8456 -82.115 -76.1518 66.1579 -82.7957 -78.3737 67.7778 
-83.3881 -79.2623 68.8102 -83.8379 -80.2796 69.7765 -84.0224 -81.4618 70.6781 
-84.1101 -82.627 71.5311 -82.0238 -77.0591 68.0338 -81.8695 -75.8902 67.3849 
-82.244 -78.2721 68.8168 -82.6919 -79.3621 69.7556 -83.1264 -80.4858 70.7656 
-83.3285 -81.7797 71.7146 -83.4281 -83.1003 72.5742 -83.5796 -84.2604 73.3746 
-81.615 -76.9544 69.1798 -81.4491 -75.892 68.5246 -81.805 -78.1596 69.944 
-82.1452 -79.4229 70.7787 -82.4986 -80.7441 71.7299 -82.679 -82.1448 72.7147 
-82.7943 -83.5458 73.5917 -82.967 -84.8035 74.3812 -83.1616 -85.8303 75.1499 
-81.2402 -77.1844 70.3123 -81.0649 -76.1102 69.6736 -81.5013 -78.3363 71.1653 
-81.8229 -79.6062 72.0583 -82.075 -81.0758 72.9257 -82.1632 -82.6143 73.8084 
-82.235 -84.0158 74.6725 -82.4108 -85.2634 75.47 -82.5873 -86.3633 76.2382 
-82.6823 -87.2942 76.9769 -81.0274 -77.4673 71.5041 -80.9175 -76.3286 70.9383 
-81.3031 -78.6451 72.316 -81.6093 -79.8765 73.2528 -81.7728 -81.367 74.1574 
-81.78 -83.0597 75.0067 -81.8007 -84.569 75.8719 -81.9436 -85.8185 76.7356 
-82.1011 -86.9974 77.5376 -82.1466 -88.1098 78.257 -82.1102 -89.0708 78.8612 
-84.6169 -77.4969 59.8138 -84.1838 -76.9098 60.6087 -84.3648 -76.7344 58.9714 
-83.8503 -76.0848 59.7903 -84.0643 -75.9072 58.2257 -83.7144 -76.4191 61.5231 
-83.3136 -75.3216 58.9511 -83.5287 -75.0146 57.5904 -83.2921 -75.6081 60.7733 
-83.133 -75.9912 62.4576 -82.7253 -74.3546 58.3281 -83.1059 -73.9221 57.2504 
-82.6729 -74.7788 60.0189 -82.6187 -75.0932 61.9032 -82.4317 -75.5996 63.4055 
-82.6473 -73.0529 58.1948 -83.2743 -72.6902 57.2514 -82.2275 -73.6121 59.5521 
-81.9829 -74.0968 61.3757 -81.8219 -74.5541 63.0057 -81.9233 -75.2695 64.4785 
-83.1338 -71.8176 58.415 -83.8318 -71.6877 57.4931 -82.3407 -72.2695 59.5155 
-81.6513 -72.9162 60.9872 -81.2592 -73.5137 62.5694 -81.3578 -74.1805 64.083 
-81.7459 -74.996 65.7246 -83.6682 -71.0144 58.8842 -84.3062 -71.1769 58.1012 
-82.7784 -71.1691 59.8087 -81.8338 -71.7289 60.9379 -81.1851 -72.4224 62.2702 
-81.0225 -73.1463 63.7654 -81.2824 -73.9736 65.4185 -81.5153 -74.8758 67.0501 
-84.0668 -70.6119 59.6829 -84.6565 -71.0312 59.0995 -83.224 -70.4293 60.4284 
-82.2775 -70.7102 61.3666 -81.5849 -71.3104 62.4881 -81.218 -72.0249 63.8549 
-81.1012 -72.9096 65.4596 -81.144 -73.9125 67.0249 -81.1405 -74.9626 68.3789 
-84.5189 -70.4297 60.6264 -85.072 -70.9699 60.1556 -83.729 -70.0258 61.2594 
-82.8159 -70.0074 62.1428 -82.1199 -70.4019 63.2104 -81.6961 -71.0102 64.4452 
-81.3367 -71.8354 65.9078 -81.0789 -72.9001 67.386 -80.9888 -74.0219 68.6208 
-80.9477 -75.1484 69.7356 -85.3165 -70.5199 61.3195 -84.608 -70.0165 61.9036 
-85.5279 -70.2624 62.4238 -84.6753 -69.9427 63.3358 -85.499 -70.4584 63.8063 
-83.6684 -69.7277 62.8184 -84.7098 -70.2413 65.1361 -85.4214 -70.8896 65.647 
-83.7331 -69.8169 64.6799 -82.8021 -69.8501 64.0175 -84.9062 -70.6925 67.2006 
-85.6243 -71.3329 67.7013 -83.9492 -70.2188 66.7056 -82.9464 -70.0914 66.0807 
-82.2233 -70.3446 65.2779 -85.17 -71.3864 69.2468 -85.9055 -71.8929 69.7539 
-84.2843 -70.8872 68.6785 -83.1968 -70.7024 67.992 -82.291 -70.7843 67.3185 
-81.7338 -71.1131 66.6355 -85.1826 -72.3041 71.2113 -85.9892 -72.4738 71.7844 
-84.4243 -71.9032 70.621 -83.4783 -71.5985 69.8939 -82.4581 -71.6352 69.1696 
-81.7321 -71.81 68.6455 -81.2998 -72.1909 68.0855 -85.1275 -73.0773 73.0742 
-86.0172 -72.9885 73.6316 -84.3515 -72.9556 72.5348 -83.5785 -72.6139 71.996 
-82.7229 -72.5503 71.2759 -82.0115 -72.7805 70.5674 -81.5045 -73.0151 70.0029 
-81.128 -73.4027 69.3444 -85.262 -73.7744 74.6563 -86.0692 -73.7152 75.0535 
-84.4596 -73.8245 74.2017 -83.6639 -73.5942 73.8982 -82.8794 -73.4203 73.4778 
-82.3119 -73.6542 72.7181 -81.9415 -73.9632 71.9205 -81.5136 -74.1793 71.2052 
-81.1 -74.5702 70.4365 -85.4152 -74.7312 75.8338 -86.0356 -74.7987 76.024 
-84.7377 -74.7779 75.4866 -83.9568 -74.6756 75.2618 -83.0945 -74.4882 75.105 
-82.4446 -74.6025 74.6252 -82.1334 -74.9395 73.8592 -81.8349 -75.1352 73.1319 
-81.3838 -75.3257 72.4046 -81.0154 -75.7628 71.6103 -80.9127 -77.2704 72.6942 
-81.0128 -76.7607 73.5356 -80.8736 -78.4441 74.6045 -81.3668 -76.4855 74.3206 
-80.9055 -78.1544 75.5067 -80.8741 -80.0292 76.423 -81.7989 -76.4254 74.8916 
-81.2699 -78.0979 76.111 -81.0077 -79.9772 77.2449 -81.0966 -82.153 78.3337 
-82.1587 -76.244 75.4674 -81.8178 -78.098 76.4691 -81.4981 -79.957 77.6998 
-81.3929 -82.1145 78.9926 -81.2579 -84.7581 80.5211 -82.6811 -75.9933 76.0153 
-82.3492 -77.9427 76.9321 -82.0464 -79.8525 78.1376 -81.7909 -81.9473 79.4607 
-81.5123 -84.6846 80.9229 -80.992 -87.6923 82.557 -83.5271 -75.9888 76.2496 
-83.0087 -77.8058 77.3184 -82.4928 -79.6895 78.6703 -82.0505 -81.7028 80.0553 
-81.7101 -84.4681 81.3431 -81.276 -87.7044 82.7898 -80.5997 -90.5386 84.1692 
-84.3799 -76.0763 76.3668 -83.8257 -77.7739 77.4374 -83.1203 -79.5821 78.8879 
-82.4258 -81.4675 80.4284 -81.9147 -84.0596 81.717 -81.5605 -87.3628 83.0607 
-81.0634 -90.4065 84.4979 -80.3637 -92.7705 85.5264 -85.0252 -76.0469 76.6071 
-84.5277 -77.6814 77.5288 -83.904 -79.458 78.8236 -83.2078 -81.2931 80.3429 
-82.5218 -83.6035 81.6858 -81.9683 -86.6323 83.0307 -81.4752 -89.6914 84.6169 
-80.8464 -92.2101 85.9322 -80.1501 -94.4212 86.567 -85.5701 -76.047 76.7869 
-85.0785 -77.5534 77.6371 -84.5793 -79.2445 78.7464 -84.0669 -81.0853 80.0988 
-83.4481 -83.2416 81.412 -82.7066 -85.9091 82.7066 -81.9707 -88.7328 84.297 
-81.2728 -91.2242 85.88 -80.5747 -93.5207 86.8323 -79.9504 -95.9214 87.1325 
-81.0615 -78.5738 73.3197 -81.0439 -79.9118 75.1413 -81.3406 -79.9033 74.1046 
-81.0321 -81.8637 77.0949 -81.1887 -81.5681 75.8772 -81.4688 -81.437 75.0413 
-81.0873 -84.6175 79.6472 -81.0324 -84.1557 78.2466 -81.1373 -83.6457 77.0149 
-81.428 -83.3483 76.0756 -80.8249 -87.7759 82.3066 -80.8593 -87.548 81.3592 
-80.9788 -86.8145 79.8562 -81.1697 -85.9419 78.4595 -81.4585 -85.2294 77.1857 
-80.2283 -90.7875 84.1225 -80.2704 -90.9251 83.8313 -80.6567 -90.5359 82.8651 
-81.0387 -89.3794 81.4365 -81.3229 -87.976 79.9166 -81.6021 -86.7655 78.3046 
-79.8281 -93.3338 85.2752 -79.6016 -93.7953 85.0343 -79.8752 -94.0172 84.5887 
-80.3947 -93.3681 83.7352 -80.8837 -91.7778 82.5711 -81.3067 -89.8951 81.0678 
-81.7001 -88.2294 79.267 -79.6744 -95.4459 86.2362 -79.3452 -96.2658 85.8139 
-79.2998 -96.9299 85.3371 -79.5093 -97.0391 84.7257 -79.9334 -96.0697 84.0453 
-80.5419 -94.1666 83.1793 -81.1613 -91.8631 81.7959 -81.677 -89.7062 79.9976 
-79.5377 -97.3725 86.9284 -79.2813 -98.5567 86.5724 -79.165 -99.4401 86.0367 
-79.1008 -99.933 85.2847 -79.2069 -99.639 84.5763 -79.7048 -98.3457 84.1104 
-80.4418 -96.1959 83.4691 -81.0811 -93.5238 82.2072 -81.5895 -90.9641 80.5147 
-79.6065 -98.7484 87.3253 -79.2307 -100.471 87.2033 -79.426 -101.928 87.5044 
-79.0011 -103.596 87.3696 -79.3399 -104.571 87.5888 -79.0825 -101.69 86.8537 
-78.8197 -106.063 87.0213 -79.401 -106.388 87.0892 -78.7925 -104.621 86.7219 
-78.9897 -102.397 86.0501 -78.9255 -107.982 85.926 -79.7876 -107.7 86.0514 
-78.5007 -107.092 85.8207 -78.6831 -105.013 85.5361 -78.9321 -102.445 85.0209 
-79.4704 -109.214 84.7385 -80.362 -108.158 85.1977 -78.6066 -109.056 84.502 
-78.4768 -107.21 84.5657 -78.9132 -104.419 84.578 -79.2661 -101.569 84.4121 
-80.1517 -108.962 84.0343 -80.872 -107.357 84.6651 -79.1846 -109.682 83.4932 
-78.654 -108.574 83.5626 -79.0526 -105.832 84.043 -79.6753 -102.822 84.313 
-80.0182 -99.7884 84.1462 -80.8129 -107.442 83.5471 -81.4554 -105.886 84.074 
-79.9489 -108.582 82.9373 -79.2084 -108.382 82.8156 -79.2801 -106.351 83.3568 
-79.9854 -103.427 83.9684 -80.4761 -100.454 84.0418 -80.7108 -97.1316 83.436 
-81.627 -105.561 83.0627 -82.2614 -104.303 83.4671 -80.8315 -106.603 82.6176 
-80.0472 -106.854 82.4481 -79.7562 -105.649 82.7642 -80.1508 -103.227 83.3002 
-80.6771 -100.384 83.5159 -80.9391 -97.2894 83.0916 -81.1879 -93.9765 82.0235 
-82.5509 -103.555 82.7275 -83.106 -102.529 83.0648 -81.8233 -104.354 82.4518 
-81.0744 -104.647 82.3885 -80.6018 -103.929 82.5681 -80.6057 -102.08 82.8142 
-80.8913 -99.5894 82.8578 -81.1322 -96.822 82.4874 -81.3498 -93.9064 81.619 
-81.6989 -91.2015 80.3334 -80.2709 -95.8369 87.2872 -80.1241 -98.8477 87.4229 
-80.8816 -95.669 87.2268 -80.9601 -98.5406 87.4168 -81.589 -95.4025 86.9787 
-80.1222 -101.931 87.6353 -81.6513 -97.8095 87.2073 -82.1173 -94.7132 86.4506 
-81.0146 -101.193 87.6702 -80.1226 -104.225 87.7017 -82.0334 -96.5931 86.6179 
-82.6892 -93.352 85.6662 -81.6228 -99.9566 87.3601 -80.9711 -103.16 87.6066 
-80.2446 -105.742 87.1024 -82.6369 -94.7752 85.7707 -83.6433 -91.5616 84.7797 
-82.0727 -98.3294 86.6256 -81.6224 -101.678 87.1268 -81.0441 -104.46 86.9126 
-80.6068 -106.601 86.1592 -83.7495 -92.551 84.8562 -84.8239 -89.8452 83.7933 
-82.8701 -96.0368 85.7529 -82.2586 -99.6408 86.3711 -81.7201 -102.586 86.4434 
-81.2699 -104.764 86.0402 -81.0178 -106.355 85.4596 -85.0956 -90.5257 83.8867 
-85.9938 -88.4324 82.7474 -84.1095 -93.3389 84.9149 -83.1772 -96.8011 85.621 
-82.4398 -100.022 85.8437 -81.9346 -102.378 85.6342 -81.6284 -104.048 85.2963 
-81.4907 -105.23 84.8303 -86.3916 -88.9661 82.8738 -87.0988 -87.1619 81.7871 
-85.5182 -91.0426 83.9954 -84.4602 -93.7454 84.8642 -83.46 -96.8666 85.2811 
-82.8062 -99.6003 85.2324 -82.4556 -101.572 84.953 -82.2623 -102.97 84.6259 
-82.2172 -103.892 84.1379 -87.5012 -87.6024 81.8307 -88.0805 -85.8717 80.9058 
-86.7949 -89.3461 82.8749 -85.8535 -91.2887 83.826 -84.7864 -93.7368 84.5013 
[...]
CELL_DATA 2000
SCALARS Distance double
LOOKUP_TABLE default
129.668 129.488 129.923 130.632 129.33 129.775 130.537 130.959 131.731 
129.184 129.636 130.461 130.917 131.791 132.182 133.056 129.179 129.574 
130.483 130.918 131.886 132.303 133.257 133.618 134.531 129.378 129.701 
130.651 131.038 132.043 132.456 133.452 133.836 134.784 135.117 136.017 
129.657 129.954 130.851 131.226 132.188 132.619 133.618 134.039 135.026 
135.388 136.35 136.646 137.585 129.969 130.23 131.103 131.428 132.394 
132.78 133.827 134.235 135.301 135.672 136.71 137.027 138.03 138.292 
139.243 130.411 130.601 131.553 131.794 132.863 133.139 134.294 134.598 
135.77 136.066 137.188 137.462 138.525 138.776 139.776 139.981 140.893 
131.037 131.157 132.169 132.375 133.5 133.748 134.933 135.204 136.408 
136.671 137.843 138.064 139.192 139.379 140.472 140.617 141.648 141.719 
142.654 129.016 127.971 128.58 128.797 126.926 127.519 127.713 128.382 
128.627 125.791 126.412 126.58 127.288 127.537 128.208 128.458 124.622 
125.205 125.347 126.101 126.372 127.1 127.339 128.025 128.356 123.763 
124.134 124.237 124.867 125.137 125.888 126.143 126.865 127.175 127.978 
128.479 123.43 123.539 123.604 123.931 124.13 124.706 124.966 125.651 
125.98 126.781 127.306 128.2 128.802 123.541 123.45 123.479 123.524 
123.623 123.902 124.127 124.615 124.983 125.663 126.235 127.078 127.75 
128.582 129.176 123.991 123.732 123.717 123.555 123.588 123.61 123.813 
124.051 124.458 124.903 125.516 126.169 126.899 127.638 128.311 129.017 
129.62 124.666 124.297 124.246 123.925 123.933 123.757 123.967 124 
124.445 124.665 125.291 125.697 126.442 126.991 127.73 128.311 128.984 
129.587 130.258 125.073 125.56 125.073 124.616 126.235 125.64 125.192 
124.654 124.293 127.228 126.501 126.138 125.423 125.107 124.514 124.364 
128.557 127.716 127.452 126.601 126.35 125.569 125.439 124.826 124.875 
130.098 129.215 129.013 128.09 127.859 126.969 126.821 126.071 126.095 
125.511 125.708 131.622 130.797 130.634 129.732 129.522 128.572 128.404 
127.543 127.551 126.852 127.038 126.477 126.806 133.005 132.265 132.14 
131.333 131.19 130.28 130.156 129.23 129.259 128.44 128.646 127.942 
128.238 127.662 128.038 134.286 133.609 133.536 132.807 132.745 131.934 
131.884 131.015 131.074 130.244 130.46 129.681 129.954 129.215 129.502 
128.901 129.265 135.481 134.88 134.875 134.209 134.213 133.479 133.485 
132.7 132.768 132.011 132.21 131.489 131.744 130.989 131.218 130.471 
130.742 130.138 130.527 131.46 131.704 132.033 133.066 132.194 132.409 
133.423 133.752 134.889 132.723 132.944 133.942 134.207 135.35 135.702 
137.044 133.17 133.43 134.446 134.739 135.878 136.224 137.564 138.032 
139.633 133.676 133.88 134.917 135.225 136.387 136.747 138.045 138.516 
140.048 140.699 142.401 134.335 134.458 135.472 135.728 136.886 137.238 
138.487 138.934 140.371 141.015 142.685 143.422 145.047 135.012 135.128 
136.082 136.303 137.391 137.719 138.887 139.305 140.615 141.235 142.825 
143.632 145.302 145.979 147.366 135.603 135.735 136.609 136.84 137.835 
138.165 139.256 139.651 140.838 141.385 142.802 143.624 145.216 146.088 
147.488 148.09 149.147 136.123 136.25 137.035 137.263 138.167 138.509 
139.541 139.959 141.082 141.566 142.815 143.505 144.913 145.803 147.144 
147.957 149.001 149.59 150.43 131.772 133.387 132.666 132.943 135.189 
134.373 134.659 133.951 134.303 137.389 136.348 136.61 135.738 136.103 
135.377 135.76 140.191 138.934 139.302 138.018 138.377 137.334 137.77 
136.922 137.3 143.152 142.005 142.647 141.198 141.658 140.119 140.543 
139.238 139.649 138.559 138.839 145.733 144.859 145.626 144.559 145.196 
143.742 144.163 142.503 142.815 141.267 141.488 140.151 140.281 147.893 
147.193 147.851 147.158 147.852 146.956 147.467 146.126 146.369 144.717 
144.804 143.123 143.126 141.622 141.625 149.668 149.139 149.745 149.157 
149.833 149.221 149.832 148.972 149.315 148.049 148.14 146.545 146.47 
144.732 144.565 142.962 142.838 151.072 150.753 151.477 150.997 151.723 
151.146 151.791 151.09 151.516 150.599 150.8 149.605 149.615 148.075 
147.858 146.087 145.743 144.099 143.842 152.035 153.963 152.894 152.655 
155.908 154.92 154.689 153.492 153.039 157.263 156.628 156.388 155.435 
154.925 153.726 153.055 158.005 157.652 157.431 156.799 156.27 155.349 
154.578 153.484 152.646 158.381 158.232 158.067 157.617 157.124 156.408 
155.651 154.745 153.875 152.872 151.942 158.171 158.37 158.22 158.067 
157.578 157.084 156.343 155.628 154.801 153.956 153.046 152.036 150.905 
157.327 157.793 157.611 157.839 157.335 157.226 156.456 156.067 155.202 
154.652 153.704 152.943 151.726 150.697 149.192 156.302 156.769 156.567 
156.941 156.485 156.65 155.919 155.835 154.917 154.673 153.617 153.197 
151.867 151.156 149.526 148.59 146.915 155.324 155.735 155.491 155.854 
155.435 155.69 155.04 155.106 154.196 154.092 152.964 152.73 151.36 
150.915 149.302 148.623 146.973 146.2 144.775 151.906 152.163 152.611 
153.807 152.326 152.879 154.158 154.64 155.781 152.128 152.908 154.164 
154.862 156.001 156.439 157.199 151.354 152.388 153.575 154.571 155.677 
156.408 157.168 157.521 157.936 150.239 151.332 152.44 153.65 154.756 
155.785 156.58 157.231 157.665 158.017 158.236 149.146 150.117 151.08 
152.312 153.381 154.616 155.435 156.37 156.785 157.429 157.582 158.035 
157.982 148.243 149.041 149.826 150.892 151.811 153.068 153.852 154.985 
155.384 156.249 156.345 157.033 156.957 157.451 157.174 147.524 148.196 
148.859 149.689 150.408 151.46 152.142 153.277 153.733 154.707 154.882 
155.654 155.658 156.272 156.132 156.539 156.224 146.845 147.484 148.058 
148.76 149.299 150.114 150.62 151.593 152.056 153.061 153.389 154.235 
154.378 155.029 155.014 155.503 155.329 155.643 155.309 136.621 137.646 
137.255 137.543 138.79 138.371 138.737 138.299 138.696 140.062 139.637 
140.094 139.612 140.091 139.612 140.116 141.337 140.98 141.513 141.053 
141.584 141.104 141.687 141.178 141.726 142.511 142.252 142.858 142.477 
143.031 142.598 143.232 142.801 143.471 142.905 143.509 143.589 143.405 
144.103 143.815 144.438 144.036 144.712 144.341 145.143 144.702 145.456 
144.829 145.543 144.56 144.442 145.182 145.027 145.752 145.451 146.187 
145.851 146.735 146.397 147.276 146.775 147.512 146.907 147.618 145.421 
145.348 146.059 146.012 146.77 146.666 147.45 147.273 148.175 147.972 
148.916 148.557 149.31 148.767 149.368 148.825 149.394 146.205 146.162 
146.841 146.812 147.54 147.547 148.352 148.361 149.276 149.267 150.253 
150.103 150.945 150.511 151.112 150.514 151.013 150.437 150.884 136.301 
136.154 136.566 137.276 136.013 136.413 137.103 137.554 138.342 135.906 
136.294 136.993 137.401 138.174 138.664 139.537 135.809 136.215 136.969 
137.357 138.134 138.543 139.369 139.874 140.756 135.684 136.105 136.871 
137.328 138.123 138.541 139.318 139.738 140.537 141.05 141.89 135.618 
135.98 136.7 137.169 137.943 138.441 139.193 139.654 140.393 140.856 
141.633 142.153 142.958 135.667 135.964 136.666 137.04 137.788 138.223 
138.951 139.425 140.152 140.66 141.42 141.929 142.698 143.207 143.957 
135.743 136.036 136.742 137.075 137.82 138.16 138.863 139.22 139.914 
140.373 141.126 141.665 142.421 142.945 143.653 144.156 144.834 135.8 
136.099 136.784 137.133 137.847 138.201 138.87 139.192 139.834 140.199 
140.898 141.366 142.089 142.604 143.269 143.794 144.427 144.963 145.594 
136.049 136.792 136.62 137.055 137.548 137.394 137.822 137.656 138.098 
138.267 138.144 138.57 138.403 138.821 138.682 139.099 139.025 138.899 
139.397 139.191 139.626 139.424 139.882 139.698 140.11 139.806 139.713 
140.308 140.117 140.637 140.353 140.864 140.596 141.093 140.791 141.215 
140.481 140.476 141.109 141.032 141.592 141.388 141.886 141.646 142.131 
141.846 142.264 141.935 142.34 141.099 141.127 141.774 141.76 142.283 
142.192 142.624 142.522 142.949 142.798 143.169 142.92 143.268 143.017 
143.43 141.735 141.76 142.395 142.38 142.863 142.78 143.185 143.121 
143.574 143.504 143.937 143.752 144.132 143.895 144.327 144.112 144.584 
142.27 142.332 142.88 142.918 143.367 143.326 143.758 143.7 144.235 
144.174 144.735 144.568 145.055 144.804 145.298 145.056 145.588 145.33 
145.804 142.657 143.295 143.062 143.224 144.22 143.769 143.941 143.629 
143.735 145.719 144.979 145.115 144.527 144.688 144.207 144.271 147.258 
146.596 146.671 145.929 146.043 145.389 145.517 144.881 144.902 148.424 
147.976 148.1 147.455 147.475 146.803 146.857 146.225 146.24 145.554 
145.448 149.768 149.222 149.57 148.893 149.013 148.238 148.227 147.517 
147.485 146.839 146.724 146.019 145.793 151.599 150.909 151.436 150.642 
150.959 150.007 150.05 149.046 148.961 148.11 148.029 147.289 147.137 
146.348 146.103 153.373 152.81 153.29 152.606 152.919 152.066 152.119 
151.056 150.879 149.789 149.603 148.695 148.567 147.751 147.554 146.697 
146.422 154.647 154.316 154.665 154.203 154.379 153.78 153.764 152.957 
152.724 151.71 151.369 150.353 150.064 149.189 148.926 148.109 147.777 
146.949 146.589 142.418 142.303 142.586 143.058 142.206 142.489 143.021 
143.307 143.994 142.083 142.423 143.06 143.375 144.205 144.538 145.503 
141.876 142.316 143.049 143.454 144.327 144.762 145.738 146.145 147.022 
141.537 142.08 142.844 143.373 144.189 144.739 145.592 146.156 146.945 
147.405 148.087 141.076 141.67 142.396 143.027 143.788 144.421 145.187 
145.809 146.568 147.141 147.92 148.406 149.289 140.594 141.16 141.832 
142.474 143.215 143.898 144.687 145.343 146.167 146.771 147.699 148.275 
149.363 149.89 151.059 140.161 140.68 141.316 141.903 142.62 143.29 
144.102 144.816 145.698 146.394 147.384 148.085 149.253 149.954 151.201 
151.779 152.883 139.761 140.256 140.877 141.419 142.105 142.72 143.495 
144.207 145.072 145.85 146.816 147.655 148.782 149.68 150.909 151.73 
152.835 153.411 154.233 141.89 140.98 141.582 141.827 140.106 140.701 
141.031 141.555 141.748 139.269 139.864 140.184 140.755 140.961 141.429 
141.548 138.248 138.939 139.214 139.862 140.029 140.557 140.595 141.119 
141.214 137.072 137.792 138.015 138.745 138.854 139.489 139.461 140.04 
140.042 140.694 140.812 135.941 136.588 136.705 137.412 137.438 138.15 
138.093 138.769 138.737 139.432 139.513 140.242 140.373 134.839 135.442 
135.458 136.074 136.028 136.685 136.626 137.322 137.31 138.049 138.136 
138.905 139.055 139.794 139.931 133.72 134.3 134.302 134.857 134.82 
135.376 135.34 135.933 135.935 136.616 136.712 137.493 137.677 138.469 
138.657 139.379 139.524 132.659 133.197 133.227 133.751 133.758 134.272 
134.268 134.78 134.767 135.329 135.387 136.09 136.289 137.095 137.347 
138.116 138.314 139 139.143 132.105 131.408 132.074 132.658 130.572 
131.325 131.951 132.617 133.192 129.699 130.468 131.13 131.858 132.479 
133.146 133.707 129.028 129.693 130.391 131.059 131.696 132.388 132.995 
133.646 134.194 128.7 129.197 129.937 130.466 131.131 131.693 132.347 
132.957 133.604 134.19 134.822 128.713 129.04 129.795 130.194 130.924 
131.332 132.052 132.505 133.27 133.76 134.543 135.018 135.783 128.966 
129.184 129.946 130.23 131.015 131.31 132.08 132.415 133.234 133.638 
134.503 134.919 135.75 136.139 136.898 129.289 129.487 130.251 130.491 
131.277 131.518 132.266 132.535 133.307 133.673 134.505 134.932 135.739 
136.142 136.863 137.23 137.878 129.612 129.805 130.53 130.779 131.509 
131.767 132.454 132.713 133.406 133.732 134.491 134.898 135.665 136.079 
136.771 137.152 137.775 138.134 138.713 130.033 130.97 130.627 130.931 
132.023 131.59 131.857 131.541 131.87 133.336 132.754 132.982 132.517 
132.82 132.488 132.813 134.831 134.198 134.448 133.813 134.098 133.569 
133.906 133.482 133.815 136.316 135.717 136.003 135.367 135.654 135.02 
135.346 134.761 135.103 134.582 134.931 137.881 137.241 137.538 136.899 
137.172 136.563 136.865 136.282 136.597 136.004 136.301 135.75 136.077 
139.555 138.9 139.242 138.52 138.782 138.074 138.334 137.734 138.037 
137.483 137.751 137.163 137.397 136.861 137.141 141.178 140.577 140.976 
140.297 140.6 139.808 140.026 139.26 139.511 138.888 139.171 138.588 
138.808 138.206 138.408 137.879 138.131 142.839 142.188 142.592 141.98 
142.336 141.635 141.861 141.044 141.203 140.435 140.649 140.007 140.235 
139.62 139.8 139.191 139.376 138.846 139.068 139.727 140.102 140.228 
140.884 140.566 140.682 141.392 141.466 142.146 141.037 141.187 141.949 
142.037 142.776 142.81 143.545 141.534 141.694 142.545 142.65 143.48 
143.517 144.334 144.327 145.142 142.19 142.308 143.285 143.362 144.347 
144.359 145.329 145.265 146.206 146.09 146.985 142.884 143.055 144.126 
144.238 145.388 145.419 146.613 146.51 147.657 147.416 148.478 148.162 
149.12 143.363 143.687 144.832 145.101 146.39 146.565 147.957 147.973 
149.333 149.118 150.318 149.917 150.959 150.477 151.369 143.687 144.105 
145.392 145.796 147.26 147.585 149.115 149.311 150.771 150.775 152.022 
151.778 152.767 152.348 153.152 152.654 153.299 144.064 144.51 145.991 
146.457 148.116 148.517 150.146 150.421 151.866 152.021 153.222 153.219 
154.129 153.92 154.576 154.227 154.721 154.292 154.648 124.786 124.044 
124.47 124.661 123.531 123.775 123.901 124.362 124.701 123.427 123.436 
123.535 123.756 124.126 124.611 125.206 123.82 123.593 123.715 123.647 
123.992 124.249 124.908 125.38 126.121 124.715 124.284 124.429 124.087 
124.307 124.279 124.808 125.179 125.933 126.402 127.128 125.869 125.376 
125.527 125.011 125.086 124.724 124.997 125.108 125.751 126.205 126.979 
127.433 128.155 126.951 126.515 126.66 126.165 126.203 125.641 125.738 
125.456 125.95 126.133 126.954 127.346 128.193 128.548 129.295 127.945 
127.518 127.646 127.224 127.313 126.788 126.886 126.399 126.782 126.615 
127.383 127.539 128.458 128.72 129.559 129.78 130.482 128.974 128.512 
128.634 128.195 128.328 127.868 128.035 127.578 127.916 127.607 128.223 
128.166 128.977 129.114 129.939 130.123 130.838 130.977 131.578 125.287 
125.232 125.543 126.096 125.312 125.544 126.172 126.413 126.985 125.752 
125.767 126.387 126.561 127.196 127.379 128.002 126.556 126.361 126.872 
126.882 127.517 127.657 128.33 128.491 129.175 127.539 127.249 127.686 
127.504 128.081 128.084 128.781 128.887 129.597 129.724 130.422 128.576 
128.265 128.73 128.441 128.982 128.805 129.46 129.433 130.14 130.199 
130.893 130.99 131.68 129.65 129.323 129.794 129.512 130.033 129.792 
130.363 130.208 130.827 130.786 131.432 131.48 132.14 132.242 132.9 
130.744 130.396 130.802 130.527 130.994 130.781 131.29 131.112 131.642 
131.513 132.074 132.035 132.641 132.697 133.32 133.42 134.01 131.798 
131.458 131.809 131.501 131.898 131.665 132.127 131.964 132.467 132.323 
132.835 132.716 133.256 133.22 133.803 133.846 134.424 134.487 135.014 
125.475 126.265 125.9 125.984 127.125 126.723 126.826 126.452 126.622 
128.154 127.672 127.813 127.369 127.573 127.2 127.541 129.355 128.824 
129.03 128.502 128.747 128.262 128.613 128.264 128.792 130.605 130.087 
130.348 129.823 130.111 129.564 129.906 129.44 129.946 129.647 130.294 
131.871 131.363 131.654 131.158 131.484 130.963 131.311 130.801 131.267 
130.878 131.489 131.205 131.834 133.104 132.637 132.938 132.463 132.798 
132.315 132.674 132.19 132.625 132.211 132.765 132.433 133.018 132.703 
133.232 134.199 133.813 134.102 133.694 133.997 133.576 133.909 133.489 
133.882 133.501 133.979 133.658 134.175 133.868 134.35 134.028 134.479 
135.171 134.834 135.105 134.759 135.028 134.673 134.966 134.623 134.977 
134.656 135.066 134.77 135.203 134.929 135.351 135.079 135.482 135.204 
135.612 141.755 141.117 141.198 140.731 140.5 140.543 140.092 140.2 
139.854 139.974 140.021 139.701 139.729 139.421 139.438 139.094 139.313 
139.477 139.23 139.406 139.136 139.123 138.63 138.584 138.067 138.486 
138.682 138.312 138.696 138.38 138.644 138.03 138.03 137.284 137.367 
136.829 137.72 137.814 137.268 137.57 137.128 137.553 136.956 137.169 
136.368 136.483 135.857 136.118 135.714 137.018 137.068 136.441 136.548 
135.989 136.266 135.73 135.995 135.329 135.489 134.866 135.117 134.702 
135.036 134.66 136.274 136.345 135.712 135.758 135.138 135.261 134.721 
134.912 134.361 134.514 133.939 134.131 133.667 133.986 133.609 133.949 
133.547 135.557 135.611 135.005 135.034 134.41 134.467 133.896 134.026 
133.505 133.65 133.123 133.261 132.768 132.982 132.574 132.882 132.514 
132.839 132.475 
POINT_DATA 1002
SCALARS Distance double
LOOKUP_TABLE default
130.353 129.441 129.214 130.206 129.047 131.341 130.076 128.87 131.335 
132.521 129.967 128.718 131.346 132.696 133.957 130.041 128.781 131.445 
132.872 134.208 135.433 130.285 129.073 131.633 133.056 134.434 135.716 
136.907 130.509 129.395 131.765 133.172 134.631 136.02 137.322 138.532 
130.791 129.726 132.016 133.408 134.907 136.372 137.746 139.028 140.175 
131.292 130.22 132.58 133.998 135.484 136.926 138.274 139.56 140.745 
141.766 131.964 130.932 133.257 134.67 136.138 137.611 139 140.308 
141.553 142.651 143.551 128.397 128.133 127.387 127.042 126.354 127.969 
125.845 125.178 126.858 127.79 124.596 124.095 125.606 126.659 127.572 
123.716 123.484 124.406 125.406 126.369 127.587 123.424 123.388 123.68 
124.313 125.184 126.391 127.944 123.543 123.698 123.477 123.721 124.355 
125.417 126.901 128.41 123.962 124.32 123.652 123.642 124.085 124.943 
126.194 127.608 128.919 124.616 125.066 124.168 123.985 124.283 124.976 
125.964 127.177 128.412 129.625 125.539 125.067 126.077 125.781 126.85 
124.732 126.876 127.964 125.764 124.831 128.315 129.397 127.171 126.12 
125.373 129.939 130.962 128.791 127.621 126.726 126.192 131.496 132.415 
130.472 129.308 128.288 127.643 127.285 132.891 133.714 132.038 131.067 
130.099 129.395 128.903 128.532 134.225 134.922 133.497 132.704 131.886 
131.243 130.749 130.215 129.764 135.497 136.028 134.906 134.239 133.514 
132.909 132.481 132.006 131.438 131.029 132.424 132.652 134.129 133.143 
134.481 136.061 133.688 135.004 136.57 138.506 134.125 135.532 137.103 
139.027 141.374 134.609 136.022 137.613 139.425 141.703 144.139 135.254 
136.559 138.085 139.771 141.927 144.438 146.574 135.893 137.102 138.519 
140.066 142.017 144.546 146.935 148.598 136.409 137.529 138.881 140.376 
142.08 144.321 146.794 148.744 150.107 136.847 137.855 139.123 140.626 
142.25 144.125 146.305 148.341 149.925 151.266 133.613 135.383 134.987 
137.606 136.849 136.479 140.7 139.609 138.682 138.158 143.954 143.299 
142.078 140.882 139.916 146.498 146.44 145.864 144.561 143.014 141.544 
148.518 148.549 148.581 147.972 146.592 144.822 143.023 150.31 150.416 
150.546 150.383 149.607 148.242 146.366 144.321 151.854 152.277 152.485 
152.353 151.823 150.985 149.637 147.59 145.336 152.994 153.843 155.061 
155.866 156.803 154.366 157.224 157.769 156.082 154.336 157.974 158.281 
157.102 155.637 153.771 158.449 158.421 157.786 156.493 154.834 153.029 
158.245 157.853 157.97 156.98 155.567 154.014 152.105 157.287 156.846 
157.305 156.731 155.666 154.389 152.722 150.362 156.18 155.885 156.238 
155.918 155.118 153.981 152.495 150.396 147.832 155.148 154.944 155.151 
154.923 154.292 153.194 151.731 149.868 147.654 145.445 151.47 153.381 
151.653 153.617 151.721 155.491 153.398 151.275 155.491 157.032 152.5 
150.297 154.838 156.713 157.769 151.21 149.225 153.624 155.818 157.221 
158.012 149.932 148.294 152.115 154.418 156.082 157.061 157.678 148.911 
147.534 150.649 152.688 154.467 155.614 156.368 156.83 148.153 146.894 
149.524 151.065 152.693 154.054 154.99 155.625 155.947 147.415 146.234 
148.614 149.769 151.04 152.453 153.674 154.481 154.945 155.105 136.992 
137.931 138.019 139.167 139.187 139.115 140.56 140.445 140.559 140.604 
141.939 141.632 142.046 142.155 142.31 143.191 142.717 143.454 143.603 
143.949 144.164 144.317 143.742 144.811 145.062 145.485 146.007 146.21 
145.277 144.672 145.964 146.492 147.021 147.714 148.12 148.216 146.106 
145.497 146.806 147.553 148.321 149.197 149.848 149.972 149.925 135.889 
136.822 135.757 136.666 135.622 137.825 136.6 135.5 137.718 138.984 
136.551 135.38 137.759 138.931 140.197 136.388 135.288 137.678 138.938 
140.093 141.326 136.27 135.301 137.446 138.712 139.937 141.156 142.422 
136.325 135.38 137.408 138.516 139.633 140.893 142.216 143.464 136.407 
135.446 137.497 138.561 139.517 140.6 141.892 143.161 144.341 136.449 
135.507 137.498 138.548 139.504 140.486 141.615 142.766 143.887 145.06 