# vtk DataFile Version 4.0
vtk output
ASCII
DATASET POLYDATA
POINTS 1002 float
-84.1635 -86.9665 73.3571 -84.2248 -86.4109 72.0909 -83.9921 -86.0144 72.9538 
-83.797 -86.7415 74.1453 -83.6335 -85.652 73.7526 -83.903 -87.8735 74.6059 
-83.2372 -86.6336 74.8079 -83.0989 -85.4975 74.4839 -83.3368 -87.8995 75.2212 
-83.5047 -89.0061 75.8327 -82.6067 -86.6725 75.5423 -82.4736 -85.5427 75.2913 
-82.6794 -87.9656 75.8817 -82.9018 -89.1441 76.5031 -83.211 -90.1134 77.3398 
-82.0908 -86.7386 76.445 -81.8383 -85.6135 76.182 -82.2312 -87.9841 76.8786 
-82.4543 -89.2031 77.5298 -82.7454 -90.3029 78.3478 -83.0462 -91.2845 79.1845 
-81.7365 -86.7862 77.5091 -81.4295 -85.6549 77.2262 -82.0033 -88.0264 78.0792 
-82.2534 -89.2587 78.876 -82.4518 -90.4929 79.6547 -82.6003 -91.6829 80.3281 
-82.8256 -92.7082 80.9541 -81.6759 -86.9619 78.9677 -81.4906 -85.8292 78.5894 
-81.8459 -88.2895 79.5143 -81.9919 -89.5837 80.2459 -82.1185 -90.8367 80.959 
-82.1712 -92.1334 81.4969 -82.2827 -93.341 81.9743 -82.5154 -94.3558 82.4634 
-81.7837 -87.41 80.6594 -81.6904 -86.2812 80.1126 -81.7645 -88.7945 81.2373 
-81.6374 -90.1873 81.7643 -81.6118 -91.4395 82.242 -81.6882 -92.6749 82.6582 
-81.7894 -93.9446 83.0516 -81.9691 -95.1227 83.4585 -82.1581 -96.1556 83.8036 
-81.5908 -88.0442 82.0811 -81.555 -86.9256 81.5291 -81.5061 -89.3719 82.6882 
-81.2569 -90.7686 83.1716 -81.1094 -92.0826 83.5293 -81.2225 -93.3154 83.8639 
-81.3966 -94.5716 84.206 -81.5324 -95.843 84.5349 -81.6623 -97.016 84.7956 
-81.7333 -98.0254 84.9284 -81.0427 -88.6396 83.1889 -81.1521 -87.5704 82.7809 
-80.8919 -89.8309 83.6454 -80.6774 -91.1241 84.0498 -80.5669 -92.501 84.4106 
-80.7258 -93.8724 84.8003 -80.9836 -95.1981 85.1758 -81.1219 -96.5383 85.4588 
-81.1881 -97.844 85.6606 -81.2482 -98.9771 85.7828 -81.2725 -99.8837 85.8018 
-84.096 -85.7153 71.4076 -83.8218 -85.2194 72.298 -84.0019 -84.823 70.7905 
-83.5807 -84.3656 71.6556 -83.9964 -83.6636 70.342 -83.3876 -84.8095 73.1168 
-83.4662 -83.3083 71.2404 -84.1313 -82.4351 70.1926 -82.9761 -84.0305 72.4339 
-82.8013 -84.6154 73.937 -83.6196 -82.0773 71.2198 -84.3225 -81.3872 70.261 
-82.7642 -83.0002 72.0491 -82.3245 -83.756 73.3687 -82.1178 -84.5711 74.9362 
-83.7602 -80.9053 71.4262 -84.412 -80.5249 70.3412 -82.9147 -81.6669 72.1477 
-82.14 -82.6268 73.1457 -81.6954 -83.5601 74.6534 -81.4501 -84.5859 76.0321 
-83.7456 -79.933 71.7845 -84.5619 -79.8203 70.631 -83.0808 -80.3863 72.5523 
-82.3624 -81.3676 73.3522 -81.6472 -82.4702 74.6244 -81.2314 -83.5853 75.989 
-81.2081 -84.688 77.1874 -83.9793 -79.2322 72.4897 -85.0171 -79.3931 71.4042 
-83.2641 -79.4287 73.1926 -82.6953 -80.3426 73.8206 -81.9372 -81.4994 74.8509 
-81.3549 -82.6226 76.1008 -81.2593 -83.8055 77.2611 -81.4626 -84.9791 78.5468 
-84.5874 -78.9552 73.3573 -85.6202 -79.3122 72.3759 -83.7596 -78.9615 73.9635 
-83.1588 -79.7355 74.4494 -82.3649 -80.8149 75.2953 -81.6187 -81.7598 76.443 
-81.4348 -82.8849 77.5673 -81.5684 -84.1908 78.726 -81.6422 -85.5072 80.0882 
-85.224 -79.1413 73.9604 -86.0842 -79.5065 73.1023 -84.4218 -79.0815 74.5405 
-83.784 -79.6551 75.0552 -82.9625 -80.5292 75.8767 -82.0212 -81.1973 76.985 
-81.5953 -82.0306 78.1069 -81.6497 -83.3464 79.2065 -81.652 -84.7808 80.3837 
-81.4639 -86.1733 81.6188 -85.9376 -79.7256 74.0382 -85.1704 -79.6281 74.7102 
-85.8112 -80.3727 74.8152 -85.1469 -80.5555 75.6707 -85.7962 -81.1138 76.1361 
-84.5072 -79.9565 75.4014 -85.165 -81.22 77.4577 -85.8591 -81.5111 78.0783 
-84.4949 -80.927 76.8956 -83.7566 -80.6047 76.3965 -85.1907 -81.595 79.4486 
-85.8492 -82.0184 79.7941 -84.4462 -81.4517 78.9037 -83.6116 -81.2916 78.263 
-82.7167 -81.0837 77.6146 -85.1273 -82.494 80.9033 -85.6821 -83.1261 81.0395 
-84.4235 -82.1165 80.5811 -83.5822 -81.9422 80.03 -82.6692 -81.6936 79.4318 
-81.9437 -81.6183 78.7989 -84.9654 -83.7604 82.2431 -85.469 -84.2886 82.3378 
-84.3386 -83.234 82.0735 -83.5925 -82.9522 81.6354 -82.802 -82.7893 81.0874 
-82.1211 -82.6536 80.5937 -81.7595 -82.8233 79.969 -84.8428 -84.7379 83.7062 
-85.3763 -85.1115 83.754 -84.2186 -84.2478 83.6984 -83.502 -83.9015 83.4723 
-82.811 -83.8859 82.9242 -82.2239 -84.0026 82.3621 -81.8248 -84.1289 81.8541 
-81.6703 -84.3919 81.1628 -84.8382 -85.6008 84.9834 -85.391 -85.9088 85.0053 
-84.2001 -85.2031 85.0296 -83.4615 -84.8355 85.0252 -82.7628 -84.7722 84.6821 
-82.2318 -85.0502 84.0516 -81.8282 -85.3802 83.4945 -81.5331 -85.6295 82.9794 
-81.4124 -85.8863 82.3063 -84.8648 -86.6157 86.0294 -85.3718 -86.8664 85.9998 
-84.2703 -86.3688 86.0209 -83.5573 -86.143 85.9977 -82.8355 -86.027 85.8399 
-82.3013 -86.1611 85.378 -81.9468 -86.4978 84.7991 -81.5898 -86.8261 84.3706 
-81.2317 -87.0814 83.943 -81.062 -87.3243 83.3605 -80.5979 -88.8081 84.1595 
-80.726 -88.6159 84.7628 -80.0505 -90.0098 85.4803 -81.1902 -88.4366 85.2019 
-80.4733 -89.9925 86.04 -79.7775 -91.3282 86.6253 -81.6913 -88.1982 85.5126 
-81.114 -89.9662 86.3578 -80.362 -91.5524 87.0145 -79.944 -93.1242 87.4713 
-82.0244 -87.9101 85.9706 -81.6094 -89.7697 86.7469 -80.9851 -91.5965 87.3406 
-80.5215 -93.4207 87.6998 -80.2626 -95.2799 88.2402 -82.4009 -87.7388 86.4602 
-81.9603 -89.545 87.2666 -81.4562 -91.3286 87.9432 -81.0485 -93.3427 88.1684 
-80.7322 -95.4302 88.5091 -80.279 -97.3288 89.1919 -83.0396 -87.6896 86.7448 
-82.4732 -89.4222 87.5944 -81.9026 -91.0691 88.4359 -81.4648 -93.0038 88.8544 
-81.1265 -95.283 89.0642 -80.7048 -97.4389 89.5158 -80.1981 -99.3762 90.0268 
-83.7969 -87.6359 86.9347 -83.2068 -89.1956 87.8469 -82.5259 -90.835 88.6595 
-81.9169 -92.7293 89.242 -81.4487 -95.029 89.6445 -81.0628 -97.4175 89.9705 
-80.7396 -99.6159 90.2273 -80.4341 -101.689 90.4152 -84.4495 -87.645 87.0447 
-83.9278 -88.9189 88.0943 -83.2694 -90.4642 88.9243 -82.5526 -92.4143 89.4463 
-81.9055 -94.7447 89.9523 -81.4009 -97.2202 90.4213 -81.1303 -99.6221 90.5581 
-81.0162 -101.856 90.4912 -80.7956 -103.931 90.5347 -84.9627 -87.8029 86.9609 
-84.4861 -88.8851 88.0387 -83.9297 -90.23 89.0168 -83.2693 -92.0651 89.6184 
-82.5642 -94.3502 90.071 -81.9158 -96.8196 90.637 -81.4749 -99.2915 90.9655 
-81.326 -101.626 90.8483 -81.2444 -103.734 90.6551 -80.9411 -105.651 90.6935 
-80.2551 -89.8904 84.474 -79.5747 -91.0643 85.6863 -79.9816 -91.0821 84.7094 
-79.4552 -92.6569 86.8258 -79.3944 -92.501 85.7516 -79.8958 -92.5552 84.9403 
-79.7833 -94.9256 87.8615 -79.4198 -94.6117 86.9317 -79.4976 -94.4312 85.8961 
-80.076 -94.2337 85.3205 -79.8968 -97.275 88.8956 -79.5977 -97.1163 88.1758 
-79.4389 -96.7895 87.0843 -79.7083 -96.3383 86.2447 -80.3785 -95.8225 85.7829 
-79.7153 -99.4594 89.8234 -79.5046 -99.5465 89.2874 -79.4657 -99.3401 88.3656 
-79.4823 -98.7347 87.3278 -79.8602 -98.0509 86.5849 -80.549 -97.3547 86.0994 
-79.7983 -101.906 90.3732 -79.4253 -102.183 90.0451 -79.4893 -102.289 89.4074 
-79.5463 -101.782 88.5223 -79.5313 -100.85 87.5151 -79.9093 -99.9154 86.765 
-80.5964 -98.9252 86.2772 -80.1589 -104.481 90.6163 -79.5835 -105.006 90.4877 
-79.4795 -105.466 90.0292 -79.6272 -105.389 89.3928 -79.5548 -104.472 88.545 
-79.5432 -103.134 87.6101 -79.995 -101.741 86.9431 -80.6732 -100.322 86.4389 
-80.367 -106.597 90.79 -79.7246 -107.457 90.8019 -79.3965 -108.19 90.4223 
-79.4535 -108.54 89.7828 -79.5096 -108.048 89.121 -79.4684 -106.701 88.4207 
-79.6782 -104.954 87.7478 -80.2038 -103.121 87.1733 -80.7832 -101.379 86.5529 
-80.5332 -107.717 90.9839 -79.8336 -109.07 91.0432 -79.9705 -109.943 91.2052 
-79.2417 -111.649 91.0392 -79.5629 -112.283 91.0737 -79.2794 -110.228 90.8302 
-78.899 -114.152 90.5659 -79.467 -114.34 90.5215 -78.8546 -112.945 90.4509 
-79.1261 -110.974 90.1047 -78.8721 -116.149 89.7178 -79.7052 -115.729 89.7025 
-78.5786 -115.45 89.6722 -78.8216 -113.47 89.4173 -79.2183 -110.965 89.2522 
-79.2568 -117.32 88.7645 -80.2499 -116.363 88.9351 -78.5017 -117.349 88.7126 
-78.5558 -115.699 88.5984 -79.0102 -112.94 88.5683 -79.3453 -109.939 88.6726 
-80.0464 -117.533 88.0436 -80.8223 -116.1 88.4495 -78.9503 -118.177 87.7992 
-78.4983 -117.25 87.787 -78.9387 -114.655 87.9753 -79.445 -111.385 88.2875 
-79.617 -108.11 88.2826 -80.8195 -116.671 87.6452 -81.2519 -114.948 88.0898 
-79.893 -117.741 87.2131 -79.0051 -117.487 87.1086 -79.0551 -115.574 87.4412 
-79.6774 -112.463 87.9641 -80.0238 -109.045 88.1846 -80.0824 -105.874 87.8246 
-81.3984 -114.89 87.3987 -81.7537 -113.283 87.7124 -80.7844 -116.121 87.0172 
-79.921 -116.306 86.8302 -79.5506 -115.06 87.0969 -79.9391 -112.551 87.6428 
-80.3853 -109.385 87.9521 -80.5079 -106.269 87.7224 -80.5738 -103.597 87.1437 
-82.0132 -112.617 87.2455 -82.4734 -111.431 87.4166 -81.4714 -113.661 87.0348 
-80.7809 -114.039 86.9028 -80.31 -113.287 87.06 -80.4062 -111.407 87.4499 
-80.7335 -108.825 87.6582 -80.8507 -106.104 87.4062 -80.8619 -103.674 86.8506 
-81.0079 -101.633 86.2844 -81.1773 -105.746 90.9984 -80.8555 -107.643 91.3426 
-81.3919 -105.643 91.6993 -81.313 -107.411 92.039 -81.6992 -105.564 92.4529 
-80.5214 -109.775 91.5057 -81.7719 -107.132 92.5119 -82.118 -105.273 92.589 
-81.253 -109.399 91.9474 -80.3354 -112.009 91.2454 -82.1386 -106.414 92.1253 
-82.7241 -104.376 92.0231 -81.7724 -108.708 91.8987 -81.1478 -111.401 91.3805 
-80.3317 -113.822 90.6001 -82.7359 -105.178 91.3277 -83.5418 -103.059 91.3264 
-82.1954 -107.45 91.2206 -81.7191 -110.239 91.0833 -81.0925 -112.911 90.6185 
-80.5704 -114.865 89.8025 -83.6381 -103.817 90.817 -84.3471 -101.632 90.7111 
-82.9938 -106.016 90.7366 -82.4596 -108.577 90.7066 -81.8393 -111.323 90.4992 
-81.2631 -113.475 89.9211 -80.9479 -114.949 89.1843 -84.4795 -102.309 90.3388 
-85.027 -100.124 89.9795 -83.9349 -104.597 90.522 -83.4648 -106.941 90.6327 
-82.9005 -109.348 90.5095 -82.2072 -111.441 90.0291 -81.6118 -112.935 89.4009 
-81.2995 -114.065 88.7576 -85.2045 -100.616 89.6009 -85.6945 -98.6899 89.1514 
-84.7082 -102.849 89.9878 -84.3011 -105.169 90.3209 -83.9042 -107.384 90.4069 
-83.3887 -109.29 90.0724 -82.7466 -110.718 89.5055 -82.1229 -111.796 88.9035 
-81.7786 -112.692 88.2828 -85.9632 -99.0788 88.8224 -86.3776 -97.5281 88.3826 
-85.4956 -100.964 89.2291 -85.0549 -103.074 89.6048 -84.6611 -105.208 89.849 
[...]
CELL_DATA 2000
SCALARS Distance double
LOOKUP_TABLE default
139.902 139.935 140.24 140.889 139.904 140.236 140.894 141.243 141.947 
139.94 140.226 140.895 141.232 141.982 142.348 143.155 140.095 140.345 
141.08 141.345 142.19 142.49 143.426 143.724 144.674 140.399 140.605 
141.471 141.697 142.683 142.911 143.971 144.185 145.231 145.422 146.408 
141.105 141.148 142.181 142.298 143.418 143.577 144.702 144.868 145.925 
146.075 147.059 147.2 148.132 142.238 142.16 143.302 143.28 144.448 
144.468 145.575 145.65 146.677 146.787 147.757 147.879 148.828 148.939 
149.843 143.376 143.353 144.425 144.452 145.507 145.525 146.507 146.537 
147.499 147.565 148.543 148.626 149.609 149.689 150.636 150.679 151.523 
144.263 144.308 145.172 145.311 146.142 146.311 147.106 147.284 148.137 
148.321 149.257 149.412 150.368 150.482 151.406 151.48 152.327 152.327 
153.056 139.298 138.398 139.009 139.309 137.446 138.062 138.337 138.972 
139.267 136.579 137.108 137.337 137.95 138.243 138.924 139.276 135.956 
136.334 136.492 136.966 137.199 137.863 138.244 138.976 139.39 135.492 
135.789 135.885 136.209 136.359 136.874 137.236 137.941 138.414 139.131 
139.63 135.164 135.351 135.438 135.674 135.822 136.182 136.53 137.068 
137.592 138.232 138.824 139.504 140.23 135.288 135.197 135.306 135.359 
135.588 135.814 136.215 136.571 137.117 137.6 138.272 138.855 139.648 
140.343 141.296 135.939 135.605 135.718 135.509 135.791 135.817 136.285 
136.458 136.998 137.302 137.976 138.461 139.299 139.902 140.84 141.539 
142.503 136.756 136.386 136.481 136.147 136.424 136.276 136.765 136.748 
137.269 137.347 137.952 138.276 139.108 139.644 140.587 141.179 142.096 
142.721 143.549 137.196 137.828 137.318 136.973 138.788 138.118 137.877 
137.242 137.027 140.064 139.297 139.136 138.386 138.246 137.522 137.408 
141.363 140.641 140.499 139.76 139.612 138.848 138.656 137.939 137.817 
142.618 141.93 141.813 141.104 140.961 140.208 140.002 139.214 139.049 
138.369 138.425 143.919 143.237 143.188 142.452 142.378 141.595 141.503 
140.664 140.623 139.797 139.941 139.25 139.607 145.197 144.569 144.577 
143.878 143.856 143.091 143.084 142.279 142.358 141.541 141.76 140.986 
141.348 140.66 141.103 146.412 145.832 145.868 145.24 145.248 144.563 
144.576 143.862 143.955 143.256 143.471 142.792 143.098 142.429 142.783 
142.145 142.546 147.584 147.042 147.112 146.519 146.576 145.933 145.991 
145.319 145.427 144.776 144.983 144.377 144.668 144.068 144.38 143.764 
144.086 143.506 143.884 144.735 144.975 145.246 146.009 145.302 145.575 
146.424 146.588 147.326 145.589 145.912 146.835 147.075 147.905 147.993 
148.815 145.878 146.194 147.159 147.478 148.387 148.574 149.431 149.584 
150.571 146.285 146.53 147.503 147.817 148.781 149.031 149.93 150.143 
151.112 151.387 152.444 146.802 146.988 147.931 148.201 149.158 149.423 
150.34 150.596 151.563 151.866 152.914 153.218 154.245 147.342 147.509 
148.402 148.638 149.54 149.791 150.674 150.959 151.918 152.266 153.322 
153.668 154.731 155.005 156.032 147.834 148.006 148.843 149.072 149.92 
150.153 150.988 151.26 152.191 152.566 153.626 154.035 155.113 155.465 
156.495 156.789 157.782 148.247 148.426 149.186 149.431 150.226 150.486 
151.287 151.556 152.434 152.797 153.816 154.27 155.335 155.769 156.767 
157.142 158.059 158.405 159.253 144.964 146.126 145.591 145.754 147.315 
146.693 146.751 146.348 146.596 148.843 148.01 148.014 147.377 147.599 
147.221 147.563 150.783 149.825 149.937 148.959 149.157 148.433 148.832 
148.34 148.736 152.758 151.913 152.17 151.151 151.334 150.316 150.599 
149.838 150.265 149.654 149.991 154.56 153.847 154.201 153.369 153.631 
152.614 152.777 151.778 152.025 151.271 151.606 150.936 151.158 156.388 
155.677 156.15 155.387 155.877 154.953 155.296 154.136 154.311 153.198 
153.419 152.58 152.837 152.085 152.22 158.227 157.591 158.18 157.45 
158.107 157.294 157.905 156.828 157.154 155.795 155.919 154.655 154.82 
153.841 154 153.131 153.164 159.754 159.354 159.998 159.462 160.117 
159.491 160.121 159.346 159.755 158.639 158.723 157.361 157.34 156.064 
156.092 155.008 154.992 154.019 153.911 160.625 162.017 161.262 161.037 
163.382 162.697 162.579 161.674 161.291 164.6 164.045 163.969 163.186 
162.842 161.852 161.307 165.467 165.131 165.093 164.484 164.106 163.247 
162.635 161.687 160.909 165.938 165.809 165.82 165.439 165.084 164.36 
163.65 162.786 161.929 161.003 159.932 166.029 166.119 166.137 165.967 
165.659 165.157 164.465 163.684 162.775 161.887 160.837 159.81 158.581 
165.566 165.965 165.982 166.064 165.725 165.489 164.831 164.31 163.417 
162.664 161.596 160.657 159.439 158.389 157.178 164.577 165.195 165.202 
165.591 165.219 165.27 164.566 164.364 163.458 163.032 161.921 161.235 
159.933 159.074 157.766 156.919 155.819 163.407 164.017 163.938 164.504 
164.119 164.444 163.716 163.788 162.843 162.716 161.584 161.212 159.869 
159.271 157.882 157.233 156.037 155.468 154.535 160.612 160.979 161.157 
161.924 161.458 161.562 162.291 162.476 163.253 161.773 161.999 162.67 
162.859 163.574 163.784 164.466 161.44 161.969 162.531 163.006 163.637 
164.017 164.615 164.853 165.323 160.65 161.285 161.712 162.429 163.007 
163.741 164.334 164.827 165.234 165.491 165.764 159.863 160.459 160.892 
161.51 162.091 162.872 163.54 164.268 164.711 165.183 165.367 165.691 
165.776 158.984 159.681 160.207 160.821 161.434 162.085 162.759 163.433 
163.906 164.455 164.583 165.023 164.955 165.384 165.238 157.946 158.713 
159.234 160.031 160.609 161.397 161.976 162.686 163.088 163.632 163.729 
164.13 163.993 164.378 164.149 164.581 164.291 157.019 157.678 158.133 
158.921 159.417 160.307 160.78 161.66 161.988 162.704 162.803 163.282 
163.174 163.483 163.262 163.543 163.281 163.597 163.272 148.683 149.571 
149.277 149.602 150.476 150.18 150.554 150.269 150.649 151.525 151.174 
151.627 151.303 151.77 151.399 151.778 152.672 152.326 152.855 152.507 
153.057 152.643 153.105 152.611 152.997 153.682 153.448 154.008 153.761 
154.357 154.001 154.515 154.034 154.498 153.956 154.411 154.518 154.375 
154.979 154.846 155.537 155.294 155.915 155.492 156.045 155.532 156.069 
155.489 155.959 155.286 155.199 155.898 155.821 156.661 156.51 157.336 
156.984 157.704 157.187 157.812 157.206 157.707 157.038 157.411 155.964 
155.965 156.731 156.751 157.651 157.639 158.557 158.407 159.241 158.891 
159.569 159.006 159.473 158.779 159.098 158.399 158.671 156.518 156.596 
157.363 157.498 158.351 158.485 159.3 159.385 160.139 160.146 160.812 
160.585 161.017 160.468 160.682 160.007 160.2 159.564 159.799 148.303 
148.032 148.526 149.198 147.685 148.241 148.968 149.432 150.1 147.252 
147.839 148.6 149.173 149.907 150.37 151.097 146.859 147.384 148.085 
148.713 149.489 150.109 150.894 151.419 152.193 146.59 147.048 147.684 
148.195 148.888 149.555 150.364 151.083 151.902 152.487 153.201 146.33 
146.817 147.492 147.901 148.504 148.98 149.68 150.397 151.245 152.03 
152.814 153.399 154.024 145.996 146.52 147.241 147.726 148.373 148.742 
149.35 149.811 150.562 151.278 152.123 152.873 153.585 154.151 154.732 
145.691 146.155 146.818 147.38 148.086 148.594 149.264 149.65 150.313 
150.763 151.518 152.161 152.929 153.603 154.246 154.809 155.363 145.5 
145.861 146.422 146.915 147.578 148.188 148.933 149.501 150.211 150.637 
151.282 151.712 152.377 152.951 153.625 154.246 154.844 155.397 155.922 
145.602 146.038 146.018 146.477 146.554 146.491 146.963 146.969 147.577 
147.182 147.065 147.563 147.523 148.18 148.228 148.974 147.879 147.727 
148.245 148.198 148.911 148.932 149.744 149.737 150.406 148.546 148.39 
148.911 148.919 149.724 149.762 150.62 150.579 151.265 151.098 151.548 
149.169 149.011 149.555 149.61 150.56 150.665 151.615 151.531 152.19 
151.964 152.4 152.15 152.549 149.841 149.689 150.313 150.336 151.375 
151.544 152.585 152.552 153.201 152.923 153.327 153.029 153.451 153.221 
153.723 150.577 150.487 151.213 151.191 152.157 152.318 153.284 153.383 
154.015 153.866 154.27 154.008 154.454 154.195 154.709 154.467 154.967 
151.276 151.294 152.06 152.069 152.865 152.975 153.729 153.876 154.454 
154.494 154.963 154.887 155.401 155.23 155.754 155.492 155.947 155.664 
156.066 151.88 153.016 152.557 152.72 154.165 153.676 153.858 153.36 
153.497 155.641 154.979 155.155 154.522 154.621 154.094 154.215 157.21 
156.597 156.803 156.022 156.079 155.31 155.343 154.776 154.867 158.384 
158.014 158.284 157.685 157.783 156.957 156.954 156.109 156.144 155.47 
155.526 159.455 159.101 159.463 159.016 159.223 158.589 158.631 157.823 
157.805 156.973 156.973 156.201 156.151 160.678 160.288 160.725 160.254 
160.557 159.973 160.086 159.378 159.333 158.569 158.453 157.69 157.527 
156.76 156.534 161.749 161.47 161.877 161.523 161.841 161.347 161.506 
160.83 160.805 160.016 159.854 159.056 158.802 158.036 157.722 156.987 
156.661 162.626 162.392 162.722 162.486 162.764 162.473 162.662 162.189 
162.222 161.514 161.379 160.508 160.236 159.329 158.981 158.14 157.786 
157.043 156.73 151.518 151.341 151.857 152.677 151.24 151.716 152.56 
153.006 153.833 151.115 151.619 152.448 152.914 153.802 154.275 155.269 
150.747 151.374 152.206 152.776 153.69 154.25 155.28 155.826 156.811 
150.231 150.896 151.766 152.448 153.398 154.068 155.073 155.724 156.668 
157.209 157.978 149.83 150.415 151.287 151.974 152.938 153.679 154.657 
155.379 156.285 156.923 157.732 158.247 159.007 149.536 150.067 150.861 
151.497 152.395 153.15 154.106 154.871 155.776 156.467 157.334 157.961 
158.84 159.371 160.21 149.215 149.736 150.433 151.028 151.825 152.556 
153.488 154.283 155.219 155.947 156.836 157.532 158.459 159.14 160.05 
160.589 161.337 148.854 149.355 149.998 150.555 151.297 151.972 152.884 
153.669 154.641 155.396 156.287 156.999 157.888 158.652 159.589 160.306 
161.15 161.641 162.289 150.686 149.355 150.115 150.432 148.279 148.809 
149.029 149.892 150.326 147.518 147.874 147.957 148.583 148.977 149.858 
150.268 146.679 147.127 147.158 147.631 147.856 148.577 148.927 149.738 
149.958 145.568 146.155 146.165 146.719 146.8 147.464 147.672 148.415 
148.589 149.321 149.446 144.397 144.998 144.99 145.57 145.592 146.268 
146.414 147.155 147.304 147.995 148.117 148.835 149.035 143.236 143.852 
143.888 144.425 144.43 145.016 145.133 145.856 146.034 146.742 146.868 
147.551 147.733 148.498 148.763 142.063 142.694 142.773 143.352 143.347 
143.888 143.917 144.576 144.73 145.466 145.62 146.314 146.463 147.199 
147.441 148.239 148.492 140.967 141.543 141.602 142.201 142.185 142.752 
142.715 143.339 143.429 144.162 144.347 145.069 145.247 145.947 146.17 
146.928 147.201 147.967 148.189 140.406 139.7 140.364 140.985 139.016 
139.646 140.24 140.915 141.515 138.512 139.03 139.614 140.194 140.794 
141.441 142.073 138.213 138.624 139.238 139.709 140.369 140.874 141.58 
142.132 142.864 138.1 138.41 139.037 139.453 140.184 140.628 141.39 
141.837 142.61 143.085 143.836 138.219 138.411 139.041 139.357 140.093 
140.503 141.27 141.713 142.476 142.927 143.67 144.105 144.793 138.538 
138.646 139.291 139.494 140.218 140.501 141.241 141.599 142.357 142.791 
143.568 143.996 144.728 145.091 145.767 138.988 139.036 139.669 139.817 
140.539 140.737 141.466 141.687 142.434 142.746 143.562 143.95 144.756 
145.106 145.83 146.128 146.804 139.538 139.533 140.131 140.22 140.908 
141.079 141.798 141.987 142.714 142.941 143.725 144.035 144.843 145.176 
145.909 146.212 146.869 147.162 147.781 140.055 141.083 140.586 140.668 
142.198 141.689 141.795 141.272 141.423 143.435 142.88 143.036 142.461 
142.601 142.086 142.291 144.919 144.249 144.454 143.796 143.959 143.339 
143.536 143.003 143.237 146.604 145.862 146.085 145.346 145.539 144.81 
144.998 144.344 144.581 144.007 144.268 148.32 147.584 147.815 147.056 
147.26 146.481 146.646 145.892 146.067 145.409 145.637 145.07 145.335 
150.012 149.295 149.547 148.802 149.029 148.244 148.42 147.601 147.724 
146.944 147.082 146.432 146.635 146.104 146.345 151.632 150.957 151.201 
150.507 150.752 150.018 150.235 149.422 149.565 148.688 148.777 147.952 
148.073 147.406 147.599 147.068 147.288 153.12 152.5 152.695 152.071 
152.289 151.663 151.889 151.196 151.365 150.549 150.632 149.738 149.789 
148.95 149.049 148.365 148.537 147.991 148.19 148.844 149.248 149.355 
150.008 149.867 149.894 150.64 150.646 151.378 150.696 150.674 151.518 
151.457 152.289 152.203 153.034 151.554 151.567 152.44 152.413 153.288 
153.225 154.091 153.986 154.807 152.264 152.369 153.231 153.288 154.161 
154.187 155.058 155.025 155.832 155.72 156.445 152.762 152.968 153.853 
154.011 154.946 155.039 155.995 155.987 156.874 156.751 157.542 157.347 
158.079 153.145 153.392 154.337 154.592 155.676 155.873 157.028 157.058 
158.14 157.964 158.913 158.612 159.459 159.119 159.866 153.568 153.8 
154.825 155.115 156.357 156.663 158.028 158.196 159.476 159.39 160.488 
160.185 161.115 160.687 161.442 160.96 161.526 154.019 154.272 155.356 
155.677 157.005 157.396 158.867 159.193 160.564 160.679 161.825 161.719 
162.667 162.363 163.087 162.593 163.057 162.472 162.741 136.721 135.854 
136.266 136.175 135.139 135.371 135.196 135.589 135.566 134.967 134.852 
134.585 134.697 134.657 135.133 135.467 135.262 134.924 134.602 134.377 
134.281 134.448 134.787 135.33 135.851 135.711 135.314 135.004 134.629 
134.504 134.38 134.624 134.865 135.318 135.762 136.17 136.35 135.861 
135.633 135.174 135.118 134.823 135.034 134.96 135.312 135.431 135.816 
136.111 136.588 137.239 136.672 136.536 135.988 136.009 135.598 135.843 
135.574 135.914 135.727 136.104 136.074 136.607 136.826 137.546 138.189 
137.646 137.55 137.007 137.026 136.576 136.775 136.452 136.771 136.502 
136.876 136.665 137.175 137.148 137.847 138.026 138.779 139.08 138.583 
138.497 138.007 138.001 137.562 137.672 137.335 137.569 137.328 137.661 
137.478 137.917 137.825 138.406 138.455 139.119 139.263 139.885 137.147 
136.654 137.171 137.615 136.163 136.665 137.224 137.658 138.152 136.142 
136.406 137.053 137.37 137.957 138.306 138.921 136.45 136.604 137.205 
137.391 137.978 138.227 138.873 139.218 139.939 136.664 136.854 137.38 
137.577 138.115 138.33 138.954 139.248 139.978 140.324 141.052 137.076 
137.092 137.669 137.767 138.365 138.517 139.19 139.412 140.156 140.429 
141.165 141.442 142.089 138.014 137.782 138.423 138.293 138.955 138.929 
139.648 139.757 140.525 140.702 141.419 141.609 142.247 142.449 143.017 
139.146 138.862 139.434 139.227 139.824 139.681 140.313 140.306 141.011 
141.121 141.803 141.924 142.521 142.654 143.215 143.376 143.904 140.152 
139.897 140.35 140.171 140.68 140.54 141.09 141.005 141.63 141.642 
142.295 142.345 142.922 142.978 143.506 143.61 144.13 144.264 144.744 
137.455 137.963 137.827 138.077 138.527 138.38 138.734 138.567 138.987 
139.305 139.064 139.499 139.315 139.823 139.661 140.228 140.305 139.968 
140.391 140.163 140.702 140.546 141.122 140.965 141.523 141.372 141.01 
141.364 141.082 141.563 141.413 141.989 141.854 142.398 142.223 142.752 
142.358 142.032 142.337 142.03 142.442 142.256 142.822 142.704 143.278 
143.106 143.627 143.448 143.997 143.262 142.964 143.272 142.971 143.363 
143.14 143.686 143.553 144.151 143.993 144.523 144.329 144.848 144.695 
145.245 144.14 143.857 144.194 143.907 144.321 144.078 144.606 144.438 
145.017 144.863 145.396 145.214 145.722 145.55 146.085 145.933 146.466 
144.967 144.723 145.085 144.839 145.286 145.055 145.574 145.369 145.897 
145.714 146.216 146.052 146.561 146.413 146.95 146.794 147.321 147.145 
147.635 150.546 149.992 149.979 149.359 149.507 149.568 149.159 148.963 
148.43 148.972 149.158 148.89 148.831 148.321 148.117 147.61 148.276 
148.546 148.204 148.363 147.749 147.767 147.097 147.144 146.603 147.48 
147.721 147.257 147.471 146.802 146.921 146.193 146.351 145.768 145.974 
145.462 146.726 146.872 146.38 146.525 145.966 146.029 145.438 145.483 
144.971 145.099 144.637 144.795 144.3 146.093 146.149 145.653 145.738 
145.263 145.346 144.87 144.899 144.397 144.424 143.898 143.982 143.432 
143.591 143.073 145.581 145.573 145.055 145.079 144.575 144.673 144.175 
144.289 143.717 143.796 143.154 143.229 142.585 142.704 142.129 142.339 
141.872 145.143 145.101 144.569 144.53 143.987 144.008 143.471 143.54 
142.941 143.004 142.344 142.415 141.785 141.881 141.325 141.455 140.989 
141.196 140.811 
POINT_DATA 1002
SCALARS Distance double
LOOKUP_TABLE default
140.52 139.563 139.625 140.575 139.607 141.575 140.528 139.581 141.582 
142.686 140.572 139.671 141.59 142.778 144.004 140.797 139.822 141.876 
143.107 144.396 145.628 141.198 140.179 142.421 143.756 145.056 146.246 
147.353 142.071 141.069 143.279 144.559 145.797 146.928 148.006 149.041 
143.344 142.303 144.498 145.574 146.6 147.641 148.709 149.774 150.72 
144.418 143.41 145.52 146.511 147.443 148.46 149.532 150.59 151.549 
152.304 145.101 144.283 146.003 146.909 147.905 149.066 150.248 151.327 
152.306 153.131 153.738 138.708 138.698 137.79 137.701 136.852 138.615 
136.776 136.115 137.538 138.58 136.118 135.641 136.587 137.475 138.682 
135.613 135.226 135.93 136.566 137.671 138.892 135.219 135.054 135.486 
136.058 136.972 138.138 139.445 135.327 135.491 135.379 135.905 136.69 
137.696 138.985 140.518 136.005 136.33 135.826 136.171 136.784 137.527 
138.708 140.207 141.798 136.829 137.115 136.613 136.834 137.293 137.734 
138.598 140.021 141.536 142.958 137.648 137.479 138.358 138.518 139.49 
137.636 139.889 140.818 139.006 138.1 141.223 142.054 140.391 139.444 
138.43 142.518 143.287 141.702 140.793 139.775 138.949 143.91 144.565 
143.142 142.294 141.427 140.672 140.207 145.238 145.792 144.588 143.844 
143.121 142.53 142.084 141.757 146.469 146.979 145.899 145.261 144.627 
144.122 143.765 143.45 143.149 147.679 148.098 147.191 146.642 146.074 
145.583 145.247 144.994 144.699 144.416 145.513 145.814 146.706 146.216 
147.249 148.028 146.529 147.766 148.705 149.714 146.808 148.144 149.257 
150.336 151.666 147.201 148.504 149.699 150.841 152.162 153.509 147.694 
148.904 150.072 151.255 152.6 153.986 155.244 148.197 149.321 150.401 
151.556 152.951 154.423 155.79 157.067 148.633 149.702 150.741 151.827 
153.197 154.737 156.186 157.515 158.769 148.967 149.961 151.019 152.106 
153.375 154.883 156.391 157.73 158.937 160.056 146.164 147.213 146.881 
148.791 148.042 147.879 150.974 150.05 149.384 149.239 153.105 152.435 
151.521 150.897 150.662 154.933 154.572 153.893 152.923 152.26 151.903 
156.861 156.664 156.402 155.6 154.418 153.586 153.032 158.853 158.837 
158.829 158.495 157.378 155.969 154.915 154.062 160.446 160.704 160.819 
160.725 160.056 158.746 157.315 156.054 154.869 161.378 161.969 162.711 
163.418 164.022 162.358 164.705 165.081 163.791 162.387 165.616 165.712 
164.965 163.572 161.957 166.107 166.003 165.743 164.551 162.837 161.004 
166.252 165.838 166.056 165.181 163.672 161.828 159.688 165.81 165.057 
165.889 165.232 164.085 162.506 160.466 158.172 164.723 163.955 165.079 
164.692 163.782 162.522 160.749 158.593 156.539 163.38 162.892 163.717 
163.568 162.9 161.863 160.385 158.483 156.575 155.002 160.409 161.691 
160.845 162.157 161.376 163.036 162.47 161.476 163.392 164.305 161.966 
160.883 163.164 164.366 165.184 161.014 160.062 162.165 163.703 164.942 
165.584 160.31 159.225 161.359 162.757 164.169 165.031 165.492 159.515 
158.219 160.802 162.147 163.382 164.175 164.552 164.827 158.411 157.213 
159.783 161.25 162.538 163.351 163.672 163.762 163.867 157.417 156.431 
158.578 159.896 161.201 162.233 162.833 163.024 163.007 162.975 148.986 
149.881 149.847 150.815 150.77 150.969 151.941 151.87 152.13 152.215 
153.172 152.98 153.457 153.59 153.518 154.197 153.877 154.659 154.961 
155.001 154.982 155.058 154.627 155.689 156.268 156.522 156.622 156.612 
155.919 155.319 156.723 157.58 158.17 158.429 158.395 158.12 156.664 
155.916 157.617 158.622 159.48 160.084 160.202 159.829 159.352 147.829 
148.765 147.506 148.456 147.098 149.687 147.967 146.694 149.38 150.657 
147.497 146.39 148.797 150.295 151.734 147.263 146.121 148.296 149.577 
151.224 152.752 147.07 145.801 148.149 149.074 150.395 152.12 153.575 
146.693 145.497 147.963 149.011 149.971 151.324 152.929 154.257 146.278 
145.3 147.487 148.813 149.973 150.999 152.235 153.628 154.857 146.007 