# vtk DataFile Version 4.0
vtk output
ASCII
DATASET POLYDATA
POINTS 1002 float
-85.2362 -82.2972 75.3259 -85.1636 -81.7346 74.0471 -84.8258 -81.5007 74.8874 
-84.9074 -82.1495 76.3011 -84.5555 -81.2901 75.8873 -85.2748 -83.0142 76.7159 
-84.4568 -82.1166 77.288 -83.9848 -81.2835 76.8023 -84.8661 -83.0006 77.7408 
-85.1999 -83.9584 78.1398 -83.6557 -82.3363 78.0992 -83.127 -81.4895 77.5844 
-84.242 -83.1313 78.6706 -84.701 -84.1177 79.1921 -84.9868 -85.1985 79.6537 
-82.9139 -82.6501 78.9787 -82.555 -81.6448 78.5886 -83.4946 -83.4597 79.5397 
-84.0582 -84.3986 80.1777 -84.457 -85.535 80.7841 -84.7087 -86.6443 81.2452 
-82.6203 -82.8106 80.2746 -82.4107 -81.6987 80.0039 -82.9794 -83.8439 80.6803 
-83.4317 -84.841 81.1944 -83.8159 -85.9886 81.7986 -84.1551 -87.1216 82.3515 
-84.4308 -88.1812 82.7379 -82.4219 -82.9972 81.7778 -82.2627 -81.9229 81.5062 
-82.5464 -84.2197 82.0861 -82.8405 -85.3677 82.3903 -83.1525 -86.5481 82.7463 
-83.4602 -87.7521 83.2147 -83.8344 -88.8583 83.7143 -84.1301 -89.9379 84.1235 
-82.0297 -83.4189 83.0763 -81.9063 -82.3579 82.7893 -81.984 -84.6962 83.3529 
-82.1891 -85.9081 83.6096 -82.5804 -87.0772 83.8361 -82.8534 -88.3784 84.1059 
-83.1656 -89.667 84.5461 -83.5567 -90.8167 85.0782 -83.8289 -91.8593 85.4936 
-81.5576 -83.8874 84.1291 -81.4689 -82.798 83.8687 -81.4733 -85.1769 84.3336 
-81.6506 -86.4098 84.5976 -82.1986 -87.5501 84.9633 -82.5784 -88.8764 85.2935 
-82.7314 -90.349 85.6056 -83.0177 -91.6623 86.0325 -83.3715 -92.7405 86.4832 
-83.6196 -93.6513 86.7862 -81.1765 -84.2235 85.0838 -81.1541 -83.1638 84.8393 
-81.1249 -85.4872 85.2171 -81.3025 -86.7738 85.4095 -81.8987 -87.9961 85.86 
-82.4364 -89.3587 86.4283 -82.5736 -90.9024 86.8384 -82.6809 -92.3359 87.1221 
-82.9732 -93.5078 87.4265 -83.278 -94.4874 87.7271 -83.5187 -95.3335 87.9424 
-84.8364 -81.0458 73.3262 -84.5248 -80.7084 74.2277 -84.5666 -80.2096 72.7023 
-84.1693 -79.8368 73.6326 -84.3464 -79.2762 72.1342 -84.2196 -80.4173 75.2746 
-83.7067 -79.0078 73.0564 -84.0629 -78.4018 71.5863 -83.7174 -79.5308 74.6983 
-83.5875 -80.3246 76.2352 -83.2225 -78.1987 72.5955 -83.7224 -77.5208 71.3084 
-83.0622 -78.7689 74.1655 -83.1027 -79.3461 75.7539 -82.8149 -80.4 77.1638 
-82.9298 -77.0982 72.5108 -83.5248 -76.4637 71.4419 -82.4838 -77.8902 73.8015 
-82.5092 -78.5235 75.3564 -82.5162 -79.3391 76.9185 -82.3567 -80.5238 78.4248 
-82.914 -75.832 72.7998 -83.6384 -75.5073 71.7816 -82.2215 -76.5913 73.813 
-81.982 -77.512 75.1102 -82.0976 -78.4296 76.7657 -82.0802 -79.5751 78.4513 
-82.119 -80.7689 80.0138 -83.189 -75.0448 73.3611 -84.1142 -75.0139 72.3155 
-82.3205 -75.4177 74.3101 -81.7984 -76.2283 75.3117 -81.7686 -77.2982 76.7817 
-81.7783 -78.6236 78.5712 -81.695 -80.0032 80.1624 -81.811 -81.1784 81.5286 
-83.789 -74.863 74.1988 -84.8431 -74.8912 73.1608 -82.7731 -74.9644 75.2107 
-82.045 -75.3716 76.1137 -81.778 -76.1745 77.2636 -81.7184 -77.4514 78.8589 
-81.5064 -79.0283 80.4171 -81.3504 -80.4373 81.6515 -81.434 -81.609 82.787 
-84.5591 -74.9122 75.1455 -85.5618 -74.9134 74.1547 -83.4982 -74.9804 76.1967 
-82.637 -75.1681 77.1589 -82.1207 -75.6185 78.1441 -81.886 -76.5441 79.4111 
-81.6564 -77.9592 80.7778 -81.3268 -79.4882 81.8872 -81.1389 -80.8158 82.8522 
-81.1526 -82.0006 83.8737 -85.5723 -75.0097 75.6987 -84.5523 -75.0626 76.7703 
-85.4487 -75.2519 77.1654 -84.5551 -75.3377 78.2936 -85.328 -75.7086 78.6197 
-83.5848 -75.195 77.8817 -84.6651 -75.8267 79.8023 -85.3608 -76.4238 80.0931 
-83.7997 -75.4939 79.5043 -82.8294 -75.4653 78.9626 -84.8127 -76.6468 81.3047 
-85.4453 -77.3588 81.4007 -84.0612 -76.0429 81.1298 -83.0658 -75.9524 80.7411 
-82.2745 -76.1288 80.1136 -84.8592 -77.722 82.7475 -85.5243 -78.2577 82.8165 
-84.2347 -77.0452 82.6984 -83.3031 -76.7917 82.4054 -82.3912 -76.9832 81.895 
-81.9091 -77.3221 81.3217 -84.9991 -78.735 84.3344 -85.7535 -78.9104 84.6488 
-84.3807 -78.3781 84.1281 -83.5936 -78.0669 83.8476 -82.6515 -78.1089 83.3696 
-81.995 -78.3572 82.8428 -81.595 -78.7914 82.3474 -85.3105 -79.6508 85.9004 
-86.0154 -79.6485 86.2669 -84.6556 -79.6637 85.4957 -83.912 -79.5254 85.1387 
-83.0217 -79.41 84.7075 -82.2814 -79.4925 84.1892 -81.7322 -79.7588 83.6861 
-81.2832 -80.2324 83.2346 -85.4688 -80.7765 87.0057 -86.0532 -80.8435 87.1434 
-84.8819 -80.8064 86.7618 -84.1492 -80.7626 86.5117 -83.2518 -80.6281 86.1978 
-82.5243 -80.628 85.7225 -82.0206 -80.8397 85.1586 -81.5015 -81.1682 84.6408 
-81.128 -81.5709 84.2186 -85.3962 -82.0967 87.7707 -85.9382 -82.2633 87.6713 
-84.8964 -81.9313 87.8663 -84.262 -81.7486 87.9333 -83.377 -81.5806 87.8445 
-82.6025 -81.597 87.4639 -82.2117 -81.8742 86.8399 -81.864 -82.2273 86.1906 
-81.3931 -82.5205 85.6631 -81.1083 -82.8146 85.2348 -81.0503 -84.16 85.9755 
-81.2702 -83.8713 86.4948 -81.1622 -85.3393 87.1465 -81.7415 -83.6572 87.0303 
-81.6105 -85.1447 87.7414 -81.5232 -86.9105 88.3689 -82.1273 -83.3588 87.7048 
-82.0928 -85.0036 88.3484 -81.9644 -86.8682 88.9596 -81.9277 -89.0125 89.6217 
-82.3127 -82.9194 88.4948 -82.3386 -84.7633 89.0889 -82.302 -86.8757 89.5834 
-82.18 -89.1454 90.2094 -82.1975 -91.4427 90.8483 -82.7979 -82.586 89.1201 
-82.6229 -84.4034 89.7933 -82.6268 -86.8322 90.194 -82.5201 -89.2984 90.8408 
-82.3987 -91.6779 91.5025 -82.3911 -94.0916 92.0516 -83.6961 -82.5854 89.3418 
-83.3428 -84.1115 90.2137 -83.1958 -86.6182 90.5297 -83.0735 -89.3249 91.1975 
-82.9324 -91.805 92.0621 -82.7394 -94.3255 92.6458 -82.5775 -97.015 93.1665 
-84.4732 -82.8493 89.1829 -84.1928 -84.0651 90.3174 -83.9546 -86.2722 90.7099 
-83.6581 -89.0391 91.2097 -83.4955 -91.6328 92.1962 -83.3605 -94.2678 92.9146 
-83.0308 -97.0943 93.4525 -82.6966 -99.8289 94.1067 -84.9961 -83.1816 88.8508 
-84.81 -84.2344 90.1484 -84.6636 -85.9806 90.879 -84.2595 -88.5282 91.3149 
-83.8843 -91.127 92.1939 -83.7983 -93.7732 92.9671 -83.5985 -96.7498 93.4085 
-83.138 -99.6291 94.1196 -82.7237 -102.043 94.9193 -85.5295 -83.4439 88.5494 
-85.3354 -84.4454 89.8329 -85.2716 -85.8128 90.8722 -84.9516 -88.0161 91.4679 
-84.419 -90.5262 92.2839 -84.1563 -93.02 93.1501 -84.0535 -95.9241 93.5107 
-83.6851 -99.0106 93.963 -83.1548 -101.623 94.8762 -82.75 -103.657 95.6025 
-80.9708 -85.3757 86.1705 -81.1069 -86.7886 87.3998 -81.0472 -86.7958 86.3016 
-81.5453 -88.737 88.8015 -81.2992 -88.5081 87.6817 -81.4999 -88.2875 86.6398 
-82.0173 -91.1551 90.1822 -81.6634 -90.806 89.2196 -81.625 -90.3971 88.1237 
-82.0671 -89.8935 87.2708 -82.3474 -93.9063 91.4439 -82.1 -93.5486 90.6423 
-81.7021 -93.045 89.5928 -81.8302 -92.3978 88.67 -82.3129 -91.6283 87.8802 
-82.5127 -97.1303 92.6825 -82.516 -96.9154 91.9711 -82.159 -96.2697 91.0323 
-81.8518 -95.3288 90.0089 -82.0715 -94.2598 89.1377 -82.4429 -93.2209 88.2303 
-82.5407 -100.392 93.826 -82.6175 -100.636 93.1831 -82.5671 -100.16 92.4083 
-82.3151 -98.943 91.4863 -82.2645 -97.3915 90.4316 -82.4813 -95.8543 89.4198 
-82.7288 -94.5496 88.4366 -82.4919 -102.905 94.7409 -82.437 -103.604 94.0943 
-82.4186 -103.662 93.3629 -82.3525 -102.762 92.685 -82.3768 -101.162 91.7684 
-82.5575 -99.2464 90.6408 -82.7923 -97.3288 89.5993 -83.0307 -95.721 88.6644 
-82.4563 -104.611 95.3862 -82.2556 -105.494 94.6783 -82.077 -105.96 93.8506 
-81.9371 -105.654 93.2025 -81.9752 -104.61 92.5287 -82.2331 -102.99 91.6348 
-82.5971 -100.884 90.6989 -82.9655 -98.6474 89.8275 -83.2804 -96.7549 88.921 
-82.6394 -105.675 95.8919 -82.2924 -106.731 95.1844 -82.5976 -107.786 95.3228 
-82.1456 -108.957 94.3411 -82.5785 -109.802 94.079 -81.9776 -107.559 94.2323 
-82.1062 -111.22 93.205 -82.6659 -111.423 92.7641 -81.8123 -109.82 93.4681 
-81.7014 -107.818 93.397 -82.313 -113.259 92.0308 -83.0901 -112.679 91.7652 
-81.8846 -112.463 92.4238 -81.6253 -110.081 92.5627 -81.5821 -107.376 92.637 
-82.8975 -114.56 91.0536 -83.8482 -113.282 91.1362 -82.1093 -114.757 91.2005 
-81.7505 -112.707 91.3529 -81.5881 -109.404 91.6029 -81.7506 -106.246 91.8852 
-83.75 -114.193 90.4501 -84.5603 -112.442 90.5826 -82.5965 -115.282 90.3535 
-81.8555 -114.25 90.3251 -81.7243 -111.118 90.6049 -81.8627 -107.641 91.1597 
-82.2036 -104.321 91.2901 -84.458 -112.051 89.8611 -85.0009 -110.407 89.7528 
-83.3933 -113.503 89.9766 -82.2963 -113.545 89.9494 -81.9219 -111.439 90.1271 
-82.1825 -108.255 90.76 -82.53 -105.04 91.1531 -82.7985 -101.754 90.7236 
-84.8551 -109.481 89.1219 -85.3258 -108.398 88.9161 -84.1327 -110.638 89.6091 
-83.1871 -111.166 89.9143 -82.5419 -110.218 90.057 -82.6174 -107.926 90.5234 
-83.0423 -105.095 91.0175 -83.2885 -102.093 90.7763 -83.3212 -99.173 89.8903 
-85.1556 -107.569 88.6861 -85.6837 -106.974 88.6015 -84.638 -108.181 89.268 
-84.0739 -108.53 89.8691 -83.513 -108.126 90.1206 -83.2746 -106.734 90.3215 
-83.4882 -104.575 90.6305 -83.7634 -101.996 90.5126 -83.7803 -99.3705 89.7548 
-83.641 -97.0991 88.7896 -83.104 -103.879 95.854 -83.092 -105.958 96.1407 
-83.6438 -103.919 95.8546 -83.7012 -105.968 96.0089 -84.1881 -103.645 95.3805 
-83.1799 -107.987 95.3864 -84.1409 -105.523 95.3241 -84.5516 -102.876 94.459 
-83.802 -107.687 95.2104 -83.256 -109.629 93.9707 -84.3605 -104.502 94.3128 
-84.9808 -101.445 93.6499 -84.0868 -106.879 94.6733 -83.8738 -108.943 93.9412 
-83.446 -110.817 92.696 -84.8959 -102.841 93.5828 -85.7757 -99.4624 93.2751 
-84.3063 -105.621 93.9361 -84.1872 -107.86 93.7138 -84.1026 -109.897 92.8354 
-83.9294 -111.71 91.8913 -85.9458 -100.624 93.2336 -86.7191 -97.3707 92.9202 
-85.1331 -103.842 93.4707 -84.7137 -106.367 93.3686 -84.5844 -108.433 92.7913 
-84.4625 -110.284 92.0625 -84.4846 -111.689 91.3331 -87.0448 -98.177 92.8065 
-87.5323 -95.5516 92.2855 -86.3764 -101.414 93.2006 -85.8075 -104.392 93.281 
-85.3974 -106.522 92.817 -84.9732 -108.18 92.0939 -84.7682 -109.558 91.4007 
-84.9117 -110.318 90.5835 -87.8866 -95.993 92.1211 -88.2281 -94.1098 91.5325 
-87.3802 -98.6543 92.6418 -86.8949 -101.782 93.072 -86.464 -104.376 93.0245 
-85.8851 -106.045 92.3516 -85.3479 -107.275 91.5058 -85.2456 -108.166 90.6363 
-85.3761 -108.496 89.6586 -88.5467 -94.3718 91.3314 -88.8659 -92.9764 90.8159 
-88.0477 -96.2918 91.7552 -87.5788 -98.9353 92.2875 -87.2455 -101.776 92.7456 
[...]
CELL_DATA 2000
SCALARS Distance double
LOOKUP_TABLE default
138.73 138.93 139.163 139.877 139.148 139.41 140.142 140.377 141.122 
139.243 139.575 140.329 140.633 141.421 141.675 142.48 139.439 139.699 
140.518 140.816 141.683 141.984 142.889 143.13 144.009 140.008 140.099 
141.002 141.161 142.105 142.33 143.31 143.569 144.53 144.729 145.612 
140.84 140.847 141.758 141.823 142.766 142.889 143.844 144.041 145.003 
145.233 146.167 146.347 147.238 141.659 141.687 142.526 142.59 143.465 
143.576 144.479 144.623 145.548 145.73 146.695 146.902 147.886 148.042 
148.981 142.337 142.41 143.174 143.262 144.07 144.208 145.121 145.281 
146.265 146.388 147.408 147.533 148.591 148.738 149.766 149.853 150.765 
142.93 143.007 143.728 143.823 144.59 144.749 145.68 145.914 146.999 
147.191 148.29 148.385 149.452 149.533 150.566 150.652 151.599 151.624 
152.459 138.049 137.058 137.751 138.199 136.055 136.741 137.17 137.936 
138.404 135.046 135.709 136.087 136.863 137.31 138.086 138.497 134.095 
134.689 135.015 135.751 136.182 136.965 137.403 138.159 138.645 133.299 
133.775 134.038 134.685 135.103 135.864 136.37 137.125 137.699 138.462 
139.166 132.791 133.077 133.26 133.746 134.106 134.816 135.388 136.18 
136.872 137.635 138.413 139.18 140.015 132.808 132.799 132.97 133.145 
133.453 133.929 134.522 135.271 136.089 136.899 137.762 138.513 139.354 
140.09 140.887 133.437 133.157 133.4 133.221 133.558 133.615 134.199 
134.631 135.514 136.224 137.191 137.92 138.773 139.456 140.219 140.915 
141.614 134.398 134.027 134.323 133.976 134.349 134.109 134.652 134.685 
135.499 135.897 136.881 137.466 138.358 138.936 139.678 140.278 140.972 
141.613 142.26 135.037 135.96 135.337 134.995 136.92 136.295 136.036 
135.359 135.06 138.069 137.364 137.181 136.48 136.281 135.538 135.369 
139.392 138.648 138.515 137.754 137.635 136.863 136.791 136.04 136.137 
140.769 140.04 139.991 139.211 139.15 138.336 138.325 137.552 137.688 
137.024 137.37 142.268 141.502 141.553 140.772 140.8 139.959 139.973 
139.153 139.271 138.578 138.847 138.303 138.706 143.833 143.085 143.173 
142.408 142.498 141.672 141.71 140.853 140.929 140.166 140.358 139.731 
140.023 139.541 139.935 145.194 144.584 144.673 144.01 144.11 143.363 
143.409 142.582 142.635 141.838 142.002 141.284 141.539 140.904 141.236 
140.749 141.186 146.319 145.821 145.941 145.402 145.534 144.903 144.973 
144.225 144.275 143.511 143.674 142.962 143.23 142.526 142.825 142.171 
142.528 142.031 142.463 143.273 143.445 143.758 144.634 143.818 144.081 
145.038 145.278 146.286 144.234 144.522 145.524 145.778 146.822 147.091 
148.277 144.619 144.91 145.931 146.258 147.34 147.651 148.843 149.2 
150.518 145.14 145.321 146.322 146.642 147.787 148.16 149.421 149.794 
151.137 151.504 152.893 145.792 145.909 146.854 147.086 148.207 148.59 
149.902 150.361 151.763 152.166 153.564 153.923 155.361 146.317 146.506 
147.404 147.635 148.653 148.994 150.196 150.722 152.087 152.669 154.041 
154.533 155.891 156.361 157.767 146.663 146.908 147.777 148.085 149.049 
149.387 150.449 150.917 152.142 152.786 154.095 154.768 156.052 156.684 
157.976 158.59 159.851 146.978 147.202 148.04 148.37 149.32 149.693 
150.7 151.119 152.231 152.785 154.012 154.678 155.925 156.627 157.866 
158.584 159.801 160.454 161.521 143.528 144.805 144.185 144.308 146.445 
145.609 145.706 145.026 145.213 148.535 147.508 147.646 146.68 146.899 
146.112 146.421 150.881 149.822 150.051 148.902 149.113 148.076 148.412 
147.543 147.887 153.319 152.294 152.659 151.475 151.683 150.47 150.713 
149.691 150.016 149.081 149.292 155.9 154.887 155.469 154.265 154.634 
153.235 153.431 152.122 152.347 151.263 151.455 150.42 150.484 158.436 
157.567 158.328 157.24 157.825 156.421 156.713 155.121 155.255 153.79 
153.896 152.645 152.687 151.562 151.562 160.546 159.956 160.702 159.943 
160.523 159.492 159.8 158.424 158.48 156.902 156.845 155.304 155.224 
153.858 153.783 152.613 152.564 162.131 161.761 162.367 161.9 162.311 
161.693 161.878 161.015 160.984 159.823 159.651 158.25 158.025 156.54 
156.33 154.94 154.778 153.572 153.443 163.076 164.267 163.574 163.237 
165.103 164.597 164.237 163.57 163.112 165.71 165.375 165.138 164.505 
164.004 163.278 162.662 166.278 166.055 166.097 165.513 165.061 164.185 
163.452 162.656 161.84 166.804 166.708 166.915 166.524 166.184 165.303 
164.419 163.446 162.496 161.688 160.658 166.731 167.018 167.124 167.118 
166.746 166.202 165.206 164.306 163.158 162.324 161.256 160.399 159.167 
165.563 166.327 166.261 166.772 166.295 166.275 165.25 164.725 163.512 
162.846 161.743 160.987 159.792 158.827 157.477 163.857 164.69 164.568 
165.374 164.971 165.381 164.513 164.403 163.302 162.934 161.888 161.36 
160.217 159.403 158.053 157.089 155.782 162.563 163.065 162.962 163.631 
163.422 163.955 163.385 163.536 162.643 162.521 161.549 161.282 160.195 
159.656 158.329 157.537 156.174 155.382 154.249 163.121 163.56 163.771 
164.419 163.682 164.134 164.834 164.909 165.261 163.195 164.004 164.767 
165.146 165.473 165.516 165.691 162.162 163.2 164.013 164.771 165.199 
165.524 165.676 165.801 166.042 161.038 162.046 162.867 163.797 164.373 
165.018 165.331 165.664 165.903 166.155 166.487 160.022 160.957 161.796 
162.699 163.377 164.122 164.561 165.125 165.394 165.839 166.024 166.42 
166.452 158.967 159.895 160.719 161.684 162.459 163.25 163.744 164.31 
164.508 165.028 165.049 165.599 165.412 165.869 165.384 157.903 158.747 
159.416 160.456 161.223 162.26 162.864 163.557 163.748 164.133 164.043 
164.439 164.214 164.637 164.19 164.481 163.826 157.003 157.671 158.116 
159.015 159.587 160.753 161.392 162.467 162.818 163.407 163.362 163.614 
163.437 163.641 163.399 163.524 163.124 163.135 162.663 147.41 148.486 
148.115 148.52 149.646 149.298 149.767 149.36 149.83 150.735 150.479 
151.012 150.647 151.158 150.747 151.245 151.794 151.591 152.216 151.893 
152.479 152.108 152.718 152.266 152.832 152.896 152.736 153.495 153.178 
153.853 153.477 154.209 153.82 154.544 154.009 154.634 153.898 153.848 
154.712 154.519 155.267 154.919 155.68 155.347 156.192 155.778 156.519 
155.91 156.536 154.777 154.777 155.66 155.646 156.468 156.283 157.052 
156.797 157.683 157.409 158.304 157.826 158.555 157.872 158.501 155.653 
155.621 156.465 156.504 157.383 157.362 158.209 158.084 159.006 158.858 
159.884 159.601 160.509 159.94 160.64 159.883 160.465 156.446 156.443 
157.231 157.286 158.175 158.234 159.15 159.147 160.099 160.083 161.139 
161.086 162.104 161.81 162.579 161.978 162.507 161.751 162.154 147 
146.66 147.196 147.977 146.225 146.793 147.538 148.186 149.043 145.831 
146.353 147.073 147.69 148.509 149.214 150.073 145.583 146.049 146.784 
147.286 148.073 148.678 149.512 150.201 151.067 145.3 145.82 146.566 
147.066 147.86 148.365 149.187 149.729 150.567 151.216 152.103 144.86 
145.441 146.149 146.756 147.551 148.156 149.015 149.541 150.359 150.844 
151.648 152.259 153.102 144.403 144.948 145.614 146.234 146.993 147.704 
148.582 149.288 150.141 150.686 151.421 151.898 152.642 153.235 154.031 
144.052 144.515 145.153 145.707 146.423 147.089 147.918 148.701 149.575 
150.309 151.065 151.631 152.318 152.85 153.609 154.197 154.975 143.836 
144.21 144.818 145.297 145.984 146.556 147.311 148.008 148.835 149.62 
150.427 151.139 151.869 152.481 153.227 153.823 154.592 155.157 155.837 
143.95 144.528 144.442 144.935 145.279 145.141 145.656 145.535 146.105 
146.063 145.968 146.506 146.332 146.865 146.759 147.393 146.783 146.751 
147.323 147.172 147.663 147.53 148.142 148.111 148.855 147.558 147.511 
148.136 147.978 148.477 148.312 148.928 148.89 149.678 149.673 150.461 
148.364 148.339 149.017 148.86 149.392 149.166 149.791 149.718 150.573 
150.571 151.428 151.322 152.018 148.951 149.037 149.708 149.713 150.282 
150.119 150.717 150.616 151.477 151.508 152.457 152.379 153.153 152.898 
153.495 149.324 149.436 150.035 150.221 150.866 150.922 151.579 151.537 
152.366 152.406 153.371 153.39 154.219 154.059 154.681 154.372 154.873 
149.724 149.743 150.291 150.47 151.224 151.433 152.283 152.373 153.27 
153.303 154.225 154.252 155.042 154.989 155.569 155.42 155.876 155.638 
156.037 150.174 151.369 150.698 150.797 153.255 152.276 152.405 151.596 
151.845 155.354 154.415 154.587 153.556 153.762 152.859 153.089 156.939 
156.348 156.541 155.719 155.861 154.935 155.075 154.131 154.222 158.23 
157.746 158.007 157.392 157.522 156.813 156.884 156.072 156.068 155.162 
155.131 159.83 159.23 159.652 158.913 159.141 158.365 158.467 157.695 
157.642 156.828 156.665 155.875 155.759 161.308 160.907 161.394 160.739 
161.045 160.186 160.358 159.415 159.393 158.392 158.147 157.235 156.985 
156.299 156.162 162.025 162.007 162.404 162.192 162.45 161.959 162.129 
161.387 161.432 160.381 160.137 158.905 158.53 157.523 157.296 156.621 
156.483 162.285 162.381 162.748 162.79 163.04 162.913 163.068 162.775 
162.893 162.291 162.173 161.069 160.64 159.335 158.919 157.889 157.656 
156.927 156.718 150.102 150.242 150.489 151.231 150.163 150.604 151.489 
151.869 152.986 149.965 150.507 151.544 152.085 153.276 153.796 155.004 
149.862 150.387 151.476 152.092 153.297 153.94 155.09 155.633 156.573 
149.704 150.277 151.277 151.952 153.063 153.792 154.854 155.509 156.412 
156.934 157.783 149.306 149.952 150.824 151.577 152.562 153.374 154.366 
155.117 156.047 156.688 157.647 158.22 159.267 148.838 149.445 150.266 
150.999 151.942 152.752 153.728 154.531 155.528 156.294 157.376 158.088 
159.206 159.811 160.775 148.486 149.008 149.826 150.477 151.434 152.166 
153.136 153.889 154.883 155.72 156.865 157.756 158.926 159.663 160.567 
161.073 161.624 148.237 148.708 149.494 150.09 151.014 151.707 152.639 
153.336 154.233 155.027 156.092 157.094 158.3 159.241 160.194 160.783 
161.311 161.646 161.952 149.595 148.756 149.368 149.629 147.539 148.333 
148.549 149.233 149.405 146.201 147.009 147.26 148.005 148.144 148.86 
149.076 145.068 145.775 146.096 146.772 146.96 147.587 147.779 148.553 
148.917 143.942 144.673 144.978 145.693 145.883 146.473 146.588 147.268 
147.556 148.433 148.805 142.663 143.412 143.591 144.426 144.546 145.287 
145.289 145.999 146.129 147.007 147.321 148.243 148.497 141.466 142.098 
142.191 142.935 143.019 143.795 143.798 144.55 144.604 145.473 145.736 
146.706 147.018 147.887 148.09 140.407 140.966 141.047 141.641 141.732 
142.366 142.431 143.087 143.171 143.935 144.18 145.112 145.483 146.419 
146.732 147.534 147.76 139.317 139.895 139.953 140.546 140.621 141.212 
141.28 141.865 141.944 142.594 142.792 143.614 143.973 144.911 145.301 
146.186 146.496 147.268 147.524 138.665 137.812 138.594 139.303 137.005 
137.745 138.5 139.277 140.001 136.484 137.064 137.812 138.509 139.29 
140.005 140.692 136.313 136.742 137.519 138.009 138.783 139.367 140.115 
140.725 141.391 136.421 136.731 137.562 137.921 138.715 139.088 139.844 
140.287 141.042 141.537 142.287 136.812 136.972 137.773 138.054 138.868 
139.171 139.948 140.249 141.035 141.386 142.224 142.631 143.496 137.374 
137.451 138.172 138.333 139.09 139.344 140.136 140.437 141.252 141.549 
142.392 142.716 143.597 143.97 144.838 137.9 137.99 138.674 138.779 
139.479 139.629 140.395 140.648 141.495 141.798 142.653 142.949 143.795 
144.12 144.964 145.309 146.083 138.393 138.47 139.142 139.256 139.948 
140.067 140.808 140.985 141.818 142.074 142.937 143.212 144.043 144.33 
145.144 145.453 146.221 146.506 147.175 138.923 140.033 139.512 139.653 
141.264 140.675 140.794 140.293 140.475 142.624 141.961 142.079 141.502 
141.704 141.179 141.392 144.139 143.404 143.518 142.855 143.068 142.495 
142.764 142.187 142.435 145.745 144.992 145.107 144.368 144.551 143.914 
144.186 143.61 143.885 143.287 143.533 147.401 146.643 146.804 146.02 
146.184 145.453 145.679 145.048 145.326 144.739 145.001 144.392 144.627 
149.141 148.365 148.571 147.766 147.945 147.145 147.334 146.598 146.847 
146.206 146.499 145.881 146.144 145.499 145.728 150.889 150.138 150.342 
149.55 149.719 148.918 149.075 148.291 148.479 147.771 148.03 147.399 
147.67 147.033 147.248 146.589 146.773 152.579 151.868 152.079 151.303 
151.45 150.658 150.782 150 150.13 149.393 149.569 148.914 149.131 
148.519 148.705 148.071 148.201 147.562 147.679 148.344 148.922 148.947 
149.627 149.469 149.556 150.313 150.358 151.15 149.945 150.097 150.91 
151.038 151.885 151.951 152.748 150.443 150.602 151.483 151.638 152.538 
152.655 153.508 153.534 154.322 151.051 151.188 152.166 152.302 153.321 
153.402 154.397 154.386 155.357 155.267 156.243 151.756 151.896 152.998 
153.131 154.332 154.386 155.597 155.528 156.717 156.557 157.72 157.495 
158.551 152.496 152.678 153.927 154.107 155.495 155.587 156.976 156.931 
158.245 158.101 159.287 159.066 160.029 159.738 160.44 153.172 153.442 
154.798 155.101 156.619 156.834 158.289 158.339 159.626 159.576 160.671 
160.525 161.312 161.035 161.487 161.182 161.464 153.673 154.056 155.424 
155.896 157.436 157.858 159.287 159.505 160.678 160.75 161.743 161.713 
162.465 162.209 162.597 162.152 162.307 161.925 162.077 134.248 133.291 
133.731 133.726 132.662 132.866 132.814 133.234 133.324 132.608 132.471 
132.273 132.413 132.402 132.893 133.146 133.079 132.674 132.343 132.079 
131.828 132.011 132.158 132.801 133.254 133.883 133.343 133.043 132.448 
132.062 131.706 131.656 131.925 132.408 133.094 133.76 134.843 134.274 
134.096 133.405 133.105 132.357 132.213 131.867 132.274 132.546 133.354 
133.882 134.676 135.833 135.283 135.178 134.559 134.388 133.624 133.503 
132.839 133.108 132.888 133.614 133.808 134.675 135.014 135.796 136.828 
136.289 136.227 135.665 135.58 134.921 134.852 134.198 134.366 133.94 
134.454 134.348 135.073 135.206 135.971 136.221 136.951 137.835 137.307 
137.294 136.753 136.743 136.131 136.123 135.503 135.641 135.158 135.521 
135.243 135.777 135.714 136.363 136.487 137.196 137.411 138.097 134.802 
134.289 134.849 135.459 133.903 134.376 135.001 135.524 136.152 133.8 
134.126 134.749 135.149 135.826 136.306 137.014 133.971 134.172 134.796 
135.047 135.728 136.106 136.883 137.312 138.063 134.41 134.46 135.059 
135.194 135.835 136.119 136.889 137.275 138.054 138.414 139.095 135.189 
135.045 135.612 135.575 136.191 136.316 137.045 137.334 138.107 138.44 
139.149 139.444 140.088 136.223 135.954 136.515 136.317 136.944 136.855 
137.554 137.619 138.368 138.567 139.321 139.569 140.286 140.51 141.167 
137.336 137.032 137.573 137.324 137.927 137.745 138.384 138.282 138.947 
138.968 139.692 139.846 140.603 140.795 141.484 141.633 142.216 138.43 
138.128 138.611 138.36 138.876 138.692 139.226 139.1 139.641 139.589 
140.188 140.27 140.96 141.139 141.812 141.966 142.518 142.619 143.081 
135.283 135.932 135.803 136.179 136.621 136.466 136.857 136.7 137.106 
137.463 137.223 137.655 137.445 137.895 137.714 138.233 138.455 138.152 
138.594 138.338 138.83 138.598 139.127 138.944 139.524 139.438 139.148 
139.57 139.32 139.808 139.575 140.088 139.872 140.412 140.247 140.845 
140.404 140.102 140.524 140.282 140.773 140.55 141.06 140.831 141.369 
141.165 141.779 141.624 142.315 141.441 141.099 141.526 141.253 141.774 
141.536 142.086 141.833 142.395 142.159 142.799 142.622 143.335 143.182 
143.885 142.444 142.135 142.543 142.276 142.802 142.573 143.162 142.913 
143.488 143.224 143.82 143.631 144.293 144.174 144.818 144.681 145.24 
143.291 143.057 143.444 143.239 143.735 143.565 144.145 143.97 144.544 
144.311 144.831 144.605 145.14 145.016 145.58 145.501 146.013 145.889 
146.34 149.382 148.871 148.949 148.55 148.331 148.364 147.816 147.924 
147.336 147.651 147.703 147.07 147.15 146.512 146.59 145.984 146.836 
146.904 146.284 146.398 145.834 145.869 145.28 145.317 144.827 146.061 
146.067 145.415 145.564 145.078 145.235 144.721 144.731 144.165 144.223 
143.733 145.372 145.338 144.604 144.675 144.105 144.36 143.863 144.068 
143.459 143.546 142.924 143.053 142.513 144.68 144.678 143.966 143.926 
143.249 143.358 142.78 143.031 142.434 142.657 142.012 142.191 141.612 
141.805 141.324 144.026 144.04 143.443 143.372 142.71 142.627 141.979 
142.023 141.438 141.597 141.034 141.225 140.692 140.9 140.432 140.663 
140.247 143.495 143.485 142.97 142.915 142.309 142.176 141.5 141.386 
140.765 140.772 140.248 140.35 139.87 140.021 139.562 139.765 139.331 
139.582 139.164 
POINT_DATA 1002
SCALARS Distance double
LOOKUP_TABLE default
139.4 138.343 138.449 139.641 138.703 140.593 139.889 138.854 140.898 
141.878 139.987 138.893 141.115 142.254 143.313 140.222 139.205 141.35 
142.588 143.829 144.889 140.873 139.95 141.916 143.054 144.294 145.472 
146.479 141.722 140.852 142.684 143.701 144.781 145.938 147.095 148.143 
142.49 141.638 143.37 144.348 145.392 146.476 147.677 148.892 149.913 
143.106 142.272 143.932 144.912 146.107 147.301 148.452 149.65 150.76 
151.626 143.647 142.875 144.435 145.406 146.725 148.166 149.408 150.5 
151.55 152.49 153.265 137.356 137.449 136.371 136.406 135.391 137.659 
135.332 134.419 136.527 137.747 134.319 133.551 135.399 136.625 137.841 
133.46 132.892 134.341 135.574 136.914 138.346 132.885 132.602 133.444 
134.539 136.056 137.651 139.248 132.918 132.91 133.114 133.81 135.223 
136.996 138.645 140.174 133.65 133.757 133.639 133.928 134.867 136.46 
138.125 139.553 140.934 134.68 134.764 134.647 134.767 135.266 136.37 
137.818 139.136 140.348 141.635 135.673 135.665 136.546 136.678 137.542 
135.771 137.875 138.793 136.995 136.08 139.28 140.108 138.395 137.52 
136.778 140.736 141.468 139.963 139.097 138.361 137.928 142.305 143.035 
141.621 140.82 140.007 139.449 139.168 143.918 144.549 143.3 142.576 
141.737 141.046 140.58 140.323 145.287 145.748 144.816 144.217 143.436 
142.734 142.229 141.811 141.578 146.432 146.78 146.108 145.681 145.027 
144.366 143.925 143.54 143.127 142.881 144.065 144.33 145.508 144.789 
145.998 147.353 145.239 146.548 147.923 149.557 145.569 146.991 148.487 
150.124 151.878 146.032 147.369 149.007 150.776 152.516 154.29 146.673 
147.86 149.399 151.307 153.213 154.969 156.832 147.167 148.374 149.73 
151.466 153.494 155.424 157.287 159.19 147.452 148.716 150.062 151.563 
153.404 155.392 157.349 159.301 161.067 147.725 148.944 150.304 151.742 
153.396 155.244 157.148 159.111 160.999 162.5 144.845 146.477 145.8 
148.699 147.766 147.133 151.214 150.244 149.333 148.773 153.795 152.974 
151.838 150.973 150.308 156.584 156.036 154.9 153.561 152.513 151.55 
159.296 159.114 158.339 156.909 155.303 153.878 152.638 161.389 161.43 
161.035 160.036 158.503 156.739 155.063 153.654 162.833 162.888 162.622 
161.982 160.941 159.519 157.828 156.11 154.577 163.9 163.996 164.912 
164.891 165.513 163.831 165.729 165.895 164.801 163.387 166.549 166.396 
166.019 164.374 162.606 167.187 166.837 167.014 165.528 163.368 161.525 
167.034 166.329 167.155 166.069 164.031 162.09 160.165 165.624 164.742 
166.132 165.602 164.084 162.433 160.721 158.5 163.709 163.124 164.375 
164.416 163.534 162.304 160.942 159.001 156.664 162.364 162.204 162.815 
163.084 162.668 161.741 160.617 159.038 156.955 154.909 162.967 164.453 
163.267 164.689 163.096 165.369 164.232 162.264 165.386 165.675 163.111 
161.121 164.701 165.518 165.842 161.916 160.092 163.583 164.842 165.64 
166.234 160.878 159.111 162.609 163.949 164.899 165.649 166.194 159.713 
158.087 161.58 163.202 164.09 164.544 164.96 165.089 158.452 157.174 
160.092 162.012 163.39 163.775 163.82 163.869 163.618 157.392 156.447 
158.51 160.168 162.009 163.064 163.256 163.242 163.092 162.666 147.729 
148.895 148.837 150.164 149.939 150.244 151.338 150.931 151.538 151.696 
152.507 151.948 152.808 153.097 153.367 153.757 152.988 154.227 154.534 
155.004 155.27 154.806 153.907 155.58 156.003 156.511 157.069 157.226 
155.624 154.804 156.557 157.275 157.888 158.658 159.195 159.255 156.439 
155.721 157.338 158.264 159.101 160.044 160.962 161.381 161.293 146.496 
147.367 146.12 146.896 145.663 148.356 146.504 145.329 147.823 149.351 
146.316 145.109 147.535 148.864 150.325 146.038 144.758 147.349 148.699 
150.002 151.379 145.531 144.294 146.884 148.424 149.925 151.155 152.416 
145.023 143.897 146.292 147.807 149.519 150.983 152.13 153.386 144.63 
143.634 145.81 147.171 148.781 150.431 151.788 153.04 154.405 144.371 