# vtk DataFile Version 4.0
vtk output
ASCII
DATASET POLYDATA
POINTS 1002 float
-83.1529 -84.3849 73.3769 -83.0092 -83.8826 72.0441 -82.6353 -83.5671 72.8435 
-82.6624 -84.1927 74.2229 -82.3559 -83.1214 73.8389 -83.0988 -85.0974 74.6802 
-82.3858 -83.9039 75.3096 -82.1275 -82.7571 75.0159 -82.5991 -85.0571 75.6454 
-83.0126 -85.9705 76.1472 -82.0961 -83.7378 76.4893 -81.6717 -82.6716 76.1622 
-82.3486 -84.9549 76.8478 -82.6102 -86.0813 77.3082 -83.0947 -87.002 77.998 
-81.5096 -83.7752 77.632 -81.0815 -82.7523 77.3466 -81.9579 -84.9514 78.0372 
-82.3215 -86.1348 78.5817 -82.6902 -87.2746 79.2269 -83.1496 -88.2847 79.8959 
-81.102 -83.8679 78.9902 -80.8691 -82.8661 78.8336 -81.437 -85.0863 79.2587 
-81.8809 -86.3247 79.7778 -82.2259 -87.5736 80.409 -82.5554 -88.8068 80.9506 
-82.8998 -89.9081 81.4373 -81.1185 -84.1581 80.514 -80.8465 -83.2206 80.3734 
-81.2584 -85.388 80.6884 -81.4959 -86.7987 81.0583 -81.76 -88.1553 81.5995 
-81.9737 -89.4527 82.0706 -82.2494 -90.6915 82.46 -82.5435 -91.8128 82.9233 
-80.8643 -84.8726 81.7865 -80.3969 -83.927 81.5716 -81.1102 -86.0227 82.0799 
-81.1808 -87.5102 82.4473 -81.338 -89.0182 82.8825 -81.5788 -90.2838 83.341 
-81.8238 -91.4927 83.7572 -82.0905 -92.7091 84.1837 -82.3382 -93.7921 84.6442 
-80.1977 -85.7115 82.7775 -79.6906 -84.6883 82.4638 -80.6391 -86.8406 83.2832 
-80.7058 -88.2619 83.8164 -80.7649 -89.8084 84.1892 -81.1541 -91.081 84.5545 
-81.5861 -92.2253 85.0566 -81.8473 -93.5265 85.5658 -82.04 -94.7871 85.9904 
-82.215 -95.7748 86.3169 -79.7663 -86.2592 83.6606 -79.3288 -85.2074 83.2316 
-80.2975 -87.4645 84.3579 -80.3805 -88.8661 85.0924 -80.2506 -90.3393 85.4829 
-80.6037 -91.6158 85.658 -81.2683 -92.8101 86.0732 -81.6428 -94.2594 86.6796 
-81.7677 -95.8051 87.16 -81.9065 -97.0439 87.4655 -82.0655 -97.896 87.6537 
-82.5601 -83.2845 71.1901 -82.3168 -82.7304 72.1451 -82.222 -82.4887 70.5437 
-82.0257 -81.8051 71.7122 -81.9638 -81.4594 70.1835 -82.0707 -82.1699 73.3375 
-81.7164 -80.82 71.558 -81.6491 -80.3435 69.9218 -81.6875 -81.3077 73.1183 
-81.7149 -81.8544 74.6471 -81.3979 -79.769 71.4578 -81.3762 -79.276 69.8403 
-81.2794 -80.3883 73.1231 -81.123 -81.0737 74.5083 -81.1081 -81.8397 75.8399 
-81.2458 -78.6572 71.4778 -81.4297 -78.1912 70.1966 -81.0096 -79.2273 73.1217 
-80.5374 -80.0624 74.5546 -80.3329 -81.0428 75.711 -80.5526 -81.9359 77.1488 
-81.3681 -77.5525 71.7677 -81.8092 -77.0841 70.7143 -81.0083 -78.0413 73.1937 
-80.2912 -78.775 74.6776 -79.6256 -79.9732 75.841 -79.7714 -81.129 77.1132 
-80.4131 -82.0778 78.8053 -81.6651 -76.5911 72.1901 -82.2944 -76.2108 71.0989 
-81.2117 -77.1087 73.513 -80.5367 -77.7073 74.9437 -79.5852 -78.7968 76.175 
-79.241 -80.162 77.3156 -79.7762 -81.2786 78.8188 -80.3067 -82.4544 80.4046 
-82.086 -75.9376 72.7502 -82.8221 -75.7764 71.6055 -81.5124 -76.4141 74.0818 
-80.9921 -77.0217 75.4183 -80.2339 -77.9239 76.6027 -79.5844 -79.2175 77.6437 
-79.636 -80.4509 78.8917 -79.9473 -81.6384 80.3766 -79.8768 -83.1245 81.6036 
-82.6756 -75.6318 73.5778 -83.424 -75.6951 72.4519 -81.967 -75.9129 74.8665 
-81.4252 -76.4924 76.0672 -80.9374 -77.3251 77.0839 -80.4221 -78.4755 77.9861 
-80.1809 -79.7329 79.0058 -80.2 -80.9323 80.3 -79.9497 -82.3193 81.5694 
-79.4634 -83.8557 82.4915 -83.6616 -75.6209 74.2474 -82.8657 -75.5716 75.5313 
-83.9394 -75.619 76.1847 -83.1138 -75.672 77.3604 -84.1698 -75.8976 77.7714 
-82.0858 -75.9387 76.6987 -83.357 -76.2119 78.7078 -84.3503 -76.6693 78.9611 
-82.2723 -76.2645 78.2208 -81.512 -76.7251 77.6064 -83.5472 -77.2601 79.9022 
-84.4514 -77.7783 80.1639 -82.4986 -77.0817 79.5313 -81.6634 -77.3149 78.9816 
-81.1102 -77.8434 78.4131 -83.6442 -78.4796 81.3376 -84.4313 -78.9273 81.5566 
-82.7512 -78.2226 81.0617 -81.8568 -78.2485 80.5829 -81.2902 -78.6131 79.916 
-80.841 -79.1693 79.3398 -83.7738 -79.6615 82.8329 -84.4638 -80.0602 82.9456 
-83.0607 -79.4146 82.6616 -82.1595 -79.3397 82.3401 -81.4217 -79.5689 81.7401 
-81.1003 -80.0672 81.0091 -80.7394 -80.5319 80.5138 -84.0739 -80.8587 84.1487 
-84.68 -81.1833 84.205 -83.4578 -80.6812 83.9852 -82.5907 -80.5827 83.7328 
-81.6706 -80.6801 83.3493 -81.199 -81.1477 82.7429 -80.948 -81.669 82.1322 
-80.4409 -81.9972 81.7688 -84.3938 -82.0546 85.3058 -84.9251 -82.2691 85.3184 
-83.8119 -82.0007 85.1365 -82.9962 -81.9889 84.843 -82.0471 -81.9983 84.5397 
-81.4029 -82.3095 84.1457 -81.0521 -82.8584 83.6031 -80.5007 -83.2564 83.1082 
-79.7933 -83.5246 82.7641 -84.5762 -83.2392 86.312 -85.0659 -83.3775 86.247 
-84.0096 -83.2544 86.2263 -83.2612 -83.3457 85.9779 -82.4064 -83.3979 85.6955 
-81.7307 -83.5455 85.3995 -81.2902 -83.9064 84.9526 -80.7459 -84.2619 84.3913 
-79.9862 -84.5131 83.897 -79.4017 -84.8222 83.5242 -79.7144 -86.1498 84.3341 
-79.8972 -85.683 84.6754 -80.5735 -87.3657 85.8277 -80.4144 -85.3885 85.179 
-80.6821 -86.9501 86.2766 -81.0443 -89.4782 87.5489 -81.0501 -85.2579 85.8218 
-80.9148 -86.7584 86.8962 -81.0364 -89.2407 88.1369 -80.7213 -92.1423 89.1502 
-81.5989 -85.1069 86.4044 -81.3804 -86.762 87.4953 -81.2042 -89.0476 88.6394 
-81.018 -91.9746 89.7017 -80.5029 -94.2437 90.4112 -82.1355 -84.9316 86.7553 
-81.9976 -86.7328 87.8732 -81.7182 -88.9389 88.9096 -81.4825 -91.6372 89.9202 
-81.2535 -94.1659 90.7982 -80.9307 -95.9379 91.3885 -82.8286 -84.8001 86.9649 
-82.6466 -86.5851 88.0388 -82.4078 -88.8086 89.0662 -81.999 -91.3368 90.1099 
-81.7701 -93.8675 91.11 -81.5892 -96.0813 91.8359 -81.3418 -98.2086 92.2274 
-83.6147 -84.6725 87.1504 -83.3494 -86.4152 88.1184 -83.123 -88.6143 89.1311 
-82.5828 -91.1072 90.3201 -82.072 -93.5479 91.5737 -81.8848 -95.8628 92.4608 
-81.6768 -98.2484 92.8411 -81.3671 -100.904 92.8963 -84.3065 -84.5823 87.2344 
-84.0703 -86.301 88.1536 -83.861 -88.4266 89.0968 -83.3226 -90.8647 90.2459 
-82.5655 -93.2795 91.6326 -82.1609 -95.5241 92.7911 -81.9966 -97.8496 93.3491 
-81.6785 -100.498 93.4421 -81.2615 -103.315 93.3082 -84.8568 -84.608 87.1466 
-84.6853 -86.2569 88.0661 -84.5306 -88.2729 89.0038 -84.1033 -90.5612 90.021 
-83.3339 -92.9351 91.2157 -82.7275 -95.1966 92.401 -82.4771 -97.4158 93.2111 
-82.1867 -99.8695 93.5852 -81.6954 -102.607 93.6645 -81.1711 -105.28 93.5233 
-80.3046 -87.4905 85.1215 -80.8912 -89.301 86.8077 -80.5259 -89.1125 86.067 
-80.612 -91.7947 88.3064 -80.42 -91.2135 87.5373 -80.1579 -90.6965 86.6502 
-79.9279 -93.9718 89.5919 -79.8115 -93.3334 88.6002 -79.9514 -92.5812 87.7323 
-80.1717 -92.021 86.754 -80.1456 -95.6223 90.8161 -79.7747 -95.1702 89.8279 
-80.0622 -94.6675 88.8229 -80.5317 -94.0597 87.9453 -80.9107 -93.4182 87.016 
-80.9317 -98.0772 91.8026 -80.6348 -97.8039 91.1554 -80.6909 -97.6559 90.3009 
-80.9577 -97.298 89.474 -81.182 -96.4122 88.5995 -81.4073 -95.2844 87.6545 
-81.221 -101.45 92.4403 -81.1995 -101.628 91.9728 -81.1373 -101.631 91.4019 
-80.9608 -101.377 90.7909 -80.8601 -100.49 90.0844 -81.0404 -98.9852 89.1758 
-81.4243 -97.2993 88.1954 -81.035 -104.465 92.8477 -81.0059 -105.199 92.3541 
-80.9044 -105.334 91.8286 -80.5106 -104.899 91.2995 -80.1712 -104.009 90.8163 
-80.3409 -102.697 90.2044 -80.9179 -100.919 89.3892 -81.5084 -98.8893 88.4811 
-80.7858 -106.61 93.103 -80.5495 -107.608 92.6012 -80.3469 -107.931 92.0638 
-79.9777 -107.442 91.4665 -79.6433 -106.452 90.9621 -79.8219 -105.402 90.6205 
-80.5005 -104.126 90.1879 -81.2319 -102.218 89.5181 -81.7476 -99.9355 88.6632 
-80.7553 -107.932 93.3928 -80.2485 -109.132 92.8558 -80.2678 -110.436 92.9924 
-79.5605 -111.496 92.3524 -79.8647 -112.742 92.2666 -79.8319 -109.848 92.3243 
-79.0279 -114.101 91.5805 -79.7629 -114.892 91.4053 -79.0394 -112.206 91.8043 
-79.5019 -109.795 91.7309 -79.0067 -116.628 90.6537 -79.9942 -116.533 90.5946 
-78.5865 -115.129 90.8941 -78.8921 -112.163 91.1122 -79.3058 -108.948 91.0604 
-79.4249 -117.832 89.6508 -80.4035 -117.01 89.7874 -78.6456 -117.208 89.6628 
-78.6488 -114.8 90.0183 -79.1608 -111.201 90.4669 -79.5492 -107.867 90.6679 
-80.0012 -117.331 88.6482 -80.9362 -116.252 89.0269 -79.0664 -117.201 88.4689 
-78.6788 -115.717 88.7569 -79.1199 -113.141 89.5944 -79.8706 -109.913 90.3812 
-80.3086 -106.819 90.5444 -80.6939 -115.983 87.968 -81.6142 -114.849 88.5722 
-79.7332 -116.113 87.707 -79.1189 -115.055 87.9613 -79.2316 -113.372 88.815 
-79.9909 -111.192 89.9234 -80.783 -108.287 90.4784 -81.1398 -105.134 90.1999 
-81.5269 -114.322 87.8911 -82.3758 -113.195 88.514 -80.5961 -114.805 87.5963 
-79.9425 -114.237 87.8458 -79.8663 -112.863 88.5662 -80.3169 -111.136 89.4952 
-80.9892 -108.767 90.1439 -81.5025 -105.673 90.0795 -81.7011 -102.572 89.4525 
-82.4218 -112.256 88.2384 -83.1457 -111.27 88.6526 -81.5662 -112.902 87.9931 
-80.9019 -112.895 88.1537 -80.7653 -112.006 88.7002 -81.0555 -110.409 89.3308 
-81.43 -108.238 89.7198 -81.7359 -105.453 89.6531 -81.9398 -102.481 89.1498 
-82.0347 -99.9214 88.4321 -81.4496 -105.515 93.7888 -81.0445 -108.353 93.7218 
-81.8163 -105.645 93.9913 -81.4996 -108.474 93.9873 -82.3541 -105.37 94.1273 
-80.7632 -110.931 93.2562 -82.1945 -107.939 94.0198 -83.194 -104.536 94.0771 
-81.486 -110.814 93.4544 -80.701 -112.947 92.3871 -83.1674 -106.84 93.8431 
-84.1505 -103.406 93.7698 -82.3148 -109.898 93.4687 -81.5801 -112.285 92.5251 
-80.7597 -114.429 91.4312 -84.133 -105.472 93.6208 -84.8693 -102.1 93.2757 
-83.2595 -108.489 93.4779 -82.3422 -110.898 92.6877 -81.5229 -113.097 91.5249 
-80.8912 -115.323 90.5966 -84.7806 -103.73 93.1484 -85.4102 -100.455 92.5841 
-84.124 -106.763 93.3513 -83.2448 -109.165 92.8845 -82.2829 -111.302 91.7779 
-81.615 -113.452 90.7136 -81.2482 -115.273 89.9287 -85.3721 -101.568 92.3209 
-86.1187 -98.5825 91.733 -84.748 -104.608 92.7253 -84.1346 -107.156 92.6974 
-83.3474 -109.321 92.0196 -82.6016 -111.366 91.0628 -82.1439 -113.104 90.2917 
-81.8719 -114.297 89.5009 -86.2778 -99.3456 91.5086 -87.0246 -96.8078 90.9086 
-85.5126 -102.186 91.9458 -84.9134 -104.819 92.1331 -84.3774 -107.084 91.9176 
-83.789 -109.116 91.3562 -83.2506 -110.801 90.7533 -82.8587 -112.034 90.1085 
-82.5924 -112.857 89.282 -87.3095 -97.3829 90.8388 -87.858 -95.2822 90.1574 
-86.577 -99.8689 91.3601 -85.8809 -102.359 91.6452 -85.3319 -104.599 91.6423 
[...]
CELL_DATA 2000
SCALARS Distance double
LOOKUP_TABLE default
137.629 137.674 138.005 138.729 137.879 138.13 138.889 139.158 139.928 
138.196 138.428 139.242 139.452 140.295 140.503 141.416 138.519 138.755 
139.609 139.864 140.77 140.991 141.958 142.175 143.197 139.089 139.169 
140.056 140.261 141.239 141.493 142.51 142.754 143.775 144 144.982 
140.051 139.967 140.889 140.899 141.946 142.082 143.197 143.37 144.447 
144.608 145.627 145.776 146.754 141.023 141.005 141.933 141.902 142.947 
142.982 144.14 144.219 145.37 145.424 146.52 146.563 147.647 147.69 
148.753 141.726 141.852 142.804 142.903 143.937 144.013 145.112 145.205 
146.324 146.41 147.522 147.578 148.713 148.74 149.88 149.851 150.911 
142.299 142.473 143.503 143.708 144.819 144.95 146.006 146.094 147.11 
147.248 148.313 148.501 149.647 149.803 150.975 151.025 152.128 152.042 
153.011 136.906 135.852 136.553 136.944 134.87 135.538 135.934 136.639 
137.117 133.93 134.611 135.041 135.696 136.166 136.882 137.413 133.025 
133.702 134.201 134.86 135.32 135.971 136.455 137.18 137.728 132.356 
132.883 133.382 134.024 134.467 135.105 135.518 136.216 136.76 137.546 
138.257 132.031 132.358 132.779 133.277 133.688 134.237 134.608 135.252 
135.786 136.595 137.392 138.268 139.183 131.936 132.124 132.511 132.839 
133.281 133.632 134.047 134.474 135.032 135.7 136.544 137.426 138.411 
139.292 140.178 132.117 132.139 132.558 132.743 133.282 133.492 134.027 
134.23 134.841 135.215 136.06 136.721 137.727 138.535 139.448 140.21 
140.929 132.71 132.533 132.978 132.981 133.565 133.681 134.299 134.435 
135.083 135.285 136.079 136.48 137.437 138.024 138.961 139.577 140.327 
140.917 141.541 133.334 134.498 133.76 133.581 135.722 134.975 134.754 
134.099 134.08 136.927 136.189 135.958 135.269 135.19 134.655 134.759 
138.245 137.458 137.271 136.509 136.428 135.797 135.899 135.396 135.584 
139.697 138.893 138.81 137.974 137.955 137.169 137.292 136.653 136.911 
136.345 136.638 141.193 140.426 140.46 139.647 139.711 138.853 138.978 
138.202 138.481 137.829 138.204 137.577 137.976 142.715 141.986 142.108 
141.35 141.468 140.642 140.745 139.939 140.175 139.493 139.879 139.241 
139.633 138.994 139.393 144.193 143.534 143.701 143.004 143.144 142.366 
142.452 141.657 141.839 141.163 141.511 140.909 141.254 140.616 140.88 
140.296 140.615 145.534 144.971 145.158 144.547 144.705 144 144.107 
143.336 143.502 142.8 143.104 142.492 142.793 142.159 142.339 141.699 
141.882 141.383 141.719 142.577 142.699 143.057 144.226 143.144 143.321 
144.395 144.941 146.466 143.693 143.864 144.875 145.229 146.685 147.376 
148.984 144.124 144.412 145.485 145.778 147.106 147.66 149.269 149.904 
151.268 144.518 144.835 145.99 146.352 147.619 148.08 149.544 150.18 
151.645 152.097 153.222 145.029 145.274 146.395 146.794 148.056 148.519 
149.869 150.433 151.864 152.438 153.737 154.069 155.196 145.571 145.787 
146.815 147.177 148.399 148.879 150.207 150.735 152.114 152.68 154.039 
154.522 155.744 156.088 157.259 145.998 146.252 147.225 147.571 148.725 
149.191 150.476 151.012 152.331 152.906 154.208 154.776 155.99 156.476 
157.592 158.032 159.118 146.321 146.598 147.538 147.911 149.011 149.48 
150.684 151.214 152.427 153.008 154.195 154.821 155.958 156.56 157.615 
158.162 159.167 159.684 160.632 142.956 144.747 143.957 144.331 147.077 
146.072 146.459 145.507 145.791 149.455 148.455 148.691 147.698 147.817 
146.861 146.946 151.461 150.568 150.543 149.666 149.597 148.742 148.71 
147.871 147.947 153.332 152.4 152.35 151.387 151.404 150.493 150.642 
149.716 149.921 148.991 149.219 155.489 154.47 154.761 153.571 153.988 
152.783 153.363 152.132 152.648 151.362 151.715 150.501 150.741 157.774 
156.893 157.539 156.422 157.128 155.881 156.621 155.304 155.89 154.461 
154.773 153.311 153.462 152.105 152.183 159.737 159.166 159.919 159.171 
159.834 158.907 159.367 158.326 158.564 157.443 157.51 156.268 156.238 
154.894 154.823 153.47 153.363 161.232 160.904 161.581 161.168 161.662 
161.077 161.23 160.448 160.321 159.478 159.346 158.499 158.461 157.442 
157.36 156.087 155.883 154.514 154.246 162.165 163.467 162.729 162.474 
164.506 163.869 163.542 162.885 162.486 165.501 164.872 164.533 163.84 
163.332 162.637 161.966 166.494 165.96 165.736 164.936 164.386 163.477 
162.648 161.834 160.97 166.961 166.806 166.584 166.046 165.452 164.59 
163.705 162.675 161.733 160.845 160.062 166.563 166.801 166.4 166.337 
165.566 165.218 164.338 163.687 162.837 161.915 161.138 160.175 159.42 
165.721 166.049 165.591 165.703 164.91 164.836 164.034 163.885 163.268 
162.87 162.209 161.399 160.518 159.503 158.463 164.901 165.17 164.821 
164.913 164.365 164.25 163.671 163.531 163.101 162.986 162.474 162.092 
161.144 160.378 159.092 158.191 156.887 164.092 164.381 164.088 164.258 
163.874 163.89 163.471 163.369 162.944 162.817 162.241 162.011 161.012 
160.525 159.125 158.456 156.999 156.33 155.059 162.168 162.646 162.854 
163.588 162.982 163.336 164.182 164.227 164.741 162.996 163.548 164.466 
164.747 165.313 165.262 165.654 162.705 163.395 164.297 164.816 165.397 
165.613 165.935 166.028 166.408 162.152 162.978 163.864 164.492 165.028 
165.413 165.638 165.944 166.17 166.541 166.782 161.177 162.211 163.09 
163.916 164.429 164.912 165.054 165.395 165.487 165.955 166.118 166.573 
166.514 159.863 160.971 161.757 162.841 163.38 164.14 164.318 164.748 
164.793 165.19 165.302 165.761 165.777 166.075 165.795 158.627 159.582 
160.264 161.331 161.903 162.868 163.186 163.874 163.995 164.481 164.561 
164.983 165.002 165.337 165.173 165.333 164.989 157.63 158.427 159.06 
159.942 160.526 161.421 161.844 162.644 162.878 163.54 163.632 164.166 
164.132 164.546 164.372 164.665 164.371 164.535 164.156 146.766 147.892 
147.535 148.031 149.174 148.777 149.367 148.978 149.586 150.557 150.143 
150.777 150.398 151.081 150.658 151.288 151.942 151.559 152.177 151.808 
152.499 152.15 152.824 152.384 152.993 153.218 152.932 153.571 153.199 
153.896 153.565 154.317 153.925 154.603 154.11 154.731 154.317 154.17 
154.909 154.595 155.353 155.025 155.907 155.531 156.346 155.81 156.476 
155.889 156.491 155.26 155.228 156.084 155.912 156.761 156.516 157.482 
157.2 158.143 157.664 158.378 157.725 158.294 157.645 158.168 156.111 
156.137 157.057 157.037 157.994 157.891 158.899 158.734 159.714 159.403 
160.177 159.629 160.193 159.51 160.002 159.307 159.76 156.911 156.953 
157.871 157.951 158.986 159.05 160.132 160.083 161.069 160.864 161.673 
161.296 161.929 161.372 161.875 161.186 161.605 160.872 161.227 146.276 
145.955 146.508 147.354 145.63 146.205 147.045 147.64 148.575 145.175 
145.818 146.654 147.306 148.23 148.904 149.916 144.697 145.317 146.129 
146.823 147.723 148.478 149.472 150.236 151.26 144.346 144.897 145.682 
146.295 147.152 147.887 148.829 149.659 150.649 151.486 152.454 143.998 
144.572 145.353 145.911 146.736 147.364 148.267 148.997 149.93 150.752 
151.694 152.56 153.471 143.604 144.192 144.979 145.565 146.372 146.984 
147.875 148.529 149.451 150.123 151.026 151.776 152.691 153.521 154.399 
143.3 143.819 144.591 145.163 145.946 146.569 147.424 148.118 149.044 
149.723 150.613 151.244 152.106 152.803 153.689 154.455 155.291 143.106 
143.554 144.28 144.799 145.549 146.124 146.919 147.596 148.481 149.235 
150.129 150.828 151.638 152.285 153.084 153.79 154.618 155.353 156.131 
143.238 143.821 143.804 144.399 144.521 144.448 145.065 145.033 145.664 
145.308 145.199 145.806 145.745 146.402 146.353 147.032 146.143 145.996 
146.577 146.496 147.171 147.138 147.879 147.822 148.593 147.138 146.885 
147.43 147.269 147.965 147.948 148.788 148.752 149.592 149.49 150.271 
148.163 147.922 148.407 148.168 148.863 148.82 149.777 149.761 150.676 
150.541 151.312 151.143 151.811 148.788 148.781 149.255 149.122 149.827 
149.806 150.849 150.862 151.848 151.677 152.407 152.176 152.826 152.63 
153.255 149.053 149.216 149.83 149.877 150.694 150.777 151.888 151.98 
153.022 152.877 153.585 153.285 153.904 153.675 154.366 154.142 154.8 
149.465 149.579 150.418 150.507 151.491 151.632 152.791 152.964 154.03 
153.996 154.719 154.453 155.056 154.805 155.531 155.32 156.05 155.752 
156.349 150.175 151.93 151.084 151.214 153.677 152.928 153.087 152.219 
152.408 155.088 154.561 154.851 154.127 154.364 153.513 153.757 156.504 
155.993 156.435 155.82 156.134 155.401 155.597 154.803 154.904 158.105 
157.58 158.138 157.503 157.885 157.129 157.291 156.491 156.482 155.689 
155.539 159.632 159.195 159.783 159.25 159.67 158.939 159.106 158.214 
158.203 157.272 157.152 156.213 155.995 161.082 160.658 161.208 160.77 
161.2 160.632 160.84 160.045 160.066 159.118 159.061 158.028 157.89 
156.798 156.583 162.471 162.07 162.563 162.126 162.534 162.047 162.3 
161.661 161.713 160.913 160.837 159.934 159.765 158.755 158.477 157.399 
157.074 163.567 163.313 163.738 163.39 163.731 163.312 163.54 163.015 
163.073 162.409 162.306 161.534 161.305 160.44 160.083 159.131 158.69 
157.713 157.284 149.863 150.006 150.482 151.639 150.128 150.654 151.792 
152.302 153.34 149.984 150.63 151.667 152.303 153.267 153.794 154.658 
149.532 150.276 151.244 151.99 152.944 153.585 154.477 155.022 155.964 
148.97 149.723 150.709 151.486 152.506 153.219 154.21 154.826 155.831 
156.423 157.488 148.477 149.187 150.203 150.971 152.038 152.796 153.846 
154.547 155.583 156.25 157.319 157.965 159.019 148.106 148.755 149.743 
150.482 151.523 152.311 153.358 154.134 155.17 155.917 156.992 157.728 
158.843 159.49 160.527 147.821 148.412 149.329 150.011 150.981 151.754 
152.787 153.603 154.663 155.454 156.54 157.332 158.489 159.266 160.404 
161.019 161.976 147.551 148.107 148.941 149.571 150.463 151.191 152.196 
153.02 154.11 154.937 156.027 156.839 157.962 158.822 159.977 160.783 
161.797 162.376 163.126 148.892 147.589 148.402 148.896 146.439 147.116 
147.477 148.444 149.028 145.305 145.96 146.23 147.07 147.558 148.548 
149.002 144.037 144.758 144.986 145.802 146.19 147.106 147.493 148.399 
148.637 142.628 143.415 143.629 144.478 144.808 145.704 146.02 146.893 
147.087 147.925 148.067 141.183 141.974 142.174 143.043 143.314 144.23 
144.486 145.38 145.546 146.379 146.498 147.346 147.54 139.862 140.57 
140.727 141.54 141.711 142.617 142.784 143.738 143.895 144.809 144.947 
145.802 145.99 146.878 147.168 138.747 139.341 139.455 140.133 140.229 
140.994 141.083 141.968 142.124 143.097 143.313 144.249 144.483 145.37 
145.667 146.576 146.924 137.742 138.277 138.36 138.944 139.026 139.633 
139.702 140.387 140.531 141.382 141.659 142.616 142.949 143.88 144.221 
145.121 145.486 146.379 146.721 137.169 136.386 137.127 137.783 135.519 
136.315 137.067 137.795 138.454 134.865 135.505 136.304 137.071 137.832 
138.487 139.128 134.76 135.085 135.842 136.421 137.256 137.901 138.647 
139.219 139.936 135.059 135.221 135.93 136.226 137.033 137.484 138.31 
138.828 139.647 140.184 141.056 135.368 135.551 136.259 136.476 137.229 
137.489 138.289 138.658 139.544 140.016 140.966 141.469 142.405 135.765 
135.872 136.589 136.793 137.548 137.766 138.543 138.806 139.699 140.07 
141.076 141.502 142.491 142.892 143.776 136.452 136.42 137.146 137.209 
137.982 138.118 138.923 139.129 140.039 140.347 141.37 141.73 142.739 
143.075 143.979 144.279 145.089 137.239 137.198 137.917 137.898 138.652 
138.674 139.471 139.584 140.486 140.734 141.735 142.064 143.039 143.355 
144.22 144.509 145.295 145.575 146.313 137.855 138.978 138.48 138.584 
140.151 139.63 139.803 139.256 139.343 141.607 140.917 141.12 140.528 
140.708 140.071 140.177 143.392 142.562 142.751 141.999 142.235 141.536 
141.74 141.018 141.214 145.19 144.404 144.594 143.77 143.982 143.198 
143.439 142.68 142.923 142.179 142.452 146.945 146.175 146.413 145.617 
145.829 145.016 145.225 144.431 144.638 143.887 144.112 143.421 143.68 
148.893 148.02 148.3 147.463 147.733 146.894 147.126 146.27 146.436 
145.599 145.741 145.005 145.196 144.562 144.787 150.979 150.059 150.314 
149.427 149.704 148.848 149.116 148.233 148.419 147.479 147.573 146.674 
146.792 146.05 146.252 145.623 145.841 153.021 152.12 152.311 151.425 
151.633 150.798 151.034 150.208 150.405 149.499 149.59 148.605 148.65 
147.737 147.863 147.119 147.322 146.673 146.865 147.632 148.146 148.264 
149.016 148.771 148.85 149.697 149.745 150.562 149.644 149.639 150.591 
150.569 151.507 151.451 152.359 150.621 150.629 151.636 151.602 152.617 
152.543 153.541 153.412 154.34 151.445 151.57 152.604 152.661 153.706 
153.696 154.728 154.647 155.619 155.439 156.3 152.104 152.319 153.446 
153.606 154.794 154.837 156.004 155.905 156.981 156.774 157.736 157.439 
158.291 152.757 152.994 154.267 154.504 155.948 156.079 157.541 157.424 
158.714 158.368 159.455 159.026 159.975 159.533 160.361 153.503 153.742 
155.143 155.433 157.05 157.33 158.977 159.058 160.456 160.229 161.293 
160.862 161.714 161.252 162 161.549 162.178 154.26 154.552 156.02 
156.373 158.019 158.408 159.998 160.289 161.53 161.618 162.455 162.358 
162.949 162.736 163.242 162.968 163.429 163.091 163.458 132.546 131.961 
132.213 132.358 131.773 131.82 131.94 132.225 132.545 131.794 131.724 
131.77 131.939 132.199 132.519 132.867 131.988 131.752 131.673 131.76 
131.923 132.193 132.455 132.809 133.121 132.594 132.084 131.896 131.72 
131.808 131.924 132.135 132.397 132.669 133.04 133.404 133.559 132.9 
132.692 132.198 132.237 132.023 132.22 132.216 132.47 132.661 133.034 
133.406 133.903 134.575 133.945 133.761 133.168 133.158 132.722 132.871 
132.583 132.783 132.674 132.994 133.162 133.68 134.049 134.67 135.582 
134.973 134.803 134.221 134.17 133.7 133.791 133.398 133.522 133.195 
133.405 133.313 133.774 133.972 134.632 134.961 135.637 136.653 136.029 
135.87 135.253 135.18 134.678 134.759 134.341 134.458 134.033 134.173 
133.873 134.24 134.233 134.872 135.072 135.79 136.027 136.663 133.052 
132.842 133.204 133.857 132.986 133.151 133.751 134.095 134.739 133.283 
133.377 133.919 134.129 134.76 135.026 135.637 133.542 133.647 134.147 
134.326 134.928 135.152 135.777 135.996 136.633 133.847 133.905 134.384 
134.523 135.091 135.317 135.947 136.183 136.821 137.052 137.711 134.374 
134.32 134.822 134.829 135.389 135.513 136.156 136.364 137.032 137.254 
137.917 138.143 138.801 135.139 134.988 135.524 135.412 135.977 135.947 
136.577 136.662 137.338 137.5 138.187 138.383 139.068 139.26 139.924 
136.04 135.832 136.344 136.187 136.711 136.613 137.169 137.163 137.766 
137.856 138.503 138.672 139.357 139.557 140.24 140.415 141.061 136.962 
136.727 137.159 136.984 137.425 137.309 137.774 137.731 138.25 138.291 
138.881 139.003 139.658 139.843 140.52 140.716 141.358 141.528 142.123 
133.54 134.326 134.161 134.693 135.111 134.937 135.427 135.348 135.9 
135.908 135.67 136.09 136.022 136.585 136.541 137.101 136.893 136.527 
136.908 136.71 137.29 137.233 137.894 137.806 138.419 138.009 137.61 
138.015 137.679 138.254 138.063 138.792 138.68 139.39 139.218 139.848 
139.095 138.735 139.173 138.852 139.411 139.15 139.841 139.673 140.42 
140.25 140.909 140.679 141.295 140.19 139.819 140.261 139.974 140.545 
140.304 140.948 140.746 141.446 141.288 141.975 141.766 142.377 142.136 
142.763 141.327 140.945 141.386 141.072 141.657 141.417 142.066 141.837 
142.485 142.295 142.965 142.803 143.446 143.228 143.819 143.595 144.205 
142.406 142.077 142.523 142.213 142.775 142.533 143.168 142.94 143.544 
143.316 143.918 143.757 144.394 144.245 144.838 144.63 145.172 144.971 
145.522 148.718 148.426 148.204 147.565 148.238 148.039 147.354 147.102 
146.45 147.577 147.646 146.884 146.793 146.019 145.928 145.263 146.495 
146.693 145.88 146.003 145.2 145.308 144.6 144.646 143.966 145.512 
145.61 144.84 144.911 144.166 144.331 143.7 143.861 143.182 143.242 
142.525 144.693 144.751 144.05 144.041 143.319 143.372 142.731 142.893 
142.225 142.353 141.591 141.704 141.015 143.888 143.952 143.259 143.3 
142.549 142.577 141.809 141.91 141.154 141.306 140.541 140.697 140.003 
140.208 139.669 143.187 143.181 142.481 142.495 141.739 141.752 140.944 
140.974 140.179 140.259 139.541 139.67 139.059 139.236 138.747 138.974 
138.574 142.633 142.564 141.885 141.807 141.085 141.002 140.253 140.183 
139.465 139.433 138.808 138.836 138.32 138.415 137.985 138.14 137.756 
137.963 137.601 
POINT_DATA 1002
SCALARS Distance double
LOOKUP_TABLE default
138.354 137.265 137.269 138.394 137.361 139.443 138.638 137.64 139.64 
140.706 139.009 137.944 140.082 141.166 142.38 139.317 138.301 140.505 
141.728 142.984 144.229 139.893 139.076 140.964 142.252 143.554 144.791 
145.929 140.934 140.144 141.845 143.035 144.309 145.483 146.613 147.726 
141.939 140.991 142.93 144.072 145.32 146.486 147.598 148.736 149.802 
142.632 141.559 143.845 145.044 146.229 147.429 148.655 149.89 151.019 
151.915 143.23 142.111 144.65 145.966 147.016 148.09 149.423 150.868 
152.172 153.197 153.925 136.188 136.206 135.167 135.246 134.202 136.353 
134.389 133.204 135.492 136.658 133.518 132.359 134.704 135.768 136.942 
132.78 131.937 133.857 134.848 135.943 137.399 132.363 131.798 133.202 
134.015 134.97 136.448 138.332 132.217 131.799 132.96 133.689 134.445 
135.685 137.502 139.402 132.407 132.15 133.058 133.833 134.564 135.52 
136.979 138.703 140.241 133.05 132.936 133.486 134.157 134.912 135.777 
136.943 138.392 139.791 140.954 134.021 134.214 135.266 135.451 136.454 
134.601 136.665 137.665 135.761 135.213 138.046 139.028 137.105 136.422 
136.067 139.61 140.456 138.777 137.986 137.473 137.196 141.216 141.912 
140.559 139.801 139.151 138.824 138.595 142.832 143.403 142.277 141.57 
140.868 140.509 140.309 139.998 144.37 144.808 143.903 143.253 142.536 
142.115 141.914 141.545 141.103 145.737 146.06 145.37 144.847 144.223 
143.751 143.449 143.02 142.454 142.093 143.528 143.551 145.599 143.959 
145.675 148.129 144.614 146.055 148.328 150.506 145.176 146.668 148.601 
150.887 152.417 145.582 147.216 148.977 151.061 152.993 154.261 146.019 
147.588 149.369 151.27 153.268 154.956 156.377 146.5 147.928 149.686 
151.572 153.508 155.345 156.935 158.474 146.891 148.288 149.964 151.786 
153.644 155.478 157.152 158.696 160.195 147.168 148.558 150.193 151.9 
153.602 155.347 157.053 158.646 160.169 161.54 145.113 147.505 146.76 
149.74 148.834 147.861 151.466 150.43 149.534 148.739 153.32 152.266 
151.517 150.879 150.147 155.834 155.131 154.57 154.006 153.065 151.937 
158.481 158.313 157.954 157.351 156.327 154.942 153.518 160.556 160.735 
160.472 159.69 158.665 157.55 156.235 154.73 161.973 162.226 162.035 
161.192 160.088 159.291 158.551 157.306 155.624 162.991 163.231 164.187 
164.198 165.14 163.206 165.287 166.085 164.123 162.677 166.518 166.888 
165.41 163.639 161.638 167.018 166.982 166.219 164.735 162.757 160.815 
166.408 166.305 165.776 164.706 163.585 162.184 160.425 165.439 165.422 
164.928 164.029 163.375 162.855 161.599 159.539 164.654 164.631 164.376 
163.796 163.197 162.742 161.836 160.009 157.738 163.867 163.784 163.751 
163.504 163.123 162.525 161.469 159.745 157.632 155.634 161.984 163.598 
162.368 164.053 162.539 164.907 164.065 162.4 165.293 165.749 163.737 
161.994 165.102 165.806 166.26 163.218 161.258 164.651 165.342 165.775 
166.483 162.17 160.115 163.893 164.754 165.078 165.618 166.261 160.641 
158.844 162.472 163.784 164.425 164.885 165.412 165.665 159.273 157.775 
160.891 162.358 163.424 164.145 164.662 164.943 164.921 158.242 156.88 
159.674 161.024 162.159 163.06 163.702 164.042 164.141 164.06 147.071 
148.37 148.238 149.727 149.562 150.01 151.147 150.966 151.462 151.776 
152.568 152.297 152.823 153.219 153.484 153.938 153.426 154.213 154.66 
155.08 155.251 155.154 154.378 155.643 156.21 156.858 157.105 157.078 
156.161 155.249 156.947 157.703 158.54 159.037 158.999 158.813 157.008 
156.086 158.013 159.034 159.97 160.642 160.862 160.73 160.474 145.701 
146.756 145.411 146.452 145.03 147.931 145.975 144.523 147.539 149.224 
145.457 144.116 146.96 148.675 150.52 145.122 143.802 146.471 148.029 
149.786 151.645 144.796 143.4 146.145 147.596 149.18 150.83 152.614 
144.385 143.031 145.759 147.216 148.816 150.363 151.89 153.577 144.044 
142.827 145.348 146.735 148.326 149.996 151.486 152.949 154.545 143.793 
142.701 145.007 146.294 147.732 149.388 151.007 152.428 153.881 155.434 