# vtk DataFile Version 4.0
vtk output
ASCII
DATASET POLYDATA
POINTS 1002 float
-85.1359 -83.2858 67.3779 -84.9581 -82.8021 65.998 -84.6025 -82.529 66.7898 
-84.7665 -83.1284 68.2702 -84.1577 -82.3676 67.5866 -85.3118 -83.8624 68.9903 
-84.3455 -82.9864 69.1399 -83.657 -82.2736 68.4178 -84.9381 -83.8016 69.9557 
-85.4098 -84.7566 70.6669 -83.9682 -82.8491 70.2261 -83.2422 -82.2276 69.6272 
-84.5488 -83.7148 70.9537 -84.9776 -84.8447 71.6246 -85.2731 -86.0549 72.2142 
-83.6691 -82.9238 71.6773 -82.9274 -82.2662 71.0963 -84.1973 -83.8398 72.2361 
-84.4862 -85.0807 72.7038 -84.6856 -86.3998 73.1582 -84.8329 -87.6021 73.7255 
-83.2323 -83.2908 72.8915 -82.5481 -82.4402 72.2557 -83.7543 -84.3608 73.4963 
-83.9899 -85.6786 73.994 -84.1358 -86.9873 74.42 -84.256 -88.1833 74.9158 
-84.4391 -89.2316 75.5204 -82.6206 -83.8088 73.7211 -82.1266 -82.8341 73.2585 
-83.0923 -84.9611 74.2929 -83.3921 -86.3647 75.0389 -83.667 -87.6886 75.8411 
-83.9223 -88.867 76.5154 -84.0837 -89.9998 77.0328 -84.3231 -90.9466 77.4554 
-82.1911 -84.4154 74.8628 -81.8597 -83.4139 74.5355 -82.5703 -85.4412 75.2649 
-82.8313 -86.8285 75.962 -83.1013 -88.3083 76.9653 -83.5076 -89.5692 77.9483 
-83.8158 -90.7909 78.6022 -83.9899 -91.9132 78.9483 -84.2151 -92.7413 79.1684 
-82.0752 -85.0584 76.2954 -81.7854 -83.9894 75.864 -82.4351 -85.9764 76.7624 
-82.6353 -87.2772 77.3542 -82.6531 -88.9875 78.1057 -82.8309 -90.4775 78.9311 
-83.2129 -91.681 79.6637 -83.5177 -92.8482 80.1764 -83.7499 -93.823 80.5024 
-84.0055 -94.5238 80.7344 -82.0489 -85.6566 77.4806 -81.797 -84.4699 76.9478 
-82.3696 -86.6368 78.1236 -82.5754 -87.8986 78.8357 -82.4779 -89.7488 79.48 
-82.3231 -91.5364 79.9853 -82.5079 -92.7451 80.4864 -82.9032 -93.7583 81.0574 
-83.2432 -94.7892 81.5876 -83.5494 -95.6376 81.9874 -83.8463 -96.2739 82.247 
-84.6152 -81.979 65.2639 -84.1941 -81.6442 66.0875 -84.3382 -80.9672 64.6925 
-83.8243 -80.5994 65.55 -84.0878 -79.9752 64.2605 -83.646 -81.4892 66.8859 
-83.4085 -79.5775 65.0373 -83.7061 -78.9887 63.8107 -83.1944 -80.4346 66.3452 
-83.0619 -81.4933 67.788 -82.8651 -78.4664 64.4461 -83.2968 -77.7237 63.3794 
-82.7883 -79.2792 65.8329 -82.6926 -80.4416 67.3793 -82.621 -81.5281 69.1179 
-82.5611 -77.1226 64.2112 -83.2926 -76.4184 63.3741 -82.4398 -77.9535 65.5197 
-82.5662 -79.113 67.1883 -82.3513 -80.4481 68.8215 -82.2956 -81.4812 70.5558 
-82.8985 -76.0318 64.7708 -83.7715 -75.6473 64.0419 -82.4416 -76.6244 65.8743 
-82.4808 -77.646 67.4178 -82.2996 -79.0348 68.8531 -81.9833 -80.3187 70.1867 
-81.9965 -81.4834 71.7455 -83.6084 -75.4781 65.7905 -84.3816 -75.1891 65.0913 
-82.9112 -75.7695 66.741 -82.4927 -76.3883 68.0449 -82.1484 -77.5673 69.258 
-81.8272 -78.9284 70.2116 -81.7446 -80.2336 71.4496 -81.7856 -81.7577 73.0298 
-84.2532 -74.9566 66.7384 -84.9011 -74.5064 66.0872 -83.5521 -75.3171 67.578 
-82.7873 -75.6334 68.6792 -82.0836 -76.374 69.7849 -81.7229 -77.5973 70.6252 
-81.7201 -78.9315 71.5674 -81.7307 -80.4344 72.9533 -81.6833 -82.2381 74.4911 
-84.7291 -74.2472 67.4901 -85.3017 -73.7461 66.8553 -84.1213 -74.8498 68.2839 
-83.3134 -75.2444 69.2532 -82.3888 -75.6854 70.2941 -81.8581 -76.5973 71.2114 
-81.872 -77.8645 72.0844 -81.8987 -79.2535 73.1943 -81.7188 -80.8843 74.5171 
-81.6442 -82.7336 75.8049 -85.2561 -73.5651 67.9257 -84.7266 -74.2155 68.7972 
-85.2016 -74.056 69.2891 -84.689 -74.6647 70.504 -85.2052 -74.9132 71.0685 
-84.0533 -74.8894 69.8223 -84.6209 -75.2791 72.518 -85.2914 -75.4565 73.1044 
-83.9125 -75.275 71.7348 -83.094 -75.38 70.8932 -84.6178 -75.7911 74.4247 
-85.3992 -75.8798 74.9262 -83.8166 -75.8885 73.7181 -83.0117 -75.9398 72.8127 
-82.3112 -76.0681 71.9225 -84.7617 -76.7046 75.828 -85.4492 -77.0918 76.0489 
-83.9338 -76.709 75.3281 -83.1247 -76.849 74.6455 -82.5638 -76.9518 73.826 
-82.1745 -77.2326 72.9146 -84.9231 -78.374 76.8034 -85.4717 -78.9525 76.7782 
-84.2285 -78.0473 76.5389 -83.3778 -78.0408 76.0974 -82.7322 -78.1767 75.608 
-82.415 -78.3355 74.886 -82.1606 -78.6406 73.9673 -84.9769 -80.1105 77.8864 
-85.5639 -80.499 77.8433 -84.4046 -79.775 77.7213 -83.6898 -79.6253 77.3698 
-82.8784 -79.6699 77.0832 -82.2935 -79.7538 76.6936 -82.0058 -79.8317 75.9416 
-81.8371 -80.165 75.1048 -85.0231 -81.4071 79.2132 -85.7266 -81.5674 79.2074 
-84.4033 -81.3301 79.0517 -83.8694 -81.3448 78.6994 -83.1994 -81.3936 78.4242 
-82.4138 -81.3914 78.2411 -81.8548 -81.3138 77.7522 -81.6428 -81.4059 76.9472 
-81.6134 -81.9332 76.2427 -85.1488 -82.6146 80.389 -85.8704 -82.6595 80.3582 
-84.4479 -82.7079 80.2772 -83.932 -82.9177 79.9907 -83.4587 -83.0895 79.7107 
-82.7904 -83.0989 79.5881 -82.1064 -82.9747 79.3662 -81.7376 -82.9265 78.7507 
-81.6647 -83.2236 77.9437 -81.708 -83.8438 77.3226 -81.9041 -85.8527 78.2854 
-81.8083 -85.4488 78.8629 -81.7795 -87.6143 79.927 -81.7846 -85.0191 79.7105 
-81.715 -87.5194 80.8485 -81.5714 -89.8023 82.0547 -81.8945 -84.7968 80.4706 
-81.7313 -87.2739 81.7545 -81.6695 -89.8872 83.1528 -81.7794 -92.1726 84.3738 
-82.3334 -84.8063 80.8146 -81.8833 -87.0093 82.2002 -81.787 -89.6535 83.7591 
-82.0232 -92.1739 85.2058 -82.081 -94.6128 86.194 -83.0298 -84.8768 80.8942 
-82.4111 -86.878 82.3215 -82.0467 -89.2577 83.9263 -82.1936 -91.7889 85.4701 
-82.2258 -94.4116 86.6472 -81.7976 -97.2329 87.4402 -83.6287 -84.8106 81.0014 
-83.1742 -86.8683 82.3557 -82.6781 -88.9782 84.0459 -82.5436 -91.2421 85.667 
-82.4758 -93.8544 86.8517 -82.0197 -96.8826 87.7423 -81.4583 -99.7697 88.5876 
-84.1353 -84.5599 81.1643 -83.8387 -86.7765 82.2738 -83.4501 -88.8578 83.9074 
-83.1691 -90.7993 85.7458 -82.9973 -93.1634 87.0789 -82.5938 -96.223 87.826 
-82.0354 -99.3752 88.581 -81.6023 -101.791 89.4277 -84.7847 -84.2877 81.266 
-84.452 -86.5033 82.1485 -84.1082 -88.6785 83.466 -83.8235 -90.5149 85.2871 
-83.6491 -92.575 86.9687 -83.3211 -95.4362 87.8348 -82.7673 -98.69 88.2264 
-82.2355 -101.433 88.8293 -81.8016 -103.324 89.4664 -85.5276 -84.1328 81.253 
-85.1336 -86.1584 82.064 -84.718 -88.3028 83.0978 -84.3724 -90.1966 84.5838 
-84.2108 -92.1472 86.3398 -84.0067 -94.7313 87.6289 -83.4648 -97.8432 88.0244 
-82.7678 -100.754 88.142 -82.2061 -102.989 88.5411 -81.7869 -104.674 88.9313 
-82.0681 -87.1329 78.9563 -81.7508 -89.1337 80.7036 -82.2388 -88.4443 79.805 
-81.5777 -91.6071 82.9077 -81.8043 -90.9049 81.6434 -82.2563 -90.3122 80.6754 
-81.8507 -94.3284 85.1485 -81.7053 -93.6651 83.7901 -81.862 -93.022 82.5778 
-82.0884 -92.4106 81.3062 -81.7806 -97.3077 86.7806 -81.8202 -96.7056 85.7397 
-81.9048 -95.6803 84.6253 -82.0194 -94.7553 83.2999 -82.1389 -93.8517 81.734 
-81.2689 -100.172 88.1136 -81.4732 -99.9674 87.1368 -81.8691 -98.9089 86.1943 
-82.2436 -97.3776 85.2621 -82.4248 -96.0025 83.8315 -82.5361 -94.8501 82.2271 
-81.1448 -102.267 89.375 -81.0836 -102.462 88.4311 -81.4283 -102.148 87.2118 
-81.9567 -100.992 86.3798 -82.4725 -99.1871 85.5415 -82.7593 -97.4052 84.2197 
-82.9253 -95.9766 82.7822 -81.323 -103.764 89.8446 -81.0257 -104.002 89.2981 
-81.0971 -104.172 88.0394 -81.3643 -104.019 86.8934 -81.7764 -102.926 86.1678 
-82.3672 -100.917 85.4363 -82.8774 -98.7843 84.4176 -83.2208 -97.0402 83.2233 
-81.3846 -105.265 89.3485 -81.0143 -105.602 89.1255 -80.9702 -105.771 88.2543 
-81.1376 -105.856 87.2206 -81.2342 -105.499 86.382 -81.5494 -104.148 85.736 
-82.2866 -101.971 85.1645 -83.0412 -99.7103 84.4746 -83.5294 -97.8111 83.4895 
-81.5918 -106.739 88.5175 -81.163 -107.644 88.4361 -81.6918 -109.552 87.9557 
-81.2264 -110.987 87.5002 -81.9426 -112.776 87.5841 -80.9191 -108.192 87.8722 
-81.3497 -114.482 87.1225 -81.9021 -115.531 87.3017 -81.1523 -111.73 86.9204 
-81.1544 -108.21 87.1903 -81.1906 -116.851 86.7137 -81.8755 -117.178 86.5495 
-81.3334 -115.056 86.531 -81.624 -111.266 86.5719 -81.3877 -107.702 86.6018 
-81.4158 -117.662 85.493 -82.566 -117.563 85.3852 -81.2379 -116.9 85.7077 
-81.8405 -113.999 86.0879 -81.8257 -109.748 86.2259 -81.3502 -106.553 85.9378 
-82.4737 -117.265 84.3139 -83.5637 -116.703 84.6237 -81.6243 -117.073 84.4443 
-81.7564 -115.397 85.1678 -82.0233 -111.637 85.7557 -81.7511 -107.575 85.6115 
-81.733 -104.6 85.3145 -83.4617 -115.78 84.1761 -84.1499 -114.706 84.5504 
-82.5614 -115.958 84.0304 -82.0822 -115.021 84.5215 -82.1226 -112.376 85.2283 
-82.1681 -108.492 85.3499 -82.281 -104.945 85.0832 -82.6707 -102.161 84.8861 
-83.9103 -113.192 84.5247 -84.499 -111.956 84.6479 -83.2732 -113.691 84.4041 
-82.7715 -113.144 84.5963 -82.5981 -111.342 85.0211 -82.6664 -108.364 85.1613 
-82.8977 -105.055 84.9587 -83.246 -102.193 84.7126 -83.4973 -99.8175 84.2966 
-84.3051 -110.066 84.5027 -84.9821 -109.098 84.4773 -83.7517 -110.634 84.4864 
-83.4051 -110.395 84.5939 -83.2897 -109.154 84.8321 -83.3519 -106.998 84.9153 
-83.5322 -104.401 84.7326 -83.7646 -101.929 84.4411 -83.9228 -99.7582 83.9917 
-83.9307 -97.863 83.2265 -81.953 -104.97 88.2342 -81.9604 -107.285 88.0799 
-82.2563 -105.055 87.8673 -82.4126 -107.517 87.8666 -82.9336 -104.82 87.8171 
-82.3216 -110.17 87.842 -83.0187 -107.219 87.7484 -83.8355 -104.057 87.6768 
-82.7695 -110.268 87.5933 -82.6139 -113.146 87.4501 -83.7956 -106.104 87.5769 
-84.5264 -102.771 87.19 -83.2242 -109.513 87.4324 -83.0846 -112.828 86.9782 
-82.6695 -115.575 86.844 -84.5362 -104.412 87.1336 -85.0388 -101.166 86.56 
-83.9894 -107.766 87.4555 -83.7068 -111.308 87.0304 -83.4883 -114.694 86.4387 
-83.0212 -116.868 86.0987 -85.2003 -102.449 86.4853 -85.7195 -99.2931 86.0298 
-84.7471 -105.675 87.0096 -84.4915 -108.861 87.232 -84.2536 -112.242 86.7987 
-83.9254 -115.114 86.137 -83.6969 -116.535 85.417 -85.9617 -100.172 85.9284 
-86.4988 -97.3216 85.4118 -85.3787 -103.397 86.2349 -85.0505 -106.419 86.5982 
-84.8511 -109.203 86.8222 -84.4884 -111.872 86.5002 -84.2279 -113.868 85.7423 
-84.2287 -114.755 84.9858 -86.7537 -97.8635 85.2532 -87.1621 -95.5779 84.4784 
-86.1547 -100.729 85.6625 -85.6318 -103.774 85.8148 -85.4171 -106.456 86.1029 
-85.2224 -108.7 86.3136 -84.9002 -110.559 85.931 -84.7468 -111.788 85.2232 
-84.7058 -112.229 84.7773 -87.439 -95.9518 84.2208 -87.7642 -94.1553 83.4218 
-87.0074 -98.1572 84.952 -86.4917 -100.779 85.3279 -86.1758 -103.492 85.5363 
[...]
CELL_DATA 2000
SCALARS Distance double
LOOKUP_TABLE default
135.116 135.161 135.515 136.296 135.214 135.591 136.437 136.788 137.651 
135.42 135.716 136.619 136.963 137.888 138.226 139.133 135.93 136.109 
137.075 137.288 138.269 138.524 139.474 139.746 140.639 136.485 136.707 
137.712 137.902 138.924 139.078 140.083 140.223 141.194 141.337 142.279 
136.946 137.194 138.168 138.465 139.495 139.765 140.836 141 142.081 
142.135 143.202 143.203 144.233 137.649 137.734 138.704 138.89 139.94 
140.249 141.406 141.723 142.918 143.112 144.269 144.306 145.381 145.306 
146.28 138.645 138.63 139.659 139.648 140.761 140.868 142.116 142.347 
143.628 143.883 145.084 145.277 146.358 146.425 147.384 147.313 148.181 
139.612 139.665 140.722 140.731 141.864 141.905 143.174 143.279 144.572 
144.69 145.872 146.011 147.092 147.246 148.249 148.32 149.238 149.17 
150.018 134.398 133.306 134.018 134.382 132.252 132.908 133.227 133.989 
134.392 131.202 131.833 132.079 132.818 133.211 134.023 134.549 130.008 
130.672 130.868 131.644 132.057 132.885 133.453 134.305 134.997 128.969 
129.459 129.675 130.42 130.943 131.803 132.45 133.272 133.942 134.815 
135.527 128.72 128.779 129.052 129.459 130.082 130.821 131.571 132.339 
132.973 133.754 134.396 135.296 136.007 129.213 129.005 129.296 129.286 
129.824 130.214 130.917 131.534 132.135 132.805 133.383 134.193 134.94 
135.855 136.709 129.776 129.634 129.901 129.772 130.122 130.185 130.656 
130.998 131.525 132.044 132.63 133.298 134.061 134.892 135.821 136.723 
137.678 130.094 130.077 130.349 130.316 130.604 130.54 130.84 130.893 
131.332 131.622 132.275 132.764 133.581 134.21 135.123 135.901 136.854 
137.729 138.642 130.307 130.982 130.605 130.665 132.146 131.515 131.52 
131.046 131.02 133.561 132.822 132.736 132.064 131.932 131.361 131.246 
134.915 134.204 134.088 133.358 133.201 132.446 132.297 131.668 131.701 
136.246 135.534 135.459 134.725 134.656 133.862 133.825 133.015 133.108 
132.423 132.707 137.7 136.958 136.978 136.191 136.209 135.409 135.494 
134.704 134.887 134.101 134.368 133.659 134.045 139.236 138.511 138.624 
137.833 137.925 137.088 137.225 136.43 136.65 135.896 136.13 135.388 
135.666 135.031 135.48 140.734 140.061 140.211 139.498 139.663 138.882 
139.082 138.263 138.512 137.694 137.934 137.124 137.363 136.647 137.035 
136.503 137.099 142.15 141.528 141.692 141.048 141.268 140.596 140.872 
140.141 140.435 139.625 139.895 139.021 139.284 138.436 138.809 138.125 
138.689 138.195 138.864 139.992 139.908 140.542 141.793 140.063 140.598 
142.006 142.567 143.996 140.485 140.891 142.316 142.897 144.501 145.04 
146.662 141.03 141.357 142.645 143.199 144.773 145.493 147.194 147.823 
149.443 141.543 141.869 143.055 143.506 144.929 145.642 147.285 148.117 
149.718 150.416 151.846 141.929 142.306 143.49 143.914 145.258 145.822 
147.359 148.109 149.68 150.457 151.909 152.602 153.957 142.235 142.62 
143.786 144.279 145.595 146.149 147.578 148.224 149.707 150.413 151.854 
152.574 153.976 154.666 155.953 142.584 142.907 143.998 144.493 145.733 
146.342 147.654 148.336 149.703 150.428 151.799 152.52 153.842 154.579 
155.805 156.488 157.461 142.985 143.254 144.252 144.674 145.794 146.359 
147.537 148.223 149.483 150.281 151.615 152.408 153.659 154.372 155.449 
156.144 157.024 157.656 158.299 140.451 142.2 141.407 141.625 144.305 
143.282 143.515 142.651 142.881 146.951 145.637 145.83 144.73 145.061 
144.075 144.328 149.846 148.515 148.701 147.33 147.614 146.445 146.747 
145.616 145.756 152.397 151.367 151.673 150.337 150.532 149.18 149.374 
148.111 148.18 146.957 146.955 154.591 153.785 154.252 153.168 153.414 
152.113 152.242 150.855 150.87 149.459 149.376 148.096 148.094 156.567 
155.915 156.399 155.542 155.827 154.782 154.946 153.706 153.751 152.302 
152.208 150.693 150.587 149.267 149.268 157.997 157.639 157.994 157.407 
157.563 156.84 156.943 156.093 156.13 155.027 154.91 153.54 153.32 
151.882 151.706 150.412 150.31 158.804 158.697 158.997 158.651 158.734 
158.233 158.276 157.707 157.72 156.992 156.841 155.861 155.559 154.39 
154.074 152.83 152.571 151.347 151.122 159.339 160.543 159.796 159.56 
162.383 161.248 160.798 159.857 159.376 164.42 163.3 162.813 161.444 
160.749 159.625 159.023 165.699 165.086 164.748 163.593 162.802 161.329 
160.401 159.223 158.487 165.968 165.804 165.49 165.047 164.38 163.291 
162.103 160.688 159.468 158.446 157.527 165.686 165.704 165.275 165.224 
164.693 164.293 163.211 162.111 160.551 159.324 157.994 157.221 156.233 
164.937 165.213 164.771 164.815 164.259 164.189 163.313 162.734 161.254 
160.17 158.591 157.643 156.475 155.838 154.852 163.541 164.165 163.757 
164.087 163.431 163.56 162.668 162.491 161.177 160.515 158.953 158.11 
156.791 156.103 155.06 154.443 153.409 161.746 162.498 162.041 162.675 
161.961 162.388 161.428 161.58 160.342 160.114 158.671 158.168 156.812 
156.275 155.132 154.602 153.527 152.949 151.887 159.165 159.236 159.613 
160.533 159.384 159.808 160.95 161.299 162.442 159.419 159.969 161.108 
161.666 162.892 163.32 164.379 158.996 159.806 160.859 161.613 162.746 
163.469 164.531 165.013 165.667 158.062 159.097 160.143 161.094 162.14 
163.04 164.085 164.856 165.624 165.953 166.149 156.899 157.985 158.989 
160.112 161.101 162.176 163.108 164.118 164.868 165.605 165.89 166.105 
165.906 155.695 156.739 157.591 158.756 159.613 160.835 161.599 162.795 
163.341 164.403 164.586 165.337 165.108 165.461 164.966 154.441 155.442 
156.142 157.246 157.938 159.141 159.792 161.027 161.512 162.627 162.783 
163.679 163.482 164.161 163.701 164.153 163.499 153.207 154.115 154.708 
155.732 156.313 157.414 157.988 159.163 159.713 160.825 161.169 162.01 
162.003 162.579 162.281 162.726 162.213 162.536 161.824 143.491 144.63 
144.289 144.78 145.786 145.487 146.063 145.697 146.289 146.983 146.71 
147.349 147.002 147.62 147.273 147.956 148.169 147.958 148.637 148.302 
148.94 148.606 149.361 149.057 149.898 149.208 149.118 149.856 149.586 
150.258 149.947 150.817 150.563 151.585 151.222 152.142 150.106 150.102 
150.938 150.783 151.537 151.282 152.227 152.072 153.228 152.993 153.986 
153.496 154.221 150.966 150.99 151.913 151.867 152.744 152.571 153.544 
153.456 154.613 154.541 155.517 155.197 155.814 155.328 155.842 151.795 
151.851 152.825 152.864 153.848 153.777 154.784 154.724 155.834 155.811 
156.769 156.548 157.114 156.701 157.102 156.729 157.215 152.531 152.649 
153.649 153.769 154.812 154.853 155.895 155.897 156.979 156.974 157.956 
157.775 158.428 157.989 158.397 157.922 158.338 158.003 158.454 142.967 
142.499 143.17 144.035 141.981 142.671 143.52 144.214 145.107 141.501 
142.158 143.014 143.687 144.549 145.275 146.227 141.143 141.724 142.597 
143.23 144.097 144.743 145.636 146.394 147.36 140.924 141.423 142.277 
142.87 143.775 144.369 145.233 145.854 146.732 147.481 148.38 140.772 
141.234 142.041 142.584 143.472 144.069 144.964 145.534 146.385 146.962 
147.8 148.47 149.302 140.62 141.075 141.864 142.367 143.2 143.761 
144.632 145.237 146.132 146.71 147.568 148.08 148.873 149.426 150.206 
140.528 140.931 141.72 142.198 143.024 143.523 144.328 144.875 145.729 
146.381 147.294 147.902 148.708 149.165 149.851 150.339 151.042 140.56 
140.883 141.631 142.065 142.893 143.375 144.171 144.625 145.377 145.934 
146.786 147.493 148.346 148.952 149.605 150.046 150.605 151.113 151.749 
140.829 141.521 141.403 141.883 142.205 142.134 142.713 142.58 143.157 
142.97 142.909 143.615 143.491 144.134 143.933 144.466 143.817 143.772 
144.568 144.471 145.162 144.948 145.466 145.184 145.642 144.672 144.651 
145.486 145.448 146.168 145.978 146.493 146.194 146.656 146.386 146.973 
145.568 145.53 146.399 146.376 147.143 146.974 147.516 147.224 147.704 
147.435 148.032 147.84 148.506 146.518 146.467 147.349 147.319 148.112 
147.96 148.53 148.255 148.737 148.478 149.026 148.848 149.433 149.281 
149.775 147.446 147.404 148.216 148.212 148.945 148.876 149.442 149.248 
149.726 149.49 149.988 149.783 150.284 150.11 150.562 150.377 150.767 
148.298 148.254 148.923 148.927 149.538 149.56 150.119 150.069 150.589 
150.439 150.947 150.731 151.217 150.975 151.436 151.197 151.66 151.414 
151.888 148.95 149.884 149.454 149.471 150.798 150.352 150.405 149.955 
150.019 152.037 151.464 151.641 151.028 151.144 150.585 150.663 153.455 
152.885 153.151 152.479 152.636 151.914 151.984 151.292 151.267 154.895 
154.347 154.659 154.031 154.211 153.487 153.519 152.738 152.653 151.874 
151.703 156.565 155.957 156.459 155.709 156.04 155.169 155.265 154.339 
154.239 153.334 153.113 152.262 151.99 158.251 157.776 158.487 157.778 
158.317 157.328 157.541 156.349 156.26 155.077 154.839 153.781 153.474 
152.536 152.223 159.61 159.357 160.086 159.691 160.253 159.587 159.814 
158.756 158.587 157.284 156.929 155.668 155.309 154.174 153.818 152.806 
152.482 160.823 160.611 161.29 161.018 161.498 161.128 161.336 160.687 
160.514 159.471 159.015 157.776 157.299 156.093 155.679 154.54 154.147 
153.101 152.752 148.764 148.741 149.14 149.756 148.466 149.011 149.675 
150.022 150.595 147.997 148.614 149.315 149.831 150.496 150.914 151.689 
147.506 148.118 148.881 149.461 150.264 150.782 151.664 152.153 153.07 
147.016 147.656 148.51 149.124 150.036 150.596 151.552 152.102 153.079 
153.558 154.491 146.479 147.161 148.054 148.764 149.684 150.342 151.262 
151.913 152.887 153.504 154.491 154.999 156.011 145.955 146.616 147.477 
148.233 149.106 149.847 150.699 151.457 152.412 153.192 154.224 154.906 
155.928 156.525 157.554 145.49 146.098 146.917 147.634 148.492 149.207 
150.046 150.797 151.771 152.628 153.726 154.541 155.577 156.281 157.252 
157.928 158.878 145.071 145.634 146.425 147.1 147.973 148.646 149.495 
150.18 151.134 151.974 153.091 153.985 155.04 155.816 156.745 157.478 
158.42 159.146 160.09 147.946 146.476 147.444 147.863 145.038 145.891 
146.277 147.281 147.614 143.805 144.516 144.785 145.692 146.097 147.014 
147.249 142.481 143.255 143.46 144.279 144.653 145.563 145.904 146.672 
146.808 141.052 141.861 142.059 142.886 143.16 144.108 144.448 145.334 
145.501 146.207 146.265 139.74 140.494 140.687 141.444 141.621 142.511 
142.776 143.765 143.977 144.827 144.887 145.619 145.688 138.427 139.201 
139.399 140.132 140.295 141.027 141.214 142.074 142.306 143.22 143.393 
144.21 144.321 145.066 145.196 137.05 137.826 138.032 138.831 139.044 
139.774 139.935 140.642 140.799 141.604 141.817 142.692 142.917 143.728 
143.908 144.63 144.782 135.782 136.467 136.663 137.452 137.691 138.485 
138.663 139.382 139.472 140.182 140.31 141.141 141.391 142.291 142.561 
143.366 143.553 144.247 144.394 135.17 134.525 135.226 136.034 133.937 
134.615 135.459 136.177 137.047 133.525 134.09 134.905 135.597 136.451 
137.183 138.006 133.366 133.776 134.528 135.093 135.913 136.58 137.391 
138.085 138.832 133.422 133.71 134.424 134.833 135.658 136.173 137.008 
137.559 138.343 138.923 139.691 133.647 133.854 134.561 134.843 135.67 
136.076 136.961 137.377 138.195 138.611 139.432 139.932 140.801 133.979 
134.154 134.876 135.077 135.87 136.182 137.052 137.426 138.251 138.604 
139.406 139.818 140.693 141.176 142.035 134.359 134.517 135.251 135.436 
136.207 136.442 137.254 137.553 138.354 138.678 139.46 139.834 140.664 
141.111 141.941 142.381 143.095 134.819 134.922 135.631 135.803 136.557 
136.777 137.56 137.802 138.584 138.836 139.623 139.923 140.743 141.11 
141.917 142.301 143.009 143.363 143.968 135.359 136.511 135.973 136.143 
137.865 137.217 137.359 136.822 137.064 139.371 138.677 138.815 138.144 
138.356 137.813 138.089 140.878 140.223 140.404 139.689 139.87 139.208 
139.457 138.88 139.133 142.455 141.754 141.991 141.296 141.496 140.784 
141.012 140.347 140.599 139.961 140.198 144.301 143.448 143.685 142.93 
143.169 142.429 142.66 141.954 142.216 141.526 141.77 141.08 141.324 
146.276 145.372 145.542 144.708 144.925 144.141 144.36 143.618 143.865 
143.169 143.409 142.7 142.894 142.209 142.433 148.179 147.308 147.43 
146.568 146.717 145.907 146.081 145.318 145.526 144.815 145.04 144.331 
144.496 143.769 143.899 143.249 143.441 150.049 149.199 149.344 148.446 
148.558 147.69 147.816 147.017 147.179 146.452 146.654 145.954 146.133 
145.385 145.493 144.735 144.843 144.198 144.371 145.079 145.647 145.709 
146.494 146.356 146.401 147.241 147.27 148.075 147.008 147.122 147.967 
148.04 148.853 148.859 149.606 147.546 147.72 148.579 148.711 149.557 
149.625 150.471 150.446 151.29 148.124 148.288 149.249 149.365 150.327 
150.386 151.386 151.402 152.432 152.344 153.305 148.842 148.988 150.105 
150.202 151.35 151.358 152.512 152.481 153.628 153.562 154.595 154.425 
155.266 149.671 149.83 151.078 151.208 152.501 152.546 153.823 153.781 
155.001 154.88 155.957 155.738 156.61 156.306 157.01 150.502 150.717 
152.026 152.228 153.565 153.709 155.041 155.11 156.425 156.358 157.558 
157.278 158.276 157.826 158.641 158.126 158.804 151.189 151.498 152.773 
153.086 154.368 154.645 155.944 156.197 157.566 157.724 159.056 158.955 
160.09 159.689 160.603 160.003 160.727 160.043 160.603 129.986 129.611 
129.803 129.84 129.019 129.276 129.173 129.545 129.666 128.583 128.675 
128.527 128.769 128.801 129.326 129.676 128.91 128.583 128.476 128.329 
128.387 128.618 129.097 129.631 130.335 129.945 129.337 129.232 128.698 
128.75 128.586 129.125 129.406 130.257 130.653 131.42 131.08 130.487 
130.354 129.707 129.673 129.25 129.652 129.69 130.437 130.723 131.415 
131.716 132.249 132.088 131.547 131.459 130.859 130.832 130.294 130.541 
130.322 130.848 130.926 131.45 131.654 132.093 132.387 132.839 133.128 
132.566 132.561 131.995 132.068 131.505 131.716 131.29 131.663 131.441 
131.859 131.793 132.213 132.312 132.812 133.046 133.6 134.219 133.662 
133.7 133.161 133.283 132.756 132.945 132.468 132.737 132.359 132.699 
132.422 132.838 132.696 133.23 133.248 133.865 133.982 134.586 130.143 
130.182 130.303 130.665 130.247 130.469 130.986 131.062 131.621 130.345 
130.576 131.221 131.41 132.001 132.137 132.806 130.847 130.812 131.394 
131.572 132.168 132.409 133.063 133.325 134.056 131.755 131.499 131.918 
131.848 132.385 132.528 133.195 133.49 134.262 134.567 135.3 132.584 
132.387 132.743 132.531 132.998 132.923 133.566 133.696 134.47 134.742 
135.512 135.766 136.414 133.219 133.102 133.495 133.334 133.761 133.638 
134.199 134.203 134.881 135.018 135.738 135.96 136.648 136.849 137.466 
133.939 133.765 134.194 134.041 134.472 134.354 134.86 134.828 135.415 
135.463 136.094 136.231 136.924 137.119 137.823 137.969 138.606 134.849 
134.585 135.022 134.805 135.272 135.092 135.616 135.503 136.081 136.024 
136.615 136.636 137.294 137.445 138.19 138.374 139.077 139.163 139.747 
130.313 130.767 130.575 130.945 131.713 131.256 131.584 131.466 132.133 
132.967 132.39 132.689 132.34 132.968 132.879 133.63 134.27 133.701 
133.975 133.541 134.096 133.872 134.573 134.419 135.061 135.502 134.983 
135.204 134.766 135.232 134.997 135.654 135.453 136.052 135.813 136.379 
136.616 136.169 136.384 135.937 136.324 136.058 136.676 136.507 137.1 
136.845 137.354 137.126 137.736 137.679 137.264 137.554 137.12 137.506 
137.157 137.71 137.494 138.083 137.857 138.362 138.113 138.674 138.524 
139.214 138.787 138.364 138.7 138.305 138.727 138.361 138.857 138.554 
139.085 138.829 139.35 139.108 139.674 139.489 140.16 140.034 140.73 
139.886 139.483 139.802 139.442 139.857 139.536 139.997 139.682 140.147 
139.852 140.349 140.103 140.673 140.486 141.137 140.996 141.669 141.528 
142.155 147.641 146.718 146.869 146.207 145.797 145.955 145.387 145.488 
144.904 144.875 145.054 144.571 144.747 144.25 144.306 143.728 143.95 
144.116 143.576 143.853 143.3 143.521 142.834 142.985 142.288 143.047 
143.159 142.487 142.738 142.063 142.348 141.557 141.822 141.047 141.363 
140.747 142.227 142.259 141.519 141.635 140.924 141.102 140.366 140.536 
139.83 140.077 139.534 139.889 139.44 141.564 141.525 140.792 140.754 
140.033 140.088 139.444 139.544 138.947 139.063 138.539 138.764 138.311 
138.632 138.159 140.976 140.948 140.246 140.13 139.355 139.297 138.61 
138.702 138.114 138.258 137.679 137.844 137.287 137.529 137.002 137.311 
136.803 140.332 140.361 139.69 139.604 138.807 138.675 137.908 137.901 
137.267 137.388 136.793 136.94 136.343 136.525 135.978 136.214 135.724 
136.004 135.566 
POINT_DATA 1002
SCALARS Distance double
LOOKUP_TABLE default
135.838 134.757 134.756 135.955 134.776 137.097 136.045 134.825 137.315 
138.544 136.282 135.157 137.532 138.821 140.039 136.893 135.746 138.055 
139.223 140.382 141.5 137.485 136.228 138.762 139.962 141.071 142.136 
143.207 137.87 136.743 139.151 140.577 141.974 143.205 144.273 145.223 
138.592 137.617 139.652 141.023 142.625 144.163 145.446 146.429 147.192 
139.685 138.637 140.704 141.933 143.398 144.867 146.228 147.406 148.323 
149.032 140.677 139.524 141.808 143.083 144.515 145.812 146.943 148.11 
149.236 150.159 150.867 133.684 133.618 132.618 132.49 131.651 133.577 
131.361 130.597 132.39 133.669 130.061 129.37 131.186 132.6 134.094 
128.951 128.591 130.019 131.629 133.127 134.609 128.801 128.775 129.412 
130.822 132.268 133.531 135.053 129.445 129.425 129.651 130.417 131.521 
132.623 133.999 135.772 130.039 129.87 130.227 130.495 131.063 131.996 
133.277 134.911 136.783 130.327 130.09 130.688 130.905 131.127 131.812 
133.023 134.447 136.015 137.77 130.509 130.984 131.457 132.109 132.876 
131.471 133.487 134.324 132.618 131.713 134.807 135.619 133.977 133.013 
132.171 136.179 136.943 135.395 134.601 133.866 133.291 137.757 138.406 
137.001 136.234 135.649 135.15 134.669 139.375 139.929 138.746 138.034 
137.413 136.894 136.351 135.984 140.883 141.395 140.378 139.871 139.348 
138.779 138.131 137.612 137.516 142.311 142.749 141.886 141.543 141.208 
140.753 140.157 139.569 139.252 139.303 141.154 141.174 143.057 141.375 
143.477 145.463 141.733 143.847 146.187 148.341 142.185 144.026 146.454 
148.947 151.047 142.673 144.314 146.453 148.954 151.258 153.243 143.041 
144.762 146.704 148.925 151.165 153.312 155.324 143.28 145.041 146.987 
149.047 151.154 153.254 155.371 157.17 143.558 145.162 147.002 148.978 
151.089 153.161 155.122 156.931 158.285 143.898 145.306 146.918 148.695 
150.78 152.981 154.846 156.388 157.759 158.859 142.393 144.4 143.757 
147.056 146.042 145.393 150.155 148.899 147.908 146.949 152.909 151.964 
150.739 149.481 148.115 155.215 154.642 153.645 152.35 150.783 149.233 
157.212 156.776 156.07 155.134 153.781 152.068 150.463 158.539 158.236 
157.681 157.085 156.182 154.782 153.121 151.541 159.273 159.183 158.789 
158.363 157.717 156.632 155.276 153.835 152.345 159.891 160.232 161.516 
162.01 163.633 160.168 164.27 165.364 162.17 159.928 165.63 166.108 
164.35 161.903 159.386 165.679 166.119 165.166 163.635 160.787 158.238 
165.319 165.624 164.83 164.088 161.925 158.953 156.798 164.7 164.492 
164.299 163.655 162.206 159.645 157.186 155.452 163.31 162.828 163.268 
162.735 161.629 159.714 157.514 155.683 154.053 161.366 161.052 161.457 
161.172 160.395 159.021 157.294 155.641 154.079 152.454 158.751 160.201 
158.761 160.47 158.929 162.189 160.518 158.824 162.348 164.15 160.089 
158.087 161.984 163.919 165.534 159.127 156.984 161.223 163.227 165.122 
166.223 157.854 155.87 159.997 162.092 164.018 165.476 165.978 156.504 
154.72 158.427 160.425 162.289 163.73 164.566 164.788 155.114 153.496 
156.82 158.581 160.378 161.876 162.754 163.139 163.188 153.743 152.385 
155.275 156.855 158.541 160.23 161.411 161.856 161.86 161.603 143.831 
145.143 144.92 146.403 146.039 146.649 147.692 147.223 147.959 148.259 
148.966 148.324 149.261 149.608 150.222 150.073 149.237 150.541 150.982 
151.868 152.67 151.006 150.083 151.747 152.335 153.375 154.451 154.848 
151.887 150.935 152.855 153.641 154.666 155.807 156.304 156.303 152.739 
151.718 153.856 154.843 155.875 156.969 157.543 157.508 157.507 142.324 
143.359 141.817 142.838 141.291 144.367 142.349 140.866 143.86 145.423 
141.962 140.605 143.486 144.95 146.539 141.706 140.463 143.168 144.676 
146.079 147.586 141.538 140.318 142.883 144.369 145.853 147.229 148.595 
141.372 140.173 142.686 144.037 145.494 147.056 148.425 149.608 141.25 
140.162 142.539 143.852 145.1 146.597 148.233 149.472 150.481 141.238 