# vtk DataFile Version 4.0
vtk output
ASCII
DATASET POLYDATA
POINTS 1002 float
-84.6139 -83.8274 69.3033 -84.6471 -83.2968 68.0602 -84.2534 -82.9123 68.7482 
-84.2545 -83.5361 70.1484 -83.8178 -82.6616 69.539 -84.6172 -84.5668 70.8078 
-83.7033 -83.4858 71.0148 -83.2299 -82.5863 70.3585 -84.0934 -84.5441 71.6635 
-84.3242 -85.6661 72.2416 -82.8862 -83.6378 71.7363 -82.4634 -82.6103 71.2107 
-83.2834 -84.7281 72.3889 -83.5918 -85.8738 73.0076 -83.8573 -86.9604 73.6422 
-82.1454 -83.8035 72.5834 -81.8133 -82.6807 72.3091 -82.4977 -84.9371 73.0794 
-82.8132 -86.1031 73.7719 -83.1964 -87.2684 74.5564 -83.6071 -88.3526 75.3407 
-81.796 -83.9949 73.9472 -81.5924 -82.7618 73.6638 -82.1417 -85.1432 74.3019 
-82.4061 -86.3214 74.8769 -82.6312 -87.6426 75.6586 -83.0031 -88.877 76.4326 
-83.2912 -89.9788 77.0212 -81.6064 -84.2863 75.4095 -81.6083 -82.8371 74.919 
-81.8493 -85.5693 75.9463 -82.1948 -86.7409 76.4743 -82.2691 -88.1646 77.0435 
-82.3356 -89.6083 77.6133 -82.568 -90.7439 78.0958 -82.705 -91.7801 78.4755 
-81.3083 -84.6201 76.5045 -81.4674 -83.0614 76.0453 -81.2844 -86.118 77.1817 
-81.6251 -87.382 77.8828 -81.8584 -88.7904 78.4629 -81.8195 -90.3609 78.9014 
-81.9244 -91.6195 79.3071 -82.1789 -92.6179 79.7743 -82.3597 -93.6389 80.2575 
-80.9977 -85.0137 77.6217 -81.1548 -83.5803 77.3569 -80.858 -86.5563 78.1119 
-81.0447 -87.9759 78.8108 -81.3732 -89.4117 79.582 -81.5115 -90.9883 80.2379 
-81.629 -92.3888 80.7446 -81.893 -93.5047 81.2545 -82.1609 -94.5811 81.8329 
-82.3353 -95.6302 82.3507 -80.8289 -85.5293 79.0686 -80.9188 -84.302 78.8447 
-80.8086 -86.9525 79.3775 -80.9547 -88.4854 79.8898 -81.1551 -90.0888 80.6467 
-81.2944 -91.7139 81.5067 -81.4878 -93.1775 82.2557 -81.7496 -94.4206 82.8144 
-81.9388 -95.6173 83.2719 -82.0466 -96.7996 83.6939 -82.1309 -97.7984 84.0188 
-84.5728 -82.4583 67.4661 -84.0324 -82.1137 68.11 -84.4692 -81.4455 66.9505 
-83.7605 -81.1343 67.5306 -84.1359 -80.3063 66.3265 -83.4716 -81.8765 68.8236 
-83.3379 -79.9753 66.8889 -83.6087 -79.2894 65.6062 -83.0963 -80.9019 68.2214 
-82.8579 -81.69 69.7133 -82.8966 -78.9301 66.2994 -83.2299 -78.5021 65.1416 
-82.6983 -79.7481 67.759 -82.4862 -80.6561 69.2962 -82.1225 -81.5851 70.8337 
-82.7459 -77.9974 66.1006 -83.2603 -77.5848 65.1576 -82.4357 -78.5941 67.544 
-82.189 -79.4734 69.1357 -81.8328 -80.5179 70.6573 -81.5654 -81.5826 72.1533 
-82.9891 -76.8681 66.401 -83.6503 -76.4883 65.5266 -82.4551 -77.377 67.7118 
-82.0773 -78.1538 69.2163 -81.6962 -79.3036 70.6617 -81.3928 -80.4737 72.0997 
-81.4733 -81.5239 73.5247 -83.4741 -75.8984 67.0532 -84.198 -75.8405 66.1328 
-82.7261 -76.2166 68.2658 -82.1314 -76.8931 69.5841 -81.7374 -78.0191 70.8775 
-81.3569 -79.326 72.2553 -81.2725 -80.3904 73.6098 -81.5044 -81.5059 74.837 
-84.031 -75.6496 67.9186 -84.7544 -75.8989 66.9688 -83.1948 -75.613 69.0953 
-82.3676 -76.0815 70.2828 -81.8794 -77.0815 71.3847 -81.5312 -78.3585 72.6441 
-81.1773 -79.5099 73.9974 -81.1714 -80.5385 75.1497 -81.3077 -81.8861 76.2128 
-84.5817 -75.921 68.8774 -85.2786 -76.2246 67.9563 -83.7997 -75.6427 70.0166 
-82.8907 -75.8197 71.1782 -82.2029 -76.6174 72.1705 -81.8575 -77.7698 73.2111 
-81.4538 -78.931 74.4729 -81.0753 -79.9836 75.6566 -81.0288 -81.1678 76.6637 
-81.0512 -82.6759 77.7172 -85.3559 -76.3127 69.5719 -84.6393 -76.0113 70.637 
-85.4243 -76.3549 71.2282 -84.7064 -76.2564 72.3665 -85.4071 -76.7658 72.7207 
-83.8045 -75.887 71.8729 -84.7163 -76.9823 73.9381 -85.3359 -77.6699 74.1764 
-83.8901 -76.4468 73.6351 -82.9159 -76.3604 72.9979 -84.7171 -77.9962 75.5599 
-85.4042 -78.4968 75.9249 -83.9512 -77.3767 75.2372 -83.0812 -77.1458 74.7101 
-82.342 -77.3806 73.9437 -84.8143 -78.8373 77.3988 -85.5526 -79.1407 77.7994 
-83.9805 -78.4471 76.9207 -83.1576 -78.1509 76.3498 -82.5024 -78.2568 75.685 
-81.9438 -78.5864 75.0461 -84.8779 -79.7488 79.1396 -85.5328 -80.1676 79.3267 
-84.0634 -79.4881 78.7649 -83.1564 -79.3248 78.2072 -82.4776 -79.3219 77.5242 
-81.9711 -79.5291 76.8618 -81.4186 -79.7668 76.2762 -84.8358 -81.0111 80.5349 
-85.4412 -81.4907 80.5534 -84.1705 -80.652 80.3969 -83.2894 -80.5197 80.0817 
-82.4583 -80.5104 79.5295 -81.9584 -80.6167 78.7822 -81.5095 -80.8333 78.0528 
-81.088 -81.0096 77.3782 -84.8409 -82.3208 81.738 -85.4785 -82.6334 81.7377 
-84.2622 -81.9942 81.6518 -83.5514 -81.8137 81.4676 -82.6858 -81.7765 81.1434 
-82.0745 -81.8242 80.561 -81.7367 -82.0286 79.8184 -81.34 -82.3133 79.1361 
-81.0363 -82.5042 78.4625 -84.9368 -83.4982 82.8406 -85.5895 -83.6124 82.8387 
-84.3412 -83.3821 82.7232 -83.7571 -83.3013 82.4946 -83.0302 -83.2864 82.214 
-82.3555 -83.3196 81.83 -81.9995 -83.4532 81.2804 -81.7004 -83.7248 80.7199 
-81.2703 -83.9872 80.2195 -80.9681 -84.1409 79.6076 -80.8364 -85.8052 80.526 
-81.0441 -85.728 81.2165 -80.9829 -87.4656 82.2082 -81.4956 -85.6331 81.6519 
-81.2278 -87.4693 82.6918 -81.1634 -89.4637 83.7872 -81.9292 -85.4624 82.0614 
-81.669 -87.4784 83.0904 -81.405 -89.4288 84.1877 -81.2033 -91.839 85.3013 
-82.211 -85.2761 82.5728 -82.0369 -87.3866 83.6619 -81.7708 -89.3663 84.8037 
-81.5209 -91.6835 85.7759 -81.1894 -94.4392 86.5841 -82.6589 -85.1193 83.0206 
-82.3571 -87.1291 84.2313 -82.0841 -89.131 85.5047 -81.8132 -91.5222 86.417 
-81.5035 -94.3958 87.0593 -81.0996 -97.0824 87.4947 -83.316 -84.9963 83.3577 
-82.8627 -86.8308 84.5922 -82.4828 -88.7248 85.9085 -82.1406 -91.2653 86.8055 
-81.7442 -94.3968 87.4881 -81.3266 -97.1882 88.0103 -80.9659 -99.4 88.1932 
-83.9445 -84.8979 83.6429 -83.4915 -86.6348 84.8004 -83.0761 -88.4045 86.0531 
-82.6918 -90.902 86.8842 -82.2097 -94.2806 87.5895 -81.6541 -97.2093 88.4481 
-81.2556 -99.2593 88.8303 -81.0529 -101.285 88.6638 -84.5783 -84.8019 83.8205 
-84.1766 -86.4739 84.8843 -83.7947 -88.2366 86.0547 -83.4123 -90.5206 86.9148 
-82.9106 -93.82 87.5512 -82.2592 -96.9665 88.5387 -81.6637 -98.9834 89.3468 
-81.3661 -100.799 89.2841 -81.2566 -103.191 88.8197 -85.2631 -84.74 83.849 
-84.9012 -86.2978 84.8486 -84.5554 -88.0658 85.9259 -84.171 -90.1411 86.8717 
-83.6403 -93.0443 87.5478 -82.9682 -96.2235 88.4186 -82.2418 -98.5002 89.4273 
-81.6598 -100.272 89.7576 -81.3755 -102.598 89.3555 -81.2283 -105.344 88.8973 
-80.8835 -87.1271 80.9075 -81.1302 -89.1389 82.8829 -81.0951 -88.7886 81.3765 
-81.063 -91.7432 84.752 -81.1495 -91.3965 83.6521 -81.1761 -90.7637 82.0348 
-80.7548 -94.5118 86.2146 -80.5276 -94.4118 85.5737 -80.7122 -93.8084 84.3299 
-81.0424 -92.7369 82.8374 -80.6371 -97.0705 87.1625 -80.0271 -96.9511 86.7216 
-79.8642 -96.6302 85.886 -80.409 -95.7488 84.8255 -81.1206 -94.3876 83.6509 
-80.5755 -99.5505 87.8467 -80.002 -99.2852 87.5099 -79.6103 -98.8768 86.7973 
-79.8848 -98.3803 85.9721 -80.7069 -97.3023 85.2965 -81.4407 -95.7716 84.2934 
-80.5921 -101.963 88.3475 -79.9703 -102.062 88.2298 -79.5809 -101.593 87.741 
-79.7058 -101.053 86.8432 -80.2127 -100.294 86.1741 -80.8994 -98.8788 85.6131 
-81.548 -97.143 84.6338 -80.8507 -104.296 88.5376 -80.0726 -104.954 88.5809 
-79.4266 -104.88 88.442 -79.4213 -104.348 87.7013 -79.7399 -103.575 86.8246 
-80.0524 -102.287 86.1953 -80.6345 -100.456 85.5818 -81.4491 -98.5118 84.7805 
-81.0022 -106.591 88.5989 -80.3168 -107.487 88.5818 -79.4705 -107.827 88.5501 
-79.1673 -107.634 88.0568 -79.3935 -106.98 87.2532 -79.5259 -105.753 86.532 
-79.7038 -103.937 85.919 -80.4324 -101.801 85.4135 -81.4371 -99.675 84.896 
-80.8522 -108.407 88.9498 -80.4408 -109.468 88.672 -80.2098 -110.93 89.1613 
-79.5297 -111.804 88.6196 -79.6108 -112.706 88.9351 -79.6466 -110.126 88.4634 
-78.7639 -114.019 88.0984 -79.4286 -114.499 88.0272 -78.8188 -112.622 87.9991 
-79.05 -110.431 88.0174 -78.6471 -116.378 87.2198 -79.6583 -116.159 86.9716 
-78.2197 -115.354 87.2871 -78.6508 -113.135 87.2227 -79.1279 -110.221 87.2921 
-79.1236 -117.679 86.1787 -80.0883 -116.618 86.1293 -78.1776 -117.468 86.3078 
-78.2429 -115.621 86.3875 -78.988 -112.625 86.5153 -79.3631 -109.176 86.6326 
-79.8734 -117.392 85.1207 -80.7231 -116.025 85.4509 -78.7438 -117.809 85.026 
-78.1733 -116.73 85.2786 -78.7118 -114.266 85.7593 -79.3043 -110.897 86.0723 
-79.4006 -107.286 86.0573 -80.7748 -116.402 84.496 -81.5874 -115.108 85.0224 
-79.704 -116.97 84.1394 -78.7908 -116.358 84.2771 -78.8263 -114.629 84.9732 
-79.4181 -111.868 85.6091 -79.6629 -108.372 85.7133 -79.8299 -104.88 85.5706 
-81.7264 -114.979 84.4708 -82.4778 -113.78 84.8835 -80.7599 -115.634 84.1351 
-79.8111 -115.304 84.1106 -79.4935 -114.015 84.6149 -79.8443 -111.882 85.2981 
-80.1981 -108.845 85.5671 -80.413 -105.412 85.4645 -80.8377 -102.302 85.2771 
-82.5421 -112.855 84.6808 -83.1832 -111.814 84.8772 -81.703 -113.568 84.5285 
-80.8194 -113.56 84.4883 -80.3392 -112.646 84.7178 -80.4301 -110.946 85.1538 
-80.7127 -108.453 85.4223 -80.9786 -105.364 85.3841 -81.3592 -102.365 85.1858 
-81.8128 -99.8714 84.7813 -81.0952 -105.835 89.3292 -80.7173 -108.997 89.5511 
-81.1715 -106.038 89.831 -80.9926 -108.954 90.0698 -81.8004 -105.681 90.1256 
-80.4033 -111.236 89.7545 -81.6797 -108.111 89.98 -82.6122 -104.84 89.9808 
-81.0414 -110.819 89.9346 -80.3293 -112.679 89.1479 -82.2252 -106.748 89.3614 
-83.1201 -103.753 89.5061 -81.6342 -109.719 89.3933 -81.141 -112.133 88.9638 
-80.3923 -114.169 87.8743 -82.7084 -105.197 88.8831 -83.6258 -102.4 88.9708 
-82.058 -108.133 88.7734 -81.6749 -111.005 88.5915 -81.1306 -113.347 87.8002 
-80.4928 -115.161 86.8643 -83.6209 -103.475 88.6611 -84.5774 -100.703 88.4745 
-82.8573 -106.283 88.6147 -82.431 -109.227 88.4979 -81.9915 -111.906 87.9945 
-81.3469 -113.718 87.1364 -80.874 -114.974 86.3093 -84.8939 -101.537 88.3727 
-85.8228 -98.9015 88.0284 -83.9914 -104.25 88.4789 -83.4398 -107.037 88.4556 
-83.1303 -109.826 88.198 -82.6485 -111.926 87.5858 -82.0284 -113.198 86.7813 
-81.6648 -114.245 85.8856 -86.1545 -99.6166 87.9717 -86.9088 -97.3193 87.5275 
-85.1747 -102.089 88.1278 -84.3478 -104.642 88.1202 -83.9277 -107.318 88.0192 
-83.7073 -109.683 87.7302 -83.3342 -111.272 87.1866 -82.8708 -112.387 86.3949 
-82.5923 -113.303 85.5225 -87.09 -97.9596 87.3694 -87.5754 -96.0002 86.7648 
[...]
CELL_DATA 2000
SCALARS Distance double
LOOKUP_TABLE default
136.142 136.101 136.46 137.216 136.125 136.489 137.288 137.656 138.46 
136.117 136.51 137.304 137.718 138.524 138.897 139.684 136.224 136.531 
137.335 137.715 138.557 138.952 139.831 140.19 141.108 136.723 136.852 
137.766 137.943 138.91 139.144 140.178 140.469 141.545 141.824 142.836 
137.463 137.558 138.584 138.663 139.75 139.82 140.951 141.074 142.224 
142.402 143.465 143.619 144.529 138.135 138.292 139.3 139.496 140.575 
140.749 141.863 141.994 143.105 143.211 144.269 144.345 145.331 145.361 
146.317 138.863 138.945 139.909 140.107 141.16 141.432 142.561 142.818 
143.968 144.124 145.243 145.282 146.38 146.353 147.476 147.41 148.54 
139.86 139.791 140.777 140.813 141.928 142.077 143.323 143.535 144.848 
145.025 146.319 146.381 147.615 147.574 148.772 148.701 149.87 149.777 
150.853 135.55 134.642 135.193 135.425 133.58 134.218 134.412 135.068 
135.38 132.32 133.04 133.26 133.994 134.289 135.018 135.37 131.176 
131.782 132.043 132.801 133.169 133.923 134.309 135.027 135.467 130.44 
130.82 131.074 131.691 132.133 132.853 133.328 134.03 134.527 135.246 
135.875 130.075 130.276 130.496 130.913 131.337 131.939 132.467 133.135 
133.692 134.381 135.017 135.792 136.545 130.122 130.11 130.327 130.512 
130.885 131.292 131.822 132.393 133.012 133.642 134.297 134.982 135.701 
136.489 137.249 130.705 130.447 130.697 130.59 130.954 131.064 131.604 
131.955 132.66 133.147 133.885 134.405 135.13 135.74 136.516 137.237 
138.041 131.652 131.27 131.543 131.229 131.593 131.424 131.956 132.026 
132.771 133.055 133.885 134.229 135.003 135.385 136.17 136.691 137.562 
138.191 139.083 132.305 133.263 132.593 132.214 134.28 133.607 133.293 
132.57 132.264 135.456 134.734 134.522 133.755 133.516 132.749 132.609 
136.846 136.058 135.91 135.097 134.932 134.119 134.035 133.293 133.385 
138.347 137.548 137.432 136.582 136.439 135.603 135.558 134.803 134.91 
134.233 134.449 139.826 139.071 139.015 138.175 138.084 137.198 137.175 
136.371 136.492 135.785 135.969 135.309 135.52 141.254 140.546 140.567 
139.791 139.799 138.932 138.953 138.082 138.201 137.415 137.614 136.876 
137.085 136.389 136.657 142.643 141.979 142.05 141.346 141.422 140.652 
140.717 139.885 139.989 139.176 139.383 138.608 138.883 138.1 138.412 
137.665 138.048 143.962 143.359 143.467 142.821 142.941 142.247 142.363 
141.604 141.732 140.949 141.168 140.415 140.743 139.988 140.358 139.565 
139.942 139.172 139.577 140.684 141.1 141.437 142.595 141.517 141.882 
143.036 143.411 144.672 141.878 142.282 143.47 143.858 145.084 145.523 
146.9 142.25 142.633 143.869 144.303 145.575 145.968 147.302 147.796 
149.239 142.733 143.033 144.24 144.693 145.997 146.444 147.762 148.228 
149.636 150.155 151.526 143.293 143.536 144.651 145.056 146.29 146.777 
148.059 148.597 149.986 150.56 151.948 152.395 153.567 143.818 144.054 
145.093 145.447 146.59 147.027 148.246 148.792 150.188 150.846 152.297 
152.826 154.014 154.308 155.255 144.289 144.52 145.501 145.838 146.926 
147.323 148.484 148.971 150.317 150.991 152.474 153.123 154.344 154.705 
155.574 155.829 156.669 144.725 144.944 145.861 146.187 147.222 147.624 
148.727 149.191 150.41 151.051 152.421 153.169 154.38 154.904 155.727 
156.035 156.757 157.137 158.025 140.834 142.788 141.78 141.792 145.028 
143.959 144.091 142.932 143.032 147.417 146.393 146.76 145.526 145.708 
144.373 144.515 149.768 148.84 149.303 148.244 148.528 147.225 147.331 
145.955 146.076 151.951 151.109 151.456 150.578 150.804 149.812 149.932 
148.753 148.821 147.52 147.585 153.905 153.159 153.439 152.578 152.715 
151.82 151.958 151.061 151.242 150.181 150.27 148.978 148.944 155.628 
155.02 155.428 154.593 154.843 153.825 154.03 153.058 153.351 152.43 
152.647 151.548 151.54 150.229 150.098 157.197 156.729 157.345 156.651 
157.109 156.134 156.443 155.355 155.645 154.611 154.819 153.774 153.772 
152.636 152.5 151.273 151.116 158.693 158.333 159.075 158.554 159.108 
158.355 158.703 157.765 158.007 156.974 157.089 155.967 155.874 154.724 
154.539 153.452 153.297 152.19 152.019 159.798 161.484 160.541 160.179 
162.621 161.973 161.572 160.721 160.17 163.398 162.901 162.586 161.903 
161.403 160.521 159.806 164.231 163.788 163.664 162.956 162.577 161.706 
161.079 160.061 159.199 164.699 164.602 164.559 164.063 163.675 162.896 
162.247 161.302 160.405 159.321 158.242 164.446 164.703 164.579 164.532 
164.001 163.641 162.876 162.262 161.281 160.37 159.138 158.095 156.849 
163.952 164.225 164.058 164.155 163.592 163.486 162.738 162.489 161.61 
161.015 159.808 158.841 157.479 156.531 155.372 163.441 163.704 163.539 
163.619 163.138 163.014 162.365 162.196 161.497 161.16 160.156 159.397 
158.074 157.122 155.891 155.088 154.103 162.603 163.018 162.779 163.035 
162.557 162.579 161.913 161.824 161.094 160.937 160.002 159.557 158.287 
157.561 156.248 155.528 154.433 153.809 152.835 159.781 160.316 160.625 
161.585 160.681 161.127 162.145 162.294 162.84 160.602 161.251 162.23 
162.678 163.241 163.255 163.531 159.971 160.766 161.57 162.384 163.012 
163.421 163.707 163.803 164.112 159.086 159.861 160.505 161.417 162.134 
162.915 163.366 163.749 163.967 164.233 164.448 158.241 158.956 159.6 
160.373 161.146 161.995 162.69 163.282 163.587 163.888 163.96 164.253 
164.246 157.472 158.169 158.826 159.542 160.25 161.081 161.837 162.598 
163.079 163.476 163.562 163.744 163.699 163.908 163.834 156.758 157.433 
158.008 158.704 159.229 160.059 160.635 161.582 162.085 162.82 163 
163.345 163.277 163.449 163.348 163.523 163.377 155.961 156.672 157.155 
157.816 158.184 158.9 159.269 160.173 160.573 161.537 161.777 162.504 
162.469 162.896 162.707 162.986 162.738 162.953 162.6 145.222 146.354 
145.973 146.393 147.573 147.198 147.706 147.281 147.784 148.836 148.495 
149.08 148.666 149.228 148.772 149.313 150.098 149.802 150.431 150.05 
150.638 150.23 150.842 150.381 151.015 151.314 151.075 151.737 151.387 
152.004 151.634 152.322 151.936 152.693 152.232 152.996 152.413 152.256 
152.967 152.687 153.404 153.07 153.889 153.51 154.343 153.911 154.666 
154.213 154.847 153.397 153.301 154.056 153.88 154.703 154.508 155.479 
155.193 156.101 155.63 156.299 155.767 156.251 155.784 156.14 154.358 
154.281 155.065 154.937 155.771 155.714 156.697 156.656 157.605 157.335 
158.005 157.44 157.87 157.212 157.565 156.957 157.268 155.258 155.238 
156.026 155.931 156.701 156.669 157.511 157.596 158.455 158.504 159.244 
159.014 159.576 158.996 159.452 158.676 159.095 158.292 158.669 144.761 
144.376 144.986 145.827 143.888 144.554 145.399 146.062 146.963 143.35 
144.023 144.871 145.581 146.467 147.187 148.138 142.937 143.513 144.347 
145.032 145.898 146.623 147.529 148.324 149.318 142.737 143.198 143.997 
144.57 145.419 146.061 146.904 147.647 148.596 149.473 150.49 142.553 
143.029 143.786 144.293 145.118 145.67 146.496 147.087 147.942 148.709 
149.703 150.609 151.589 142.196 142.75 143.471 144.031 144.809 145.389 
146.229 146.783 147.595 148.163 149.02 149.794 150.767 151.657 152.577 
141.821 142.338 143.031 143.61 144.33 144.97 145.787 146.466 147.307 
147.882 148.625 149.194 149.991 150.79 151.722 152.62 153.518 141.651 
142.034 142.697 143.177 143.846 144.421 145.165 145.891 146.753 147.49 
148.262 148.821 149.455 150.056 150.818 151.686 152.607 153.542 154.403 
141.856 142.511 142.394 142.852 143.197 143.076 143.524 143.416 143.931 
143.977 143.815 144.283 144.113 144.611 144.536 145.195 144.871 144.668 
145.142 144.92 145.438 145.299 146.009 145.979 146.81 145.741 145.548 
145.995 145.792 146.35 146.218 146.994 146.923 147.774 147.69 148.405 
146.56 146.356 146.79 146.621 147.253 147.185 148.049 147.99 148.819 
148.673 149.296 149.111 149.602 147.389 147.168 147.632 147.458 148.182 
148.147 149.093 149.064 149.876 149.691 150.232 149.982 150.474 150.279 
150.895 148.131 147.985 148.5 148.368 149.136 149.124 150.065 150.069 
150.843 150.679 151.186 150.923 151.459 151.259 152.011 151.841 152.686 
148.7 148.678 149.264 149.232 149.994 150.03 150.883 150.929 151.639 
151.548 152.069 151.871 152.467 152.317 153.154 153.047 153.965 153.774 
154.557 149.161 150.35 149.777 149.902 151.814 151.155 151.311 150.632 
150.756 153.284 152.67 152.818 152.118 152.205 151.523 151.614 154.695 
154.15 154.39 153.671 153.752 152.985 152.997 152.307 152.287 156.114 
155.624 156.048 155.359 155.609 154.721 154.796 153.838 153.788 152.926 
152.8 157.569 157.113 157.639 157.062 157.464 156.7 156.921 155.906 
155.912 154.753 154.644 153.552 153.417 159.104 158.645 159.211 158.66 
159.075 158.456 158.702 157.932 157.943 156.939 156.787 155.651 155.504 
154.362 154.247 160.616 160.205 160.794 160.259 160.667 160.034 160.248 
159.535 159.509 158.687 158.471 157.576 157.352 156.418 156.254 155.227 
155.051 161.876 161.587 162.095 161.714 162.077 161.566 161.769 161.083 
161.056 160.195 159.952 159.05 158.766 157.965 157.749 156.975 156.747 
155.852 155.548 148.902 148.736 149.195 150.027 148.569 149.063 149.99 
150.495 151.478 148.438 148.955 149.923 150.464 151.475 151.984 152.933 
148.214 148.813 149.771 150.364 151.331 151.901 152.829 153.353 154.248 
147.806 148.483 149.409 150.097 151.016 151.656 152.538 153.141 154.038 
154.622 155.559 147.33 147.991 148.857 149.598 150.492 151.221 152.097 
152.775 153.675 154.336 155.313 155.952 156.962 146.889 147.494 148.292 
148.994 149.854 150.611 151.506 152.263 153.195 153.929 154.926 155.648 
156.717 157.392 158.458 146.48 147.047 147.808 148.448 149.274 149.977 
150.864 151.637 152.603 153.404 154.432 155.22 156.312 157.087 158.224 
158.92 159.978 146.113 146.643 147.393 147.992 148.793 149.435 150.279 
151.006 151.954 152.78 153.823 154.674 155.778 156.628 157.794 158.615 
159.749 160.416 161.344 148.318 147.387 147.93 148.056 146.22 146.89 
146.969 147.591 147.778 144.899 145.631 145.774 146.441 146.581 147.295 
147.569 143.732 144.376 144.573 145.238 145.397 146.072 146.265 147.047 
147.317 142.649 143.269 143.42 144.079 144.23 144.883 145.001 145.708 
145.879 146.706 146.926 141.454 142.105 142.171 142.865 142.948 143.655 
143.705 144.398 144.482 145.256 145.451 146.294 146.513 140.295 140.889 
140.911 141.541 141.549 142.263 142.275 143.011 143.065 143.842 144.035 
144.869 145.133 145.934 146.146 139.233 139.79 139.795 140.322 140.275 
140.872 140.864 141.555 141.627 142.402 142.618 143.474 143.786 144.61 
144.862 145.597 145.774 138.118 138.707 138.687 139.218 139.134 139.663 
139.629 140.232 140.31 141.014 141.232 142.062 142.403 143.271 143.584 
144.35 144.555 145.244 145.421 137.448 136.519 137.336 137.986 135.62 
136.377 137.045 137.838 138.454 135.03 135.597 136.261 136.952 137.656 
138.366 139.011 134.775 135.198 135.878 136.372 137.125 137.717 138.479 
139.063 139.759 134.697 135.067 135.807 136.194 136.966 137.402 138.2 
138.684 139.464 139.955 140.725 134.824 135.089 135.868 136.216 137.009 
137.373 138.149 138.54 139.336 139.776 140.615 141.074 141.923 135.206 
135.341 136.079 136.341 137.124 137.444 138.215 138.557 139.36 139.748 
140.621 141.049 141.929 142.345 143.138 135.643 135.753 136.421 136.611 
137.355 137.605 138.387 138.677 139.517 139.858 140.762 141.137 142.017 
142.382 143.15 143.49 144.141 136.009 136.136 136.783 136.958 137.688 
137.895 138.679 138.921 139.762 140.068 140.954 141.307 142.152 142.488 
143.219 143.516 144.15 144.435 145.026 136.428 137.498 137.029 137.256 
138.73 138.209 138.427 137.944 138.201 139.961 139.444 139.669 139.173 
139.434 138.945 139.215 141.386 140.745 140.986 140.427 140.697 140.2 
140.498 140.002 140.307 143.073 142.339 142.598 141.886 142.144 141.515 
141.798 141.278 141.603 141.128 141.469 144.694 144.02 144.295 143.605 
143.88 143.131 143.353 142.649 142.904 142.378 142.714 142.28 142.61 
146.415 145.624 145.888 145.232 145.566 144.903 145.163 144.361 144.526 
143.773 144.021 143.488 143.811 143.368 143.64 148.602 147.569 147.793 
146.903 147.211 146.53 146.875 146.17 146.372 145.529 145.68 144.925 
145.185 144.605 144.882 144.361 144.574 150.921 149.906 150.084 149.003 
149.167 148.265 148.54 147.831 148.087 147.333 147.463 146.652 146.805 
146.093 146.323 145.692 145.895 145.297 145.464 146.153 146.665 146.756 
147.467 147.167 147.306 148.075 148.144 148.873 147.698 147.83 148.655 
148.76 149.553 149.594 150.36 148.369 148.451 149.33 149.402 150.294 
150.339 151.234 151.212 152.08 149.022 149.174 150.13 150.203 151.209 
151.227 152.267 152.228 153.241 153.114 154.032 149.603 149.829 150.937 
151.086 152.259 152.308 153.504 153.443 154.604 154.439 155.493 155.212 
156.107 150.407 150.569 151.872 152.014 153.407 153.503 154.925 154.875 
156.213 155.999 157.208 156.863 157.897 157.42 158.257 151.402 151.563 
152.944 153.093 154.585 154.759 156.332 156.403 157.854 157.714 158.967 
158.673 159.754 159.321 160.194 159.607 160.277 152.176 152.48 153.761 
154.066 155.455 155.828 157.344 157.676 159.062 159.171 160.267 160.204 
161.121 160.964 161.734 161.397 161.962 161.431 161.829 131.554 130.61 
131.077 131.182 130.051 130.28 130.388 130.823 131.084 130.04 130.003 
130.096 130.251 130.493 130.89 131.29 130.427 130.228 130.316 130.221 
130.342 130.458 130.755 131.189 131.679 131.144 130.775 130.87 130.609 
130.639 130.466 130.551 130.722 131.139 131.661 132.281 132.252 131.682 
131.742 131.298 131.34 130.94 130.954 130.737 131.036 131.267 131.953 
132.445 133.197 133.509 132.901 132.895 132.306 132.335 131.812 131.912 
131.453 131.741 131.542 132.186 132.367 133.214 133.553 134.341 134.585 
134.09 134.074 133.488 133.464 132.9 133.026 132.56 132.886 132.526 
133.058 132.918 133.658 133.774 134.591 134.819 135.587 135.483 135.068 
135.101 134.602 134.597 134.044 134.137 133.681 133.977 133.647 134.074 
133.845 134.377 134.33 135.005 135.151 135.908 136.116 136.839 132.151 
131.792 132.284 132.948 131.666 132.015 132.68 133.121 133.77 131.847 
132.029 132.669 132.97 133.636 133.994 134.641 132.239 132.306 132.902 
133.082 133.755 134.007 134.689 134.965 135.654 132.825 132.765 133.294 
133.363 133.996 134.208 134.92 135.15 135.862 136.091 136.814 133.671 
133.463 133.962 133.853 134.435 134.51 135.207 135.406 136.126 136.353 
137.064 137.296 137.978 134.73 134.416 134.928 134.681 135.274 135.137 
135.799 135.794 136.475 136.608 137.311 137.54 138.224 138.43 139.02 
135.916 135.537 136.019 135.723 136.296 136.093 136.705 136.548 137.136 
137.069 137.709 137.819 138.53 138.708 139.343 139.449 139.964 137.131 
136.737 137.14 136.801 137.253 137.043 137.549 137.413 137.907 137.787 
138.315 138.305 138.958 139.074 139.744 139.836 140.385 140.407 140.878 
132.608 133.382 133.175 133.542 134.179 133.965 134.325 134.11 134.503 
135.026 134.788 135.189 134.94 135.332 135.11 135.609 135.994 135.689 
136.134 135.871 136.311 136.02 136.505 136.315 136.951 137.112 136.729 
137.163 136.872 137.36 137.061 137.553 137.287 137.891 137.743 138.437 
138.253 137.869 138.268 137.945 138.429 138.134 138.645 138.363 138.938 
138.731 139.391 139.245 139.91 139.251 138.937 139.324 139.039 139.51 
139.224 139.725 139.442 139.984 139.762 140.375 140.211 140.853 140.698 
141.322 140.143 139.86 140.254 140.033 140.534 140.297 140.793 140.508 
140.991 140.748 141.295 141.143 141.758 141.631 142.252 142.098 142.694 
141.036 140.743 141.145 140.939 141.473 141.29 141.815 141.556 142.002 
141.721 142.195 142.011 142.59 142.489 143.114 143.004 143.6 143.444 
143.996 148.234 147.735 147.817 147.357 146.993 147.194 146.696 146.778 
146.137 146.099 146.311 145.716 145.901 145.217 145.37 144.721 145.192 
145.346 144.665 144.824 144.157 144.366 143.821 144.022 143.556 144.261 
144.39 143.678 143.8 143.178 143.378 142.939 143.175 142.79 142.971 
142.525 143.377 143.458 142.766 142.858 142.254 142.452 141.992 142.279 
141.84 142.116 141.61 141.839 141.311 142.66 142.678 142.046 142.053 
141.444 141.553 141.007 141.247 140.696 141.001 140.418 140.751 140.215 
140.547 140.096 142.029 142.057 141.484 141.454 140.833 140.816 140.2 
140.282 139.694 139.868 139.3 139.544 139.046 139.384 138.99 139.37 
139.012 141.391 141.447 140.913 140.921 140.301 140.244 139.57 139.544 
138.942 139.01 138.504 138.62 138.159 138.341 137.94 138.251 137.903 
138.284 137.915 
POINT_DATA 1002
SCALARS Distance double
LOOKUP_TABLE default
136.803 135.879 135.746 136.833 135.727 138.016 136.911 135.741 138.123 
139.244 136.883 135.732 138.123 139.329 140.483 136.983 135.961 138.144 
139.408 140.761 142.083 137.615 136.599 138.705 139.886 141.244 142.634 
143.796 138.465 137.329 139.675 140.875 142.098 143.335 144.434 145.363 
139.088 137.993 140.353 141.703 143.018 144.207 145.272 146.294 147.299 
139.76 138.843 140.886 142.246 143.739 145.155 146.373 147.499 148.642 
149.685 140.776 139.966 141.8 143.104 144.623 146.186 147.621 148.855 
149.966 151.008 151.87 135.029 134.806 134.096 133.756 132.893 134.676 
132.475 131.595 133.552 134.642 131.278 130.656 132.38 133.579 134.712 
130.529 130.138 131.419 132.607 133.804 135.069 130.168 129.926 130.799 
131.799 133.002 134.275 135.712 130.243 130.205 130.578 131.288 132.385 
133.657 134.964 136.429 130.898 131.018 130.958 131.335 132.198 133.405 
134.6 135.831 137.292 131.899 132.044 131.84 131.988 132.552 133.569 
134.687 135.728 136.954 138.444 132.976 132.907 133.911 134.008 134.925 
132.969 135.272 136.175 134.292 133.293 136.731 137.637 135.732 134.778 
134.039 138.282 139.126 137.288 136.303 135.598 135.098 139.809 140.547 
138.96 138.01 137.219 136.666 136.149 141.288 141.933 140.609 139.832 
139.022 138.366 137.817 137.294 142.721 143.277 142.144 141.518 140.805 
140.144 139.644 139.194 138.751 144.082 144.53 143.6 143.083 142.492 
141.901 141.46 141.129 140.753 140.326 141.764 142.226 143.799 142.672 
144.213 146.009 143.05 144.693 146.35 148.348 143.392 145.171 146.867 
148.697 150.682 143.811 145.523 147.301 149.126 151.095 152.81 144.308 
145.839 147.512 149.372 151.47 153.29 154.608 144.776 146.199 147.735 
149.499 151.707 153.726 155.031 156.129 145.188 146.543 148.039 149.684 
151.78 153.946 155.364 156.33 157.556 145.565 146.834 148.293 149.854 
151.701 153.792 155.408 156.415 157.534 158.995 142.803 145.279 144.197 
147.899 147.109 145.824 150.284 149.735 148.753 147.425 152.37 151.724 
150.961 150.092 148.957 154.306 153.648 152.78 152.139 151.502 150.361 
156.153 155.833 155.054 154.263 153.658 152.79 151.479 157.914 157.977 
157.526 156.759 155.924 154.887 153.653 152.383 159.54 159.783 159.572 
159.021 158.252 157.101 155.646 154.333 153.19 160.869 161.225 162.367 
162.336 163.165 161.164 163.211 163.826 162.218 160.836 164.338 164.537 
163.45 162.074 160.338 164.939 164.627 164.407 163.174 161.507 159.384 
164.549 164.167 164.255 163.346 162.116 160.232 157.81 163.966 163.728 
163.664 162.86 162.015 160.712 158.492 156.147 163.423 163.176 163.232 
162.522 161.722 160.767 159.003 156.741 154.797 162.464 162.175 162.457 
161.991 161.237 160.336 158.918 156.955 155.06 153.452 159.491 161.528 
159.943 161.922 160.191 162.994 161.654 159.975 163.125 163.611 160.684 
159.266 162.382 163.537 163.983 159.647 158.358 161.195 162.834 163.738 
164.187 158.876 157.5 160.289 161.965 163.282 163.748 163.951 158.143 
156.785 159.472 160.999 162.559 163.407 163.54 163.613 157.383 156.116 
158.51 159.716 161.199 162.505 163.096 163.203 163.235 156.525 155.249 
157.566 158.486 159.614 160.916 161.919 162.399 162.53 162.457 145.575 
146.783 146.707 148.109 147.907 148.23 149.473 149.134 149.663 149.797 
150.804 150.36 151.02 151.237 151.5 152.069 151.521 152.347 152.656 
153.083 153.507 153.188 152.538 153.657 154.222 154.802 155.153 155.347 
154.186 153.476 154.806 155.66 156.567 156.945 156.809 156.603 155.188 
154.417 155.831 156.689 157.753 158.504 158.578 158.236 157.865 144.183 
145.203 143.745 144.718 143.204 146.28 144.151 142.699 145.748 147.377 
143.694 142.423 145.202 146.749 148.467 143.482 142.31 144.821 146.238 
147.731 149.597 143.298 142.054 144.581 145.957 147.297 148.806 150.716 
142.903 141.635 144.216 145.634 147.101 148.394 149.868 151.724 142.479 
141.352 143.715 145.065 146.668 148.158 149.329 150.786 152.665 142.275 