# vtk DataFile Version 4.0
vtk output
ASCII
DATASET POLYDATA
POINTS 1002 float
-81.6449 -78.3518 70.1697 -81.8023 -77.6386 69.0547 -81.3139 -77.2795 69.8057 
-81.1297 -78.1426 71.0211 -80.6177 -77.1246 70.5541 -81.5483 -79.2739 71.6292 
-80.4719 -78.1472 71.9633 -79.8238 -77.1899 71.4058 -81.0532 -79.2426 72.6771 
-81.4719 -80.3943 73.3937 -79.8503 -78.2704 73.1157 -79.2659 -77.3065 72.606 
-80.4543 -79.3238 73.7896 -80.9277 -80.4939 74.5356 -81.2846 -81.6604 75.1228 
-79.3861 -78.3897 74.5416 -78.9239 -77.3934 74.1147 -79.8867 -79.4405 75.0225 
-80.2754 -80.6652 75.6194 -80.6622 -81.926 76.2651 -81.1225 -83.1104 76.8874 
-78.8336 -78.5295 76.019 -78.481 -77.4826 75.6351 -79.3169 -79.6361 76.3987 
-79.6999 -80.9512 76.8103 -80.034 -82.3475 77.3995 -80.5156 -83.6337 78.1253 
-81.025 -84.8228 78.8846 -78.2141 -78.7228 77.4064 -78.007 -77.5922 77.1434 
-78.653 -79.9681 77.7546 -79.1559 -81.3732 78.1517 -79.5801 -82.854 78.698 
-79.9727 -84.2554 79.3811 -80.3787 -85.5553 80.0657 -80.6949 -86.8007 80.6648 
-77.951 -79.0211 78.859 -77.8276 -77.8019 78.7376 -78.2278 -80.4233 79.0868 
-78.5996 -81.9022 79.4449 -79.0644 -83.3621 79.9892 -79.4818 -84.8241 80.6296 
-79.7742 -86.2786 81.1856 -79.9962 -87.6767 81.6146 -80.2009 -88.9866 81.9894 
-78.1392 -79.4993 80.3709 -78.0246 -78.209 80.2475 -78.2711 -80.9892 80.5389 
-78.305 -82.5109 80.7653 -78.4625 -83.9279 81.1472 -78.825 -85.4008 81.693 
-79.1672 -87.0267 82.2268 -79.4155 -88.5954 82.6219 -79.6454 -90.0026 82.9226 
-79.8964 -91.2829 83.2335 -78.516 -80.1084 81.7189 -78.4381 -78.7871 81.483 
-78.5241 -81.5874 81.9972 -78.316 -83.0923 82.2285 -78.1276 -84.5119 82.4149 
-78.2611 -86.0155 82.7035 -78.6075 -87.7992 83.1528 -78.9524 -89.5864 83.6349 
-79.2673 -91.0866 84.0124 -79.553 -92.3959 84.2859 -79.8043 -93.6109 84.5358 
-81.6314 -76.7349 68.4507 -81.0522 -76.341 69.2385 -81.2691 -75.7686 67.7083 
-80.5954 -75.3697 68.5289 -80.7539 -74.6957 66.9241 -80.1977 -76.1893 69.9359 
-80.0572 -74.2382 67.7875 -80.4019 -73.4507 66.4162 -79.7262 -75.1439 69.2378 
-79.3466 -76.1832 70.7716 -79.7849 -72.8008 67.3885 -80.4607 -72.0353 66.3414 
-79.3628 -73.7692 68.6705 -79.0235 -74.879 70.23 -78.8857 -76.1558 72.1066 
-79.9594 -71.2092 67.5664 -80.8852 -70.6421 66.6733 -79.2928 -72.0667 68.6171 
-78.9046 -73.2056 70.0534 -78.7293 -74.6228 71.858 -78.6694 -76.1722 73.8041 
-80.4724 -69.9536 68.1991 -81.5365 -69.6185 67.3137 -79.5394 -70.5575 69.1386 
-78.9621 -71.5507 70.3892 -78.724 -72.9557 72.017 -78.6473 -74.6817 73.7951 
-78.3735 -76.3045 75.5395 -81.1401 -69.3504 68.9384 -82.2426 -69.1849 68.044 
-80.0375 -69.7482 69.9149 -79.2251 -70.477 71.0843 -78.8192 -71.6593 72.5003 
-78.7537 -73.2991 74.0907 -78.562 -75.0453 75.7405 -78.0731 -76.5006 77.3289 
-81.8302 -69.2728 69.6354 -82.8668 -69.2322 68.7976 -80.7266 -69.5509 70.6849 
-79.7787 -70.0508 71.9408 -79.1331 -70.907 73.241 -78.9203 -72.2975 74.5871 
-78.8756 -73.9781 76.1099 -78.4795 -75.4795 77.6934 -78.0125 -76.7893 79.093 
-82.5078 -69.4408 70.4326 -83.4187 -69.4779 69.68 -81.5277 -69.6357 71.4747 
-80.5918 -69.9835 72.8229 -79.7674 -70.5307 74.1584 -79.2417 -71.6001 75.3082 
-79.1347 -73.1623 76.5591 -78.978 -74.6723 78.036 -78.5222 -75.932 79.4397 
-78.2589 -77.2502 80.5605 -83.4731 -69.7161 71.182 -82.5929 -69.8166 72.1168 
-83.5792 -70.1988 72.8437 -82.7274 -70.4615 73.9745 -83.5303 -71.0408 74.3716 
-81.6859 -70.0921 73.4396 -82.6558 -71.3933 75.5724 -83.3461 -72.0066 75.8466 
-81.8101 -70.7607 75.38 -80.7507 -70.4264 74.9262 -82.5482 -72.4096 77.2105 
-83.4164 -72.8289 77.7683 -81.7413 -71.7231 76.9919 -80.8138 -71.1467 76.7876 
-79.8767 -71.1399 76.1622 -82.7322 -73.3369 79.3814 -83.7284 -73.6326 79.9282 
-81.8058 -72.818 78.905 -80.9177 -72.2575 78.5532 -80.0413 -72.1707 78.018 
-79.4407 -72.5809 77.2608 -82.9745 -74.2751 81.4586 -83.9375 -74.6162 81.6587 
-82.0409 -73.8512 81.1499 -81.2675 -73.4429 80.6915 -80.4576 -73.4393 79.9916 
-79.7663 -73.801 79.2163 -79.3422 -74.2256 78.577 -83.1337 -75.4325 82.9398 
-84.0668 -75.8203 82.9959 -82.1717 -75.0123 82.8836 -81.5249 -74.6264 82.6861 
-80.9172 -74.6305 82.0511 -80.1763 -74.9743 81.1619 -79.558 -75.2832 80.4656 
-79.0405 -75.5474 79.9669 -83.3755 -76.8059 84.1989 -84.178 -77.1886 84.2012 
-82.3878 -76.4389 84.1703 -81.6476 -76.0732 84.1357 -81.1057 -75.9436 83.8086 
-80.4212 -76.1416 83.0553 -79.7469 -76.3849 82.2419 -79.2214 -76.5704 81.6331 
-78.713 -76.8457 81.1184 -83.6131 -78.1694 85.3982 -84.1729 -78.5501 85.2276 
-82.788 -77.8646 85.4403 -81.9611 -77.6178 85.3999 -81.279 -77.4631 85.2319 
-80.55 -77.4859 84.7778 -79.8592 -77.6371 84.0658 -79.4373 -77.8313 83.3023 
-79.1214 -78.0908 82.6221 -78.7569 -78.4243 82.0346 -78.8978 -80.3263 82.7725 
-79.1866 -80.025 83.3893 -79.0514 -82.0238 84.2605 -79.4031 -79.6778 84.1655 
-79.3113 -81.8107 84.986 -78.8273 -83.7993 85.8401 -79.5586 -79.3342 85.0301 
-79.4852 -81.4846 85.857 -79.1657 -83.797 86.5872 -78.7451 -85.9285 87.2527 
-80.0084 -79.0985 85.7472 -79.7347 -81.1049 86.5992 -79.541 -83.6186 87.3034 
-79.2284 -86.1749 87.959 -79.0309 -88.4389 88.4823 -80.8392 -79.0168 86.2203 
-80.3732 -80.8704 87.0273 -80.0786 -83.3138 87.7435 -79.8093 -86.111 88.5052 
-79.4766 -88.6614 89.1492 -79.1881 -90.9678 89.6237 -81.6986 -79.0183 86.5245 
-81.2337 -80.7669 87.3577 -80.7604 -83.0819 88.0272 -80.4525 -85.8252 88.8377 
-80.0467 -88.5164 89.5817 -79.4763 -91.0219 90.1237 -79.0071 -93.5888 90.6432 
-82.5196 -79.0629 86.6909 -82.0724 -80.6206 87.7039 -81.4351 -82.8349 88.417 
-80.9908 -85.4851 89.1603 -80.6776 -88.1375 89.8645 -80.0728 -90.8145 90.3735 
-79.328 -93.6263 90.9782 -78.8503 -96.4538 91.6159 -83.3013 -79.2381 86.6414 
-82.9006 -80.5409 87.8304 -82.2442 -82.5141 88.7582 -81.5757 -85.0482 89.5167 
-81.2151 -87.6109 90.1336 -80.8189 -90.3145 90.5373 -80.0846 -93.3615 91.1 
-79.351 -96.3872 91.9411 -78.9298 -99.0838 92.5184 -83.8601 -79.5829 86.3528 
-83.5808 -80.7074 87.587 -83.1566 -82.3489 88.7527 -82.4772 -84.6151 89.6884 
-81.8694 -87.0053 90.3341 -81.4737 -89.5446 90.6951 -80.9172 -92.6382 91.1242 
-80.1467 -95.8634 91.9447 -79.5082 -98.6369 92.7658 -79.1358 -100.973 93.036 
-78.793 -81.8085 83.22 -78.6041 -83.525 84.867 -78.4606 -83.3335 83.6684 
-78.3692 -85.4257 86.39 -78.1851 -85.0987 85.3238 -78.1037 -84.8683 83.8994 
-78.6179 -87.9184 87.6512 -78.3174 -87.3533 86.6759 -78.1659 -86.9444 85.4288 
-78.0811 -86.5509 83.9691 -78.9679 -90.8359 88.902 -78.7176 -90.411 87.9355 
-78.5713 -89.8109 86.798 -78.4566 -89.2336 85.4936 -78.3754 -88.6068 84.2091 
-78.9382 -93.8578 90.163 -78.8379 -93.925 89.3665 -78.7306 -93.4921 88.3274 
-78.7627 -92.6429 87.1294 -78.7513 -91.7555 85.8859 -78.7379 -90.7699 84.7141 
-78.7516 -96.9874 91.2094 -78.7906 -97.4553 90.5405 -78.7293 -97.5063 89.6988 
-78.736 -96.6949 88.683 -78.8961 -95.3324 87.5479 -79.0081 -93.9586 86.4029 
-79.0891 -92.5475 85.2205 -78.6974 -99.9223 92.0381 -78.7429 -100.617 91.221 
-78.8108 -101.076 90.3379 -78.767 -100.82 89.4857 -78.8193 -99.4876 88.5838 
-79.0306 -97.5935 87.6598 -79.2417 -95.7403 86.6811 -79.3957 -94.0019 85.5228 
-78.7938 -102.178 92.5908 -78.6689 -103.117 91.6935 -78.7325 -103.74 90.6041 
-78.7609 -104.009 89.6095 -78.7311 -103.443 88.788 -78.8497 -101.764 88.104 
-79.1285 -99.5337 87.4747 -79.4086 -97.3479 86.6991 -79.6186 -95.362 85.6676 
-79.1098 -103.25 92.8017 -78.7281 -104.773 92.2139 -79.0623 -105.631 92.0434 
-78.5598 -107.283 91.6041 -78.9556 -107.948 91.1444 -78.5135 -105.737 91.2084 
-78.3642 -109.485 90.8018 -78.8333 -109.668 90.0461 -78.2194 -108.141 90.6513 
-78.4861 -106.248 89.9463 -78.315 -111.204 89.3318 -78.9566 -110.748 88.5928 
-77.9812 -110.43 89.6045 -78.1157 -108.611 89.1512 -78.4972 -106.41 88.7669 
-78.6824 -112.456 87.4796 -79.5946 -111.522 87.2906 -77.9881 -112.438 87.7514 
-77.9221 -110.891 87.8524 -78.2724 -108.541 87.8435 -78.618 -105.559 87.9851 
-79.5585 -112.896 86.0906 -80.4895 -111.72 86.3984 -78.4383 -113.429 85.9534 
-78.0203 -112.422 86.2284 -78.3508 -110.08 86.7891 -78.7163 -107.124 87.2745 
-78.9316 -103.462 87.5455 -80.5457 -112.264 85.159 -81.1686 -111.072 85.6599 
-79.3621 -112.949 84.8121 -78.4784 -112.513 84.9705 -78.5767 -110.593 85.7262 
-79.0057 -107.821 86.5722 -79.1774 -104.55 87.0557 -79.2935 -100.837 87.109 
-81.2665 -110.973 84.5606 -81.6091 -109.83 85.179 -80.3797 -111.584 84.1672 
-79.3205 -111.474 84.269 -78.951 -110.191 84.937 -79.2339 -107.784 85.8367 
-79.4562 -104.835 86.5121 -79.524 -101.583 86.7256 -79.6086 -98.2694 86.4143 
-81.7686 -109.322 84.5 -82.0423 -108.181 85.1403 -81.1558 -109.906 84.0686 
-80.2649 -109.917 84.1273 -79.6408 -109.133 84.6696 -79.5868 -107.238 85.3859 
-79.7449 -104.535 86.0032 -79.8277 -101.609 86.3242 -79.8822 -98.7016 86.1423 
-79.8901 -95.9725 85.4573 -79.5237 -100.871 93.0516 -79.4812 -102.911 92.4782 
-79.8114 -100.446 92.5699 -79.745 -102.318 91.7953 -80.147 -99.9533 91.9038 
-79.5134 -105.222 91.4414 -80.105 -101.77 91.2913 -80.9904 -99.1821 91.4623 
-79.9257 -104.544 90.8962 -79.5092 -107.475 90.4162 -80.9493 -100.844 91.0608 
-82.3075 -97.8084 91.2862 -80.4265 -103.757 90.7802 -80.0995 -106.651 90.0697 
-79.4501 -108.98 89.2818 -82.1536 -99.2733 90.8517 -83.446 -96.2222 91.0595 
-81.2042 -102.37 90.6406 -80.7146 -105.397 90.0595 -80.117 -107.967 88.9929 
-79.6783 -109.855 88.0841 -83.2303 -97.6026 90.5289 -84.0927 -94.8201 90.3979 
-82.2353 -100.502 90.3705 -81.4743 -103.361 89.9136 -80.8018 -106.192 88.9832 
-80.3383 -108.552 88.0077 -80.341 -110.347 87.2571 -83.9682 -96.0016 89.8524 
-84.5398 -93.4085 89.3198 -83.2728 -98.7397 90.1014 -82.5191 -101.196 89.8508 
-81.7474 -103.667 89.0967 -81.1302 -106.275 88.2281 -80.9036 -108.499 87.4755 
-81.0152 -110.109 86.6539 -84.5553 -94.2574 88.84 -85.1123 -91.9327 88.2796 
-84.0832 -96.9388 89.4818 -83.5853 -99.3573 89.729 -82.9518 -101.413 89.3139 
-82.3098 -103.622 88.6142 -81.7992 -105.899 87.9095 -81.4941 -107.779 87.0746 
-81.4754 -109.115 86.1035 -85.232 -92.5516 87.8793 -85.822 -90.623 87.5173 
-84.7815 -94.971 88.527 -84.4203 -97.4388 89.1144 -83.9808 -99.5073 89.1684 
[...]
CELL_DATA 2000
SCALARS Distance double
LOOKUP_TABLE default
131.504 131.43 131.811 132.572 131.431 131.812 132.694 133.072 134.008 
131.672 131.961 132.937 133.288 134.305 134.646 135.612 132.221 132.392 
133.375 133.631 134.644 134.967 135.973 136.277 137.264 132.857 133.006 
133.946 134.144 135.128 135.372 136.414 136.693 137.792 138.059 139.19 
133.467 133.595 134.512 134.713 135.733 135.95 137.066 137.286 138.476 
138.702 139.906 140.127 141.271 134.281 134.277 135.241 135.348 136.432 
136.617 137.789 138.021 139.237 139.471 140.662 140.871 141.985 142.164 
143.187 135.426 135.298 136.348 136.296 137.412 137.442 138.573 138.735 
139.902 140.172 141.352 141.608 142.736 142.904 143.967 144.072 145.098 
136.72 136.582 137.67 137.564 138.658 138.559 139.59 139.574 140.637 
140.804 141.994 142.273 143.516 143.724 144.912 144.987 146.11 146.117 
147.198 130.885 129.84 130.509 130.747 128.589 129.374 129.626 130.33 
130.63 127.276 128.055 128.335 129.121 129.423 130.228 130.739 126.201 
126.79 127.032 127.797 128.143 128.983 129.526 130.477 131.239 125.583 
125.884 126.048 126.606 126.978 127.75 128.362 129.298 130.132 131.122 
131.954 125.521 125.525 125.666 125.888 126.254 126.786 127.458 128.262 
129.181 130.115 131.053 131.903 132.677 125.952 125.742 125.916 125.836 
126.198 126.394 127.071 127.603 128.578 129.353 130.415 131.182 132.086 
132.732 133.526 126.692 126.369 126.591 126.348 126.742 126.672 127.316 
127.519 128.452 128.978 130.106 130.767 131.811 132.363 133.233 133.751 
134.635 127.612 127.226 127.5 127.188 127.644 127.44 128.07 128.016 
128.827 129.06 130.109 130.629 131.744 132.266 133.208 133.623 134.475 
134.969 135.899 128.261 129.396 128.589 128.215 130.724 129.888 129.581 
128.714 128.456 132.013 131.255 131.036 130.198 129.961 129.085 128.903 
133.426 132.592 132.429 131.632 131.442 130.609 130.432 129.602 129.58 
135.201 134.216 134.105 133.152 133.053 132.14 132.076 131.199 131.274 
130.484 130.781 137.005 136.087 136.026 135.028 135.01 133.989 134.044 
133.044 133.224 132.33 132.676 131.916 132.36 138.599 137.8 137.761 
136.904 136.923 136.026 136.123 135.163 135.318 134.38 134.634 133.824 
134.151 133.448 133.774 140.157 139.383 139.396 138.573 138.635 137.842 
137.986 137.165 137.299 136.412 136.544 135.704 135.907 135.164 135.42 
134.733 135.019 141.648 140.97 141.067 140.268 140.38 139.571 139.756 
138.965 139.14 138.295 138.418 137.553 137.726 136.92 137.194 136.437 
136.776 136.045 136.431 137.573 137.916 138.328 139.511 138.315 138.699 
139.911 140.312 141.459 138.797 139.113 140.322 140.737 141.965 142.286 
143.435 139.427 139.633 140.769 141.143 142.411 142.819 144.1 144.396 
145.662 140.139 140.303 141.354 141.614 142.825 143.25 144.609 145.052 
146.397 146.713 147.991 140.785 140.993 142.025 142.221 143.334 143.679 
145.004 145.51 146.886 147.33 148.568 148.915 150.123 141.391 141.611 
142.65 142.856 143.9 144.183 145.397 145.874 147.206 147.712 148.935 
149.348 150.526 150.956 152.255 141.984 142.196 143.189 143.423 144.429 
144.7 145.808 146.223 147.446 147.953 149.144 149.621 150.806 151.3 
152.622 153.148 154.517 142.451 142.689 143.587 143.876 144.848 145.167 
146.226 146.596 147.701 148.137 149.229 149.73 150.872 151.471 152.756 
153.414 154.733 155.311 156.453 137.787 139.747 138.776 138.797 141.637 
140.725 140.753 139.796 139.763 143.57 142.598 142.633 141.7 141.682 
140.702 140.629 145.837 144.704 144.795 143.696 143.77 142.69 142.694 
141.613 141.638 148.288 147.183 147.416 146.159 146.363 145.073 145.244 
143.945 144.081 142.854 143.044 150.614 149.701 150.193 149.011 149.399 
148.007 148.314 146.841 147.093 145.632 145.846 144.484 144.678 152.896 
152.087 152.832 151.848 152.481 151.212 151.64 150.132 150.393 148.827 
149.003 147.483 147.579 146.135 146.161 155.166 154.438 155.22 154.422 
155.129 154.171 154.68 153.415 153.638 152.122 152.167 150.614 150.594 
149.079 148.989 147.514 147.388 157.048 156.557 157.214 156.605 157.155 
156.478 156.907 156.066 156.273 155.107 155.063 153.638 153.49 151.999 
151.83 150.334 150.128 148.656 148.46 158.022 159.299 158.613 158.297 
160.394 159.861 159.636 158.759 158.226 161.188 160.902 160.733 160 
159.447 158.55 157.909 161.455 161.48 161.434 160.972 160.428 159.636 
158.943 158.113 157.317 161.509 161.598 161.677 161.486 161.082 160.486 
159.782 159.032 158.215 157.332 156.242 161.584 161.651 161.666 161.603 
161.265 160.936 160.279 159.723 158.892 158.136 157.056 156.048 154.72 
161.305 161.534 161.354 161.42 160.959 160.869 160.194 159.935 159.104 
158.619 157.559 156.754 155.433 154.407 153.009 160.564 160.94 160.665 
160.85 160.31 160.354 159.67 159.601 158.794 158.555 157.543 157.031 
155.764 154.969 153.557 152.62 151.237 159.662 160.063 159.809 160.035 
159.55 159.639 159.041 159.029 158.302 158.136 157.183 156.827 155.646 
155.092 153.759 153.017 151.64 150.795 149.491 157.954 157.79 158.317 
159.07 157.261 157.892 158.651 159.304 160.065 156.825 157.345 158.099 
158.776 159.601 160.237 160.852 156.527 156.988 157.737 158.33 159.159 
159.754 160.356 160.817 161.127 156.1 156.63 157.279 157.928 158.68 
159.32 159.861 160.302 160.584 160.948 161.186 155.411 156.073 156.62 
157.295 157.872 158.608 159.061 159.675 159.933 160.402 160.659 161.081 
161.337 154.372 155.226 155.831 156.561 157.063 157.697 158.052 158.679 
158.945 159.586 159.841 160.446 160.667 161.136 161.154 153.124 154.041 
154.71 155.645 156.25 156.936 157.295 157.775 158.029 158.57 158.849 
159.478 159.664 160.247 160.236 160.674 160.448 152.054 152.802 153.403 
154.393 155.074 155.995 156.453 157.066 157.306 157.788 158.027 158.545 
158.712 159.202 159.166 159.617 159.435 159.829 159.543 142.909 143.952 
143.62 144.059 145.292 144.816 145.348 144.922 145.423 146.81 146.325 
146.907 146.406 147 146.443 146.926 147.84 147.675 148.218 147.934 
148.501 148.067 148.545 147.961 148.366 148.302 148.352 148.893 148.922 
149.495 149.356 149.845 149.467 149.871 149.353 149.781 148.991 148.857 
149.559 149.546 150.362 150.282 151.026 150.727 151.342 150.863 151.451 
150.886 151.477 150.095 149.839 150.683 150.539 151.608 151.446 152.482 
152.142 153.002 152.5 153.273 152.702 153.467 152.806 153.487 151.031 
150.947 151.775 151.768 152.84 152.824 153.871 153.691 154.521 154.173 
154.857 154.458 155.152 154.731 155.436 154.853 155.442 151.579 151.677 
152.472 152.655 153.637 153.828 154.747 154.806 155.495 155.392 155.894 
155.707 156.18 156.022 156.584 156.419 156.995 156.601 157.034 142.408 
141.969 142.597 143.43 141.525 142.192 143.123 143.733 144.731 141.061 
141.765 142.768 143.459 144.514 145.176 146.223 140.517 141.247 142.18 
142.997 144.022 144.848 145.838 146.552 147.303 139.925 140.623 141.431 
142.259 143.167 144.113 145.041 145.94 146.679 147.329 147.815 139.461 
140.041 140.813 141.505 142.34 143.174 144.063 144.985 145.832 146.627 
147.318 147.857 148.478 139.245 139.689 140.455 140.999 141.814 142.462 
143.304 144.07 144.953 145.793 146.706 147.438 148.289 148.791 149.561 
139.159 139.543 140.249 140.718 141.482 142.034 142.814 143.435 144.216 
144.967 145.86 146.76 147.735 148.534 149.355 149.88 150.5 139.028 
139.417 140.041 140.49 141.178 141.702 142.444 143.004 143.725 144.316 
145.057 145.849 146.736 147.723 148.594 149.429 150.038 150.584 151.018 
139.108 139.56 139.584 140.127 140.133 140.078 140.642 140.666 141.268 
140.86 140.691 141.226 141.231 141.91 141.923 142.574 141.712 141.432 
141.89 141.853 142.609 142.662 143.417 143.317 143.908 142.645 142.304 
142.697 142.564 143.352 143.434 144.313 144.243 144.862 144.626 145.184 
143.518 143.253 143.68 143.466 144.223 144.24 145.165 145.156 145.833 
145.608 146.155 145.966 146.726 144.166 144.092 144.646 144.5 145.235 
145.172 146.033 146.008 146.736 146.57 147.157 146.966 147.703 147.651 
148.533 144.631 144.706 145.386 145.401 146.156 146.137 146.931 146.89 
147.654 147.525 148.228 148.026 148.758 148.625 149.405 149.364 150.034 
145.092 145.2 145.937 146.05 146.811 146.903 147.673 147.72 148.522 
148.497 149.328 149.189 149.983 149.753 150.449 150.232 150.802 150.644 
151.083 145.644 146.819 146.311 146.498 148.092 147.526 147.711 147.191 
147.392 149.658 148.952 149.186 148.51 148.734 148.136 148.325 151.472 
150.731 151.03 150.19 150.423 149.642 149.879 149.16 149.31 153.159 
152.574 152.944 152.14 152.34 151.462 151.67 150.867 151.081 150.243 
150.286 154.682 154.193 154.681 154.016 154.268 153.395 153.523 152.674 
152.851 152.061 152.13 151.194 151.029 156.215 155.71 156.242 155.702 
156.087 155.318 155.46 154.537 154.617 153.781 153.819 152.96 152.752 
151.759 151.406 157.673 157.186 157.593 157.154 157.528 157.003 157.173 
156.401 156.39 155.53 155.488 154.615 154.395 153.393 152.948 151.957 
151.568 158.883 158.485 158.752 158.346 158.578 158.2 158.298 157.798 
157.693 157.059 156.91 156.199 155.982 155.052 154.601 153.501 152.982 
152.042 151.713 145.322 145.276 145.722 146.551 145.252 145.729 146.608 
146.985 147.817 145.1 145.667 146.55 147.016 147.871 148.296 149.276 
144.652 145.349 146.202 146.837 147.719 148.287 149.299 149.863 150.985 
144.003 144.736 145.577 146.345 147.298 148.037 149.097 149.79 150.909 
151.541 152.612 143.448 144.089 144.942 145.698 146.728 147.56 148.691 
149.49 150.609 151.335 152.425 153.07 154.106 143.047 143.62 144.463 
145.146 146.175 147.002 148.156 149.014 150.137 150.934 152.06 152.825 
154.006 154.641 155.722 142.652 143.232 144.042 144.701 145.665 146.456 
147.563 148.437 149.56 150.403 151.549 152.41 153.699 154.53 155.795 
156.351 157.331 142.237 142.812 143.606 144.257 145.165 145.914 146.946 
147.804 148.922 149.804 150.977 151.88 153.189 154.149 155.505 156.321 
157.419 157.873 158.613 144.554 143.432 144.069 144.391 142.589 142.982 
143.107 143.878 144.287 141.872 142.206 142.135 142.642 142.887 143.761 
144.16 140.735 141.344 141.257 141.713 141.752 142.419 142.704 143.572 
143.815 139.096 139.943 139.927 140.631 140.6 141.265 141.37 142.143 
142.322 143.126 143.23 137.464 138.264 138.273 139.088 139.08 139.888 
139.917 140.734 140.823 141.638 141.755 142.543 142.676 136.099 136.779 
136.811 137.505 137.498 138.258 138.277 139.127 139.213 140.092 140.235 
141.083 141.268 142.073 142.273 134.887 135.52 135.573 136.185 136.164 
136.784 136.766 137.499 137.591 138.455 138.658 139.56 139.805 140.666 
140.896 141.698 141.893 133.706 134.325 134.354 134.969 134.938 135.522 
135.48 136.103 136.168 136.922 137.142 138.014 138.315 139.205 139.485 
140.316 140.534 141.308 141.493 133.017 132.076 132.931 133.648 131.149 
131.986 132.75 133.558 134.233 130.505 131.173 131.958 132.697 133.434 
134.163 134.825 130.246 130.709 131.478 132.059 132.857 133.492 134.261 
134.866 135.584 130.218 130.572 131.307 131.751 132.575 133.1 133.944 
134.469 135.276 135.786 136.589 130.288 130.595 131.339 131.697 132.52 
132.955 133.814 134.278 135.115 135.588 136.431 136.922 137.776 130.509 
130.739 131.522 131.815 132.649 132.996 133.842 134.225 135.06 135.485 
136.343 136.816 137.689 138.158 138.977 130.892 131.043 131.805 132.054 
132.884 133.186 134.023 134.331 135.158 135.503 136.367 136.782 137.666 
138.1 138.92 139.327 140.053 131.323 131.436 132.123 132.34 133.126 
133.421 134.245 134.546 135.363 135.667 136.515 136.871 137.746 138.128 
138.944 139.302 140.026 140.37 141.035 131.776 132.847 132.359 132.592 
134.245 133.586 133.789 133.284 133.6 135.81 135.083 135.223 134.589 
134.855 134.372 134.723 137.476 136.688 136.817 136.08 136.286 135.696 
136.022 135.531 135.871 139.434 138.515 138.7 137.79 137.985 137.219 
137.524 136.917 137.281 136.725 137.066 141.529 140.629 140.874 139.864 
140.047 139.079 139.323 138.535 138.873 138.226 138.576 137.972 138.296 
143.449 142.684 142.986 142.075 142.255 141.236 141.38 140.436 140.666 
139.891 140.19 139.523 139.81 139.189 139.455 145.351 144.586 144.976 
144.141 144.4 143.424 143.549 142.524 142.66 141.747 141.978 141.197 
141.452 140.733 140.95 140.294 140.507 147.429 146.6 147.063 146.202 
146.566 145.598 145.79 144.717 144.812 143.781 143.936 143.046 143.265 
142.453 142.64 141.857 142.012 141.319 141.502 142.258 142.851 142.913 
143.687 143.57 143.626 144.468 144.467 145.295 144.275 144.392 145.31 
145.329 146.218 146.184 147.087 145.027 145.147 146.175 146.221 147.228 
147.205 148.224 148.139 149.116 146.007 146.066 147.26 147.249 148.465 
148.397 149.648 149.496 150.662 150.365 151.345 147.078 147.2 148.552 
148.553 149.962 149.885 151.373 151.202 152.599 152.208 153.344 152.775 
153.719 147.916 148.236 149.674 149.868 151.341 151.434 152.976 152.992 
154.462 154.238 155.407 154.9 155.828 155.211 156.039 148.453 148.943 
150.426 150.837 152.305 152.616 154.069 154.337 155.702 155.811 156.875 
156.694 157.468 157.106 157.775 157.323 157.886 148.827 149.39 150.897 
151.444 152.927 153.379 154.762 155.144 156.381 156.674 157.641 157.734 
158.408 158.324 158.867 158.681 159.136 158.794 159.065 127.559 126.612 
127.093 127.171 125.842 126.178 126.173 126.685 126.872 125.434 125.544 
125.5 125.792 125.989 126.557 127.038 125.542 125.398 125.391 125.383 
125.569 125.884 126.419 127.006 127.646 126.124 125.767 125.817 125.586 
125.737 125.73 126.125 126.5 127.08 127.639 128.173 127.103 126.542 
126.586 126.218 126.392 126.142 126.378 126.369 126.747 127.083 127.579 
128.109 128.694 128.383 127.677 127.673 127.144 127.362 126.978 127.255 
126.905 127.191 127.043 127.504 127.704 128.396 128.856 129.696 129.68 
129.009 128.984 128.354 128.535 128.072 128.418 127.985 128.325 127.881 
128.31 128.081 128.777 128.892 129.804 130.147 131.07 130.773 130.238 
130.243 129.66 129.775 129.278 129.561 129.164 129.513 129.107 129.486 
129.132 129.689 129.563 130.354 130.48 131.365 131.611 132.408 128.176 
127.828 128.367 129.112 127.579 128.049 128.839 129.363 130.119 127.717 
127.944 128.72 129.145 129.945 130.395 131.112 128.215 128.254 128.901 
129.14 129.912 130.291 131.062 131.434 132.172 128.732 128.768 129.33 
129.425 130.112 130.36 131.137 131.46 132.249 132.591 133.403 129.34 
129.313 129.968 129.949 130.633 130.702 131.457 131.644 132.444 132.726 
133.569 133.905 134.746 130.324 130.13 130.866 130.731 131.441 131.363 
132.082 132.108 132.874 133.023 133.847 134.111 134.961 135.26 136.038 
131.556 131.262 131.909 131.708 132.335 132.203 132.839 132.796 133.512 
133.564 134.35 134.485 135.286 135.499 136.258 136.498 137.165 132.756 
132.445 132.944 132.703 133.212 133.046 133.619 133.544 134.246 134.257 
135.041 135.082 135.829 135.898 136.575 136.722 137.349 137.552 138.12 
128.621 129.574 129.273 129.719 130.549 130.255 130.672 130.437 130.95 
131.487 131.2 131.596 131.363 131.825 131.648 132.18 132.531 132.167 
132.581 132.297 132.793 132.554 133.117 132.92 133.586 133.779 133.324 
133.776 133.396 133.965 133.645 134.288 133.998 134.724 134.509 135.333 
135.104 134.639 135.078 134.67 135.242 134.917 135.583 135.274 135.97 
135.711 136.477 136.314 137.1 136.35 135.93 136.307 135.92 136.411 
136.142 136.767 136.534 137.165 136.911 137.554 137.379 138.094 137.977 
138.682 137.457 137.103 137.445 137.069 137.475 137.204 137.773 137.605 
138.237 138.03 138.634 138.411 139.069 138.927 139.648 139.52 140.211 
138.415 138.139 138.494 138.155 138.522 138.219 138.714 138.539 139.169 
139.036 139.685 139.49 140.136 139.937 140.622 140.475 141.156 141.02 
141.645 144.431 144.049 143.956 143.441 143.718 143.676 143.266 143.126 
142.723 143.186 143.311 142.912 142.91 142.469 142.424 141.956 142.361 
142.636 142.15 142.299 141.671 141.843 141.215 141.374 140.681 141.39 
141.697 141.158 141.336 140.582 140.767 140.039 140.314 139.602 139.809 
139.015 140.433 140.682 140.147 140.316 139.62 139.709 139.017 139.161 
138.515 138.68 137.969 138.098 137.377 139.605 139.737 139.185 139.346 
138.748 138.854 138.22 138.294 137.625 137.703 136.972 137.075 136.356 
136.53 135.936 138.986 138.977 138.383 138.46 137.883 138.011 137.387 
137.489 136.745 136.807 135.984 136.072 135.308 135.489 134.885 135.158 
134.688 138.543 138.443 137.819 137.767 137.151 137.19 136.545 136.613 
135.856 135.885 135.059 135.096 134.359 134.482 133.91 134.131 133.675 
133.959 133.538 
POINT_DATA 1002
SCALARS Distance double
LOOKUP_TABLE default
132.149 131.242 131.125 132.163 131.005 133.407 132.272 131.019 133.651 
134.969 132.597 131.405 133.945 135.324 136.547 133.177 132.086 134.355 
135.636 136.966 138.283 133.761 132.729 134.904 136.131 137.482 138.932 
140.36 134.302 133.376 135.481 136.822 138.252 139.698 141.095 142.363 
135.16 134.314 136.267 137.555 138.995 140.47 141.825 143.04 144.166 
136.424 135.544 137.464 138.509 139.66 141.058 142.536 143.853 145.014 
146.119 137.781 136.839 138.807 139.71 140.557 141.7 143.23 144.788 
146.1 147.222 148.259 130.292 130.116 129.115 128.894 127.762 129.872 
127.513 126.557 128.602 129.799 126.306 125.745 127.281 128.553 130.233 
125.608 125.404 126.237 127.423 129.117 131.054 125.572 125.594 125.827 
126.707 128.254 130.182 131.933 126.066 126.202 126.118 126.658 127.856 
129.631 131.441 132.894 126.844 127.036 126.869 127.247 128.051 129.456 
131.238 132.763 134.05 127.804 128.001 127.859 128.213 128.757 129.68 
131.198 132.803 134.064 135.316 128.981 128.988 130.223 130.457 131.496 
129.303 131.816 132.732 130.841 129.746 133.234 134.316 132.243 131.246 
130.308 135.104 136.189 133.984 132.938 132.049 131.469 136.975 137.857 
136.004 135.049 134.15 133.479 133.086 138.572 139.372 137.74 137.031 
136.294 135.516 134.911 134.461 140.209 140.894 139.411 138.758 138.174 
137.432 136.688 136.125 135.68 141.809 142.244 141.186 140.546 139.966 
139.284 138.543 137.951 137.51 137.14 138.744 139.101 140.693 139.49 
141.148 142.543 139.903 141.58 143.175 144.594 140.459 141.951 143.709 
145.424 146.975 141.171 142.435 144.096 146.03 147.745 149.261 141.846 
143.061 144.512 146.413 148.223 149.744 151.372 142.443 143.664 144.983 
146.705 148.508 150.084 151.761 153.642 142.961 144.168 145.461 146.99 
148.652 150.279 152.066 154.049 155.867 143.301 144.503 145.879 147.345 
148.776 150.267 152.079 154.136 156.023 157.473 139.807 141.679 140.778 
143.577 142.648 141.625 145.946 144.866 143.801 142.661 148.636 147.672 
146.558 145.381 144.207 151.217 150.736 149.801 148.592 147.315 146.022 
153.685 153.606 153.116 152.016 150.583 149.12 147.603 155.999 155.989 
155.807 155.13 153.782 152.149 150.523 148.847 157.814 157.839 157.651 
157.276 156.425 154.999 153.338 151.64 149.904 158.785 159.247 159.875 
160.47 160.846 159.199 161.397 161.327 160.34 158.81 161.726 161.321 
161.188 159.768 158.262 161.757 161.457 161.557 160.514 159.076 157.319 
161.748 161.557 161.502 160.745 159.589 158.024 155.84 161.305 161.059 
161.016 160.363 159.481 158.255 156.412 154.06 160.461 160.177 160.233 
159.685 158.968 157.945 156.442 154.45 152.173 159.554 159.259 159.416 
159.005 158.442 157.508 156.11 154.399 152.44 150.315 157.612 158.563 
157.204 157.917 156.672 159.486 157.455 156.359 158.937 160.393 157.159 
156.08 158.609 159.944 160.741 156.666 155.569 158.027 159.419 160.231 
160.789 156 154.674 157.209 158.393 159.386 160.193 161.003 155.015 
153.435 156.487 157.503 158.273 159.19 160.15 160.853 153.683 152.262 
155.442 156.828 157.564 158.264 159.106 159.747 160.115 152.47 151.438 
154.063 155.725 156.815 157.548 158.28 158.764 158.997 159.201 143.186 
144.375 144.297 145.778 145.804 145.893 147.394 147.234 147.552 147.562 
148.402 147.888 148.864 149.097 148.984 148.777 148.251 149.514 150.119 
150.33 150.307 149.556 149.177 150.36 151.225 151.743 151.964 152.095 
150.795 150.324 151.709 152.761 153.467 153.808 154.064 154.258 151.729 
151.048 152.809 154.009 154.852 155.261 155.521 155.885 156.176 141.798 
142.812 141.301 142.468 140.812 144.093 142.02 140.354 143.821 145.633 
141.371 139.833 143.156 145.095 146.79 140.67 139.276 142.258 144.096 
145.941 147.311 140.182 138.931 141.592 143.176 144.928 146.635 148.015 
139.959 138.85 141.229 142.626 144.117 145.823 147.668 149.189 139.825 
138.807 140.969 142.254 143.569 144.97 146.795 148.749 150.134 139.622 
138.657 140.68 141.888 143.197 144.418 145.789 147.631 149.41 150.576 