# vtk DataFile Version 4.0
vtk output
ASCII
DATASET POLYDATA
POINTS 1002 float
-82.584 -85.3493 72.6668 -82.3096 -85.0908 71.4208 -82.2347 -84.5956 72.1717 
-82.573 -84.9225 73.6169 -82.1904 -84.1458 73.2917 -83.025 -85.7556 74.0297 
-82.3651 -84.7746 74.7613 -81.9401 -83.811 74.5403 -82.8449 -85.6739 75.1022 
-83.2988 -86.6149 75.5771 -81.8505 -84.7617 75.8049 -81.4919 -83.5 75.612 
-82.3219 -85.8535 76.1292 -82.7828 -86.8341 76.6742 -83.1789 -87.7408 77.3588 
-81.3623 -84.6123 76.8077 -81.1098 -83.3241 76.7289 -81.7043 -85.8817 77.0114 
-82.0724 -86.9991 77.5608 -82.4888 -88.0208 78.341 -82.898 -88.9714 79.0478 
-81.2135 -84.5308 78.2111 -80.9592 -83.4945 78.2817 -81.4906 -85.6592 78.2069 
-81.6799 -86.926 78.5416 -81.9288 -88.2801 79.2522 -82.3099 -89.4811 79.9628 
-82.6932 -90.5298 80.4888 -81.2729 -84.7348 79.8817 -81.0024 -83.8061 79.9607 
-81.6067 -85.6798 79.8718 -81.764 -86.9694 80.0989 -81.8253 -88.68 80.6165 
-81.9591 -90.2346 81.1831 -82.2161 -91.3433 81.6467 -82.5166 -92.2743 82.0643 
-81.3491 -85.0177 81.2598 -81.1762 -84.0157 81.282 -81.6542 -86.0885 81.4003 
-81.8065 -87.4712 81.8245 -81.8158 -89.3222 82.3782 -81.8178 -91.0794 82.7911 
-81.9039 -92.2486 83.1004 -82.1503 -93.1107 83.4804 -82.4552 -94.0235 83.8662 
-81.4532 -85.3231 82.3812 -81.4295 -84.2864 82.3606 -81.6291 -86.6123 82.5787 
-81.6627 -88.1787 83.1349 -81.5254 -90.0113 83.8427 -81.4887 -91.7435 84.2868 
-81.6383 -93.0014 84.479 -81.9231 -93.9752 84.7766 -82.2748 -95.0082 85.2056 
-82.5278 -96.1203 85.4986 -81.6006 -85.8061 83.5716 -81.686 -84.7924 83.4682 
-81.6654 -87.1723 83.7643 -81.6262 -88.8027 84.2195 -81.3271 -90.5301 84.8514 
-81.1035 -92.1631 85.3423 -81.2927 -93.5793 85.5848 -81.7304 -94.8749 85.8163 
-82.1279 -96.1961 86.1968 -82.3648 -97.5022 86.5551 -82.4094 -98.6595 86.6795 
-82.103 -84.3751 70.6248 -81.9653 -83.851 71.4787 -81.9445 -83.3422 69.9957 
-81.7212 -82.6942 70.9579 -81.8309 -82.0111 69.6432 -81.8927 -83.2689 72.7866 
-81.5013 -81.2306 70.6066 -81.8351 -80.7175 69.4798 -81.633 -82.0707 72.3424 
-81.6988 -82.7306 74.173 -81.4652 -79.9512 70.4105 -82.1077 -79.792 69.514 
-81.4443 -80.7826 71.9606 -81.6046 -81.6673 73.8082 -81.3857 -82.3319 75.3537 
-81.8414 -79.0784 70.6019 -82.7188 -79.1248 69.8183 -81.4732 -79.5997 71.9009 
-81.6268 -80.6543 73.6788 -81.5328 -81.4694 75.2724 -81.0972 -82.2916 76.7318 
-82.578 -78.4589 71.1871 -83.4983 -78.4962 70.2653 -81.8125 -78.594 72.3934 
-81.6762 -79.4025 74.0352 -81.7426 -80.5508 75.6337 -81.3863 -81.5019 77.0424 
-80.9774 -82.5851 78.5606 -83.4166 -78.0612 71.8666 -84.2228 -78.0426 70.7946 
-82.4439 -78.0538 73.1573 -81.8459 -78.3295 74.6786 -81.8053 -79.3306 76.215 
-81.7206 -80.5968 77.5936 -81.3481 -81.7275 78.968 -81.101 -82.8792 80.283 
-84.1874 -77.9509 72.566 -84.8203 -77.979 71.4842 -83.3074 -77.9847 73.9123 
-82.4469 -78.0196 75.3379 -82.0277 -78.5146 76.6987 -81.9387 -79.644 78.0167 
-81.7866 -80.8886 79.3151 -81.5504 -82.0295 80.5334 -81.4125 -83.1511 81.5485 
-84.807 -78.0877 73.3309 -85.3144 -78.2346 72.2892 -84.1655 -78.0565 74.658 
-83.4024 -78.0934 76.0274 -82.7479 -78.3344 77.2251 -82.3435 -79.0519 78.3828 
-82.125 -80.1383 79.5908 -81.997 -81.3102 80.7169 -81.8824 -82.4781 81.7173 
-81.7604 -83.6207 82.6267 -85.4559 -78.4514 73.7857 -84.9417 -78.2091 75.0846 
-85.5499 -78.5732 75.484 -85.0063 -78.2659 76.9503 -85.6358 -78.6973 77.1994 
-84.3774 -78.1084 76.5491 -85.0984 -78.5494 78.7251 -85.9258 -79.0354 78.8439 
-84.5282 -78.2404 78.4297 -83.7615 -78.2684 77.8465 -85.5171 -79.1029 80.452 
-86.4433 -79.4734 80.5018 -84.6834 -78.7275 80.2193 -83.9777 -78.5904 79.7167 
-83.1165 -78.751 78.982 -86.1248 -79.7014 82.0896 -86.7943 -80.0886 82.0491 
-85.0883 -79.4876 81.8333 -84.0837 -79.2298 81.4703 -83.2378 -79.2227 80.8947 
-82.5585 -79.5927 80.147 -86.4055 -80.701 83.4054 -86.8357 -81.2777 83.2898 
-85.5146 -80.5084 83.1273 -84.3559 -80.3159 82.7989 -83.3228 -80.0826 82.5214 
-82.6512 -80.2507 81.9443 -82.2945 -80.7709 81.2177 -86.3696 -82.2561 84.4606 
-86.8289 -82.8078 84.3288 -85.6164 -81.9325 84.2699 -84.6578 -81.7333 83.9693 
-83.6613 -81.4624 83.8091 -82.8846 -81.4004 83.4962 -82.4928 -81.7341 82.8277 
-82.2483 -82.146 82.1623 -86.335 -83.773 85.425 -86.8718 -84.134 85.2896 
-85.5715 -83.4093 85.4058 -84.8057 -83.0914 85.2904 -84.0821 -82.8322 85.1785 
-83.3316 -82.7625 84.9564 -82.7694 -82.9993 84.4298 -82.4668 -83.3136 83.74 
-82.1585 -83.4799 83.1321 -86.3862 -84.9641 86.3072 -86.9102 -85.1999 86.1611 
-85.6262 -84.6517 86.4053 -84.9155 -84.2872 86.466 -84.3891 -84.0138 86.4363 
-83.7992 -83.9857 86.2386 -83.1266 -84.22 85.8305 -82.6451 -84.5314 85.2838 
-82.3238 -84.6938 84.7037 -81.9929 -84.718 84.0994 -81.7973 -86.1305 84.8018 
-82.0604 -86.0921 85.4869 -81.899 -87.8385 86.1952 -82.4028 -86.0379 85.9979 
-82.1895 -87.7507 86.697 -82.0176 -89.7231 87.3782 -82.8441 -85.8855 86.41 
-82.6223 -87.679 87.0346 -82.4189 -89.6101 87.7559 -82.1213 -91.6485 88.4854 
-83.4843 -85.6555 86.82 -83.1437 -87.667 87.3921 -82.8922 -89.5652 88.2428 
-82.5549 -91.5556 89.0212 -82.1336 -93.7961 89.6682 -84.1512 -85.4533 87.1833 
-83.755 -87.5812 87.7759 -83.3026 -89.5756 88.7864 -82.8858 -91.4234 89.7288 
-82.4352 -93.7658 90.221 -82.0644 -96.3039 90.7006 -84.6411 -85.4416 87.3977 
-84.3403 -87.3446 88.1301 -83.81 -89.3984 89.1271 -83.2109 -91.2153 90.2039 
-82.673 -93.5951 90.7218 -82.2576 -96.3926 91.0878 -81.9978 -98.7755 91.5303 
-85.2165 -85.6564 87.4138 -84.9159 -87.1726 88.3908 -84.4806 -89.0425 89.3595 
-83.859 -90.9049 90.284 -83.2183 -93.3341 90.8898 -82.6376 -96.3337 91.4057 
-82.2103 -98.8672 91.9912 -81.9123 -100.805 92.1387 -86.0039 -85.9324 87.2985 
-85.6686 -87.1859 88.4314 -85.2665 -88.76 89.5174 -84.6839 -90.5875 90.2736 
-84.0585 -93.0553 90.7683 -83.4251 -96.1281 91.4696 -82.7517 -98.7816 92.3644 
-82.1868 -100.715 92.7329 -81.7501 -102.548 92.2947 -86.6935 -86.1522 87.1409 
-86.4633 -87.2922 88.2763 -86.1137 -88.6359 89.4457 -85.4878 -90.3135 90.2137 
-84.7725 -92.7177 90.5724 -84.187 -95.7649 91.2246 -83.5455 -98.478 92.3284 
-82.7786 -100.433 93.0341 -82.1044 -102.242 92.8158 -81.5828 -104.257 92.0891 
-81.7427 -87.4749 85.0488 -81.8263 -89.4663 86.5841 -81.7381 -89.1242 85.3819 
-81.8467 -91.4767 87.8863 -81.7349 -91.158 86.9441 -81.5035 -90.8214 85.8041 
-81.8351 -93.6622 89.0995 -81.7221 -93.3254 88.2716 -81.5104 -92.8771 87.1967 
-81.1308 -92.4875 86.201 -81.809 -96.291 90.2757 -81.6813 -96.1102 89.5345 
-81.6695 -95.6707 88.5282 -81.4189 -94.9948 87.5208 -81.1643 -94.2501 86.5593 
-81.7629 -98.9664 91.1598 -81.4985 -99.1149 90.5491 -81.5101 -99.0325 89.7183 
-81.6705 -98.4926 88.92 -81.6605 -97.4485 88.0201 -81.634 -96.1184 86.9027 
-81.6609 -101.248 91.6143 -81.2318 -101.661 91.0394 -80.9045 -101.813 90.3716 
-81.0445 -101.546 89.7818 -81.4367 -100.881 89.2128 -81.7662 -99.6658 88.3035 
-81.997 -97.9323 87.2003 -81.4403 -103.287 91.6341 -80.9603 -103.937 91.0868 
-80.3767 -104.161 90.6267 -80.0917 -103.752 90.0903 -80.2729 -103.129 89.5368 
-80.7731 -102.535 88.9523 -81.4409 -101.398 88.2232 -82.0396 -99.5148 87.4226 
-81.1728 -105.242 91.4628 -80.6685 -106.108 90.9887 -80.093 -106.566 90.7798 
-79.6684 -106.223 90.4434 -79.4964 -105.265 89.6998 -79.5801 -104.486 88.932 
-80.1033 -103.909 88.4499 -81.0363 -102.724 88.0595 -81.9186 -100.768 87.5007 
-81.2012 -106.709 91.6319 -80.6138 -107.781 91.1753 -80.9054 -108.91 91.7487 
-80.1855 -109.961 91.3424 -80.8257 -110.631 91.8323 -79.9876 -108.646 90.9542 
-80.0831 -112.142 91.0199 -80.9283 -112.791 90.9532 -79.5803 -111.011 90.9844 
-79.583 -108.992 90.8499 -80.1741 -114.907 89.8455 -81.02 -115.17 89.7566 
-79.465 -113.593 90.1721 -79.4499 -111.499 90.4859 -79.4672 -108.359 90.203 
-80.2517 -116.809 88.7245 -81.0716 -115.915 88.9916 -79.3766 -115.964 88.8306 
-79.3496 -113.862 89.3413 -79.5928 -110.719 89.4759 -79.3486 -107.105 89.0819 
-80.4702 -116.658 87.7131 -81.3082 -115.162 88.0678 -79.4463 -116.833 87.6768 
-79.1473 -115.318 88.1475 -79.6229 -112.595 88.6117 -79.5763 -109.143 88.5361 
-79.3684 -106.075 88.3605 -80.9963 -115.684 86.6859 -81.8306 -114.452 87.091 
-79.994 -116.337 86.7174 -79.3588 -115.658 87.3191 -79.6264 -113.56 88.0447 
-79.9103 -110.575 88.3232 -79.7064 -107.541 88.2105 -80.0172 -105.036 88.1376 
-81.6624 -114.577 86.3628 -82.4665 -113.642 86.8158 -80.8073 -115.161 86.3266 
-80.1081 -115.011 86.9141 -80.0002 -113.619 87.7128 -80.2618 -111.11 88.161 
-80.2712 -108.283 88.1577 -80.392 -105.72 87.989 -81.1 -103.303 87.8215 
-82.2744 -112.779 86.7359 -83.0241 -111.932 87.0692 -81.5396 -113.233 86.6133 
-80.931 -113.253 86.947 -80.6475 -112.462 87.5151 -80.7102 -110.591 87.8602 
-80.788 -108.136 87.8463 -80.8722 -105.742 87.6404 -81.3109 -103.441 87.4101 
-81.9776 -101.043 87.137 -81.8478 -104.621 92.2121 -81.5793 -107.142 91.9293 
-82.2924 -104.782 92.0784 -82.0711 -107.214 91.9352 -82.8458 -104.612 91.7837 
-81.4577 -109.116 92.1926 -82.6234 -106.814 91.6446 -83.4727 -103.944 91.5567 
-81.9669 -108.927 92.0311 -81.4622 -110.629 91.8942 -83.3364 -105.832 91.3577 
-84.2002 -102.683 91.2908 -82.573 -108.393 91.4532 -81.9379 -110.321 91.2942 
-81.4884 -112.621 90.6391 -84.2163 -104.196 91.0943 -85.0879 -101.171 90.8625 
-83.4783 -107.287 91.1066 -82.7308 -109.776 90.7716 -82.0022 -111.905 90.2327 
-81.509 -114.123 89.7402 -85.2026 -102.392 90.7952 -86.1129 -99.9725 90.4952 
-84.3907 -105.32 90.9193 -83.7808 -108.44 90.7273 -83.0469 -110.915 90.2359 
-82.223 -112.559 89.7962 -81.6714 -113.952 89.204 -86.2215 -101.02 90.4795 
-86.9754 -99.0499 90.0602 -85.2422 -103.195 90.62 -84.5111 -106.034 90.5601 
-84.0473 -109.076 90.2647 -83.3734 -111.079 89.7884 -82.6029 -112.195 89.1877 
-82.1243 -113.359 88.231 -87.0064 -99.866 89.8369 -87.4277 -97.9621 89.1649 
-86.1951 -101.624 90.153 -85.2583 -103.649 90.1342 -84.6389 -106.354 89.9439 
-84.1938 -108.928 89.5467 -83.6252 -110.568 88.947 -83.1219 -111.795 88.2234 
-82.7887 -112.979 87.4333 -87.4555 -98.5041 88.7335 -87.6532 -96.6495 87.9383 
-87.037 -100.275 89.3501 -86.3111 -101.937 89.5806 -85.5057 -103.887 89.5363 
[...]
CELL_DATA 2000
SCALARS Distance double
LOOKUP_TABLE default
137.598 137.785 137.998 138.715 138.117 138.303 139.062 139.261 140.094 
138.348 138.623 139.395 139.648 140.489 140.735 141.623 138.542 138.806 
139.581 139.895 140.708 141.049 141.921 142.249 143.135 139.141 139.17 
139.983 140.13 140.975 141.24 142.179 142.52 143.51 143.798 144.742 
140.181 140.038 140.894 140.81 141.754 141.773 142.893 143.034 144.248 
144.383 145.506 145.577 146.577 141.221 141.117 141.966 141.885 142.898 
142.852 144.093 144.116 145.464 145.455 146.664 146.58 147.635 147.561 
148.572 142.147 142.066 142.912 142.916 143.961 144.023 145.25 145.367 
146.64 146.715 147.832 147.79 148.779 148.709 149.742 149.679 150.751 
143.166 143.018 143.901 143.876 144.953 145.034 146.199 146.353 147.48 
147.651 148.671 148.778 149.758 149.802 150.878 150.889 152.039 151.965 
153.032 136.95 135.949 136.638 137.072 134.871 135.588 136.048 136.843 
137.37 133.829 134.46 134.902 135.773 136.343 137.144 137.617 133.122 
133.475 133.843 134.64 135.314 136.147 136.691 137.359 137.826 132.982 
132.993 133.245 133.741 134.493 135.27 136.019 136.606 137.162 137.713 
138.4 133.275 133.108 133.273 133.399 134.042 134.639 135.555 136.157 
136.891 137.308 138.027 138.567 139.451 133.761 133.571 133.781 133.651 
134.106 134.371 135.21 135.795 136.692 137.185 137.957 138.381 139.204 
139.733 140.567 134.412 134.204 134.559 134.327 134.749 134.659 135.315 
135.6 136.491 136.998 137.876 138.342 139.141 139.579 140.359 140.819 
141.553 135.23 134.991 135.437 135.213 135.708 135.476 136.04 135.969 
136.713 136.95 137.825 138.243 139.086 139.518 140.302 140.705 141.455 
141.845 142.586 135.861 136.913 136.279 136.095 137.982 137.36 137.228 
136.596 136.432 139.167 138.483 138.401 137.767 137.682 136.979 136.819 
140.605 139.827 139.777 139.035 139.005 138.285 138.202 137.438 137.404 
142.126 141.383 141.366 140.54 140.471 139.678 139.612 138.855 138.844 
138.157 138.34 143.564 142.9 142.928 142.139 142.038 141.197 141.092 
140.3 140.302 139.602 139.773 139.198 139.525 145.001 144.346 144.415 
143.662 143.62 142.785 142.733 141.881 141.934 141.147 141.358 140.683 
141.009 140.426 140.771 146.394 145.781 145.856 145.145 145.158 144.385 
144.434 143.616 143.746 142.916 143.158 142.386 142.719 142.016 142.347 
141.684 141.966 147.621 147.096 147.168 146.541 146.566 145.894 145.982 
145.294 145.456 144.726 144.936 144.198 144.47 143.763 144.059 143.346 
143.598 142.881 143.112 144.03 144.544 144.745 145.748 145.014 145.248 
146.209 146.508 147.586 145.428 145.676 146.627 146.927 147.977 148.338 
149.451 145.884 146.103 147.08 147.356 148.446 148.767 149.912 150.235 
151.398 146.362 146.58 147.566 147.848 148.965 149.287 150.44 150.744 
151.889 152.221 153.426 146.81 147.028 147.99 148.31 149.395 149.768 
150.86 151.21 152.278 152.654 153.814 154.256 155.466 147.316 147.473 
148.402 148.702 149.754 150.126 151.157 151.518 152.538 152.948 154.114 
154.605 155.855 156.273 157.337 147.878 148.001 148.889 149.134 150.154 
150.474 151.466 151.777 152.769 153.17 154.373 154.909 156.229 156.683 
157.774 158.009 158.764 148.328 148.513 149.355 149.609 150.569 150.869 
151.791 152.069 152.962 153.352 154.483 155.104 156.422 157.01 158.092 
158.402 159.104 159.232 159.758 144.068 145.876 144.912 144.893 147.839 
146.889 146.958 145.927 146.012 149.746 148.885 149.038 148.061 148.124 
147.106 147.213 151.711 150.843 151.07 150.126 150.217 149.193 149.212 
148.25 148.364 153.843 152.95 153.319 152.307 152.58 151.434 151.58 
150.381 150.481 149.424 149.561 155.928 155.135 155.593 154.669 155.082 
154.005 154.383 153.103 153.376 151.951 152.106 150.772 150.863 157.67 
157.069 157.451 156.767 157.072 156.309 156.602 155.752 156.036 154.939 
155.088 153.679 153.685 152.203 152.174 158.971 158.549 158.854 158.357 
158.577 157.975 158.053 157.441 157.46 156.904 156.914 156.194 156.119 
155.019 154.869 153.507 153.361 159.986 159.666 160.006 159.616 159.942 
159.4 159.564 158.818 158.738 157.992 157.849 157.327 157.265 156.777 
156.696 155.888 155.701 154.536 154.281 160.668 161.918 161.103 160.761 
163.208 162.417 162.059 161.219 160.79 164.348 163.662 163.388 162.576 
162.169 161.224 160.539 165.461 164.847 164.652 163.878 163.532 162.636 
161.877 160.726 159.67 166.1 165.875 165.63 165.02 164.556 163.843 
163.082 162.013 160.75 159.559 158.484 165.667 165.995 165.716 165.576 
164.95 164.541 163.763 163.019 161.835 160.637 159.354 158.392 157.695 
164.796 165.195 165.019 165.212 164.731 164.609 163.941 163.505 162.571 
161.645 160.443 159.35 158.435 157.742 157.231 164.214 164.42 164.284 
164.483 164.222 164.278 163.821 163.607 162.856 162.255 161.182 160.295 
159.227 158.458 157.685 157.151 156.429 163.585 163.84 163.557 163.792 
163.468 163.698 163.257 163.325 162.577 162.321 161.23 160.691 159.495 
158.917 157.884 157.42 156.514 156.057 155.076 160.788 161.233 161.384 
162.079 161.418 161.782 162.612 162.757 163.387 161.292 161.833 162.674 
163.088 163.734 163.888 164.393 160.873 161.559 162.354 162.927 163.521 
163.914 164.403 164.73 165.296 160.185 160.968 161.802 162.502 163.156 
163.603 164.065 164.473 164.979 165.474 165.865 159.536 160.205 160.978 
161.79 162.569 163.236 163.805 164.189 164.552 164.933 165.158 165.593 
165.501 159.114 159.634 160.181 160.854 161.47 162.372 163.012 163.779 
164.126 164.514 164.538 164.801 164.685 164.95 164.717 158.467 159.129 
159.544 160.075 160.396 161.117 161.566 162.559 162.953 163.752 163.774 
164.172 164.009 164.261 164.158 164.349 164.221 157.294 158.193 158.636 
159.323 159.585 160.125 160.369 161.087 161.401 162.273 162.404 163.106 
162.992 163.498 163.382 163.79 163.687 163.927 163.664 148.727 149.705 
149.435 149.878 150.783 150.541 151.112 150.72 151.157 151.872 151.7 
152.34 151.994 152.432 151.987 152.322 152.893 152.804 153.505 153.212 
153.63 153.196 153.511 153.081 153.445 153.834 153.805 154.573 154.361 
154.857 154.419 154.819 154.344 154.898 154.429 155.078 154.652 154.688 
155.448 155.362 155.957 155.665 156.198 155.791 156.477 156.059 156.877 
156.366 157.088 155.34 155.441 156.187 156.158 156.759 156.646 157.242 
157.088 157.765 157.561 158.271 158.005 158.619 158.214 158.629 155.982 
156.138 156.985 156.933 157.546 157.401 157.991 157.946 158.628 158.6 
159.219 159.092 159.563 159.355 159.673 159.352 159.518 156.603 156.822 
157.786 157.793 158.458 158.262 158.819 158.693 159.388 159.367 160.068 
159.946 160.484 160.225 160.617 160.271 160.523 160.089 160.203 148.212 
147.555 148.272 149.057 146.848 147.557 148.343 149.127 150.017 146.354 
146.925 147.696 148.406 149.263 150.091 151.028 146.05 146.539 147.272 
147.857 148.669 149.365 150.234 151.069 152.001 145.664 146.206 146.901 
147.478 148.262 148.868 149.684 150.354 151.23 152.043 152.963 145.188 
145.737 146.396 147.018 147.765 148.432 149.242 149.888 150.719 151.392 
152.255 153.014 153.848 144.895 145.314 145.942 146.475 147.16 147.828 
148.599 149.345 150.168 150.896 151.682 152.368 153.087 153.808 154.511 
144.857 145.157 145.778 146.144 146.792 147.276 147.963 148.618 149.389 
150.193 150.98 151.741 152.383 153.042 153.609 154.357 155.031 144.885 
145.178 145.805 146.105 146.76 147.081 147.711 148.11 148.756 149.38 
150.143 150.94 151.667 152.349 152.897 153.498 154.067 154.853 155.584 
145.05 145.579 145.572 146.034 146.066 146.138 146.73 146.634 147.059 
146.569 146.672 147.393 147.379 147.89 147.666 147.997 147.243 147.295 
148.111 148.105 148.682 148.48 148.791 148.531 148.892 148.056 148.091 
148.956 148.924 149.51 149.274 149.577 149.296 149.668 149.523 150.151 
148.701 148.836 149.642 149.726 150.277 150.093 150.387 150.107 150.541 
150.383 151.07 150.981 151.701 149.044 149.261 149.944 150.189 150.746 
150.75 151.113 150.934 151.445 151.333 152.08 151.974 152.652 152.468 
152.982 149.3 149.482 150.142 150.386 151.072 151.187 151.771 151.694 
152.331 152.261 153.054 152.985 153.678 153.451 153.935 153.65 154.134 
149.703 149.805 150.55 150.706 151.557 151.679 152.51 152.488 153.266 
153.186 153.994 153.932 154.678 154.493 155.064 154.732 155.278 154.964 
155.629 150.249 151.568 150.981 151.18 152.94 152.401 152.676 152.042 
152.264 154.236 153.762 154.133 153.586 153.869 153.181 153.305 155.639 
155.122 155.513 154.997 155.329 154.747 154.91 154.156 154.139 157.06 
156.592 156.986 156.423 156.739 156.159 156.384 155.716 155.767 154.944 
154.879 158.362 157.97 158.418 157.901 158.226 157.626 157.897 157.235 
157.402 156.603 156.584 155.684 155.545 159.891 159.378 159.896 159.327 
159.675 159.091 159.367 158.773 158.985 158.276 158.316 157.424 157.254 
156.276 155.98 161.647 161.091 161.607 160.924 161.229 160.549 160.762 
160.164 160.301 159.716 159.721 159.03 158.882 157.998 157.702 156.663 
156.292 163.03 162.699 163.093 162.558 162.744 162.099 162.231 161.574 
161.633 160.959 160.857 160.206 160.03 159.397 159.195 158.384 158.085 
157.033 156.683 149.949 149.894 150.349 151.235 149.831 150.311 151.207 
151.677 152.548 149.666 150.201 151.062 151.589 152.44 152.929 153.794 
149.298 149.914 150.732 151.345 152.207 152.774 153.682 154.212 155.171 
148.821 149.46 150.284 150.94 151.839 152.492 153.465 154.088 155.081 
155.634 156.57 148.396 149.003 149.846 150.489 151.387 152.082 153.09 
153.822 154.852 155.489 156.415 156.943 157.826 147.999 148.594 149.394 
150.039 150.868 151.573 152.537 153.361 154.453 155.213 156.208 156.773 
157.712 158.237 159.285 147.582 148.155 148.889 149.533 150.309 150.999 
151.912 152.746 153.89 154.775 155.915 156.587 157.598 158.157 159.257 
159.86 161.022 147.207 147.719 148.416 149.012 149.794 150.447 151.372 
152.148 153.314 154.224 155.47 156.277 157.36 158.009 159.052 159.741 
160.86 161.537 162.495 149.221 148.211 148.792 149.065 147.305 147.762 
147.885 148.606 148.956 146.399 146.828 146.84 147.44 147.713 148.507 
148.848 145.385 145.882 145.879 146.408 146.586 147.292 147.58 148.342 
148.544 144.238 144.848 144.894 145.427 145.498 146.129 146.286 147.033 
147.175 147.924 148.04 142.9 143.642 143.734 144.376 144.37 144.958 
144.944 145.643 145.709 146.495 146.611 147.406 147.582 141.421 142.203 
142.281 143.07 143.076 143.733 143.632 144.254 144.241 144.998 145.157 
145.983 146.208 147.011 147.231 140.058 140.724 140.759 141.534 141.583 
142.335 142.299 142.938 142.898 143.578 143.729 144.55 144.834 145.666 
145.922 146.684 146.88 138.952 139.48 139.489 140.103 140.145 140.85 
140.901 141.597 141.632 142.294 142.411 143.165 143.432 144.28 144.575 
145.386 145.616 146.347 146.537 138.394 137.684 138.337 138.905 136.861 
137.58 138.169 138.842 139.469 136.109 136.757 137.371 138.065 138.727 
139.457 140.184 135.764 136.177 136.814 137.36 138.096 138.768 139.581 
140.266 141.018 135.89 136.089 136.739 137.05 137.824 138.323 139.213 
139.797 140.635 141.17 141.902 136.238 136.367 136.999 137.172 137.894 
138.235 139.097 139.576 140.434 140.908 141.69 142.148 142.924 136.606 
136.743 137.362 137.489 138.134 138.365 139.136 139.527 140.358 140.786 
141.577 142.007 142.808 143.267 144.069 136.962 137.105 137.74 137.861 
138.486 138.631 139.338 139.611 140.422 140.777 141.595 141.967 142.782 
143.194 144.011 144.427 145.163 137.348 137.463 138.102 138.238 138.881 
139.009 139.699 139.883 140.669 140.936 141.765 142.069 142.894 143.236 
144.055 144.418 145.172 145.501 146.143 137.817 138.884 138.385 138.556 
140.228 139.564 139.688 139.178 139.368 141.789 141.035 141.123 140.44 
140.611 140.049 140.252 143.376 142.655 142.779 142.001 142.142 141.435 
141.64 141.02 141.253 144.97 144.266 144.487 143.72 143.885 143.085 
143.259 142.522 142.737 142.088 142.334 146.701 145.929 146.197 145.458 
145.711 144.904 145.087 144.243 144.414 143.646 143.863 143.2 143.456 
148.642 147.756 148.001 147.213 147.514 146.75 146.991 146.135 146.277 
145.4 145.558 144.789 145.014 144.345 144.602 150.813 149.811 150.029 
149.104 149.378 148.575 148.86 148.04 148.197 147.29 147.369 146.514 
146.65 145.92 146.111 145.462 145.669 153.057 152.052 152.237 151.214 
151.42 150.508 150.78 149.935 150.13 149.212 149.257 148.321 148.352 
147.537 147.631 146.935 147.057 146.441 146.586 147.246 147.766 147.808 
148.466 148.42 148.432 149.165 149.157 149.889 149.247 149.22 150.101 
150.033 150.908 150.772 151.602 150.257 150.216 151.243 151.154 152.208 
152.029 153.03 152.739 153.677 151.222 151.303 152.416 152.396 153.51 
153.411 154.484 154.282 155.269 154.953 155.839 151.949 152.197 153.371 
153.508 154.613 154.634 155.675 155.624 156.606 156.452 157.319 157.02 
157.736 152.648 152.907 154.153 154.37 155.548 155.654 156.772 156.772 
157.864 157.748 158.735 158.459 159.275 158.85 159.518 153.498 153.706 
154.988 155.177 156.432 156.586 157.858 157.938 159.225 159.15 160.306 
160.005 160.924 160.469 161.223 160.696 161.348 154.308 154.566 155.788 
156.003 157.192 157.432 158.701 158.974 160.305 160.478 161.657 161.561 
162.413 162.077 162.691 162.292 162.833 162.416 162.882 134.991 134.165 
134.505 134.463 133.581 133.777 133.665 134.011 134.039 133.232 133.348 
133.211 133.333 133.252 133.612 133.737 133.059 133.142 133.095 133.049 
132.879 132.961 132.994 133.409 133.744 133.202 133.15 133.235 133.098 
132.947 132.775 132.691 132.828 133.102 133.602 134.152 133.793 133.519 
133.649 133.418 133.36 133.027 132.899 132.735 132.897 133.127 133.642 
134.166 134.824 134.716 134.269 134.355 134.009 134.041 133.624 133.566 
133.174 133.295 133.183 133.653 133.882 134.585 135.003 135.729 135.763 
135.247 135.299 134.854 134.946 134.48 134.535 134.039 134.182 133.831 
134.252 134.186 134.881 135.052 135.846 136.105 136.832 136.79 136.292 
136.35 135.873 135.987 135.506 135.621 135.116 135.257 134.819 135.128 
134.911 135.48 135.516 136.249 136.409 137.125 137.29 137.905 135.492 
134.998 135.541 136.165 134.598 135.105 135.733 136.251 136.86 134.328 
134.762 135.409 135.872 136.498 136.968 137.615 134.378 134.635 135.307 
135.646 136.316 136.704 137.421 137.862 138.636 134.816 134.901 135.577 
135.726 136.403 136.654 137.398 137.776 138.608 139.026 139.813 135.446 
135.452 136.108 136.149 136.783 136.889 137.585 137.843 138.642 139.027 
139.834 140.202 140.895 136.219 136.115 136.724 136.711 137.325 137.356 
138.022 138.145 138.895 139.134 139.912 140.227 140.966 141.267 141.929 
137.183 136.947 137.49 137.372 137.982 137.948 138.626 138.669 139.407 
139.51 140.243 140.406 141.127 141.373 142.09 142.346 143.002 138.183 
137.918 138.401 138.21 138.792 138.682 139.344 139.322 140.032 140.073 
140.76 140.827 141.479 141.616 142.296 142.525 143.207 143.43 144.026 
136.015 136.67 136.57 137.047 137.355 137.251 137.729 137.626 138.113 
138.097 137.945 138.458 138.346 138.858 138.726 139.279 139.057 138.765 
139.25 139.096 139.641 139.514 140.074 139.969 140.636 140.149 139.783 
140.162 139.921 140.43 140.304 140.868 140.764 141.371 141.347 142.06 
141.183 140.827 141.131 140.833 141.289 141.127 141.717 141.584 142.169 
142.06 142.699 142.723 143.454 142.211 141.838 142.148 141.799 142.243 
142.032 142.667 142.514 143.143 142.931 143.511 143.389 144.087 144.127 
144.893 143.272 142.897 143.222 142.846 143.267 143.014 143.627 143.491 
144.141 143.945 144.481 144.26 144.844 144.793 145.529 145.589 146.309 
144.264 143.938 144.238 143.896 144.253 144 144.515 144.396 144.995 
144.876 145.388 145.189 145.665 145.541 146.153 146.191 146.885 146.944 
147.554 149.106 148.784 148.691 148.226 148.509 148.43 148.021 147.909 
147.438 148.022 148.048 147.611 147.663 147.222 147.109 146.548 147.278 
147.38 146.883 147.088 146.654 146.737 146.141 146.067 145.419 146.496 
146.567 146.062 146.275 145.837 146.01 145.396 145.444 144.715 144.766 
144.121 145.866 145.845 145.311 145.457 144.977 145.143 144.499 144.578 
143.814 143.902 143.196 143.363 142.738 145.389 145.292 144.665 144.706 
144.124 144.25 143.578 143.662 142.904 142.976 142.266 142.396 141.754 
141.928 141.308 144.959 144.841 144.143 144.065 143.386 143.405 142.731 
142.78 142.076 142.116 141.427 141.503 140.862 140.982 140.373 140.525 
139.972 144.505 144.407 143.705 143.56 142.834 142.738 142.063 142.038 
141.387 141.376 140.708 140.717 140.062 140.13 139.521 139.644 139.106 
139.282 138.841 
POINT_DATA 1002
SCALARS Distance double
LOOKUP_TABLE default
138.231 137.262 137.303 138.462 137.592 139.455 138.858 137.906 139.868 
140.961 139.109 138.034 140.221 141.38 142.533 139.28 138.316 140.358 
141.55 142.838 144.04 139.919 139.192 140.755 141.816 143.176 144.519 
145.671 141.008 140.346 141.759 142.753 144.116 145.459 146.544 147.52 
142 141.32 142.891 144.048 145.487 146.797 147.741 148.624 149.575 
142.88 142.242 143.86 145.136 146.574 147.868 148.836 149.764 150.841 
151.84 143.933 143.324 144.893 146.111 147.356 148.517 149.634 150.808 
152.065 153.216 154.044 136.288 136.327 135.236 135.205 134.175 136.616 
134.005 133.312 135.503 136.916 133.114 132.943 134.416 136.028 137.132 
132.926 133.081 133.699 135.37 136.662 137.696 133.323 133.428 133.578 
134.857 136.444 137.571 138.819 133.969 133.893 134.061 134.688 136.092 
137.546 138.76 140.038 134.756 134.592 134.959 135.237 136.025 137.361 
138.725 139.943 141.1 135.628 135.473 135.932 136.24 136.649 137.469 
138.647 139.89 141.074 142.194 136.483 136.73 137.529 137.827 138.594 
137.131 139.034 139.877 138.348 137.572 140.573 141.37 139.728 138.941 
138.098 142.208 142.804 141.32 140.368 139.53 138.909 143.69 144.202 
142.891 141.906 141.006 140.373 140.041 145.148 145.655 144.412 143.562 
142.733 142.065 141.639 141.35 146.543 146.985 145.88 145.187 144.555 
143.953 143.458 143.064 142.631 147.763 148.118 147.201 146.619 146.143 
145.673 145.185 144.771 144.345 143.82 144.948 145.472 146.827 145.93 
147.229 148.707 146.331 147.625 149.08 150.569 146.798 148.117 149.599 
151.061 152.571 147.272 148.633 150.15 151.577 153.037 154.678 147.67 
149.031 150.526 151.909 153.355 155.061 156.665 148.131 149.409 150.825 
152.125 153.588 155.41 157.101 158.251 148.673 149.866 151.191 152.385 
153.803 155.739 157.546 158.68 159.367 149.105 150.29 151.553 152.634 
153.876 155.781 157.753 158.983 159.653 160.263 145.858 147.986 147.035 
149.967 149.166 148.177 151.998 151.25 150.24 149.223 154.288 153.679 
152.819 151.686 150.537 156.448 156.051 155.527 154.813 153.636 152.151 
158.1 157.814 157.362 156.926 156.378 155.258 153.655 159.305 159.17 
158.76 158.045 157.418 156.956 156.155 154.809 160.339 160.385 160.283 
159.656 158.519 157.617 157.231 156.714 155.593 161.41 161.568 162.783 
162.904 163.94 161.71 164.148 164.963 163.118 161.685 165.444 165.987 
164.376 163.11 160.844 166.203 166.118 165.25 164.054 162.094 159.323 
165.668 165.221 165.28 164.325 162.919 160.503 158.245 164.704 164.47 
164.69 164.225 163.281 161.523 159.31 157.756 164.092 164.083 164.058 
163.921 163.325 161.972 160.061 158.316 156.992 163.351 163.326 163.233 
163.122 162.74 161.678 160.05 158.382 156.962 155.598 160.703 162.051 
160.956 162.348 160.961 163.442 162.201 160.724 163.479 164.286 161.762 
160.145 163.107 163.983 164.95 161.011 159.411 162.645 163.726 164.497 
165.497 160.206 158.998 161.728 163.347 164.353 164.812 165.171 159.705 
158.645 160.64 162.054 163.649 164.384 164.425 164.467 159.044 157.715 
159.888 160.668 161.987 163.233 163.712 163.897 164.115 157.824 156.345 
159.044 159.828 160.619 161.609 162.38 162.891 163.365 163.589 148.96 
150.24 149.917 151.467 150.968 151.631 152.669 151.983 152.887 152.782 
153.766 152.936 154.083 153.927 153.834 154.721 153.852 155.24 155.259 
155.285 155.589 155.498 154.611 156.132 156.507 156.842 157.315 157.738 
156.22 155.195 156.848 157.304 157.924 158.536 158.969 159.157 157.004 
155.753 157.737 158.059 158.62 159.348 159.78 159.947 159.923 147.56 
148.298 146.811 147.565 146.173 149.171 147.042 145.85 148.485 150.137 
146.729 145.575 148.049 149.478 151.091 146.319 145.101 147.66 149.081 
150.497 152.108 145.796 144.672 147.079 148.56 150.089 151.577 153.087 
145.479 144.536 146.556 147.85 149.392 151.028 152.447 153.732 145.458 
144.58 146.399 147.425 148.618 150.164 151.756 152.952 154.15 145.499 