# vtk DataFile Version 4.0
vtk output
ASCII
DATASET POLYDATA
POINTS 1002 float
-84.1032 -83.7713 72.5708 -84.0527 -83.0639 71.3381 -83.6092 -82.919 72.1082 
-83.6561 -83.7371 73.3915 -83.0696 -82.8533 72.9607 -84.1436 -84.6693 73.9786 
-83.0848 -83.7508 74.2732 -82.4891 -82.7853 73.9304 -83.7013 -84.6486 74.8571 
-84.1934 -85.6469 75.5216 -82.4547 -83.7531 75.2876 -82.0036 -82.7129 75.0497 
-83.0979 -84.6715 75.775 -83.6656 -85.6812 76.4361 -84.0112 -86.8508 77.0696 
-81.9752 -83.7581 76.4853 -81.595 -82.638 76.2893 -82.4809 -84.8127 76.8674 
-83.01 -85.884 77.4034 -83.3228 -87.1633 77.9903 -83.5463 -88.4076 78.5616 
-81.6858 -83.8602 77.8196 -81.1923 -82.6968 77.5797 -82.0632 -85.1068 78.1886 
-82.4247 -86.3203 78.5936 -82.6684 -87.6378 79.0634 -82.8511 -88.944 79.5951 
-83.1365 -90.0275 80.1241 -81.4065 -84.2908 79.1832 -80.9308 -83.1262 78.8311 
-81.7301 -85.5699 79.6227 -81.9536 -86.8667 80.0038 -82.1188 -88.2079 80.3623 
-82.2956 -89.5163 80.8359 -82.5544 -90.645 81.3394 -82.8375 -91.6444 81.7483 
-80.9764 -85.0323 80.3928 -80.7452 -83.8004 79.9297 -81.2299 -86.2396 80.9402 
-81.4642 -87.462 81.4244 -81.6244 -88.809 81.8039 -81.7809 -90.1823 82.1982 
-82.0283 -91.4095 82.634 -82.2914 -92.4919 83.003 -82.4761 -93.498 83.2653 
-80.3609 -85.6991 81.321 -80.3447 -84.3683 80.8468 -80.5521 -86.9149 81.934 
-80.8894 -88.0965 82.5462 -81.1721 -89.4806 83.0953 -81.323 -90.9682 83.5724 
-81.493 -92.3255 83.9425 -81.7365 -93.5153 84.2234 -81.9519 -94.5638 84.4667 
-82.104 -95.4604 84.6674 -79.744 -86.1091 82.0869 -79.7712 -84.7499 81.6997 
-79.9238 -87.3906 82.6674 -80.2982 -88.6392 83.3134 -80.6708 -90.1395 83.9715 
-80.8842 -91.7886 84.6342 -81.0212 -93.241 85.1511 -81.2009 -94.49 85.4233 
-81.4017 -95.621 85.5976 -81.5791 -96.5752 85.7988 -81.7433 -97.3214 85.9769 
-83.6045 -82.3775 70.6483 -83.0949 -82.1504 71.479 -82.997 -81.7057 69.9604 
-82.4597 -81.325 70.8819 -82.482 -80.826 69.3883 -82.5178 -81.9012 72.4426 
-81.9573 -80.2451 70.4716 -82.284 -79.4756 69.2093 -81.9092 -80.8463 71.9662 
-82.0489 -81.6994 73.5704 -81.7276 -78.8083 70.4015 -82.2393 -77.8535 69.4045 
-81.4354 -79.6839 71.6428 -81.6064 -80.6262 73.2699 -81.6778 -81.6553 74.8837 
-81.6006 -77.3619 70.5426 -82.1727 -76.5332 69.7345 -81.2108 -78.4032 71.5814 
-81.2119 -79.5926 73.1346 -81.1847 -80.7459 74.8631 -81.0415 -81.6657 76.287 
-81.5734 -76.2207 70.9724 -82.3069 -75.621 70.399 -81.1722 -77.1629 71.8522 
-81.0273 -78.4026 73.2956 -80.6468 -79.7839 75.005 -80.2026 -80.8685 76.4291 
-80.4076 -81.7885 77.5986 -81.8779 -75.2102 71.9426 -82.7773 -74.8527 71.5304 
-81.3226 -76.047 72.6127 -81.0993 -77.1688 73.82 -80.5237 -78.543 75.2964 
-79.6728 -79.9265 76.5729 -79.6605 -81.0078 77.6539 -80.3826 -82.1948 78.7645 
-82.4677 -74.3281 73.1302 -83.3559 -74.3013 72.6946 -81.7156 -75.0404 73.6784 
-81.3297 -76.1535 74.5991 -80.8422 -77.3917 75.7363 -79.9578 -78.7944 76.7416 
-79.5956 -80.1403 77.6982 -80.1288 -81.3315 78.7685 -80.5546 -82.7308 79.8465 
-83.0755 -73.9162 74.0725 -83.8296 -74.1871 73.5654 -82.2677 -74.3594 74.6206 
-81.6749 -75.425 75.3708 -81.2429 -76.6309 76.2719 -80.6467 -77.8579 77.0909 
-80.1962 -79.2235 77.9227 -80.3344 -80.5413 78.9569 -80.5475 -81.7924 80.007 
-80.2735 -83.2083 80.8944 -83.8216 -74.1889 74.6551 -83.0656 -74.1264 75.2668 
-83.8403 -74.6479 75.9754 -83.0902 -74.809 76.7754 -83.8959 -75.3626 77.6486 
-82.2856 -74.8322 75.998 -83.1424 -75.6285 78.6537 -83.921 -76.1461 79.3469 
-82.325 -75.6026 77.6937 -81.6846 -76.0199 76.8607 -83.1949 -76.6029 80.373 
-83.9389 -77.1594 80.7002 -82.3903 -76.4462 79.6122 -81.7132 -76.7176 78.5854 
-81.2229 -77.2086 77.6946 -83.2776 -78.0067 81.6554 -84.0404 -78.475 81.973 
-82.4772 -77.6804 81.1838 -81.7696 -77.6258 80.4056 -81.3136 -77.9294 79.4422 
-80.8681 -78.5007 78.5421 -83.3165 -79.5763 83.0355 -84.1085 -79.8314 83.5023 
-82.5217 -79.348 82.4979 -81.8064 -79.1127 81.9549 -81.298 -79.1303 81.3247 
-81.0368 -79.4893 80.5085 -80.7558 -79.9942 79.6202 -83.2629 -80.9244 84.6305 
-84.0569 -81.0676 84.9855 -82.4696 -80.8831 84.0618 -81.8206 -80.8 83.5001 
-81.2364 -80.8156 83.0144 -80.7751 -81.0016 82.4595 -80.6086 -81.1805 81.6481 
-80.597 -81.3896 80.7155 -83.2852 -82.1642 85.909 -84.023 -82.2686 86.0707 
-82.4837 -82.1814 85.5372 -81.8645 -82.211 85.0887 -81.3473 -82.3611 84.5967 
-80.6815 -82.6175 84.0612 -80.0876 -82.6674 83.3935 -79.9225 -82.5597 82.483 
-80.0762 -82.707 81.5453 -83.4251 -83.5012 86.7636 -84.0677 -83.5196 86.863 
-82.6546 -83.5586 86.5409 -81.98 -83.5825 86.2848 -81.4926 -83.6906 85.9153 
-80.9288 -83.9556 85.3932 -80.1573 -84.066 84.8065 -79.532 -83.8932 84.0573 
-79.3523 -83.8303 83.1058 -79.5058 -84.1663 82.2403 -79.3306 -85.9964 82.8638 
-79.2119 -85.5176 83.6237 -79.4188 -87.5835 84.3731 -79.3341 -85.2726 84.64 
-79.4973 -87.3404 85.3892 -79.6271 -89.7005 86.1552 -79.7888 -85.3693 85.5104 
-79.7001 -87.2141 86.432 -79.6259 -89.6664 87.2651 -79.4696 -92.2363 87.9192 
-80.4584 -85.5195 86.0596 -80.0492 -87.3359 87.0393 -79.6953 -89.6112 88.1419 
-79.3611 -92.1868 88.8944 -79.2591 -94.981 89.4409 -81.061 -85.4208 86.5523 
-80.5187 -87.4646 87.3514 -80.0571 -89.707 88.5117 -79.6031 -92.0605 89.5616 
-79.2191 -94.7981 90.1898 -79.0314 -98.0593 90.5538 -81.5715 -85.2564 87.0067 
-81.0315 -87.3048 87.8087 -80.6307 -89.6108 88.8015 -80.2865 -91.9875 89.8386 
-79.6719 -94.6073 90.6325 -79.0336 -97.8693 91.0769 -78.5276 -101.416 91.1882 
-82.2097 -85.2011 87.2563 -81.6167 -87.0542 88.2193 -81.164 -89.1162 89.2763 
-80.9353 -91.578 90.1185 -80.3615 -94.4573 90.7718 -79.4659 -97.7097 91.3122 
-78.7575 -101.191 91.5792 -78.1664 -104.401 91.5219 -82.9934 -85.1002 87.4296 
-82.3405 -86.8649 88.3669 -81.694 -88.637 89.5051 -81.3609 -90.885 90.3778 
-80.8986 -94.0183 90.9115 -80.0171 -97.5376 91.4211 -79.268 -100.864 91.8093 
-78.7711 -103.903 91.8632 -78.1484 -106.604 91.6976 -83.7277 -84.934 87.601 
-83.139 -86.6193 88.4511 -82.3829 -88.3171 89.4275 -81.8419 -90.3309 90.2719 
-81.3946 -93.3555 90.8961 -80.6096 -97.0693 91.5421 -79.8183 -100.408 92.0867 
-79.3686 -103.173 92.1756 -78.8774 -105.789 91.9387 -78.0889 -108.335 91.7069 
-79.4922 -87.4639 83.3273 -79.6028 -89.2586 84.8867 -79.7866 -88.8993 83.9453 
-79.5699 -91.7299 86.7063 -79.6711 -91.0646 85.5158 -80.0772 -90.5731 84.6172 
-79.4244 -94.7296 88.5319 -79.4431 -93.9804 87.382 -79.6641 -93.1939 86.195 
-80.2821 -92.5248 85.3573 -79.3065 -98.1296 89.9592 -79.4264 -97.4797 89.1401 
-79.4139 -96.367 87.969 -79.808 -95.2593 86.888 -80.4843 -94.2359 86.0899 
-78.6742 -101.793 90.7201 -79.035 -101.416 90.1792 -79.2559 -100.21 89.3806 
-79.5316 -98.5586 88.369 -80.1047 -96.9327 87.4826 -80.7073 -95.6071 86.5605 
-77.8067 -105.111 91.0632 -77.9095 -105.169 90.542 -78.3735 -104.4 90.0423 
-78.9202 -102.833 89.4061 -79.5443 -100.666 88.6398 -80.2287 -98.5375 87.7907 
-80.8554 -96.9143 86.7498 -77.4172 -107.632 91.3155 -77.0217 -108.118 90.7619 
-77.2435 -107.945 90.2838 -77.8591 -107.113 89.9161 -78.5331 -105.341 89.3865 
-79.2719 -102.703 88.6705 -80.129 -100.08 87.8557 -80.95 -98.0835 86.8903 
-77.3035 -109.617 91.4768 -76.7097 -110.442 90.9857 -76.6499 -110.668 90.4169 
-77.0959 -110.379 90.069 -77.6503 -109.426 89.7324 -78.1941 -107.321 89.1452 
-79.011 -104.25 88.519 -80.1064 -101.239 87.9053 -81.093 -98.9611 87.0645 
-77.3115 -111.185 91.5499 -76.6302 -112.514 91.2533 -76.6323 -114.51 91.4011 
-76.1698 -115.761 90.7682 -76.57 -117.491 91.0844 -76.3277 -113.229 90.5616 
-76.1021 -118.644 89.9412 -77.0044 -119.249 90.3878 -76.0435 -116.253 89.7544 
-76.5696 -113.226 89.9487 -76.4093 -120.282 89.0466 -77.5509 -119.66 89.5035 
-75.8732 -118.752 88.8183 -76.4268 -115.706 89.2017 -77.1167 -112.592 89.6771 
-77.24 -120.121 88.4357 -78.3217 -118.831 88.8764 -76.3169 -119.698 88.1982 
-76.4223 -117.358 88.5271 -77.1288 -114.307 89.077 -77.5878 -111.115 89.285 
-78.439 -118.255 88.1559 -79.2752 -116.913 88.614 -77.5401 -118.609 87.8597 
-77.1132 -117.419 88.0741 -77.4151 -115.051 88.5846 -77.7787 -112.023 88.8204 
-78.186 -108.31 88.7578 -79.4319 -115.612 88.1326 -80.0887 -114.493 88.5272 
-78.7719 -116.197 87.7076 -78.1881 -115.852 87.6751 -78.0587 -114.426 88.1761 
-78.2935 -111.938 88.6073 -78.6571 -108.483 88.6308 -79.2975 -104.637 88.3914 
-80.2125 -112.958 88.2862 -80.8723 -112.023 88.5005 -79.649 -113.505 87.8903 
-79.1251 -113.443 87.5824 -78.8088 -112.562 87.8365 -78.9192 -110.699 88.4034 
-79.3643 -107.82 88.6308 -79.9725 -104.424 88.399 -80.602 -101.342 87.8462 
-81.1827 -110.312 88.4351 -81.8752 -109.528 88.4779 -80.5856 -110.788 88.2371 
-80.1053 -110.783 87.9123 -79.7635 -110.098 87.8494 -79.7204 -108.636 88.1643 
-80.0826 -106.42 88.3784 -80.6771 -103.722 88.1602 -81.2136 -101.118 87.5968 
-81.5544 -99.0018 86.8274 -78.4196 -108.405 91.6805 -77.5602 -111.755 91.4588 
-78.7939 -108.252 91.5938 -78.1184 -111.929 91.3091 -79.4689 -107.642 91.5735 
-77.0862 -115.303 91.4578 -79.1461 -111.135 91.3454 -80.4309 -106.385 91.6099 
-77.9485 -115.16 91.3901 -77.4058 -117.563 91.3238 -80.3482 -109.236 91.5649 
-81.3585 -104.655 91.5574 -79.0819 -113.631 91.4069 -78.3115 -116.342 91.2444 
-77.9832 -118.098 90.6387 -81.3468 -106.739 91.568 -82.1936 -102.561 91.2607 
-80.2627 -111.097 91.5015 -79.3115 -114.215 91.1399 -78.8372 -116.096 90.5982 
-78.5467 -117.766 89.7795 -82.2775 -103.826 91.1295 -83.1946 -100.095 90.7445 
-81.3452 -108.032 91.3102 -80.5058 -111.64 91.1201 -79.9903 -114.004 90.6785 
-79.6722 -115.633 90.0582 -79.4001 -116.753 89.2937 -83.478 -100.715 90.5528 
-84.3811 -97.7711 90.1881 -82.5475 -104.392 90.8768 -81.6963 -108.243 90.9553 
-81.2136 -111.381 90.7927 -81.0045 -113.411 90.4384 -80.6928 -114.513 89.7988 
-80.3154 -114.847 89.0519 -84.798 -98.2135 90.0309 -85.4751 -96.1236 89.6357 
-84.0426 -100.9 90.4985 -83.1267 -104.169 90.7689 -82.3374 -107.544 90.7419 
-81.9973 -110.217 90.5786 -81.8209 -111.767 90.1937 -81.4676 -112.409 89.4866 
-81.0819 -112.452 88.8228 -85.868 -96.6086 89.4268 -86.3346 -94.9869 89.0264 
-85.4202 -98.4964 90.0157 -84.7776 -100.792 90.5261 -83.8626 -103.504 90.6428 
[...]
CELL_DATA 2000
SCALARS Distance double
LOOKUP_TABLE default
137.414 137.503 137.827 138.612 137.617 137.945 138.766 139.109 139.976 
137.807 138.089 138.916 139.265 140.153 140.52 141.419 138.15 138.36 
139.202 139.476 140.394 140.722 141.667 141.997 142.908 138.66 138.822 
139.753 139.924 140.909 141.105 142.111 142.344 143.333 143.566 144.502 
139.384 139.487 140.541 140.646 141.703 141.796 142.833 142.951 143.988 
144.135 145.146 145.278 146.225 140.248 140.331 141.403 141.51 142.575 
142.663 143.703 143.779 144.828 144.918 145.977 146.057 147.069 147.104 
148.035 140.954 141.12 142.084 142.283 143.289 143.473 144.523 144.664 
145.755 145.842 146.939 146.984 148.041 148.047 149.028 148.981 149.875 
141.408 141.635 142.508 142.791 143.75 144.048 145.11 145.4 146.548 
146.761 147.894 147.985 149.04 149.052 150.032 150.003 150.91 150.829 
151.653 136.701 135.61 136.349 136.738 134.457 135.208 135.582 136.374 
136.811 133.348 134.042 134.38 135.168 135.634 136.485 137.009 132.37 
132.97 133.265 133.98 134.48 135.346 135.982 136.795 137.383 131.58 
132.049 132.33 132.946 133.483 134.301 135.04 135.855 136.497 137.212 
137.818 131.188 131.403 131.697 132.154 132.734 133.446 134.223 134.998 
135.652 136.336 136.895 137.661 138.401 131.357 131.268 131.545 131.758 
132.359 132.877 133.642 134.276 134.91 135.511 136.052 136.752 137.485 
138.367 139.267 131.912 131.639 131.847 131.841 132.395 132.7 133.436 
133.861 134.49 134.905 135.484 136.03 136.806 137.561 138.485 139.308 
140.124 132.6 132.263 132.403 132.26 132.717 132.859 133.545 133.818 
134.472 134.719 135.355 135.704 136.535 137.092 138.035 138.674 139.473 
140.1 140.704 133.036 133.828 133.181 132.885 135.032 134.187 133.906 
133.251 133.227 136.479 135.575 135.309 134.485 134.441 133.838 134.016 
137.92 137.086 136.884 136.011 135.913 135.167 135.247 134.699 134.882 
139.403 138.579 138.478 137.618 137.531 136.699 136.731 136.024 136.185 
135.593 135.818 141.041 140.18 140.145 139.267 139.243 138.367 138.436 
137.63 137.858 137.119 137.438 136.729 137.097 142.668 141.864 141.851 
140.995 141.026 140.152 140.282 139.441 139.699 138.921 139.242 138.497 
138.817 138.125 138.507 144.1 143.418 143.434 142.672 142.738 141.949 
142.121 141.328 141.568 140.781 140.993 140.231 140.375 139.705 139.881 
139.374 139.701 145.382 144.788 144.864 144.193 144.289 143.596 143.772 
143.086 143.305 142.581 142.728 141.929 141.961 141.169 141.203 140.584 
140.774 140.398 140.773 141.527 141.569 141.947 143.025 142.046 142.223 
143.39 143.814 145.22 142.849 142.901 144.052 144.366 145.809 146.24 
147.719 143.644 143.732 144.794 145.063 146.406 146.84 148.264 148.713 
150.161 144.228 144.419 145.415 145.703 146.943 147.378 148.744 149.197 
150.573 151.089 152.573 144.681 144.918 145.909 146.216 147.408 147.848 
149.202 149.663 151.008 151.465 152.863 153.457 154.928 145.155 145.371 
146.358 146.66 147.792 148.233 149.522 150.052 151.372 151.868 153.191 
153.731 155.142 155.746 157.088 145.668 145.863 146.802 147.082 148.103 
148.511 149.649 150.22 151.479 152.103 153.418 154.013 155.368 155.958 
157.271 157.796 158.897 146.133 146.343 147.221 147.486 148.393 148.73 
149.698 150.21 151.372 152.073 153.427 154.151 155.525 156.148 157.382 
157.914 158.939 159.397 160.231 141.929 143.409 142.733 143.085 145.528 
144.506 144.756 144.011 144.394 148.02 146.848 147.011 145.941 146.243 
145.44 145.859 150.625 149.477 149.728 148.432 148.652 147.532 147.912 
147.04 147.439 153.24 152.217 152.711 151.368 151.6 150.179 150.415 
149.268 149.61 148.653 148.894 155.633 154.826 155.47 154.374 154.697 
153.264 153.363 151.934 152.081 150.904 151.073 150.021 150.076 157.682 
157.045 157.636 156.866 157.254 156.179 156.32 154.935 154.941 153.515 
153.52 152.255 152.244 151.116 151.061 159.392 158.887 159.38 158.767 
159.158 158.416 158.721 157.699 157.809 156.435 156.326 154.838 154.664 
153.336 153.195 152.048 151.926 160.74 160.402 160.898 160.381 160.775 
160.165 160.558 159.856 160.152 159.126 159.083 157.657 157.333 155.829 
155.509 154.205 153.984 152.853 152.66 161.605 163.228 162.233 161.864 
165.072 163.958 163.461 162.363 161.79 166.569 165.691 165.079 163.962 
163.285 162.213 161.59 167.223 166.84 166.27 165.387 164.611 163.628 
162.931 161.967 161.23 167.04 167.121 166.712 166.245 165.459 164.71 
163.905 163.11 162.247 161.332 160.21 166.198 166.606 166.254 166.277 
165.552 165.201 164.342 163.794 162.818 162.065 160.803 159.864 158.414 
164.937 165.486 165.079 165.437 164.747 164.84 163.994 163.847 162.854 
162.37 161.072 160.258 158.764 157.858 156.462 163.587 164.113 163.7 
164.116 163.466 163.739 162.924 163.087 162.144 162.057 160.843 160.34 
158.89 158.127 156.734 155.97 154.802 162.327 162.795 162.42 162.798 
162.217 162.469 161.7 161.882 160.987 161.086 160.005 159.848 158.539 
158.083 156.734 156.145 154.954 154.371 153.363 161.549 161.772 162.187 
163.238 161.85 162.447 163.753 164.129 165.232 161.7 162.507 163.932 
164.582 165.774 166.047 166.763 161.168 162.196 163.563 164.491 165.534 
166.166 166.718 167.042 167.231 160.187 161.39 162.62 163.763 164.645 
165.486 165.867 166.468 166.572 167.011 166.922 158.817 160.082 161.137 
162.47 163.34 164.369 164.834 165.492 165.679 166.159 166.166 166.49 
166.198 157.424 158.512 159.341 160.698 161.532 162.837 163.467 164.435 
164.792 165.38 165.45 165.756 165.497 165.615 165.064 156.409 157.179 
157.832 158.903 159.619 160.888 161.514 162.787 163.207 164.245 164.323 
164.94 164.616 164.867 164.284 164.364 163.709 155.721 156.293 156.844 
157.611 158.24 159.174 159.723 160.793 161.167 162.308 162.419 163.396 
163.138 163.741 163.192 163.485 162.864 163.008 162.416 146.617 147.726 
147.363 147.756 148.898 148.542 148.966 148.544 148.915 150.047 149.732 
150.178 149.769 150.149 149.717 150.163 151.152 150.861 151.355 150.988 
151.462 151.031 151.61 151.172 151.872 152.294 151.978 152.514 152.183 
152.796 152.442 153.248 152.845 153.782 153.244 154.101 153.399 153.121 
153.656 153.366 154.025 153.788 154.696 154.51 155.592 155.266 156.227 
155.6 156.3 154.24 154.108 154.631 154.459 155.109 154.969 155.815 
155.78 156.783 156.781 157.702 157.475 158.12 157.572 158.031 154.792 
154.786 155.324 155.303 156.005 155.986 156.857 156.826 157.767 157.758 
158.635 158.58 159.242 159.007 159.463 159.033 159.41 155.252 155.278 
155.86 155.915 156.705 156.819 157.841 157.897 158.979 158.877 159.865 
159.63 160.439 160.103 160.71 160.302 160.77 160.306 160.671 146.137 
145.732 146.328 147.171 145.377 145.929 146.749 147.395 148.306 145.109 
145.625 146.432 147.004 147.89 148.546 149.454 144.853 145.373 146.188 
146.731 147.57 148.158 149.049 149.69 150.575 144.638 145.112 145.906 
146.46 147.277 147.844 148.682 149.3 150.213 150.847 151.741 144.551 
144.948 145.711 146.194 147.006 147.534 148.333 148.915 149.783 150.463 
151.399 152.043 152.874 144.454 144.868 145.621 146.067 146.885 147.34 
148.124 148.59 149.362 149.973 150.841 151.586 152.437 153.081 153.739 
144.263 144.701 145.42 145.926 146.73 147.243 148.034 148.46 149.161 
149.598 150.33 150.961 151.768 152.498 153.201 153.798 154.307 144.139 
144.503 145.166 145.644 146.39 146.971 147.752 148.303 149.011 149.443 
150.103 150.553 151.272 151.856 152.575 153.191 153.778 154.298 154.758 
144.355 145.088 144.903 145.349 145.908 145.701 146.124 145.957 146.52 
146.728 146.569 147.021 146.783 147.294 147.198 147.85 147.596 147.46 
147.998 147.719 148.177 147.991 148.601 148.556 149.167 148.588 148.433 
149.019 148.719 149.133 148.871 149.428 149.345 150.01 149.876 150.38 
149.582 149.445 149.982 149.71 150.068 149.791 150.314 150.213 150.949 
150.829 151.441 151.125 151.568 150.435 150.328 150.787 150.577 150.93 
150.693 151.23 151.127 151.905 151.827 152.508 152.241 152.684 152.326 
152.751 151.184 151.068 151.484 151.31 151.73 151.561 152.184 152.09 
152.874 152.791 153.457 153.251 153.672 153.37 153.717 153.454 153.867 
151.861 151.754 152.157 152.004 152.483 152.385 153.078 153.046 153.822 
153.743 154.358 154.155 154.564 154.287 154.634 154.364 154.74 154.504 
154.877 152.32 153.099 152.707 152.652 154.056 153.605 153.687 153.125 
153.111 155.23 154.746 154.956 154.347 154.458 153.784 153.85 156.414 
155.999 156.24 155.681 155.801 155.186 155.261 154.599 154.603 157.47 
157.146 157.418 156.928 157.027 156.459 156.492 155.908 155.856 155.213 
155.047 158.493 158.191 158.527 158.077 158.224 157.664 157.733 157.129 
157.12 156.432 156.253 155.512 155.233 159.58 159.269 159.662 159.221 
159.422 158.874 158.973 158.393 158.443 157.776 157.662 156.829 156.53 
155.675 155.353 160.683 160.399 160.878 160.451 160.774 160.184 160.345 
159.681 159.728 159.071 158.982 158.241 157.94 157.063 156.652 155.798 
155.453 161.702 161.491 162.062 161.732 162.242 161.71 162.058 161.281 
161.385 160.495 160.389 159.533 159.24 158.39 157.936 157.076 156.611 
155.843 155.502 152.184 151.984 152.39 152.917 151.514 152.064 152.653 
153.101 153.733 150.99 151.553 152.199 152.751 153.468 154.002 154.809 
150.538 151.083 151.793 152.346 153.147 153.716 154.581 155.139 155.976 
150.042 150.64 151.389 151.997 152.849 153.445 154.317 154.883 155.711 
156.246 157.008 149.469 150.099 150.827 151.519 152.365 153.088 153.957 
154.591 155.373 155.928 156.685 157.231 157.995 148.929 149.527 150.218 
150.887 151.682 152.467 153.345 154.113 154.909 155.536 156.267 156.861 
157.663 158.251 159.06 148.447 149.019 149.699 150.3 151.047 151.759 
152.619 153.42 154.266 154.989 155.736 156.387 157.181 157.863 158.739 
159.349 160.153 148.003 148.556 149.238 149.81 150.527 151.163 151.964 
152.708 153.552 154.31 155.092 155.796 156.585 157.319 158.215 158.953 
159.839 160.429 161.171 151.592 150.352 151.157 151.344 148.903 149.757 
150.003 150.785 150.876 147.66 148.367 148.607 149.39 149.584 150.289 
150.365 146.464 147.184 147.347 148.064 148.254 148.993 149.14 149.808 
149.887 144.989 145.846 145.97 146.752 146.85 147.637 147.754 148.52 
148.598 149.299 149.351 143.508 144.318 144.478 145.275 145.356 146.15 
146.225 147.043 147.111 147.901 147.949 148.699 148.76 142.223 142.934 
143.113 143.847 143.983 144.696 144.788 145.522 145.604 146.375 146.45 
147.234 147.325 148.101 148.212 140.995 141.669 141.814 142.545 142.71 
143.413 143.512 144.174 144.227 144.923 144.996 145.752 145.861 146.65 
146.79 147.576 147.722 139.848 140.445 140.558 141.253 141.418 142.142 
142.238 142.904 142.898 143.559 143.577 144.317 144.422 145.21 145.362 
146.152 146.322 147.105 147.278 139.286 138.628 139.289 139.966 137.836 
138.608 139.342 140.039 140.797 136.968 137.785 138.589 139.373 140.131 
140.856 141.573 136.287 136.986 137.802 138.588 139.353 140.111 140.789 
141.526 142.185 135.932 136.453 137.227 137.877 138.673 139.363 140.086 
140.755 141.459 142.152 142.882 135.883 136.248 137.014 137.472 138.305 
138.857 139.707 140.247 141.059 141.602 142.425 143.011 143.81 136.109 
136.344 137.135 137.44 138.297 138.704 139.634 140.086 140.989 141.422 
142.274 142.733 143.557 144.048 144.811 136.533 136.673 137.45 137.677 
138.522 138.837 139.742 140.132 141.031 141.436 142.273 142.677 143.47 
143.89 144.653 145.083 145.803 137.068 137.139 137.866 138.036 138.837 
139.097 139.938 140.268 141.106 141.48 142.295 142.683 143.477 143.86 
144.632 145.004 145.742 146.111 146.803 137.632 138.831 138.264 138.426 
140.217 139.57 139.718 139.141 139.383 141.69 141.033 141.186 140.519 
140.71 140.151 140.447 143.18 142.54 142.741 142.044 142.208 141.541 
141.775 141.239 141.569 144.739 144.076 144.342 143.647 143.854 143.112 
143.318 142.648 142.941 142.397 142.751 146.403 145.694 145.99 145.301 
145.568 144.816 145.027 144.272 144.535 143.875 144.209 143.628 143.967 
148.143 147.39 147.668 146.977 147.267 146.547 146.757 145.989 146.197 
145.499 145.796 145.166 145.477 144.859 145.141 149.932 149.147 149.379 
148.653 148.926 148.231 148.453 147.699 147.857 147.122 147.347 146.718 
147.002 146.39 146.636 146.005 146.234 151.699 150.932 151.128 150.361 
150.578 149.869 150.094 149.374 149.532 148.77 148.919 148.23 148.453 
147.854 148.084 147.479 147.669 147.056 147.255 147.995 148.427 148.553 
149.243 148.86 149.012 149.74 149.846 150.558 149.281 149.457 150.247 
150.378 151.16 151.234 152.005 149.815 149.955 150.829 150.946 151.806 
151.889 152.731 152.773 153.577 150.455 150.589 151.534 151.634 152.58 
152.635 153.557 153.569 154.428 154.392 155.151 151.032 151.235 152.221 
152.385 153.415 153.508 154.543 154.537 155.506 155.384 156.229 156.03 
156.761 151.575 151.805 152.865 153.078 154.2 154.372 155.524 155.6 
156.698 156.609 157.57 157.31 158.134 157.781 158.502 152.183 152.414 
153.574 153.796 155.032 155.224 156.481 156.608 157.789 157.8 158.833 
158.69 159.559 159.26 159.987 159.578 160.177 152.752 153.041 154.233 
154.536 155.842 156.118 157.463 157.634 158.866 158.893 159.933 159.859 
160.732 160.574 161.29 161.001 161.548 161.133 161.534 132.713 131.986 
132.45 132.661 131.336 131.693 131.828 132.332 132.528 131.053 131.112 
131.125 131.485 131.656 132.196 132.518 131.345 131.032 130.887 130.92 
131.063 131.44 131.849 132.388 132.975 132.073 131.516 131.237 130.919 
130.998 131.108 131.606 131.97 132.676 133.142 133.933 133.042 132.367 
132.062 131.489 131.511 131.337 131.86 132.019 132.794 133.087 133.944 
134.323 135.176 134.18 133.459 133.247 132.525 132.564 132.123 132.611 
132.523 133.273 133.386 134.227 134.492 135.385 135.689 136.495 135.37 
134.691 134.594 133.871 133.957 133.372 133.784 133.465 134.105 134.001 
134.744 134.857 135.709 135.972 136.807 137.026 137.712 136.488 135.895 
135.869 135.247 135.347 134.779 135.082 134.671 135.157 134.91 135.519 
135.456 136.207 136.346 137.159 137.356 138.054 138.19 138.761 133.215 
133.196 133.488 134.085 133.122 133.462 134.107 134.439 135.156 133.157 
133.429 134.14 134.479 135.255 135.6 136.383 133.598 133.649 134.368 
134.586 135.38 135.71 136.537 136.865 137.613 134.478 134.309 134.976 
134.982 135.704 135.884 136.68 137.004 137.814 138.097 138.8 135.597 
135.29 135.86 135.715 136.354 136.337 137.046 137.209 138.037 138.319 
139.128 139.328 140.018 136.796 136.411 136.869 136.627 137.212 137.085 
137.746 137.724 138.487 138.636 139.48 139.691 140.447 140.576 141.223 
137.955 137.57 137.973 137.657 138.207 138.005 138.655 138.523 139.199 
139.184 139.921 140.068 140.823 140.992 141.649 141.751 142.329 138.999 
138.672 139.081 138.768 139.288 139.044 139.652 139.466 140.064 139.928 
140.519 140.526 141.191 141.34 142.02 142.159 142.753 142.821 143.34 
133.415 134.337 133.94 134.207 135.448 134.983 135.301 134.922 135.387 
136.657 136.166 136.491 136.09 136.55 136.225 136.773 137.842 137.367 
137.654 137.269 137.7 137.381 137.866 137.582 138.123 138.997 138.521 
138.8 138.408 138.84 138.517 139.006 138.674 139.179 138.911 139.532 
140.204 139.709 140.027 139.594 140.064 139.702 140.243 139.87 140.402 
140.042 140.658 140.415 141.147 141.421 140.959 141.324 140.887 141.369 
140.979 141.517 141.142 141.675 141.306 141.884 141.595 142.274 142.07 
142.768 142.533 142.153 142.541 142.173 142.631 142.264 142.732 142.375 
142.848 142.522 143.034 142.764 143.342 143.142 143.754 143.585 144.167 
143.517 143.203 143.584 143.302 143.734 143.43 143.834 143.502 143.91 
143.612 144.081 143.828 144.336 144.121 144.646 144.48 145.014 144.871 
145.398 151.408 150.669 150.786 150.165 149.822 149.94 149.266 149.374 
148.706 148.859 148.993 148.287 148.442 147.836 147.992 147.481 147.804 
147.939 147.234 147.448 146.902 147.135 146.637 146.827 146.285 146.858 
146.912 146.228 146.415 145.905 146.178 145.632 145.859 145.191 145.427 
144.75 146.104 146.098 145.415 145.491 144.938 145.164 144.58 144.774 
144.031 144.221 143.517 143.809 143.239 145.38 145.416 144.717 144.722 
144.037 144.177 143.542 143.718 143.023 143.141 142.485 142.671 142.17 
142.446 142.004 144.605 144.69 144.017 144.008 143.239 143.264 142.556 
142.694 142.073 142.224 141.644 141.786 141.282 141.48 141.027 141.275 
140.82 143.879 143.943 143.336 143.324 142.601 142.526 141.794 141.8 
141.189 141.323 140.788 140.958 140.419 140.601 140.079 140.306 139.83 
140.095 139.675 
POINT_DATA 1002
SCALARS Distance double
LOOKUP_TABLE default
138.131 137.035 137.079 138.272 137.161 139.435 138.405 137.288 139.623 
140.871 138.576 137.559 139.771 141.069 142.32 138.948 137.949 140.085 
141.331 142.606 143.803 139.574 138.462 140.743 141.906 143.102 144.295 
145.412 140.428 139.265 141.625 142.746 143.853 145.015 146.132 147.134 
141.305 140.178 142.481 143.624 144.745 145.893 147.03 148.051 148.925 
141.882 140.808 143.07 144.32 145.631 146.895 148.035 149.065 149.974 
150.732 142.221 141.2 143.426 144.76 146.255 147.763 149.03 150.06 
150.976 151.786 152.446 135.993 135.977 134.863 134.785 133.725 135.985 
133.62 132.705 134.737 136.184 132.591 131.822 133.588 135.12 136.646 
131.74 131.185 132.665 134.2 135.804 137.046 131.291 131.095 132.064 
133.479 134.997 136.163 137.479 131.425 131.558 131.925 133.096 134.361 
135.38 136.616 138.36 131.942 132.242 132.18 133.086 134.134 134.982 
136.095 137.708 139.389 132.611 132.951 132.662 133.315 134.241 135.048 
136.04 137.473 138.926 140.108 133.549 133.386 134.55 134.628 135.921 
133.709 136.182 137.337 135.123 134.496 137.742 138.685 136.733 135.889 
135.363 139.314 140.212 138.383 137.482 136.826 136.372 141.018 141.899 
140.109 139.242 138.588 138.166 137.781 142.68 143.43 141.863 141.111 
140.499 140.016 139.551 139.126 144.147 144.726 143.478 142.877 142.378 
141.834 141.135 140.447 140.076 145.493 145.929 144.956 144.437 144.006 
143.534 142.821 141.93 141.235 141.016 142.371 142.46 144.248 142.977 
144.738 146.68 143.797 145.386 147.309 149.176 144.58 146.008 147.831 
149.662 151.654 145.147 146.525 148.301 150.106 151.96 154.118 145.604 
146.982 148.724 150.587 152.338 154.306 156.376 146.076 147.4 148.999 
150.85 152.687 154.564 156.573 158.329 146.56 147.776 149.139 150.816 
152.782 154.802 156.753 158.498 159.873 146.98 148.126 149.281 150.68 
152.631 154.886 156.901 158.501 159.828 161.002 143.611 145.661 144.999 
148.211 147.166 146.567 151.053 149.928 148.87 148.305 153.957 153.133 
151.748 150.636 149.896 156.422 156.048 154.925 153.429 152.186 151.142 
158.357 158.149 157.586 156.469 154.942 153.446 152.152 159.987 159.81 
159.53 159.063 157.916 156.145 154.42 153.024 161.357 161.359 161.166 
160.987 160.418 158.935 156.945 155.185 153.757 162.465 162.887 164.346 
164.654 166.223 162.854 166.205 167.286 164.388 162.627 167.035 167.356 
165.576 163.882 162.297 166.976 166.792 166.126 164.682 163.164 161.291 
166.058 165.75 165.733 164.803 163.551 161.751 159.382 164.659 164.408 
164.528 163.991 163.2 161.823 159.658 157.272 163.28 163.079 163.171 
162.71 162.084 161.166 159.56 157.475 155.473 162.035 161.875 161.954 
161.537 160.869 160.029 158.841 157.238 155.505 153.892 161.193 162.919 
161.224 163.22 161.135 165.137 163.193 160.8 165.403 166.788 162.623 
160.105 164.895 166.313 167.06 161.466 159.01 163.795 165.259 166.038 
166.627 159.792 157.667 162.173 164.069 165.187 165.821 166.06 158.098 
156.523 160.153 162.29 164.06 165.142 165.398 165.044 156.931 155.781 
158.481 160.246 162.032 163.548 164.292 164.169 163.649 156.174 155.211 
157.433 158.817 160.128 161.366 162.362 162.774 162.648 162.305 146.944 
148.167 148.07 149.393 149.236 149.344 150.57 150.341 150.576 150.534 
151.676 151.445 151.826 151.994 152.314 152.818 152.623 153.057 153.522 
154.246 154.804 153.93 153.651 154.234 154.805 155.781 156.766 157.125 
154.751 154.324 155.226 155.886 156.771 157.808 158.543 158.7 155.289 
154.772 155.945 156.863 157.837 158.706 159.402 159.791 159.909 145.541 
146.502 145.156 146.132 144.847 147.616 145.9 144.586 147.269 148.79 
145.639 144.338 147.028 148.419 149.942 145.364 144.216 146.718 148.089 
149.544 151.158 145.267 144.174 146.505 147.799 149.117 150.693 152.352 
145.166 144.026 146.433 147.721 148.859 150.115 151.72 153.247 144.916 
143.849 146.182 147.58 148.806 149.825 151.055 152.534 153.829 144.746 
143.824 145.839 147.154 148.527 149.706 150.784 151.983 153.215 154.298 