# vtk DataFile Version 4.0
vtk output
ASCII
DATASET POLYDATA
POINTS 1002 float
-85.0749 -83.9214 72.5374 -85.1881 -83.3479 71.2542 -84.7805 -83.0735 71.9831 
-84.6494 -83.6915 73.3297 -84.3511 -82.8067 72.8347 -84.9803 -84.5907 74.0695 
-84.2433 -83.5417 74.3302 -83.8896 -82.6757 73.8415 -84.5189 -84.5564 74.9435 
-84.8666 -85.58 75.7492 -83.8041 -83.5845 75.5292 -83.3362 -82.6911 74.8619 
-84.161 -84.5846 76.1314 -84.4468 -85.7485 76.7909 -84.7787 -86.7901 77.572 
-83.2253 -83.803 76.5797 -82.815 -82.7135 75.8487 -83.749 -84.7415 77.3876 
-84.1293 -85.8612 78.0887 -84.3476 -87.0887 78.7678 -84.6108 -88.1414 79.5168 
-82.7195 -84.0606 77.5772 -82.6034 -82.7391 77.0743 -83.1008 -85.1457 78.3425 
-83.6295 -86.1256 79.2199 -83.8512 -87.4122 79.9559 -83.9248 -88.7477 80.5745 
-84.0635 -89.9585 81.1657 -82.5198 -84.3641 78.9791 -82.5934 -82.9858 78.5686 
-82.4895 -85.7409 79.4636 -82.8461 -86.8104 80.1684 -83.1685 -88.0129 80.9512 
-83.1998 -89.4898 81.563 -83.2134 -90.8958 82.0022 -83.2747 -92.1598 82.3923 
-82.3089 -84.86 80.5172 -82.3812 -83.5484 80.0057 -82.0962 -86.3578 80.9746 
-82.1626 -87.6615 81.4306 -82.4208 -88.8912 81.9905 -82.5397 -90.3353 82.5862 
-82.5728 -91.7977 83.0581 -82.6327 -93.0982 83.4103 -82.7032 -94.2386 83.7622 
-81.8035 -85.4993 81.7308 -81.9236 -84.2602 81.2658 -81.655 -86.9216 82.2407 
-81.7153 -88.3199 82.7405 -81.8972 -89.6785 83.2001 -81.9951 -91.1716 83.6837 
-82.0761 -92.6629 84.2199 -82.1935 -93.9808 84.7013 -82.285 -95.1705 85.0999 
-82.3698 -96.2006 85.4611 -81.2577 -86.0853 82.7222 -81.5127 -84.9333 82.4275 
-81.1434 -87.3938 83.1006 -81.3271 -88.8083 83.6556 -81.5805 -90.3071 84.2806 
-81.6297 -91.9549 84.8117 -81.6329 -93.5918 85.3243 -81.7554 -94.992 85.8827 
-81.8767 -96.2381 86.3784 -81.9382 -97.4016 86.7544 -82.0088 -98.3582 87.016 
-85.0646 -82.5163 70.5396 -84.5608 -82.2237 71.3433 -84.858 -81.5837 69.8591 
-84.2426 -81.2843 70.8252 -84.673 -80.6571 69.351 -84.0087 -81.9839 72.2522 
-83.9744 -80.3292 70.4911 -84.585 -79.7249 69.0806 -83.5041 -81.1222 71.757 
-83.4089 -81.8486 73.179 -83.7554 -79.311 70.2151 -84.3033 -78.6777 68.8439 
-83.032 -80.2129 71.389 -82.7674 -80.9806 72.5877 -82.8172 -81.7023 74.1387 
-83.4371 -78.1079 69.9627 -83.8968 -77.5411 68.754 -82.7331 -79.0654 71.1591 
-82.2595 -80.0078 72.2789 -82.246 -80.7142 73.6522 -82.4367 -81.5474 75.3423 
-83.3579 -76.9474 70.1513 -84.0307 -76.5844 69.1971 -82.6621 -77.6962 71.2834 
-82.1408 -78.7115 72.4268 -81.9257 -79.6922 73.6418 -81.9814 -80.6032 75.1331 
-82.3336 -81.6291 76.8335 -83.8438 -76.2673 70.8672 -84.7332 -76.0652 70.0091 
-82.9431 -76.7064 71.9173 -82.3267 -77.4377 73.0556 -82.0394 -78.468 74.1692 
-81.776 -79.6876 75.3677 -81.8235 -80.8505 76.7777 -82.2548 -82.0458 78.3832 
-84.557 -76.0692 71.6976 -85.4138 -75.9451 70.8238 -83.5468 -76.365 72.7678 
-82.7021 -76.8299 73.9072 -82.3474 -77.5463 74.9752 -82.0377 -78.671 76.013 
-81.635 -80.0032 77.1298 -81.7161 -81.2798 78.4172 -82.0369 -82.6701 79.8757 
-85.1426 -76.0448 72.4986 -85.8594 -76.0119 71.6359 -84.2669 -76.2635 73.5998 
-83.3279 -76.6791 74.7431 -82.7666 -77.2431 75.7426 -82.5127 -78.0647 76.6906 
-82.0439 -79.1925 77.7216 -81.6444 -80.4485 78.8133 -81.7158 -81.8231 80.0157 
-81.802 -83.3795 81.2995 -85.8413 -76.0909 73.1118 -85.1662 -76.1085 74.208 
-85.927 -76.232 74.8654 -85.3241 -76.2989 76.0812 -86.0223 -76.7385 76.4577 
-84.3376 -76.4216 75.4264 -85.4167 -76.9297 77.6138 -86.0351 -77.6612 77.717 
-84.5598 -76.7415 77.154 -83.5288 -77.03 76.4289 -85.3293 -77.9085 78.9734 
-86.0997 -78.554 79.244 -84.6382 -77.458 78.5664 -83.8616 -77.6125 77.8898 
-83.0973 -77.8697 77.2525 -85.3059 -78.896 80.6884 -86.2045 -79.3464 81.0695 
-84.5617 -78.5141 80.1488 -84.0239 -78.5899 79.3684 -83.437 -78.8421 78.6998 
-82.7206 -78.906 78.2619 -85.3968 -80.0544 82.281 -86.1677 -80.4779 82.4291 
-84.6219 -79.7817 81.9306 -84.0712 -79.8683 81.1993 -83.608 -80.1073 80.3728 
-82.9353 -80.06 79.8639 -82.1464 -80.0351 79.4329 -85.4362 -81.4984 83.411 
-86.0572 -81.879 83.4355 -84.7555 -81.2431 83.3255 -84.1283 -81.2414 82.9557 
-83.6217 -81.387 82.2393 -83.0663 -81.3519 81.5505 -82.3913 -81.1969 81.1004 
-81.849 -81.3531 80.6094 -85.422 -82.8577 84.6119 -85.9934 -83.1151 84.6442 
-84.7979 -82.6718 84.5336 -84.1178 -82.6025 84.3566 -83.5046 -82.5919 83.9532 
-83.0044 -82.5807 83.3043 -82.5357 -82.5675 82.7252 -82.0943 -82.6733 82.3167 
-81.812 -82.9838 81.8392 -85.3881 -83.9796 85.9425 -85.9338 -84.1361 85.9007 
-84.781 -83.8964 85.8578 -84.069 -83.8973 85.6663 -83.3599 -83.8745 85.4323 
-82.8155 -83.8509 85.0131 -82.445 -83.9635 84.4042 -82.14 -84.1732 83.9084 
-81.8266 -84.3993 83.5119 -81.5767 -84.6543 82.9929 -81.0781 -86.2342 83.7212 
-81.3182 -86.0478 84.4223 -80.9037 -87.608 85.0763 -81.6592 -85.9324 84.9887 
-81.1789 -87.5433 85.8743 -81.0309 -89.5014 86.6884 -81.9454 -85.7638 85.4913 
-81.4465 -87.5782 86.5087 -81.1479 -89.5413 87.46 -81.0818 -92.2412 88.4976 
-82.2356 -85.521 86.1137 -81.7136 -87.5049 87.1359 -81.2924 -89.5838 88.0666 
-81.0911 -92.2415 89.0915 -80.8492 -95.2433 90.0526 -82.6876 -85.3958 86.5889 
-82.1229 -87.3297 87.6967 -81.6421 -89.4555 88.6186 -81.3227 -92.0549 89.5246 
-81.0387 -95.128 90.4707 -80.4959 -97.7476 91.1607 -83.3708 -85.3537 86.7889 
-82.7191 -87.2009 87.9034 -82.1808 -89.2457 88.9439 -81.7921 -91.6578 89.8667 
-81.4843 -94.691 90.7537 -80.9352 -97.6066 91.5333 -80.1511 -99.7426 92.0332 
-84.1727 -85.2348 86.9666 -83.483 -87.0314 87.9443 -82.8264 -89.059 88.982 
-82.3091 -91.2562 90.0434 -81.946 -94.0129 90.9595 -81.4687 -97.0413 91.7543 
-80.6954 -99.5528 92.3556 -79.9364 -101.527 92.667 -84.8922 -85.1473 87.0809 
-84.278 -86.8212 87.9787 -83.587 -88.8446 88.9184 -82.929 -90.9496 90.0463 
-82.4104 -93.3746 91.0397 -81.9278 -96.2252 91.8305 -81.2744 -98.9416 92.5 
-80.5313 -101.223 92.8829 -79.978 -103.305 92.9482 -85.4867 -85.1891 86.9959 
-84.9592 -86.7097 87.8622 -84.3448 -88.6339 88.744 -83.6864 -90.666 89.8817 
-83.0834 -92.8644 90.9473 -82.5215 -95.4598 91.7252 -81.877 -98.1645 92.4359 
-81.1837 -100.623 92.9868 -80.6046 -102.91 93.1409 -80.2101 -105.135 93.0192 
-80.8285 -87.4787 83.9366 -80.8848 -89.2272 85.4534 -80.9664 -89.026 84.3776 
-81.0927 -91.9119 87.4516 -81.1145 -91.4465 86.2128 -81.2998 -90.8559 85.1689 
-80.8791 -95.1341 89.3701 -80.9783 -94.7254 88.3655 -81.1365 -93.8903 87.1805 
-81.3671 -92.851 85.9706 -80.3003 -97.7785 90.633 -80.3491 -97.6193 89.8866 
-80.5628 -97.1067 88.9899 -80.8857 -96.088 87.8521 -81.2481 -94.7939 86.5423 
-79.7664 -99.8364 91.5568 -79.6687 -99.7162 90.7743 -79.8379 -99.4617 89.9674 
-80.2445 -98.9243 89.2237 -80.7726 -97.8789 88.2431 -81.2878 -96.4235 87.0583 
-79.5099 -101.911 92.3755 -79.3496 -102.017 91.6922 -79.3797 -101.815 90.7136 
-79.6336 -101.353 89.9539 -80.1897 -100.64 89.3969 -80.8353 -99.4561 88.6015 
-81.403 -97.8315 87.5574 -79.5641 -104.055 92.7976 -79.423 -104.651 92.4248 
-79.4032 -104.86 91.5676 -79.3808 -104.429 90.576 -79.6483 -103.569 89.9992 
-80.2545 -102.522 89.5666 -80.8847 -101.061 88.8628 -81.4463 -99.1936 87.9137 
-79.7883 -106.139 92.8489 -79.6069 -107.062 92.6485 -79.6151 -107.77 92.0947 
-79.5359 -107.811 91.1404 -79.5033 -106.984 90.369 -79.8546 -105.753 90.0118 
-80.4076 -104.357 89.606 -80.9342 -102.528 88.9499 -81.4821 -100.359 88.1024 
-80.1925 -107.826 92.9377 -79.775 -109.007 92.7168 -80.1028 -110.664 92.9254 
-79.6015 -111.883 92.5516 -80.0372 -113.099 92.7775 -79.6222 -110.029 92.3493 
-79.5219 -114.391 91.9797 -80.3136 -114.88 91.9685 -79.3853 -112.89 91.7894 
-79.613 -110.699 91.5466 -79.9499 -116.44 90.641 -80.8799 -116.113 90.6358 
-79.2831 -115.468 90.6958 -79.3858 -113.343 90.7087 -79.5732 -110.415 90.6145 
-80.6524 -117.757 89.1912 -81.3373 -116.661 89.6954 -79.7118 -117.483 89.1577 
-79.3557 -115.55 89.5874 -79.6301 -112.551 90.0285 -79.7832 -109.134 90.1572 
-81.1985 -117.672 88.5455 -81.7071 -116.081 89.398 -80.4044 -118.139 88.0731 
-79.7761 -116.83 88.5108 -79.8666 -114.041 89.4228 -80.1785 -110.742 89.937 
-80.2606 -107.473 89.9151 -81.7417 -116.036 88.526 -82.2897 -114.438 89.2305 
-81.0616 -116.934 87.9113 -80.4253 -116.487 88.0497 -80.2851 -114.487 88.9386 
-80.5148 -111.573 89.6358 -80.6312 -108.518 89.6901 -80.6901 -105.496 89.4151 
-82.4754 -113.662 88.5622 -83.0553 -112.384 88.9783 -81.7542 -114.544 88.1355 
-81.0898 -114.637 88.1083 -80.804 -113.583 88.6805 -80.8345 -111.419 89.2564 
-80.8811 -108.686 89.3193 -80.9449 -105.841 89.087 -81.1598 -103.016 88.7264 
-83.2366 -111.349 88.5052 -83.7726 -110.397 88.735 -82.4914 -112.024 88.2653 
-81.7529 -112.211 88.194 -81.364 -111.68 88.4733 -81.2789 -110.248 88.8288 
-81.2215 -108.034 88.8536 -81.2435 -105.447 88.6444 -81.4641 -102.852 88.3627 
-81.7645 -100.451 87.8479 -80.7038 -105.5 93.2243 -80.6929 -108.287 93.1842 
-81.1649 -105.44 93.4772 -81.1614 -107.961 93.3789 -81.6046 -104.824 93.6556 
-80.6804 -110.986 93.1592 -81.651 -106.849 93.3935 -82.258 -103.949 93.6809 
-81.2958 -110.283 93.1542 -80.8037 -113.021 92.822 -82.427 -105.536 93.3242 
-83.1074 -103.068 93.3521 -81.9551 -108.811 93.0122 -81.5174 -112 92.6244 
-81.1242 -114.259 91.8485 -83.3144 -104.279 93.0693 -83.844 -101.986 92.5727 
-82.7998 -107.084 92.9844 -82.1782 -110.303 92.5129 -81.6737 -112.896 91.7733 
-81.4507 -114.876 90.8084 -84.0019 -102.921 92.4714 -84.5564 -100.548 91.7171 
-83.5786 -105.311 92.8243 -82.927 -108.13 92.5025 -82.2622 -110.868 91.8216 
-81.9204 -112.983 91.1152 -81.7807 -114.77 90.3294 -84.7456 -101.36 91.7018 
-85.5046 -98.8591 91.0287 -84.2305 -103.654 92.2915 -83.6448 -105.957 92.2687 
-83.0124 -108.43 91.7413 -82.6855 -110.63 91.2611 -82.4993 -112.398 90.7889 
-82.3251 -113.769 90.0612 -85.7433 -99.5189 90.9007 -86.5601 -97.0845 90.339 
-85.0738 -101.923 91.5297 -84.4596 -104.073 91.8035 -83.8317 -106.182 91.5243 
-83.5291 -108.25 91.1802 -83.4507 -109.992 90.9233 -83.2348 -111.319 90.3941 
-83.0576 -112.154 89.6358 -86.7963 -97.5316 90.0816 -87.5018 -95.4235 89.5736 
-86.1074 -99.8594 90.6837 -85.4964 -102.052 91.1941 -84.8563 -104.06 91.2721 
[...]
CELL_DATA 2000
SCALARS Distance double
LOOKUP_TABLE default
138.155 138.156 138.473 139.18 138.286 138.551 139.305 139.616 140.463 
138.553 138.808 139.65 139.881 140.8 141.071 142.039 138.824 139.135 
140.079 140.338 141.317 141.548 142.561 142.781 143.786 139.223 139.465 
140.459 140.761 141.784 142.081 143.103 143.353 144.347 144.56 145.523 
140.011 140.065 141.079 141.229 142.28 142.532 143.599 143.874 144.9 
145.124 146.085 146.271 147.179 141.015 141.011 142.032 142.045 143.092 
143.175 144.265 144.438 145.542 145.73 146.78 146.912 147.889 147.97 
148.892 141.901 141.952 142.902 142.986 143.984 144.076 145.125 145.232 
146.335 146.474 147.598 147.716 148.798 148.839 149.866 149.838 150.818 
142.668 142.702 143.526 143.676 144.614 144.839 145.894 146.09 147.204 
147.344 148.499 148.614 149.774 149.839 150.952 150.938 151.993 151.901 
152.881 137.529 136.547 137.192 137.501 135.553 136.182 136.5 137.174 
137.564 134.695 135.231 135.498 136.138 136.492 137.244 137.711 133.85 
134.388 134.563 135.137 135.386 136.101 136.499 137.356 137.887 132.879 
133.447 133.599 134.177 134.37 135.006 135.348 136.125 136.665 137.569 
138.263 132.269 132.573 132.788 133.246 133.533 134.078 134.48 135.113 
135.688 136.462 137.237 138.134 139.041 132.477 132.382 132.657 132.76 
133.159 133.472 134.014 134.475 135.125 135.704 136.484 137.242 138.178 
139.078 140.054 133.191 132.929 133.226 133.051 133.468 133.473 134.068 
134.294 135.014 135.383 136.145 136.666 137.53 138.283 139.258 140.128 
141.039 133.965 133.713 134.027 133.803 134.214 134.054 134.605 134.613 
135.323 135.498 136.262 136.54 137.328 137.798 138.709 139.417 140.387 
141.139 141.967 134.489 135.448 134.822 134.613 136.626 135.919 135.727 
135.047 134.872 137.857 137.156 136.984 136.262 136.094 135.384 135.276 
139.145 138.4 138.236 137.522 137.383 136.678 136.611 135.919 135.958 
140.625 139.785 139.637 138.834 138.772 138.036 138.078 137.359 137.444 
136.735 136.863 142.137 141.338 141.267 140.406 140.439 139.608 139.76 
138.966 139.122 138.318 138.428 137.682 137.869 143.527 142.834 142.87 
142.102 142.205 141.403 141.568 140.756 140.907 140.067 140.175 139.339 
139.517 138.792 139.163 144.898 144.247 144.361 143.678 143.811 143.105 
143.239 142.503 142.607 141.822 141.931 141.124 141.337 140.565 140.939 
140.262 140.778 146.239 145.648 145.796 145.16 145.301 144.635 144.763 
144.072 144.189 143.459 143.607 142.864 143.122 142.403 142.774 142.082 
142.499 141.871 142.308 143.197 143.503 143.764 144.625 143.843 144.155 
145.111 145.32 146.394 144.166 144.516 145.559 145.843 146.946 147.288 
148.724 144.575 144.876 145.963 146.298 147.436 147.801 149.175 149.756 
151.366 145.086 145.325 146.396 146.735 147.891 148.258 149.563 150.116 
151.664 152.334 153.767 145.621 145.828 146.835 147.165 148.288 148.676 
149.901 150.422 151.868 152.558 154.021 154.56 155.674 146.144 146.336 
147.275 147.567 148.619 149.01 150.158 150.661 151.971 152.657 154.067 
154.741 155.926 156.319 157.195 146.609 146.816 147.696 147.962 148.936 
149.301 150.383 150.849 152.039 152.657 153.947 154.67 155.87 156.451 
157.386 157.738 158.529 146.991 147.213 148.027 148.304 149.2 149.565 
150.582 151.034 152.139 152.678 153.843 154.493 155.653 156.306 157.319 
157.818 158.667 159.028 159.839 143.368 144.725 144.035 144.159 146.595 
145.621 145.782 145.011 145.316 149.191 147.955 148.272 147.073 147.424 
146.439 146.793 151.975 150.83 151.295 149.971 150.332 148.983 149.27 
148.064 148.281 154.22 153.396 153.771 152.815 153.097 151.938 152.106 
150.787 150.872 149.572 149.651 155.947 155.287 155.485 154.794 154.941 
154.201 154.331 153.395 153.451 152.248 152.238 150.942 150.949 157.499 
156.896 157.179 156.428 156.622 155.827 156.013 155.257 155.46 154.589 
154.685 153.538 153.508 152.216 152.154 158.957 158.469 159.009 158.321 
158.785 157.836 158.151 157.122 157.411 156.503 156.787 155.839 155.947 
154.763 154.683 153.366 153.218 160.344 159.961 160.659 160.193 160.879 
160.158 160.627 159.567 159.824 158.696 158.959 157.956 158.182 157.12 
157.121 155.868 155.677 154.346 154.098 161.361 163.146 162.081 161.763 
164.851 163.881 163.553 162.5 162.082 166.111 165.424 165.09 164.188 
163.737 162.684 161.949 166.837 166.469 166.209 165.514 165.02 164.143 
163.397 162.257 161.19 167.16 167.056 166.924 166.444 165.954 165.225 
164.489 163.54 162.55 161.342 160.239 167.02 167.202 167.112 166.938 
166.461 165.959 165.231 164.494 163.59 162.598 161.539 160.388 159.333 
166.285 166.734 166.565 166.76 166.272 166.147 165.43 165.018 164.13 
163.439 162.364 161.454 160.276 159.305 158.155 165.17 165.707 165.449 
165.858 165.354 165.574 164.892 164.874 163.992 163.659 162.511 161.905 
160.596 159.876 158.576 157.826 156.602 164.008 164.496 164.193 164.608 
164.092 164.43 163.771 164.015 163.175 163.17 162.017 161.69 160.315 
159.826 158.464 157.934 156.674 156.092 154.922 161.444 161.986 162.244 
163.225 162.115 162.628 163.706 164.046 164.937 161.858 162.485 163.531 
164.24 165.202 165.56 166.159 161.512 162.086 162.961 163.78 164.751 
165.466 166.089 166.426 166.744 160.987 161.645 162.385 163.127 163.975 
164.781 165.415 166.009 166.317 166.715 166.912 160.11 160.942 161.652 
162.436 163.096 163.892 164.419 165.136 165.436 166.023 166.204 166.695 
166.761 159.107 159.969 160.677 161.528 162.078 162.86 163.239 164.001 
164.283 165.001 165.194 165.809 165.863 166.323 166.134 158.127 158.948 
159.607 160.474 161.018 161.771 162.101 162.785 163.063 163.797 164.065 
164.743 164.83 165.334 165.163 165.503 165.116 157.137 157.907 158.463 
159.341 159.883 160.692 161.059 161.715 161.981 162.643 162.938 163.625 
163.784 164.311 164.178 164.526 164.19 164.44 164.004 147.438 148.427 
148.101 148.469 149.516 149.156 149.583 149.223 149.677 150.722 150.347 
150.849 150.446 150.985 150.577 151.116 151.925 151.604 152.143 151.763 
152.339 151.964 152.581 152.141 152.712 153.059 152.798 153.353 153.019 
153.622 153.32 154.036 153.671 154.348 153.828 154.42 154.159 153.946 
154.573 154.24 154.941 154.656 155.563 155.244 156.112 155.58 156.248 
155.607 156.19 155.146 155.04 155.755 155.501 156.295 156.068 157.118 
156.897 157.923 157.457 158.175 157.497 158.018 157.351 157.827 155.93 
155.95 156.714 156.626 157.442 157.366 158.378 158.357 159.346 159.134 
159.802 159.309 159.751 159.137 159.529 158.885 159.227 156.555 156.654 
157.455 157.496 158.327 158.362 159.283 159.375 160.248 160.241 160.847 
160.621 161.059 160.681 161.11 160.572 160.936 160.234 160.485 146.99 
146.647 147.21 147.983 146.254 146.865 147.666 148.221 149.025 145.779 
146.431 147.245 147.87 148.675 149.276 150.141 145.368 145.956 146.785 
147.424 148.244 148.872 149.71 150.379 151.281 145.15 145.629 146.451 
147.02 147.882 148.468 149.288 149.904 150.759 151.469 152.373 144.965 
145.441 146.2 146.731 147.578 148.16 148.999 149.541 150.31 150.913 
151.758 152.508 153.407 144.67 145.185 145.888 146.426 147.188 147.808 
148.65 149.259 150.023 150.532 151.252 151.874 152.722 153.504 154.363 
144.392 144.869 145.576 146.079 146.799 147.368 148.173 148.834 149.66 
150.24 150.96 151.463 152.205 152.842 153.674 154.414 155.177 144.258 
144.651 145.363 145.812 146.546 147.029 147.799 148.373 149.192 149.817 
150.594 151.155 151.875 152.421 153.169 153.786 154.527 155.18 155.834 
144.457 145.099 145.024 145.538 145.728 145.675 146.243 146.179 146.739 
146.428 146.346 146.989 146.938 147.584 147.448 148.025 147.263 147.155 
147.86 147.776 148.482 148.342 148.947 148.766 149.359 148.079 148.053 
148.829 148.744 149.437 149.259 149.809 149.638 150.199 150.101 150.71 
148.758 148.839 149.688 149.705 150.396 150.214 150.679 150.452 150.966 
150.883 151.545 151.469 152.073 149.372 149.477 150.312 150.442 151.16 
151.098 151.581 151.345 151.846 151.693 152.406 152.34 153.057 152.865 
153.416 149.962 150.054 150.802 150.954 151.666 151.741 152.339 152.242 
152.831 152.672 153.391 153.277 154.021 153.866 154.462 154.204 154.699 
150.513 150.602 151.309 151.417 152.123 152.219 152.929 152.973 153.719 
153.675 154.438 154.314 155.021 154.841 155.43 155.205 155.705 155.457 
155.94 151.062 152.338 151.751 151.91 153.819 153.164 153.292 152.624 
152.73 155.222 154.668 154.847 154.126 154.218 153.489 153.592 156.46 
156.01 156.301 155.691 155.873 155.12 155.253 154.453 154.537 157.814 
157.313 157.69 157.127 157.414 156.769 156.973 156.21 156.289 155.415 
155.361 159.395 158.837 159.294 158.648 158.992 158.32 158.573 157.87 
157.96 157.141 157.019 156.113 155.896 160.941 160.463 160.981 160.37 
160.749 160.017 160.253 159.481 159.576 158.757 158.643 157.723 157.438 
156.518 156.231 162.244 161.893 162.395 161.961 162.344 161.743 161.912 
161.154 161.15 160.344 160.232 159.349 159.088 158.097 157.75 156.805 
156.502 163.309 163.05 163.495 163.191 163.538 163.126 163.239 162.625 
162.484 161.766 161.557 160.83 160.596 159.738 159.391 158.394 158.007 
157.062 156.746 150.739 150.603 151.088 151.997 150.485 150.979 151.939 
152.473 153.468 150.375 150.884 151.83 152.391 153.382 153.926 154.831 
150.166 150.736 151.641 152.225 153.15 153.746 154.639 155.181 156.021 
149.814 150.441 151.305 151.935 152.818 153.45 154.344 154.938 155.845 
156.387 157.327 149.382 150.024 150.856 151.51 152.387 153.066 153.996 
154.643 155.598 156.206 157.225 157.804 158.85 148.938 149.575 150.403 
151.042 151.905 152.597 153.543 154.263 155.239 155.926 156.954 157.645 
158.745 159.37 160.394 148.535 149.15 149.999 150.615 151.459 152.11 
153.01 153.752 154.72 155.487 156.507 157.287 158.405 159.173 160.272 
160.868 161.765 148.205 148.781 149.634 150.237 151.06 151.665 152.487 
153.182 154.101 154.898 155.915 156.758 157.867 158.734 159.871 160.641 
161.617 162.145 162.884 150.025 149.041 149.625 149.853 148.105 148.68 
148.849 149.439 149.694 146.94 147.67 147.829 148.433 148.574 149.244 
149.526 145.491 146.346 146.543 147.297 147.383 148.055 148.191 148.992 
149.27 144.077 144.868 145.099 145.92 146.059 146.768 146.817 147.567 
147.744 148.647 148.916 142.819 143.529 143.727 144.508 144.691 145.422 
145.485 146.17 146.263 147.086 147.328 148.255 148.51 141.548 142.265 
142.394 143.147 143.262 144.027 144.092 144.819 144.894 145.652 145.846 
146.698 146.961 147.846 148.081 140.265 140.967 141.072 141.782 141.814 
142.542 142.546 143.332 143.423 144.257 144.47 145.301 145.563 146.37 
146.614 147.44 147.683 139.085 139.725 139.843 140.488 140.51 141.125 
141.08 141.773 141.852 142.716 142.991 143.912 144.239 145.059 145.322 
146.069 146.311 147.099 147.375 138.484 137.736 138.507 139.226 136.805 
137.693 138.45 139.212 139.851 135.87 136.731 137.53 138.361 139.032 
139.76 140.373 135.37 135.962 136.809 137.517 138.311 138.995 139.731 
140.382 141.168 135.544 135.8 136.684 137.102 138.019 138.52 139.421 
139.948 140.876 141.445 142.406 136.111 136.205 137.05 137.273 138.19 
138.518 139.443 139.846 140.796 141.3 142.295 142.831 143.745 136.714 
136.774 137.503 137.685 138.512 138.793 139.649 139.972 140.839 141.262 
142.2 142.73 143.645 144.123 144.881 137.295 137.319 137.961 138.086 
138.85 139.095 139.951 140.224 141.091 141.383 142.291 142.685 143.615 
144.044 144.857 145.215 145.898 137.87 137.879 138.501 138.56 139.302 
139.468 140.344 140.582 141.505 141.74 142.659 142.918 143.839 144.14 
144.993 145.28 146.023 146.283 146.973 138.367 139.435 138.94 139.065 
140.732 140.14 140.328 139.748 139.926 142.245 141.546 141.733 141.107 
141.329 140.728 140.98 143.96 143.162 143.289 142.559 142.751 142.146 
142.43 141.863 142.15 145.755 144.966 145.137 144.257 144.396 143.619 
143.884 143.298 143.647 143.065 143.339 147.418 146.742 147.03 146.213 
146.4 145.463 145.655 144.853 145.183 144.563 144.902 144.261 144.501 
149.048 148.365 148.671 148.011 148.28 147.485 147.662 146.769 146.971 
146.187 146.476 145.811 146.066 145.397 145.587 150.904 150.08 150.34 
149.614 149.885 149.21 149.437 148.683 148.837 148.018 148.185 147.426 
147.636 146.941 147.123 146.437 146.586 152.935 152.041 152.268 151.391 
151.607 150.826 151.056 150.341 150.531 149.781 149.907 149.13 149.266 
148.531 148.698 147.985 148.129 147.416 147.542 148.316 148.945 149.004 
149.747 149.533 149.635 150.399 150.452 151.162 150.125 150.225 151.018 
151.09 151.84 151.858 152.579 150.8 150.882 151.741 151.777 152.622 
152.612 153.452 153.399 154.227 151.463 151.606 152.573 152.626 153.61 
153.57 154.566 154.457 155.431 155.252 156.145 152.063 152.281 153.374 
153.523 154.66 154.694 155.836 155.748 156.846 156.637 157.637 157.322 
158.202 152.725 152.953 154.163 154.367 155.644 155.788 157.08 157.094 
158.298 158.137 159.194 158.902 159.832 159.447 160.248 153.476 153.718 
155.012 155.231 156.595 156.805 158.233 158.364 159.695 159.614 160.703 
160.443 161.345 161.026 161.796 161.404 162.002 154.173 154.489 155.817 
156.1 157.485 157.763 159.229 159.49 160.901 160.975 162.096 161.905 
162.741 162.44 163.133 162.808 163.351 162.938 163.29 133.845 133.054 
133.455 133.52 132.331 132.646 132.692 133.165 133.363 132.111 132.078 
132.081 132.381 132.597 133.106 133.444 132.7 132.235 132.105 131.985 
132.096 132.408 132.745 133.271 133.671 133.64 133.058 132.773 132.286 
132.112 132.041 132.177 132.568 132.942 133.518 133.978 134.458 133.942 
133.617 133.03 132.656 132.224 132.077 132.1 132.344 132.795 133.32 
133.926 134.56 135.323 134.764 134.528 133.898 133.587 132.932 132.715 
132.292 132.438 132.468 133.031 133.432 134.218 134.74 135.526 136.351 
135.756 135.632 134.963 134.808 134.063 133.941 133.249 133.369 132.981 
133.511 133.532 134.381 134.666 135.577 135.915 136.699 137.357 136.824 
136.753 136.156 136.093 135.414 135.372 134.645 134.723 134.139 134.53 
134.29 135.038 135.107 136.013 136.197 137.032 137.195 137.877 134.31 
134.055 134.455 135.1 133.941 134.278 134.953 135.375 136.1 134.01 
134.25 134.912 135.279 136.001 136.401 137.059 134.218 134.384 135.006 
135.294 136.012 136.354 137.029 137.335 137.964 134.554 134.64 135.229 
135.428 136.139 136.434 137.163 137.416 138.105 138.347 139.088 135.162 
135.104 135.7 135.738 136.424 136.625 137.393 137.635 138.377 138.595 
139.347 139.599 140.359 136.059 135.875 136.482 136.365 137.026 137.047 
137.805 137.95 138.717 138.902 139.642 139.87 140.592 140.829 141.463 
137.082 136.832 137.387 137.221 137.842 137.764 138.467 138.488 139.219 
139.303 140.017 140.171 140.879 141.072 141.719 141.874 142.427 138.129 
137.831 138.299 138.106 138.664 138.566 139.191 139.17 139.814 139.843 
140.486 140.577 141.254 141.402 142.077 142.201 142.795 142.866 143.396 
134.696 135.483 135.225 135.643 136.471 136.13 136.492 136.265 136.776 
137.394 137.107 137.417 137.144 137.552 137.411 137.962 138.273 137.979 
138.301 138.025 138.386 138.186 138.711 138.629 139.269 139.41 138.979 
139.36 138.976 139.392 139.077 139.629 139.463 140.183 140.072 140.788 
140.677 140.239 140.647 140.199 140.652 140.229 140.782 140.497 141.212 
141.065 141.806 141.64 142.276 141.736 141.42 141.815 141.48 141.92 
141.54 142.022 141.688 142.283 142.093 142.761 142.621 143.224 143.044 
143.6 142.65 142.37 142.767 142.529 142.995 142.722 143.179 142.86 
143.337 143.095 143.666 143.521 144.12 143.962 144.528 144.345 144.925 
143.594 143.287 143.692 143.452 143.953 143.735 144.231 143.948 144.392 
144.1 144.597 144.405 145 144.859 145.462 145.289 145.863 145.682 
146.246 149.909 149.342 149.378 148.911 148.68 148.742 148.247 148.38 
147.936 148.03 148.057 147.527 147.654 147.172 147.32 146.76 147.412 
147.444 146.922 146.977 146.461 146.528 145.913 145.997 145.322 146.678 
146.801 146.285 146.373 145.786 145.818 145.126 145.154 144.444 144.529 
143.908 145.877 146.018 145.471 145.614 144.922 145.005 144.196 144.284 
143.523 143.655 143.011 143.179 142.639 145.185 145.253 144.671 144.749 
144.013 144.043 143.186 143.256 142.478 142.657 142.01 142.233 141.646 
141.884 141.346 144.562 144.596 143.992 144.001 143.281 143.216 142.411 
142.352 141.623 141.679 141.071 141.223 140.643 140.843 140.275 140.539 
140.039 143.929 143.96 143.355 143.354 142.67 142.588 141.847 141.735 
141.051 140.999 140.404 140.42 139.849 139.921 139.359 139.513 139.011 
139.273 138.859 
POINT_DATA 1002
SCALARS Distance double
LOOKUP_TABLE default
138.794 137.856 137.818 138.811 137.842 139.938 139.004 138.016 140.102 
141.353 139.408 138.238 140.541 141.762 143.005 139.762 138.474 141.071 
142.345 143.58 144.777 140.163 139.035 141.454 142.831 144.138 145.328 
146.469 141.003 140.002 142.076 143.314 144.659 145.912 147.023 148.052 
142.036 141.014 143.064 144.142 145.347 146.627 147.808 148.842 149.787 
142.812 141.883 143.867 145.027 146.213 147.454 148.719 149.872 150.889 
151.784 143.418 142.709 144.354 145.627 147.034 148.373 149.677 150.932 
152.058 153.037 153.828 136.916 136.845 135.884 135.822 134.959 136.838 
134.918 134.214 135.759 136.882 134.039 133.301 134.738 135.665 136.952 
133.006 132.336 133.759 134.618 135.763 137.284 132.382 132.096 132.982 
133.864 134.963 136.342 138.089 132.674 132.667 132.924 133.579 134.605 
135.813 137.3 139.148 133.451 133.459 133.562 133.925 134.705 135.738 
136.891 138.403 140.226 134.234 134.209 134.403 134.683 135.212 136.054 
136.998 138.102 139.624 141.314 135.029 135.208 136.112 136.441 137.327 
135.537 137.701 138.547 136.813 135.938 138.956 139.938 138.054 137.287 
136.611 140.465 141.476 139.496 138.77 138.182 137.542 142.079 142.862 
141.263 140.564 139.952 139.236 138.511 143.564 144.161 142.969 142.386 
141.758 141.017 140.275 139.768 145.019 145.519 144.504 143.966 143.37 
142.697 142.084 141.655 141.398 146.41 146.792 145.963 145.441 144.885 
144.316 143.814 143.474 143.198 142.906 143.981 144.41 145.488 144.862 
146.066 147.632 145.217 146.605 148.171 150.376 145.602 147.078 148.632 
150.729 153.005 146.062 147.531 149.071 150.994 153.278 155.027 146.541 
147.908 149.432 151.208 153.41 155.384 156.616 147.031 148.259 149.697 
151.35 153.361 155.439 156.962 158.012 147.458 148.603 149.953 151.504 
153.268 155.219 156.96 158.244 159.337 147.773 148.855 150.147 151.652 
153.267 155 156.749 158.256 159.508 160.678 144.709 146.669 145.972 
149.571 148.582 147.722 152.555 151.771 150.654 149.442 154.638 154.13 
153.4 152.276 150.91 156.203 155.622 155.08 154.519 153.569 152.246 
157.874 157.466 156.786 156.181 155.687 154.808 153.479 159.528 159.631 
159.266 158.408 157.652 157.031 156.011 154.569 161.027 161.43 161.587 
161.037 160.037 159.196 158.328 157.034 155.44 162.386 162.839 164.222 
164.59 165.748 163.239 165.941 166.648 164.745 163.236 166.828 167.044 
165.866 164.459 162.507 167.305 167.139 166.647 165.358 163.663 161.493 
167.167 166.758 166.865 165.876 164.47 162.649 160.484 166.281 165.823 
166.251 165.704 164.72 163.213 161.24 159.111 165.026 164.667 165.048 
164.772 164.211 163.058 161.273 159.284 157.341 163.804 163.558 163.758 
163.478 163.073 162.253 160.751 158.93 157.187 155.503 161.278 163.076 
161.614 163.203 161.539 164.849 162.726 161.321 164.678 166.09 162.223 
161.002 163.948 165.639 166.548 161.719 160.248 163.223 164.767 165.849 
166.562 160.865 159.224 162.378 163.7 164.801 165.668 166.391 159.826 
158.281 161.348 162.515 163.514 164.543 165.379 165.829 158.746 157.364 
160.256 161.458 162.338 163.345 164.316 164.805 164.867 157.621 156.435 
159.031 160.371 161.357 162.255 163.221 163.821 163.916 163.794 147.751 
148.783 148.752 149.936 149.864 150.035 151.246 151.061 151.372 151.555 
152.51 152.21 152.679 152.971 153.223 153.682 153.292 153.876 154.318 
154.827 155.001 154.873 154.319 155.172 155.785 156.597 156.922 156.83 
155.934 155.193 156.467 157.259 158.321 158.863 158.749 158.484 156.732 
155.875 157.488 158.386 159.502 160.226 160.325 160.187 159.924 146.431 
147.452 146.064 147.085 145.619 148.465 146.593 145.131 148.064 149.502 
146.147 144.83 147.621 149.054 150.58 145.915 144.71 147.296 148.734 
150.082 151.624 145.701 144.487 146.987 148.457 149.814 151.041 152.616 
145.371 144.155 146.595 147.986 149.513 150.75 151.974 153.584 145.083 
143.941 146.277 147.529 149.008 150.464 151.673 152.974 154.47 144.93 