# vtk DataFile Version 4.0
vtk output
ASCII
DATASET POLYDATA
POINTS 1002 float
-82.6578 -85.2436 69.9007 -82.6901 -84.8757 68.704 -82.2588 -84.4416 69.3632 
-82.1072 -84.9698 70.5185 -81.827 -83.9252 70.0961 -82.5146 -85.8936 71.0671 
-81.6791 -84.6242 71.3225 -81.3073 -83.5695 71.0257 -81.9898 -85.7922 71.8002 
-82.4347 -86.7234 72.4575 -81.2485 -84.3773 72.3929 -80.6279 -83.5365 72.0465 
-81.6591 -85.5399 72.8148 -82.0099 -86.6582 73.4411 -82.4517 -87.5552 74.1621 
-80.6671 -84.3247 73.463 -79.9647 -83.6497 72.983 -81.2857 -85.2701 73.9392 
-81.6471 -86.4798 74.5426 -81.9967 -87.5833 75.2416 -82.39 -88.6077 75.8884 
-80.1161 -84.4163 74.5133 -79.6139 -83.7389 74.15 -80.7875 -85.1497 74.9835 
-81.2288 -86.3884 75.5763 -81.5041 -87.7478 76.2584 -81.8703 -88.9241 76.9152 
-82.1974 -90.0589 77.5338 -79.78 -84.6911 75.9499 -79.5269 -83.9266 75.8285 
-80.3868 -85.2879 76.2106 -80.9213 -86.4471 76.7038 -81.1592 -88.0566 77.3744 
-81.4384 -89.4402 78.0347 -81.7956 -90.5907 78.6811 -82.0186 -91.7203 79.3369 
-79.5295 -85.1197 77.6571 -79.4788 -84.2473 77.5695 -80.0906 -85.7007 77.7211 
-80.7893 -86.6302 78.0239 -81.0853 -88.2672 78.6739 -81.2363 -89.9269 79.3993 
-81.5397 -91.2144 80.0606 -81.7986 -92.3983 80.7213 -81.9248 -93.5517 81.3138 
-79.3817 -85.4563 79.0936 -79.5226 -84.5356 78.8775 -79.822 -86.1587 79.1344 
-80.6355 -86.948 79.2914 -81.0858 -88.3921 79.8777 -81.1486 -90.2378 80.6988 
-81.3298 -91.8342 81.451 -81.5957 -93.1967 82.1487 -81.7419 -94.5054 82.7603 
-81.8124 -95.6572 83.172 -79.5426 -85.616 80.1383 -79.7993 -84.7492 79.8023 
-79.7683 -86.4451 80.2692 -80.4756 -87.3198 80.4053 -81.0203 -88.6623 80.9373 
-81.0795 -90.5735 81.804 -81.1069 -92.5109 82.6141 -81.3127 -94.15 83.328 
-81.4766 -95.6206 84.0055 -81.5346 -96.933 84.4731 -81.5616 -97.9728 84.6656 
-82.3786 -84.2712 67.8373 -82.0604 -83.6636 68.658 -82.1361 -83.3875 67.0605 
-81.8377 -82.7726 68.0875 -82.0448 -82.2327 66.6128 -81.598 -83.0824 69.6016 
-81.635 -81.6931 67.7483 -82.1072 -80.9872 66.4396 -81.2784 -82.2716 69.2075 
-80.8761 -82.797 70.6222 -81.5551 -80.4358 67.5271 -82.2918 -79.882 66.3872 
-81.0171 -81.2014 68.9031 -80.4675 -81.9242 70.2156 -80.04 -82.756 71.5526 
-81.7609 -79.3062 67.5029 -82.7282 -78.9983 66.6323 -81.0032 -79.9179 68.7516 
-80.3155 -80.6814 69.992 -79.6862 -81.5514 71.1805 -79.4834 -82.6552 72.5736 
-82.355 -78.5242 67.8792 -83.433 -78.2191 67.2154 -81.3509 -78.9536 68.9733 
-80.5204 -79.5416 70.228 -79.7002 -80.1966 71.374 -79.2834 -81.1764 72.6323 
-79.4008 -82.5611 74.1716 -83.0889 -77.9442 68.4429 -84.0839 -77.5435 67.803 
-81.9613 -78.3952 69.5034 -81.031 -78.9285 70.8457 -80.1379 -79.437 72.1041 
-79.4152 -80.0485 73.3034 -79.3536 -81.1917 74.6351 -79.55 -82.772 76.1204 
-83.6624 -77.5268 68.9708 -84.5018 -77.1888 68.303 -82.5771 -77.9644 70.0721 
-81.6237 -78.5037 71.502 -80.8518 -79.1054 72.8646 -80.0429 -79.6699 74.068 
-79.5929 -80.4532 75.2478 -79.6831 -81.723 76.4603 -79.725 -83.2251 77.7138 
-84.1125 -77.4128 69.5883 -84.8362 -77.2324 68.9128 -83.1358 -77.7054 70.6813 
-82.1708 -78.0965 72.1132 -81.4868 -78.6833 73.4741 -80.8917 -79.4097 74.5878 
-80.3013 -80.2074 75.6315 -80.051 -81.2083 76.6756 -80.0692 -82.4327 77.723 
-79.977 -83.6741 78.7972 -84.8466 -77.5506 70.2011 -83.9911 -77.7034 71.1911 
-84.8835 -77.9525 71.9405 -83.9626 -78.0366 73.1963 -84.863 -78.319 73.7987 
-82.9688 -77.8759 72.5901 -84.04 -78.2761 75.1557 -84.8489 -78.6392 75.4528 
-82.9827 -78.0734 74.6659 -82.1009 -78.2096 74.0311 -84.2551 -78.6428 76.7906 
-84.9482 -79.2824 76.8443 -83.1794 -78.3669 76.5054 -82.1853 -78.479 75.8468 
-81.5581 -78.9229 75.1127 -84.4396 -79.6216 78.1392 -85.0136 -80.4244 78.1298 
-83.464 -79.1358 77.9913 -82.3963 -79.1385 77.4399 -81.7249 -79.46 76.6286 
-81.1169 -79.9182 76.0039 -84.4016 -80.8875 79.4991 -84.9952 -81.4661 79.5902 
-83.6067 -80.3706 79.3499 -82.6413 -80.2333 78.9345 -81.9337 -80.3603 78.2202 
-81.41 -80.6775 77.4633 -80.7206 -81.02 76.9736 -84.3814 -81.8081 81.0322 
-85.0825 -82.1498 81.1509 -83.6592 -81.4426 80.8669 -82.8373 -81.3139 80.5207 
-82.1093 -81.3443 79.9766 -81.5902 -81.5137 79.2303 -81.0821 -81.8661 78.4694 
-80.5274 -82.1782 77.9813 -84.5792 -82.6611 82.4305 -85.2679 -82.9621 82.4142 
-83.8836 -82.3591 82.3723 -83.115 -82.255 82.0977 -82.3276 -82.2677 81.6742 
-81.6878 -82.3399 81.0913 -81.2452 -82.6318 80.2654 -80.8714 -83.0234 79.468 
-80.4393 -83.332 79.0098 -84.8251 -83.783 83.4841 -85.4028 -84.0571 83.3214 
-84.2052 -83.5185 83.5592 -83.4875 -83.4188 83.3777 -82.6894 -83.4111 83.0318 
-81.9461 -83.3958 82.6256 -81.4279 -83.5497 81.996 -81.1357 -83.887 81.1581 
-80.8245 -84.1717 80.4561 -80.3318 -84.4115 80.0565 -80.1056 -85.5359 80.9578 
-80.713 -85.3863 81.4102 -80.626 -86.6498 82.3539 -81.1901 -85.3378 81.9897 
-81.1512 -86.8205 83.0205 -81.0148 -88.3698 84.0313 -81.4668 -85.1627 82.7439 
-81.5578 -86.9964 83.6675 -81.3503 -88.7577 84.7598 -81.0879 -90.6604 85.7897 
-81.8132 -84.9193 83.4477 -81.8928 -86.8839 84.3363 -81.7358 -88.9536 85.3335 
-81.3458 -90.95 86.3851 -81.1289 -93.2659 87.3634 -82.3977 -84.8676 83.871 
-82.2994 -86.6475 84.8609 -82.1703 -88.7531 85.8903 -81.7813 -90.9776 86.7971 
-81.4484 -93.2904 87.7432 -81.2461 -96.0237 88.6737 -83.139 -84.8808 84.1779 
-82.8088 -86.5162 85.1193 -82.5862 -88.392 86.2815 -82.2536 -90.6853 87.2295 
-81.8719 -93.1542 87.9836 -81.5833 -95.8196 88.8728 -81.1533 -98.7857 89.7087 
-83.9048 -84.8252 84.4814 -83.462 -86.3348 85.3628 -83.0718 -88.0338 86.4225 
-82.731 -90.2307 87.4995 -82.3207 -92.7996 88.2939 -81.9444 -95.4801 89.0204 
-81.4981 -98.3873 89.8197 -80.8071 -101.316 90.4506 -84.581 -84.8716 84.5563 
-84.1965 -86.108 85.6178 -83.7451 -87.6276 86.5826 -83.3419 -89.735 87.5244 
-82.8923 -92.2842 88.4335 -82.3975 -94.9298 89.2177 -81.9074 -97.7698 89.9309 
-81.2704 -100.767 90.5586 -80.4595 -103.449 90.9682 -85.1519 -85.0557 84.3603 
-84.8641 -86.029 85.6135 -84.4811 -87.2721 86.7301 -84.0477 -89.2386 87.5314 
-83.5738 -91.734 88.3165 -83.0205 -94.2543 89.1996 -82.4439 -96.9302 89.9739 
-81.8309 -99.933 90.597 -81.0888 -102.823 91.0753 -80.2642 -105.151 91.3267 
-80.019 -86.4478 81.2996 -80.6475 -87.8153 82.8039 -80.4021 -87.5235 81.5244 
-80.9823 -90.0777 84.6952 -80.9292 -89.5093 83.342 -80.9348 -89.0165 82.034 
-81.0274 -93.0819 86.6032 -81.0915 -92.6372 85.543 -81.12 -91.9217 84.3219 
-81.0745 -91.1439 82.9968 -81.0292 -96.3378 88.2185 -81.0254 -96.3425 87.4934 
-81.1014 -95.7844 86.6572 -81.0513 -94.7343 85.4244 -80.9957 -93.5309 83.9127 
-80.8356 -99.4551 89.4907 -80.6901 -99.836 88.9527 -80.7586 -99.6257 88.3327 
-80.8661 -98.7298 87.4534 -80.9192 -97.2787 86.0334 -81.057 -95.611 84.5521 
-80.3546 -102.181 90.3603 -80.0529 -102.73 89.9721 -79.9789 -102.763 89.3479 
-80.1306 -102.214 88.6216 -80.4305 -101.044 87.6195 -80.7809 -99.2919 86.3752 
-81.1461 -97.3343 85.1791 -79.8529 -104.399 90.8775 -79.4227 -105.018 90.5771 
-79.2059 -105.179 89.9518 -79.1954 -104.911 89.1411 -79.4988 -104.199 88.3914 
-80.0683 -102.853 87.648 -80.6625 -100.915 86.7575 -81.1585 -98.8081 85.6927 
-79.54 -106.147 91.2012 -78.9985 -106.872 90.9111 -78.7281 -107.194 90.3323 
-78.6348 -107.112 89.44 -78.7701 -106.709 88.6287 -79.2699 -105.848 88.1648 
-79.9639 -104.302 87.7017 -80.6073 -102.199 86.9114 -81.1442 -99.9676 85.852 
-79.6908 -107.268 91.4536 -78.9108 -108.31 91.1906 -79.1925 -109.358 91.2652 
-78.4119 -110.627 90.9229 -78.8991 -111.456 90.8051 -78.4416 -109.07 90.724 
-78.1804 -112.935 90.4866 -78.9248 -113.117 90.2553 -78.0362 -111.552 90.3305 
-78.3137 -109.341 89.8779 -78.3932 -114.5 89.8211 -79.2759 -113.867 89.5037 
-77.891 -113.862 89.7478 -78.058 -111.725 89.3004 -78.3974 -109.101 88.8462 
-79.059 -114.98 88.667 -79.8984 -113.961 88.3869 -78.1969 -115.111 88.7612 
-77.9993 -113.638 88.602 -78.3656 -111.081 88.3495 -78.7676 -108.421 88.243 
-79.9791 -114.743 87.3111 -80.7271 -113.733 87.3322 -78.9554 -115.093 87.413 
-78.3292 -114.266 87.6262 -78.4842 -112.318 87.8174 -78.9484 -109.832 87.931 
-79.4123 -107.136 87.9641 -80.8983 -114.077 86.3622 -81.5754 -113.068 86.6964 
-79.885 -114.382 86.2778 -79.075 -113.765 86.6176 -78.9724 -112.377 87.1559 
-79.2778 -110.417 87.4837 -79.6447 -107.932 87.5492 -80.0992 -105.09 87.4037 
-81.6349 -112.991 85.8508 -82.2411 -111.892 86.2837 -80.6966 -113.43 85.6287 
-79.8886 -112.942 85.9109 -79.7516 -111.751 86.5839 -79.9647 -110.129 87.0882 
-80.0938 -107.987 87.1279 -80.3214 -105.349 86.8925 -80.7375 -102.575 86.4978 
-82.1919 -111.417 85.5785 -82.7237 -110.298 85.948 -81.3662 -112.084 85.3543 
-80.5733 -111.92 85.537 -80.3991 -110.927 86.1534 -80.6943 -109.402 86.784 
-80.8084 -107.452 86.9543 -80.7856 -105.078 86.6368 -80.9815 -102.53 86.0902 
-81.3111 -100.122 85.4435 -80.7272 -105.314 91.4638 -80.2445 -107.465 91.5255 
-81.2584 -105.238 91.3653 -80.8396 -107.346 91.3297 -81.8049 -104.805 91.0471 
-79.8841 -109.488 91.1747 -81.3956 -106.777 90.9326 -82.5151 -103.946 90.7554 
-80.6131 -109.194 90.885 -79.7583 -111.326 90.5353 -82.1549 -105.717 90.5693 
-83.438 -102.749 90.5305 -81.2802 -108.344 90.5152 -80.5863 -110.678 90.1889 
-79.8146 -112.47 89.8508 -83.1968 -104.319 90.294 -84.3164 -101.283 90.1298 
-82.1578 -106.976 90.2062 -81.3381 -109.414 89.8759 -80.5675 -111.372 89.4124 
-80.0195 -112.758 88.9963 -84.2368 -102.607 89.9646 -85.1038 -99.5252 89.5289 
-83.2664 -105.345 89.986 -82.2749 -107.693 89.64 -81.3833 -109.776 89.0935 
-80.7258 -111.388 88.557 -80.5516 -112.679 88.0294 -85.2152 -100.547 89.4738 
-86.0041 -97.6738 88.8751 -84.3779 -103.417 89.7347 -83.365 -105.813 89.478 
-82.4206 -107.863 88.9284 -81.7523 -109.682 88.3819 -81.3853 -111.157 87.9081 
-81.4064 -112.309 87.3814 -86.1896 -98.461 88.7771 -86.9196 -96.0708 88.1525 
-85.4626 -101.17 89.2729 -84.526 -103.682 89.2835 -83.5383 -105.797 88.8487 
-82.9275 -107.707 88.366 -82.5692 -109.36 87.9814 -82.2964 -110.58 87.5649 
-82.237 -111.411 86.9868 -86.9985 -96.7087 87.8804 -87.5871 -94.822 87.2862 
-86.4278 -98.9863 88.5126 -85.6959 -101.347 88.8682 -84.7367 -103.493 88.7303 
[...]
CELL_DATA 2000
SCALARS Distance double
LOOKUP_TABLE default
136.179 135.984 136.388 137.028 135.882 136.241 136.95 137.333 138.092 
135.954 136.258 137.042 137.375 138.227 138.561 139.425 136.115 136.41 
137.227 137.555 138.442 138.781 139.694 140.005 140.911 136.432 136.633 
137.455 137.754 138.661 139.021 139.985 140.319 141.288 141.57 142.528 
137.167 137.142 137.978 138.091 139.055 139.327 140.424 140.722 141.833 
142.065 143.144 143.326 144.37 138.221 138.071 138.886 138.818 139.784 
139.909 141.099 141.343 142.608 142.8 144.014 144.126 145.296 145.359 
146.48 139.216 139.108 139.85 139.779 140.661 140.734 141.868 142.108 
143.407 143.663 144.956 145.114 146.364 146.435 147.654 147.636 148.772 
140.054 139.984 140.677 140.651 141.478 141.561 142.63 142.864 144.155 
144.458 145.818 146.06 147.39 147.537 148.828 148.876 150.081 149.995 
151.048 135.576 134.564 135.191 135.39 133.55 134.188 134.445 135.02 
135.255 132.631 133.216 133.506 134.096 134.342 134.925 135.249 131.859 
132.319 132.557 133.159 133.393 133.986 134.245 134.925 135.334 131.432 
131.628 131.772 132.241 132.463 133.014 133.215 133.854 134.224 135.024 
135.604 131.509 131.426 131.532 131.681 131.947 132.26 132.513 132.918 
133.281 133.947 134.63 135.486 136.34 131.841 131.684 131.805 131.737 
132.061 132.121 132.524 132.603 133.033 133.306 134.025 134.683 135.689 
136.491 137.468 132.179 132.053 132.211 132.12 132.463 132.472 132.983 
132.975 133.503 133.483 134.149 134.419 135.383 135.997 137.043 137.714 
138.575 132.647 132.467 132.692 132.564 132.918 132.908 133.433 133.498 
134.086 134.099 134.711 134.782 135.567 135.899 136.842 137.373 138.253 
138.784 139.494 133.116 134.101 133.425 133.182 135.301 134.539 134.244 
133.563 133.428 136.471 135.766 135.491 134.731 134.536 133.913 133.928 
137.639 136.954 136.756 135.999 135.789 135.087 135.045 134.509 134.601 
138.977 138.238 138.123 137.327 137.169 136.388 136.329 135.689 135.783 
135.231 135.328 140.398 139.665 139.601 138.798 138.705 137.871 137.845 
137.083 137.19 136.53 136.7 136.05 136.219 141.765 141.079 141.05 
140.305 140.271 139.474 139.485 138.69 138.787 138.048 138.221 137.532 
137.751 137.087 137.379 143.105 142.448 142.484 141.774 141.815 141.057 
141.11 140.335 140.419 139.665 139.803 139.097 139.299 138.641 138.908 
138.31 138.653 144.408 143.81 143.928 143.259 143.374 142.64 142.738 
141.966 142.063 141.291 141.429 140.694 140.904 140.214 140.472 139.824 
140.107 139.535 139.844 140.648 141.02 141.251 142.189 141.468 141.733 
142.809 143.034 144.187 141.915 142.221 143.395 143.718 144.959 145.203 
146.495 142.408 142.685 143.878 144.282 145.583 145.938 147.215 147.528 
148.904 143.003 143.21 144.343 144.734 146.029 146.474 147.746 148.133 
149.424 149.882 151.346 143.65 143.817 144.847 145.166 146.36 146.832 
148.085 148.555 149.792 150.275 151.631 152.244 153.711 144.257 144.435 
145.378 145.622 146.661 147.079 148.261 148.794 150.019 150.548 151.816 
152.416 153.786 154.469 155.793 144.76 144.974 145.869 146.095 147.016 
147.337 148.403 148.908 150.112 150.691 151.915 152.511 153.777 154.452 
155.737 156.396 157.516 145.158 145.392 146.241 146.503 147.369 147.656 
148.611 149.037 150.155 150.726 151.901 152.512 153.68 154.349 155.555 
156.269 157.418 158.006 158.927 140.756 142.251 141.421 141.411 144.252 
143.16 143.137 142.218 142.311 146.682 145.455 145.538 144.312 144.463 
143.382 143.618 149.324 148.134 148.492 147.122 147.454 146.02 146.316 
144.995 145.298 151.993 150.948 151.592 150.324 150.909 149.406 149.812 
148.154 148.388 146.852 147.07 154.46 153.64 154.399 153.394 154.063 
152.844 153.312 151.782 151.947 150.211 150.233 148.628 148.706 156.506 
155.931 156.636 155.923 156.46 155.603 155.956 154.884 154.998 153.591 
153.494 151.872 151.765 150.204 150.179 158.118 157.711 158.304 157.804 
158.187 157.556 157.732 156.99 157.043 156.123 156.07 154.848 154.699 
153.238 153.074 151.577 151.43 159.414 159.097 159.593 159.208 159.535 
159.015 159.135 158.483 158.503 157.806 157.844 157.028 157.001 155.894 
155.707 154.348 154.059 152.639 152.342 160.214 161.329 160.662 160.359 
162.406 161.772 161.486 160.739 160.3 163.434 162.909 162.705 161.915 
161.415 160.547 159.901 164.08 163.87 163.785 163.145 162.631 161.692 
160.92 159.999 159.252 164.101 164.243 164.226 163.977 163.495 162.789 
161.972 161.044 160.215 159.346 158.635 163.769 164.025 163.963 164.022 
163.554 163.277 162.506 161.908 161.067 160.303 159.512 158.714 157.896 
163.367 163.6 163.428 163.534 163.039 163 162.327 162.111 161.353 
160.907 160.051 159.42 158.452 157.726 156.644 162.792 163.085 162.837 
162.946 162.439 162.426 161.849 161.79 161.184 160.962 160.143 159.677 
158.604 158.009 156.815 156.175 154.95 161.907 162.321 162.056 162.278 
161.801 161.852 161.319 161.33 160.808 160.721 159.989 159.631 158.555 
157.993 156.745 156.161 154.923 154.351 153.165 160.277 160.618 160.819 
161.422 160.644 161.056 161.73 161.894 162.434 160.355 160.922 161.659 
162.054 162.618 162.833 163.33 159.923 160.523 161.232 161.801 162.396 
162.817 163.236 163.532 163.847 159.372 160.033 160.671 161.269 161.82 
162.379 162.737 163.173 163.336 163.712 163.803 158.548 159.375 160.037 
160.671 161.13 161.681 161.968 162.466 162.57 163.004 163.049 163.472 
163.514 157.505 158.428 159.163 159.943 160.394 160.946 161.16 161.631 
161.757 162.198 162.296 162.713 162.825 163.203 163.224 156.472 157.337 
158.045 158.945 159.455 160.122 160.328 160.813 160.951 161.424 161.611 
162.042 162.188 162.554 162.589 162.881 162.731 155.503 156.269 156.848 
157.757 158.29 159.086 159.352 159.926 160.053 160.593 160.794 161.34 
161.5 161.918 161.884 162.191 161.98 162.228 161.874 145.622 146.671 
146.325 146.71 147.834 147.45 147.876 147.482 147.879 149.085 148.699 
149.167 148.728 149.179 148.724 149.169 150.264 149.961 150.467 150.059 
150.554 150.112 150.65 150.163 150.724 151.33 151.091 151.651 151.33 
151.9 151.531 152.163 151.724 152.361 151.848 152.455 152.42 152.165 
152.783 152.508 153.218 152.931 153.721 153.322 154.053 153.532 154.184 
153.621 154.235 153.496 153.275 153.918 153.68 154.499 154.311 155.277 
154.974 155.832 155.31 156.019 155.414 156.095 155.478 156.131 154.352 
154.273 154.939 154.804 155.649 155.58 156.608 156.491 157.421 157.065 
157.794 157.269 157.956 157.385 158.062 157.423 157.997 154.96 155.024 
155.767 155.761 156.631 156.654 157.645 157.667 158.565 158.437 159.131 
158.845 159.468 159.103 159.713 159.242 159.735 159.129 159.47 145.181 
144.891 145.412 146.199 144.543 145.104 145.866 146.44 147.296 144.064 
144.677 145.404 146.032 146.848 147.538 148.463 143.643 144.188 144.902 
145.506 146.272 146.986 147.883 148.67 149.595 143.421 143.868 144.604 
145.094 145.871 146.446 147.291 148.015 148.952 149.746 150.653 143.212 
143.675 144.41 144.892 145.71 146.198 147.015 147.533 148.379 149.074 
150.037 150.823 151.754 142.919 143.401 144.088 144.634 145.432 146.026 
146.847 147.348 148.072 148.585 149.414 150.171 151.166 151.964 152.85 
142.67 143.096 143.735 144.244 144.981 145.623 146.452 147.083 147.808 
148.296 148.961 149.565 150.424 151.268 152.19 152.975 153.7 142.521 
142.884 143.493 143.918 144.597 145.15 145.945 146.606 147.406 147.978 
148.655 149.15 149.856 150.526 151.351 152.172 152.924 153.667 154.256 
142.654 143.189 143.146 143.623 143.822 143.73 144.243 144.179 144.727 
144.67 144.453 144.962 144.845 145.439 145.386 146.051 145.713 145.405 
145.83 145.604 146.169 146.122 146.841 146.823 147.518 146.588 146.404 
146.758 146.491 146.973 146.878 147.64 147.65 148.419 148.303 148.869 
147.028 147.065 147.479 147.357 147.871 147.755 148.561 148.541 149.417 
149.283 149.916 149.618 150.11 147.284 147.39 147.952 148.005 148.698 
148.688 149.561 149.55 150.452 150.337 151.002 150.715 151.207 150.9 
151.472 147.713 147.76 148.461 148.547 149.388 149.487 150.397 150.481 
151.324 151.305 151.929 151.742 152.203 151.955 152.47 152.293 152.925 
148.367 148.378 149.186 149.222 150.098 150.179 151.037 151.156 151.914 
151.997 152.605 152.556 153.059 152.893 153.416 153.24 153.837 153.698 
154.287 149.061 150.591 149.875 149.99 152.038 151.439 151.548 150.815 
150.887 153.164 152.747 152.885 152.285 152.302 151.638 151.707 154.282 
153.847 154.091 153.545 153.611 152.967 152.984 152.388 152.475 155.738 
155.171 155.55 154.905 155.124 154.376 154.464 153.715 153.781 153.137 
153.184 157.341 156.794 157.27 156.592 156.931 156.108 156.298 155.403 
155.513 154.64 154.674 153.861 153.785 158.787 158.367 158.906 158.356 
158.75 158.002 158.196 157.315 157.414 156.509 156.542 155.581 155.467 
154.485 154.281 160.055 159.718 160.258 159.867 160.275 159.708 159.856 
159.091 159.075 158.279 158.261 157.431 157.311 156.31 156.032 154.986 
154.718 161.175 160.893 161.344 161.046 161.376 160.997 161.087 160.513 
160.38 159.707 159.581 158.932 158.829 158.04 157.765 156.759 156.373 
155.379 155.085 148.763 148.721 149.229 150.241 148.677 149.175 150.182 
150.741 151.689 148.607 149.1 150.011 150.595 151.504 152.038 152.804 
148.316 148.896 149.694 150.317 151.16 151.762 152.569 153.076 153.871 
147.782 148.426 149.18 149.869 150.709 151.377 152.259 152.849 153.775 
154.29 155.268 147.277 147.859 148.626 149.303 150.195 150.912 151.871 
152.55 153.56 154.196 155.25 155.807 156.824 146.916 147.427 148.175 
148.792 149.674 150.399 151.362 152.116 153.122 153.886 154.954 155.682 
156.732 157.317 158.255 146.573 147.076 147.757 148.346 149.143 149.854 
150.759 151.541 152.511 153.337 154.402 155.255 156.371 157.12 158.145 
158.693 159.564 146.179 146.681 147.302 147.876 148.606 149.286 150.143 
150.905 151.86 152.684 153.759 154.652 155.832 156.7 157.838 158.534 
159.5 159.981 160.756 147.949 147.043 147.569 147.876 146.465 146.784 
146.919 147.484 147.831 145.783 146.175 146.172 146.596 146.779 147.449 
147.803 144.657 145.262 145.202 145.72 145.732 146.367 146.584 147.349 
147.575 143.331 143.982 143.939 144.554 144.501 145.16 145.239 146.027 
146.193 146.976 147.073 142.135 142.711 142.709 143.287 143.27 143.869 
143.89 144.601 144.717 145.522 145.663 146.433 146.559 140.997 141.572 
141.572 142.133 142.141 142.7 142.713 143.303 143.357 144.06 144.2 
145 145.198 145.988 146.195 139.777 140.397 140.381 140.981 140.974 
141.573 141.582 142.163 142.166 142.769 142.828 143.557 143.745 144.587 
144.846 145.663 145.882 138.536 139.152 139.149 139.758 139.757 140.374 
140.395 141.005 141.017 141.597 141.613 142.24 142.367 143.142 143.41 
144.272 144.555 145.348 145.537 137.856 137.034 137.795 138.472 136.218 
136.984 137.711 138.437 139.114 135.568 136.228 136.992 137.71 138.439 
139.116 139.781 135.262 135.719 136.437 137.052 137.802 138.471 139.172 
139.805 140.431 135.166 135.525 136.149 136.606 137.315 137.897 138.634 
139.24 139.911 140.469 141.07 135.062 135.422 136.036 136.405 137.079 
137.532 138.298 138.818 139.579 140.066 140.755 141.201 141.869 135.129 
135.383 136.064 136.358 137.063 137.415 138.201 138.631 139.469 139.897 
140.692 141.063 141.816 142.177 142.942 135.528 135.634 136.342 136.517 
137.256 137.507 138.302 138.644 139.493 139.889 140.729 141.104 141.897 
142.238 143.009 143.352 144.104 136.037 136.114 136.773 136.895 137.604 
137.789 138.557 138.818 139.626 139.958 140.769 141.144 141.924 142.302 
143.04 143.406 144.103 144.458 145.099 136.477 137.356 137.015 137.234 
138.4 137.969 138.236 137.843 138.091 139.691 139.134 139.398 138.93 
139.231 138.785 139.066 141.17 140.529 140.772 140.197 140.499 139.999 
140.311 139.823 140.122 142.786 142.086 142.346 141.673 141.963 141.363 
141.681 141.127 141.427 140.909 141.224 144.574 143.787 144.066 143.325 
143.622 142.932 143.253 142.601 142.895 142.275 142.559 142.027 142.352 
146.609 145.692 145.949 145.111 145.386 144.638 144.946 144.25 144.534 
143.831 144.065 143.413 143.676 143.147 143.458 148.848 147.841 148.074 
147.099 147.321 146.446 146.697 145.945 146.211 145.497 145.704 144.975 
145.152 144.505 144.743 144.224 144.503 151.08 150.102 150.329 149.307 
149.492 148.48 148.642 147.734 147.927 147.157 147.362 146.624 146.773 
146.031 146.172 145.532 145.738 145.228 145.468 146.128 146.457 146.606 
147.28 146.993 147.072 147.84 147.898 148.652 147.666 147.744 148.608 
148.624 149.463 149.432 150.244 148.282 148.436 149.361 149.454 150.374 
150.366 151.254 151.163 152.017 148.949 149.098 150.128 150.236 151.282 
151.327 152.373 152.308 153.311 153.111 154.03 149.846 149.959 151.214 
151.233 152.51 152.449 153.735 153.613 154.852 154.614 155.705 155.319 
156.231 150.804 150.997 152.434 152.539 154.034 153.987 155.457 155.266 
156.627 156.334 157.508 157.114 158.06 157.559 158.3 151.64 151.932 
153.376 153.687 155.22 155.463 156.961 157.004 158.283 158.099 159.115 
158.817 159.648 159.284 159.954 159.471 159.974 152.361 152.696 154.069 
154.459 155.895 156.346 157.757 158.129 159.283 159.395 160.187 160.092 
160.702 160.556 161.122 160.885 161.341 160.914 161.213 132.544 132.094 
132.279 132.297 131.797 131.924 131.873 132.062 132.166 131.529 131.659 
131.62 131.707 131.713 131.983 132.276 131.475 131.489 131.536 131.537 
131.525 131.616 131.846 132.236 132.764 131.816 131.629 131.74 131.634 
131.69 131.581 131.726 131.9 132.395 132.868 133.51 132.452 132.096 
132.172 132.002 132.165 131.958 132.076 131.952 132.292 132.559 133.187 
133.664 134.293 133.323 132.809 132.802 132.52 132.751 132.566 132.799 
132.517 132.748 132.647 133.147 133.42 134.103 134.498 135.133 134.39 
133.787 133.746 133.274 133.483 133.242 133.607 133.351 133.641 133.322 
133.693 133.62 134.254 134.465 135.196 135.469 136.147 135.472 134.914 
134.892 134.328 134.459 134.085 134.435 134.198 134.57 134.269 134.604 
134.346 134.854 134.835 135.54 135.69 136.418 136.602 137.278 132.939 
132.694 133.07 133.701 132.625 132.918 133.581 133.987 134.729 132.794 
132.962 133.633 133.958 134.71 135.075 135.764 133.27 133.261 133.837 
134.042 134.741 135.085 135.791 136.106 136.745 133.982 133.846 134.309 
134.309 134.891 135.119 135.833 136.163 136.889 137.156 137.813 134.746 
134.59 135.057 134.912 135.454 135.433 136.11 136.282 137.055 137.333 
138.07 138.283 138.899 135.54 135.358 135.872 135.728 136.327 136.198 
136.848 136.78 137.467 137.57 138.288 138.51 139.156 139.332 139.875 
136.493 136.222 136.729 136.561 137.168 137.079 137.717 137.615 138.206 
138.125 138.725 138.784 139.413 139.562 140.138 140.274 140.796 137.593 
137.264 137.743 137.479 138.023 137.879 138.467 138.394 138.957 138.871 
139.406 139.339 139.902 139.915 140.486 140.559 141.092 141.193 141.697 
133.328 134.132 133.891 134.354 135.115 134.804 135.24 135.031 135.54 
136.089 135.787 136.177 135.941 136.386 136.194 136.661 137.028 136.715 
137.113 136.877 137.315 137.06 137.478 137.27 137.767 138.034 137.661 
138.05 137.815 138.309 138.046 138.468 138.154 138.616 138.436 139.049 
139.075 138.68 139.005 138.748 139.245 139.042 139.503 139.192 139.609 
139.347 139.921 139.803 140.464 140.069 139.702 140.013 139.71 140.177 
139.968 140.467 140.204 140.639 140.354 140.888 140.716 141.374 141.239 
141.86 141.021 140.693 141.053 140.74 141.21 140.949 141.468 141.194 
141.674 141.382 141.918 141.709 142.361 142.197 142.832 142.629 143.192 
141.925 141.647 142.028 141.763 142.227 141.988 142.49 142.231 142.699 
142.417 142.914 142.708 143.314 143.176 143.792 143.612 144.149 143.931 
144.442 147.744 147.216 147.258 146.936 146.854 146.833 146.57 146.632 
146.419 146.578 146.511 146.134 146.215 145.95 146.092 145.746 146.089 
146.116 145.539 145.624 145.171 145.416 145.004 145.192 144.624 145.18 
145.372 144.694 144.833 144.225 144.477 144.006 144.288 143.763 143.912 
143.294 144.129 144.331 143.7 143.871 143.268 143.483 142.989 143.26 
142.778 143 142.456 142.602 142.063 143.292 143.382 142.829 142.945 
142.419 142.571 142.07 142.272 141.757 141.991 141.449 141.692 141.163 
141.389 140.885 142.673 142.684 142.145 142.201 141.688 141.79 141.27 
141.398 140.836 140.992 140.41 140.632 140.081 140.369 139.854 140.145 
139.637 142.152 142.128 141.573 141.579 141.026 141.079 140.526 140.615 
140.057 140.15 139.585 139.689 139.133 139.304 138.781 139.043 138.548 
138.851 138.375 
POINT_DATA 1002
SCALARS Distance double
LOOKUP_TABLE default
136.786 135.974 135.778 136.602 135.575 137.698 136.549 135.526 137.701 
138.881 136.701 135.638 137.879 139.104 140.295 136.894 135.815 138.088 
139.363 140.618 141.824 137.192 136.291 138.283 139.616 140.979 142.27 
143.495 137.946 137.269 138.801 140.085 141.575 142.949 144.217 145.404 
139.004 138.397 139.712 140.843 142.372 143.881 145.215 146.46 147.579 
139.926 139.328 140.623 141.651 143.113 144.741 146.25 147.634 148.874 
149.868 140.702 140.134 141.404 142.409 143.832 145.525 147.195 148.732 
150.125 151.249 152.033 134.978 134.822 133.897 133.851 132.907 134.666 
132.895 132.097 133.776 134.587 131.97 131.516 132.81 133.599 134.554 
131.405 131.381 131.948 132.637 133.414 134.708 131.499 131.655 131.699 
132.201 132.708 133.726 135.464 131.904 131.968 132.02 132.472 132.908 
133.492 134.866 136.745 132.292 132.282 132.445 132.932 133.551 134.057 
134.904 136.383 138.003 132.829 132.832 132.961 133.356 134.017 134.694 
135.388 136.412 137.734 139.024 133.69 133.761 134.858 135.005 136.047 
133.974 136.253 137.119 135.223 134.418 137.494 138.31 136.526 135.624 
135.098 138.913 139.712 137.966 137.018 136.349 135.907 140.374 141.111 
139.521 138.634 137.886 137.337 136.859 141.755 142.434 141.026 140.271 
139.553 138.925 138.405 137.993 143.157 143.726 142.544 141.878 141.185 
140.522 139.966 139.528 139.204 144.549 144.951 144.08 143.502 142.838 
142.168 141.599 141.15 140.742 140.377 141.434 141.944 143.191 142.516 
143.968 145.403 143 144.672 146.242 147.844 143.459 145.178 146.903 
148.504 150.37 144.004 145.569 147.345 148.997 150.776 152.898 144.612 
145.927 147.587 149.328 151.059 153.064 155.18 145.193 146.331 147.727 
149.473 151.264 153.13 155.172 157.038 145.653 146.764 147.958 149.528 
151.342 153.146 155.062 156.987 158.533 145.976 147.097 148.25 149.63 
151.314 153.055 154.846 156.768 158.508 159.748 142.129 144.163 143.122 
146.802 145.654 144.616 149.765 148.917 147.796 146.543 152.718 152.304 
151.518 150.133 148.498 155.315 155.175 154.724 153.709 152.012 150.198 
157.313 157.294 156.924 156.234 155.065 153.419 151.69 158.795 158.816 
158.461 157.822 157.084 156.073 154.619 152.925 159.971 160.02 159.775 
159.175 158.52 157.936 157.003 155.511 153.753 160.929 161.092 161.973 
162.26 162.991 161.112 163.482 163.835 162.38 160.761 164.298 164.11 
163.579 161.942 160.068 164.326 163.873 164.057 162.853 161.129 159.457 
163.882 163.557 163.686 162.922 161.748 160.331 158.757 163.367 163.181 
163.039 162.395 161.67 160.649 159.18 157.428 162.712 162.488 162.434 
161.846 161.313 160.577 159.211 157.431 155.595 161.767 161.469 161.692 
161.28 160.837 160.282 159.116 157.347 155.467 153.714 160.164 161.373 
160.325 161.479 160.139 162.346 161.159 159.78 162.346 163.169 160.643 
159.359 161.905 162.945 163.6 160.112 158.659 161.268 162.295 162.98 
163.432 159.367 157.63 160.643 161.488 162.131 162.604 163.117 158.301 
156.594 159.832 160.717 161.284 161.865 162.424 162.939 157.129 155.702 
158.715 159.83 160.449 161.131 161.844 162.305 162.53 155.986 154.826 
157.438 158.727 159.512 160.208 161.052 161.612 161.743 161.672 145.941 
147.06 147.015 148.278 148.213 148.292 149.608 149.436 149.618 149.632 
150.842 150.519 150.957 151.093 151.234 151.918 151.556 152.199 152.552 
152.854 153.003 153.024 152.684 153.413 154.05 154.568 154.745 154.811 
154.125 153.685 154.613 155.479 156.311 156.627 156.698 156.789 155.017 
154.361 155.685 156.661 157.695 158.273 158.5 158.685 158.726 144.652 
145.645 144.378 145.294 143.96 146.663 144.78 143.455 146.143 147.742 
144.331 143.148 145.601 147.078 148.834 144.13 142.99 145.355 146.663 
148.136 149.889 143.908 142.742 145.197 146.582 147.806 149.201 151.026 
143.558 142.46 144.802 146.303 147.661 148.755 150.291 152.186 143.272 
142.279 144.377 145.768 147.291 148.48 149.655 151.331 153.058 143.102 