# vtk DataFile Version 4.0
vtk output
ASCII
DATASET POLYDATA
POINTS 1002 float
-84.1118 -79.7128 70.6408 -84.1977 -79.1218 69.3983 -83.6625 -78.985 70.1565 
-83.5536 -79.5876 71.4556 -83.0346 -78.8604 70.919 -84.0208 -80.3642 72.0112 
-82.9801 -79.4906 72.2922 -82.5146 -78.6226 71.8406 -83.5056 -80.262 72.892 
-84.0591 -81.0909 73.6194 -82.5119 -79.3884 73.3079 -82.1593 -78.2911 73.0681 
-82.9623 -80.321 73.8292 -83.5174 -81.1185 74.6001 -84.0132 -81.9888 75.4092 
-82.1171 -79.2256 74.6204 -81.8497 -78.0478 74.3843 -82.4514 -80.4108 74.9511 
-82.8681 -81.3559 75.6412 -83.3401 -82.1714 76.4654 -83.6215 -83.1313 77.1166 
-81.7341 -79.1174 76.0021 -81.5303 -78.0302 75.5116 -82.0077 -80.3058 76.3338 
-82.2869 -81.4781 76.7835 -82.6247 -82.4879 77.5178 -82.964 -83.4784 78.2078 
-83.1156 -84.6248 78.7563 -81.3615 -79.2874 77.2357 -81.2054 -78.1855 76.6565 
-81.6392 -80.3162 77.7932 -81.9155 -81.4517 78.1681 -82.1148 -82.7413 78.6516 
-82.3618 -83.9878 79.3063 -82.6011 -85.1812 79.9455 -82.7328 -86.359 80.5512 
-81.033 -79.6526 78.4883 -80.9312 -78.4071 78.0889 -81.3077 -80.7703 79.1323 
-81.6637 -81.8176 79.709 -81.8813 -83.1213 80.1569 -81.977 -84.5984 80.6618 
-82.1095 -85.8938 81.2658 -82.2803 -87.0063 81.8936 -82.4114 -88.0328 82.4265 
-80.8729 -79.9874 79.8947 -80.8458 -78.698 79.6475 -81.0594 -81.3442 80.3981 
-81.3886 -82.5638 81.0828 -81.6992 -83.7923 81.7691 -81.8295 -85.2553 82.3681 
-81.8326 -86.689 82.8943 -81.8955 -87.8327 83.4134 -82.0526 -88.8211 83.8871 
-82.1649 -89.773 84.174 -80.9318 -80.2881 81.307 -80.9717 -79.109 81.0419 
-80.9808 -81.7221 81.6816 -81.1419 -83.1777 82.2389 -81.4063 -84.4685 82.9938 
-81.6609 -85.8255 83.8304 -81.7428 -87.3945 84.5195 -81.7154 -88.8504 84.9974 
-81.7897 -90.0115 85.3775 -81.9412 -91.0146 85.6386 -81.9963 -91.9388 85.692 
-83.8693 -78.4818 68.6422 -83.248 -78.3177 69.374 -83.4265 -77.8483 67.8855 
-82.777 -77.5647 68.6249 -83.0857 -77.0619 67.2842 -82.6068 -78.082 70.2067 
-82.4934 -76.5664 68.1541 -82.9969 -75.9023 66.918 -82.2474 -77.1218 69.6735 
-82.1799 -77.6448 71.4012 -82.4388 -75.2513 67.9927 -82.9929 -74.5599 66.7376 
-82.1076 -75.9318 69.4998 -81.9515 -76.5521 71.1752 -81.9004 -77.2045 72.8321 
-82.4468 -73.9435 68.0532 -83.0242 -73.5362 66.8144 -82.1006 -74.5688 69.5816 
-81.7999 -75.3343 71.1625 -81.6187 -76.1258 72.6365 -81.5986 -76.9807 74.043 
-82.6618 -73.0137 68.4352 -83.4176 -72.9002 67.2867 -82.1982 -73.3416 69.8641 
-81.7212 -73.9973 71.3398 -81.2803 -74.8838 72.6482 -81.2251 -75.8369 73.8475 
-81.3056 -76.9208 75.1652 -83.2883 -72.4324 69.0968 -84.1972 -72.4472 68.0143 
-82.5869 -72.539 70.3802 -81.9192 -72.9028 71.7596 -81.2045 -73.5813 73.035 
-80.9019 -74.5361 74.1592 -81.0288 -75.6737 75.3242 -81.0607 -76.9874 76.6634 
-84.0784 -72.1029 69.777 -84.9394 -72.2263 68.7477 -83.2362 -72.1287 70.9697 
-82.4324 -72.3429 72.3222 -81.6148 -72.7431 73.665 -81.0645 -73.4875 74.8282 
-80.983 -74.5764 75.9249 -81.0149 -75.8578 77.1303 -80.9188 -77.2607 78.408 
-84.7124 -72.0483 70.4126 -85.4131 -72.2965 69.4486 -83.9177 -71.9791 71.5497 
-83.0901 -72.1324 72.9056 -82.2841 -72.426 74.3193 -81.666 -72.9977 75.5093 
-81.3721 -73.9571 76.5156 -81.2358 -75.1181 77.6085 -81.079 -76.3837 78.8132 
-80.9685 -77.7468 79.9771 -85.3989 -72.3101 70.8439 -84.7256 -72.0668 71.9619 
-85.4713 -72.3812 72.5622 -84.8266 -72.2375 73.9199 -85.592 -72.6444 74.4353 
-83.9566 -72.0507 73.3519 -84.9604 -72.6167 75.8842 -85.6182 -73.2157 76.0011 
-84.1088 -72.2101 75.4937 -83.1387 -72.2367 74.8967 -85.0006 -73.3751 77.3156 
-85.6352 -74.0331 77.2568 -84.2814 -72.6588 77.3174 -83.3452 -72.4995 76.892 
-82.4353 -72.7458 76.1894 -85.098 -74.447 78.5672 -85.8685 -74.9022 78.711 
-84.3704 -73.7119 78.6079 -83.5407 -73.2632 78.4561 -82.7025 -73.4335 77.8474 
-81.9883 -73.7247 77.1278 -85.3942 -75.4656 80.1312 -86.198 -75.7551 80.3565 
-84.5506 -75.0416 79.9678 -83.6822 -74.5458 79.8722 -82.8414 -74.4289 79.4567 
-82.1929 -74.6676 78.7276 -81.6699 -74.8832 78.1183 -85.6433 -76.4089 81.6763 
-86.3406 -76.7186 81.7697 -84.8393 -76.1851 81.4863 -83.9372 -75.8918 81.3407 
-82.9859 -75.5891 81.1389 -82.2316 -75.5663 80.5728 -81.7524 -75.805 79.862 
-81.3742 -76.0697 79.3335 -85.6777 -77.5148 82.9153 -86.3092 -77.8274 82.8955 
-85.0009 -77.2879 82.8432 -84.2178 -77.1428 82.6664 -83.2936 -76.9308 82.5251 
-82.4277 -76.7398 82.2707 -81.8615 -76.8385 81.6991 -81.5107 -77.1424 81.07 
-81.207 -77.4261 80.5508 -85.6553 -78.7098 83.9971 -86.2782 -78.9245 83.9158 
-85.0345 -78.4875 84.0515 -84.3695 -78.3758 83.9198 -83.6018 -78.332 83.6954 
-82.8043 -78.2637 83.5337 -82.1701 -78.2925 83.2428 -81.762 -78.4938 82.7137 
-81.46 -78.6955 82.1611 -81.1852 -78.8494 81.6379 -81.1221 -80.3257 82.5124 
-81.3372 -80.2123 83.1118 -81.135 -81.7566 84.124 -81.6171 -80.2089 83.6497 
-81.3021 -81.7323 84.7251 -81.0095 -83.5124 85.8471 -82.0022 -80.1139 84.1861 
-81.652 -81.7774 85.2364 -81.2333 -83.4891 86.3799 -81.0911 -85.7318 87.502 
-82.5241 -79.9336 84.5776 -82.2101 -81.684 85.6993 -81.7452 -83.4622 86.7799 
-81.4536 -85.6752 87.8616 -81.4318 -88.1382 88.8551 -83.1616 -79.7814 84.7861 
-82.8115 -81.4619 85.997 -82.3935 -83.337 87.1269 -81.9887 -85.5534 88.1458 
-81.7856 -87.9834 89.1116 -81.6716 -90.3159 89.825 -83.8708 -79.6664 85.0344 
-83.4198 -81.2408 86.1872 -82.9875 -83.1767 87.3082 -82.5465 -85.3884 88.4077 
-82.2088 -87.7009 89.4337 -81.9663 -90.0987 90.1693 -81.743 -92.6528 90.5327 
-84.5879 -79.6387 85.2459 -84.1424 -81.0678 86.3772 -83.6673 -82.9985 87.3697 
-83.1705 -85.2273 88.4848 -82.7403 -87.3416 89.6853 -82.3964 -89.6624 90.5299 
-82.0539 -92.5412 90.9455 -81.7403 -95.5868 91.1684 -85.2641 -79.7509 85.2101 
-84.9017 -80.986 86.4184 -84.4724 -82.7442 87.3994 -83.9514 -84.9652 88.4372 
-83.4339 -86.9913 89.7196 -82.9814 -89.0493 90.6901 -82.5188 -92.0152 91.1284 
-82.0323 -95.5131 91.466 -81.6356 -98.5187 91.8176 -85.9107 -79.9054 85.0381 
-85.5752 -81.0118 86.2552 -85.1915 -82.5208 87.322 -84.7056 -84.5791 88.3354 
-84.1754 -86.6161 89.5937 -83.6571 -88.463 90.6829 -83.1077 -91.1422 91.1233 
-82.4902 -94.8478 91.3864 -81.9169 -98.3038 91.9129 -81.5096 -100.684 92.3998 
-81.0331 -81.6528 82.9369 -80.9706 -83.3413 84.7171 -80.995 -83.2999 83.3839 
-80.9125 -85.5316 86.5962 -80.8999 -85.2441 85.2272 -81.0749 -84.8996 83.9648 
-81.1379 -88.1297 88.3399 -80.9414 -87.7682 87.1983 -80.9921 -87.056 85.8354 
-81.322 -86.3625 84.8213 -81.4232 -90.6063 89.5776 -81.1445 -90.6634 88.9634 
-80.9877 -90.1025 87.8189 -81.1828 -89.0841 86.6959 -81.547 -88.1554 85.7591 
-81.5307 -93.0331 90.2468 -81.273 -93.4477 90.0011 -80.9452 -93.5727 89.4233 
-80.8624 -92.9355 88.4364 -81.1907 -91.667 87.4566 -81.5527 -90.2072 86.4057 
-81.5484 -96.041 90.7696 -81.342 -96.4248 90.4486 -80.944 -96.7078 90.213 
-80.5066 -96.5773 89.6277 -80.5403 -95.7351 88.7299 -81.0617 -94.0654 87.8443 
-81.5412 -91.9243 86.7771 -81.4525 -99.1986 91.4494 -81.2965 -99.7086 90.9069 
-80.9922 -99.8295 90.5647 -80.4682 -99.4104 90.2245 -80.0994 -98.748 89.5388 
-80.3802 -97.7074 88.7761 -81.1017 -95.7338 88.0488 -81.6692 -93.1892 87.0154 
-81.2677 -101.495 92.1453 -81.0411 -102.351 91.4987 -80.7722 -102.846 90.9294 
-80.4417 -102.329 90.5998 -80.0834 -101.191 90.1023 -79.9888 -100.28 89.3902 
-80.4631 -99.1067 88.7919 -81.2231 -96.8962 88.1306 -81.7586 -94.1884 87.0614 
-81.2929 -102.627 92.7421 -80.8963 -103.648 92.188 -81.1245 -104.414 92.5423 
-80.3768 -105.908 91.7953 -80.8664 -106.878 91.9195 -80.3851 -104.924 91.4017 
-79.7557 -108.713 91.3413 -80.481 -109.795 91.3606 -79.4846 -107.501 91.1626 
-79.992 -105.407 90.9326 -79.3722 -111.292 90.9146 -80.2799 -111.721 90.7503 
-78.7613 -110.013 90.9161 -79.1631 -107.796 90.8596 -79.891 -104.386 90.5808 
-79.5861 -112.53 89.9397 -80.5496 -112.014 89.6724 -78.7203 -111.763 90.2263 
-78.7252 -109.868 90.4158 -79.4262 -106.601 90.3053 -79.8597 -102.962 89.8871 
-80.2197 -112.406 88.537 -81.1452 -111.38 88.4979 -79.305 -112.321 88.9254 
-78.8773 -111.048 89.3894 -79.1426 -108.528 89.5575 -79.6084 -105.065 89.4193 
-80.0042 -101.831 89.1596 -80.8582 -111.489 87.6063 -81.8034 -110.433 87.8337 
-79.9734 -111.825 87.8301 -79.3979 -111.086 88.3828 -79.2791 -109.245 88.7562 
-79.4913 -106.413 88.8189 -79.9592 -103.146 88.7766 -80.6271 -99.9725 88.6003 
-81.4561 -110.014 87.4396 -82.4323 -109.045 87.7009 -80.5511 -110.481 87.4849 
-79.9927 -110.102 87.9391 -79.8764 -108.685 88.42 -79.9937 -106.321 88.5718 
-80.2459 -103.374 88.467 -80.7568 -100.232 88.2174 -81.368 -97.0978 87.7641 
-82.1264 -107.905 87.6368 -83.0119 -106.971 87.7716 -81.2651 -108.398 87.6122 
-80.7023 -108.23 87.8616 -80.6355 -107.178 88.2847 -80.885 -105.213 88.5421 
-81.0632 -102.633 88.3998 -81.1781 -99.8032 87.891 -81.4501 -96.9337 87.2051 
-81.79 -94.2298 86.4751 -81.7262 -101.132 92.539 -81.6079 -103.013 92.8539 
-82.1759 -101.254 92.3449 -82.0402 -103.214 92.4506 -82.8128 -100.702 91.9613 
-81.5401 -104.924 92.4768 -82.5416 -102.605 91.7719 -83.4905 -99.3715 91.5975 
-81.8288 -105.135 91.8559 -81.3129 -107.516 91.6869 -83.2255 -101.147 91.3223 
-84.1865 -97.717 91.3381 -82.2695 -104.261 91.1777 -81.5635 -107.212 91.0581 
-81.002 -109.886 91.0327 -84.1346 -99.3896 91.199 -85.0209 -96.0683 91.0784 
-83.2139 -102.703 91.0387 -82.2949 -105.791 90.6934 -81.5439 -108.567 90.5168 
-80.9997 -110.723 90.3511 -85.1059 -97.392 90.994 -85.9312 -94.4233 90.6708 
-84.2701 -100.802 91.0875 -83.4944 -104.094 90.8273 -82.6334 -106.766 90.3598 
-81.8835 -108.785 89.9959 -81.4458 -110.351 89.4254 -85.9993 -95.2973 90.5162 
-86.6699 -92.9154 90.0362 -85.1364 -98.328 90.7684 -84.4094 -101.758 90.7774 
-83.7349 -104.821 90.406 -82.9798 -106.97 89.8765 -82.4342 -108.486 89.3391 
-82.1415 -109.707 88.5986 -86.728 -93.5579 89.7952 -87.1539 -91.6063 89.1313 
-86.0174 -95.9145 90.1863 -85.2206 -98.7809 90.3588 -84.5157 -101.892 90.2297 
-83.8438 -104.601 89.7822 -83.3345 -106.545 89.2582 -83.1014 -107.904 88.7154 
-82.8684 -108.781 88.1308 -87.2574 -92.1311 88.795 -87.537 -90.3566 88.0163 
[...]
CELL_DATA 2000
SCALARS Distance double
LOOKUP_TABLE default
134.085 134.06 134.4 135.067 134.06 134.393 135.111 135.445 136.225 
134.219 134.481 135.258 135.556 136.395 136.73 137.62 134.559 134.757 
135.568 135.808 136.686 136.974 137.889 138.2 139.071 134.986 135.169 
135.996 136.197 137.065 137.314 138.225 138.511 139.417 139.666 140.525 
135.493 135.655 136.542 136.698 137.589 137.755 138.681 138.902 139.877 
140.106 141.082 141.252 142.213 136.171 136.263 137.247 137.363 138.377 
138.446 139.483 139.553 140.649 140.753 141.864 141.965 143.033 143.111 
144.109 137.066 137.064 138.094 138.184 139.309 139.387 140.551 140.578 
141.788 141.789 143.003 142.974 144.123 144.081 145.152 145.102 146.068 
138.116 138.043 139.04 139.093 140.212 140.338 141.51 141.646 142.863 
142.978 144.224 144.248 145.444 145.349 146.481 146.326 147.4 147.192 
148.157 133.449 132.428 133.09 133.386 131.381 132.019 132.295 133 
133.341 130.413 130.982 131.232 131.907 132.286 133.014 133.472 129.523 
130.048 130.314 130.928 131.344 132.026 132.533 133.251 133.8 128.821 
129.227 129.536 130.098 130.54 131.172 131.67 132.349 132.879 133.613 
134.187 128.629 128.752 129.075 129.452 129.895 130.421 130.863 131.481 
131.948 132.666 133.219 134.006 134.643 129.026 128.876 129.178 129.253 
129.672 129.936 130.35 130.752 131.203 131.781 132.375 133.094 133.804 
134.565 135.323 129.711 129.456 129.716 129.587 129.971 129.981 130.417 
130.522 131.023 131.302 131.983 132.477 133.306 133.914 134.775 135.422 
136.272 130.436 130.171 130.406 130.206 130.568 130.462 130.933 130.878 
131.434 131.474 132.185 132.416 133.28 133.678 134.584 135.075 135.966 
136.517 137.384 130.921 131.789 131.18 130.93 132.952 132.211 131.975 
131.302 131.14 134.227 133.498 133.305 132.521 132.348 131.64 131.538 
135.425 134.772 134.641 133.903 133.736 132.965 132.846 132.128 132.078 
136.74 136.022 135.958 135.231 135.127 134.371 134.286 133.533 133.522 
132.786 132.853 138.297 137.494 137.489 136.672 136.65 135.833 135.814 
135.024 135.057 134.308 134.416 133.697 133.893 139.825 139.091 139.11 
138.311 138.327 137.483 137.494 136.642 136.673 135.877 135.99 135.277 
135.489 134.824 135.118 141.159 140.531 140.572 139.885 139.924 139.165 
139.194 138.367 138.403 137.561 137.677 136.9 137.146 136.447 136.774 
136.11 136.467 142.386 141.815 141.905 141.29 141.383 140.704 140.785 
140.034 140.131 139.328 139.499 138.69 138.972 138.203 138.561 137.83 
138.197 137.498 137.864 138.875 139.247 139.558 140.587 139.661 139.98 
141.028 141.323 142.43 140.098 140.43 141.524 141.803 142.894 143.226 
144.505 140.564 140.881 142.009 142.32 143.42 143.715 144.946 145.405 
146.837 141.076 141.337 142.421 142.776 143.898 144.231 145.414 145.835 
147.18 147.723 149.064 141.645 141.839 142.836 143.157 144.26 144.647 
145.822 146.257 147.522 148.026 149.313 149.808 151.01 142.203 142.385 
143.322 143.579 144.624 144.985 146.148 146.599 147.825 148.313 149.54 
150.036 151.265 151.745 153.007 142.681 142.885 143.785 144.04 145.021 
145.348 146.454 146.894 148.079 148.559 149.703 150.194 151.359 151.935 
153.228 153.822 155.144 143.104 143.307 144.157 144.431 145.346 145.681 
146.696 147.141 148.256 148.754 149.818 150.287 151.317 151.898 153.102 
153.859 155.189 155.881 157.049 139.034 140.769 139.9 139.979 142.674 
141.749 141.875 140.974 141.154 144.884 143.848 144.042 142.993 143.17 
142.232 142.462 147.354 146.301 146.613 145.389 145.554 144.383 144.602 
143.619 143.885 149.61 148.786 149.257 148.136 148.399 147.04 147.248 
145.981 146.286 145.173 145.398 151.535 150.879 151.472 150.673 151.157 
150.002 150.308 148.911 149.193 147.833 148.07 146.747 146.77 153.595 
152.857 153.54 152.811 153.455 152.599 153.037 151.899 152.14 150.828 
150.981 149.582 149.566 148.079 147.885 155.803 155.07 155.799 155.008 
155.664 154.84 155.272 154.325 154.477 153.43 153.481 152.343 152.311 
150.934 150.703 149.144 148.813 157.652 157.146 157.792 157.18 157.739 
157.015 157.369 156.449 156.496 155.472 155.415 154.472 154.468 153.444 
153.297 151.934 151.541 149.982 149.533 158.641 159.804 159.127 158.786 
160.822 160.176 159.946 159.231 158.798 162.103 161.309 161.077 160.358 
160.022 159.176 158.47 163.306 162.655 162.343 161.559 161.168 160.35 
159.621 158.59 157.535 163.645 163.518 163.18 162.656 162.138 161.434 
160.666 159.673 158.544 157.439 156.343 163.12 163.388 163.121 163.04 
162.487 162.11 161.323 160.583 159.473 158.427 157.266 156.289 155.355 
162.366 162.679 162.468 162.642 162.179 162.107 161.372 160.967 159.921 
159.166 157.967 157.114 156.028 155.249 154.213 161.647 161.918 161.659 
161.895 161.497 161.608 160.986 160.824 159.884 159.386 158.191 157.525 
156.279 155.634 154.393 153.751 152.443 160.741 161.098 160.74 161.028 
160.577 160.809 160.224 160.291 159.457 159.212 158.072 157.547 156.204 
155.599 154.192 153.628 152.218 151.673 150.325 158.718 159.098 159.316 
159.915 159.121 159.577 160.278 160.399 160.931 158.634 159.36 160.118 
160.581 161.245 161.476 162.16 157.855 158.677 159.423 160.14 160.836 
161.48 162.233 162.683 163.278 157.114 157.896 158.714 159.421 160.138 
160.839 161.535 162.286 162.843 163.385 163.541 156.35 157.145 157.992 
158.779 159.593 160.246 160.899 161.487 161.949 162.553 162.735 163.181 
163.016 155.461 156.263 156.934 157.867 158.613 159.551 160.187 160.881 
161.241 161.72 161.878 162.289 162.283 162.564 162.355 154.477 155.266 
155.777 156.642 157.185 158.221 158.755 159.782 160.105 160.871 160.965 
161.494 161.508 161.886 161.806 161.993 161.732 153.37 154.192 154.68 
155.476 155.933 156.776 157.205 158.146 158.454 159.385 159.498 160.313 
160.306 160.972 160.883 161.338 161.084 161.291 160.848 143.596 144.671 
144.298 144.656 145.751 145.413 145.821 145.436 145.854 146.851 146.538 
147.035 146.655 147.148 146.731 147.238 148.05 147.73 148.322 147.94 
148.521 148.108 148.706 148.254 148.825 149.263 148.999 149.645 149.289 
149.918 149.532 150.17 149.758 150.35 149.871 150.366 150.312 150.186 
150.895 150.618 151.281 150.937 151.609 151.227 151.856 151.391 151.922 
151.375 151.858 151.199 151.196 152.029 151.854 152.596 152.3 153.04 
152.692 153.448 152.993 153.699 153.092 153.758 153.068 153.733 152.003 
152.085 153.026 152.973 153.803 153.602 154.387 154.121 154.967 154.642 
155.532 155.044 155.9 155.22 156.016 155.218 155.917 152.703 152.861 
153.811 153.893 154.753 154.716 155.509 155.382 156.19 156.042 156.923 
156.739 157.628 157.277 158.044 157.464 158.061 157.315 157.752 143.184 
142.897 143.443 144.228 142.437 143.104 143.89 144.468 145.248 141.734 
142.525 143.332 144.03 144.789 145.43 146.245 141.037 141.772 142.588 
143.358 144.126 144.86 145.686 146.431 147.357 140.636 141.176 141.947 
142.624 143.407 144.14 144.979 145.792 146.753 147.574 148.531 140.456 
140.882 141.597 142.122 142.891 143.499 144.322 145.07 146.007 146.878 
147.831 148.665 149.522 140.258 140.692 141.379 141.857 142.61 143.118 
143.904 144.499 145.364 146.124 147.029 147.866 148.701 149.525 150.318 
139.998 140.44 141.099 141.604 142.337 142.865 143.619 144.149 144.943 
145.562 146.417 147.123 147.942 148.684 149.462 150.272 151.071 139.782 
140.169 140.778 141.266 141.95 142.516 143.229 143.805 144.539 145.146 
145.96 146.611 147.432 148.057 148.8 149.463 150.213 151.01 151.785 
139.899 140.419 140.364 140.855 141.038 140.92 141.405 141.395 142.002 
141.839 141.626 142.104 142.001 142.603 142.615 143.276 142.833 142.548 
143.015 142.784 143.334 143.256 143.929 143.938 144.625 143.815 143.561 
143.963 143.702 144.163 144.025 144.693 144.674 145.473 145.414 146.143 
144.575 144.417 144.708 144.509 144.898 144.813 145.513 145.529 146.435 
146.397 147.233 147.037 147.676 145.025 145.001 145.262 145.127 145.54 
145.51 146.311 146.399 147.39 147.409 148.262 148.123 148.74 148.487 
148.988 145.212 145.326 145.714 145.673 146.22 146.222 147.13 147.25 
148.279 148.331 149.132 149.042 149.615 149.45 149.966 149.755 150.317 
145.387 145.541 146.131 146.188 146.894 146.967 147.912 148.073 149.067 
149.154 149.905 149.831 150.4 150.274 150.872 150.729 151.393 151.192 
151.862 145.823 147.119 146.503 146.657 148.632 147.932 148.067 147.408 
147.588 150.154 149.472 149.648 148.943 149.173 148.477 148.728 151.812 
151.107 151.385 150.608 150.842 150.112 150.346 149.658 149.836 153.528 
152.906 153.326 152.508 152.779 151.889 152.067 151.253 151.344 150.615 
150.597 155.12 154.627 155.163 154.482 154.832 153.946 154.15 153.16 
153.256 152.254 152.219 151.291 151.168 156.814 156.286 156.896 156.265 
156.648 155.896 156.11 155.25 155.371 154.368 154.361 153.215 153.076 
151.958 151.787 158.62 158.095 158.73 158.058 158.424 157.645 157.802 
157.019 157.079 156.293 156.249 155.323 155.13 154.031 153.759 152.634 
152.382 160.083 159.766 160.323 159.814 160.119 159.402 159.5 158.679 
158.671 157.855 157.749 156.932 156.693 155.819 155.485 154.525 154.176 
153.159 152.84 145.498 145.55 145.938 146.878 145.791 146.149 147.151 
147.494 148.433 145.859 146.344 147.284 147.734 148.64 148.997 149.877 
145.507 146.159 146.992 147.632 148.492 149.051 149.941 150.41 151.391 
145.007 145.658 146.462 147.145 148.033 148.741 149.731 150.373 151.403 
151.951 152.993 144.646 145.224 146.075 146.663 147.59 148.279 149.357 
150.102 151.2 151.859 152.886 153.471 154.498 144.357 144.929 145.789 
146.357 147.242 147.889 148.905 149.685 150.778 151.548 152.592 153.271 
154.333 154.975 156.125 144.056 144.618 145.421 146.021 146.831 147.486 
148.387 149.16 150.195 151.033 152.131 152.921 154.07 154.806 156.043 
156.721 157.934 143.777 144.282 145.005 145.583 146.345 146.995 147.85 
148.589 149.583 150.416 151.55 152.427 153.662 154.518 155.799 156.591 
157.81 158.476 159.481 144.811 143.964 144.414 144.713 143.514 143.734 
143.889 144.417 144.896 143.1 143.412 143.51 143.766 144 144.603 
145.011 142.033 142.761 142.869 143.306 143.28 143.718 143.825 144.517 
144.712 140.394 141.328 141.429 142.242 142.142 142.744 142.594 143.238 
143.258 144.041 144.185 138.884 139.665 139.764 140.593 140.575 141.312 
141.178 141.859 141.799 142.554 142.671 143.519 143.762 137.639 138.305 
138.405 139.083 139.098 139.761 139.712 140.392 140.395 141.121 141.235 
142.029 142.266 143.151 143.462 136.419 137.075 137.133 137.797 137.759 
138.381 138.29 138.957 138.982 139.74 139.89 140.659 140.874 141.687 
141.993 142.883 143.216 135.264 135.841 135.84 136.477 136.407 137.024 
136.9 137.544 137.553 138.324 138.523 139.331 139.577 140.35 140.631 
141.461 141.822 142.687 143.022 134.678 133.913 134.582 135.168 133.157 
133.816 134.382 135.065 135.667 132.591 133.169 133.793 134.348 134.925 
135.562 136.177 132.316 132.778 133.491 133.928 134.569 135.012 135.674 
136.203 136.935 132.261 132.626 133.348 133.75 134.48 134.862 135.61 
135.98 136.77 137.197 138.014 132.364 132.626 133.317 133.674 134.445 
134.85 135.666 136.045 136.841 137.197 137.975 138.365 139.121 132.667 
132.804 133.488 133.739 134.524 134.874 135.706 136.094 136.884 137.252 
137.992 138.358 139.101 139.472 140.21 133.176 133.21 133.88 134.022 
134.782 135.035 135.834 136.156 136.933 137.274 138.034 138.384 139.181 
139.531 140.35 140.658 141.44 133.771 133.773 134.401 134.474 135.172 
135.34 136.085 136.327 137.087 137.372 138.161 138.483 139.334 139.683 
140.559 140.878 141.692 141.947 142.663 134.287 135.294 134.829 134.941 
136.493 135.942 136.096 135.561 135.719 137.917 137.295 137.503 136.855 
137.02 136.42 136.618 139.339 138.764 139.022 138.381 138.576 137.863 
138.028 137.384 137.611 140.741 140.149 140.421 139.868 140.129 139.478 
139.661 138.925 139.118 138.448 138.714 142.406 141.66 141.941 141.293 
141.614 141.004 141.265 140.574 140.771 140.051 140.297 139.629 139.927 
144.262 143.457 143.741 142.97 143.302 142.594 142.911 142.193 142.409 
141.678 141.883 141.222 141.499 140.872 141.155 146.113 145.3 145.53 
144.775 145.054 144.351 144.664 143.932 144.161 143.357 143.502 142.76 
142.96 142.36 142.617 142.039 142.257 148.078 147.158 147.31 146.494 
146.693 146.007 146.279 145.638 145.889 145.143 145.278 144.441 144.541 
143.802 143.975 143.39 143.589 143.034 143.185 143.854 144.274 144.387 
145.034 144.761 144.861 145.606 145.666 146.401 145.454 145.501 146.381 
146.387 147.235 147.188 147.989 146.219 146.295 147.219 147.258 148.178 
148.149 149.042 148.928 149.784 146.813 147.009 147.938 148.073 149.026 
149.092 150.087 150.065 151.069 150.902 151.835 147.247 147.531 148.619 
148.831 149.999 150.06 151.267 151.227 152.469 152.333 153.491 153.159 
154.111 147.749 148.032 149.355 149.659 151.196 151.325 152.863 152.745 
154.195 153.958 155.289 154.956 156.057 155.54 156.375 148.477 148.718 
150.183 150.539 152.265 152.619 154.364 154.479 156.004 155.838 157.116 
156.802 157.86 157.446 158.28 157.724 158.367 149.357 149.605 151.116 
151.454 153.118 153.574 155.251 155.686 157.163 157.366 158.519 158.435 
159.307 159.045 159.731 159.38 159.936 159.481 159.926 130.33 129.59 
129.944 129.894 128.899 129.208 129.164 129.495 129.505 128.514 128.636 
128.649 128.868 128.911 129.217 129.438 128.711 128.527 128.568 128.569 
128.65 128.773 128.944 129.303 129.72 129.415 129.009 128.994 128.737 
128.751 128.662 128.729 128.887 129.186 129.66 130.207 130.311 129.837 
129.777 129.34 129.245 128.914 128.861 128.765 128.959 129.222 129.778 
130.289 131.009 131.25 130.749 130.694 130.195 130.112 129.6 129.541 
129.135 129.299 129.219 129.782 130.077 130.911 131.332 132.137 132.248 
131.708 131.646 131.133 131.119 130.596 130.649 130.105 130.309 129.909 
130.417 130.37 131.175 131.421 132.27 132.565 133.265 133.253 132.714 
132.635 132.107 132.105 131.628 131.751 131.292 131.54 131.099 131.51 
131.228 131.847 131.841 132.574 132.757 133.436 133.649 134.222 130.751 
130.322 130.793 131.335 129.962 130.38 130.968 131.452 132.094 129.971 
130.207 130.866 131.209 131.921 132.323 133.002 130.338 130.454 131.156 
131.332 132.064 132.31 133.023 133.313 133.948 130.83 130.9 131.565 
131.704 132.356 132.541 133.202 133.439 134.095 134.314 134.911 131.538 
131.441 132.02 132.073 132.655 132.799 133.407 133.626 134.293 134.526 
135.168 135.335 135.935 132.544 132.268 132.77 132.619 133.19 133.173 
133.821 133.911 134.619 134.781 135.48 135.634 136.257 136.391 136.993 
133.588 133.295 133.736 133.487 134.022 133.876 134.525 134.487 135.199 
135.24 135.943 136.02 136.662 136.745 137.335 137.448 138.024 134.511 
134.262 134.674 134.441 134.923 134.752 135.314 135.234 135.849 135.852 
136.488 136.537 137.162 137.21 137.797 137.838 138.383 138.456 138.968 
131.129 131.773 131.609 132.01 132.547 132.343 132.782 132.613 133.132 
133.396 133.17 133.62 133.437 133.932 133.796 134.345 134.251 134.011 
134.455 134.291 134.786 134.612 135.103 134.972 135.507 135.149 134.854 
135.285 135.125 135.674 135.499 136 135.779 136.302 136.162 136.798 
136.171 135.808 136.234 136.005 136.588 136.416 136.965 136.724 137.239 
137.038 137.69 137.59 138.336 137.26 136.894 137.336 137.038 137.591 
137.369 137.903 137.67 138.155 137.965 138.58 138.505 139.249 139.18 
139.876 138.289 137.98 138.422 138.144 138.642 138.386 138.854 138.592 
139.034 138.83 139.41 139.35 140.093 140.067 140.774 140.652 141.229 
139.196 138.949 139.363 139.145 139.598 139.373 139.796 139.532 139.945 
139.708 140.26 140.166 140.905 140.893 141.634 141.542 142.138 141.947 
142.448 144.811 144.755 144.509 144.059 144.632 144.478 143.99 143.818 
143.502 144.132 144.165 143.578 143.558 143.068 143.184 142.885 143.294 
143.452 142.808 142.9 142.293 142.481 142.01 142.297 141.784 142.319 
142.527 141.937 142.061 141.474 141.614 141.089 141.297 140.726 140.926 
140.24 141.392 141.587 141.085 141.228 140.67 140.793 140.216 140.373 
139.764 139.911 139.243 139.373 138.745 140.62 140.761 140.298 140.427 
139.85 139.95 139.273 139.416 138.733 138.925 138.258 138.43 137.802 
137.987 137.46 139.976 140.061 139.578 139.675 139.092 139.137 138.435 
138.47 137.765 137.885 137.255 137.437 136.85 137.043 136.501 136.733 
136.255 139.419 139.441 138.918 138.971 138.395 138.419 137.773 137.742 
137.083 137.07 136.472 136.538 135.996 136.126 135.616 135.797 135.336 
135.562 135.15 
POINT_DATA 1002
SCALARS Distance double
LOOKUP_TABLE default
134.717 133.78 133.759 134.725 133.697 135.761 134.76 133.727 135.852 
137.064 134.959 133.977 136.058 137.277 138.524 135.339 134.366 136.411 
137.591 138.803 139.891 135.808 134.787 136.845 137.945 139.143 140.309 
141.38 136.374 135.322 137.447 138.481 139.624 140.869 142.074 143.191 
137.099 136.097 138.272 139.416 140.559 141.771 142.958 144.075 145.067 
138.003 137.106 139.184 140.476 141.766 143.045 144.2 145.217 146.17 
146.972 139.025 138.221 140.097 141.358 142.701 144.128 145.504 146.636 
147.597 148.439 149.065 132.811 132.704 131.774 131.581 130.792 132.603 
130.578 129.873 131.54 132.718 129.699 129.004 130.673 131.824 133.063 
128.987 128.479 129.931 131.026 132.165 133.413 128.798 128.617 129.448 
130.315 131.257 132.425 133.823 129.222 129.245 129.522 130.054 130.691 
131.666 133.037 134.555 129.908 129.987 130.025 130.374 130.83 131.556 
132.733 134.155 135.62 130.625 130.702 130.691 130.994 131.437 132.04 
132.962 134.148 135.454 136.829 131.441 131.479 132.453 132.709 133.699 
131.743 134.093 134.894 133.119 132.191 135.333 136.051 134.502 133.592 
132.762 136.684 137.489 135.861 135.022 134.249 133.559 138.314 139.093 
137.474 136.62 135.806 135.121 134.573 139.869 140.516 139.15 138.361 
137.506 136.711 136.142 135.756 141.212 141.752 140.639 139.987 139.238 
138.47 137.853 137.446 137.123 142.484 142.927 142.024 141.491 140.881 
140.279 139.752 139.314 138.926 138.546 139.86 140.271 141.633 140.747 
142.069 143.592 141.232 142.597 144.021 145.91 141.664 143.136 144.531 
146.291 148.314 142.072 143.532 145.031 146.687 148.569 150.313 142.569 
143.87 145.384 147.058 148.827 150.548 152.175 143.098 144.303 145.706 
147.361 149.06 150.737 152.518 154.338 143.537 144.723 146.041 147.621 
149.261 150.791 152.56 154.622 156.483 143.904 145.034 146.284 147.768 
149.383 150.815 152.353 154.41 156.55 158.119 140.818 142.803 142.011 
145.156 144.173 143.33 147.843 146.846 145.65 144.83 150.206 149.728 
148.632 147.468 146.567 152.124 152.095 151.658 150.647 149.477 148.178 
154.284 154.227 154.057 153.408 152.379 151.105 149.431 156.601 156.528 
156.251 155.519 154.513 153.561 152.281 150.413 158.363 158.422 158.278 
157.589 156.389 155.349 154.501 153.121 151.104 159.443 159.579 160.393 
160.565 161.516 159.702 161.858 162.948 160.818 159.556 163.169 163.81 
162.009 160.686 158.637 163.579 163.55 162.795 161.615 159.709 157.299 
163.041 162.774 162.747 161.923 160.439 158.286 156.225 162.226 162.101 
162.141 161.653 160.547 158.786 156.841 155.03 161.431 161.411 161.322 
161.033 160.279 158.838 156.962 155.046 153.115 160.457 160.362 160.338 
160.079 159.572 158.536 156.859 154.806 152.737 150.812 158.595 159.914 
158.79 160.031 158.549 160.894 159.509 157.857 160.823 162.028 158.678 
157.046 160.096 161.6 163.083 157.979 156.331 159.501 160.832 162.186 
163.268 157.14 155.592 158.874 160.42 161.457 162.213 162.731 156.069 
154.729 157.605 159.376 160.779 161.499 161.93 162.195 155.007 153.7 
156.265 157.698 159.208 160.345 161.06 161.541 161.688 153.876 152.538 
155.164 156.378 157.55 158.62 159.546 160.324 160.791 160.78 143.961 
145.032 145.024 146.188 146.044 146.247 147.386 147.128 147.536 147.668 
148.682 148.347 148.906 149.127 149.331 149.974 149.474 150.285 150.568 
150.821 150.903 151.116 150.353 151.601 151.965 152.299 152.454 152.415 
152.126 151.126 152.853 153.344 153.82 154.237 154.424 154.456 153.011 
151.878 153.947 154.618 155.211 155.886 156.494 156.804 156.808 142.669 
143.702 142.324 143.29 141.701 144.681 142.588 140.918 144.124 145.569 
141.814 140.384 143.367 144.894 146.601 141.336 140.192 142.697 144.164 
145.885 147.778 141.123 140.056 142.336 143.643 145.167 146.974 148.747 
140.902 139.82 142.117 143.381 144.694 146.237 147.881 149.483 140.6 
139.577 141.799 143.101 144.379 145.76 147.257 148.695 150.215 140.334 