# vtk DataFile Version 4.0
vtk output
ASCII
DATASET POLYDATA
POINTS 1002 float
-82.8067 -79.0699 68.3195 -82.784 -78.3039 67.1269 -82.3554 -77.9783 67.8101 
-82.2236 -79.0205 68.9883 -81.8791 -77.7179 68.556 -82.7026 -80.1229 69.5842 
-81.7765 -78.9648 69.8365 -81.4156 -77.6265 69.4961 -82.124 -80.2746 70.4066 
-82.7855 -81.158 71.2504 -81.4356 -78.9394 70.959 -80.8733 -77.7756 70.5306 
-81.8348 -80.2756 71.5736 -82.3769 -81.3042 72.4516 -83.1493 -82.0036 73.4356 
-81.0423 -79.0535 72.2472 -80.388 -78.0836 71.6805 -81.625 -80.2086 73.039 
-82.1507 -81.3127 73.9365 -82.7474 -82.2467 74.8234 -83.3655 -83.1533 75.6489 
-80.9039 -79.2404 73.8774 -80.3456 -78.3406 73.3356 -81.3775 -80.327 74.6769 
-81.8392 -81.4545 75.5118 -82.2825 -82.6263 76.1604 -82.725 -83.8169 76.7626 
-83.1311 -84.9757 77.4443 -81.0331 -79.4483 75.8658 -80.5214 -78.552 75.2956 
-81.2598 -80.6951 76.4805 -81.4407 -82.0107 77.0931 -81.7393 -83.3275 77.521 
-82.0623 -84.6982 77.8532 -82.3762 -85.9655 78.3574 -82.6735 -87.1002 78.9879 
-80.7523 -79.9311 77.5005 -80.3857 -78.9481 76.8236 -80.8961 -81.356 78.047 
-80.9754 -82.9067 78.5157 -81.2199 -84.302 78.9296 -81.5587 -85.6684 79.2847 
-81.8202 -86.9835 79.6636 -82.0477 -88.1402 80.1166 -82.2982 -89.2168 80.5741 
-80.0271 -80.7815 78.5036 -79.994 -79.5973 77.8978 -80.0828 -82.3108 79.0414 
-80.3133 -83.9225 79.5657 -80.7288 -85.2897 80.1453 -81.1919 -86.5624 80.7659 
-81.516 -87.9032 81.3108 -81.6854 -89.1674 81.6839 -81.8484 -90.3082 81.9473 
-82.0659 -91.3688 82.1936 -79.4475 -81.7223 79.4176 -79.6575 -80.3567 79.0213 
-79.3864 -83.2732 79.8505 -79.7157 -84.801 80.4356 -80.3112 -86.0955 81.1746 
-80.8694 -87.3311 81.9693 -81.2558 -88.7504 82.6985 -81.4696 -90.2041 83.1908 
-81.5862 -91.4885 83.4134 -81.712 -92.607 83.5339 -81.8786 -93.5732 83.6637 
-82.384 -77.4142 66.3196 -81.9765 -76.9 67.075 -81.8882 -76.367 65.5228 
-81.3208 -75.9374 66.2972 -81.2447 -75.3005 64.8462 -81.4139 -76.6276 67.9404 
-80.4233 -75.157 65.5744 -80.417 -74.3751 64.2459 -80.5583 -75.8832 67.2154 
-80.7982 -76.6544 68.9876 -79.5332 -74.2558 65.024 -79.5868 -73.4312 63.7594 
-79.586 -75.1544 66.5498 -79.9257 -75.9266 68.3774 -80.1685 -76.8968 70.0632 
-78.9294 -72.9475 64.8525 -79.1658 -72.2343 63.7213 -78.8519 -73.9237 66.2477 
-79.1453 -74.9036 67.927 -79.4694 -75.9873 69.6702 -79.717 -77.2553 71.3415 
-78.8144 -71.4991 65.2238 -79.3484 -71.0002 64.2734 -78.4791 -72.401 66.4422 
-78.603 -73.4959 67.8961 -78.957 -74.742 69.5441 -79.1282 -76.2725 71.2246 
-79.6625 -77.6076 73.1308 -79.2033 -70.4001 65.9939 -79.9169 -70.1517 65.123 
-78.6 -71.1364 67.0373 -78.3886 -72.2397 68.2432 -78.6611 -73.4445 69.7259 
-78.791 -74.985 71.3347 -79.0113 -76.6772 73.0171 -79.7929 -77.9027 74.9475 
-79.878 -69.8601 66.8931 -80.602 -69.8213 66.0066 -79.2126 -70.3166 67.8736 
-78.7032 -71.3124 68.8834 -78.6862 -72.4572 70.1546 -78.7731 -73.7052 71.6649 
-78.7206 -75.345 73.104 -79.1499 -76.9639 74.6257 -79.847 -78.2362 76.3497 
-80.6212 -69.7866 67.8022 -81.3052 -69.845 66.8921 -80.0226 -69.9539 68.8004 
-79.4162 -70.6527 69.7419 -79.0705 -71.7124 70.8189 -78.9902 -72.7738 72.1916 
-78.8139 -74.0372 73.5124 -78.8641 -75.6455 74.6823 -79.4053 -77.2281 76.0805 
-79.8043 -78.7172 77.6616 -81.615 -69.9827 68.4483 -80.9983 -69.9628 69.5121 
-82.0509 -70.231 70.203 -81.3624 -70.3883 71.2855 -82.4374 -70.7062 71.8566 
-80.3557 -70.2588 70.5502 -81.6179 -71.0874 72.9814 -82.7099 -71.4512 73.4424 
-80.5822 -70.8494 72.3737 -79.7264 -71.0704 71.583 -81.9491 -71.9132 74.7597 
-83.029 -72.3066 75.2279 -80.8181 -71.6401 74.2325 -79.9351 -71.703 73.593 
-79.3617 -72.1271 72.8675 -82.4243 -72.9449 76.5398 -83.4313 -73.3542 76.9458 
-81.307 -72.6442 76.042 -80.2991 -72.6246 75.5183 -79.5669 -72.8392 74.9478 
-79.1006 -73.2497 74.232 -82.8158 -74.3881 78.0684 -83.7863 -74.7431 78.3607 
-81.8019 -74.0776 77.6502 -80.902 -73.988 77.1899 -80.0527 -74.0756 76.7697 
-79.3382 -74.2072 76.1793 -78.9479 -74.6847 75.3596 -83.1278 -75.8562 79.6326 
-84.0704 -76.1334 79.8324 -82.0975 -75.6223 79.3006 -81.3453 -75.5542 78.8617 
-80.7031 -75.6514 78.4831 -79.9176 -75.6895 78.0998 -79.3593 -75.8126 77.4262 
-79.2545 -76.3847 76.6058 -83.4683 -76.9796 81.3423 -84.2863 -77.2386 81.4001 
-82.4364 -76.8163 81.1355 -81.6381 -76.8469 80.7343 -81.1511 -77.0611 80.2851 
-80.4977 -77.2431 79.9835 -79.7945 -77.3207 79.6501 -79.5495 -77.5812 78.9907 
-79.6506 -78.1358 78.1945 -83.7346 -78.0205 82.7525 -84.3985 -78.2528 82.6658 
-82.8405 -77.9117 82.6979 -82.0161 -78.0247 82.4182 -81.5012 -78.3139 81.9515 
-80.9437 -78.6123 81.5619 -80.139 -78.8341 81.4186 -79.6012 -79.0907 81.2037 
-79.5468 -79.4986 80.5671 -79.6208 -79.974 79.7019 -79.307 -82.0789 80.601 
-79.3746 -81.723 81.586 -79.2935 -83.8932 82.2654 -79.4265 -81.2554 82.3954 
-79.4842 -83.5975 83.1773 -79.6499 -85.5791 83.7915 -79.7675 -80.7714 82.6434 
-79.7924 -83.1465 83.6198 -80.0142 -85.4776 84.3965 -79.8616 -87.5088 85.1118 
-80.5902 -80.3968 82.6216 -80.4093 -82.6075 83.6396 -80.5349 -85.1643 84.6631 
-80.3679 -87.6577 85.6172 -79.7628 -89.99 86.4287 -81.3937 -80.1336 82.8751 
-81.1722 -82.2265 83.7952 -81.0302 -84.6709 84.9089 -80.8321 -87.5189 86.0023 
-80.2856 -90.203 86.9516 -79.7088 -92.6141 87.8072 -81.9061 -79.8335 83.3493 
-81.7397 -82.0104 84.2118 -81.4284 -84.2505 85.3394 -81.0734 -87.041 86.4442 
-80.6779 -90.1292 87.299 -80.2184 -92.7091 88.1512 -79.8058 -95.0631 89.008 
-82.5207 -79.5051 83.6877 -82.2505 -81.703 84.5389 -81.9213 -83.9139 85.6573 
-81.4711 -86.4296 86.826 -81.0508 -89.6244 87.6466 -80.7469 -92.5727 88.3569 
-80.4049 -94.9729 89.1561 -79.9688 -97.472 89.8008 -83.3343 -79.3446 83.7784 
-82.9348 -81.3354 84.6475 -82.6004 -83.5294 85.7138 -82.2051 -85.8753 86.8915 
-81.6975 -88.8935 87.814 -81.296 -92.0447 88.597 -81.0197 -94.6237 89.3714 
-80.6535 -97.1052 89.9335 -80.2065 -99.82 90.1456 -84.0718 -79.4064 83.6795 
-83.683 -81.1226 84.5867 -83.3497 -83.1621 85.6397 -83.0242 -85.3977 86.7629 
-82.5152 -88.2136 87.6734 -81.9217 -91.3432 88.5602 -81.4956 -94.0095 89.5436 
-81.1829 -96.445 90.2143 -80.8366 -99.1605 90.3606 -80.4961 -101.894 90.1722 
-79.1533 -83.6714 80.8794 -79.4123 -85.3947 82.6247 -79.3841 -85.196 81.3859 
-79.6576 -87.1362 84.2985 -79.7618 -86.8621 83.283 -79.9834 -86.577 82.186 
-79.463 -89.6569 85.6924 -79.6768 -89.23 84.9199 -80.1573 -88.6913 84.0887 
-80.5524 -88.039 83.0593 -79.3642 -92.6872 87.1364 -79.4268 -92.595 86.2666 
-79.8829 -92.0204 85.5804 -80.4379 -90.9766 84.8375 -80.9124 -89.7968 83.8414 
-79.4902 -95.4886 88.6492 -79.5438 -95.8067 87.7767 -79.8199 -95.6034 86.9233 
-80.1835 -94.681 86.2977 -80.6789 -93.2271 85.4842 -81.169 -91.6198 84.4318 
-79.5162 -98.1942 89.7027 -79.5148 -98.6419 89.0848 -79.8061 -98.5349 88.1493 
-80.0502 -97.8813 87.4724 -80.388 -96.7531 86.8331 -80.9158 -95.0897 85.8721 
-81.3483 -93.1809 84.7221 -79.6214 -100.901 90.0559 -79.3527 -101.579 89.6466 
-79.5166 -101.524 88.7748 -79.7837 -100.864 87.9969 -80.0595 -99.9567 87.5681 
-80.5468 -98.5945 86.9549 -81.0924 -96.596 85.9763 -81.461 -94.4414 84.8213 
-79.9668 -103.224 89.9528 -79.5192 -104.248 89.6052 -79.4035 -104.625 88.8649 
-79.5654 -104.233 87.992 -79.8198 -103.402 87.5544 -80.2206 -102.184 87.3695 
-80.7527 -100.239 86.8638 -81.2166 -97.7866 85.9855 -81.5663 -95.4632 84.8929 
-80.5528 -104.657 89.8226 -80.0649 -106.075 89.439 -80.6397 -107.311 89.3111 
-80.027 -108.966 88.7857 -80.5277 -110.053 88.7249 -79.6315 -107.193 88.8796 
-79.5547 -112.182 88.1058 -80.2582 -112.825 88.0487 -79.4098 -110.321 88.13 
-79.4931 -107.605 88.0305 -79.087 -114.932 87.2959 -80.2785 -114.503 87.3388 
-78.6919 -113.406 87.3689 -79.2383 -110.641 87.3642 -79.6837 -107.155 87.3551 
-79.4136 -115.817 86.3186 -80.8568 -114.463 86.7018 -78.3414 -115.283 86.2792 
-78.7202 -112.984 86.6231 -79.7109 -109.79 86.9531 -80.1021 -106.001 87.2265 
-80.5042 -115.06 85.5193 -81.7925 -113.508 86.2079 -79.0903 -115.409 85.1332 
-78.7568 -114.027 85.5503 -79.688 -111.381 86.3875 -80.4467 -107.9 86.9728 
-80.6073 -103.943 87.1437 -81.7539 -113.594 85.2512 -82.751 -112.104 85.8984 
-80.4861 -114.341 84.7246 -79.6356 -113.795 84.8593 -79.9292 -111.819 85.6713 
-80.6575 -108.67 86.4828 -80.9508 -104.832 86.8253 -81.0428 -101.036 86.6216 
-82.7873 -111.418 85.3709 -83.5432 -110.006 85.7453 -81.8273 -112.281 85.0593 
-80.8705 -112.219 85.0368 -80.5306 -110.909 85.4154 -80.8331 -108.278 85.9329 
-81.139 -104.765 86.2731 -81.277 -101.179 86.2321 -81.4255 -98.0622 85.7164 
-83.5628 -108.507 85.5317 -84.1808 -107.337 85.6715 -82.8615 -109.286 85.477 
-82.0556 -109.397 85.4965 -81.4265 -108.56 85.5797 -81.2672 -106.598 85.6655 
-81.3993 -103.74 85.7184 -81.5535 -100.671 85.667 -81.704 -97.9417 85.3011 
-81.8294 -95.6135 84.5652 -80.9355 -102.075 90.3422 -81.033 -104.903 89.9722 
-81.3711 -101.923 90.5747 -81.5424 -104.668 90.2327 -82.0462 -101.258 90.6982 
-81.1726 -107.482 89.5013 -82.255 -103.681 90.4045 -82.9002 -100.157 90.6381 
-81.779 -106.962 89.7941 -81.2135 -109.871 88.8764 -83.0663 -102.213 90.4182 
-83.5572 -98.9459 90.3635 -82.5452 -105.694 90.0069 -81.9683 -108.769 89.079 
-81.202 -111.816 88.0973 -83.786 -100.649 90.2324 -84.1121 -97.5466 89.7484 
-83.4128 -104.125 90.1243 -82.8426 -107.243 89.3079 -82.0976 -109.956 88.209 
-81.4114 -112.563 87.4602 -84.5001 -98.7437 89.6514 -84.9231 -95.6732 88.8692 
-84.1631 -102.21 89.9853 -83.7573 -105.487 89.5374 -83.1216 -108.093 88.4939 
-82.4539 -110.299 87.6492 -82.0391 -112.234 87.0642 -85.3186 -96.434 88.7482 
-85.8792 -93.6012 87.9898 -84.7883 -99.6749 89.3693 -84.3771 -102.95 89.4289 
-84.0442 -105.8 88.7904 -83.626 -108.093 87.972 -83.2065 -109.946 87.3806 
-82.9338 -111.351 86.714 -86.2005 -94.1958 87.8181 -86.7263 -91.7716 87.169 
-85.5751 -96.9983 88.5132 -84.9778 -99.9074 88.9228 -84.6308 -102.704 88.7687 
-84.49 -105.262 88.23 -84.309 -107.359 87.6758 -84.0388 -108.86 87.0815 
-83.77 -109.77 86.3521 -87.0709 -92.2698 86.9403 -87.4599 -90.2484 86.3292 
-86.56 -94.6514 87.6549 -85.9688 -97.151 88.2721 -85.449 -99.6013 88.4857 
[...]
CELL_DATA 2000
SCALARS Distance double
LOOKUP_TABLE default
131.573 131.499 131.917 132.717 131.572 131.924 132.801 133.176 134.107 
131.846 132.142 133.114 133.421 134.465 134.775 135.858 132.286 132.537 
133.614 133.894 135.037 135.3 136.452 136.699 137.835 133.098 133.18 
134.36 134.542 135.763 135.977 137.15 137.361 138.482 138.708 139.8 
134.307 134.256 135.474 135.496 136.735 136.82 138.004 138.12 139.235 
139.386 140.472 140.66 141.714 135.422 135.468 136.599 136.657 137.815 
137.872 139.031 139.077 140.233 140.275 141.418 141.464 142.571 142.633 
143.685 136.221 136.359 137.372 137.567 138.653 138.844 139.984 140.114 
141.305 141.378 142.601 142.6 143.777 143.704 144.809 144.728 145.777 
137.014 137.07 138.043 138.209 139.309 139.56 140.76 140.994 142.234 
142.416 143.693 143.805 145.05 145.024 146.163 146.021 147.078 146.914 
147.914 130.819 129.563 130.366 130.702 128.202 129.047 129.412 130.264 
130.71 126.824 127.667 128.041 128.942 129.439 130.354 130.921 125.469 
126.29 126.662 127.57 128.103 129.071 129.689 130.624 131.298 124.289 
124.981 125.351 126.21 126.76 127.745 128.432 129.408 130.152 131.107 
132.013 123.619 124.004 124.363 125.017 125.588 126.471 127.235 128.21 
129.063 130.028 131.008 132.038 133.174 123.632 123.671 124.023 124.331 
124.918 125.522 126.346 127.176 128.121 129.032 130.049 131.06 132.192 
133.276 134.364 124.182 123.99 124.358 124.354 124.937 125.194 126.025 
126.573 127.553 128.271 129.266 130.133 131.194 132.242 133.329 134.367 
135.288 125.039 124.737 125.137 124.95 125.514 125.506 126.273 126.535 
127.476 127.946 128.891 129.493 130.443 131.277 132.331 133.335 134.373 
135.287 136.166 125.719 126.962 126.144 125.864 128.365 127.497 127.208 
126.393 126.23 129.815 128.941 128.674 127.809 127.648 126.884 126.935 
131.407 130.472 130.262 129.338 129.217 128.392 128.468 127.775 128.054 
133.181 132.201 132.062 131.058 130.994 130.077 130.178 129.394 129.632 
128.984 129.351 135.007 134.055 133.988 132.976 132.982 132.004 132.153 
131.244 131.47 130.641 130.94 130.298 130.787 136.825 135.914 135.915 
134.941 135.012 134.065 134.296 133.362 133.656 132.673 132.986 132.08 
132.555 131.904 132.614 138.571 137.744 137.795 136.876 136.976 136.086 
136.355 135.512 135.877 134.955 135.315 134.328 134.784 133.916 134.561 
133.91 134.664 140.092 139.416 139.506 138.712 138.829 138.011 138.265 
137.5 137.856 137.076 137.433 136.594 137.007 136.183 136.727 135.972 
136.581 135.923 136.511 137.629 137.873 138.334 139.532 138.069 138.606 
139.897 140.361 141.599 138.242 138.76 140.05 140.649 141.974 142.46 
143.68 138.561 138.958 140.165 140.74 142.131 142.767 144.152 144.58 
145.832 138.985 139.334 140.501 140.937 142.291 142.912 144.414 145.019 
146.423 146.808 148.118 139.387 139.751 140.938 141.339 142.617 143.133 
144.57 145.231 146.714 147.302 148.657 149.089 150.399 139.844 140.148 
141.299 141.725 142.958 143.448 144.766 145.372 146.812 147.495 148.92 
149.495 150.797 151.27 152.533 140.392 140.613 141.652 142.035 143.21 
143.707 144.962 145.531 146.886 147.562 148.996 149.672 151.018 151.568 
152.793 153.285 154.458 140.893 141.103 142.028 142.357 143.443 143.913 
145.121 145.673 146.95 147.595 148.952 149.677 151.01 151.675 152.872 
153.44 154.544 155.07 156.104 137.882 139.737 138.791 138.898 141.834 
140.801 140.908 139.95 140.196 143.926 142.939 143.118 142.119 142.377 
141.412 141.725 146.085 145.077 145.353 144.379 144.743 143.739 144.079 
143.03 143.305 148.497 147.439 147.88 146.8 147.337 146.252 146.73 
145.559 145.875 144.67 144.875 150.942 150.01 150.637 149.565 150.211 
149.062 149.636 148.388 148.761 147.419 147.607 146.268 146.331 153.158 
152.437 153.153 152.284 152.885 151.883 152.351 151.252 151.576 150.333 
150.468 149.084 149.051 147.637 147.494 155.107 154.559 155.298 154.612 
155.147 154.287 154.603 153.667 153.905 152.912 153.053 151.85 151.78 
150.364 150.129 148.674 148.398 156.747 156.363 157.1 156.582 157.129 
156.379 156.682 155.764 155.996 155.071 155.314 154.287 154.336 153.03 
152.793 151.309 150.952 149.497 149.176 157.788 159.377 158.488 158.184 
160.885 160.051 159.778 158.8 158.263 162.364 161.583 161.353 160.379 
159.848 158.709 157.878 163.508 162.991 162.751 161.892 161.354 160.284 
159.473 158.207 157.242 163.832 163.76 163.445 162.952 162.321 161.584 
160.844 159.807 158.88 157.582 156.578 163.513 163.68 163.342 163.178 
162.519 162.155 161.485 160.913 160.099 159.105 157.983 156.755 155.539 
162.964 163.207 162.927 162.894 162.343 162.132 161.526 161.244 160.491 
159.918 158.735 157.794 156.32 155.292 153.854 162.075 162.505 162.244 
162.422 161.92 161.874 161.207 161.071 160.192 159.893 158.614 158.026 
156.432 155.664 154.076 153.292 151.877 160.708 161.334 161.007 161.485 
160.924 161.179 160.355 160.429 159.33 159.23 157.822 157.502 155.9 
155.414 153.857 153.283 151.887 151.262 150.017 157.776 158.17 158.481 
159.381 158.336 158.813 159.789 160.047 160.874 158.177 158.833 159.853 
160.333 161.177 161.462 162.25 157.718 158.504 159.511 160.205 161.026 
161.519 162.2 162.648 163.276 156.976 157.9 158.928 159.753 160.599 
161.178 161.717 162.246 162.719 163.301 163.605 155.876 156.966 157.998 
159.037 159.939 160.675 161.193 161.656 161.971 162.504 162.807 163.325 
163.384 154.555 155.674 156.573 157.808 158.633 159.725 160.257 160.988 
161.253 161.771 162 162.5 162.653 163.018 162.903 153.307 154.289 
155.025 156.19 156.883 158.091 158.593 159.666 159.965 160.818 161.004 
161.665 161.747 162.234 162.108 162.411 162.04 152.231 153.064 153.704 
154.683 155.331 156.365 156.879 157.898 158.253 159.245 159.478 160.382 
160.443 161.147 160.962 161.436 161.016 161.316 160.723 141.387 142.493 
142.132 142.563 143.738 143.355 143.909 143.478 144.028 145.078 144.7 
145.356 144.947 145.605 145.117 145.739 146.422 146.057 146.733 146.409 
147.148 146.752 147.457 146.931 147.591 147.794 147.405 148.06 147.752 
148.579 148.3 149.166 148.718 149.491 148.888 149.605 149.127 148.788 
149.461 149.121 150.043 149.809 150.901 150.537 151.476 150.877 151.636 
150.966 151.645 150.194 150.044 150.777 150.534 151.487 151.336 152.537 
152.336 153.396 152.9 153.65 152.984 153.607 152.938 153.5 150.953 
150.981 151.796 151.744 152.697 152.684 153.826 153.829 154.894 154.662 
155.417 154.901 155.479 154.85 155.398 154.715 155.192 151.585 151.683 
152.571 152.656 153.657 153.751 154.851 154.939 155.975 155.927 156.747 
156.469 157.114 156.639 157.207 156.593 157.081 156.361 156.746 140.895 
140.44 141.096 141.949 139.977 140.657 141.564 142.2 143.127 139.528 
140.234 141.207 141.857 142.805 143.44 144.427 139.008 139.759 140.759 
141.501 142.477 143.132 144.105 144.766 145.781 138.489 139.191 140.152 
140.968 141.962 142.729 143.673 144.394 145.4 146.126 147.156 138.161 
138.725 139.61 140.335 141.315 142.126 143.071 143.852 144.794 145.622 
146.658 147.465 148.442 137.971 138.467 139.287 139.866 140.784 141.508 
142.482 143.235 144.155 144.935 145.891 146.786 147.768 148.616 149.452 
137.778 138.274 139.054 139.571 140.406 141.04 141.99 142.708 143.653 
144.348 145.242 146.006 146.927 147.794 148.66 149.469 150.184 137.587 
138.062 138.81 139.306 140.066 140.648 141.503 142.21 143.122 143.847 
144.716 145.416 146.272 147.019 147.874 148.648 149.42 150.146 150.818 
137.744 138.363 138.352 138.942 139.024 138.985 139.597 139.565 140.193 
139.898 139.751 140.395 140.279 140.945 140.891 141.618 140.963 140.772 
141.411 141.18 141.798 141.679 142.413 142.406 143.202 141.879 141.802 
142.394 142.194 142.708 142.544 143.208 143.196 144.031 144.043 144.833 
142.642 142.569 143.091 142.993 143.484 143.399 144.087 144.06 144.969 
144.951 145.862 145.73 146.469 143.576 143.336 143.761 143.59 144.128 
144.121 144.987 145.037 146.097 146.054 147.058 146.882 147.688 147.406 
148.063 144.517 144.271 144.618 144.349 144.916 144.867 145.884 146.011 
147.2 147.235 148.249 148.113 148.894 148.644 149.276 148.976 149.558 
145.072 145.028 145.412 145.247 145.881 145.819 146.88 146.993 148.198 
148.277 149.251 149.187 149.928 149.771 150.406 150.16 150.73 150.427 
150.961 145.353 146.326 145.839 145.942 148.079 147.257 147.51 146.682 
146.786 150.063 149.281 149.632 148.683 148.931 147.862 148.018 151.689 
151.143 151.554 150.825 151.089 150.143 150.249 149.193 149.259 153.304 
152.729 153.215 152.585 152.898 152.131 152.207 151.27 151.18 150.225 
150.138 155.178 154.526 155.058 154.32 154.705 153.912 154.119 153.181 
153.154 152.09 151.936 150.939 150.793 156.94 156.42 156.969 156.258 
156.627 155.811 156.056 155.157 155.238 154.173 154.049 152.876 152.651 
151.564 151.333 158.433 158.057 158.662 158.094 158.474 157.718 157.888 
157.041 157.049 156.145 155.987 154.956 154.632 153.5 153.109 152.029 
151.67 159.784 159.476 160.116 159.678 160.104 159.469 159.623 158.798 
158.713 157.812 157.583 156.663 156.313 155.313 154.843 153.771 153.278 
152.257 151.849 145.069 144.71 145.186 145.955 144.505 144.958 145.924 
146.447 147.638 144.529 144.962 146.061 146.571 147.822 148.367 149.59 
144.465 145.012 146.094 146.711 147.884 148.485 149.576 150.136 151.155 
144.097 144.771 145.744 146.52 147.584 148.331 149.318 149.961 150.944 
151.577 152.686 143.569 144.257 145.162 145.974 147.024 147.857 148.901 
149.614 150.658 151.345 152.549 153.258 154.527 143.098 143.729 144.641 
145.386 146.474 147.301 148.461 149.228 150.368 151.085 152.3 153.078 
154.364 155.106 156.277 142.755 143.333 144.265 144.943 146.019 146.805 
147.965 148.794 149.944 150.75 151.898 152.731 153.932 154.788 155.965 
156.712 157.752 142.484 143.041 143.958 144.605 145.613 146.35 147.399 
148.228 149.296 150.183 151.265 152.174 153.3 154.227 155.401 156.283 
157.415 158.137 159.126 144.627 143.607 144.185 144.152 142.095 142.974 
143.059 143.659 143.765 140.432 141.383 141.651 142.449 142.612 143.329 
143.636 138.984 139.82 140.095 140.974 141.228 142.068 142.35 143.202 
143.548 137.607 138.42 138.62 139.457 139.689 140.58 140.854 141.784 
142.085 142.998 143.24 136.137 136.979 137.182 138.009 138.201 139.043 
139.249 140.169 140.422 141.409 141.656 142.576 142.744 134.72 135.511 
135.723 136.552 136.742 137.564 137.7 138.543 138.69 139.649 139.881 
140.901 141.139 142.062 142.256 133.444 134.158 134.345 135.119 135.293 
136.087 136.187 136.978 137.04 137.908 138.08 139.094 139.401 140.425 
140.726 141.635 141.9 132.25 132.911 133.071 133.791 133.948 134.676 
134.758 135.477 135.513 136.285 136.421 137.347 137.683 138.723 139.139 
140.119 140.47 141.342 141.642 131.617 130.814 131.624 132.419 129.911 
130.775 131.645 132.477 133.287 129.228 129.915 130.785 131.65 132.509 
133.313 134.057 129.112 129.463 130.242 130.877 131.753 132.519 133.325 
134.059 134.797 129.372 129.573 130.307 130.625 131.494 131.988 132.896 
133.467 134.332 134.927 135.779 129.612 129.855 130.639 130.888 131.779 
132.067 133.03 133.365 134.338 134.733 135.713 136.163 137.141 129.943 
130.118 130.931 131.208 132.12 132.441 133.393 133.694 134.646 134.955 
135.941 136.305 137.315 137.701 138.66 130.557 130.591 131.372 131.536 
132.412 132.718 133.644 133.998 134.904 135.252 136.167 136.549 137.502 
137.906 138.829 139.198 140.028 131.267 131.278 132.013 132.072 132.88 
133.055 133.942 134.225 135.131 135.457 136.35 136.714 137.616 138.024 
138.913 139.314 140.135 140.48 141.221 131.855 133.021 132.503 132.65 
134.398 133.772 133.974 133.371 133.542 136.093 135.302 135.516 134.814 
135.028 134.359 134.584 138.038 137.138 137.313 136.481 136.699 135.948 
136.177 135.483 135.747 140.043 139.154 139.334 138.392 138.569 137.708 
137.937 137.158 137.399 136.683 136.961 141.969 141.157 141.414 140.479 
140.657 139.688 139.896 139.006 139.248 138.421 138.662 137.918 138.211 
143.87 143.073 143.379 142.532 142.758 141.818 142.016 141.063 141.284 
140.359 140.57 139.7 139.929 139.183 139.477 145.889 145.026 145.331 
144.482 144.733 143.857 144.059 143.158 143.345 142.424 142.591 141.662 
141.826 140.963 141.176 140.436 140.692 147.981 147.094 147.385 146.485 
146.724 145.821 146.012 145.125 145.284 144.405 144.528 143.636 143.746 
142.865 143.008 142.181 142.357 141.608 141.792 142.596 143.267 143.323 
144.128 143.964 144.047 144.925 144.951 145.79 144.699 144.775 145.681 
145.748 146.638 146.654 147.527 145.514 145.574 146.543 146.574 147.547 
147.543 148.5 148.468 149.408 146.346 146.452 147.549 147.58 148.697 
148.633 149.718 149.59 150.629 150.48 151.449 147.141 147.317 148.519 
148.644 149.878 149.899 151.105 150.987 152.127 151.897 152.953 152.653 
153.596 147.919 148.146 149.405 149.602 150.892 151.041 152.347 152.388 
153.671 153.525 154.717 154.372 155.415 154.936 155.815 148.642 148.937 
150.257 150.499 151.856 152.053 153.486 153.63 155.109 155.106 156.497 
156.25 157.429 156.936 157.861 157.218 157.935 149.261 149.631 151.01 
151.342 152.788 153.063 154.613 154.842 156.445 156.568 158.045 157.975 
159.188 158.886 159.798 159.265 159.912 159.225 159.693 124.92 124.083 
124.52 124.706 123.527 123.786 123.95 124.434 124.732 123.458 123.405 
123.504 123.792 124.07 124.526 124.859 124.058 123.612 123.597 123.543 
123.796 124.037 124.425 124.792 125.315 125.219 124.5 124.388 123.931 
124.109 124.028 124.476 124.633 125.276 125.591 126.415 126.598 125.814 
125.702 124.996 125.106 124.675 125.082 124.963 125.605 125.761 126.595 
126.933 127.804 127.991 127.229 127.156 126.414 126.519 125.916 126.251 
125.846 126.333 126.21 126.865 127.095 127.878 128.248 128.958 129.357 
128.629 128.56 127.849 127.933 127.346 127.627 127.135 127.469 127.072 
127.47 127.387 127.999 128.261 128.98 129.307 129.949 130.627 129.968 
129.886 129.207 129.229 128.666 128.875 128.424 128.678 128.216 128.448 
128.101 128.53 128.512 129.206 129.413 130.156 130.365 131.015 125.502 
125.306 125.701 126.416 125.326 125.628 126.305 126.697 127.433 125.426 
125.687 126.371 126.686 127.37 127.725 128.456 125.835 125.878 126.608 
126.839 127.578 127.794 128.499 128.806 129.645 126.857 126.554 127.223 
127.233 128.035 128.149 128.899 129.033 129.858 130.163 131.132 128.17 
127.742 128.22 128.004 128.677 128.699 129.446 129.533 130.311 130.502 
131.404 131.729 132.645 129.299 128.955 129.312 129.005 129.502 129.391 
130.063 130.097 130.834 130.961 131.765 132.016 132.861 133.165 133.954 
130.274 129.973 130.357 130.04 130.512 130.282 130.923 130.815 131.542 
131.526 132.281 132.393 133.192 133.409 134.203 134.445 135.2 131.29 
130.965 131.387 131.08 131.574 131.323 131.937 131.767 132.445 132.327 
133.012 132.981 133.714 133.813 134.598 134.771 135.542 135.729 136.452 
125.984 126.884 126.651 127.204 127.888 127.62 128.154 127.969 128.595 
128.92 128.645 129.178 128.955 129.552 129.376 130.02 130.121 129.746 
130.311 130.019 130.616 130.372 131.021 130.845 131.574 131.58 131.086 
131.648 131.247 131.872 131.533 132.207 131.938 132.694 132.507 133.32 
133.044 132.575 133.078 132.645 133.249 132.877 133.574 133.243 133.991 
133.711 134.501 134.297 135.111 134.332 133.941 134.424 134.029 134.584 
134.238 134.907 134.615 135.337 135.043 135.759 135.497 136.26 136.078 
136.885 135.566 135.189 135.704 135.329 135.873 135.522 136.127 135.858 
136.537 136.306 136.986 136.732 137.424 137.215 137.98 137.832 138.6 
136.786 136.429 136.945 136.597 137.127 136.777 137.314 137.015 137.625 
137.416 138.096 137.896 138.577 138.359 139.053 138.884 139.591 139.456 
140.104 144.673 144.092 144.205 143.58 143.009 143.279 142.524 142.713 
141.861 141.921 142.047 141.185 141.392 140.548 140.828 140.112 141.086 
141.057 140.17 140.173 139.406 139.574 139.005 139.262 138.745 140.174 
140.222 139.357 139.337 138.574 138.641 138.053 138.249 137.717 137.957 
137.382 139.158 139.244 138.414 138.481 137.678 137.791 137.061 137.256 
136.566 136.832 136.167 136.477 135.859 138.339 138.327 137.54 137.541 
136.737 136.807 136.039 136.179 135.446 135.638 134.96 135.224 134.636 
134.962 134.448 137.693 137.63 136.85 136.772 135.96 135.924 135.169 
135.214 134.543 134.634 134.016 134.15 133.596 133.819 133.332 133.636 
133.194 137.061 136.998 136.201 136.116 135.284 135.207 134.421 134.42 
133.744 133.821 133.207 133.31 132.718 132.869 132.339 132.579 132.122 
132.432 132.022 
POINT_DATA 1002
SCALARS Distance double
LOOKUP_TABLE default
132.329 131.253 131.141 132.283 131.077 133.542 132.417 131.228 133.705 
135.076 132.785 131.53 134.144 135.549 136.954 133.302 132.031 134.76 
136.212 137.601 138.954 134.212 133.055 135.57 136.966 138.277 139.575 
140.878 135.507 134.365 136.711 137.931 139.123 140.313 141.534 142.738 
136.536 135.369 137.76 138.983 140.186 141.397 142.552 143.635 144.688 
137.177 136.124 138.413 139.798 141.179 142.556 143.856 144.93 145.868 
146.78 137.916 137.01 139.046 140.477 142.009 143.519 145.008 146.292 
147.271 148.1 148.866 130.066 129.892 128.734 128.518 127.359 129.828 
127.127 125.989 128.483 130.01 125.758 124.664 127.106 128.725 130.335 
124.527 123.681 125.772 127.408 129.167 130.958 123.812 123.372 124.76 
126.24 128.062 129.965 132.106 123.838 123.696 124.429 125.572 127.232 
129.075 131.113 133.361 124.442 124.414 124.802 125.589 126.919 128.513 
130.218 132.256 134.373 125.361 125.347 125.613 126.133 127.102 128.411 
129.757 131.361 133.379 135.369 126.451 126.623 127.815 128.058 129.226 
126.948 129.542 130.682 128.426 127.575 131.198 132.347 130.051 129.18 
128.655 133.064 134.138 131.93 131.005 130.353 129.893 134.966 135.92 
133.939 133.081 132.377 131.683 131.249 136.862 137.699 135.921 135.179 
134.631 133.965 133.314 133.106 138.676 139.343 137.851 137.161 136.731 
136.273 135.711 135.332 135.249 140.233 140.705 139.612 139.026 138.613 
138.227 137.802 137.513 137.343 137.158 138.725 139.126 140.75 139.357 
141.214 142.837 139.417 141.381 143.331 144.876 139.658 141.426 143.592 
145.538 147.089 140.119 141.73 143.723 145.935 147.805 149.469 140.525 
142.174 143.954 146.043 148.176 149.999 151.736 140.896 142.483 144.224 
146.127 148.278 150.317 152.08 153.79 141.334 142.732 144.42 146.25 
148.292 150.429 152.314 153.992 155.599 141.744 143.009 144.593 146.355 
148.255 150.32 152.289 154.019 155.628 157.092 139.74 141.918 141.07 
144.067 143.372 142.693 146.296 145.703 145.159 144.391 148.941 148.414 
147.906 147.137 146.105 151.628 151.351 150.878 150.133 149.027 147.699 
153.957 153.884 153.429 152.754 151.851 150.537 148.927 155.942 156.009 
155.56 154.829 154.142 153.175 151.639 149.83 157.561 157.809 157.582 
156.917 156.255 155.558 154.288 152.466 150.569 158.719 159.193 160.229 
160.743 161.691 159.409 162.329 163.084 160.999 159.148 163.575 163.875 
162.361 160.718 158.57 163.837 163.794 162.926 161.684 160.148 157.937 
163.419 163.335 162.775 161.861 160.922 159.245 156.784 162.876 162.688 
162.494 161.765 160.962 159.605 157.371 154.819 161.96 161.583 161.905 
161.371 160.499 159.133 157.121 154.818 152.602 160.469 160.082 160.604 
160.278 159.435 158.079 156.276 154.321 152.442 150.622 157.53 159.206 
157.787 159.458 157.78 160.715 159.277 157.49 160.839 161.992 158.759 
156.917 160.513 161.741 162.883 158.035 155.987 160.004 161.296 162.129 
163.157 156.886 154.766 159.087 160.74 161.556 162.239 163.034 155.381 
153.527 157.465 159.361 160.682 161.532 162.239 162.696 153.969 152.434 
155.737 157.461 158.97 160.256 161.238 161.777 161.861 152.798 151.469 
154.355 155.911 157.277 158.525 159.666 160.437 160.684 160.516 141.715 
142.941 142.825 144.302 144.091 144.488 145.713 145.434 146.057 146.275 
147.031 146.806 147.462 147.934 148.172 148.385 148.197 148.772 149.515 
150.062 150.252 149.792 149.401 150.218 151.153 152.049 152.33 152.335 
150.947 150.243 151.606 152.651 153.817 154.332 154.295 154.197 151.762 
150.862 152.69 153.809 155.029 155.845 156.084 156.067 155.938 140.267 
141.309 139.749 140.917 139.269 142.47 140.522 138.798 142.188 143.762 
139.963 138.266 141.798 143.45 145.109 139.349 137.856 141.149 142.945 
144.629 146.47 138.974 137.655 140.512 142.288 143.987 145.774 147.735 
138.776 137.486 140.115 141.729 143.436 145.05 146.856 148.718 138.563 
137.289 139.826 141.281 142.964 144.565 146.117 147.814 149.454 138.338 