# vtk DataFile Version 4.0
vtk output
ASCII
DATASET POLYDATA
POINTS 1002 float
-84.9101 -83.1831 72.8345 -84.8489 -82.5297 71.6339 -84.5442 -82.2141 72.3592 
-84.6262 -82.8701 73.6708 -84.1221 -82.0036 73.1327 -84.986 -83.8352 74.3224 
-84.2939 -82.6476 74.6423 -83.6164 -81.8966 74.03 -84.7358 -83.6151 75.2933 
-85.1007 -84.6554 76.0652 -83.9075 -82.584 75.7762 -83.202 -81.8587 75.1336 
-84.4284 -83.533 76.3957 -84.8029 -84.6915 77.0532 -85.1717 -85.7862 77.8118 
-83.5203 -82.7048 76.9313 -82.9547 -81.8403 76.3898 -84.0094 -83.6657 77.5608 
-84.4005 -84.8536 78.1836 -84.7778 -86.0641 78.8306 -85.0726 -87.1493 79.5098 
-83.1171 -82.9057 78.0504 -82.695 -81.8401 77.6521 -83.5424 -84.0053 78.6001 
-83.9353 -85.1545 79.3426 -84.3279 -86.3918 80.0828 -84.6389 -87.5986 80.7249 
-84.8422 -88.711 81.3427 -82.6671 -83.1275 79.2019 -82.3327 -81.9711 78.7204 
-83.0549 -84.4185 79.6768 -83.4829 -85.5961 80.365 -83.8739 -86.7935 81.239 
-84.1663 -88.1262 81.9972 -84.3827 -89.3916 82.6238 -84.5973 -90.4712 83.1868 
-82.2868 -83.4524 80.2167 -81.9972 -82.2792 79.5708 -82.5827 -84.8443 80.8504 
-82.9772 -86.1161 81.4504 -83.3583 -87.3026 82.1678 -83.6033 -88.714 82.9202 
-83.791 -90.1762 83.62 -84.0328 -91.3607 84.28 -84.2649 -92.3246 84.7859 
-82.038 -83.8841 81.0852 -81.7747 -82.6847 80.4952 -82.2178 -85.3002 81.8182 
-82.4633 -86.6637 82.5088 -82.7763 -87.8994 83.1381 -82.9991 -89.32 83.7399 
-83.1364 -90.9241 84.36 -83.3367 -92.2944 85.0631 -83.5932 -93.3449 85.7213 
-83.7761 -94.2839 86.1511 -81.8622 -84.3694 82.1056 -81.6665 -83.1593 81.6819 
-81.9498 -85.7688 82.6802 -82.0627 -87.2066 83.3515 -82.2963 -88.5549 84.0688 
-82.5325 -89.9704 84.7405 -82.6592 -91.5909 85.3153 -82.7636 -93.1391 85.8957 
-82.941 -94.3771 86.5167 -83.1396 -95.4297 87.03 -83.2878 -96.4129 87.3438 
-84.5843 -81.607 70.9932 -84.1864 -81.3188 71.7535 -84.2488 -80.6489 70.4181 
-83.7406 -80.3808 71.1953 -83.774 -79.7577 69.8198 -83.5714 -81.21 72.4647 
-83.1721 -79.4973 70.6044 -83.1112 -78.933 69.1251 -83.0145 -80.3115 71.895 
-82.9165 -81.1548 73.3076 -82.5021 -78.6047 70.0679 -82.547 -77.9537 68.6671 
-82.5049 -79.3394 71.5264 -82.3785 -80.1737 72.8434 -82.5581 -81.0216 74.5254 
-82.0242 -77.4435 69.9371 -82.4487 -76.7708 68.8134 -81.9765 -78.2465 71.4208 
-81.9935 -79.0206 72.7696 -82.1146 -79.9106 74.2382 -82.4593 -80.8683 76.0147 
-81.9376 -76.2181 70.2723 -82.6919 -75.8207 69.3356 -81.5581 -76.995 71.5426 
-81.5327 -77.8465 72.8427 -81.6897 -78.7343 74.189 -81.993 -79.8204 75.7915 
-82.253 -80.8856 77.3673 -82.1394 -75.4534 70.84 -83.0548 -75.3619 69.9796 
-81.4764 -75.9357 71.8665 -81.184 -76.7729 72.9507 -81.1934 -77.6723 74.1691 
-81.4116 -78.7988 75.6742 -81.6788 -80.0405 77.1599 -81.8646 -81.1223 78.3929 
-82.5956 -75.1246 71.6459 -83.5751 -75.1665 70.8552 -81.7931 -75.3011 72.5263 
-81.2794 -75.9393 73.414 -81.024 -76.7672 74.4205 -80.9844 -77.7831 75.7806 
-81.0882 -79.1095 77.237 -81.2615 -80.3544 78.3777 -81.5136 -81.4424 79.3706 
-83.2636 -74.9448 72.6926 -84.2061 -75.0522 71.9413 -82.4037 -74.9347 73.5259 
-81.7548 -75.3499 74.358 -81.3205 -76.0605 75.2062 -81.0606 -76.9003 76.2977 
-80.9211 -78.0814 77.6233 -80.8771 -79.4366 78.7685 -81.0248 -80.6251 79.6459 
-81.36 -81.8032 80.5816 -84.2692 -74.9497 73.5597 -83.3627 -74.7684 74.4404 
-84.323 -74.9701 75.2005 -83.4538 -74.8996 76.2014 -84.405 -75.3036 76.7529 
-82.5292 -74.9113 75.3718 -83.5774 -75.448 77.8238 -84.6186 -75.8541 78.3216 
-82.6245 -75.2605 77.2171 -81.8882 -75.5017 76.2641 -83.8996 -76.1192 79.4522 
-84.8868 -76.4624 79.9753 -82.8267 -75.9271 78.87 -82.0403 -75.9603 78.1376 
-81.4883 -76.2801 77.1816 -84.3039 -76.8813 81.1069 -85.0656 -77.3214 81.4837 
-83.2881 -76.7081 80.4821 -82.3781 -76.7535 79.7597 -81.7745 -76.9108 79.0369 
-81.2479 -77.3216 78.2997 -84.5696 -78.0581 82.4818 -85.2279 -78.5277 82.7068 
-83.7503 -77.7757 82.0191 -82.8495 -77.8134 81.3256 -82.1704 -77.9743 80.6296 
-81.5793 -78.1835 80.0558 -81.0258 -78.6812 79.4493 -84.7628 -79.5044 83.5947 
-85.4465 -79.8112 83.8204 -84.0518 -79.2279 83.2813 -83.2296 -79.1312 82.8367 
-82.5149 -79.204 82.2432 -81.951 -79.3025 81.6346 -81.3475 -79.5168 81.0735 
-80.9446 -80.0077 80.3877 -84.9827 -80.8475 84.729 -85.654 -81.0079 84.9285 
-84.3302 -80.7234 84.4417 -83.5843 -80.6107 84.1706 -82.8254 -80.5183 83.8433 
-82.2683 -80.5001 83.2944 -81.7967 -80.6003 82.6686 -81.345 -80.8754 82.0488 
-81.1763 -81.3173 81.3042 -85.1888 -82.051 85.8836 -85.8066 -82.1621 85.9473 
-84.5992 -82.0479 85.6564 -83.9648 -82.0688 85.4002 -83.2259 -81.9806 85.2192 
-82.5918 -81.8764 84.8819 -82.1964 -81.9562 84.2861 -81.8686 -82.1973 83.697 
-81.5922 -82.4886 83.1114 -81.5292 -82.8092 82.3811 -81.7341 -84.5518 83.3118 
-81.7693 -84.3784 84.1215 -81.7214 -86.2641 85.0592 -81.979 -84.2207 84.7384 
-81.9309 -86.2673 85.8054 -81.7645 -88.2135 86.7119 -82.2394 -83.9526 85.2227 
-82.2327 -86.202 86.2575 -82.0843 -88.27 87.2815 -81.9397 -90.4945 88.2749 
-82.5072 -83.6574 85.8099 -82.4859 -85.9437 86.7289 -82.3951 -88.2228 87.708 
-82.2207 -90.5306 88.7606 -81.9936 -93.1712 89.8587 -83.0031 -83.5826 86.2561 
-82.8523 -85.6887 87.2252 -82.7174 -88.0651 88.2162 -82.4649 -90.486 89.276 
-82.1311 -93.1189 90.3787 -81.7929 -95.8835 91.3393 -83.7087 -83.6153 86.4406 
-83.4558 -85.5617 87.443 -83.2482 -87.8829 88.4903 -82.8872 -90.3665 89.6716 
-82.3183 -92.9036 90.871 -81.8756 -95.5469 91.8679 -81.618 -98.1999 92.4352 
-84.348 -83.494 86.6695 -84.0455 -85.3297 87.6188 -83.8112 -87.5737 88.5543 
-83.5154 -90.0862 89.6991 -82.831 -92.578 91.0303 -82.0982 -94.9856 92.2363 
-81.7769 -97.5481 92.9436 -81.6354 -100.232 93.0828 -84.92 -83.3354 86.9107 
-84.5655 -84.9933 87.8806 -84.2378 -87.097 88.7395 -84.0253 -89.5866 89.6935 
-83.5476 -92.127 90.9066 -82.6926 -94.4214 92.2231 -82.0741 -96.7536 93.2209 
-81.8789 -99.4718 93.5678 -81.7108 -102.324 93.4163 -85.5391 -83.3312 86.9449 
-85.1828 -84.8004 87.9493 -84.751 -86.6786 88.8547 -84.4332 -89.0083 89.7466 
-84.1472 -91.55 90.8011 -83.5143 -93.8732 92.0074 -82.7163 -96.0363 93.1176 
-82.2361 -98.5648 93.7647 -82.0057 -101.53 93.8186 -81.7396 -104.445 93.5462 
-81.7439 -85.9464 83.7196 -81.6177 -87.8361 85.4859 -81.7553 -87.5136 84.2051 
-81.6929 -90.1589 87.3365 -81.6993 -89.7017 86.0224 -81.9384 -89.1435 84.9008 
-81.805 -92.9772 89.1842 -81.768 -92.4585 88.0772 -81.9686 -91.6551 86.8361 
-82.2295 -90.7546 85.7728 -81.6395 -96.0031 90.8288 -81.5758 -95.5869 89.9848 
-81.8148 -94.6884 88.8558 -82.1714 -93.5529 87.75 -82.4063 -92.4695 86.5613 
-81.3948 -98.7605 92.0137 -81.1997 -98.6966 91.3954 -81.3196 -98.003 90.4575 
-81.7662 -96.8755 89.4773 -82.1891 -95.5281 88.4513 -82.4463 -94.2343 87.1481 
-81.3404 -101.126 92.6684 -81.0419 -101.471 92.2215 -80.9824 -101.21 91.5195 
-81.2632 -100.43 90.6506 -81.7432 -99.099 89.8505 -82.1687 -97.3983 88.8634 
-82.5075 -95.7589 87.6276 -81.3771 -103.422 92.9921 -81.0465 -104.028 92.607 
-80.9308 -104.088 92.1006 -81.0596 -103.673 91.3622 -81.3825 -102.639 90.6579 
-81.8424 -100.91 89.9907 -82.2691 -98.8919 89.0827 -82.6577 -97.0236 88.022 
-81.3919 -105.775 93.1682 -81.0567 -106.664 92.7862 -80.9121 -106.998 92.3168 
-80.9755 -106.755 91.6544 -81.1702 -105.833 91.0191 -81.5652 -104.195 90.555 
-82.0723 -102.154 89.9902 -82.4788 -100.091 89.1884 -82.8387 -98.1542 88.282 
-81.5351 -107.502 93.3428 -81.184 -109.033 92.9586 -81.44 -110.475 93.0246 
-81.1727 -112.391 92.4089 -81.5791 -112.826 92.3932 -80.952 -110.096 92.4199 
-81.3162 -115.062 91.2381 -81.8397 -114.086 91.4098 -80.9992 -113.817 91.4218 
-80.8962 -110.38 91.6456 -81.5319 -115.985 89.878 -82.1902 -114.214 90.5608 
-81.1136 -116.357 89.9087 -80.8867 -113.724 90.464 -80.9561 -109.483 90.9508 
-82.0252 -115.106 89.2814 -82.7478 -113.537 90.2782 -81.4627 -116.189 88.8773 
-81.0315 -115.123 89.388 -80.954 -111.502 90.2148 -81.2565 -107.456 90.6483 
-82.7553 -113.344 89.5728 -83.435 -112.125 90.3255 -82.1376 -114.059 88.9622 
-81.5193 -113.807 89.0378 -81.1909 -111.667 89.7178 -81.4445 -108.269 90.3034 
-81.8607 -105.036 90.3676 -83.4229 -111.175 89.9697 -84.1403 -110.049 90.2896 
-82.7757 -111.709 89.5396 -82.097 -111.564 89.213 -81.583 -110.432 89.3132 
-81.692 -108.184 89.7475 -82.167 -105.49 89.9968 -82.4248 -102.79 89.7817 
-84.083 -108.844 89.9455 -84.8678 -107.862 90.0684 -83.3436 -109.574 89.7461 
-82.6332 -109.754 89.3562 -82.0434 -109.157 88.9851 -81.9809 -107.654 89.0484 
-82.4104 -105.533 89.4026 -82.7329 -103.17 89.4592 -82.7894 -100.642 89.0247 
-84.8542 -106.782 89.5807 -85.5595 -106.019 89.726 -84.1235 -107.55 89.4405 
-83.4156 -108.049 89.1899 -82.8017 -107.914 88.8194 -82.5703 -106.868 88.6746 
-82.8187 -105.076 88.9442 -83.0967 -102.998 89.1477 -83.1321 -100.801 88.8401 
-83.146 -98.522 88.1491 -81.9855 -104.607 93.7359 -81.8448 -107.627 93.4921 
-82.4374 -104.281 93.8124 -82.4193 -107.036 93.6495 -83.2212 -103.403 93.8669 
-81.8842 -110.168 93.1841 -83.3079 -105.777 93.8466 -84.1238 -102.115 93.8439 
-82.6251 -109.16 93.4644 -82.2023 -111.778 92.6866 -84.2235 -103.952 93.8245 
-84.8226 -100.638 93.5082 -83.5516 -107.563 93.6961 -83.0775 -110.387 93.0988 
-82.6379 -112.444 92.0268 -85.0247 -101.866 93.4763 -85.4789 -99.1128 92.9577 
-84.424 -105.307 93.5886 -83.9202 -108.519 93.2607 -83.5465 -110.713 92.5891 
-83.0873 -112.377 91.5035 -85.9181 -99.9171 93.0657 -86.3256 -97.5276 92.3939 
-85.3607 -102.892 93.342 -84.7243 -106.061 93.1513 -84.2799 -108.452 92.7367 
-83.9442 -110.172 92.1029 -83.6245 -111.577 91.1594 -86.8152 -98.0436 92.4593 
-87.1689 -95.8434 91.6112 -86.3696 -100.721 93.0292 -85.7353 -103.664 93.0553 
-85.1222 -105.992 92.7222 -84.727 -107.592 92.2596 -84.4946 -109.041 91.5776 
-84.3224 -110.025 90.8097 -87.5431 -96.0835 91.4109 -87.8819 -94.1934 90.5446 
-87.1788 -98.475 92.2496 -86.6951 -101.299 92.6828 -86.1462 -103.736 92.6124 
-85.6994 -105.335 92.2628 -85.4347 -106.646 91.7145 -85.293 -107.744 91.0341 
-85.1225 -108.128 90.4577 -88.2559 -94.2643 90.2466 -88.5854 -92.7682 89.5352 
-87.9013 -96.1839 91.0982 -87.4713 -98.6725 91.8036 -87.007 -101.202 92.093 
[...]
CELL_DATA 2000
SCALARS Distance double
LOOKUP_TABLE default
137.705 137.741 138.082 138.837 137.846 138.178 139.003 139.321 140.195 
138.102 138.388 139.298 139.58 140.518 140.815 141.784 138.541 138.765 
139.722 139.968 140.95 141.217 142.229 142.499 143.486 139.062 139.262 
140.209 140.444 141.451 141.71 142.774 143.025 144.083 144.274 145.275 
139.565 139.777 140.729 140.961 141.991 142.245 143.35 143.619 144.746 
144.959 146.04 146.165 147.19 140.053 140.28 141.29 141.527 142.597 
142.828 143.924 144.191 145.312 145.599 146.705 146.934 147.986 148.117 
149.092 140.619 140.815 141.874 142.123 143.223 143.46 144.534 144.767 
145.842 146.12 147.219 147.517 148.595 148.835 149.838 149.964 150.865 
141.383 141.482 142.536 142.732 143.824 144.066 145.155 145.387 146.486 
146.708 147.843 148.076 149.216 149.437 150.515 150.675 151.655 151.719 
152.603 137.007 135.946 136.652 137.009 134.838 135.565 135.894 136.631 
137.031 133.649 134.422 134.737 135.481 135.838 136.65 137.179 132.436 
133.203 133.577 134.338 134.704 135.46 135.976 136.884 137.582 131.474 
132.061 132.483 133.231 133.687 134.399 134.917 135.738 136.464 137.401 
138.16 131.011 131.291 131.632 132.237 132.733 133.434 133.97 134.741 
135.446 136.348 137.14 138.015 138.706 131.068 131.051 131.272 131.573 
132.007 132.563 133.096 133.802 134.48 135.353 136.152 137.036 137.747 
138.541 139.174 131.574 131.326 131.509 131.472 131.855 132.088 132.622 
133.075 133.75 134.449 135.275 136.104 136.88 137.638 138.293 139.034 
139.717 132.399 132.024 132.219 131.952 132.318 132.256 132.798 132.93 
133.604 133.971 134.801 135.405 136.263 136.909 137.644 138.269 138.987 
139.693 140.496 132.991 133.901 133.217 132.821 134.955 134.211 133.863 
133.157 132.92 136.194 135.381 135.097 134.322 134.126 133.43 133.369 
137.613 136.752 136.506 135.664 135.508 134.745 134.699 134.019 134.122 
139.116 138.27 138.09 137.188 137.059 136.221 136.225 135.466 135.594 
134.929 135.241 140.624 139.827 139.751 138.86 138.785 137.886 137.928 
137.105 137.271 136.519 136.784 136.17 136.589 142.131 141.374 141.382 
140.556 140.558 139.678 139.745 138.892 139.054 138.256 138.471 137.752 
138.038 137.489 137.899 143.619 142.905 142.976 142.21 142.298 141.472 
141.584 140.736 140.895 140.066 140.273 139.477 139.739 139.02 139.375 
138.803 139.267 145.032 144.388 144.519 143.821 143.984 143.226 143.401 
142.584 142.771 141.93 142.168 141.34 141.665 140.86 141.268 140.502 
140.974 140.31 140.833 141.963 142.224 142.69 143.918 142.555 143.04 
144.362 144.775 146.031 142.889 143.371 144.714 145.22 146.529 146.927 
148.248 143.307 143.704 145.004 145.533 146.881 147.371 148.714 149.193 
150.661 143.86 144.158 145.398 145.848 147.215 147.72 149.109 149.613 
151.066 151.635 153.147 144.438 144.709 145.873 146.264 147.579 148.081 
149.484 150.009 151.42 151.974 153.399 154.004 155.358 144.945 145.224 
146.295 146.673 147.869 148.385 149.722 150.32 151.673 152.249 153.54 
154.137 155.397 156.013 157.179 145.4 145.664 146.652 147.004 148.079 
148.567 149.797 150.436 151.746 152.385 153.601 154.18 155.325 155.945 
157.092 157.71 158.79 145.838 146.076 146.998 147.311 148.298 148.714 
149.831 150.426 151.687 152.368 153.582 154.175 155.251 155.821 156.892 
157.543 158.639 159.269 160.292 142.278 144.143 143.229 143.388 146.221 
145.189 145.278 144.391 144.631 148.564 147.432 147.583 146.461 146.669 
145.725 146.008 151.161 150.008 150.335 149.041 149.297 148.046 148.308 
147.214 147.459 153.737 152.724 153.169 151.932 152.22 150.878 151.111 
149.791 149.983 148.746 148.908 155.967 155.202 155.694 154.672 154.96 
153.744 153.946 152.655 152.817 151.465 151.539 150.219 150.295 157.797 
157.24 157.787 157.005 157.355 156.331 156.564 155.394 155.581 154.295 
154.358 152.954 152.901 151.563 151.562 159.426 158.964 159.58 158.959 
159.413 158.591 158.901 157.897 158.106 156.959 157.035 155.72 155.622 
154.208 154.057 152.749 152.682 160.969 160.582 161.286 160.744 161.312 
160.601 161.001 160.122 160.337 159.323 159.369 158.228 158.115 156.826 
156.61 155.256 155.05 153.783 153.64 162.041 163.848 162.835 162.467 
165.503 164.696 164.419 163.202 162.588 166.494 166.185 166.138 165.174 
164.537 163.168 162.29 166.576 166.75 166.883 166.577 166.062 164.983 
163.913 162.592 161.515 166.168 166.457 166.492 166.744 166.377 166 
164.919 163.912 162.601 161.528 160.395 165.63 165.886 165.669 165.985 
165.56 165.7 164.77 164.365 163.051 162.292 161.04 160.215 159.078 
164.777 165.154 164.809 165.066 164.489 164.667 163.815 163.78 162.671 
162.345 161.189 160.641 159.515 158.776 157.6 163.617 164.087 163.747 
164.092 163.531 163.671 162.876 162.845 161.92 161.784 160.853 160.584 
159.612 159.091 157.973 157.22 156.025 162.489 162.892 162.58 162.967 
162.54 162.759 162.13 162.107 161.331 161.177 160.399 160.213 159.406 
159.073 158.074 157.493 156.331 155.615 154.498 161.996 162.236 162.692 
163.748 162.21 162.816 163.886 164.362 165.266 161.961 162.684 163.751 
164.346 165.175 165.619 166.162 161.352 162.241 163.278 164.064 164.89 
165.405 165.869 166.182 166.341 160.429 161.386 162.316 163.318 164.143 
164.928 165.411 165.837 165.987 166.177 166.124 159.515 160.387 161.226 
162.196 162.972 163.915 164.41 165.121 165.273 165.713 165.655 165.876 
165.663 158.554 159.439 160.224 161.139 161.887 162.749 163.25 163.967 
164.132 164.726 164.677 165.165 164.959 165.237 164.825 157.345 158.294 
158.952 159.997 160.688 161.663 162.176 162.9 163.1 163.614 163.621 
164.089 163.992 164.374 164.076 164.25 163.731 156.142 156.968 157.477 
158.511 159.099 160.23 160.732 161.702 161.943 162.617 162.659 163.149 
163.131 163.506 163.357 163.545 163.167 163.18 162.663 146.355 147.504 
147.124 147.53 148.704 148.34 148.81 148.38 148.836 149.932 149.598 
150.148 149.725 150.251 149.792 150.371 151.133 150.859 151.479 151.102 
151.717 151.289 151.974 151.514 152.236 152.242 152.053 152.745 152.446 
153.143 152.791 153.57 153.18 153.961 153.476 154.141 153.258 153.144 
153.92 153.712 154.494 154.224 155.069 154.767 155.586 155.17 155.823 
155.28 155.796 154.202 154.154 155.006 154.887 155.743 155.558 156.451 
156.231 157.09 156.747 157.439 156.932 157.488 156.895 157.421 155.001 
155.054 155.95 155.95 156.846 156.758 157.657 157.535 158.434 158.209 
158.987 158.559 159.206 158.64 159.247 158.618 159.187 155.598 155.751 
156.671 156.819 157.752 157.78 158.658 158.623 159.521 159.455 160.328 
160.085 160.829 160.377 161.035 160.469 161.065 160.409 160.886 145.879 
145.522 146.116 146.972 145.124 145.73 146.547 147.196 148.093 144.672 
145.291 146.08 146.73 147.595 148.31 149.254 144.259 144.833 145.629 
146.256 147.109 147.797 148.729 149.472 150.423 144.034 144.493 145.286 
145.847 146.724 147.358 148.276 148.958 149.888 150.611 151.51 143.959 
144.351 145.092 145.567 146.42 147.016 147.937 148.562 149.453 150.096 
150.963 151.654 152.501 143.837 144.257 144.94 145.383 146.148 146.71 
147.591 148.222 149.101 149.706 150.536 151.15 151.973 152.633 153.438 
143.634 144.07 144.731 145.182 145.885 146.408 147.205 147.826 148.668 
149.311 150.133 150.752 151.553 152.16 152.928 153.545 154.257 143.477 
143.866 144.53 144.959 145.664 146.14 146.888 147.431 148.199 148.816 
149.599 150.272 151.07 151.732 152.491 153.08 153.742 154.301 154.893 
143.641 144.281 144.202 144.701 144.964 144.908 145.471 145.344 145.878 
145.611 145.624 146.292 146.196 146.775 146.584 147.118 146.237 146.284 
147.054 147.049 147.709 147.531 148.052 147.83 148.369 146.937 146.944 
147.775 147.837 148.616 148.492 149.042 148.78 149.286 149.097 149.71 
147.761 147.704 148.55 148.614 149.488 149.428 150.048 149.787 150.287 
150.049 150.677 150.528 151.216 148.663 148.589 149.449 149.466 150.36 
150.317 150.97 150.762 151.269 151.055 151.692 151.553 152.275 152.087 
152.701 149.542 149.521 150.416 150.418 151.288 151.212 151.843 151.644 
152.158 151.992 152.659 152.572 153.317 153.159 153.759 153.488 153.94 
150.296 150.361 151.245 151.322 152.147 152.111 152.715 152.523 153.042 
152.877 153.584 153.532 154.326 154.198 154.795 154.514 154.921 154.618 
155.011 150.912 152.02 151.63 151.899 153.069 152.711 153.048 152.626 
152.798 154.454 153.898 154.259 153.766 153.958 153.412 153.365 156.127 
155.485 155.805 155.135 155.33 154.645 154.658 153.923 153.794 157.539 
157.08 157.359 156.727 156.869 156.141 156.216 155.416 155.425 154.537 
154.492 158.772 158.389 158.778 158.207 158.365 157.659 157.725 157.009 
157.072 156.286 156.26 155.355 155.241 160.126 159.746 160.33 159.745 
160.062 159.253 159.356 158.534 158.586 157.839 157.776 156.983 156.731 
155.895 155.577 161.301 161.094 161.722 161.338 161.745 161.054 161.204 
160.315 160.359 159.451 159.392 158.463 158.186 157.247 156.834 156.001 
155.624 162.094 162.054 162.61 162.485 162.854 162.499 162.626 162.023 
162.038 161.263 161.211 160.247 160.008 158.876 158.467 157.365 156.96 
156.054 155.743 150.546 150.387 150.861 151.616 150.231 150.692 151.411 
151.862 152.624 150.014 150.507 151.234 151.679 152.482 152.977 153.977 
149.692 150.241 151.024 151.525 152.419 152.931 154.015 154.566 155.685 
149.293 149.89 150.748 151.333 152.318 152.903 154.011 154.611 155.693 
156.216 157.117 148.852 149.479 150.373 151.044 152.044 152.733 153.789 
154.483 155.485 156.096 156.95 157.449 158.254 148.422 149.027 149.883 
150.603 151.548 152.318 153.276 154.059 155.003 155.736 156.629 157.233 
158.097 158.619 159.518 148.057 148.594 149.373 150.058 150.951 151.722 
152.632 153.417 154.336 155.141 156.119 156.875 157.851 158.469 159.378 
159.904 160.719 147.764 148.234 148.951 149.553 150.417 151.131 152.052 
152.783 153.698 154.468 155.469 156.316 157.382 158.163 159.113 159.711 
160.472 160.954 161.577 149.744 148.505 149.257 149.586 147.371 148.029 
148.289 149.095 149.435 146.253 146.917 147.098 147.812 148.126 148.943 
149.248 144.908 145.724 145.953 146.663 146.92 147.668 147.972 148.734 
148.952 143.409 144.279 144.552 145.41 145.662 146.462 146.711 147.472 
147.668 148.386 148.528 142.078 142.821 143.039 143.9 144.143 145.048 
145.27 146.133 146.289 147.063 147.17 147.917 148.055 140.901 141.566 
141.74 142.47 142.685 143.497 143.713 144.581 144.751 145.597 145.721 
146.52 146.671 147.458 147.652 139.67 140.351 140.502 141.226 141.427 
142.156 142.352 143.097 143.268 144.054 144.216 145.038 145.242 146.075 
146.328 147.116 147.351 138.446 139.073 139.167 139.915 140.091 140.879 
141.061 141.806 141.951 142.668 142.815 143.577 143.793 144.637 144.938 
145.796 146.1 146.866 147.103 137.833 137.131 137.781 138.488 136.539 
137.12 137.817 138.535 139.39 136.144 136.636 137.321 137.921 138.762 
139.512 140.395 135.944 136.371 137.079 137.538 138.313 138.938 139.821 
140.527 141.338 135.86 136.254 136.988 137.386 138.132 138.602 139.432 
140.027 140.874 141.48 142.239 135.908 136.228 136.983 137.349 138.122 
138.508 139.314 139.77 140.612 141.122 141.947 142.458 143.251 136.206 
136.393 137.176 137.445 138.262 138.572 139.401 139.758 140.608 141.007 
141.869 142.299 143.169 143.61 144.454 136.748 136.825 137.605 137.77 
138.59 138.812 139.658 139.936 140.82 141.135 142.033 142.368 143.272 
143.643 144.528 144.898 145.686 137.371 137.413 138.137 138.252 139.026 
139.199 140.021 140.258 141.152 141.435 142.357 142.64 143.536 143.832 
144.689 145.014 145.79 146.093 146.743 137.938 139.074 138.551 138.709 
140.427 139.789 139.952 139.394 139.595 142.021 141.284 141.456 140.762 
140.971 140.363 140.616 143.7 142.949 143.14 142.383 142.589 141.871 
142.137 141.49 141.79 145.437 144.649 144.844 144.085 144.275 143.536 
143.768 143.087 143.38 142.73 143.014 147.332 146.468 146.674 145.838 
146.038 145.235 145.432 144.705 144.952 144.308 144.575 143.932 144.171 
149.242 148.409 148.622 147.751 147.967 147.09 147.294 146.439 146.65 
145.89 146.128 145.458 145.689 145.045 145.267 151.017 150.265 150.473 
149.663 149.849 149.024 149.22 148.368 148.556 147.694 147.877 147.072 
147.256 146.543 146.728 146.095 146.293 152.757 152.024 152.264 151.463 
151.627 150.822 150.97 150.193 150.34 149.556 149.686 148.87 148.975 
148.166 148.261 147.535 147.652 147.043 147.189 147.822 148.36 148.383 
149.043 149.077 149.059 149.816 149.776 150.549 149.859 149.866 150.688 
150.656 151.477 151.41 152.199 150.565 150.632 151.454 151.501 152.339 
152.345 153.162 153.082 153.852 151.235 151.33 152.205 152.261 153.174 
153.203 154.137 154.088 154.983 154.826 155.674 151.96 152.079 153.15 
153.182 154.31 154.245 155.381 155.242 156.326 156.114 157.099 156.816 
157.677 152.718 152.905 154.169 154.297 155.621 155.602 156.86 156.703 
157.847 157.607 158.61 158.312 159.146 158.794 159.449 153.401 153.693 
155.026 155.316 156.67 156.848 158.039 158.071 159.091 159.023 159.907 
159.732 160.446 160.158 160.7 160.344 160.768 153.9 154.306 155.618 
156.048 157.339 157.673 158.737 158.928 159.782 159.913 160.686 160.746 
161.415 161.29 161.785 161.484 161.851 161.492 161.817 132.346 131.53 
131.926 131.948 131.038 131.252 131.272 131.572 131.66 130.938 130.947 
130.994 131.105 131.197 131.452 131.765 131.301 131.045 131.093 131.032 
131.136 131.19 131.458 131.777 132.314 132.206 131.658 131.667 131.357 
131.453 131.292 131.482 131.593 132.079 132.48 133.146 133.421 132.746 
132.714 132.184 132.256 131.835 131.956 131.764 132.166 132.369 133.089 
133.465 134.213 134.601 133.957 133.881 133.313 133.368 132.841 132.955 
132.491 132.806 132.673 133.358 133.57 134.4 134.667 135.389 135.702 
135.085 134.979 134.419 134.454 133.969 134.133 133.644 133.934 133.559 
134.105 134.036 134.781 134.932 135.641 135.83 136.431 136.79 136.192 
136.108 135.513 135.534 135.035 135.223 134.804 135.121 134.739 135.168 
134.909 135.457 135.398 135.988 136.079 136.642 136.803 137.345 132.906 
132.474 133.012 133.665 132.158 132.596 133.284 133.813 134.499 132.279 
132.465 133.166 133.547 134.311 134.733 135.458 132.84 132.817 133.476 
133.64 134.386 134.676 135.432 135.792 136.564 133.61 133.469 134.046 
134.075 134.737 134.884 135.571 135.829 136.574 136.949 137.731 134.569 
134.284 134.778 134.681 135.317 135.343 136.012 136.092 136.788 137.011 
137.79 138.135 138.915 135.669 135.302 135.723 135.484 136.088 136.017 
136.725 136.693 137.385 137.4 138.147 138.315 139.131 139.386 140.166 
136.705 136.383 136.766 136.473 136.976 136.83 137.468 137.434 138.096 
138.079 138.759 138.813 139.585 139.735 140.528 140.704 141.429 137.638 
137.37 137.772 137.49 137.931 137.71 138.234 138.138 138.726 138.718 
139.341 139.399 140.096 140.228 140.974 141.124 141.82 141.948 142.558 
133.328 134.127 133.897 134.244 134.93 134.708 135.089 134.855 135.256 
135.84 135.546 135.955 135.72 136.182 135.951 136.463 136.953 136.564 
136.987 136.671 137.189 136.934 137.493 137.253 137.845 138.142 137.749 
138.177 137.804 138.312 138.013 138.572 138.308 138.875 138.653 139.267 
139.3 138.931 139.359 138.997 139.463 139.151 139.671 139.391 139.925 
139.672 140.252 140.069 140.714 140.505 140.109 140.559 140.177 140.643 
140.291 140.792 140.484 141.021 140.741 141.328 141.091 141.743 141.55 
142.217 141.722 141.336 141.803 141.421 141.909 141.512 141.995 141.626 
142.148 141.849 142.446 142.204 142.859 142.635 143.292 143.069 143.697 
142.806 142.49 142.928 142.627 143.1 142.764 143.203 142.831 143.27 
142.955 143.485 143.274 143.888 143.714 144.332 144.134 144.719 144.505 
145.072 149.558 148.838 148.92 148.353 148.053 148.207 147.736 147.8 
147.294 147.181 147.399 146.959 147.142 146.616 146.704 146.117 146.297 
146.484 145.973 146.23 145.623 145.827 145.116 145.318 144.638 145.535 
145.603 145.005 145.189 144.556 144.733 144.01 144.189 143.499 143.746 
143.145 144.906 144.878 144.214 144.274 143.646 143.745 143.096 143.185 
142.56 142.695 142.158 142.361 141.882 144.316 144.271 143.569 143.54 
142.85 142.896 142.233 142.334 141.699 141.836 141.265 141.452 140.949 
141.175 140.707 143.704 143.683 142.993 142.925 142.179 142.134 141.394 
141.446 140.753 140.904 140.274 140.497 139.937 140.203 139.693 139.97 
139.483 143.093 143.077 142.413 142.351 141.607 141.505 140.74 140.674 
139.972 139.999 139.376 139.499 138.945 139.16 138.67 138.937 138.481 
138.749 138.309 
POINT_DATA 1002
SCALARS Distance double
LOOKUP_TABLE default
138.406 137.354 137.357 138.486 137.382 139.623 138.669 137.489 139.857 
141.108 139.009 137.811 140.217 141.483 142.764 139.479 138.337 140.68 
141.956 143.252 144.445 139.974 138.879 141.177 142.498 143.873 145.13 
146.257 140.482 139.339 141.734 143.065 144.491 145.88 147.115 148.204 
141.022 139.801 142.371 143.691 145.02 146.429 147.812 149.038 150.04 
141.624 140.433 142.98 144.322 145.595 146.916 148.317 149.662 150.82 
151.742 142.391 141.327 143.596 144.9 146.249 147.618 149.001 150.337 
151.55 152.601 153.471 136.311 136.291 135.238 135.17 134.108 136.224 
133.99 132.852 135.052 136.242 132.772 131.688 133.973 135.089 136.602 
131.728 131.011 132.954 134.139 135.528 137.266 131.141 130.887 132.035 
133.215 134.56 136.254 137.902 131.131 131.192 131.55 132.442 133.635 
135.249 136.956 138.385 131.661 131.874 131.742 132.277 133.152 134.468 
136.111 137.577 138.918 132.543 132.788 132.46 132.756 133.366 134.3 
135.64 137.043 138.316 139.729 133.647 133.466 134.595 134.577 135.696 
133.55 135.873 137.016 134.844 133.991 137.369 138.457 136.28 135.404 
134.706 138.987 139.906 137.919 136.982 136.293 135.787 140.592 141.376 
139.678 138.76 138.044 137.481 137.088 142.157 142.864 141.399 140.601 
139.876 139.247 138.69 138.34 143.698 144.299 143.077 142.42 141.734 
141.079 140.497 140.032 139.757 145.17 145.63 144.691 144.185 143.602 
142.98 142.448 142.053 141.721 141.447 143.119 143.508 145.134 143.894 
145.688 147.277 144.17 146.083 147.821 149.652 144.497 146.351 148.215 
150.111 152.227 145 146.701 148.599 150.52 152.574 154.649 145.529 
147.095 148.948 150.913 152.834 154.797 156.636 145.961 147.398 149.118 
151.106 153.007 154.788 156.613 158.296 146.342 147.655 149.189 151.089 
153.051 154.752 156.441 158.229 159.852 146.718 147.938 149.304 151.007 
152.971 154.731 156.276 157.965 159.734 161.299 144.182 146.257 145.4 
148.767 147.732 146.88 151.613 150.632 149.533 148.516 154.343 153.56 
152.477 151.33 150.11 156.624 156.123 155.206 154.168 152.963 151.553 
158.469 158.276 157.674 156.821 155.767 154.355 152.805 160.139 160.141 
159.831 159.206 158.301 157.049 155.473 153.9 161.768 161.962 161.843 
161.34 160.474 159.343 157.964 156.403 154.854 163.066 163.683 164.804 
165.614 166.097 163.973 166.857 166.539 165.953 163.703 166.863 166.336 
166.934 165.312 162.746 166.179 165.997 166.437 165.762 163.697 161.378 
165.489 165.41 165.344 164.907 163.654 161.82 159.935 164.571 164.356 
164.373 163.759 162.792 161.58 160.18 158.438 163.339 163.162 163.338 
162.887 161.987 160.988 160.002 158.662 156.824 162.179 162.13 162.228 
162.058 161.452 160.561 159.658 158.565 157.002 155.174 161.637 163.387 
161.7 163.377 161.57 164.908 163.123 161.207 164.766 165.861 162.41 
160.452 164.317 165.597 166.158 161.308 159.534 163.243 164.881 165.764 
166.048 160.328 158.689 162.052 163.634 164.726 165.336 165.591 159.307 
157.673 161.047 162.573 163.553 164.126 164.578 164.718 157.908 156.461 
159.647 161.382 162.584 163.172 163.573 163.836 163.682 156.541 155.429 
157.987 159.672 161.152 162.103 162.71 163.118 163.124 162.702 146.721 
147.938 147.857 149.227 149.032 149.27 150.54 150.228 150.682 150.807 
151.813 151.364 152.091 152.385 152.736 152.987 152.381 153.442 153.905 
154.427 154.727 154.068 153.332 154.714 155.335 155.976 156.361 156.388 
155.069 154.211 155.888 156.637 157.39 157.91 158.054 158.029 155.888 
154.911 156.903 157.758 158.586 159.335 159.726 159.85 159.872 145.289 
146.34 144.939 145.913 144.522 147.393 145.442 144.056 146.888 148.508 
145.006 143.72 146.443 148 149.683 144.759 143.625 146.097 147.635 
149.196 150.789 144.671 143.583 145.85 147.319 148.86 150.308 151.797 
144.519 143.412 145.633 146.966 148.492 149.955 151.351 152.777 144.281 
143.211 145.396 146.63 148.025 149.492 150.956 152.359 153.654 144.109 
143.113 145.203 146.397 147.641 148.937 150.373 151.888 153.233 154.345 