# vtk DataFile Version 4.0
vtk output
ASCII
DATASET POLYDATA
POINTS 1002 float
-82.9139 -88.1795 71.5611 -83.0208 -87.2942 70.4989 -82.5763 -87.1479 71.1069 
-82.4209 -88.1267 72.2242 -82.1291 -87.0091 71.8369 -82.7637 -89.0756 72.8277 
-81.9384 -88.0539 73.0349 -81.5474 -86.9778 72.624 -82.2377 -89.0729 73.634 
-82.7177 -89.8764 74.4771 -81.4209 -88.0304 74.0132 -80.8344 -87.1036 73.4571 
-81.8377 -89.0328 74.6973 -82.2272 -89.9916 75.4845 -82.7542 -90.8639 76.3336 
-80.9206 -88.1027 75.1172 -80.2325 -87.2906 74.403 -81.5037 -89.0518 75.968 
-81.8504 -90.1633 76.73 -82.2325 -91.2509 77.3992 -82.5995 -92.261 78.0099 
-80.494 -88.2714 76.2414 -79.8323 -87.4732 75.5326 -81.0877 -89.2552 77.1268 
-81.3849 -90.4782 77.9582 -81.659 -91.7551 78.5708 -81.9937 -92.881 79.0724 
-82.2266 -93.8871 79.5536 -80.0552 -88.5688 77.4108 -79.4988 -87.7346 76.8181 
-80.5114 -89.678 78.0749 -80.68 -91.02 78.8107 -80.9037 -92.3745 79.5516 
-81.3267 -93.5965 80.1926 -81.6493 -94.68 80.7153 -81.8292 -95.6836 81.1382 
-79.5978 -89.0282 78.6024 -79.2041 -88.1184 78.0482 -79.8907 -90.2443 79.1362 
-79.9451 -91.7116 79.6314 -80.0931 -93.1224 80.2688 -80.5744 -94.3683 81.0767 
-81.0537 -95.5357 81.8362 -81.3021 -96.6355 82.3665 -81.4394 -97.6209 82.689 
-79.2281 -89.5858 79.6216 -78.9945 -88.5451 79.091 -79.3892 -90.8788 80.2467 
-79.4428 -92.397 80.8037 -79.5726 -93.8752 81.2915 -79.9403 -95.1684 81.893 
-80.3764 -96.3811 82.6734 -80.6996 -97.5515 83.4176 -80.9256 -98.6001 83.9145 
-81.0906 -99.4797 84.1908 -78.9769 -90.1413 80.525 -78.852 -88.9708 80.0913 
-79.0379 -91.5208 81.1552 -79.1224 -93.0521 81.9111 -79.3366 -94.5375 82.5974 
-79.6337 -95.878 83.0994 -79.863 -97.1727 83.5961 -80.0533 -98.4435 84.2513 
-80.3242 -99.5804 84.9034 -80.6259 -100.527 85.3537 -80.8569 -101.302 85.6106 
-82.7512 -86.403 69.7883 -82.2924 -86.1372 70.5051 -82.3842 -85.5736 69.0695 
-81.8989 -85.211 69.9044 -82.0052 -84.7422 68.4406 -81.8274 -85.9161 71.363 
-81.4927 -84.3138 69.3379 -81.686 -83.7362 67.959 -81.4322 -84.8943 70.885 
-81.1607 -85.9098 72.2059 -81.0758 -83.2957 68.8789 -81.4592 -82.5668 67.7587 
-80.9042 -83.9467 70.3383 -80.7402 -84.8397 71.8002 -80.3701 -86.1306 72.9989 
-80.7086 -82.1628 68.7282 -81.3666 -81.4205 67.9342 -80.1754 -82.9925 69.8209 
-80.0334 -83.8478 71.2703 -79.9586 -85.0378 72.601 -79.761 -86.3991 73.9057 
-80.5238 -81.0646 68.9371 -81.3421 -80.4963 68.2981 -79.66 -81.9313 69.646 
-79.1632 -82.8928 70.7827 -79.2711 -83.9328 72.1719 -79.4003 -85.3023 73.5548 
-79.3651 -86.6547 75.1211 -80.45 -80.2091 69.4429 -81.3642 -79.9252 68.8476 
-79.6333 -80.8276 69.9927 -78.9141 -81.816 70.7764 -78.6889 -82.845 71.9647 
-78.9373 -84.0854 73.3923 -79.0585 -85.6126 74.9438 -79.0674 -86.9727 76.5569 
-80.5077 -79.6828 70.3729 -81.5972 -79.6348 69.8222 -79.7758 -79.955 70.8865 
-79.2556 -80.7431 71.4644 -78.8171 -81.7907 72.332 -78.715 -82.9422 73.5882 
-78.8163 -84.4239 75.0828 -78.816 -85.9978 76.5694 -78.8586 -87.3258 77.9078 
-80.8679 -79.3941 71.646 -82.0772 -79.4656 71.0989 -79.996 -79.4588 72.1644 
-79.5667 -79.9943 72.6623 -79.2401 -80.9563 73.2754 -78.9206 -82.0702 74.2125 
-78.7677 -83.3988 75.5067 -78.6771 -84.9301 76.8751 -78.6262 -86.3691 78.0627 
-78.7207 -87.6621 79.0981 -81.8989 -79.3157 72.7326 -80.7306 -79.2657 73.3513 
-81.8193 -79.4422 74.1588 -80.8059 -79.6277 74.8554 -81.8527 -80.0932 75.329 
-79.9527 -79.5739 73.9174 -81.0339 -80.514 76.1562 -81.9742 -80.9949 76.6556 
-80.0531 -80.251 75.532 -79.5499 -80.3905 74.4716 -81.3058 -81.5241 77.6326 
-82.067 -81.8466 78.3185 -80.2875 -81.2692 77.0314 -79.547 -81.2274 76.2568 
-79.2173 -81.4989 75.1925 -81.4562 -82.551 79.3192 -82.0798 -82.8308 79.963 
-80.5922 -82.3548 78.6475 -79.7148 -82.271 78.0164 -79.187 -82.4081 77.2035 
-78.917 -82.7788 76.277 -81.5097 -83.7218 80.9267 -82.1243 -84.0119 81.3693 
-80.788 -83.5598 80.3162 -79.9686 -83.4372 79.7708 -79.2743 -83.4609 79.1865 
-78.84 -83.732 78.398 -78.6593 -84.2281 77.5713 -81.6131 -84.9516 82.3676 
-82.2133 -85.238 82.6015 -80.9423 -84.854 81.8874 -80.169 -84.7608 81.392 
-79.4051 -84.6236 80.9732 -78.7884 -84.6978 80.3568 -78.4666 -85.0737 79.5281 
-78.4665 -85.6714 78.7152 -81.7122 -86.2516 83.6375 -82.2593 -86.5293 83.6971 
-81.119 -86.1774 83.3192 -80.4011 -86.1667 82.8507 -79.6303 -85.9984 82.4655 
-78.9282 -85.8749 82.0091 -78.4466 -86.0563 81.297 -78.3344 -86.495 80.4632 
-78.4964 -87.0742 79.6849 -81.7347 -87.6596 84.7164 -82.2788 -87.8628 84.6815 
-81.2003 -87.5915 84.5537 -80.5822 -87.6104 84.1808 -79.9064 -87.5067 83.7926 
-79.2814 -87.3728 83.3889 -78.7698 -87.4716 82.835 -78.49 -87.7584 82.1657 
-78.5041 -88.1175 81.417 -78.6719 -88.5425 80.6625 -78.798 -90.2898 81.5204 
-78.7123 -90.0111 82.3564 -78.6999 -92.0521 83.3339 -78.7066 -89.8171 83.1544 
-78.7729 -91.9666 84.3331 -78.6739 -94.1627 85.3337 -78.8763 -89.5941 83.7122 
-78.9784 -91.9312 84.9057 -78.9085 -94.1733 86.1505 -78.8052 -96.4894 87.1048 
-79.1972 -89.245 84.2556 -79.2499 -91.6395 85.2562 -79.2305 -94.0858 86.401 
-79.1334 -96.5062 87.5248 -79.0057 -99.0536 88.4233 -79.5856 -89.0526 84.8086 
-79.4593 -91.1174 85.8929 -79.466 -93.6409 86.8879 -79.4388 -96.3244 87.7752 
-79.3089 -99.1047 88.6658 -79.1205 -102.028 89.4268 -80.1082 -89.1287 85.1864 
-79.7411 -90.8771 86.4197 -79.6346 -93.1202 87.6481 -79.6316 -95.8675 88.5215 
-79.5157 -98.8633 89.1569 -79.3132 -102.056 89.7816 -79.066 -105.362 90.2557 
-80.7413 -89.1646 85.4833 -80.301 -90.8905 86.5753 -80.0688 -92.8958 87.844 
-79.9486 -95.4084 88.9737 -79.7127 -98.328 89.7601 -79.4507 -101.589 90.3287 
-79.2214 -105.162 90.7008 -78.8262 -108.538 90.7991 -81.3464 -89.1109 85.6971 
-80.9772 -90.7743 86.703 -80.7715 -92.6758 87.7616 -80.6134 -94.9904 88.8002 
-80.2014 -97.6835 89.7334 -79.7053 -100.733 90.558 -79.4229 -104.312 91.1053 
-79.0957 -108.046 91.1999 -78.4435 -111.075 90.9772 -81.9426 -89.1258 85.7196 
-81.613 -90.5696 86.808 -81.4136 -92.268 87.8583 -81.3163 -94.4054 88.7654 
-80.9607 -96.9491 89.5358 -80.2884 -99.7631 90.3501 -79.7713 -103.075 91.1378 
-79.4473 -106.896 91.4922 -78.8838 -110.449 91.3187 -78.0294 -112.956 90.9359 
-78.7951 -91.787 81.9938 -78.6314 -93.8428 83.8162 -78.8228 -93.4728 82.6843 
-78.6114 -96.1968 85.8317 -78.7277 -95.7261 84.4782 -79.0632 -95.1099 83.5971 
-78.7171 -98.7975 87.6596 -78.6888 -98.231 86.3981 -79.041 -97.3762 85.4072 
-79.4277 -96.5534 84.4304 -78.868 -101.862 89.0058 -78.7148 -101.25 88.0897 
-78.9275 -100.168 87.1525 -79.3546 -98.9883 86.2759 -79.6213 -98.0213 84.962 
-78.9038 -105.517 89.9109 -78.7967 -105.117 89.2583 -78.914 -104.053 88.4906 
-79.2646 -102.526 87.8524 -79.5069 -100.982 86.8298 -79.662 -99.6169 85.4194 
-78.5958 -109.1 90.4658 -78.518 -109.14 89.9347 -78.6746 -108.524 89.2395 
-79.0874 -107.141 88.7471 -79.4634 -105.181 88.2097 -79.6061 -103.021 87.1727 
-79.8399 -101.072 85.9608 -77.9934 -111.791 90.6504 -77.7402 -112.07 90.1971 
-77.7921 -111.925 89.5229 -78.2213 -111.163 88.9473 -78.8949 -109.606 88.6464 
-79.4314 -107.277 88.1956 -79.7842 -104.576 87.3972 -80.1822 -102.212 86.428 
-77.4085 -113.593 90.5973 -76.9656 -113.816 90.1626 -76.7994 -113.818 89.4909 
-77.007 -113.524 88.783 -77.6752 -112.704 88.4149 -78.5834 -111.12 88.2791 
-79.3873 -108.612 88.0285 -80.0178 -105.645 87.5328 -80.5058 -103.092 86.721 
-77.2517 -114.922 90.6377 -76.676 -115.212 90.212 -76.8357 -116.602 90.3581 
-76.4982 -116.993 89.6731 -77.0036 -118.261 89.8952 -76.3434 -115.3 89.4928 
-76.7457 -119.257 88.7713 -77.4054 -119.646 88.9516 -76.3078 -117.434 88.5051 
-76.2723 -115.279 88.5546 -77.0227 -120.934 87.568 -77.8964 -120.244 87.8094 
-76.5423 -119.993 87.3252 -76.3669 -117.408 87.4752 -76.6477 -114.863 87.9496 
-77.7271 -121.012 86.5982 -78.772 -120.113 87.09 -76.9329 -121.05 86.3134 
-76.7904 -119.348 86.5983 -76.9487 -116.534 87.2626 -77.5397 -113.891 87.8709 
-79.0683 -120.109 86.1126 -79.8242 -119.451 86.8318 -77.9811 -120.139 85.6672 
-77.4 -119.443 85.9683 -77.5109 -117.653 86.8086 -77.9178 -115.062 87.5222 
-78.6372 -112.031 87.9394 -80.2375 -118.941 85.9426 -80.6261 -118.169 86.786 
-79.3561 -118.861 85.3286 -78.3323 -118.362 85.4665 -78.0104 -117.466 86.3345 
-78.3984 -115.592 87.252 -79.028 -112.606 87.7773 -79.6513 -109.043 87.8894 
-80.8752 -117.344 86.1357 -81.2555 -116.322 86.9824 -80.2908 -117.675 85.4415 
-79.3364 -117.386 85.3644 -78.6298 -116.672 86.0043 -78.8142 -115.177 86.9358 
-79.514 -112.498 87.6362 -80.1066 -109.056 87.835 -80.4208 -105.74 87.4868 
-81.3939 -115.158 86.7057 -81.9162 -114.144 87.3796 -80.8978 -115.85 86.0962 
-80.2305 -115.984 85.905 -79.5304 -115.42 86.2274 -79.4329 -114 86.8392 
-80.0236 -111.604 87.4249 -80.6139 -108.556 87.6538 -80.8431 -105.568 87.323 
-80.8677 -103.14 86.5462 -78.2893 -113.25 91.1064 -77.6069 -115.467 90.8033 
-78.7812 -113.049 91.2785 -78.3379 -115.332 90.9666 -79.5912 -112.103 91.4154 
-77.3799 -117.174 90.5211 -79.4688 -114.204 91.1703 -80.6002 -110.515 91.5059 
-78.3357 -116.832 90.6009 -77.7207 -118.323 89.9535 -80.6158 -112.369 91.3628 
-81.4716 -108.638 91.4882 -79.5599 -115.483 90.805 -78.6975 -117.509 89.9132 
-78.24 -118.868 88.922 -81.4333 -110.226 91.2885 -82.1967 -106.581 91.302 
-80.6143 -113.496 90.9874 -79.7168 -116.05 90.1465 -79.094 -117.666 88.99 
-78.8137 -118.996 87.9775 -82.2344 -107.766 91.0224 -83.043 -104.341 90.9601 
-81.5047 -111.025 90.852 -80.7096 -113.968 90.3751 -79.9427 -116.081 89.4312 
-79.5155 -117.465 88.3771 -79.5291 -118.728 87.5852 -83.2355 -105.149 90.7713 
-83.9166 -102.179 90.392 -82.5788 -108.129 90.7323 -81.8886 -111.154 90.4134 
-81.1021 -113.78 89.8633 -80.4106 -115.44 89.0119 -80.1291 -116.667 88.1755 
-80.3089 -117.755 87.5068 -84.1225 -102.818 90.2886 -84.6096 -100.335 89.5741 
-83.654 -105.32 90.6473 -83.1286 -107.986 90.5228 -82.4686 -110.784 90.1605 
-81.7471 -112.928 89.5929 -81.196 -114.243 88.8099 -81.0309 -115.332 88.1175 
-81.1496 -116.149 87.5546 -84.7951 -100.93 89.4567 -85.219 -98.8022 88.7167 
-84.4491 -103.037 90.1222 -84.0898 -105.16 90.3839 -83.598 -107.6 90.2733 
[...]
CELL_DATA 2000
SCALARS Distance double
LOOKUP_TABLE default
138.908 138.906 139.257 139.989 138.959 139.3 140.061 140.4 141.211 
139.073 139.411 140.256 140.566 141.453 141.76 142.705 139.31 139.623 
140.599 140.895 141.9 142.149 143.165 143.414 144.406 139.717 139.981 
141.038 141.343 142.432 142.695 143.754 143.975 144.99 145.172 146.111 
140.293 140.488 141.533 141.818 142.889 143.198 144.254 144.546 145.594 
145.816 146.818 146.93 147.865 140.993 141.129 142.146 142.355 143.394 
143.643 144.688 144.989 146.088 146.399 147.511 147.707 148.743 148.789 
149.736 141.718 141.84 142.852 143.022 144.102 144.266 145.367 145.54 
146.685 146.932 148.115 148.383 149.513 149.677 150.69 150.704 151.61 
142.444 142.554 143.563 143.741 144.871 145.063 146.259 146.4 147.596 
147.708 148.888 149.049 150.204 150.401 151.489 151.614 152.599 152.581 
153.465 138.206 137.113 137.822 138.173 136.021 136.716 137.065 137.813 
138.205 134.952 135.628 135.96 136.703 137.097 137.851 138.267 133.909 
134.542 134.833 135.576 135.959 136.737 137.152 137.929 138.421 133.035 
133.52 133.701 134.382 134.701 135.535 135.969 136.808 137.31 138.148 
138.773 132.457 132.741 132.796 133.272 133.47 134.219 134.646 135.561 
136.14 137.05 137.719 138.604 139.353 132.212 132.286 132.302 132.528 
132.681 133.147 133.551 134.3 134.963 135.887 136.687 137.608 138.429 
139.29 140.095 132.422 132.239 132.282 132.269 132.495 132.68 133.128 
133.532 134.224 134.905 135.812 136.669 137.613 138.453 139.309 140.089 
140.866 133.109 132.706 132.764 132.522 132.804 132.788 133.311 133.464 
134.161 134.516 135.407 136.023 137.02 137.753 138.663 139.378 140.169 
140.876 141.619 133.622 134.367 133.714 133.259 135.34 134.594 134.205 
133.521 133.309 136.589 135.76 135.473 134.663 134.495 133.824 133.842 
138.051 137.186 136.979 136.095 135.964 135.173 135.194 134.534 134.699 
139.593 138.75 138.625 137.719 137.63 136.759 136.804 136.03 136.221 
135.551 135.904 141.145 140.343 140.305 139.429 139.404 138.511 138.58 
137.744 137.94 137.191 137.525 136.908 137.408 142.679 141.928 141.968 
141.147 141.186 140.319 140.394 139.548 139.689 138.916 139.153 138.51 
138.891 138.406 138.927 144.163 143.475 143.592 142.836 142.942 142.114 
142.207 141.354 141.464 140.644 140.815 140.096 140.395 139.833 140.275 
139.854 140.38 145.583 144.957 145.135 144.457 144.622 143.863 143.995 
143.167 143.305 142.455 142.664 141.844 142.175 141.445 141.897 141.29 
141.808 141.32 141.852 142.861 142.955 143.476 144.711 143.155 143.694 
145.09 145.586 147.009 143.434 143.963 145.431 146.02 147.532 148.025 
149.508 143.826 144.266 145.668 146.305 147.812 148.449 149.934 150.5 
151.982 144.363 144.674 145.95 146.504 147.962 148.633 150.125 150.789 
152.294 152.923 154.463 144.985 145.214 146.374 146.798 148.187 148.796 
150.317 150.975 152.515 153.172 154.755 155.419 157.035 145.566 145.797 
146.87 147.217 148.492 149.038 150.502 151.172 152.68 153.367 154.896 
155.629 157.233 157.976 159.512 146.034 146.3 147.314 147.653 148.812 
149.303 150.63 151.283 152.666 153.393 154.779 155.596 157.088 157.993 
159.511 160.288 161.531 146.429 146.702 147.666 148.012 149.08 149.541 
150.741 151.34 152.599 153.272 154.514 155.295 156.64 157.617 159.089 
160.079 161.39 162.065 162.953 143.222 145.027 144.153 144.385 147.279 
146.172 146.37 145.457 145.767 149.822 148.608 148.787 147.655 147.959 
146.983 147.284 152.424 151.254 151.472 150.216 150.463 149.336 149.626 
148.55 148.721 155.047 153.947 154.307 153 153.236 151.952 152.207 
151.007 151.163 149.954 150.009 157.747 156.713 157.303 155.995 156.385 
154.93 155.257 153.815 154.03 152.577 152.606 151.246 151.281 160.238 
159.414 160.104 159.025 159.532 158.196 158.599 157.11 157.398 155.758 
155.798 154.098 154.014 152.556 152.568 162.093 161.577 162.09 161.441 
161.779 160.948 161.177 160.162 160.333 159.057 159.042 157.424 157.194 
155.484 155.267 153.81 153.715 163.301 162.977 163.221 162.85 162.915 
162.493 162.454 161.969 161.928 161.307 161.234 160.246 159.989 158.557 
158.169 156.592 156.263 154.845 154.613 163.933 164.675 164.109 163.722 
165.573 164.866 164.329 163.75 163.315 166.537 165.9 165.35 164.485 
163.847 163.255 162.817 167.008 166.764 166.43 165.651 164.925 163.985 
163.334 162.758 162.354 166.965 166.974 166.761 166.46 165.876 165.12 
164.348 163.504 162.931 162.359 161.859 166.819 166.822 166.461 166.39 
165.854 165.641 165.003 164.467 163.792 163.101 162.44 161.772 160.89 
166.478 166.574 166.102 165.984 165.34 165.282 164.764 164.699 164.168 
163.796 163.029 162.364 161.327 160.522 159.235 165.757 166.029 165.627 
165.604 164.992 164.847 164.329 164.306 163.885 163.813 163.122 162.71 
161.589 160.87 159.499 158.666 157.275 164.806 165.163 164.841 165.032 
164.569 164.552 164.035 163.957 163.435 163.387 162.683 162.491 161.396 
160.905 159.509 158.818 157.399 156.686 155.444 164.085 164.499 164.573 
164.986 164.614 164.96 165.556 165.508 165.904 164.332 164.967 165.707 
165.95 166.369 166.371 166.677 163.68 164.548 165.382 165.905 166.321 
166.543 166.705 166.838 166.941 162.676 163.712 164.57 165.37 165.848 
166.276 166.384 166.594 166.619 166.834 166.893 161.444 162.524 163.31 
164.319 164.879 165.607 165.812 166.163 166.146 166.393 166.465 166.749 
166.817 160.172 161.209 161.914 162.932 163.516 164.452 164.83 165.462 
165.507 165.841 165.784 166.161 166.203 166.575 166.479 158.895 159.906 
160.583 161.552 162.107 163.051 163.517 164.359 164.588 165.104 165.037 
165.383 165.3 165.742 165.677 166.041 165.768 157.662 158.609 159.257 
160.218 160.733 161.652 162.07 162.99 163.319 164.075 164.155 164.601 
164.499 164.851 164.769 165.152 164.996 165.247 164.878 146.954 148.205 
147.77 148.21 149.525 149.082 149.548 149.11 149.635 150.8 150.41 
150.912 150.493 151.086 150.666 151.311 152.015 151.693 152.269 151.878 
152.545 152.172 152.91 152.469 153.158 153.194 152.955 153.652 153.289 
154.02 153.667 154.486 154.103 154.856 154.352 155.035 154.263 154.153 
154.983 154.722 155.525 155.187 156.059 155.711 156.585 156.114 156.915 
156.339 157.164 155.184 155.187 156.133 156.04 156.976 156.723 157.67 
157.344 158.345 157.933 158.921 158.373 159.343 158.708 159.657 156.036 
156.091 157.124 157.163 158.244 158.15 159.223 158.995 160.086 159.761 
160.853 160.425 161.457 160.922 161.838 161.206 161.95 156.876 156.957 
158.026 158.139 159.27 159.338 160.471 160.45 161.573 161.437 162.507 
162.249 163.205 162.842 163.616 163.146 163.684 163.119 163.446 146.432 
146.056 146.7 147.657 145.661 146.308 147.264 147.969 148.959 145.225 
145.866 146.762 147.512 148.51 149.253 150.208 144.807 145.408 146.262 
146.975 147.936 148.722 149.691 150.435 151.349 144.516 145.031 145.89 
146.52 147.47 148.174 149.126 149.858 150.777 151.524 152.429 144.39 
144.813 145.633 146.194 147.124 147.77 148.705 149.358 150.26 150.947 
151.847 152.581 153.457 144.323 144.711 145.449 145.947 146.791 147.407 
148.295 148.947 149.839 150.5 151.404 152.063 152.925 153.584 154.386 
144.218 144.603 145.293 145.75 146.526 147.068 147.885 148.496 149.35 
150.041 150.965 151.667 152.546 153.145 153.903 154.485 155.228 144.138 
144.482 145.152 145.578 146.34 146.831 147.621 148.133 148.914 149.522 
150.396 151.148 152.066 152.762 153.534 154.076 154.747 155.317 156.045 
144.341 145.019 144.886 145.353 145.698 145.604 146.126 146.007 146.569 
146.312 146.286 146.898 146.832 147.456 147.311 147.872 146.999 146.958 
147.665 147.632 148.319 148.209 148.788 148.596 149.126 147.849 147.766 
148.528 148.468 149.179 149.063 149.659 149.494 150.072 149.896 150.559 
148.745 148.671 149.436 149.376 150.07 149.933 150.534 150.376 151.034 
150.896 151.656 151.495 152.25 149.635 149.567 150.322 150.264 150.943 
150.809 151.432 151.294 152.047 151.945 152.802 152.651 153.422 153.182 
153.771 150.55 150.477 151.235 151.148 151.817 151.671 152.314 152.209 
153.042 153.018 153.968 153.853 154.643 154.363 154.922 154.569 155.004 
151.412 151.375 152.1 152.033 152.667 152.538 153.157 153.079 153.902 
153.969 154.951 154.974 155.8 155.584 156.15 155.768 156.229 155.817 
156.288 152.075 153.117 152.675 152.737 154.072 153.658 153.777 153.298 
153.295 155.397 154.796 155.037 154.431 154.543 153.886 153.877 157.086 
156.409 156.766 155.994 156.222 155.377 155.497 154.654 154.757 158.671 
158.129 158.547 157.86 158.124 157.258 157.374 156.458 156.576 155.718 
155.845 160.228 159.696 160.191 159.583 159.908 159.136 159.217 158.322 
158.313 157.484 157.502 156.723 156.655 161.891 161.355 161.897 161.264 
161.657 160.909 161.062 160.143 160.081 159.147 159.058 158.242 158.106 
157.298 157.009 163.293 162.934 163.396 162.895 163.213 162.608 162.798 
162.001 161.979 160.98 160.832 159.845 159.685 158.762 158.492 157.547 
157.147 164.273 164.083 164.437 164.11 164.286 163.89 164.021 163.534 
163.566 162.809 162.642 161.665 161.421 160.43 160.158 159.144 158.757 
157.705 157.257 151.835 151.847 152.235 152.917 151.853 152.267 152.972 
153.235 153.848 151.798 152.263 153 153.296 153.931 154.221 155.045 
151.574 152.113 152.832 153.256 153.934 154.314 155.174 155.615 156.644 
151.126 151.736 152.405 152.964 153.692 154.239 155.147 155.701 156.713 
157.215 158.199 150.527 151.17 151.851 152.478 153.263 153.919 154.868 
155.549 156.554 157.165 158.14 158.673 159.676 149.955 150.563 151.287 
151.932 152.758 153.463 154.406 155.155 156.132 156.851 157.825 158.504 
159.553 160.192 161.28 149.524 150.059 150.766 151.386 152.185 152.912 
153.805 154.594 155.518 156.307 157.268 158.067 159.137 159.944 161.063 
161.76 162.732 149.176 149.663 150.301 150.87 151.599 152.294 153.129 
153.913 154.795 155.61 156.561 157.43 158.524 159.432 160.581 161.407 
162.414 163.042 163.795 151.033 149.814 150.576 150.99 148.867 149.387 
149.621 150.463 150.906 148.088 148.527 148.517 149.091 149.362 150.336 
150.817 146.927 147.633 147.623 148.069 148.1 148.82 149.234 150.259 
150.702 145.38 146.279 146.433 147.072 147.07 147.653 147.894 148.756 
149.214 150.135 150.398 143.952 144.77 144.981 145.746 145.837 146.522 
146.69 147.478 147.816 148.688 148.954 149.743 149.828 142.67 143.437 
143.645 144.37 144.515 145.217 145.399 146.187 146.449 147.289 147.486 
148.279 148.372 149.133 149.224 141.355 142.136 142.384 143.126 143.326 
143.99 144.173 144.879 145.101 145.883 146.055 146.818 146.917 147.678 
147.823 148.608 148.805 140.139 140.842 141.119 141.88 142.143 142.847 
143.027 143.688 143.84 144.547 144.7 145.426 145.555 146.283 146.462 
147.24 147.498 148.277 148.51 139.618 139.152 139.765 140.564 138.615 
139.285 140.088 140.753 141.571 137.986 138.693 139.468 140.194 140.985 
141.698 142.449 137.48 138.083 138.841 139.519 140.28 141.02 141.797 
142.513 143.243 137.347 137.741 138.523 139.019 139.819 140.401 141.232 
141.887 142.714 143.354 144.104 137.531 137.781 138.55 138.898 139.734 
140.158 141.044 141.535 142.432 142.956 143.784 144.293 145.018 137.826 
138.023 138.734 139.011 139.797 140.172 141.035 141.483 142.372 142.831 
143.673 144.103 144.873 145.279 145.995 138.19 138.337 139.029 139.229 
139.967 140.257 141.069 141.471 142.33 142.783 143.611 144.043 144.821 
145.222 145.978 146.345 147.069 138.655 138.748 139.448 139.582 140.321 
140.506 141.302 141.574 142.425 142.777 143.618 143.998 144.789 145.18 
145.945 146.342 147.077 147.437 148.098 139.172 140.26 139.791 139.975 
141.5 140.959 141.183 140.667 140.88 142.977 142.321 142.578 141.981 
142.234 141.65 141.887 144.619 143.898 144.126 143.461 143.723 143.093 
143.348 142.727 142.992 146.273 145.548 145.745 145.043 145.264 144.609 
144.866 144.235 144.485 143.863 144.136 147.988 147.216 147.44 146.695 
146.924 146.195 146.443 145.769 146.029 145.376 145.61 144.992 145.264 
149.818 148.994 149.228 148.447 148.71 147.933 148.177 147.416 147.654 
146.941 147.158 146.481 146.703 146.105 146.394 151.672 150.847 151.043 
150.247 150.47 149.714 149.93 149.17 149.355 148.6 148.763 148.035 
148.199 147.545 147.773 147.22 147.506 153.526 152.703 152.888 152.051 
152.21 151.424 151.581 150.844 150.996 150.268 150.403 149.654 149.765 
149.038 149.178 148.567 148.781 148.273 148.505 149.167 149.487 149.64 
150.288 149.962 150.056 150.795 150.875 151.618 150.63 150.686 151.529 
151.543 152.366 152.361 153.179 151.295 151.41 152.315 152.376 153.247 
153.222 154.053 154.014 154.847 151.886 152.049 152.988 153.137 154.071 
154.119 155.02 154.978 155.892 155.8 156.699 152.539 152.692 153.749 
153.882 154.997 155.037 156.17 156.103 157.266 157.096 158.209 157.903 
158.86 153.292 153.465 154.724 154.855 156.232 156.242 157.647 157.534 
158.947 158.742 160.048 159.681 160.725 160.206 161.021 154.055 154.302 
155.709 155.959 157.513 157.656 159.183 159.165 160.578 160.47 161.717 
161.495 162.454 162.047 162.733 162.224 162.792 154.714 155.059 156.501 
156.904 158.491 158.852 160.357 160.548 161.778 161.826 162.779 162.777 
163.51 163.408 163.949 163.682 164.109 163.729 164.102 133.218 132.475 
132.868 132.986 132.195 132.276 132.254 132.571 132.653 132.375 132.187 
132.042 132.028 131.99 132.297 132.538 132.878 132.502 132.305 132.033 
131.922 131.893 132.06 132.398 132.885 133.708 133.163 132.988 132.507 
132.423 132.11 132.25 132.229 132.675 132.993 133.701 134.769 134.158 
134.065 133.441 133.428 132.891 133.066 132.737 133.165 133.124 133.833 
134.091 134.987 135.863 135.286 135.285 134.675 134.728 134.105 134.283 
133.78 134.193 133.906 134.582 134.55 135.431 135.609 136.509 136.954 
136.399 136.445 135.908 136.012 135.441 135.599 135.063 135.406 135.039 
135.646 135.476 136.267 136.254 137.072 137.149 137.858 138.048 137.506 
137.554 137.049 137.174 136.673 136.833 136.33 136.593 136.206 136.698 
136.506 137.191 137.121 137.839 137.804 138.445 138.424 138.982 133.813 
133.576 134.054 134.693 133.259 133.768 134.475 134.922 135.512 133.175 
133.541 134.316 134.741 135.443 135.768 136.385 133.508 133.658 134.431 
134.723 135.491 135.786 136.5 136.774 137.511 134.262 134.177 134.888 
134.991 135.731 135.938 136.695 136.961 137.753 138.029 138.81 135.456 
135.121 135.758 135.609 136.296 136.314 137.08 137.254 138.105 138.339 
139.158 139.354 140.069 136.841 136.41 136.938 136.62 137.221 137.046 
137.765 137.781 138.632 138.782 139.629 139.771 140.491 140.594 141.232 
138.059 137.682 138.084 137.77 138.261 138.029 138.632 138.543 139.265 
139.338 140.105 140.245 140.947 141.051 141.665 141.744 142.325 139.114 
138.756 139.105 138.81 139.262 139.026 139.57 139.407 140.001 139.948 
140.569 140.653 141.3 141.454 142.081 142.189 142.757 142.815 143.337 
134.091 134.993 134.633 134.816 135.78 135.491 135.7 135.385 135.682 
136.639 136.289 136.548 136.247 136.592 136.34 136.828 137.796 137.313 
137.63 137.214 137.618 137.296 137.81 137.594 138.22 139.086 138.59 
138.929 138.452 138.858 138.439 138.929 138.622 139.218 139.032 139.706 
140.294 139.855 140.18 139.75 140.125 139.71 140.153 139.791 140.339 
140.073 140.724 140.543 141.232 141.443 141.03 141.369 140.957 141.327 
140.925 141.357 141 141.539 141.24 141.874 141.623 142.291 142.081 
142.746 142.535 142.164 142.53 142.146 142.526 142.118 142.526 142.166 
142.682 142.411 143.026 142.787 143.418 143.173 143.789 143.571 144.192 
143.516 143.205 143.562 143.258 143.633 143.285 143.653 143.302 143.742 
143.481 144.031 143.847 144.439 144.249 144.829 144.612 145.192 144.989 
145.586 150.752 149.909 150.073 149.592 149.044 149.244 148.895 149.079 
148.78 148.156 148.387 148.069 148.377 148.131 148.351 147.999 147.233 
147.466 147.087 147.459 147.12 147.484 146.985 147.28 146.663 146.39 
146.54 146.096 146.409 146.005 146.343 145.76 146.038 145.335 145.665 
145.031 145.739 145.776 145.25 145.419 144.946 145.218 144.683 144.887 
144.239 144.41 143.822 144.114 143.644 145.167 145.182 144.572 144.603 
143.966 144.139 143.563 143.834 143.258 143.459 142.858 143.05 142.521 
142.824 142.364 144.525 144.579 143.958 143.936 143.202 143.201 142.505 
142.693 142.114 142.408 141.815 142.064 141.437 141.701 141.138 141.497 
141.022 143.861 143.912 143.33 143.32 142.639 142.543 141.831 141.794 
141.178 141.31 140.754 140.965 140.375 140.597 140.028 140.303 139.832 
140.191 139.821 
POINT_DATA 1002
SCALARS Distance double
LOOKUP_TABLE default
139.611 138.581 138.534 139.627 138.558 140.733 139.718 138.605 140.842 
142.063 139.914 138.704 141.141 142.38 143.677 140.255 138.974 141.633 
142.932 144.188 145.357 140.718 139.463 142.144 143.524 144.81 145.977 
147.003 141.288 140.133 142.596 143.931 145.311 146.666 147.815 148.783 
141.969 140.879 143.184 144.408 145.73 147.227 148.646 149.774 150.657 
142.675 141.604 143.918 145.211 146.488 147.842 149.282 150.616 151.685 
152.493 143.385 142.346 144.634 146.066 147.506 148.799 150.027 151.309 
152.548 153.569 154.336 137.505 137.429 136.407 136.314 135.346 137.456 
135.227 134.288 136.343 137.497 134.114 133.329 135.162 136.376 137.588 
133.12 132.66 133.874 135.071 136.462 137.884 132.447 132.27 132.825 
133.716 135.153 136.809 138.467 132.147 132.223 132.318 132.906 134.034 
135.704 137.551 139.274 132.354 132.697 132.349 132.822 133.662 134.981 
136.757 138.537 140.118 133.076 133.561 132.869 133.201 133.916 134.91 
136.336 137.972 139.483 140.909 134.235 133.837 135.033 134.917 136.074 
133.864 136.291 137.405 135.212 134.414 137.866 138.884 136.785 135.897 
135.277 139.504 140.394 138.509 137.599 136.921 136.472 141.135 141.911 
140.279 139.429 138.717 138.188 137.921 142.743 143.387 142.03 141.254 
140.503 139.85 139.426 139.331 144.298 144.806 143.738 143.06 142.309 
141.583 141.017 140.747 140.751 145.771 146.176 145.339 144.793 144.134 
143.476 142.936 142.574 142.375 142.302 143.938 144.19 146.01 144.522 
146.564 148.459 144.796 146.979 149.057 151.012 145.068 147.145 149.316 
151.434 153.507 145.481 147.303 149.443 151.622 153.833 156.058 146.031 
147.613 149.65 151.866 154.067 156.375 158.684 146.57 148.012 149.855 
152.006 154.176 156.455 158.881 160.983 146.993 148.381 150.046 151.994 
154.005 156.165 158.654 161.011 162.609 147.344 148.664 150.198 151.984 
153.824 155.723 158.041 160.585 162.587 163.673 145.139 147.373 146.604 
149.999 148.994 148.283 152.758 151.663 150.737 149.864 155.583 154.588 
153.463 152.426 151.205 158.511 157.826 156.75 155.565 154.107 152.513 
161.062 160.756 160.031 159.032 157.614 155.684 153.853 162.7 162.52 
162.074 161.442 160.543 158.988 156.924 155.034 163.631 163.339 162.894 
162.402 161.95 161.223 159.773 157.826 155.939 164.5 164.201 165.327 
165.075 166.322 163.717 166.31 166.986 164.671 163.161 167.005 167.039 
165.981 164.132 162.718 166.883 166.979 166.397 165.253 163.67 162.416 
166.611 166.87 165.893 165.277 164.487 163.228 161.69 166.246 166.321 
165.453 164.681 164.341 163.684 162.188 160.119 165.523 165.431 165.116 
164.412 163.9 163.424 162.274 160.324 158.068 164.542 164.452 164.464 
164.133 163.567 162.85 161.795 160.14 158.077 156.06 164.092 165.135 
164.283 165.473 164.102 166.068 165.343 163.57 166.317 166.728 164.749 
162.738 166.068 166.589 166.805 163.666 161.641 165.309 166.179 166.393 
166.666 162.283 160.422 163.996 165.344 165.924 166.127 166.608 160.938 
159.166 162.535 164.032 165.129 165.479 165.754 166.252 159.624 157.901 
161.195 162.603 163.934 164.717 164.926 165.229 165.559 158.31 156.781 
159.843 161.17 162.45 163.589 164.172 164.41 164.679 164.762 147.345 
148.624 148.649 149.978 149.951 150.047 151.306 151.147 151.459 151.756 
152.632 152.272 152.877 153.306 153.674 153.967 153.347 154.363 154.825 
155.336 155.567 155.147 154.299 155.839 156.38 156.98 157.449 157.739 
156.12 155.137 157.139 157.958 158.685 159.384 159.947 160.359 157.024 
155.957 158.239 159.37 160.359 161.232 161.963 162.48 162.694 145.778 
146.979 145.413 146.536 145.036 148.28 146.031 144.611 147.724 149.529 
145.586 144.228 147.174 148.915 150.633 145.284 144.04 146.803 148.436 
150.031 151.672 145.12 144.014 146.498 148.074 149.61 151.143 152.73 
145.003 143.956 146.227 147.653 149.162 150.751 152.321 153.728 144.854 
143.847 146.024 147.331 148.678 150.216 151.933 153.39 154.596 144.747 