# vtk DataFile Version 4.0
vtk output
ASCII
DATASET POLYDATA
POINTS 1002 float
-83.0674 -80.5516 72.7146 -83.0931 -79.9199 71.6061 -82.3692 -79.9025 72.195 
-82.3151 -80.5703 73.4008 -81.7647 -79.7486 73.0151 -82.9549 -81.3531 73.9502 
-81.7169 -80.4799 74.2605 -81.2584 -79.4666 73.9649 -82.2073 -81.4497 74.7179 
-82.7739 -82.4437 75.2974 -81.2412 -80.3964 75.3121 -80.6025 -79.4515 75.0349 
-81.658 -81.5354 75.658 -82.0492 -82.6713 76.1234 -82.5177 -83.7374 76.6946 
-80.6434 -80.6726 76.6351 -79.9399 -79.9465 76.396 -81.2312 -81.7238 76.9144 
-81.5256 -82.9285 77.2502 -81.8321 -84.0637 77.6929 -82.233 -85.1229 78.2434 
-80.0921 -81.235 78.0808 -79.8252 -80.4923 77.893 -80.6435 -82.1091 78.3749 
-81.1048 -83.2254 78.6994 -81.3894 -84.4125 79.0878 -81.744 -85.5534 79.5887 
-82.1666 -86.6623 80.1416 -79.9676 -81.6375 79.3861 -80.1155 -80.6914 79.2396 
-80.0872 -82.5394 79.708 -80.6123 -83.5718 80.1398 -81.1324 -84.818 80.6073 
-81.5161 -86.0877 81.1485 -81.9306 -87.2433 81.7019 -82.3099 -88.3246 82.1437 
-79.996 -81.9303 80.6906 -80.097 -80.8323 80.5582 -79.9076 -82.9949 80.9801 
-80.2807 -84.0597 81.4728 -80.9338 -85.3432 82.0609 -81.3904 -86.7719 82.6436 
-81.7271 -87.9983 83.2001 -82.0716 -89.0263 83.6228 -82.2802 -90.0326 83.843 
-79.7848 -82.3968 82.1134 -79.7264 -81.2232 81.9314 -79.8858 -83.596 82.3726 
-80.2349 -84.7594 82.829 -80.7772 -86.0432 83.4781 -81.1576 -87.5228 84.1046 
-81.377 -88.8709 84.5838 -81.6631 -89.9057 84.9601 -81.9047 -90.8708 85.2005 
-81.9629 -91.8778 85.284 -79.5323 -82.9556 83.3941 -79.516 -81.7821 83.1371 
-79.7685 -84.1895 83.6658 -80.1846 -85.4503 84.0587 -80.5706 -86.7921 84.6685 
-80.7466 -88.2508 85.356 -80.846 -89.6615 85.8476 -81.1084 -90.8305 86.1482 
-81.4362 -91.8655 86.4011 -81.598 -92.9341 86.5818 -81.6132 -93.9499 86.6472 
-82.616 -79.2509 70.8638 -81.9252 -79.0962 71.6025 -82.16 -78.403 70.2166 
-81.526 -78.0194 71.1364 -81.7935 -77.4262 69.6894 -81.3984 -78.7555 72.5831 
-81.1572 -76.8678 70.7097 -81.5386 -76.3555 69.2732 -80.9869 -77.5906 72.1455 
-80.7902 -78.47 73.5385 -80.8101 -75.7813 70.399 -81.4053 -75.1138 69.1707 
-80.4759 -76.4895 71.6287 -80.2562 -77.4703 72.9717 -79.9661 -78.6759 74.6273 
-80.6101 -74.6119 70.5156 -81.3938 -73.8348 69.4811 -79.9861 -75.3968 71.3978 
-79.7482 -76.3442 72.4718 -79.5534 -77.7145 74.2087 -79.5364 -79.2248 76.2221 
-80.7195 -73.4257 70.9863 -81.5719 -72.8571 69.9715 -79.869 -74.179 71.7583 
-79.4506 -74.9849 72.5498 -79.3808 -76.2504 74.0912 -79.4557 -77.998 76.1801 
-79.8271 -79.5428 77.9488 -81.1402 -72.5685 71.5323 -82.0284 -72.2976 70.572 
-80.269 -73.1637 72.3894 -79.6552 -73.835 73.187 -79.4397 -74.7647 74.4738 
-79.4276 -76.3934 76.3424 -79.6942 -78.2109 78.0919 -80.0748 -79.6092 79.4074 
-81.7348 -72.1165 72.2353 -82.6788 -72.0263 71.4168 -80.9019 -72.6037 73.0697 
-80.28 -73.2924 73.9461 -79.9022 -74.0083 75.1151 -79.6068 -75.2049 76.6766 
-79.4795 -76.9221 78.2606 -79.6734 -78.4903 79.591 -79.8358 -79.8158 80.7852 
-82.3776 -71.8859 73.1852 -83.3307 -71.9027 72.4572 -81.5162 -72.2984 73.9252 
-80.9165 -73.0644 74.7427 -80.569 -73.827 75.7813 -80.1991 -74.7132 77.0791 
-79.7362 -76.0712 78.444 -79.5133 -77.579 79.7215 -79.574 -78.9161 80.9471 
-79.5989 -80.2925 82.1182 -83.3488 -71.7712 74.0478 -82.3721 -71.9332 74.8216 
-83.3814 -71.8365 75.7141 -82.4219 -72.1874 76.6146 -83.4556 -72.203 77.4339 
-81.5673 -72.619 75.6047 -82.5953 -72.6132 78.4366 -83.6039 -72.7723 79.1773 
-81.726 -72.9862 77.4417 -81.1511 -73.5354 76.4857 -82.8775 -73.3407 80.085 
-83.8412 -73.5825 80.7116 -81.9879 -73.5073 79.1724 -81.4279 -73.9952 78.2593 
-80.9065 -74.4433 77.5651 -83.1436 -74.5376 81.5302 -84.0748 -74.7924 82.0009 
-82.2517 -74.5483 80.7643 -81.6649 -74.7932 79.9203 -81.1886 -75.2051 79.2374 
-80.4563 -75.6303 78.7753 -83.3233 -75.9047 83.0167 -84.2386 -76.1211 83.3788 
-82.4582 -75.8716 82.4487 -81.8426 -76.0025 81.7054 -81.396 -76.2813 80.9309 
-80.7769 -76.6591 80.3637 -79.9737 -77.0821 80.0119 -83.5047 -77.1329 84.5438 
-84.3996 -77.2801 84.834 -82.6667 -77.0582 84.1489 -82.0372 -77.1312 83.6136 
-81.5532 -77.422 82.8164 -81.1024 -77.7809 82.0369 -80.4764 -78.1026 81.5796 
-79.8094 -78.461 81.2882 -83.7448 -78.3921 85.8286 -84.5788 -78.4597 86.0253 
-82.9121 -78.3391 85.5418 -82.2704 -78.3155 85.229 -81.7266 -78.5367 84.6394 
-81.305 -78.9619 83.7884 -80.9774 -79.3046 83.1403 -80.4314 -79.5614 82.8166 
-79.8197 -79.884 82.5296 -83.9845 -79.783 86.8286 -84.7182 -79.7999 86.9026 
-83.1605 -79.8337 86.6296 -82.4926 -79.8495 86.4391 -81.9437 -79.9588 86.1113 
-81.4615 -80.3172 85.4559 -81.2152 -80.7269 84.716 -80.9769 -80.9796 84.219 
-80.3949 -81.181 83.9092 -79.7645 -81.4552 83.5766 -79.5764 -83.0995 84.3204 
-80.0495 -82.8747 84.7595 -79.7517 -84.3898 85.5309 -80.724 -82.7567 85.1947 
-80.1882 -84.3382 86.1353 -79.7098 -85.8911 87.0773 -81.123 -82.6587 85.7075 
-80.6765 -84.4488 86.7862 -79.9878 -86.0556 87.8563 -79.5089 -88.1387 88.8294 
-81.3191 -82.3709 86.339 -81.0515 -84.4394 87.3831 -80.4396 -86.2878 88.4299 
-79.8831 -88.2899 89.3588 -79.6679 -90.8174 90.1174 -81.7173 -81.9449 86.9726 
-81.5201 -84.1147 87.8886 -81.0814 -86.2606 88.7859 -80.5307 -88.372 89.5812 
-80.2744 -90.6838 90.2762 -80.2247 -93.1975 90.9336 -82.234 -81.6509 87.3844 
-82.0528 -83.6712 88.3204 -81.7732 -85.9242 89.1314 -81.2703 -88.307 89.8671 
-80.9053 -90.6142 90.5519 -80.7909 -93.0416 91.2107 -80.7408 -95.7203 91.8432 
-82.8115 -81.4831 87.5752 -82.5297 -83.2923 88.6113 -82.2835 -85.4551 89.4881 
-81.8692 -88.0466 90.2559 -81.4091 -90.5648 91.051 -81.1696 -92.986 91.7631 
-81.0626 -95.811 92.3549 -81.0303 -99.0312 92.7467 -83.5966 -81.314 87.7097 
-83.1839 -82.9659 88.7486 -82.8044 -84.9714 89.6928 -82.3922 -87.5825 90.4801 
-81.9137 -90.2846 91.3403 -81.5414 -92.7503 92.1776 -81.322 -95.5822 92.8037 
-81.1868 -99.0363 93.1833 -81.1419 -102.606 93.2339 -84.4107 -81.2194 87.7678 
-84.015 -82.7467 88.7742 -83.5506 -84.5718 89.7316 -83.0595 -87.0279 90.5071 
-82.5675 -89.7415 91.3227 -82.1291 -92.2038 92.2007 -81.7844 -94.9141 92.9075 
-81.5165 -98.3836 93.3784 -81.3239 -102.171 93.5411 -81.1765 -105.589 93.3528 
-79.6 -84.3166 84.6569 -79.6842 -85.7193 86.0021 -79.9129 -85.688 85.0295 
-79.4576 -87.8129 87.7194 -79.7349 -87.5768 86.4912 -80.1911 -87.2914 85.5424 
-79.298 -90.7884 89.4957 -79.2943 -90.3983 88.2443 -79.6464 -89.7235 87.0361 
-80.2009 -88.9742 86.2298 -79.6761 -93.5434 90.7276 -79.3615 -93.452 89.9489 
-79.3854 -92.644 88.6819 -79.6908 -91.5042 87.6456 -80.2308 -90.5045 86.8564 
-80.3288 -95.9765 91.5887 -79.99 -95.9795 91.1575 -79.9222 -95.3872 90.255 
-80.0144 -94.2273 89.1308 -80.1998 -92.9753 88.1683 -80.5836 -91.8722 87.2354 
-80.8839 -99.3387 92.3706 -80.6952 -99.2281 91.9025 -80.6174 -98.6472 91.2841 
-80.6906 -97.5513 90.4758 -80.7534 -96.1304 89.5347 -80.8202 -94.6558 88.551 
-81.0493 -93.2136 87.5169 -81.1464 -103.451 92.8452 -81.1521 -103.722 92.289 
-81.0792 -103.342 91.6568 -81.0338 -102.264 91.1134 -81.0787 -100.564 90.5711 
-81.1219 -98.5518 89.8143 -81.1648 -96.5009 88.8663 -81.3145 -94.5741 87.7843 
-81.0757 -106.953 92.9561 -81.0841 -107.846 92.4163 -81.0652 -108.063 91.724 
-81.0132 -107.407 91.1167 -81.077 -105.768 90.8119 -81.2303 -103.383 90.5247 
-81.3105 -100.715 89.938 -81.3227 -98.1102 89.0634 -81.3998 -95.8018 87.938 
-81.0091 -108.902 93.0878 -80.6761 -110.362 92.6309 -80.6389 -111.578 92.8254 
-79.9595 -112.839 92.4612 -80.3103 -113.647 92.6253 -80.4679 -111.256 92.0123 
-79.5365 -114.692 92.1366 -80.3814 -115.533 91.9696 -79.5226 -113.418 91.6423 
-80.4165 -111.339 91.1667 -79.8612 -116.622 90.8073 -80.7368 -116.99 90.5376 
-79.0919 -115.033 90.7323 -79.6491 -113.22 90.4974 -80.6677 -110.341 90.5761 
-80.4741 -117.854 88.9049 -81.1024 -116.998 89.2054 -79.4566 -116.797 89.0426 
-79.3977 -114.66 89.4714 -80.4678 -112.018 89.9974 -81.1673 -108.157 90.4742 
-81.0625 -117.021 87.9498 -81.7124 -115.493 88.7497 -80.1528 -117.28 87.7927 
-79.6678 -115.837 88.4621 -80.4508 -113.2 89.3918 -81.4056 -109.557 90.0811 
-81.521 -105.124 90.3159 -81.9197 -114.865 88.0003 -82.6975 -113.627 88.6879 
-81.0818 -115.641 87.6896 -80.3784 -115.322 88.0812 -80.5668 -113.509 88.8836 
-81.4596 -110.199 89.588 -81.826 -105.994 89.9403 -81.5571 -101.781 89.7649 
-82.9363 -112.81 88.1081 -83.6504 -111.878 88.5193 -82.1787 -113.352 87.9463 
-81.4692 -113.286 88.1232 -81.1301 -112.191 88.5369 -81.4746 -109.621 89.0315 
-81.9095 -105.892 89.4153 -81.7965 -102.022 89.3884 -81.4811 -98.6315 88.8228 
-83.7077 -110.698 88.1055 -84.2551 -109.732 88.4034 -83.0688 -111.137 88.0741 
-82.4873 -110.899 88.2369 -82.0219 -109.859 88.4245 -81.8549 -107.798 88.6505 
-81.9874 -104.763 88.9178 -81.9734 -101.454 88.912 -81.6956 -98.5271 88.3902 
-81.524 -96.0561 87.5304 -81.4503 -105.979 93.59 -81.4061 -109.095 93.3259 
-81.9323 -105.923 93.7975 -82.0067 -108.72 93.4705 -82.3347 -105.368 93.7441 
-81.2453 -111.524 92.8799 -82.4638 -107.668 93.363 -82.6915 -104.142 93.4296 
-81.9258 -110.714 92.6891 -81.0504 -113.466 92.2486 -83.0059 -105.988 93.2782 
-83.4232 -102.305 93.2938 -82.5482 -109.152 92.5884 -81.6409 -112.225 91.6722 
-80.9499 -115.023 91.3015 -83.8265 -103.886 93.3866 -84.34 -100.188 93.2383 
-83.4444 -107.182 92.9466 -82.5537 -110.287 91.7628 -81.4475 -113.244 90.8534 
-81.0556 -115.608 90.2982 -84.4151 -101.484 93.0677 -84.9493 -98.0325 92.6616 
-84.1336 -104.797 93.108 -83.7509 -107.965 92.3859 -82.7422 -110.979 91.2446 
-81.8202 -113.336 90.5024 -81.614 -114.852 89.7789 -84.8076 -98.9878 92.1954 
-85.4732 -95.9476 91.721 -84.2821 -102.036 92.4616 -84.1678 -105.048 92.3808 
-83.9543 -108.185 91.7471 -83.3073 -110.865 90.9773 -82.7779 -112.545 90.3684 
-82.6584 -113.402 89.5806 -85.5363 -96.61 91.3951 -86.2049 -94.017 90.8958 
-84.7457 -99.3339 91.6675 -84.2687 -101.992 91.78 -84.2568 -104.821 91.664 
-84.2324 -107.715 91.2244 -83.9735 -109.954 90.6749 -83.7653 -111.248 90.0599 
-83.7068 -111.829 89.2669 -86.4811 -94.4256 90.7335 -86.9419 -92.3169 90.1255 
-85.8125 -96.8276 91.1328 -85.1036 -99.2625 91.3075 -84.7069 -101.665 91.3726 
[...]
CELL_DATA 2000
SCALARS Distance double
LOOKUP_TABLE default
134.984 134.906 135.273 135.989 134.933 135.259 135.989 136.352 137.154 
135.091 135.372 136.166 136.456 137.293 137.627 138.5 135.553 135.696 
136.611 136.8 137.711 137.913 138.821 139.073 139.985 136.41 136.369 
137.299 137.399 138.375 138.498 139.464 139.585 140.582 140.73 141.767 
137.428 137.31 138.104 138.135 139.083 139.224 140.272 140.39 141.497 
141.569 142.727 142.777 143.918 138.366 138.273 139.016 138.965 139.899 
139.986 141.148 141.294 142.552 142.637 143.875 143.892 145.054 145.029 
146.06 139.238 139.186 140.035 139.957 140.969 140.961 142.206 142.305 
143.661 143.761 145.03 145.059 146.181 146.158 147.151 147.078 147.952 
140.124 140.094 141.018 141.01 142.062 142.099 143.302 143.417 144.694 
144.839 146.032 146.124 147.174 147.202 148.168 148.14 149.055 148.94 
149.794 134.31 133.225 133.91 134.217 132.118 132.809 133.143 133.866 
134.228 131.051 131.701 132.005 132.757 133.128 133.878 134.301 130.096 
130.656 130.884 131.583 131.925 132.719 133.178 134.011 134.658 129.375 
129.79 129.952 130.485 130.753 131.494 132.017 132.908 133.707 134.624 
135.561 129.008 129.238 129.4 129.699 129.905 130.425 130.961 131.812 
132.761 133.765 134.874 135.752 136.72 129.076 129.089 129.317 129.399 
129.663 129.87 130.397 130.969 131.942 132.882 134.075 135.062 136.107 
136.885 137.686 129.585 129.384 129.665 129.584 129.99 129.986 130.579 
130.784 131.69 132.277 133.413 134.271 135.341 136.189 137.043 137.76 
138.492 130.397 130.061 130.332 130.136 130.609 130.543 131.211 131.251 
132.093 132.327 133.317 133.816 134.832 135.499 136.417 137.112 137.933 
138.596 139.373 130.976 131.894 131.221 130.912 133.029 132.261 132.007 
131.332 131.225 134.368 133.528 133.316 132.564 132.525 131.861 131.914 
135.836 134.966 134.769 133.959 133.939 133.257 133.382 132.703 132.843 
137.394 136.517 136.381 135.502 135.489 134.735 134.898 134.226 134.433 
133.729 133.968 139.027 138.159 138.12 137.218 137.259 136.409 136.589 
135.83 136.085 135.36 135.62 134.933 135.298 140.66 139.838 139.85 
139 139.088 138.25 138.429 137.618 137.867 137.092 137.379 136.633 
136.964 136.316 136.768 142.207 141.461 141.504 140.715 140.827 140.051 
140.238 139.455 139.686 138.91 139.214 138.458 138.816 138.069 138.467 
137.813 138.284 143.641 142.98 143.077 142.347 142.496 141.764 141.991 
141.241 141.503 140.732 141.059 140.317 140.72 139.975 140.371 139.61 
139.995 139.322 139.748 140.717 141.051 141.348 142.299 141.505 141.8 
142.809 143.011 143.995 141.891 142.28 143.397 143.631 144.663 144.825 
145.983 142.211 142.641 143.848 144.216 145.333 145.546 146.666 146.942 
148.279 142.604 142.985 144.202 144.636 145.827 146.157 147.268 147.563 
148.771 149.211 150.569 143.035 143.387 144.549 144.983 146.185 146.596 
147.759 148.101 149.278 149.653 150.957 151.432 152.846 143.465 143.778 
144.865 145.284 146.437 146.903 148.1 148.544 149.77 150.163 151.454 
151.873 153.308 153.806 155.381 143.963 144.203 145.215 145.565 146.647 
147.1 148.27 148.804 150.048 150.57 151.826 152.318 153.661 154.233 
155.756 156.407 158.011 144.462 144.687 145.631 145.92 146.928 147.305 
148.407 148.919 150.125 150.719 151.926 152.51 153.726 154.386 155.767 
156.567 158.082 158.877 160.3 140.928 142.476 141.735 141.855 144.146 
143.339 143.525 142.782 142.996 146.206 145.199 145.421 144.553 144.867 
144.052 144.322 148.701 147.586 147.884 146.724 147.006 146.015 146.328 
145.448 145.706 151.131 150.196 150.643 149.446 149.678 148.398 148.575 
147.497 147.725 146.813 146.995 153.44 152.589 153.163 152.153 152.482 
151.205 151.318 149.969 150.081 148.915 149.069 148.061 148.149 156.084 
155.102 155.835 154.745 155.292 154.037 154.352 152.909 153.068 151.587 
151.704 150.352 150.426 149.23 149.222 158.87 157.968 158.895 157.74 
158.486 157.123 157.673 156.152 156.499 154.854 155.011 153.341 153.361 
151.797 151.72 150.34 150.201 161.174 160.611 161.579 160.763 161.54 
160.415 160.972 159.59 159.957 158.383 158.546 156.817 156.769 154.983 
154.781 153.083 152.8 151.3 151.007 162.491 164.249 163.32 162.973 
165.52 164.841 164.59 163.649 163.033 166.511 165.921 165.562 164.909 
164.404 163.468 162.533 167.218 166.788 166.243 165.607 164.988 164.438 
163.731 162.762 161.567 167.22 167.219 166.704 166.157 165.389 164.858 
164.254 163.678 162.781 161.639 160.192 166.445 166.822 166.487 166.37 
165.692 165.26 164.65 164.178 163.455 162.636 161.336 160.033 158.341 
165.487 165.871 165.616 165.855 165.372 165.326 164.711 164.468 163.672 
163.133 161.849 160.871 159.137 157.908 156.137 164.661 164.961 164.681 
164.95 164.535 164.718 164.083 164.122 163.171 162.964 161.577 160.998 
159.225 158.338 156.488 155.513 153.877 163.647 164.064 163.719 164.035 
163.55 163.78 163.047 163.168 162.088 162.053 160.609 160.338 158.612 
158.073 156.263 155.559 153.899 153.189 151.822 162.461 162.897 163.26 
164.217 162.987 163.565 164.51 164.799 165.509 162.488 163.372 164.274 
164.834 165.508 165.893 166.494 161.644 162.646 163.549 164.294 164.851 
165.506 166.064 166.667 167.113 160.768 161.775 162.756 163.529 164.11 
164.688 165.101 165.824 166.249 166.936 167.04 159.559 160.724 161.635 
162.66 163.337 164.013 164.415 164.925 165.259 165.861 166.061 166.553 
166.357 157.979 159.191 159.869 161.146 161.728 162.893 163.34 164.184 
164.489 165.054 165.252 165.657 165.644 165.851 165.554 156.539 157.548 
158.103 159.21 159.663 160.904 161.341 162.61 162.983 164.016 164.212 
164.884 164.879 165.235 165.03 165.143 164.774 155.377 156.225 156.767 
157.634 158.086 159.007 159.432 160.524 160.948 162.135 162.408 163.45 
163.456 164.215 163.985 164.446 164.039 164.255 163.724 144.968 146.073 
145.753 146.192 147.196 146.924 147.476 147.064 147.511 148.332 148.096 
148.763 148.414 148.977 148.485 149.005 149.489 149.263 150.03 149.765 
150.5 150.06 150.696 150.132 150.74 150.679 150.447 151.295 151.103 
152.017 151.678 152.453 151.911 152.545 151.938 152.529 151.852 151.65 
152.557 152.432 153.481 153.258 154.164 153.698 154.386 153.774 154.386 
153.748 154.361 152.931 152.806 153.765 153.717 154.86 154.749 155.774 
155.412 156.235 155.673 156.451 155.774 156.565 155.788 156.537 153.882 
153.853 154.86 154.897 156.109 156.12 157.267 157.033 158.01 157.573 
158.573 158.01 159.033 158.263 159.165 158.213 158.961 154.684 154.756 
155.761 155.894 157.101 157.278 158.522 158.501 159.58 159.325 160.381 
160.066 161.171 160.7 161.632 160.867 161.555 160.6 161.144 144.429 
143.851 144.565 145.424 143.257 143.941 144.776 145.546 146.467 142.841 
143.429 144.263 144.927 145.852 146.623 147.587 142.533 143.109 143.964 
144.531 145.422 146.08 147.064 147.802 148.772 142.139 142.765 143.62 
144.242 145.08 145.693 146.61 147.324 148.337 149.048 149.996 141.783 
142.334 143.16 143.819 144.651 145.289 146.112 146.819 147.795 148.6 
149.615 150.3 151.184 141.627 142.043 142.817 143.382 144.242 144.851 
145.661 146.283 147.153 147.957 148.972 149.826 150.758 151.431 152.225 
141.527 141.909 142.6 143.091 143.918 144.503 145.351 145.9 146.695 
147.326 148.212 149.055 149.986 150.837 151.641 152.356 153.092 141.35 
141.745 142.354 142.827 143.557 144.156 144.989 145.599 146.391 146.938 
147.696 148.34 149.151 149.955 150.749 151.585 152.318 153.11 153.828 
141.428 141.936 141.906 142.436 142.63 142.493 143.024 142.997 143.644 
143.483 143.266 143.767 143.661 144.333 144.342 145.088 144.44 144.175 
144.643 144.451 145.083 145.07 145.855 145.863 146.556 145.429 145.168 
145.601 145.341 145.902 145.836 146.629 146.66 147.43 147.318 147.911 
146.247 146.09 146.479 146.251 146.75 146.661 147.466 147.5 148.361 
148.259 148.915 148.679 149.275 146.839 146.77 147.15 147.016 147.528 
147.489 148.35 148.416 149.375 149.286 149.991 149.722 150.29 150.08 
150.75 147.433 147.338 147.79 147.671 148.289 148.279 149.23 149.338 
150.37 150.34 151.078 150.817 151.355 151.098 151.739 151.601 152.332 
148.155 148.027 148.579 148.438 149.164 149.134 150.12 150.225 151.24 
151.276 152.012 151.844 152.387 152.16 152.806 152.642 153.41 153.238 
153.942 148.758 149.915 149.323 149.273 151.08 150.577 150.699 149.987 
150.019 152.119 151.759 152.075 151.518 151.716 150.93 151.061 153.253 
152.866 153.293 152.862 153.15 152.561 152.691 151.976 152.051 154.809 
154.245 154.773 154.208 154.574 153.946 154.087 153.42 153.421 152.766 
152.692 156.781 156.083 156.721 155.974 156.471 155.636 155.92 154.998 
155.099 154.189 154.168 153.326 153.189 158.988 158.248 158.95 158.119 
158.668 157.767 158.145 157.134 157.327 156.214 156.263 155.127 155.063 
153.968 153.81 161.145 160.501 161.225 160.413 160.928 160.014 160.328 
159.362 159.465 158.443 158.371 157.305 157.142 156.036 155.818 154.689 
154.45 162.842 162.452 163.118 162.536 162.996 162.201 162.432 161.475 
161.456 160.414 160.177 159.157 158.835 157.886 157.561 156.6 156.255 
155.237 154.898 148.648 148.688 149.05 149.752 148.514 149.029 149.778 
150.139 150.804 148.136 148.782 149.622 150.103 150.775 151.115 151.75 
147.641 148.342 149.252 149.887 150.658 151.064 151.701 152.046 152.802 
147.138 147.811 148.685 149.426 150.285 150.881 151.609 152.022 152.798 
153.233 154.246 146.663 147.293 148.081 148.801 149.649 150.392 151.227 
151.847 152.693 153.231 154.269 154.85 156.109 146.179 146.795 147.54 
148.197 148.998 149.731 150.608 151.361 152.296 153.008 154.083 154.806 
156.107 156.829 158.239 145.714 146.3 147.035 147.66 148.442 149.124 
149.989 150.74 151.697 152.5 153.602 154.473 155.801 156.712 158.188 
158.994 160.387 145.337 145.861 146.572 147.161 147.928 148.585 149.42 
150.142 151.052 151.855 152.917 153.862 155.188 156.257 157.773 158.794 
160.239 161.026 162.176 147.948 146.812 147.581 147.919 145.638 146.372 
146.662 147.441 147.695 144.598 145.244 145.501 146.185 146.388 147.12 
147.293 143.471 144.186 144.405 145.074 145.242 145.872 145.987 146.676 
146.819 142.01 142.866 143.024 143.849 143.985 144.708 144.777 145.426 
145.504 146.208 146.357 140.453 141.291 141.415 142.293 142.4 143.266 
143.328 144.115 144.144 144.885 144.97 145.74 145.891 139.06 139.796 
139.929 140.71 140.814 141.626 141.697 142.532 142.583 143.407 143.466 
144.289 144.408 145.241 145.397 137.829 138.479 138.599 139.313 139.417 
140.137 140.196 140.944 141.011 141.813 141.909 142.737 142.868 143.716 
143.9 144.748 144.945 136.747 137.299 137.369 138.019 138.105 138.79 
138.837 139.524 139.572 140.311 140.426 141.221 141.391 142.21 142.429 
143.271 143.533 144.358 144.605 136.191 135.467 136.137 136.763 134.719 
135.423 136.092 136.763 137.455 134.093 134.768 135.507 136.127 136.811 
137.469 138.167 133.658 134.264 135.065 135.632 136.315 136.875 137.556 
138.191 138.909 133.441 133.911 134.703 135.25 135.978 136.475 137.16 
137.682 138.429 139.022 139.8 133.549 133.809 134.544 134.968 135.759 
136.221 136.978 137.419 138.187 138.676 139.492 140.024 140.821 133.939 
134.061 134.77 134.993 135.786 136.128 136.943 137.331 138.13 138.544 
139.368 139.828 140.665 141.126 141.916 134.404 134.518 135.225 135.356 
136.088 136.296 137.068 137.375 138.177 138.545 139.379 139.788 140.658 
141.076 141.924 142.304 143.078 134.837 134.97 135.66 135.802 136.479 
136.635 137.335 137.561 138.338 138.648 139.501 139.864 140.761 141.146 
142.031 142.391 143.193 143.501 144.202 135.299 136.301 135.9 136.128 
137.475 136.985 137.214 136.759 136.968 138.822 138.27 138.53 137.965 
138.179 137.638 137.849 140.255 139.664 139.968 139.386 139.654 139.013 
139.246 138.624 138.888 141.945 141.178 141.466 140.847 141.173 140.562 
140.855 140.18 140.455 139.785 140.088 144.025 143.062 143.304 142.476 
142.786 142.102 142.426 141.789 142.084 141.425 141.714 141.047 141.357 
146.119 145.194 145.402 144.474 144.729 143.869 144.14 143.381 143.644 
142.985 143.26 142.648 142.939 142.314 142.603 147.971 147.155 147.331 
146.503 146.717 145.87 146.081 145.211 145.384 144.576 144.777 144.12 
144.387 143.818 144.087 143.498 143.728 149.79 148.955 149.122 148.314 
148.505 147.736 147.937 147.127 147.261 146.387 146.49 145.688 145.866 
145.222 145.458 144.893 145.101 144.526 144.692 145.381 145.817 145.93 
146.598 146.245 146.395 147.143 147.233 147.974 146.752 146.894 147.75 
147.848 148.676 148.712 149.502 147.456 147.54 148.486 148.555 149.467 
149.49 150.354 150.33 151.157 148.266 148.359 149.383 149.427 150.446 
150.416 151.409 151.323 152.31 152.168 153.126 148.969 149.165 150.297 
150.422 151.621 151.599 152.825 152.664 153.93 153.662 154.909 154.514 
155.632 149.584 149.847 151.124 151.377 152.799 152.916 154.401 154.33 
155.861 155.62 157.126 156.68 158.007 157.349 158.424 150.27 150.541 
151.968 152.287 153.913 154.172 155.857 155.968 157.636 157.598 159.181 
158.947 160.296 159.798 160.838 160.118 160.912 151.001 151.315 152.844 
153.227 154.982 155.35 157.165 157.415 159.13 159.241 160.756 160.733 
161.945 161.742 162.613 162.208 162.828 162.253 162.726 130.367 129.499 
129.945 130.057 128.923 129.145 129.203 129.669 129.884 128.816 128.743 
128.717 128.955 129.198 129.66 130.059 129.191 128.86 128.764 128.694 
128.894 129.159 129.598 130.036 130.566 129.955 129.464 129.372 129.002 
129.092 129.053 129.409 129.689 130.206 130.646 131.253 130.937 130.401 
130.396 129.858 129.887 129.491 129.674 129.632 130.065 130.359 131.006 
131.46 132.218 131.992 131.46 131.525 130.997 131.067 130.495 130.577 
130.153 130.458 130.413 131.059 131.358 132.22 132.625 133.475 133.095 
132.553 132.621 132.125 132.229 131.699 131.799 131.249 131.492 131.125 
131.692 131.672 132.519 132.769 133.66 133.96 134.707 134.21 133.68 
133.742 133.225 133.309 132.809 132.927 132.447 132.701 132.296 132.782 
132.545 133.249 133.244 134.038 134.204 134.929 135.132 135.724 130.945 
130.656 131.121 131.781 130.463 130.848 131.507 131.975 132.671 130.601 
130.781 131.425 131.767 132.497 132.933 133.715 131.095 131.107 131.751 
131.889 132.638 132.903 133.719 134.094 134.905 131.786 131.707 132.35 
132.382 133.112 133.231 134.005 134.227 135.007 135.309 136.021 132.711 
132.486 133.07 133.012 133.678 133.747 134.452 134.593 135.307 135.499 
136.185 136.405 137.063 133.882 133.525 134.018 133.787 134.36 134.308 
134.973 135.048 135.757 135.875 136.566 136.684 137.351 137.51 138.208 
135.034 134.694 135.117 134.798 135.287 135.08 135.699 135.643 136.365 
136.404 137.126 137.171 137.832 137.895 138.551 138.704 139.388 135.997 
135.732 136.123 135.848 136.289 136.047 136.587 136.446 137.097 137.07 
137.763 137.78 138.419 138.428 139.016 139.077 139.676 139.834 140.424 
131.317 132.176 131.89 132.222 133.098 132.797 133.162 132.873 133.313 
134.147 133.791 134.194 133.864 134.32 134.058 134.614 135.303 134.924 
135.335 134.961 135.404 135.093 135.632 135.415 136.038 136.367 136.053 
136.467 136.128 136.547 136.198 136.671 136.416 137.013 136.851 137.525 
137.377 137.064 137.498 137.215 137.669 137.34 137.782 137.462 138 
137.805 138.492 138.374 139.11 138.524 138.14 138.589 138.259 138.751 
138.444 138.928 138.595 139.102 138.826 139.477 139.337 140.103 139.994 
140.733 139.713 139.345 139.779 139.407 139.855 139.529 140.023 139.729 
140.256 139.963 140.552 140.342 141.045 140.946 141.686 141.581 142.255 
140.728 140.462 140.866 140.551 140.93 140.607 141.045 140.786 141.33 
141.093 141.67 141.422 142.017 141.85 142.503 142.437 143.101 143.023 
143.637 147.673 146.974 147.085 146.592 146.371 146.411 145.871 145.941 
145.427 145.737 145.792 145.192 145.232 144.689 144.814 144.379 144.892 
145.044 144.413 144.507 143.926 144.069 143.588 143.773 143.278 143.918 
144.109 143.479 143.631 143.003 143.205 142.635 142.876 142.283 142.499 
141.838 142.984 143.155 142.542 142.675 141.999 142.175 141.509 141.767 
141.102 141.377 140.688 140.932 140.266 142.125 142.263 141.672 141.78 
141.108 141.194 140.489 140.627 139.953 140.17 139.532 139.775 139.167 
139.414 138.864 141.403 141.455 140.87 140.95 140.328 140.379 139.716 
139.74 139.082 139.157 138.563 138.72 138.179 138.382 137.879 138.115 
137.66 140.873 140.817 140.211 140.211 139.615 139.653 139.046 139.057 
138.414 138.415 137.79 137.862 137.31 137.469 136.988 137.195 136.771 
137 136.618 
POINT_DATA 1002
SCALARS Distance double
LOOKUP_TABLE default
135.661 134.717 134.577 135.583 134.56 136.726 135.636 134.605 136.749 
137.99 135.878 134.793 136.986 138.145 139.368 136.421 135.449 137.54 
138.611 139.711 140.881 137.241 136.544 138.241 139.35 140.438 141.604 
142.821 138.146 137.595 138.929 140.085 141.387 142.67 143.911 145.027 
139.082 138.424 139.823 140.947 142.415 143.858 145.1 146.154 147.005 
140.059 139.237 140.969 142.117 143.558 145.015 146.223 147.223 148.081 
148.776 140.992 140.149 142.007 143.213 144.579 145.949 147.139 148.165 
149.121 149.968 150.642 133.64 133.517 132.52 132.394 131.445 133.523 
131.269 130.444 132.357 133.509 130.26 129.589 131.128 132.295 133.736 
129.527 129.016 130.073 131.062 132.699 134.693 129.177 128.839 129.503 
130.144 131.684 133.909 136.024 129.257 129.139 129.523 129.969 131.087 
133.063 135.259 137.041 129.764 129.859 129.979 130.471 131.302 132.688 
134.495 136.272 137.819 130.567 130.773 130.67 131.183 131.984 132.997 
134.271 135.735 137.247 138.737 131.594 131.506 132.587 132.694 133.812 
131.826 134.082 135.215 133.177 132.578 135.606 136.689 134.623 134.02 
133.551 137.26 138.236 136.28 135.567 135.11 134.642 138.986 139.864 
138.117 137.385 136.819 136.331 135.892 140.669 141.451 139.9 139.252 
138.656 138.131 137.679 137.324 142.266 142.909 141.579 141.006 140.461 
139.947 139.567 139.207 138.871 143.769 144.249 143.201 142.711 142.26 
141.792 141.442 141.155 140.756 140.36 141.646 142.04 143.214 142.608 
143.784 144.991 143.081 144.507 145.705 147.259 143.403 145.066 146.431 
147.867 149.718 143.766 145.442 146.98 148.397 150.054 151.94 144.139 
145.745 147.372 148.93 150.513 152.308 154.296 144.488 145.972 147.598 
149.336 151.052 152.803 154.822 157.035 144.923 146.239 147.733 149.486 
151.329 153.105 155.083 157.375 159.638 145.373 146.602 147.946 149.547 
151.351 153.103 154.978 157.253 159.632 161.645 142.57 144.237 143.771 
146.375 145.656 145.178 149.134 148.153 147.22 146.595 151.742 151.061 
149.829 148.684 147.903 154.09 153.662 152.728 151.399 150.163 149.148 
156.933 156.493 155.727 154.606 153.204 151.751 150.384 159.957 159.814 
159.17 158.142 156.766 155.077 153.265 151.521 162.258 162.543 162.287 
161.486 160.267 158.628 156.619 154.472 152.418 163.583 164.133 165.039 
165.359 166.167 164.286 166.241 167.129 165.09 163.847 167.001 167.529 
165.495 164.386 162.971 167.136 166.999 165.984 164.699 163.69 161.701 
166.333 166.009 165.993 165.105 164.159 162.537 159.791 165.28 165.179 
165.243 164.886 164.153 162.724 160.306 157.331 164.432 164.378 164.338 
164.035 163.34 162.038 159.989 157.397 154.746 163.389 163.181 163.344 
162.977 162.143 160.801 159.011 156.854 154.546 152.41 162.171 164.041 
162.495 164.172 162.308 165.329 163.649 161.519 165.014 166.193 162.781 
160.646 164.23 165.324 166.688 161.912 159.762 163.59 164.526 165.47 
166.598 160.514 158.415 162.493 163.942 164.796 165.524 166.069 158.659 
156.875 160.444 162.259 163.833 164.856 165.388 165.485 157.124 155.629 
158.537 160.019 161.754 163.376 164.419 164.842 164.775 155.932 154.576 
157.255 158.477 159.811 161.291 162.57 163.394 163.73 163.621 145.285 
146.605 146.334 147.838 147.42 147.989 149.035 148.544 149.421 149.528 
150.214 149.713 150.847 151.24 151.329 151.423 150.907 152.257 152.955 
153.173 153.14 152.631 152.026 153.625 154.57 154.975 155.018 155.009 
153.769 153.007 154.904 156.061 156.704 157.043 157.311 157.392 154.792 
153.856 156.028 157.406 158.352 158.997 159.702 160.109 160.015 143.756 
144.657 143.143 144.027 142.605 145.651 143.658 142.264 145.109 146.803 
143.409 141.929 144.83 146.333 148.062 142.962 141.53 144.494 145.923 
147.581 149.373 142.515 141.309 144.007 145.458 146.961 148.85 150.626 
142.309 141.266 143.631 145.093 146.439 148.067 150.006 151.648 142.156 
141.163 143.339 144.789 146.175 147.478 149.099 150.862 152.421 141.918 
140.97 142.991 144.345 145.837 147.167 148.45 149.912 151.48 153.058 