# vtk DataFile Version 4.0
vtk output
ASCII
DATASET POLYDATA
POINTS 1002 float
-85.6824 -86.3759 73.8908 -85.852 -85.7099 72.8259 -85.4874 -85.4021 73.5246 
-85.2348 -86.1782 74.6158 -85.0176 -85.1127 74.2764 -85.4826 -87.1195 75.0235 
-84.8248 -85.9451 75.5256 -84.5217 -84.9492 75.1976 -85.0725 -86.9657 75.8912 
-85.3825 -87.8275 76.4102 -84.4853 -85.7894 76.6732 -84.0962 -84.887 76.3012 
-84.7829 -86.777 77.0567 -84.9628 -87.7605 77.4172 -85.1877 -88.7574 77.9238 
-83.9959 -85.8248 77.7504 -83.6012 -84.9182 77.2969 -84.3694 -86.7906 78.262 
-84.5639 -87.8071 78.6365 -84.6453 -88.9487 78.9285 -84.7644 -90.1584 79.3154 
-83.2343 -86.0907 78.562 -82.989 -85.1489 78.1909 -83.5487 -87.1276 79.0729 
-83.8944 -88.1846 79.643 -84.1557 -89.2785 80.0844 -84.2858 -90.493 80.4343 
-84.399 -91.6264 80.8039 -82.5919 -86.4824 79.5437 -82.499 -85.5513 79.346 
-82.7476 -87.5833 79.8411 -83.0443 -88.7475 80.3753 -83.5458 -89.7812 81.0601 
-83.9683 -90.8297 81.6974 -84.1228 -91.9313 82.187 -84.2408 -92.893 82.5564 
-82.2445 -86.8686 80.8517 -82.1798 -85.9935 80.6789 -82.4475 -87.9443 81.087 
-82.629 -89.182 81.4609 -82.9649 -90.2539 82.0343 -83.5039 -91.2308 82.7389 
-83.8494 -92.3362 83.4144 -83.9692 -93.4196 83.9199 -84.1289 -94.3452 84.2371 
-81.9251 -87.2452 82.0869 -81.9257 -86.4284 81.8563 -82.2578 -88.2452 82.4405 
-82.5799 -89.4902 82.8585 -82.7172 -90.6528 83.3005 -82.9641 -91.6662 83.7713 
-83.3084 -92.8466 84.2853 -83.5252 -94.115 84.8164 -83.7158 -95.1871 85.2771 
-83.9641 -96.0674 85.5875 -81.6404 -87.6392 83.1035 -81.7967 -86.8387 82.8498 
-81.8742 -88.5792 83.507 -82.3068 -89.7954 83.9945 -82.5428 -91.0844 84.4695 
-82.6109 -92.2178 84.8829 -82.7577 -93.4045 85.2156 -82.9513 -94.7536 85.5203 
-83.1559 -95.9736 85.8943 -83.4332 -96.9238 86.3097 -83.7255 -97.7202 86.6357 
-85.6912 -84.9405 72.1201 -85.3745 -84.4831 72.9128 -85.4349 -84.1377 71.4054 
-85.1586 -83.6358 72.2803 -85.1645 -83.2245 70.802 -84.8721 -84.1988 73.7614 
-84.86 -82.7633 71.7059 -84.9609 -82.0888 70.3276 -84.6861 -83.4274 73.3079 
-84.2883 -84.1199 74.814 -84.5626 -81.6417 71.2604 -84.8837 -80.8805 70.0648 
-84.4353 -82.5427 72.9378 -84.0715 -83.2991 74.5578 -83.762 -84.0184 75.9568 
-84.4608 -80.4168 71.1538 -85.0463 -79.9095 70.2124 -84.2142 -81.3259 72.688 
-83.8143 -82.2435 74.3125 -83.3867 -82.9951 75.6159 -83.2127 -83.952 76.8869 
-84.6653 -79.4873 71.5314 -85.4812 -79.2617 70.7447 -84.2444 -80.1344 72.7846 
-83.7243 -81.0901 74.2015 -83.0359 -81.8942 75.311 -82.7564 -82.8215 76.4662 
-82.7126 -84.1704 77.9311 -85.0768 -78.9752 72.259 -86.0657 -78.887 71.4668 
-84.4812 -79.3599 73.3295 -83.9856 -80.2161 74.5537 -83.1225 -81.0684 75.5006 
-82.4757 -81.8062 76.4368 -82.4462 -83.0289 77.8476 -82.4279 -84.6198 79.4007 
-85.6121 -78.7505 73.1709 -86.6529 -78.7533 72.2913 -84.7894 -78.9513 74.1776 
-84.3276 -79.625 75.3019 -83.6623 -80.5285 76.2647 -82.7496 -81.1958 77.1083 
-82.367 -82.0406 78.2716 -82.4286 -83.5204 79.6763 -82.2759 -85.1462 80.8905 
-86.2257 -78.6654 74.1545 -87.152 -78.7626 73.1852 -85.2454 -78.7335 75.1412 
-84.6149 -79.1954 76.145 -84.1809 -80.0473 77.0987 -83.4267 -80.8379 77.993 
-82.6795 -81.4997 79.0124 -82.4873 -82.5984 80.1754 -82.4683 -84.1738 81.23 
-82.1789 -85.672 82.0804 -87.1272 -78.6802 74.8104 -86.1709 -78.6055 75.8747 
-87.1606 -78.6466 76.4635 -86.1997 -78.7865 77.4265 -87.2255 -78.9969 77.7919 
-85.196 -78.8579 76.8258 -86.289 -79.4737 78.6259 -87.2657 -79.7986 78.9393 
-85.2658 -79.3768 78.2011 -84.6106 -79.5769 77.6946 -86.3661 -80.4155 79.9118 
-87.2631 -80.6471 80.3515 -85.4022 -80.3009 79.4437 -84.6827 -80.3074 79.0179 
-84.1058 -80.5189 78.6146 -86.3835 -81.2488 81.484 -87.2419 -81.4805 81.8521 
-85.4871 -81.181 81.0057 -84.7702 -81.2125 80.4727 -84.0812 -81.2657 80.0597 
-83.3103 -81.3308 79.6721 -86.3818 -82.2396 82.8999 -87.2182 -82.5818 83.0698 
-85.4881 -82.0224 82.6133 -84.8185 -82.0552 82.1248 -84.167 -82.2147 81.5544 
-83.366 -82.2581 81.1582 -82.7512 -82.2882 80.781 -86.4299 -83.4324 84.0992 
-87.2025 -83.7281 84.1853 -85.5145 -83.163 83.9155 -84.8475 -83.0999 83.5546 
-84.3449 -83.3017 82.9947 -83.6371 -83.4769 82.4758 -82.9669 -83.5156 82.1447 
-82.6295 -83.7038 81.7709 -86.5163 -84.4645 85.2835 -87.2027 -84.649 85.327 
-85.6213 -84.3416 85.1124 -84.9099 -84.3497 84.7769 -84.4928 -84.5413 84.2849 
-83.9437 -84.7286 83.7735 -83.2454 -84.775 83.3957 -82.7543 -84.8935 83.0594 
-82.4411 -85.2361 82.6048 -86.5785 -85.4115 86.322 -87.1986 -85.5424 86.3008 
-85.7333 -85.3845 86.224 -84.9845 -85.4928 85.9581 -84.5538 -85.7251 85.5342 
-84.1033 -85.9004 85.0718 -83.4333 -85.888 84.7018 -82.8612 -85.9083 84.3707 
-82.4605 -86.1659 83.9248 -82.077 -86.5358 83.3712 -81.693 -87.7815 84.0049 
-82.0924 -87.5282 84.6203 -81.8795 -88.9659 85.3268 -82.5 -87.1938 85.2166 
-82.3433 -88.8168 85.9572 -82.1861 -90.4854 86.6878 -82.8637 -87.0034 85.6624 
-82.6029 -88.5874 86.5021 -82.5256 -90.4605 87.2626 -82.2204 -92.1953 88.0536 
-83.4769 -87.0542 86.018 -82.8824 -88.4572 86.9757 -82.6047 -90.2936 87.8351 
-82.361 -92.143 88.6565 -82.0331 -94.0087 89.399 -84.1546 -87.0525 86.4119 
-83.5578 -88.4424 87.4017 -82.9754 -90.118 88.3973 -82.5167 -91.9499 89.3014 
-82.1857 -93.8825 90.0014 -82.0889 -96.2189 90.5214 -84.5904 -86.8484 86.8098 
-84.2025 -88.3375 87.737 -83.7295 -89.9753 88.7198 -83.1408 -91.8134 89.6781 
-82.5916 -93.798 90.4441 -82.341 -96.1297 90.9717 -82.3356 -98.778 91.3941 
-85.1525 -86.6526 87.0776 -84.6676 -88.1747 87.9588 -84.3209 -89.7914 88.8608 
-83.9154 -91.6716 89.689 -83.3381 -93.8244 90.4529 -82.8228 -96.0896 91.1552 
-82.5447 -98.5486 91.7504 -82.3864 -101.002 92.1695 -86.0127 -86.5868 87.1708 
-85.3855 -88.0866 88.0439 -84.888 -89.6124 88.9878 -84.5136 -91.3633 89.7673 
-84.0606 -93.6387 90.3655 -83.5115 -95.9812 91.0903 -82.9981 -98.1525 91.9122 
-82.5856 -100.424 92.5305 -82.3032 -102.646 92.7813 -86.804 -86.6216 87.138 
-86.2628 -88.049 87.9986 -85.6908 -89.472 89.0134 -85.1844 -90.9751 89.9335 
-84.6839 -93.1237 90.5032 -84.1653 -95.5879 91.0791 -83.6537 -97.6365 91.928 
-83.1178 -99.6002 92.7028 -82.6358 -101.887 93.0811 -82.3508 -104.123 93.0697 
-81.5813 -88.7443 84.3704 -81.7205 -90.1756 85.7676 -81.7897 -89.9371 84.8345 
-81.8518 -91.9338 87.2334 -81.702 -91.6556 86.224 -82.1045 -91.4055 85.3266 
-81.8054 -93.9607 88.7118 -81.6257 -93.7494 87.7419 -81.8571 -93.4263 86.7061 
-82.2953 -92.8781 85.8367 -81.8563 -96.3734 90.0125 -81.6428 -96.2473 89.2454 
-81.7555 -95.844 88.2459 -82.1202 -95.1352 87.2931 -82.422 -94.2195 86.2999 
-82.1468 -99.1529 91.018 -81.864 -99.1082 90.4426 -81.8004 -98.5828 89.6405 
-82.086 -97.6799 88.7769 -82.3544 -96.5836 87.777 -82.5578 -95.5828 86.5628 
-82.2844 -101.674 91.8183 -82.0744 -101.865 91.2966 -81.9172 -101.464 90.6282 
-82.0932 -100.53 89.927 -82.3609 -99.2217 89.0937 -82.4786 -97.9215 87.9113 
-82.7004 -96.8905 86.7167 -82.1787 -103.52 92.4094 -82.0545 -103.984 91.8472 
-81.962 -104.003 91.2169 -82.1324 -103.548 90.656 -82.4099 -102.441 90.0416 
-82.476 -100.784 89.0731 -82.5483 -99.1827 87.9032 -82.9147 -97.9661 86.9813 
-82.1574 -105.063 92.7108 -82.0175 -105.67 92.1145 -81.9301 -106.038 91.4538 
-82.1164 -106.193 90.9819 -82.4819 -105.807 90.6073 -82.5702 -104.419 89.9279 
-82.472 -102.282 88.9244 -82.6778 -100.293 88.0103 -83.2044 -98.8571 87.3258 
-82.4208 -106.505 92.8696 -82.2184 -107.347 92.3606 -82.576 -109.061 92.4139 
-82.2414 -110.106 91.8062 -82.5679 -111.493 91.8153 -81.9925 -108.009 91.6293 
-81.9954 -113.165 91.202 -82.4713 -113.758 91.1072 -81.857 -111.106 91.0773 
-81.9661 -108.568 91.0307 -81.9045 -115.752 90.5109 -82.8069 -115.63 90.3938 
-81.5706 -114.284 90.511 -81.9135 -111.609 90.5907 -82.3579 -108.791 90.7516 
-82.5695 -116.973 89.6245 -83.6172 -116.443 89.7213 -81.6981 -116.276 89.6758 
-81.7742 -114.134 89.9155 -82.3759 -111.327 90.2823 -82.6491 -108.081 90.3507 
-83.5809 -116.9 88.6155 -84.2972 -116.072 89.035 -82.4672 -116.81 88.5607 
-81.9003 -115.486 88.8994 -82.1876 -113.084 89.4209 -82.5135 -109.854 89.7313 
-82.5105 -105.966 89.5336 -84.2127 -116.09 87.9485 -84.6199 -114.918 88.5664 
-83.3157 -116.474 87.7436 -82.3837 -115.809 88.0669 -82.146 -113.878 88.6 
-82.3652 -110.769 89.0048 -82.4796 -106.909 89.063 -82.5456 -103.152 88.6911 
-84.4983 -114.45 87.9766 -84.8923 -113.106 88.5134 -83.896 -115.181 87.7453 
-83.0738 -114.955 87.9723 -82.5277 -113.451 88.3699 -82.5369 -110.652 88.6445 
-82.7277 -107.096 88.739 -82.8825 -103.619 88.564 -83.0602 -100.845 88.0524 
-84.8096 -111.935 88.3489 -85.332 -110.801 88.6172 -84.334 -112.705 88.2522 
-83.803 -112.719 88.4003 -83.2959 -111.631 88.6016 -83.1138 -109.393 88.6618 
-83.2292 -106.476 88.6012 -83.3789 -103.598 88.4135 -83.5255 -101.188 87.996 
-83.6662 -99.2765 87.3594 -82.7249 -104.353 93.192 -82.8283 -107.188 92.8843 
-83.3363 -104.416 93.1551 -83.4372 -107.423 92.8351 -84.0946 -104.065 93.1345 
-82.9744 -109.698 92.3889 -84.252 -106.776 92.9788 -84.8444 -103.213 93.1735 
-83.5848 -109.546 92.4119 -83.0438 -111.463 91.7169 -85.0409 -105.283 93.1093 
-85.4974 -102.2 93.0224 -84.3875 -108.456 92.6499 -83.7528 -110.777 91.7324 
-83.2232 -113.148 90.9233 -85.6385 -103.637 92.8353 -86.1688 -101.405 92.6641 
-84.988 -106.573 92.6262 -84.4138 -109.524 91.8953 -83.9754 -112.211 90.943 
-83.7057 -114.755 90.3368 -86.3159 -102.413 92.4485 -86.924 -100.63 92.2898 
-85.4451 -104.597 92.1969 -84.7874 -107.491 91.7547 -84.4427 -110.588 91.0801 
-84.2278 -113.283 90.4802 -84.2205 -115.163 89.9425 -87.1194 -101.306 92.106 
-87.5678 -99.4404 91.6996 -86.2192 -103.14 91.9097 -85.3618 -105.402 91.5246 
-84.9565 -108.141 91.1226 -84.688 -110.79 90.6539 -84.4984 -112.874 90.1985 
-84.5605 -114.244 89.5027 -87.7305 -99.8056 91.3575 -88.0126 -97.889 90.7085 
-87.1086 -101.759 91.5636 -86.3285 -103.821 91.4594 -85.8721 -105.997 91.2698 
-85.5793 -108.085 90.8853 -85.1646 -109.956 90.3764 -84.9292 -111.559 89.8454 
-84.9394 -112.679 89.1631 -88.145 -98.0709 90.1962 -88.4238 -96.4055 89.5939 
-87.7632 -99.9626 90.6945 -87.2308 -102.084 91.0292 -86.837 -104.233 91.2335 
[...]
CELL_DATA 2000
SCALARS Distance double
LOOKUP_TABLE default
140.762 140.721 141.042 141.649 140.762 141.048 141.717 141.996 142.674 
140.998 141.216 141.965 142.179 142.908 143.124 143.87 141.291 141.526 
142.314 142.535 143.309 143.468 144.217 144.403 145.192 141.521 141.772 
142.527 142.834 143.633 143.887 144.679 144.849 145.667 145.823 146.663 
141.943 142.049 142.794 143.021 143.853 144.158 145.059 145.325 146.253 
146.425 147.345 147.426 148.298 142.671 142.636 143.43 143.482 144.389 
144.533 145.522 145.743 146.772 147.016 148.029 148.187 149.129 149.158 
150.034 143.453 143.412 144.209 144.261 145.228 145.304 146.317 146.391 
147.39 147.55 148.564 148.799 149.782 149.954 150.863 150.915 151.772 
144.176 144.137 144.871 144.983 145.928 146.121 147.131 147.251 148.193 
148.259 149.189 149.334 150.295 150.507 151.427 151.611 152.457 152.567 
153.35 140.169 139.211 139.84 140.112 138.211 138.869 139.174 139.788 
140.11 137.186 137.87 138.246 138.892 139.257 139.86 140.293 136.176 
136.826 137.26 137.996 138.442 139.057 139.46 140.092 140.561 135.463 
135.884 136.289 137.014 137.517 138.209 138.564 139.2 139.578 140.306 
140.785 135.314 135.398 135.725 136.194 136.713 137.311 137.653 138.215 
138.507 139.234 139.755 140.578 141.208 135.659 135.495 135.76 135.906 
136.444 136.782 137.224 137.498 137.794 138.241 138.811 139.598 140.43 
141.217 141.987 136.305 136.013 136.24 136.151 136.667 136.814 137.404 
137.476 137.884 137.928 138.478 138.913 139.841 140.57 141.522 142.152 
142.876 137.096 136.77 136.982 136.743 137.16 137.172 137.79 137.874 
138.421 138.358 138.86 138.936 139.73 140.199 141.192 141.785 142.615 
143.076 143.692 137.629 138.483 137.876 137.556 139.429 138.787 138.489 
137.865 137.707 140.489 139.802 139.548 138.877 138.752 138.206 138.277 
141.712 140.972 140.783 140.046 139.952 139.329 139.39 138.883 138.942 
143.021 142.281 142.147 141.388 141.324 140.625 140.66 140.047 140.093 
139.494 139.475 144.342 143.624 143.522 142.785 142.748 142.047 142.087 
141.4 141.453 140.759 140.832 140.146 140.325 145.664 144.976 144.911 
144.175 144.162 143.472 143.565 142.881 142.99 142.249 142.379 141.655 
141.909 141.264 141.662 146.923 146.305 146.29 145.584 145.594 144.907 
145.043 144.391 144.571 143.854 144.004 143.27 143.487 142.85 143.173 
142.629 142.988 148.064 147.531 147.558 146.936 146.967 146.33 146.472 
145.872 146.074 145.425 145.564 144.86 144.998 144.36 144.585 144.035 
144.29 143.787 144.029 144.724 145.063 145.255 146.077 145.403 145.626 
146.521 146.779 147.786 145.798 145.978 146.87 147.189 148.239 148.577 
149.639 146.361 146.457 147.298 147.531 148.556 148.945 150.03 150.386 
151.429 146.907 147.055 147.9 148.047 149.021 149.297 150.379 150.724 
151.794 152.143 153.289 147.287 147.519 148.388 148.621 149.565 149.818 
150.854 151.14 152.209 152.519 153.662 154.084 155.389 147.701 147.879 
148.727 149.004 149.928 150.256 151.242 151.587 152.623 152.96 154.057 
154.451 155.672 156.189 157.444 148.232 148.343 149.151 149.357 150.256 
150.55 151.501 151.866 152.877 153.29 154.36 154.791 155.901 156.388 
157.512 158.051 159.07 148.712 148.851 149.622 149.811 150.667 150.906 
151.802 152.103 153.056 153.466 154.507 154.988 156.034 156.516 157.506 
158.015 158.959 159.475 160.322 144.812 146.178 145.443 145.542 147.908 
147.001 147.086 146.361 146.636 149.808 148.868 148.928 148.052 148.287 
147.596 147.899 151.71 150.836 150.986 150.017 150.222 149.368 149.652 
148.873 149.048 153.744 152.879 153.241 152.221 152.511 151.48 151.769 
150.795 150.983 150.015 150.09 155.991 155.14 155.688 154.652 155.032 
153.91 154.198 153.087 153.258 152.128 152.161 151.091 151.151 158.068 
157.416 158.003 157.125 157.499 156.441 156.683 155.561 155.689 154.497 
154.453 153.247 153.173 152.147 152.211 159.633 159.238 159.755 159.172 
159.5 158.706 158.955 157.989 158.172 156.993 156.953 155.604 155.404 
154.179 154.091 153.149 153.212 160.848 160.563 161.037 160.623 160.944 
160.404 160.73 160.075 160.44 159.501 159.627 158.256 158.024 156.52 
156.251 155.048 154.987 154.093 154.122 161.713 163.139 162.254 161.862 
164.574 163.7 163.225 162.272 161.768 165.899 165.169 164.83 163.758 
163.227 162.191 161.692 167.065 166.517 166.382 165.423 164.946 163.824 
163.331 162.238 161.64 167.849 167.551 167.391 166.77 166.271 165.407 
164.828 163.877 163.169 162.027 160.952 167.928 167.954 167.646 167.381 
166.8 166.312 165.615 164.995 164.118 163.245 161.941 160.792 159.234 
167.344 167.634 167.338 167.323 166.778 166.52 165.799 165.383 164.404 
163.76 162.361 161.417 159.759 158.725 157.247 166.354 166.821 166.616 
166.843 166.396 166.347 165.631 165.342 164.293 163.772 162.37 161.603 
160.033 159.132 157.732 156.879 155.824 165.103 165.671 165.439 165.916 
165.48 165.732 164.974 164.922 163.791 163.451 162.049 161.487 160.035 
159.345 158.066 157.352 156.338 155.661 154.855 161.748 162.213 162.454 
163.305 162.517 162.928 163.871 164.007 164.713 162.55 163.148 164.113 
164.426 165.043 165.195 165.783 162.219 162.968 163.917 164.464 165.025 
165.291 165.759 166.101 166.763 161.678 162.383 163.149 163.933 164.519 
165.064 165.51 165.941 166.573 167.054 167.655 161.253 161.758 162.215 
162.901 163.377 164.21 164.709 165.465 166.013 166.691 167.22 167.701 
167.869 160.761 161.296 161.623 162.037 162.33 162.984 163.465 164.356 
164.863 165.764 166.125 166.902 167 167.486 167.253 159.752 160.559 
160.931 161.46 161.726 162.182 162.611 163.239 163.74 164.47 164.769 
165.521 165.587 166.289 166.134 166.613 166.236 158.392 159.292 159.67 
160.502 160.824 161.518 161.93 162.566 163.031 163.576 163.847 164.308 
164.363 164.89 164.836 165.379 165.153 165.531 165.08 149.152 150.139 
149.801 150.132 151.197 150.86 151.27 150.879 151.226 152.325 151.978 
152.428 152.056 152.461 152.022 152.359 153.501 153.171 153.661 153.264 
153.709 153.277 153.689 153.21 153.606 154.557 154.343 154.913 154.56 
155.063 154.607 155.1 154.612 155.121 154.593 155.085 155.421 155.327 
155.998 155.798 156.411 156.028 156.575 156.102 156.652 156.158 156.688 
156.144 156.611 156.277 156.215 157.024 156.902 157.67 157.381 157.997 
157.574 158.101 157.651 158.152 157.684 158.142 157.614 158.027 157.145 
157.161 158.126 158.052 158.95 158.692 159.381 158.976 159.536 159.083 
159.622 159.14 159.66 159.129 159.598 159.023 159.446 157.816 158.005 
159.041 159.146 160.059 159.938 160.597 160.298 160.875 160.517 161.156 
160.714 161.359 160.785 161.348 160.69 161.146 160.475 160.836 148.753 
148.435 148.952 149.688 148.151 148.662 149.425 149.935 150.722 147.845 
148.398 149.195 149.711 150.5 151.001 151.823 147.374 148.015 148.825 
149.452 150.25 150.782 151.567 152.106 152.939 146.798 147.439 148.22 
148.964 149.798 150.456 151.227 151.805 152.589 153.183 153.959 146.332 
146.865 147.577 148.291 149.129 149.891 150.701 151.378 152.165 152.797 
153.57 154.138 154.83 146.029 146.465 147.108 147.688 148.449 149.176 
149.982 150.745 151.571 152.313 153.148 153.772 154.49 154.979 155.633 
145.839 146.219 146.831 147.285 147.954 148.539 149.267 149.983 150.791 
151.616 152.509 153.299 154.094 154.661 155.268 155.75 156.378 145.746 
146.082 146.695 147.064 147.687 148.124 148.774 149.333 150.059 150.801 
151.656 152.539 153.401 154.167 154.811 155.346 155.841 156.391 156.969 
145.93 146.576 146.463 146.892 147.239 147.142 147.58 147.443 147.868 
147.88 147.818 148.305 148.165 148.599 148.441 148.909 148.565 148.506 
149.079 148.941 149.423 149.222 149.696 149.542 150.133 149.327 149.261 
149.893 149.77 150.283 150.075 150.537 150.359 150.959 150.887 151.668 
150.128 150.062 150.696 150.593 151.097 150.91 151.339 151.174 151.762 
151.724 152.534 152.55 153.401 150.915 150.867 151.487 151.382 151.881 
151.699 152.158 151.985 152.617 152.559 153.395 153.408 154.236 154.212 
154.857 151.585 151.607 152.212 152.141 152.639 152.485 153.012 152.867 
153.598 153.521 154.398 154.33 155.111 155.004 155.581 155.459 155.908 
152.054 152.166 152.748 152.773 153.271 153.209 153.768 153.725 154.493 
154.511 155.382 155.345 156.055 155.888 156.383 156.183 156.632 156.48 
156.989 152.455 153.294 152.974 153.155 154.322 153.878 154.053 153.651 
153.742 155.638 155.072 155.298 154.723 154.895 154.316 154.404 157.124 
156.542 156.884 156.205 156.455 155.719 155.903 155.166 155.299 158.727 
158.144 158.601 157.923 158.216 157.428 157.567 156.779 156.886 156.144 
156.209 160.423 159.855 160.379 159.707 160.07 159.257 159.374 158.474 
158.443 157.645 157.59 156.897 156.779 161.96 161.523 162.036 161.459 
161.849 161.13 161.35 160.407 160.381 159.317 159.152 158.223 158.022 
157.272 157.042 163.205 162.904 163.35 162.919 163.2 162.707 162.928 
162.29 162.342 161.376 161.178 160.017 159.737 158.672 158.428 157.549 
157.338 164.297 164.039 164.443 164.055 164.222 163.798 163.885 163.509 
163.524 162.996 162.773 161.921 161.543 160.52 160.211 159.185 158.965 
157.998 157.801 152.107 151.883 152.311 152.979 151.754 152.152 152.892 
153.291 154.05 151.626 152.066 152.862 153.291 154.129 154.489 155.326 
151.372 151.912 152.751 153.261 154.118 154.558 155.389 155.798 156.691 
151.045 151.637 152.495 153.069 153.878 154.417 155.222 155.755 156.65 
157.178 158.194 150.702 151.304 152.134 152.734 153.476 154.048 154.824 
155.46 156.412 157.07 158.147 158.743 159.845 150.303 150.899 151.657 
152.29 153.008 153.594 154.369 155.028 156.035 156.784 157.915 158.62 
159.72 160.348 161.363 149.898 150.439 151.138 151.761 152.5 153.114 
153.918 154.586 155.591 156.38 157.506 158.291 159.35 160.073 161.06 
161.722 162.62 149.576 150.04 150.714 151.272 152.03 152.636 153.456 
154.124 155.065 155.865 156.915 157.767 158.787 159.585 160.558 161.31 
162.268 162.916 163.76 151.49 150.474 151.07 151.26 149.552 150.124 
150.385 150.924 151.15 148.657 149.251 149.583 150.144 150.379 150.845 
151.01 147.681 148.282 148.576 149.283 149.542 150.077 150.117 150.583 
150.659 146.719 147.243 147.387 148.118 148.353 149.07 149.094 149.606 
149.515 150.102 150.223 145.713 146.253 146.297 146.906 147.041 147.757 
147.83 148.451 148.378 148.931 148.961 149.666 149.887 144.507 145.157 
145.214 145.814 145.866 146.483 146.525 147.156 147.166 147.768 147.826 
148.465 148.651 149.367 149.587 143.281 143.919 144.008 144.654 144.693 
145.304 145.289 145.893 145.896 146.538 146.636 147.321 147.512 148.203 
148.415 149.083 149.259 142.266 142.786 142.863 143.447 143.49 144.09 
144.085 144.673 144.678 145.297 145.4 146.096 146.302 147.033 147.259 
147.949 148.141 148.782 148.957 141.783 141.124 141.753 142.313 140.335 
141.034 141.629 142.279 142.872 139.676 140.29 140.944 141.584 142.211 
142.85 143.463 139.404 139.817 140.501 141.014 141.717 142.274 142.952 
143.501 144.129 139.404 139.709 140.362 140.741 141.467 141.93 142.681 
143.145 143.835 144.268 144.921 139.436 139.733 140.36 140.684 141.353 
141.758 142.491 142.951 143.665 144.084 144.752 145.156 145.842 139.574 
139.794 140.441 140.709 141.352 141.672 142.345 142.76 143.466 143.911 
144.597 145.02 145.711 146.128 146.815 139.966 140.054 140.704 140.872 
141.536 141.748 142.428 142.704 143.433 143.78 144.531 144.904 145.641 
146.026 146.737 147.108 147.743 140.497 140.524 141.128 141.22 141.876 
142.025 142.735 142.925 143.691 143.922 144.721 144.983 145.766 146.052 
146.79 147.091 147.756 148.037 148.611 140.969 141.871 141.471 141.602 
142.903 142.447 142.626 142.181 142.362 144.11 143.593 143.822 143.311 
143.544 143.041 143.264 145.426 144.877 145.123 144.584 144.829 144.299 
144.555 144.023 144.259 146.84 146.235 146.47 145.906 146.117 145.577 
145.815 145.323 145.591 145.06 145.29 148.398 147.703 147.932 147.304 
147.529 146.905 147.12 146.569 146.85 146.366 146.641 146.097 146.31 
150.104 149.327 149.534 148.833 149.096 148.42 148.66 147.983 148.234 
147.651 147.942 147.417 147.659 147.097 147.29 151.887 151.099 151.288 
150.499 150.721 150.018 150.258 149.577 149.777 149.111 149.322 148.736 
148.966 148.415 148.601 148.039 148.204 153.551 152.882 153.106 152.299 
152.457 151.667 151.84 151.133 151.297 150.623 150.762 150.128 150.297 
149.721 149.895 149.327 149.459 148.899 149.024 149.63 150.123 150.169 
150.789 150.617 150.712 151.406 151.437 152.122 151.068 151.214 151.995 
152.091 152.858 152.856 153.585 151.58 151.717 152.586 152.718 153.593 
153.636 154.466 154.415 155.228 152.176 152.319 153.292 153.422 154.423 
154.462 155.395 155.355 156.263 156.186 157.073 152.812 152.984 154.066 
154.231 155.358 155.42 156.47 156.405 157.408 157.305 158.286 158.131 
158.993 153.511 153.694 154.844 155.044 156.249 156.399 157.582 157.591 
158.753 158.634 159.772 159.526 160.51 160.131 160.898 154.149 154.398 
155.525 155.789 156.987 157.247 158.518 158.704 160.04 160.079 161.402 
161.212 162.332 161.873 162.693 162.095 162.713 154.499 154.875 155.906 
156.308 157.452 157.868 159.168 159.56 160.985 161.28 162.684 162.764 
163.925 163.68 164.477 163.946 164.472 163.835 164.234 136.991 136.247 
136.606 136.571 135.64 135.936 135.922 136.199 136.171 135.302 135.464 
135.501 135.664 135.626 135.857 135.964 135.405 135.328 135.425 135.435 
135.453 135.481 135.566 135.818 136.174 136.036 135.686 135.801 135.616 
135.719 135.544 135.638 135.632 135.966 136.256 136.839 136.984 136.484 
136.555 136.222 136.375 136.056 136.164 135.92 136.19 136.242 136.818 
137.126 137.86 137.992 137.448 137.442 137.049 137.204 136.863 137.015 
136.635 136.837 136.636 137.129 137.258 138.015 138.31 139.099 139.007 
138.445 138.388 137.929 138.051 137.72 137.943 137.579 137.795 137.434 
137.815 137.71 138.392 138.567 139.373 139.61 140.311 139.996 139.464 
139.406 138.892 138.973 138.591 138.835 138.517 138.79 138.432 138.742 
138.486 139.006 139.016 139.731 139.912 140.605 140.768 141.317 137.423 
136.969 137.435 137.93 136.587 137.013 137.56 138.011 138.598 136.449 
136.758 137.391 137.767 138.429 138.809 139.456 136.689 136.818 137.496 
137.76 138.455 138.748 139.387 139.716 140.316 137.317 137.247 137.887 
138.007 138.693 138.878 139.495 139.711 140.296 140.572 141.141 138.276 
138.019 138.567 138.505 139.14 139.209 139.84 139.942 140.557 140.695 
141.315 141.486 142.082 139.437 139.064 139.508 139.268 139.795 139.729 
140.332 140.374 141.016 141.097 141.744 141.824 142.43 142.517 143.084 
140.559 140.196 140.542 140.227 140.633 140.44 140.949 140.906 141.503 
141.57 142.192 142.285 142.858 142.923 143.439 143.513 144.026 141.505 
141.204 141.498 141.2 141.553 141.301 141.749 141.589 142.12 142.077 
142.645 142.693 143.237 143.309 143.808 143.874 144.361 144.439 144.934 
137.836 138.376 138.295 138.694 139.003 138.862 139.287 139.2 139.631 
139.811 139.57 139.954 139.813 140.278 140.183 140.668 140.659 140.414 
140.765 140.546 140.986 140.859 141.399 141.302 141.863 141.451 141.224 
141.591 141.376 141.806 141.634 142.187 142.078 142.693 142.574 143.164 
142.33 142.043 142.439 142.213 142.698 142.506 143.088 142.94 143.574 
143.436 144.046 143.892 144.468 143.303 142.984 143.39 143.132 143.655 
143.448 144.057 143.889 144.523 144.356 144.945 144.772 145.334 145.183 
145.747 144.244 143.952 144.345 144.102 144.588 144.4 144.957 144.821 
145.417 145.286 145.851 145.676 146.2 146.031 146.569 146.436 146.971 
145.138 144.862 145.226 145.001 145.424 145.253 145.726 145.617 146.157 
146.092 146.668 146.557 147.093 146.911 147.416 147.243 147.751 147.613 
148.098 151.453 150.948 150.928 150.368 150.286 150.341 149.782 149.829 
149.363 149.516 149.627 149.125 149.225 148.782 148.872 148.468 148.704 
148.828 148.342 148.529 148.153 148.306 147.937 148.009 147.598 147.945 
148.018 147.478 147.679 147.296 147.583 147.273 147.474 147.101 147.152 
146.711 147.299 147.305 146.709 146.809 146.337 146.623 146.291 146.654 
146.306 146.552 146.074 146.183 145.65 146.692 146.69 146.063 146.077 
145.507 145.667 145.231 145.57 145.178 145.551 145.046 145.324 144.712 
144.929 144.343 146.052 146.072 145.45 145.444 144.833 144.882 144.349 
144.538 144.06 144.362 143.841 144.153 143.561 143.842 143.271 143.554 
143.08 145.433 145.442 144.866 144.854 144.284 144.269 143.72 143.751 
143.219 143.339 142.808 143.008 142.48 142.721 142.242 142.51 142.119 
142.406 142.086 
POINT_DATA 1002
SCALARS Distance double
LOOKUP_TABLE default
141.346 140.494 140.448 141.335 140.384 142.268 141.429 140.475 142.388 
143.37 141.746 140.774 142.723 143.617 144.627 142.061 141.039 143.138 
144.069 144.968 145.985 142.219 141.307 143.306 144.458 145.515 146.523 
147.486 142.624 141.902 143.543 144.715 146.009 147.241 148.274 149.138 
143.386 142.727 144.283 145.346 146.509 147.802 149.05 150.066 150.904 
144.127 143.507 145.117 146.288 147.322 148.344 149.549 150.75 151.778 
152.637 144.781 144.244 145.708 146.962 148.148 149.113 150.113 151.227 
152.309 153.288 154.129 139.568 139.508 138.56 138.54 137.536 139.476 
137.538 136.488 138.664 139.634 136.457 135.587 137.79 138.878 139.871 
135.614 135.192 136.802 137.965 138.855 140.011 135.394 135.361 136.172 
137.171 137.829 138.84 140.419 135.735 135.887 136.158 137.009 137.499 
138.058 139.54 141.335 136.423 136.611 136.568 137.281 137.927 138.233 
139.148 140.84 142.396 137.282 137.402 137.246 137.671 138.421 138.92 
139.432 140.615 142.124 143.327 138.206 138.145 139.104 139.117 140.069 
138.209 140.223 141.178 139.308 138.742 141.519 142.441 140.609 139.941 
139.49 142.886 143.741 142.04 141.328 140.716 140.078 144.25 145.039 
143.433 142.777 142.159 141.488 140.932 145.642 146.316 144.845 144.211 
143.711 143.104 142.548 142.25 146.962 147.494 146.271 145.669 145.254 
144.752 144.16 143.755 143.518 148.139 148.563 147.578 147.055 146.697 
146.274 145.671 145.167 144.835 144.52 145.411 145.837 146.986 146.211 
147.518 148.857 146.561 147.841 149.361 150.703 147.142 148.194 149.637 
151.098 152.491 147.752 148.81 150.064 151.442 152.847 154.535 148.111 
149.304 150.583 151.919 153.271 154.875 156.763 148.473 149.599 150.884 
152.263 153.694 155.212 156.936 158.638 148.981 150.002 151.168 152.454 
153.921 155.474 157.021 158.585 159.992 149.437 150.452 151.55 152.691 
154.03 155.577 157.056 158.445 159.853 161.127 146.138 147.883 147.241 
149.869 149.036 148.589 151.94 151.153 150.483 149.887 154.212 153.577 
152.81 152.018 151.048 156.683 156.175 155.35 154.438 153.323 152.118 
158.809 158.524 157.805 156.9 155.735 154.305 153.101 160.274 160.188 
159.795 159.27 158.352 156.778 155.136 154.042 161.43 161.414 161.236 
161.166 160.889 159.649 157.653 155.972 154.954 162.589 162.749 164.087 
164.274 165.368 162.661 165.876 166.461 164.349 162.683 167.224 167.518 
166.054 164.449 162.873 167.917 168.118 167.037 165.729 164.32 162.327 
167.832 167.837 167.192 166.176 164.949 163.098 160.41 167.237 166.961 
166.948 166.196 165.031 163.243 160.755 158.123 166.268 165.837 166.345 
165.898 164.805 163.056 160.827 158.531 156.55 164.915 164.564 165.142 
164.962 164.076 162.511 160.6 158.692 156.984 155.485 161.535 163.248 
161.867 163.681 162.02 164.693 163.756 161.889 164.912 165.531 163.274 
161.505 164.735 165.436 166.319 162.38 161.157 163.804 165.03 166.075 
167.334 161.744 160.863 162.529 163.81 165.301 166.673 167.657 161.285 
160.138 161.847 162.625 163.971 165.327 166.381 166.967 160.258 158.865 
161.255 162.084 163.133 164.125 164.865 165.526 165.918 158.759 157.556 
159.999 161.224 162.489 163.478 163.944 164.288 164.703 164.846 149.46 
150.51 150.45 151.624 151.52 151.678 152.795 152.665 152.868 152.84 
154.057 153.786 154.134 154.129 154.104 155.191 154.7 155.497 155.566 
155.615 155.654 156.097 155.474 156.714 157.034 157.137 157.212 157.205 
157.081 156.283 157.903 158.404 158.561 158.61 158.638 158.585 158.126 
157.032 159.18 159.775 159.969 160.082 160.178 160.17 160.046 148.24 
149.157 147.909 148.921 147.625 150.2 148.653 147.262 150.016 151.289 
148.134 146.728 149.692 151.046 152.371 147.458 146.212 149.071 150.635 
152.004 153.397 146.928 145.859 148.349 149.972 151.501 152.994 154.323 
146.61 145.62 147.789 149.213 150.768 152.449 154.005 155.147 146.429 
145.47 147.458 148.619 149.975 151.636 153.446 154.837 155.826 146.349 