# vtk DataFile Version 4.0
vtk output
ASCII
DATASET POLYDATA
POINTS 1002 float
-85.752 -81.1113 72.9817 -85.7579 -80.6921 71.7674 -85.2864 -80.3486 72.4551 
-85.2131 -80.8937 73.7772 -84.778 -80.0008 73.3179 -85.6448 -81.7518 74.3964 
-84.6326 -80.7095 74.6849 -84.266 -79.6932 74.242 -85.1418 -81.5978 75.3197 
-85.4663 -82.5132 76.0018 -84.1605 -80.4938 75.6754 -83.7873 -79.477 75.1807 
-84.7088 -81.4227 76.3964 -85.1009 -82.3438 77.0652 -85.2522 -83.3946 77.7488 
-83.8895 -80.2752 76.8971 -83.4002 -79.4206 76.3386 -84.4256 -81.2439 77.6945 
-84.8036 -82.2689 78.3748 -84.9429 -83.4411 78.9532 -85.0344 -84.7088 79.6605 
-83.7354 -80.2241 78.4226 -83.1594 -79.5391 77.7883 -84.2211 -81.2345 79.1932 
-84.4705 -82.4589 79.8591 -84.5702 -83.7582 80.3781 -84.7029 -85.1055 81.0411 
-84.8441 -86.3362 81.7901 -83.4798 -80.4188 79.8957 -82.9899 -79.7298 79.2235 
-83.9041 -81.4883 80.5762 -84.057 -82.918 81.1911 -84.1084 -84.3046 81.7746 
-84.292 -85.6102 82.4679 -84.4906 -86.8568 83.2527 -84.578 -87.9545 83.8998 
-83.047 -80.7738 81.0122 -82.7804 -79.9182 80.4699 -83.3562 -81.9112 81.5884 
-83.5309 -83.4325 82.1735 -83.6472 -84.8729 82.9291 -83.8876 -86.1066 83.7832 
-84.0906 -87.3827 84.5445 -84.1334 -88.6566 85.1582 -84.1503 -89.8011 85.6386 
-82.6453 -81.213 81.9981 -82.5667 -80.1634 81.6849 -82.8019 -82.4254 82.4608 
-82.9585 -83.9072 83.0422 -83.1327 -85.3733 83.9077 -83.436 -86.629 84.9477 
-83.6623 -87.9524 85.727 -83.6448 -89.4294 86.1988 -83.5899 -90.7985 86.6121 
-83.6381 -91.9293 87.0172 -82.4569 -81.7065 83.1568 -82.4465 -80.5331 82.9683 
-82.5305 -83.0008 83.5559 -82.6024 -84.4069 84.1353 -82.6642 -85.8501 84.9235 
-82.8607 -87.2268 85.8939 -83.0887 -88.6309 86.7037 -83.1004 -90.1886 87.1588 
-83.0197 -91.7265 87.5103 -83.0471 -92.9942 87.9122 -83.1258 -93.966 88.249 
-85.4329 -80.0913 71.0239 -85.0176 -79.5835 71.8335 -85.1654 -79.3002 70.356 
-84.8421 -78.6311 71.3649 -85.0241 -78.339 69.8179 -84.652 -79.0064 72.8908 
-84.6216 -77.6043 70.978 -84.9105 -77.3174 69.4091 -84.5189 -77.8971 72.5954 
-84.1875 -78.5617 73.945 -84.2566 -76.5916 70.6362 -84.7857 -76.221 69.2676 
-84.0035 -76.8917 72.1511 -83.8743 -77.4304 73.6474 -83.5187 -78.4395 74.8931 
-84.0697 -75.4966 70.6119 -84.8593 -75.0945 69.5588 -83.3881 -75.9819 71.7012 
-83.1324 -76.4769 73.0747 -82.9812 -77.3885 74.5641 -82.8904 -78.6059 76.0145 
-84.3461 -74.4073 70.9894 -85.2617 -74.1883 70.0499 -83.4237 -75.0168 71.8211 
-82.8213 -75.6415 72.7838 -82.5254 -76.3485 74.2148 -82.4071 -77.534 75.785 
-82.6267 -78.8073 77.4331 -84.9 -73.6581 71.447 -85.8661 -73.664 70.4648 
-83.9948 -74.1606 72.4587 -83.3861 -74.9001 73.3198 -82.9165 -75.5073 74.4422 
-82.4448 -76.2935 75.9027 -82.3479 -77.5731 77.405 -82.6151 -78.8677 78.9694 
-85.5419 -73.3654 71.95 -86.5211 -73.4775 70.9767 -84.5745 -73.6545 73.1882 
-84.0389 -74.3206 74.2506 -83.7524 -75.009 75.2272 -83.1292 -75.5046 76.4945 
-82.5026 -76.2771 77.8944 -82.4289 -77.5543 79.2346 -82.5759 -78.9118 80.5268 
-86.2379 -73.3573 72.7165 -87.115 -73.5145 71.8008 -85.1808 -73.4403 73.9856 
-84.4437 -73.8597 75.1536 -84.2263 -74.5897 76.0568 -83.8472 -75.2333 77.1433 
-83.0153 -75.687 78.5387 -82.4615 -76.4796 79.8811 -82.4377 -77.757 81.0365 
-82.4911 -79.1611 82.0519 -87.1571 -73.5407 73.4286 -86.215 -73.3885 74.6409 
-87.0989 -73.6275 75.2983 -86.2247 -73.3606 76.6567 -86.9906 -73.8253 76.999 
-85.1523 -73.4287 75.932 -86.3161 -73.5737 78.3674 -87.0064 -74.3372 78.547 
-85.2974 -73.4239 77.7423 -84.5439 -73.9449 76.8449 -86.4647 -74.3558 79.8945 
-87.2454 -75.0375 80.1993 -85.5275 -73.953 79.3475 -84.734 -74.2526 78.4936 
-84.2827 -74.8832 77.7247 -86.6406 -75.4017 81.4611 -87.5585 -75.7415 81.8761 
-85.6517 -75.105 80.9652 -84.8951 -75.0952 80.3065 -84.2707 -75.4339 79.6145 
-83.623 -75.629 79.0985 -86.8449 -76.4403 83.0488 -87.7201 -76.682 83.3732 
-85.7343 -76.3227 82.6268 -84.9503 -76.215 82.1707 -84.3717 -76.2686 81.6099 
-83.5533 -76.3223 81.1157 -82.8007 -76.2382 80.6227 -87.009 -77.6227 84.5001 
-87.7003 -77.9206 84.6269 -85.9365 -77.4657 84.2202 -85.0329 -77.3243 83.8689 
-84.5538 -77.2959 83.3435 -83.8925 -77.377 82.8088 -83.0008 -77.2991 82.4337 
-82.4909 -77.2897 81.8785 -87.0659 -78.9288 85.6691 -87.6217 -79.1815 85.6657 
-86.1728 -78.7298 85.5541 -85.2317 -78.5628 85.3452 -84.7012 -78.5507 84.8747 
-84.289 -78.7387 84.2298 -83.5343 -78.7864 83.8285 -82.8005 -78.6265 83.5302 
-82.4962 -78.6982 82.8965 -87.0442 -80.2154 86.6247 -87.5607 -80.3528 86.5886 
-86.312 -80.079 86.5974 -85.455 -79.9555 86.5455 -84.8133 -79.9758 86.2884 
-84.4358 -80.1999 85.716 -83.9191 -80.3346 85.1908 -83.2041 -80.1638 84.9204 
-82.6728 -79.9948 84.5245 -82.4673 -80.1481 83.7849 -82.4347 -81.8285 84.4573 
-82.5082 -81.5184 85.3296 -82.5056 -83.4757 86.2653 -82.7854 -81.4146 86.0118 
-82.5532 -83.1709 87.0811 -82.4504 -85.4306 88.2065 -83.333 -81.6046 86.3958 
-82.7982 -82.9868 87.6781 -82.4939 -85.1727 88.8677 -82.2096 -87.6068 89.8717 
-83.9425 -81.7737 86.7756 -83.2703 -83.0912 88.0832 -82.7643 -84.935 89.3648 
-82.4423 -87.4842 90.423 -82.1004 -89.8295 91.1245 -84.4365 -81.6552 87.2867 
-83.8529 -83.2406 88.4622 -83.2454 -84.9439 89.7021 -82.8579 -87.2995 90.8347 
-82.5467 -89.829 91.644 -82.237 -92.0796 92.1829 -85.0011 -81.4731 87.6056 
-84.5131 -83.1817 88.7822 -83.9256 -85.0108 89.9355 -83.4107 -87.249 91.0161 
-83.0127 -89.7603 91.95 -82.6309 -92.181 92.6411 -82.3879 -94.6326 93.2116 
-85.7542 -81.4609 87.6311 -85.2352 -83.0872 88.8674 -84.7022 -84.937 90.0838 
-84.1397 -87.1658 91.1011 -83.5999 -89.6951 92.0116 -83.0406 -92.2283 92.8586 
-82.6029 -94.8174 93.6178 -82.4844 -97.5008 94.1675 -86.5253 -81.5304 87.5988 
-85.9554 -83.0982 88.779 -85.3918 -84.8591 90.044 -84.8354 -86.9517 91.1372 
-84.2927 -89.4521 92.0503 -83.68 -92.1033 92.918 -83.0143 -94.8184 93.8018 
-82.6118 -97.603 94.5692 -82.5786 -100.191 94.8965 -87.1724 -81.5711 87.5824 
-86.6513 -83.0968 88.6863 -86.0443 -84.811 89.8625 -85.4202 -86.7281 90.9799 
-84.8584 -89.0361 92.0008 -84.3363 -91.6717 92.9461 -83.6955 -94.456 93.8363 
-83.0442 -97.3251 94.6913 -82.6979 -100.019 95.2784 -82.6525 -102.256 95.3051 
-82.4884 -83.2781 84.8575 -82.5239 -85.1758 86.9748 -82.5262 -84.7743 85.4782 
-82.2495 -87.2832 88.9884 -82.3674 -86.7549 87.6688 -82.4299 -86.2532 86.1556 
-81.8521 -89.5377 90.4614 -81.9182 -88.9681 89.4282 -82.091 -88.3843 88.0457 
-82.3582 -87.8301 86.8148 -81.8138 -91.9663 91.6743 -81.618 -91.5384 90.877 
-81.7237 -90.9445 89.5862 -81.9651 -90.2972 88.2952 -82.4391 -89.5009 87.4563 
-82.0839 -94.759 92.8765 -81.7364 -94.6189 92.4457 -81.6205 -94.0665 91.4738 
-81.6994 -93.2007 89.978 -81.9363 -92.2157 88.7798 -82.4612 -91.1965 87.999 
-82.3732 -97.8955 93.8406 -82.0592 -98.1183 93.6121 -81.7539 -97.8439 93.2447 
-81.6674 -96.822 92.151 -81.695 -95.3692 90.6688 -81.9175 -94.0237 89.4949 
-82.4222 -92.8693 88.5101 -82.5703 -100.865 94.4249 -82.3462 -101.447 93.9892 
-81.9627 -101.699 93.8078 -81.7667 -101.11 93.4109 -81.7477 -99.512 92.4255 
-81.781 -97.5036 91.2798 -82.0216 -95.7549 90.1934 -82.4955 -94.3266 89.0296 
-82.6346 -103.177 94.723 -82.4459 -104.081 94.0226 -82.0475 -104.839 93.5847 
-81.7872 -104.992 93.3502 -81.8032 -104.036 92.8959 -81.8415 -101.97 92.2464 
-81.8959 -99.4435 91.5502 -82.1526 -97.1917 90.588 -82.5994 -95.4309 89.3807 
-82.6418 -104.484 95.0809 -82.4434 -105.781 94.3035 -82.4585 -106.75 94.5892 
-81.974 -108.691 94.0027 -82.1551 -109.321 94.1608 -82.0083 -107.127 93.6158 
-81.5233 -111.759 93.9304 -81.9201 -111.752 93.6498 -81.379 -110.391 93.5511 
-81.5895 -108.03 93.1538 -81.4179 -113.83 93.1981 -81.9422 -113.131 92.6091 
-80.9766 -113.108 93.2921 -81.0803 -110.909 92.804 -81.5587 -107.899 92.6456 
-81.7318 -114.319 91.5036 -82.3874 -113.504 91.3693 -81.0467 -114.267 91.8359 
-80.8074 -112.733 91.9016 -81.2353 -110.104 91.827 -81.7203 -106.436 92.1198 
-82.4151 -114.147 90.1065 -83.1696 -113.421 90.6447 -81.5368 -114.259 89.9586 
-81 -113.401 90.3679 -81.1083 -111.376 90.9003 -81.5066 -108.077 91.405 
-81.7895 -103.715 91.8222 -83.2262 -113.616 89.7234 -83.882 -112.578 90.3804 
-82.2625 -113.838 89.1465 -81.5601 -113.317 89.3191 -81.4692 -111.833 90.1872 
-81.5843 -108.901 90.9605 -81.6939 -104.719 91.3785 -81.9162 -100.486 91.3373 
-83.8397 -111.948 89.8202 -84.3093 -110.576 90.2156 -82.9775 -112.524 89.3379 
-82.189 -112.25 89.256 -82.018 -111.138 89.9554 -82.0628 -108.736 90.7782 
-81.8945 -104.976 91.037 -81.9148 -100.955 90.8611 -82.2565 -97.7538 90.3195 
-84.2231 -109.102 89.9876 -84.6077 -107.836 90.1514 -83.55 -109.913 89.8087 
-82.7975 -109.931 89.7306 -82.5002 -109.082 90.1095 -82.5635 -107.253 90.7319 
-82.3828 -104.34 90.8629 -82.1425 -100.95 90.4386 -82.3382 -98.0136 89.8441 
-82.7816 -95.786 89.1212 -82.7748 -102.563 95.6586 -82.7965 -104.618 95.4533 
-83.1283 -102.534 95.8926 -83.2595 -104.534 95.8051 -83.7244 -102.237 96.0478 
-82.7602 -106.662 94.854 -83.9688 -104.32 96.1155 -84.354 -101.644 95.9643 
-83.3824 -106.477 95.1367 -82.6092 -108.904 94.0621 -84.5058 -103.67 95.9843 
-84.8349 -100.574 95.4098 -84.0948 -106.173 95.3618 -83.2876 -108.427 94.0133 
-82.4184 -110.909 93.1454 -84.7725 -102.26 95.2374 -85.3751 -98.9654 94.5712 
-84.4301 -105.118 95.1207 -83.9515 -107.668 94.0641 -83.1381 -110.067 92.9339 
-82.5233 -112.098 92.2036 -85.3427 -100.244 94.4009 -86.1976 -96.9798 93.7462 
-84.6646 -103.182 94.5521 -84.3114 -105.906 93.9918 -83.9218 -108.678 93.0562 
-83.3825 -110.94 92.253 -83.1235 -112.453 91.5234 -86.3323 -97.9129 93.6512 
-87.0418 -94.8875 92.7808 -85.4998 -100.873 94.1261 -84.8547 -103.509 93.9712 
-84.5325 -106.264 93.2968 -84.241 -108.859 92.5271 -83.9228 -110.683 91.84 
-83.8397 -111.897 91.1203 -87.1709 -95.5166 92.5451 -87.6612 -92.9867 91.5084 
-86.5924 -98.3598 93.4719 -85.938 -101.041 93.9129 -85.3633 -103.585 93.6223 
-84.9557 -106.025 92.8971 -84.598 -107.951 92.1634 -84.3427 -109.324 91.4657 
-84.3066 -110.273 90.7692 -87.7186 -93.3974 91.0747 -88.2102 -91.4642 90.1772 
-87.297 -95.7879 92.1389 -86.9156 -98.3729 93.1313 -86.432 -100.901 93.5497 
[...]
CELL_DATA 2000
SCALARS Distance double
LOOKUP_TABLE default
137.146 137.069 137.426 138.115 137.057 137.401 138.142 138.499 139.263 
137.13 137.45 138.264 138.612 139.454 139.747 140.558 137.411 137.649 
138.578 138.872 139.838 140.071 140.977 141.171 142.094 138.019 138.141 
139.182 139.38 140.465 140.629 141.641 141.757 142.783 142.927 144.001 
138.798 138.889 139.933 140.104 141.204 141.367 142.422 142.533 143.601 
143.735 144.865 144.987 146.061 139.496 139.62 140.557 140.779 141.799 
142.054 143.104 143.309 144.389 144.569 145.694 145.856 146.936 147.02 
147.991 140.16 140.241 141.105 141.298 142.271 142.551 143.621 143.92 
145.055 145.318 146.461 146.655 147.727 147.847 148.827 148.889 149.807 
140.974 140.954 141.85 141.92 142.938 143.096 144.209 144.454 145.633 
145.936 147.107 147.368 148.436 148.601 149.578 149.685 150.622 150.682 
151.552 136.54 135.589 136.183 136.432 134.652 135.242 135.522 136.118 
136.412 133.741 134.319 134.615 135.228 135.538 136.126 136.451 132.859 
133.387 133.597 134.247 134.534 135.212 135.525 136.176 136.617 132.2 
132.545 132.635 133.159 133.339 134.064 134.384 135.167 135.623 136.421 
137.093 131.976 132.067 132.151 132.373 132.53 132.971 133.318 134.006 
134.555 135.389 136.119 137.024 137.858 132.144 132.051 132.207 132.215 
132.527 132.618 133.082 133.341 133.96 134.486 135.275 136.073 136.965 
137.844 138.66 132.62 132.39 132.601 132.512 132.962 132.967 133.581 
133.605 134.251 134.348 135.054 135.453 136.316 137.029 137.921 138.672 
139.427 133.382 133.044 133.293 133.08 133.524 133.494 134.122 134.204 
134.87 134.895 135.492 135.554 136.245 136.607 137.473 138.073 138.93 
139.532 140.285 133.969 134.968 134.266 133.929 136.009 135.33 135.001 
134.301 134.109 137.101 136.407 136.121 135.394 135.183 134.599 134.641 
138.435 137.633 137.409 136.591 136.409 135.729 135.78 135.276 135.424 
139.958 139.105 138.936 138.042 137.931 137.116 137.177 136.52 136.659 
136.065 136.109 141.494 140.675 140.552 139.666 139.606 138.765 138.841 
138.067 138.176 137.423 137.469 136.748 136.822 142.974 142.228 142.173 
141.316 141.271 140.447 140.526 139.761 139.886 139.074 139.15 138.298 
138.413 137.659 137.947 144.326 143.693 143.715 142.941 142.923 142.11 
142.19 141.432 141.613 140.833 141 140.129 140.286 139.422 139.673 
138.952 139.334 145.539 145.001 145.087 144.434 144.475 143.739 143.844 
143.108 143.326 142.589 142.827 142.018 142.206 141.345 141.539 140.73 
140.999 140.323 140.672 141.634 142.009 142.295 143.42 142.546 142.747 
143.828 144.216 145.52 143.198 143.344 144.344 144.627 145.854 146.36 
147.705 143.825 144.008 144.974 145.164 146.278 146.685 148.028 148.543 
149.827 144.324 144.585 145.586 145.791 146.841 147.138 148.415 148.899 
150.263 150.677 151.895 144.781 145.044 146.077 146.358 147.419 147.698 
148.888 149.309 150.646 151.116 152.393 152.758 153.999 145.303 145.504 
146.501 146.812 147.896 148.224 149.372 149.759 151.015 151.482 152.756 
153.198 154.462 154.898 156.249 145.836 146.01 146.929 147.22 148.264 
148.63 149.737 150.152 151.333 151.81 153.051 153.531 154.798 155.289 
156.636 157.161 158.51 146.262 146.473 147.332 147.615 148.581 148.939 
149.958 150.39 151.477 152.006 153.19 153.758 154.993 155.554 156.842 
157.435 158.735 159.285 160.401 141.804 143.659 142.703 142.77 145.878 
144.811 144.91 143.825 143.924 148.092 147.104 147.239 146.112 146.143 
145.04 145.168 150.13 149.232 149.357 148.352 148.352 147.27 147.312 
146.312 146.533 152.194 151.277 151.481 150.458 150.541 149.44 149.49 
148.444 148.614 147.702 147.975 154.466 153.523 153.998 152.87 153.219 
151.911 152.083 150.762 150.898 149.796 150.008 149.098 149.299 156.879 
155.995 156.728 155.672 156.319 154.991 155.372 153.77 153.892 152.34 
152.452 151.222 151.39 150.377 150.491 159.147 158.43 159.189 158.371 
159.086 158.088 158.622 157.231 157.417 155.677 155.668 153.994 154.039 
152.664 152.739 151.579 151.602 160.942 160.464 161.089 160.533 161.123 
160.494 161.03 160.155 160.45 159.1 159.07 157.377 157.218 155.555 
155.421 153.98 153.859 152.642 152.531 161.892 163.12 162.411 162.088 
164.404 163.709 163.531 162.616 162.21 165.825 165.224 165.218 164.218 
163.849 162.754 162.204 166.659 166.529 166.613 165.903 165.431 164.377 
163.686 162.609 161.728 166.56 166.811 166.781 166.714 166.128 165.556 
164.652 163.837 162.827 161.796 160.486 166.289 166.412 166.189 166.307 
165.773 165.662 164.846 164.409 163.391 162.625 161.316 160.21 158.636 
166.094 166.156 165.832 165.742 165.272 165.185 164.663 164.437 163.628 
163.021 161.736 160.799 159.217 158.16 156.61 165.313 165.725 165.374 
165.419 164.853 164.795 164.288 164.243 163.561 163.174 161.883 161.053 
159.366 158.465 156.883 156.082 154.773 163.803 164.523 164.173 164.61 
163.967 164.164 163.451 163.633 162.85 162.823 161.554 161 159.263 
158.456 156.826 156.15 154.889 154.311 153.288 161.968 162.349 162.521 
163.151 162.647 162.876 163.489 163.594 164.255 162.82 163.209 163.871 
163.923 164.421 164.648 165.397 162.47 163.241 164.033 164.275 164.637 
164.731 165.162 165.6 166.159 161.429 162.529 163.354 164.089 164.478 
164.786 165.012 165.294 165.642 166.067 166.317 160.129 161.253 162 
163.002 163.454 164.196 164.485 164.994 165.278 165.643 165.912 166.159 
166.28 158.809 159.905 160.652 161.623 162.136 162.965 163.359 164.136 
164.488 165.122 165.338 165.762 165.844 166.114 166.061 157.299 158.458 
159.21 160.307 160.93 161.788 162.234 162.975 163.325 164.059 164.224 
164.869 164.792 165.342 165.12 165.569 165.189 155.73 156.796 157.409 
158.663 159.307 160.476 160.985 161.884 162.19 162.888 162.985 163.586 
163.455 164.017 163.716 164.269 163.84 164.311 163.712 146.694 147.742 
147.425 147.852 148.841 148.566 149.088 148.692 149.138 149.894 149.702 
150.323 149.984 150.484 150.034 150.497 150.909 150.781 151.538 151.271 
151.886 151.437 151.96 151.469 152.018 151.917 151.842 152.743 152.567 
153.364 152.949 153.592 153.051 153.696 153.153 153.797 152.868 152.864 
153.846 153.801 154.742 154.482 155.252 154.777 155.492 154.951 155.684 
155.071 155.699 153.721 153.789 154.807 154.868 155.892 155.812 156.713 
156.413 157.224 156.778 157.584 157.03 157.766 157.048 157.631 154.468 
154.609 155.681 155.811 156.923 156.943 158.008 157.858 158.862 158.528 
159.462 158.964 159.781 159.138 159.798 159.009 159.52 155.091 155.32 
156.459 156.68 157.87 157.983 159.145 159.15 160.31 160.172 161.233 
160.857 161.673 161.096 161.681 161.027 161.467 160.748 161.079 146.197 
145.691 146.333 147.149 145.19 145.806 146.6 147.301 148.169 144.751 
145.326 146.081 146.74 147.579 148.307 149.172 144.276 144.871 145.591 
146.227 147.04 147.734 148.588 149.297 150.147 143.738 144.341 145.041 
145.696 146.495 147.203 148.069 148.76 149.596 150.274 151.111 143.322 
143.828 144.508 145.119 145.893 146.615 147.479 148.225 149.063 149.743 
150.526 151.217 152.027 143.149 143.519 144.156 144.64 145.36 146.002 
146.823 147.578 148.409 149.149 149.923 150.621 151.375 152.091 152.864 
143.14 143.431 144.024 144.378 145.028 145.526 146.275 146.929 147.726 
148.451 149.242 149.975 150.753 151.456 152.194 152.887 153.603 143.166 
143.443 144.017 144.305 144.908 145.276 145.961 146.462 147.195 147.804 
148.562 149.274 150.091 150.836 151.619 152.274 152.937 153.574 154.21 
143.357 143.918 143.843 144.225 144.439 144.414 144.863 144.748 145.143 
144.966 144.959 145.531 145.461 145.96 145.757 146.206 145.597 145.562 
146.241 146.218 146.832 146.644 147.106 146.871 147.359 146.287 146.256 
146.953 146.974 147.614 147.495 147.926 147.724 148.167 148.036 148.63 
147.009 146.966 147.635 147.653 148.247 148.187 148.607 148.465 148.95 
148.854 149.55 149.457 150.205 147.81 147.727 148.335 148.285 148.812 
148.754 149.242 149.154 149.794 149.732 150.585 150.499 151.342 151.141 
151.81 148.494 148.475 148.97 148.913 149.364 149.312 149.882 149.869 
150.669 150.681 151.611 151.577 152.392 152.243 152.833 152.6 153.073 
148.837 148.95 149.369 149.408 149.855 149.867 150.521 150.588 151.483 
151.577 152.491 152.512 153.213 153.127 153.615 153.469 153.906 153.742 
154.243 149.078 149.863 149.499 149.677 151.323 150.599 150.766 150.208 
150.346 153.04 152.304 152.514 151.701 151.908 151.113 151.275 154.479 
153.933 154.272 153.589 153.873 153.006 153.193 152.257 152.399 156.198 
155.484 155.972 155.305 155.705 154.956 155.122 154.226 154.221 153.33 
153.328 158.396 157.573 158.146 157.258 157.745 156.858 157.106 156.12 
156.029 155.028 154.814 154.006 153.87 160.182 159.692 160.24 159.515 
159.958 159.074 159.395 158.314 158.344 157.046 156.792 155.563 155.289 
154.405 154.235 161.41 161.139 161.659 161.249 161.626 161.059 161.352 
160.572 160.715 159.568 159.432 157.956 157.634 156.198 155.915 154.837 
154.653 162.686 162.339 162.894 162.485 162.878 162.429 162.707 162.197 
162.346 161.644 161.584 160.521 160.225 158.817 158.405 156.941 156.587 
155.378 155.131 148.771 148.54 148.912 149.582 148.507 148.849 149.716 
150.077 151.081 148.576 148.971 149.985 150.387 151.476 151.808 152.786 
148.472 149.005 150.019 150.604 151.651 152.12 152.986 153.32 154.119 
148.161 148.748 149.64 150.378 151.332 152.02 152.846 153.343 154.164 
154.606 155.68 147.806 148.342 149.115 149.828 150.75 151.516 152.443 
153.085 154.056 154.637 155.837 156.437 157.778 147.429 147.938 148.657 
149.299 150.237 150.976 152.029 152.73 153.836 154.521 155.754 156.487 
157.764 158.454 159.562 147.019 147.531 148.251 148.868 149.806 150.533 
151.604 152.36 153.482 154.259 155.447 156.257 157.441 158.214 159.267 
159.926 160.818 146.65 147.146 147.902 148.496 149.42 150.114 151.116 
151.878 152.922 153.77 154.911 155.811 156.981 157.8 158.879 159.574 
160.575 161.161 162.101 148.337 147.508 147.969 148.03 146.678 147.143 
147.273 147.698 147.865 146.081 146.423 146.586 146.97 147.087 147.556 
147.803 145.593 145.898 145.949 146.296 146.328 146.735 146.814 147.412 
147.652 144.752 145.247 145.182 145.578 145.452 145.855 145.763 146.315 
146.419 147.158 147.392 143.386 144.11 144.032 144.609 144.414 144.861 
144.631 145.13 145.101 145.839 146.07 146.884 147.117 141.802 142.569 
142.503 143.241 143.117 143.713 143.502 143.972 143.832 144.461 144.627 
145.498 145.808 146.613 146.792 140.41 141.038 140.974 141.672 141.62 
142.326 142.253 142.832 142.714 143.243 143.289 144.043 144.342 145.236 
145.511 146.261 146.386 139.34 139.818 139.775 140.303 140.275 140.894 
140.911 141.562 141.567 142.14 142.161 142.781 142.991 143.797 144.124 
144.944 145.162 145.854 145.991 138.793 138.053 138.71 139.215 137.232 
137.966 138.557 139.149 139.681 136.553 137.227 137.931 138.527 139.102 
139.664 140.274 136.199 136.712 137.443 137.987 138.608 139.127 139.732 
140.317 140.959 136.086 136.468 137.129 137.59 138.203 138.677 139.277 
139.814 140.475 141.033 141.663 136.123 136.4 137.006 137.352 137.949 
138.338 138.963 139.429 140.154 140.663 141.413 141.855 142.562 136.324 
136.508 137.117 137.338 137.958 138.222 138.905 139.256 140.064 140.495 
141.356 141.765 142.569 142.924 143.679 136.64 136.777 137.396 137.552 
138.199 138.383 139.104 139.36 140.19 140.541 141.42 141.804 142.618 
142.974 143.697 144.047 144.71 137.003 137.119 137.734 137.874 138.533 
138.701 139.427 139.645 140.439 140.727 141.547 141.889 142.662 143.009 
143.703 144.035 144.67 144.996 145.585 137.423 138.388 137.975 138.17 
139.525 139.034 139.241 138.79 139.011 140.796 140.247 140.483 139.968 
140.217 139.712 139.959 142.297 141.611 141.872 141.293 141.58 141.02 
141.281 140.726 140.988 144.147 143.276 143.502 142.784 143.092 142.467 
142.755 142.129 142.373 141.786 142.057 146.157 145.229 145.372 144.516 
144.761 144.055 144.373 143.698 143.955 143.256 143.476 142.863 143.127 
148.111 147.235 147.373 146.437 146.582 145.762 146.022 145.338 145.628 
144.92 145.128 144.382 144.565 143.922 144.152 149.986 149.187 149.434 
148.495 148.646 147.669 147.814 146.987 147.216 146.54 146.78 146.075 
146.236 145.472 145.608 144.931 145.117 151.728 151.036 151.356 150.552 
150.779 149.811 149.912 148.893 148.977 148.127 148.316 147.644 147.858 
147.156 147.279 146.496 146.58 145.878 146.02 146.698 147.376 147.352 
148.061 148.141 148.154 148.938 148.869 149.635 148.713 148.871 149.703 
149.756 150.549 150.496 151.284 149.227 149.41 150.352 150.486 151.396 
151.405 152.27 152.2 153.077 150.058 150.12 151.252 151.301 152.447 
152.407 153.499 153.353 154.407 154.199 155.186 151.095 151.157 152.389 
152.422 153.712 153.689 154.979 154.829 156.053 155.777 156.872 156.488 
157.382 151.906 152.122 153.292 153.496 154.782 154.965 156.342 156.379 
157.685 157.508 158.642 158.28 159.18 158.664 159.342 152.402 152.727 
153.818 154.166 155.457 155.868 157.394 157.684 159.139 159.101 160.28 
159.995 160.943 160.485 161.209 160.578 161.116 152.762 153.118 154.22 
154.596 155.938 156.452 158.142 158.675 160.346 160.521 161.754 161.55 
162.465 162.141 162.93 162.454 163.053 162.345 162.742 133.383 132.681 
133.106 133.386 132.197 132.504 132.792 133.25 133.599 131.943 132.071 
132.229 132.643 132.957 133.456 133.746 132.096 131.93 131.912 132.083 
132.282 132.742 133.032 133.537 133.86 132.726 132.308 132.252 132.021 
132.151 132.242 132.542 132.872 133.263 133.745 134.296 133.584 133.098 
133.105 132.678 132.844 132.549 132.834 132.736 133.113 133.308 133.89 
134.395 135.168 134.501 134.012 134.05 133.63 133.824 133.466 133.723 
133.387 133.651 133.475 133.937 134.157 134.929 135.435 136.27 135.48 
134.982 135.033 134.591 134.758 134.411 134.651 134.322 134.551 134.216 
134.554 134.451 135.116 135.375 136.242 136.631 137.387 136.457 135.99 
136.057 135.598 135.728 135.33 135.541 135.21 135.478 135.148 135.487 
135.228 135.78 135.772 136.549 136.76 137.53 137.768 138.373 133.926 
133.89 134.152 134.76 134.051 134.205 134.744 135.036 135.665 134.202 
134.364 134.854 135.08 135.677 135.97 136.583 134.392 134.526 135.081 
135.247 135.87 136.074 136.696 136.912 137.512 134.909 134.89 135.531 
135.588 136.289 136.405 137.096 137.183 137.804 137.917 138.545 135.789 
135.629 136.24 136.16 136.791 136.863 137.553 137.671 138.321 138.367 
138.966 139.031 139.638 136.796 136.582 137.104 136.921 137.398 137.348 
137.914 138.048 138.691 138.847 139.429 139.502 140.026 140.097 140.618 
137.772 137.541 138.005 137.782 138.235 138.035 138.557 138.487 139.124 
139.194 139.82 139.899 140.413 140.466 140.937 141.018 141.508 138.664 
138.443 138.877 138.671 139.168 138.956 139.521 139.322 139.947 139.818 
140.443 140.375 140.912 140.871 141.342 141.355 141.84 141.912 142.406 
134.284 135.093 134.844 135.231 135.943 135.648 135.943 135.775 136.19 
136.837 136.502 136.712 136.447 136.789 136.699 137.211 137.786 137.44 
137.706 137.313 137.619 137.359 137.906 137.847 138.538 138.8 138.446 
138.826 138.431 138.808 138.389 138.909 138.685 139.425 139.337 140.086 
139.833 139.482 139.846 139.544 139.966 139.623 140.098 139.803 140.439 
140.285 141.015 140.904 141.595 140.792 140.465 140.751 140.483 140.852 
140.636 141.089 140.894 141.442 141.282 141.908 141.796 142.45 142.36 
143.005 141.693 141.377 141.646 141.345 141.666 141.44 141.882 141.747 
142.305 142.195 142.785 142.657 143.248 143.153 143.765 143.707 144.308 
142.585 142.277 142.554 142.239 142.542 142.27 142.68 142.518 143.071 
142.993 143.595 143.497 144.058 143.937 144.494 144.417 144.999 144.948 
145.503 148.39 147.958 147.966 147.453 147.217 147.345 146.828 146.928 
146.517 146.485 146.61 146.254 146.344 146.077 146.151 145.97 145.849 
146.004 145.843 145.968 145.863 145.883 145.744 145.757 145.563 145.148 
145.369 145.211 145.531 145.393 145.601 145.3 145.423 145.03 145.157 
144.691 144.486 144.633 144.341 144.699 144.415 144.791 144.306 144.608 
144.008 144.307 143.701 143.958 143.295 143.957 143.996 143.58 143.778 
143.398 143.679 143.193 143.445 142.866 143.127 142.545 142.819 142.2 
142.419 141.742 143.437 143.451 142.94 143.03 142.572 142.743 142.29 
142.459 141.963 142.118 141.595 141.761 141.2 141.364 140.766 140.925 
140.357 142.886 142.891 142.339 142.374 141.862 141.97 141.491 141.639 
141.128 141.282 140.724 140.883 140.303 140.454 139.884 140.031 139.522 
139.688 139.264 
POINT_DATA 1002
SCALARS Distance double
LOOKUP_TABLE default
137.776 136.899 136.766 137.738 136.706 138.833 137.761 136.709 138.93 
140.029 137.885 136.801 139.149 140.286 141.364 138.265 137.17 139.587 
140.783 141.868 143.056 138.992 137.899 140.293 141.521 142.625 143.863 
145.09 139.781 138.716 141.031 142.293 143.46 144.723 146.017 147.084 
140.366 139.41 141.529 142.843 144.181 145.53 146.834 147.965 148.932 
140.949 140.124 142.003 143.286 144.74 146.249 147.607 148.748 149.776 
150.719 141.794 141.01 142.812 144.005 145.341 146.825 148.254 149.454 
150.54 151.556 152.387 135.959 135.827 134.984 134.919 134.058 135.825 
133.986 133.184 134.947 135.848 132.996 132.403 133.814 134.847 135.884 
132.242 131.962 132.671 133.535 134.774 136.215 132.005 131.968 132.212 
132.711 133.712 135.183 136.963 132.185 132.285 132.437 132.937 133.604 
134.57 136.078 137.858 132.705 132.876 132.92 133.534 134.278 134.878 
135.721 137.157 138.752 133.559 133.718 133.623 134.034 134.803 135.534 
136.071 136.95 138.317 139.726 134.634 134.611 135.665 135.722 136.646 
134.678 136.859 137.801 135.787 135.091 138.241 139.265 137.131 136.312 
135.939 139.812 140.799 138.759 137.909 137.313 136.729 141.416 142.27 
140.431 139.632 138.985 138.234 137.45 143.001 143.654 142.106 141.281 
140.67 140.006 139.213 138.58 144.429 144.897 143.72 142.946 142.347 
141.826 141.171 140.476 139.964 145.681 146.042 145.156 144.553 144.035 
143.599 143.061 142.39 141.753 141.283 142.612 142.993 144.661 143.499 
144.999 146.908 144.148 145.389 147.179 149.035 144.82 145.958 147.492 
149.421 151.032 145.343 146.6 147.969 149.79 151.584 153.076 145.758 
147.135 148.529 150.175 151.98 153.621 155.306 146.204 147.546 149.013 
150.581 152.298 153.999 155.774 157.675 146.674 147.914 149.336 150.867 
152.559 154.304 156.101 158.042 159.819 147.067 148.261 149.572 150.973 
152.599 154.42 156.265 158.17 159.999 161.391 143.708 146.071 144.958 
148.34 147.313 146.164 150.328 149.411 148.341 147.438 152.479 151.642 
150.577 149.559 148.851 155.023 154.499 153.525 152.158 150.984 150.197 
157.666 157.506 156.961 155.639 153.888 152.494 151.487 159.959 159.955 
159.812 159.108 157.518 155.611 154.021 152.718 161.624 161.698 161.73 
161.563 160.694 159.017 157.042 155.21 153.657 162.667 162.951 163.749 
164.439 165.033 163.212 166.21 166.242 165.014 163.333 167.143 166.6 
166.494 164.794 162.943 166.696 166.389 166.509 165.387 163.786 161.767 
166.156 166.326 165.721 165.094 164.064 162.337 159.866 165.99 165.969 
165.353 164.743 164.159 162.675 160.215 157.588 165.22 164.753 164.916 
164.293 163.835 162.703 160.29 157.612 155.459 163.605 163.057 163.703 
163.292 162.783 161.949 160.028 157.485 155.391 153.824 161.854 163.047 
162.153 163.433 162.363 163.995 163.838 162.267 164.351 164.929 163.626 
161.527 164.646 164.928 165.643 162.443 160.328 164.004 164.796 165.324 
165.966 160.999 159.074 162.569 163.8 164.872 165.647 166.128 159.658 
157.708 161.312 162.539 163.749 164.856 165.519 165.892 158.019 156.178 
159.966 161.525 162.652 163.587 164.241 164.625 164.852 156.201 154.816 
158.015 159.951 161.49 162.44 162.942 163.195 163.341 163.336 146.978 
148.233 148.02 149.45 149.057 149.587 150.603 150.027 150.921 150.951 
151.72 150.987 152.296 152.447 152.49 152.826 151.947 153.692 154.114 
154.226 154.38 153.828 152.838 154.894 155.653 156.003 156.259 156.422 
154.71 153.623 155.892 156.902 157.598 158.084 158.42 158.468 155.502 
154.287 156.841 158.049 159.087 159.915 160.398 160.536 160.399 145.573 
146.453 145.051 145.919 144.604 147.434 145.459 144.194 146.872 148.436 
144.963 143.674 146.355 147.899 149.434 144.392 143.155 145.774 147.361 
148.952 150.407 143.942 142.875 145.195 146.715 148.368 149.875 151.304 
143.743 142.833 144.786 146.102 147.656 149.211 150.691 152.139 143.722 
142.868 144.609 145.693 147.035 148.492 150.029 151.545 152.906 143.744 