# vtk DataFile Version 4.0
vtk output
ASCII
DATASET POLYDATA
POINTS 1002 float
-84.5128 -81.4669 72.7218 -84.5601 -80.7787 71.6012 -84.0933 -80.6583 72.2879 
-84.0534 -81.3959 73.521 -83.4456 -80.7188 73.087 -84.4053 -82.3252 74.0559 
-83.4428 -81.5114 74.4694 -82.7318 -80.8138 73.9576 -84.0305 -82.2923 75.0502 
-84.3212 -83.3398 75.6765 -82.8088 -81.6877 75.4804 -82.2505 -80.8028 74.9628 
-83.5475 -82.43 76.1568 -83.9914 -83.4034 76.8387 -84.2366 -84.5385 77.4623 
-82.3865 -81.8194 76.6633 -82.059 -80.7658 76.27 -83.0086 -82.6966 77.2412 
-83.5456 -83.6539 77.9577 -83.8309 -84.862 78.6536 -84.0901 -86.0393 79.2631 
-82.0569 -82.0129 78.0377 -81.7942 -80.925 77.5971 -82.5258 -83.0229 78.4557 
-83.0118 -84.0754 79.0101 -83.3187 -85.3494 79.7084 -83.6472 -86.6322 80.4493 
-83.9693 -87.7469 81.1405 -81.5819 -82.3971 79.2301 -81.3699 -81.3334 78.6585 
-82.0386 -83.3974 79.7119 -82.5429 -84.5271 80.212 -82.8192 -85.8878 80.8226 
-83.1291 -87.2448 81.5416 -83.5472 -88.4102 82.3142 -83.8223 -89.4997 83.0072 
-81.1648 -82.9208 80.3437 -81.0789 -81.8664 79.8606 -81.5852 -83.8442 80.8367 
-82.1759 -84.9293 81.4094 -82.4937 -86.3511 82.0713 -82.687 -87.8279 82.7386 
-83.02 -89.103 83.4023 -83.2993 -90.2798 84.0407 -83.4372 -91.4488 84.5744 
-80.9995 -83.4962 81.7591 -80.9977 -82.4238 81.4299 -81.3146 -84.4136 82.1067 
-81.88 -85.4051 82.5762 -82.2425 -86.7759 83.2042 -82.3601 -88.3944 83.8836 
-82.5513 -89.9065 84.5147 -82.7571 -91.2667 85.0607 -82.8415 -92.5401 85.5025 
-82.9259 -93.6601 85.8608 -80.9807 -84.0667 83.239 -81.0125 -82.9639 82.9457 
-81.1781 -85.078 83.5141 -81.6198 -86.0643 83.8427 -81.9591 -87.3168 84.2758 
-82.0364 -88.9695 84.8292 -82.1345 -90.746 85.4867 -82.3336 -92.379 86.1254 
-82.4476 -93.8164 86.5907 -82.4916 -95.0044 86.8772 -82.6056 -95.9103 87.0933 
-84.2528 -80.0315 70.9416 -83.6861 -79.9528 71.6921 -83.836 -79.2696 70.2834 
-83.2408 -79.1152 71.1261 -83.2999 -78.5006 69.6043 -82.9819 -79.9425 72.5346 
-82.7593 -78.1717 70.5805 -82.6323 -77.7524 68.9021 -82.6354 -78.9117 72.0751 
-82.3477 -79.8513 73.4371 -82.2663 -77.2187 70.1251 -82.0778 -76.8688 68.4523 
-82.3019 -77.8186 71.7611 -82.0763 -78.7248 73.1314 -81.9875 -79.7058 74.5747 
-81.9368 -76.1671 69.947 -81.9176 -75.7676 68.5565 -81.9597 -76.7563 71.6211 
-81.6322 -77.6814 73.0945 -81.4961 -78.6547 74.4297 -81.732 -79.6532 75.96 
-81.8198 -75.0536 70.0788 -82.1365 -74.7185 69.0011 -81.7366 -75.6103 71.6348 
-81.2545 -76.5598 73.2138 -80.7208 -77.657 74.5169 -80.9304 -78.6015 75.7328 
-81.3726 -79.8029 77.1431 -81.9736 -74.1078 70.451 -82.6659 -73.9479 69.4771 
-81.6616 -74.5196 71.8738 -81.2639 -75.328 73.4177 -80.4885 -76.4943 74.7396 
-80.1749 -77.5395 75.751 -80.6733 -78.6229 76.8068 -81.1015 -80.1792 78.2483 
-82.5499 -73.4561 71.1277 -83.4126 -73.4864 70.0803 -81.9042 -73.7072 72.5034 
-81.5138 -74.335 73.8786 -80.9768 -75.4212 75.0961 -80.3599 -76.566 76.0917 
-80.3335 -77.5739 76.96 -80.7876 -78.9512 78.1694 -81.0379 -80.7378 79.8124 
-83.3811 -73.1692 72.0691 -84.1266 -73.3485 70.9322 -82.569 -73.2774 73.4255 
-81.9422 -73.761 74.6286 -81.5417 -74.7212 75.6392 -81.1221 -75.9038 76.6352 
-80.7596 -76.9103 77.5644 -80.7632 -78.0214 78.5941 -80.9718 -79.6121 80.025 
-81.0537 -81.3878 81.6171 -84.3279 -73.3372 72.6915 -83.6356 -73.2554 74.0488 
-84.4614 -73.7185 74.4901 -83.789 -73.8164 75.6992 -84.5212 -74.4387 75.9166 
-82.7702 -73.5244 75.2727 -83.8672 -74.6138 77.0974 -84.6219 -75.1759 77.4704 
-82.875 -74.2204 76.7406 -82.0688 -74.2693 76.2245 -84.0351 -75.3314 78.9813 
-84.7939 -75.857 79.4045 -82.995 -75.0114 78.4406 -82.1654 -75.0831 77.8631 
-81.7084 -75.4439 77.251 -84.2627 -76.2451 80.8859 -84.9563 -76.8365 80.9611 
-83.2688 -75.8877 80.4871 -82.3501 -75.9436 79.8521 -81.8687 -76.2837 79.163 
-81.426 -76.6005 78.3905 -84.456 -77.6018 82.1413 -85.1226 -78.1331 82.096 
-83.5877 -77.2095 82.0069 -82.6876 -77.1159 81.5752 -82.0641 -77.2792 80.9988 
-81.6285 -77.496 80.3359 -81.1455 -77.678 79.4862 -84.6709 -79.0175 83.3733 
-85.3162 -79.3854 83.4429 -83.883 -78.7393 83.2229 -83.072 -78.6246 82.9161 
-82.3834 -78.6335 82.4804 -81.8107 -78.727 82.0228 -81.3386 -78.8738 81.4974 
-81.0523 -79.131 80.79 -84.9052 -80.2582 84.8559 -85.4853 -80.501 84.8979 
-84.1834 -80.1096 84.6811 -83.4315 -80.0734 84.4253 -82.7585 -80.0843 84.0784 
-82.134 -80.1481 83.6358 -81.5737 -80.3031 83.2118 -81.2184 -80.5396 82.8043 
-81.0897 -80.8976 82.2704 -85.0966 -81.4568 86.1332 -85.6143 -81.6026 86.0702 
-84.4566 -81.4141 86.0189 -83.7643 -81.4588 85.8338 -83.1102 -81.5041 85.6385 
-82.5065 -81.5616 85.2991 -81.9596 -81.7114 84.7983 -81.5319 -81.9374 84.3396 
-81.2607 -82.2184 83.9689 -81.1066 -82.5769 83.5279 -81.0462 -84.2487 84.3487 
-81.2428 -83.9506 84.8206 -81.1536 -85.7385 85.5897 -81.5571 -83.6759 85.2364 
-81.4747 -85.579 86.1272 -81.3022 -87.5078 87.0178 -81.915 -83.4672 85.7363 
-81.8911 -85.4715 86.7273 -81.6872 -87.5939 87.8155 -81.4958 -89.6728 88.6821 
-82.3393 -83.3003 86.2773 -82.2686 -85.4029 87.2452 -82.1154 -87.6814 88.4468 
-81.8692 -89.9896 89.4885 -81.7712 -92.3962 90.2155 -82.9077 -83.2061 86.6294 
-82.7682 -85.3238 87.5138 -82.5813 -87.6638 88.6566 -82.2945 -90.0804 89.8541 
-82.114 -92.6877 90.7628 -82.0785 -95.4616 91.6213 -83.5537 -83.1373 86.7689 
-83.4395 -85.2257 87.6136 -83.2558 -87.5515 88.6886 -82.8401 -89.963 89.9284 
-82.471 -92.6021 91.0503 -82.377 -95.5228 92.0948 -82.3171 -98.3099 92.9815 
-84.1981 -82.9819 86.9187 -84.0495 -84.9914 87.7503 -83.9263 -87.3074 88.8184 
-83.5231 -89.783 90.0528 -82.9372 -92.4186 91.2457 -82.6353 -95.3168 92.4615 
-82.5877 -98.2219 93.4734 -82.4583 -100.737 93.8648 -84.8347 -82.8161 87.0949 
-84.5836 -84.6235 87.9595 -84.3903 -86.8421 88.9826 -84.0925 -89.4077 90.1504 
-83.5666 -92.1719 91.291 -83.1008 -95.0463 92.5191 -82.9072 -97.9518 93.6936 
-82.7752 -100.607 94.2517 -82.5373 -102.908 94.0799 -85.419 -82.7766 87.1119 
-85.1501 -84.3348 88.0663 -84.8366 -86.3347 89.0343 -84.5166 -88.819 90.0594 
-84.1634 -91.6446 91.1102 -83.804 -94.5482 92.2629 -83.5187 -97.4474 93.4636 
-83.2603 -100.229 94.271 -82.9437 -102.704 94.3753 -82.6026 -104.922 94.0097 
-81.0557 -85.4769 84.6939 -81.1437 -87.1428 86.06 -81.308 -86.6561 85.0434 
-81.2833 -89.1248 87.5812 -81.3651 -88.5671 86.5172 -81.6424 -87.9204 85.4014 
-81.5495 -91.7786 89.3148 -81.5321 -91.0697 88.1878 -81.6092 -90.3589 86.9936 
-81.7578 -89.6259 85.822 -81.8258 -95.1822 91.0985 -81.7674 -94.5426 90.2286 
-81.7574 -93.7199 88.9929 -81.6732 -92.7575 87.6318 -81.7862 -91.7313 86.4545 
-81.9978 -98.5097 92.6474 -81.8075 -98.3282 92.1447 -81.8151 -97.6953 91.1692 
-81.7662 -96.5806 89.8049 -81.7507 -95.1839 88.4541 -81.9818 -93.7573 87.2576 
-82.1208 -101.215 93.5197 -81.792 -101.475 93.1696 -81.68 -101.286 92.5151 
-81.7229 -100.349 91.4436 -81.8112 -98.7917 90.3127 -81.999 -97.1086 89.196 
-82.2168 -95.4558 87.91 -82.2136 -103.608 93.6624 -81.9005 -104.191 93.3015 
-81.6963 -104.406 92.821 -81.6508 -103.829 91.9928 -81.7641 -102.343 91.1685 
-82.0368 -100.464 90.5318 -82.2723 -98.6277 89.5979 -82.3515 -96.7981 88.2313 
-82.2652 -105.901 93.566 -82.0066 -106.841 93.1849 -81.84 -107.437 92.8033 
-81.7317 -107.251 92.1109 -81.7079 -106.047 91.3144 -81.9243 -104.108 90.9162 
-82.2887 -101.954 90.5843 -82.4631 -99.8261 89.6817 -82.4645 -97.7717 88.345 
-82.4499 -107.667 93.7425 -82.1167 -109.053 93.3149 -82.3475 -110.669 93.5723 
-82.0032 -112.297 93.1211 -82.3057 -113.345 93.0448 -81.9168 -110.214 92.9522 
-81.9329 -114.881 92.3235 -82.3244 -115.296 91.8495 -81.793 -113.239 92.5179 
-81.8097 -110.554 92.3669 -81.9716 -116.756 90.8038 -82.5078 -116.651 90.4632 
-81.7011 -115.36 91.242 -81.6851 -112.942 91.5302 -81.7081 -109.756 91.4484 
-82.1855 -118.002 89.2665 -82.9941 -117.288 89.2808 -81.7547 -116.982 89.5224 
-81.6655 -114.548 90.1161 -81.6777 -111.598 90.6397 -81.7684 -107.976 90.8557 
-82.664 -117.853 88.1308 -83.7272 -116.767 88.396 -81.9293 -117.675 88.2365 
-81.8094 -115.678 88.8485 -81.8846 -112.815 89.7797 -81.9699 -109.446 90.502 
-82.1582 -105.547 90.7809 -83.3783 -116.244 87.6177 -84.3665 -115.284 88.0894 
-82.3386 -116.554 87.599 -81.9702 -115.508 88.1768 -82.1711 -113.217 89.1842 
-82.367 -110.166 90.1414 -82.4824 -106.484 90.589 -82.5416 -102.818 90.3993 
-83.9827 -114.179 87.8038 -84.6424 -113.379 88.2946 -83.0044 -114.435 87.6021 
-82.3145 -113.887 87.9664 -82.3467 -112.356 88.8301 -82.6825 -109.901 89.7602 
-82.8321 -106.647 90.2548 -82.7891 -103.152 90.0717 -82.6318 -100.159 89.3345 
-84.2707 -112.026 88.2678 -84.6961 -111.209 88.5622 -83.6114 -112.275 88.0472 
-82.9184 -111.836 88.1487 -82.6622 -110.658 88.6833 -82.8822 -108.729 89.402 
-83.0907 -106.065 89.8483 -83.0481 -102.994 89.7055 -82.8687 -100.155 89.005 
-82.6837 -97.8533 88.0423 -82.9438 -105.47 94.2008 -82.8165 -108.283 94.0458 
-83.3886 -105.893 94.2719 -83.2905 -108.728 94.1639 -83.849 -106.034 94.1381 
-82.7649 -111.067 93.7306 -83.8436 -108.779 94.0189 -84.3422 -105.521 93.8517 
-83.2746 -111.157 93.5948 -82.7491 -113.235 92.7535 -84.4869 -107.953 93.7881 
-84.8476 -104.169 93.4562 -83.8983 -110.807 93.3701 -83.2519 -112.747 92.3291 
-82.8113 -114.645 91.3702 -84.954 -106.149 93.3968 -85.1878 -102.307 92.8627 
-84.5576 -109.592 93.2561 -83.8947 -111.996 92.2291 -83.3823 -113.757 91.109 
-83.1933 -115.604 90.2663 -85.1642 -103.823 92.6614 -85.5439 -100.281 92.13 
-84.9145 -107.393 92.8623 -84.5095 -110.41 92.3128 -84.0251 -112.687 91.3046 
-83.8686 -114.477 90.3841 -83.9124 -115.942 89.4296 -85.6596 -101.314 91.9145 
-86.2476 -98.1098 91.4396 -85.2187 -104.678 92.19 -84.9083 -107.767 92.0543 
-84.5535 -110.464 91.4791 -84.3246 -112.751 90.7162 -84.4457 -114.371 89.84 
-84.5783 -115.199 88.8712 -86.5594 -98.7039 91.3398 -87.0702 -95.8714 90.6963 
-85.9753 -101.867 91.7327 -85.4939 -104.845 91.7491 -85.1051 -107.367 91.4059 
-84.7371 -109.697 90.8706 -84.6273 -111.741 90.2227 -84.8095 -113.033 89.4671 
-84.8832 -113.512 88.7574 -87.3436 -96.1644 90.57 -87.6235 -93.8215 89.7006 
[...]
CELL_DATA 2000
SCALARS Distance double
LOOKUP_TABLE default
136.444 136.499 136.799 137.502 136.619 136.922 137.699 137.979 138.8 
136.822 137.111 137.988 138.273 139.182 139.429 140.348 137.257 137.442 
138.38 138.637 139.621 139.881 140.872 141.092 142.076 137.902 138.021 
138.958 139.132 140.131 140.363 141.401 141.651 142.72 142.925 143.984 
138.528 138.678 139.604 139.766 140.76 140.951 142.014 142.233 143.356 
143.593 144.733 144.919 146.003 139.23 139.312 140.256 140.398 141.421 
141.621 142.735 142.938 144.096 144.295 145.46 145.66 146.771 146.927 
147.944 140.248 140.17 141.141 141.146 142.195 142.328 143.481 143.689 
144.881 145.086 146.271 146.446 147.591 147.716 148.776 148.847 149.811 
141.434 141.306 142.261 142.174 143.196 143.213 144.323 144.459 145.627 
145.842 147.053 147.277 148.505 148.644 149.816 149.824 150.886 150.803 
151.756 135.797 134.797 135.472 135.818 133.714 134.442 134.793 135.495 
135.873 132.55 133.329 133.707 134.443 134.816 135.543 136.001 131.412 
132.178 132.625 133.374 133.797 134.501 134.975 135.747 136.383 130.515 
131.143 131.655 132.371 132.862 133.537 134.018 134.751 135.379 136.238 
136.994 129.995 130.397 130.876 131.506 132.028 132.668 133.117 133.792 
134.313 135.167 135.867 136.834 137.592 129.885 130.025 130.402 130.85 
131.392 131.94 132.424 132.961 133.403 134.08 134.683 135.616 136.425 
137.433 138.288 130.232 130.113 130.453 130.603 131.176 131.516 132.141 
132.5 133.051 133.416 134.008 134.598 135.445 136.339 137.386 138.327 
139.347 130.979 130.702 131.092 130.963 131.537 131.6 132.297 132.497 
133.228 133.423 134.126 134.347 135.177 135.686 136.784 137.59 138.769 
139.586 140.615 131.615 132.832 132.061 131.816 134.109 133.362 133.12 
132.346 132.196 135.388 134.636 134.412 133.643 133.472 132.799 132.838 
136.883 136.029 135.851 134.986 134.871 134.125 134.211 133.597 133.787 
138.498 137.657 137.563 136.611 136.551 135.677 135.824 135.104 135.339 
134.636 134.781 140.028 139.276 139.273 138.401 138.38 137.482 137.598 
136.814 137.053 136.297 136.477 135.663 135.839 141.59 140.838 140.923 
140.109 140.175 139.318 139.436 138.614 138.829 138.052 138.305 137.486 
137.769 136.935 137.372 143.208 142.476 142.629 141.827 141.986 141.147 
141.346 140.492 140.735 139.894 140.194 139.382 139.763 138.968 139.455 
138.691 139.283 144.701 144.075 144.264 143.55 143.744 142.982 143.223 
142.426 142.699 141.862 142.157 141.33 141.693 140.937 141.391 140.703 
141.213 140.556 141.071 142.154 142.328 142.754 143.78 142.532 142.959 
144.073 144.468 145.605 142.857 143.243 144.46 144.863 146.157 146.505 
147.817 143.314 143.651 144.9 145.323 146.711 147.144 148.571 148.898 
150.342 143.82 144.14 145.344 145.767 147.125 147.647 149.082 149.575 
151.026 151.466 153.026 144.285 144.608 145.767 146.184 147.492 148.01 
149.405 149.956 151.387 151.964 153.514 154.136 155.755 144.725 145.024 
146.125 146.545 147.818 148.349 149.731 150.269 151.676 152.243 153.778 
154.473 156.114 156.774 158.212 145.168 145.435 146.446 146.837 148.017 
148.578 149.913 150.536 151.912 152.514 153.975 154.673 156.271 157.018 
158.483 159.017 160.106 145.546 145.824 146.754 147.11 148.16 148.676 
149.884 150.561 151.876 152.605 153.99 154.758 156.242 157.058 158.493 
159.171 160.3 160.701 161.537 142.363 144.019 143.202 143.227 145.838 
144.938 145.041 144.146 144.203 148.001 146.921 147.045 146.064 146.183 
145.216 145.32 150.608 149.348 149.537 148.314 148.506 147.354 147.503 
146.435 146.608 153.547 152.253 152.69 151.234 151.602 150.096 150.356 
148.913 149.119 147.881 148.112 156.412 155.313 155.96 154.629 155.159 
153.587 153.925 152.199 152.395 150.757 150.946 149.539 149.708 158.764 
157.983 158.591 157.665 158.167 156.991 157.264 155.77 155.833 154.185 
154.219 152.618 152.653 151.15 151.119 160.528 159.991 160.519 159.899 
160.371 159.564 159.815 158.691 158.672 157.308 157.212 155.772 155.681 
154.163 153.977 152.435 152.195 161.948 161.535 162.117 161.637 162.237 
161.589 161.998 161.03 161.102 159.867 159.77 158.478 158.374 157.018 
156.795 155.272 154.888 153.353 152.997 162.891 164.631 163.574 163.214 
166.398 165.462 165.175 163.983 163.487 167.54 167.044 166.839 165.905 
165.344 164.117 163.276 168.017 167.854 167.658 167.139 166.514 165.654 
164.663 163.512 162.305 168.174 168.155 167.943 167.607 166.927 166.354 
165.387 164.557 163.336 162.237 160.935 167.881 168.068 167.802 167.696 
167.022 166.59 165.701 165.073 164.041 163.136 161.902 160.802 159.533 
167.094 167.412 166.996 167.198 166.549 166.479 165.658 165.313 164.386 
163.743 162.58 161.645 160.276 159.263 157.884 166.113 166.438 165.931 
166.169 165.511 165.689 164.943 164.983 164.111 163.858 162.698 162.061 
160.585 159.732 158.163 157.325 155.854 164.971 165.388 164.92 165.137 
164.486 164.623 163.898 164.043 163.232 163.26 162.171 161.86 160.402 
159.76 158.137 157.39 155.865 155.167 153.847 163.033 163.677 163.802 
164.716 164.137 164.433 165.354 165.513 166.362 164.216 164.79 165.708 
165.977 166.622 166.848 167.38 163.744 164.671 165.654 166.117 166.581 
166.817 167.114 167.45 167.773 162.638 163.897 164.979 165.809 166.308 
166.618 166.776 167.037 167.301 167.7 167.963 161.092 162.469 163.506 
164.757 165.406 166.128 166.365 166.705 166.924 167.26 167.544 167.848 
167.873 159.553 160.786 161.667 163.01 163.699 164.844 165.199 165.998 
166.197 166.783 166.97 167.395 167.41 167.583 167.273 158.161 159.257 
160.044 161.22 161.907 163.042 163.456 164.466 164.642 165.572 165.64 
166.452 166.373 166.905 166.592 166.786 166.281 156.692 157.798 158.521 
159.67 160.377 161.438 161.937 162.819 163.03 163.841 163.878 164.746 
164.664 165.48 165.211 165.791 165.325 165.622 165.037 145.994 147.094 
146.773 147.256 148.343 147.984 148.542 148.137 148.685 149.668 149.32 
149.928 149.509 150.114 149.695 150.379 150.92 150.66 151.327 150.943 
151.616 151.206 151.976 151.567 152.388 152.062 151.911 152.706 152.382 
153.184 152.802 153.719 153.303 154.266 153.76 154.632 153.147 153.098 
154.066 153.827 154.767 154.448 155.494 155.145 156.238 155.774 156.771 
156.135 156.976 154.163 154.222 155.325 155.219 156.262 156.049 157.144 
156.906 158.051 157.73 158.783 158.286 159.159 158.484 159.185 155.069 
155.226 156.394 156.435 157.56 157.493 158.657 158.52 159.723 159.491 
160.602 160.213 161.1 160.54 161.175 160.494 160.931 155.862 156.092 
157.282 157.429 158.601 158.692 159.949 159.98 161.291 161.171 162.364 
162.027 162.952 162.413 163.024 162.346 162.704 161.97 162.174 145.419 
144.829 145.552 146.449 144.239 144.947 145.839 146.618 147.623 143.669 
144.366 145.211 145.976 146.961 147.829 148.897 143.028 143.765 144.567 
145.315 146.197 147.078 148.107 149.058 150.089 142.359 143.09 143.906 
144.646 145.461 146.264 147.172 148.135 149.134 150.137 151.119 141.86 
142.477 143.313 144.012 144.862 145.572 146.421 147.217 148.123 149.077 
150.044 151.084 152.076 141.567 142.064 142.841 143.473 144.337 145.029 
145.906 146.588 147.438 148.177 149.055 149.969 150.935 152.004 153.016 
141.337 141.782 142.458 143.02 143.808 144.493 145.372 146.093 146.964 
147.626 148.437 149.127 149.973 150.868 151.829 152.908 153.899 141.085 
141.51 142.124 142.626 143.327 143.947 144.763 145.502 146.398 147.138 
147.99 148.626 149.397 150.054 150.867 151.747 152.67 153.743 154.685 
141.136 141.601 141.623 142.185 142.143 142.133 142.717 142.747 143.385 
142.815 142.714 143.302 143.315 144.01 144.051 144.808 143.778 143.504 
144.045 143.943 144.672 144.726 145.589 145.63 146.48 144.922 144.587 
145.033 144.765 145.423 145.431 146.392 146.495 147.471 147.413 148.183 
145.865 145.652 146.029 145.746 146.283 146.227 147.217 147.373 148.498 
148.491 149.323 149.072 149.65 146.511 146.405 146.779 146.617 147.163 
147.113 148.124 148.284 149.513 149.57 150.476 150.236 150.802 150.467 
151.028 147.026 146.948 147.374 147.312 148.012 148.027 149.122 149.27 
150.523 150.605 151.543 151.357 151.937 151.622 152.206 151.946 152.708 
147.509 147.459 147.996 147.989 148.857 148.942 150.107 150.272 151.474 
151.576 152.493 152.378 153.011 152.756 153.418 153.182 154.026 153.811 
154.715 147.949 149.287 148.568 148.666 151.14 150.264 150.458 149.578 
149.776 152.969 152.192 152.424 151.566 151.811 150.9 151.147 154.914 
154.074 154.393 153.52 153.759 152.907 153.111 152.261 152.422 157.346 
156.372 156.922 155.782 156.136 154.986 155.19 154.167 154.249 153.355 
153.324 159.611 158.911 159.605 158.588 159.082 157.769 158.054 156.626 
156.724 155.371 155.292 154.139 153.942 161.244 160.856 161.483 160.932 
161.367 160.533 160.788 159.621 159.714 158.246 158.149 156.55 156.311 
154.857 154.587 162.71 162.32 162.892 162.444 162.787 162.261 162.417 
161.777 161.82 160.924 160.809 159.503 159.187 157.596 157.206 155.654 
155.327 164.154 163.79 164.376 163.869 164.24 163.606 163.763 163.1 
163.134 162.495 162.427 161.637 161.357 160.213 159.73 158.316 157.812 
156.377 155.978 147.805 147.821 148.163 149.025 147.857 148.256 149.262 
149.689 150.826 148.006 148.423 149.537 149.978 151.123 151.544 152.634 
148.075 148.591 149.661 150.19 151.249 151.741 152.778 153.252 154.425 
147.776 148.451 149.373 150.066 151.006 151.66 152.672 153.299 154.529 
155.181 156.643 147.252 147.943 148.786 149.541 150.467 151.239 152.327 
153.107 154.42 155.215 156.673 157.45 158.851 146.84 147.419 148.27 
148.946 149.941 150.707 151.89 152.738 154.093 154.994 156.401 157.286 
158.607 159.397 160.545 146.579 147.084 147.921 148.528 149.531 150.269 
151.441 152.297 153.574 154.521 155.831 156.809 158.095 159.01 160.233 
160.978 162.069 146.335 146.828 147.606 148.194 149.125 149.856 150.936 
151.785 152.934 153.868 155.07 156.086 157.374 158.407 159.733 160.645 
161.869 162.547 163.554 147.33 146.669 147.097 147.231 145.634 146.285 
146.348 146.866 147.057 144.234 145.043 145.191 145.846 145.949 146.643 
147.026 142.913 143.637 143.846 144.59 144.779 145.483 145.774 146.623 
147.086 141.747 142.413 142.597 143.306 143.549 144.278 144.543 145.336 
145.67 146.572 146.885 140.497 141.227 141.408 142.111 142.296 143.025 
143.217 144.006 144.218 145.089 145.327 146.221 146.422 139.214 139.952 
140.153 140.879 141.013 141.727 141.832 142.593 142.729 143.565 143.764 
144.655 144.904 145.777 146.029 138.03 138.709 138.886 139.591 139.703 
140.399 140.475 141.194 141.318 142.092 142.293 143.129 143.41 144.295 
144.623 145.483 145.79 136.922 137.546 137.669 138.328 138.41 139.079 
139.153 139.853 139.992 140.738 140.952 141.733 142.006 142.847 143.188 
144.079 144.435 145.285 145.582 136.345 135.634 136.348 137.047 134.924 
135.628 136.343 137.049 137.753 134.424 135.018 135.766 136.388 137.12 
137.779 138.509 134.213 134.68 135.463 135.955 136.703 137.245 138.022 
138.627 139.409 134.211 134.576 135.359 135.778 136.539 136.971 137.752 
138.26 139.092 139.636 140.432 134.43 134.655 135.411 135.749 136.55 
136.921 137.743 138.142 138.998 139.439 140.286 140.735 141.528 134.919 
134.996 135.725 135.915 136.725 137.023 137.914 138.265 139.182 139.516 
140.392 140.72 141.559 141.918 142.737 135.55 135.57 136.269 136.348 
137.102 137.289 138.148 138.476 139.417 139.772 140.666 140.952 141.78 
142.06 142.889 143.208 144.014 136.147 136.182 136.843 136.91 137.608 
137.721 138.489 138.728 139.599 139.96 140.84 141.192 141.995 142.298 
143.073 143.384 144.16 144.472 145.189 136.662 137.719 137.234 137.38 
138.998 138.394 138.554 138.024 138.185 140.523 139.802 139.972 139.327 
139.514 138.901 139.092 142.224 141.416 141.585 140.862 141.074 140.37 
140.567 139.901 140.169 144.115 143.204 143.337 142.527 142.736 142.006 
142.207 141.47 141.676 141.04 141.351 146.168 145.215 145.344 144.377 
144.537 143.707 143.912 143.141 143.311 142.581 142.801 142.206 142.499 
148.162 147.311 147.53 146.516 146.65 145.638 145.801 144.906 145.078 
144.253 144.423 143.7 143.941 143.335 143.606 150.006 149.261 149.586 
148.706 148.896 147.854 147.955 146.915 147.035 146.093 146.234 145.388 
145.568 144.844 145.081 144.45 144.693 151.853 151.094 151.45 150.687 
150.951 150.04 150.135 149.092 149.121 148.103 148.172 147.244 147.352 
146.521 146.669 145.954 146.139 145.51 145.695 146.406 146.918 146.999 
147.708 147.543 147.606 148.428 148.448 149.278 148.316 148.358 149.287 
149.293 150.232 150.196 151.124 149.2 149.236 150.264 150.272 151.307 
151.261 152.265 152.165 153.126 150.21 150.221 151.349 151.356 152.538 
152.48 153.633 153.464 154.539 154.302 155.312 151.268 151.316 152.54 
152.562 153.909 153.877 155.26 155.072 156.365 156 157.167 156.714 
157.763 152.097 152.32 153.617 153.789 155.253 155.35 156.885 156.826 
158.27 157.996 159.275 158.809 159.921 159.324 160.263 152.628 153.012 
154.381 154.764 156.327 156.645 158.255 158.399 159.84 159.77 160.978 
160.756 161.792 161.422 162.297 161.735 162.427 153.092 153.512 154.964 
155.449 157.096 157.592 159.272 159.619 161.058 161.137 162.221 162.133 
163 162.882 163.645 163.431 164.054 163.614 164.062 130.88 130.22 
130.59 130.812 129.842 130.056 130.276 130.662 130.902 129.775 129.761 
129.827 130.127 130.275 130.663 130.797 130.152 129.814 129.691 129.718 
129.735 129.992 130.064 130.48 130.75 131.062 130.43 130.262 129.862 
129.831 129.679 129.751 129.88 130.206 130.66 131.274 132.264 131.542 
131.421 130.774 130.77 130.229 130.312 129.987 130.317 130.406 131.082 
131.497 132.281 133.454 132.784 132.667 132.027 132.015 131.406 131.47 
130.917 131.152 130.876 131.455 131.572 132.375 132.669 133.419 134.562 
133.946 133.823 133.214 133.167 132.609 132.664 132.134 132.317 131.888 
132.313 132.157 132.85 132.951 133.719 133.894 134.586 135.603 135.042 
134.954 134.35 134.295 133.722 133.78 133.28 133.486 133.052 133.413 
133.103 133.647 133.55 134.234 134.302 134.999 135.108 135.74 131.383 
131.262 131.543 132.118 131.308 131.519 132.023 132.342 132.981 131.259 
131.533 132.035 132.314 132.927 133.275 133.96 131.344 131.537 132.137 
132.362 132.993 133.278 133.962 134.296 134.987 131.891 131.87 132.529 
132.604 133.25 133.415 134.087 134.35 135.058 135.362 136.074 132.763 
132.597 133.177 133.131 133.709 133.753 134.351 134.521 135.206 135.481 
136.225 136.516 137.253 133.76 133.492 133.977 133.828 134.364 134.291 
134.854 134.87 135.509 135.676 136.404 136.678 137.414 137.698 138.379 
134.85 134.498 134.947 134.693 135.252 135.072 135.687 135.542 136.184 
136.134 136.824 136.927 137.627 137.839 138.49 138.746 139.335 135.959 
135.591 135.996 135.703 136.228 136.03 136.636 136.473 137.084 136.94 
137.557 137.491 138.118 138.151 138.754 138.88 139.446 139.646 140.177 
131.826 132.536 132.404 132.964 133.362 133.141 133.634 133.589 134.204 
134.325 134.021 134.451 134.286 134.868 134.831 135.488 135.351 135.025 
135.475 135.206 135.774 135.601 136.288 136.213 136.967 136.415 136.065 
136.547 136.282 136.889 136.65 137.317 137.129 137.859 137.773 138.531 
137.568 137.171 137.603 137.329 137.922 137.747 138.399 138.208 138.852 
138.691 139.379 139.305 140.025 138.701 138.335 138.709 138.375 138.858 
138.68 139.298 139.192 139.83 139.68 140.326 140.185 140.901 140.814 
141.569 139.669 139.402 139.783 139.456 139.859 139.596 140.141 140.022 
140.701 140.615 141.314 141.175 141.885 141.751 142.502 142.408 143.161 
140.497 140.3 140.714 140.464 140.871 140.593 141.085 140.896 141.554 
141.478 142.22 142.142 142.853 142.734 143.423 143.325 144.023 143.955 
144.628 147.198 146.739 146.861 146.563 146.106 146.255 145.812 145.999 
145.453 145.339 145.474 144.853 145.042 144.431 144.656 144.028 144.379 
144.583 143.926 144.062 143.471 143.653 143.151 143.301 142.783 143.261 
143.527 142.944 143.14 142.596 142.792 142.341 142.519 142.03 142.144 
141.608 142.299 142.472 141.949 142.155 141.62 141.864 141.336 141.615 
141.036 141.273 140.623 140.844 140.252 141.602 141.657 141.138 141.257 
140.725 140.881 140.303 140.513 139.899 140.143 139.492 139.735 139.119 
139.415 138.923 141.034 141.025 140.464 140.522 139.979 140.062 139.492 
139.577 139 139.112 138.55 138.686 138.138 138.327 137.849 138.148 
137.76 140.573 140.492 139.898 139.878 139.301 139.342 138.762 138.828 
138.251 138.337 137.788 137.888 137.347 137.461 136.947 137.145 136.719 
137.034 136.679 
POINT_DATA 1002
SCALARS Distance double
LOOKUP_TABLE default
137.086 136.122 136.124 137.187 136.188 138.234 137.393 136.278 138.52 
139.651 137.664 136.527 138.91 140.12 141.278 138.138 137.109 139.341 
140.617 141.883 143.071 138.819 137.783 139.921 141.135 142.457 143.824 
145.062 139.437 138.368 140.561 141.801 143.111 144.503 145.875 147.077 
140.134 139.192 141.2 142.504 143.905 145.276 146.606 147.836 148.925 
141.187 140.369 142.106 143.282 144.66 146.082 147.461 148.712 149.788 
150.727 142.366 141.57 143.232 144.253 145.438 146.789 148.295 149.766 
150.977 151.9 152.648 135.148 135.146 134.1 134.082 132.963 135.155 
132.946 131.745 134.095 135.2 131.846 130.649 133.086 134.213 135.516 
130.939 129.963 132.187 133.317 134.529 136.094 130.296 129.731 131.399 
132.507 133.534 134.881 136.627 130.054 129.878 130.862 131.922 132.85 
133.829 135.342 137.308 130.413 130.412 130.901 131.771 132.735 133.574 
134.625 136.37 138.484 131.288 131.245 131.584 132.134 132.991 133.964 
134.844 136.066 137.919 139.908 132.318 132.583 133.599 133.907 134.824 
132.876 135.18 136.164 134.152 133.393 136.749 137.742 135.63 134.836 
134.41 138.485 139.272 137.459 136.569 136.071 135.539 140.075 140.741 
139.262 138.422 137.807 137.285 136.61 141.703 142.33 140.994 140.272 
139.617 139.067 138.567 138.134 143.398 143.899 142.789 142.179 141.589 
141.002 140.517 140.208 140.026 144.93 145.277 144.466 143.981 143.514 
142.999 142.475 142.089 141.878 141.739 143.157 143.37 144.817 143.633 
145.219 146.783 144.009 145.742 147.516 149.158 144.474 146.22 148.177 
150.026 151.848 144.951 146.613 148.548 150.528 152.531 154.706 145.362 
146.993 148.875 150.799 152.84 155.18 157.387 145.732 147.284 149.184 
151.14 153.096 155.407 157.763 159.493 146.109 147.501 149.271 151.291 
153.315 155.523 157.892 159.801 161.03 146.434 147.723 149.26 151.127 
153.219 155.445 157.767 159.827 161.28 162.309 144.084 145.917 145.126 
148.066 147.154 146.272 150.825 149.726 148.642 147.602 154.094 153.161 
151.93 150.505 149.26 157.15 156.644 155.684 154.173 152.517 151.07 
159.419 159.212 158.655 157.464 155.874 154.274 152.622 161.069 161.076 
160.836 159.966 158.597 157.175 155.602 153.714 162.515 162.779 162.869 
162.301 161.051 159.673 158.285 156.507 154.45 163.857 164.358 165.687 
166.352 167.163 164.824 167.625 167.84 166.549 164.67 168.106 168.112 
167.251 165.752 163.577 168.256 168.162 167.473 166.068 164.351 162.094 
167.789 167.697 167.362 166.238 164.81 162.976 160.652 166.755 166.833 
166.446 165.843 164.904 163.458 161.323 158.865 165.732 165.779 165.311 
164.784 164.214 163.23 161.421 159.023 156.609 164.658 164.482 164.375 
163.782 163.143 162.353 160.946 158.85 156.545 154.446 162.944 164.615 
163.482 165.211 163.73 166.246 165.44 163.489 166.483 167.145 165.097 
162.66 166.437 166.832 167.374 163.948 161.319 165.905 166.594 166.911 
167.623 162.152 159.817 164.431 165.895 166.616 167.251 167.765 160.402 
158.453 162.459 164.219 165.493 166.49 167.176 167.293 158.931 157.109 
160.814 162.462 163.699 164.745 165.697 166.253 166.237 157.365 155.61 
159.279 161.052 162.308 163.094 163.808 164.501 164.89 164.856 146.272 
147.614 147.4 148.94 148.691 149.077 150.334 149.984 150.516 150.755 
151.669 151.112 151.986 152.356 152.828 152.959 152.123 153.501 154.076 
154.736 155.242 154.221 153.108 155.033 155.781 156.634 157.353 157.725 
155.35 154.042 156.42 157.349 158.316 159.215 159.791 159.969 156.298 
154.879 157.549 158.726 159.909 160.958 161.65 161.872 161.696 144.71 
145.676 144.105 145.064 143.552 146.781 144.486 142.972 146.086 148.019 
143.842 142.273 145.378 147.132 149.175 143.16 141.648 144.721 146.288 
148.103 150.129 142.625 141.309 144.158 145.713 147.267 149.004 151.006 
142.261 141.135 143.639 145.219 146.789 148.264 149.902 151.906 141.954 
140.924 143.164 144.626 146.275 147.831 149.221 150.803 152.784 141.656 