# vtk DataFile Version 4.0
vtk output
ASCII
DATASET POLYDATA
POINTS 1002 float
-85.6886 -84.2582 73.4951 -85.8081 -83.5489 72.3985 -85.3871 -83.3135 73.134 
-85.2315 -84.0956 74.3172 -84.91 -83.0605 74.0791 -85.4728 -85.1564 74.7582 
-84.7056 -83.9546 75.2665 -84.259 -82.9634 74.9287 -84.9567 -85.0867 75.6255 
-85.2395 -86.1513 76.2586 -84.0068 -84.0334 76.0984 -83.4785 -83.0717 75.5737 
-84.441 -85.0525 76.6248 -84.724 -86.1678 77.1847 -85.0608 -87.2312 77.8829 
-83.2366 -84.2825 76.8972 -82.8321 -83.1931 76.4493 -83.808 -85.263 77.6165 
-84.259 -86.2579 78.3213 -84.5367 -87.4472 78.8977 -84.8028 -88.6337 79.4588 
-82.6379 -84.4598 77.98 -82.3956 -83.3116 77.7134 -83.0802 -85.6055 78.555 
-83.6245 -86.6242 79.3627 -83.9794 -87.8107 80.0353 -84.1551 -89.2132 80.4898 
-84.3399 -90.4782 80.9158 -82.2198 -84.6584 79.231 -81.9429 -83.6233 78.915 
-82.4686 -85.8867 79.59 -82.8121 -87.1465 80.1337 -83.1909 -88.4254 80.8238 
-83.4249 -89.8751 81.3995 -83.5896 -91.301 81.8101 -83.842 -92.4385 82.2111 
-81.799 -85.0867 80.3261 -81.4091 -84.096 79.9143 -82.0578 -86.2641 80.7464 
-82.1573 -87.6896 81.0776 -82.3365 -89.1899 81.4765 -82.6115 -90.6399 82.0321 
-82.8538 -92.0273 82.573 -83.1304 -93.2362 83.0159 -83.4611 -94.2112 83.4394 
-81.3575 -85.6658 81.3142 -80.9969 -84.5895 80.9865 -81.6986 -86.8528 81.8076 
-81.7809 -88.3018 82.2637 -81.7847 -89.9514 82.5797 -81.9718 -91.4776 82.9252 
-82.2495 -92.775 83.4191 -82.5333 -93.954 83.9366 -82.8427 -95.022 84.3708 
-83.1049 -95.947 84.7415 -81.0425 -86.2718 82.3941 -80.8454 -85.1232 82.1979 
-81.3287 -87.5175 82.7601 -81.4684 -88.9606 83.2716 -81.4902 -90.6234 83.7828 
-81.6438 -92.2267 84.1899 -81.91 -93.5572 84.5836 -82.1429 -94.7582 85.0503 
-82.3671 -95.9446 85.4956 -82.5719 -97.0263 85.8135 -82.6991 -97.9252 86.0215 
-85.551 -82.8106 71.6888 -85.0617 -82.4856 72.5309 -85.1363 -82.0544 70.9334 
-84.6019 -81.668 71.8509 -84.7257 -81.2007 70.2942 -84.5036 -82.186 73.5416 
-84.2581 -80.7472 71.3184 -84.5346 -80.1558 69.9555 -84.0067 -81.3378 72.886 
-83.7851 -82.0713 74.354 -84.0691 -79.6171 71.1219 -84.4321 -78.9043 69.8634 
-83.5585 -80.3613 72.3615 -83.2461 -81.1559 73.7302 -83.0599 -82.0779 75.0903 
-83.8203 -78.3411 71.1133 -84.278 -77.5823 69.9066 -83.122 -79.1652 72.1026 
-82.6305 -80.0789 73.2253 -82.5757 -81.0315 74.6995 -82.5526 -82.1009 76.2542 
-83.6862 -77.1566 71.2628 -84.3606 -76.4976 70.243 -82.8632 -77.9307 72.0966 
-82.1737 -78.8335 72.9805 -82.0247 -79.8683 74.3954 -82.1565 -81.0287 76.102 
-82.104 -82.3128 77.6254 -83.9512 -76.3037 71.8358 -84.7993 -75.9055 71.0091 
-83.0408 -76.9278 72.5569 -82.2553 -77.697 73.2713 -81.8532 -78.6617 74.4402 
-81.8058 -79.9052 76.039 -81.737 -81.3328 77.549 -81.5285 -82.7486 78.7896 
-84.4225 -75.8562 72.8166 -85.2904 -75.7627 72.0327 -83.4739 -76.2548 73.5513 
-82.665 -76.8858 74.2307 -82.1449 -77.7091 75.1396 -81.8531 -78.8713 76.4055 
-81.6051 -80.3428 77.7371 -81.2872 -81.8216 78.9004 -81.0325 -83.2071 79.954 
-84.8488 -75.7301 73.8759 -85.6474 -75.8422 73.0632 -83.9186 -75.9032 74.7029 
-83.0512 -76.3969 75.4709 -82.4695 -77.1256 76.2674 -82.1212 -78.1639 77.2164 
-81.7997 -79.5584 78.2842 -81.417 -81.0044 79.3456 -81.0497 -82.3229 80.3403 
-80.8449 -83.676 81.2869 -85.5176 -75.8595 74.5764 -84.6606 -75.8123 75.5007 
-85.5229 -76.057 76.0887 -84.6423 -76.2343 77.0601 -85.6521 -76.6502 77.4662 
-83.6829 -76.1239 76.4347 -84.7603 -77.0525 78.486 -85.6663 -77.5246 78.8293 
-83.6695 -76.7369 78.0587 -82.8671 -76.7664 77.3173 -84.7925 -77.9981 79.9338 
-85.5643 -78.406 80.3319 -83.8677 -77.6532 79.508 -82.9471 -77.543 78.9578 
-82.4066 -77.7379 78.1618 -84.8105 -79.0176 81.4101 -85.6295 -79.4117 81.7753 
-84.0553 -78.7321 80.9252 -83.2433 -78.6428 80.3801 -82.5313 -78.8169 79.785 
-82.0947 -79.1304 79.0675 -84.9989 -80.3133 82.7728 -85.7991 -80.704 83.0183 
-84.2349 -80.0672 82.3468 -83.4836 -79.9803 81.8214 -82.7237 -80.1181 81.3064 
-82.1291 -80.3803 80.7692 -81.7159 -80.633 80.0949 -85.1541 -81.7073 84.0646 
-85.7997 -82.0144 84.2341 -84.4758 -81.552 83.708 -83.7166 -81.4844 83.2528 
-82.889 -81.478 82.8359 -82.1948 -81.594 82.41 -81.7179 -81.7392 81.8633 
-81.3224 -81.9314 81.1315 -85.1181 -82.9333 85.3085 -85.6951 -83.1197 85.45 
-84.6158 -82.9099 84.9523 -84.0274 -82.981 84.478 -83.2341 -82.9555 84.1233 
-82.4293 -82.9011 83.8182 -81.8567 -82.9442 83.3887 -81.4285 -83.044 82.8139 
-81.039 -83.2694 82.0704 -85.0705 -84.0873 86.3852 -85.6889 -84.1462 86.4866 
-84.6209 -84.1831 86.0495 -84.228 -84.4118 85.5256 -83.6525 -84.5327 85.1297 
-82.8812 -84.4658 84.9112 -82.1778 -84.4364 84.5917 -81.6685 -84.5108 84.1512 
-81.2447 -84.6201 83.628 -80.9203 -84.8207 82.9368 -80.9112 -86.5541 83.5755 
-81.06 -86.4318 84.3409 -81.0013 -88.255 85.0727 -81.4099 -86.354 84.8942 
-81.2153 -88.2444 85.7976 -81.1241 -90.1632 86.6124 -81.8712 -86.2366 85.3175 
-81.5588 -88.1586 86.225 -81.4324 -90.1734 87.1892 -81.3429 -92.4432 88.0008 
-82.4928 -86.1423 85.7468 -82.0166 -87.9571 86.6691 -81.7855 -90.0322 87.529 
-81.757 -92.5477 88.344 -81.5174 -95.0263 89.1632 -83.2422 -86.1935 86.0037 
-82.6205 -87.8549 87.1428 -82.1747 -89.7788 88.0742 -82.1287 -92.4632 88.7093 
-81.9311 -95.2462 89.4878 -81.4338 -97.4151 90.3396 -83.8815 -86.1634 86.2387 
-83.272 -87.9056 87.3828 -82.6263 -89.6352 88.5854 -82.4128 -92.169 89.3314 
-82.2671 -95.2093 90.0135 -81.7319 -97.564 90.8868 -81.222 -99.6056 91.5342 
-84.3205 -85.8777 86.7165 -83.8654 -87.8056 87.6372 -83.2004 -89.5874 88.8105 
-82.7368 -91.8171 89.7507 -82.5167 -94.8325 90.5151 -82.0405 -97.4574 91.4192 
-81.4313 -99.4969 92.1384 -81.125 -102.027 92.3879 -84.7548 -85.5623 87.1573 
-84.4283 -87.4951 87.9753 -83.905 -89.4332 88.9668 -83.3159 -91.484 89.8957 
-82.9008 -94.2432 90.7072 -82.4315 -97.0651 91.6459 -81.8008 -99.2204 92.4805 
-81.3462 -101.554 92.8457 -81.138 -104.591 92.8195 -85.3588 -85.3993 87.3135 
-85.0477 -87.1833 88.1074 -84.6233 -89.1779 89.0021 -84.0606 -91.1651 89.9127 
-83.5364 -93.5894 90.7489 -83.0299 -96.4133 91.6631 -82.3877 -98.8167 92.5476 
-81.7953 -100.999 93.0568 -81.4417 -103.761 93.1659 -81.1697 -106.834 93.0505 
-81.0161 -87.8728 83.8021 -80.9619 -89.7782 85.3567 -81.125 -89.3748 84.1348 
-80.9856 -92.0548 87.0142 -80.9231 -91.6013 85.6795 -81.1858 -91.1135 84.6744 
-81.1126 -94.6799 88.5729 -80.901 -94.1781 87.4143 -81.0637 -93.5271 86.2531 
-81.3939 -92.8697 85.3247 -81.1444 -97.2884 89.8822 -80.9636 -96.9408 89.064 
-81.0763 -96.2076 87.9509 -81.4418 -95.2693 86.945 -81.7324 -94.3957 85.875 
-81.081 -99.8962 91.0103 -80.9878 -99.9327 90.3488 -81.0051 -99.4044 89.431 
-81.2882 -98.2972 88.4279 -81.6843 -97.0359 87.4674 -81.9398 -95.851 86.3314 
-81.0692 -102.901 91.8879 -81.0649 -103.426 91.2801 -80.9867 -103.269 90.5202 
-80.9836 -102.283 89.5969 -81.2769 -100.745 88.7085 -81.702 -99.0479 87.847 
-82.0487 -97.3823 86.7589 -81.0127 -105.981 92.3932 -81.0105 -106.926 91.8528 
-81.0089 -107.124 91.2258 -80.9196 -106.478 90.4597 -80.9592 -105.055 89.6335 
-81.2992 -103.113 88.9083 -81.7568 -100.92 88.1281 -82.1708 -98.7781 87.0521 
-80.8458 -108.439 92.6499 -80.631 -109.565 92.0987 -80.639 -110.009 91.4909 
-80.7743 -109.789 90.8795 -80.9027 -108.823 90.2483 -81.1176 -107.088 89.6276 
-81.4741 -104.802 89.0048 -81.863 -102.257 88.2045 -82.2556 -99.8466 87.1502 
-80.8872 -109.709 92.974 -80.2913 -111.108 92.3727 -80.4474 -112.006 92.608 
-79.603 -113.287 91.7297 -80.1061 -114.111 91.8399 -79.9053 -111.91 91.5833 
-79.2104 -116.038 90.8243 -80.0269 -116.537 90.94 -79.1395 -114.325 90.6912 
-80.0216 -112.238 90.8427 -79.2926 -118.955 89.9649 -80.1759 -118.26 90.2307 
-78.7484 -117.599 89.698 -79.3854 -114.875 89.9088 -80.4697 -111.915 90.327 
-79.817 -119.761 89.2363 -80.6009 -118.01 89.7514 -78.9564 -119.797 88.8264 
-78.9981 -117.561 88.9855 -80.0879 -114.045 89.6343 -80.9305 -110.524 89.9412 
-80.687 -118.176 88.7828 -81.3404 -116.307 89.5159 -79.8213 -119.135 88.2027 
-79.2611 -118.268 88.2669 -79.8454 -115.409 88.9666 -80.8715 -111.73 89.5215 
-81.3431 -108.207 89.4641 -81.6516 -115.923 88.7234 -82.2721 -114.282 89.382 
-80.9708 -117.026 88.0807 -80.218 -116.968 87.9543 -80.1758 -115.235 88.4743 
-80.9182 -112.15 89.0293 -81.5037 -108.703 89.0959 -81.6986 -105.399 88.7711 
-82.5831 -113.746 88.693 -83.2599 -112.322 89.0748 -81.9889 -114.836 88.2419 
-81.3207 -115.051 88.0188 -80.9656 -113.96 88.24 -81.3047 -111.6 88.6045 
-81.7696 -108.551 88.6495 -81.9199 -105.427 88.3549 -82.034 -102.484 87.8573 
-83.5167 -111.503 88.437 -84.2014 -110.39 88.6199 -82.9095 -112.444 88.2285 
-82.3151 -112.743 88.0717 -81.8606 -111.967 88.1026 -81.9037 -110.115 88.267 
-82.2313 -107.608 88.276 -82.3304 -104.915 87.9898 -82.3149 -102.31 87.4904 
-82.4688 -99.9407 86.8259 -81.4635 -106.858 93.3252 -81.2764 -109.637 93.2474 
-81.8476 -106.585 93.474 -81.7308 -109.044 93.3212 -82.3599 -105.97 93.479 
-81.0381 -111.784 92.7561 -82.326 -107.973 93.3236 -83.1706 -105.047 93.4649 
-81.6319 -110.766 92.7076 -80.8765 -113.581 91.8155 -83.2511 -106.733 93.3916 
-84.1446 -103.907 93.3694 -82.372 -109.276 92.8022 -81.5688 -112.003 91.7665 
-80.8045 -115.274 90.9152 -84.1762 -105.356 93.1447 -84.8973 -102.459 92.8639 
-83.3613 -107.871 92.9224 -82.4629 -110.172 92.0424 -81.5831 -113.005 91.0517 
-80.91 -116.06 90.4226 -84.8486 -103.486 92.4202 -85.5159 -100.677 92.0105 
-84.1989 -106.258 92.5406 -83.4819 -108.551 92.1683 -82.6623 -110.75 91.3912 
-81.8933 -113.269 90.7343 -81.4186 -115.371 90.2184 -85.6609 -101.293 91.7085 
-86.3145 -98.8892 91.1773 -84.995 -104.034 91.9777 -84.3508 -106.587 91.8853 
-83.7192 -108.654 91.4227 -83.1424 -110.62 90.9057 -82.65 -112.513 90.5317 
-82.334 -113.782 90.053 -86.7148 -99.3243 91.1139 -87.2216 -97.3595 90.4148 
-86.0885 -101.697 91.5899 -85.3849 -104.193 91.6601 -84.6894 -106.348 91.2968 
-84.1987 -108.158 90.8054 -83.9294 -109.849 90.4924 -83.6715 -111.217 90.2018 
-83.4077 -112.016 89.6936 -87.6856 -97.7193 90.3631 -88.0389 -96.0529 89.6303 
-87.2006 -99.7225 91.0039 -86.574 -101.918 91.3307 -85.8311 -103.969 91.1904 
[...]
CELL_DATA 2000
SCALARS Distance double
LOOKUP_TABLE default
139.248 139.28 139.574 140.242 139.334 139.645 140.331 140.634 141.389 
139.34 139.705 140.459 140.773 141.561 141.873 142.727 139.417 139.753 
140.622 140.964 141.858 142.141 143.049 143.322 144.244 139.757 139.965 
140.877 141.2 142.192 142.509 143.494 143.751 144.721 144.941 145.884 
140.312 140.439 141.312 141.542 142.51 142.838 143.843 144.182 145.175 
145.456 146.417 146.625 147.541 140.895 141.034 141.923 142.073 143.011 
143.218 144.208 144.505 145.527 145.858 146.853 147.131 148.064 148.267 
149.144 141.511 141.638 142.598 142.743 143.747 143.865 144.901 145.038 
146.119 146.312 147.393 147.604 148.627 148.81 149.762 149.894 150.773 
142.307 142.343 143.325 143.454 144.505 144.654 145.75 145.879 147.017 
147.12 148.261 148.341 149.448 149.524 150.592 150.647 151.646 151.64 
152.53 138.619 137.597 138.279 138.614 136.495 137.204 137.554 138.283 
138.637 135.483 136.122 136.452 137.175 137.53 138.264 138.595 134.602 
135.179 135.437 136.071 136.371 137.107 137.455 138.21 138.619 133.738 
134.301 134.473 135.032 135.201 135.905 136.256 137.07 137.573 138.367 
138.958 133.095 133.489 133.649 134.069 134.16 134.731 135.058 135.878 
136.49 137.371 138.065 138.857 139.529 133.073 133.122 133.34 133.473 
133.642 133.908 134.267 134.845 135.537 136.362 137.17 137.993 138.705 
139.449 140.093 133.635 133.421 133.666 133.535 133.813 133.787 134.224 
134.438 135.158 135.679 136.565 137.231 138.036 138.687 139.369 140.031 
140.706 134.424 134.126 134.348 134.102 134.406 134.247 134.706 134.71 
135.396 135.631 136.503 136.916 137.793 138.247 139.015 139.486 140.217 
140.775 141.545 134.948 135.786 135.18 134.879 136.857 136.133 135.83 
135.183 134.956 138.11 137.331 137.053 136.276 136.063 135.389 135.299 
139.411 138.649 138.437 137.621 137.436 136.654 136.607 135.925 136.02 
140.786 140.005 139.876 139.071 138.966 138.147 138.152 137.393 137.544 
136.852 137.101 142.314 141.495 141.45 140.612 140.609 139.768 139.838 
139.041 139.225 138.486 138.731 138.037 138.316 143.847 143.089 143.121 
142.3 142.362 141.507 141.605 140.777 140.946 140.191 140.413 139.692 
139.903 139.222 139.467 145.215 144.575 144.652 143.956 144.058 143.284 
143.391 142.566 142.698 141.906 142.096 141.358 141.569 140.835 141.042 
140.355 140.634 146.452 145.882 145.993 145.403 145.555 144.906 145.066 
144.324 144.474 143.672 143.848 143.063 143.295 142.539 142.795 142.032 
142.307 141.596 141.948 142.968 143.37 143.679 144.788 143.842 144.142 
145.273 145.61 146.807 144.313 144.604 145.704 146.073 147.283 147.68 
148.977 144.863 145.097 146.161 146.478 147.645 148.081 149.41 149.909 
151.294 145.466 145.679 146.726 146.974 148.086 148.441 149.759 150.293 
151.758 152.261 153.592 145.992 146.242 147.264 147.536 148.601 148.905 
150.153 150.653 152.145 152.716 154.115 154.488 155.668 146.409 146.687 
147.686 148.014 149.059 149.376 150.516 150.99 152.392 153.047 154.468 
154.966 156.122 156.451 157.576 146.784 147.049 148.025 148.386 149.441 
149.787 150.853 151.266 152.515 153.167 154.55 155.196 156.36 156.789 
157.804 158.262 159.427 147.183 147.404 148.33 148.687 149.723 150.117 
151.149 151.539 152.647 153.21 154.501 155.188 156.396 156.922 157.907 
158.36 159.392 160 161.145 143.175 144.963 144.061 144.176 146.983 
145.961 146.03 145.146 145.348 149.243 148.123 148.199 147.127 147.309 
146.413 146.667 151.661 150.541 150.705 149.482 149.653 148.551 148.829 
147.842 148.062 153.953 152.988 153.269 152.105 152.297 151.067 151.3 
150.165 150.393 149.278 149.374 156.068 155.25 155.704 154.687 155.022 
153.795 154.015 152.75 152.939 151.717 151.811 150.583 150.577 158.187 
157.462 158.2 157.258 157.87 156.647 157.006 155.599 155.795 154.398 
154.519 153.154 153.158 151.809 151.749 160.233 159.68 160.617 159.861 
160.643 159.591 160.077 158.712 158.929 157.417 157.521 156.02 156.031 
154.535 154.411 152.974 152.815 161.963 161.626 162.495 162.039 162.697 
162.056 162.47 161.542 161.719 160.471 160.484 159.046 158.961 157.448 
157.229 155.689 155.364 153.929 153.65 163.072 164.467 163.745 163.507 
165.382 164.831 164.532 163.93 163.576 166.444 165.775 165.46 164.767 
164.432 163.845 163.379 167.66 167.097 166.92 165.95 165.544 164.72 
164.316 163.566 162.833 168.025 168.077 167.999 167.405 166.858 165.966 
165.342 164.52 163.785 162.851 161.749 167.316 167.83 167.698 167.815 
167.205 166.843 165.978 165.37 164.423 163.662 162.519 161.541 160.191 
166.281 166.818 166.673 167.037 166.534 166.586 165.777 165.533 164.518 
164.015 162.788 162.051 160.641 159.758 158.311 165.256 165.75 165.628 
166.013 165.633 165.79 165.106 165.044 164.098 163.817 162.593 162.063 
160.607 159.92 158.417 157.69 156.285 164.165 164.664 164.482 164.951 
164.567 164.865 164.161 164.248 163.261 163.176 161.958 161.654 160.227 
159.707 158.219 157.614 156.24 155.637 154.439 162.954 163.192 163.624 
164.463 163.136 163.714 164.593 164.909 165.462 162.89 163.49 164.275 
164.8 165.394 165.741 166.326 162.629 163.188 163.848 164.335 164.812 
165.347 165.901 166.536 167.215 162.076 162.806 163.441 163.924 164.292 
164.693 165.073 165.746 166.319 167.153 167.546 160.956 161.928 162.556 
163.339 163.73 164.2 164.434 164.903 165.265 166.005 166.368 167.073 
167.038 159.688 160.626 161.236 162.194 162.672 163.425 163.657 164.194 
164.362 164.96 165.197 165.862 165.928 166.398 166.138 158.674 159.451 
160.073 160.919 161.474 162.269 162.586 163.221 163.337 163.939 164.068 
164.725 164.819 165.356 165.219 165.532 165.179 157.822 158.529 159.122 
159.888 160.444 161.183 161.543 162.15 162.28 162.831 162.919 163.554 
163.671 164.279 164.243 164.647 164.372 164.592 164.169 147.695 148.859 
148.444 148.857 150.045 149.673 150.146 149.744 150.254 151.193 150.893 
151.446 151.071 151.617 151.202 151.702 152.328 152.089 152.748 152.405 
153.012 152.598 153.184 152.703 153.258 153.441 153.269 154.038 153.757 
154.457 154.056 154.753 154.295 155.014 154.458 155.137 154.496 154.387 
155.251 155.075 155.896 155.56 156.343 155.938 156.751 156.285 157.013 
156.422 156.994 155.481 155.419 156.332 156.273 157.221 157.021 157.893 
157.551 158.371 157.976 158.701 158.204 158.733 158.113 158.5 156.373 
156.353 157.232 157.273 158.268 158.275 159.258 159.076 159.92 159.558 
160.27 159.809 160.398 159.817 160.296 159.597 160.036 157.16 157.175 
157.981 158.06 158.989 159.156 160.185 160.28 161.198 161.021 161.721 
161.333 161.943 161.468 162.063 161.469 162.022 161.286 161.786 147.281 
147.03 147.571 148.399 146.662 147.283 148.114 148.69 149.521 146.191 
146.854 147.706 148.345 149.154 149.755 150.579 145.813 146.406 147.287 
147.925 148.779 149.37 150.176 150.784 151.637 145.573 146.091 146.953 
147.557 148.472 149.057 149.923 150.452 151.282 151.86 152.723 145.341 
145.84 146.609 147.204 148.067 148.732 149.639 150.245 151.091 151.6 
152.399 152.944 153.771 145.109 145.583 146.292 146.819 147.563 148.215 
149.054 149.813 150.688 151.359 152.143 152.674 153.42 153.971 154.758 
144.921 145.376 146.113 146.556 147.256 147.736 148.469 149.135 149.992 
150.786 151.646 152.332 153.082 153.639 154.363 154.931 155.675 144.747 
145.207 145.967 146.418 147.128 147.523 148.183 148.648 149.406 150.084 
150.969 151.737 152.578 153.237 153.964 154.533 155.227 155.802 156.486 
144.887 145.494 145.503 146.123 146.081 146.105 146.741 146.75 147.304 
146.751 146.729 147.377 147.366 147.966 147.894 148.378 147.554 147.524 
148.241 148.117 148.736 148.596 149.153 149.007 149.57 148.291 148.379 
149.197 149.09 149.674 149.445 149.977 149.826 150.471 150.361 151.083 
148.965 149.084 149.942 149.966 150.533 150.348 150.8 150.658 151.33 
151.294 152.1 151.998 152.725 149.86 149.829 150.645 150.637 151.246 
151.117 151.634 151.501 152.244 152.214 153.116 153.037 153.808 153.597 
154.177 150.912 150.8 151.524 151.4 152.016 151.87 152.533 152.426 
153.312 153.262 154.242 154.125 154.924 154.686 155.27 154.971 155.453 
151.763 151.738 152.359 152.258 152.821 152.704 153.41 153.385 154.334 
154.368 155.348 155.272 156.03 155.799 156.357 156.066 156.556 156.242 
156.7 152.308 153.197 152.828 152.905 154.31 153.801 153.951 153.424 
153.442 155.835 155.181 155.428 154.707 154.857 154.12 154.204 157.316 
156.795 157.111 156.398 156.596 155.776 155.952 155.117 155.271 158.506 
158.13 158.488 157.99 158.187 157.505 157.602 156.867 156.973 156.211 
156.254 159.801 159.336 159.746 159.272 159.543 158.955 159.031 158.359 
158.362 157.71 157.677 156.982 156.835 161.265 160.774 161.221 160.656 
160.972 160.333 160.467 159.754 159.779 159.06 159.041 158.31 158.184 
157.404 157.156 162.534 162.196 162.645 162.161 162.426 161.801 161.877 
161.183 161.194 160.504 160.517 159.774 159.689 158.831 158.594 157.701 
157.392 163.514 163.306 163.741 163.419 163.646 163.137 163.126 162.491 
162.402 161.799 161.766 161.174 161.08 160.339 160.061 159.176 158.791 
157.901 157.523 152.016 151.82 152.259 152.92 151.68 152.094 152.807 
153.195 153.98 151.532 151.985 152.718 153.127 153.959 154.425 155.408 
151.126 151.734 152.483 153.015 153.85 154.386 155.354 155.91 156.858 
150.516 151.197 151.996 152.675 153.549 154.192 155.138 155.764 156.707 
157.245 158.078 150 150.61 151.459 152.165 153.112 153.816 154.769 
155.447 156.41 157.045 157.985 158.481 159.372 149.608 150.164 150.997 
151.683 152.648 153.371 154.306 154.999 155.92 156.653 157.652 158.35 
159.347 159.874 160.794 149.213 149.762 150.534 151.214 152.13 152.879 
153.776 154.48 155.319 156.066 157.018 157.871 158.917 159.696 160.657 
161.229 162.039 148.814 149.342 150.074 150.718 151.579 152.312 153.184 
153.9 154.715 155.431 156.32 157.16 158.197 159.102 160.134 160.911 
161.789 162.345 163.049 151.272 149.848 150.735 151.039 148.393 149.226 
149.579 150.506 150.873 147.212 147.84 148.097 149.003 149.447 150.39 
150.744 146.114 146.692 146.819 147.595 147.977 148.923 149.314 150.193 
150.374 144.844 145.502 145.606 146.345 146.623 147.48 147.795 148.685 
148.882 149.693 149.765 143.505 144.197 144.339 145.09 145.333 146.128 
146.329 147.14 147.283 148.135 148.279 149.098 149.24 142.191 142.89 
143.04 143.797 144.029 144.813 144.972 145.693 145.745 146.524 146.675 
147.578 147.826 148.669 148.875 140.933 141.602 141.722 142.46 142.636 
143.448 143.615 144.355 144.398 145.067 145.157 145.986 146.279 147.217 
147.522 148.337 148.522 139.824 140.405 140.488 141.136 141.228 141.99 
142.136 142.95 143.077 143.785 143.885 144.588 144.84 145.703 146.074 
146.955 147.229 147.981 148.145 139.277 138.605 139.266 139.896 137.938 
138.589 139.23 139.876 140.56 137.481 138.018 138.674 139.236 139.915 
140.593 141.408 137.282 137.693 138.362 138.806 139.496 140.043 140.877 
141.562 142.418 137.278 137.575 138.243 138.618 139.344 139.779 140.617 
141.168 142.06 142.624 143.383 137.535 137.679 138.343 138.611 139.37 
139.729 140.567 141.021 141.917 142.405 143.242 143.657 144.411 138.019 
138.07 138.742 138.872 139.634 139.865 140.685 141.028 141.901 142.335 
143.213 143.632 144.457 144.822 145.622 138.534 138.595 139.269 139.365 
140.107 140.248 141.031 141.239 142.067 142.387 143.261 143.653 144.502 
144.888 145.672 146.042 146.768 139.007 139.082 139.737 139.862 140.583 
140.733 141.489 141.648 142.436 142.648 143.488 143.781 144.62 144.949 
145.718 146.056 146.749 147.091 147.716 139.475 140.482 140.041 140.227 
141.667 141.152 141.371 140.888 141.119 143.023 142.447 142.702 142.142 
142.388 141.849 142.069 144.5 143.875 144.143 143.547 143.808 143.21 
143.447 142.847 143.055 146.091 145.404 145.649 145.013 145.281 144.672 
144.941 144.314 144.555 143.896 144.117 147.759 147.051 147.288 146.573 
146.819 146.163 146.443 145.831 146.101 145.452 145.663 144.986 145.197 
149.397 148.738 149.032 148.29 148.527 147.771 148.011 147.339 147.606 
146.98 147.197 146.529 146.686 146.03 146.222 150.993 150.366 150.72 
150.044 150.323 149.547 149.743 148.963 149.17 148.484 148.713 148.051 
148.219 147.522 147.656 147.012 147.201 152.648 151.977 152.325 151.695 
152.014 151.318 151.525 150.726 150.864 150.088 150.27 149.58 149.778 
149.079 149.211 148.486 148.602 147.96 148.134 148.823 149.371 149.419 
150.143 150.038 150.081 150.858 150.872 151.665 150.633 150.759 151.582 
151.636 152.441 152.455 153.242 151.171 151.336 152.233 152.351 153.224 
153.259 154.082 154.05 154.808 151.827 151.952 152.929 153.044 154.026 
154.088 155.032 154.991 155.857 155.706 156.502 152.515 152.68 153.704 
153.829 154.871 154.953 155.997 156.014 157.022 156.906 157.829 157.575 
158.431 153.012 153.306 154.381 154.615 155.739 155.87 157.008 157.052 
158.202 158.154 159.247 159.036 159.979 159.626 160.425 153.365 153.733 
154.901 155.255 156.544 156.794 158.116 158.199 159.504 159.462 160.717 
160.547 161.612 161.254 162.046 161.569 162.156 153.764 154.134 155.409 
155.809 157.242 157.623 159.117 159.362 160.772 160.832 162.103 162.028 
163.101 162.854 163.617 163.168 163.647 163.113 163.447 134.354 133.499 
133.919 133.978 132.845 133.057 133.034 133.536 133.717 132.798 132.597 
132.459 132.684 132.889 133.42 133.795 133.42 132.874 132.642 132.427 
132.612 132.848 133.337 133.753 134.27 134.316 133.698 133.467 132.957 
133.063 132.932 133.39 133.559 134.1 134.396 134.967 135.256 134.666 
134.539 133.958 134.025 133.64 133.944 133.825 134.211 134.317 134.786 
135.139 135.775 136.308 135.708 135.68 135.101 135.181 134.686 134.879 
134.522 134.759 134.567 134.901 135.013 135.595 136.004 136.717 137.425 
136.845 136.844 136.279 136.335 135.817 135.943 135.499 135.694 135.311 
135.606 135.388 135.92 136.015 136.756 137.049 137.747 138.464 137.951 
137.946 137.419 137.43 136.912 136.965 136.514 136.684 136.307 136.608 
136.291 136.752 136.6 137.249 137.31 138.014 138.158 138.76 134.845 
134.556 134.988 135.583 134.364 134.76 135.42 135.811 136.457 134.384 
134.656 135.344 135.712 136.393 136.748 137.407 134.707 134.778 135.394 
135.688 136.402 136.741 137.41 137.722 138.381 135.385 135.251 135.768 
135.84 136.534 136.804 137.542 137.81 138.497 138.757 139.476 136.303 
136.085 136.598 136.414 137.019 137.067 137.827 138.033 138.799 138.995 
139.722 139.944 140.681 137.226 137.041 137.568 137.343 137.852 137.712 
138.362 138.43 139.195 139.358 140.08 140.248 140.915 141.127 141.767 
138.093 137.903 138.359 138.21 138.665 138.532 139.066 139.037 139.694 
139.784 140.455 140.588 141.193 141.352 141.928 142.132 142.711 138.984 
138.727 139.105 138.927 139.364 139.252 139.761 139.708 140.283 140.298 
140.896 140.962 141.538 141.636 142.197 142.331 142.912 143.088 143.689 
135.207 135.937 135.704 136.051 136.807 136.515 136.88 136.649 137.109 
137.759 137.45 137.828 137.549 138.002 137.791 138.319 138.74 138.433 
138.838 138.541 138.977 138.715 139.216 139.029 139.584 139.832 139.473 
139.916 139.588 140.041 139.727 140.222 139.972 140.544 140.342 140.951 
141.022 140.641 141.095 140.729 141.196 140.836 141.33 141.03 141.613 
141.377 142.014 141.791 142.445 142.097 141.797 142.24 141.919 142.374 
142.017 142.474 142.147 142.677 142.443 143.057 142.864 143.497 143.301 
143.928 143.036 142.787 143.23 142.983 143.442 143.153 143.592 143.269 
143.728 143.463 144.015 143.843 144.461 144.307 144.909 144.726 145.285 
144.007 143.732 144.185 143.932 144.402 144.158 144.623 144.346 144.796 
144.501 145 144.779 145.377 145.23 145.853 145.685 146.242 146.025 
146.524 151.097 150.18 150.34 149.628 149.093 149.302 148.694 148.861 
148.248 148.155 148.253 147.77 148.004 147.64 147.717 147.233 147.454 
147.438 146.941 147.176 146.956 147.186 146.829 146.798 146.198 146.791 
146.779 146.183 146.362 146.018 146.377 146.007 146.228 145.586 145.587 
144.844 146.093 146.103 145.466 145.559 145.002 145.282 144.758 145.123 
144.482 144.724 143.971 144.09 143.398 145.434 145.423 144.767 144.8 
144.131 144.239 143.579 143.817 143.177 143.477 142.807 143.059 142.381 
142.601 142.009 144.81 144.773 144.072 144.076 143.38 143.401 142.715 
142.784 142.149 142.305 141.698 141.902 141.282 141.511 140.93 141.208 
140.72 144.22 144.153 143.446 143.402 142.734 142.709 142.074 142.059 
141.457 141.478 140.902 140.968 140.402 140.514 139.985 140.173 139.729 
139.999 139.631 
POINT_DATA 1002
SCALARS Distance double
LOOKUP_TABLE default
139.868 138.947 138.932 139.924 138.988 140.937 140.027 138.989 141.045 
142.19 140.102 138.932 141.252 142.39 143.604 140.227 139.096 141.541 
142.786 143.977 145.155 140.575 139.604 141.834 143.206 144.496 145.696 
146.807 141.144 140.192 142.221 143.478 144.851 146.184 147.378 148.443 
141.77 140.725 142.858 143.958 145.194 146.545 147.836 148.984 150.009 
142.422 141.39 143.605 144.783 145.967 147.203 148.435 149.614 150.692 
151.622 143.221 142.313 144.337 145.579 146.895 148.196 149.388 150.526 
151.641 152.611 153.364 137.982 137.925 136.887 136.804 135.797 137.938 
135.77 134.886 136.788 137.868 134.886 134.04 135.661 136.668 137.832 
133.983 133.197 134.555 135.391 136.713 138.177 133.294 132.801 133.675 
134.253 135.535 137.228 138.794 133.278 133.145 133.455 133.802 134.753 
136.328 137.96 139.365 133.847 133.919 133.88 134.112 134.766 135.962 
137.411 138.742 140.005 134.617 134.742 134.588 134.757 135.258 136.171 
137.381 138.593 139.715 140.934 135.49 135.438 136.435 136.529 137.61 
135.528 137.858 138.867 136.777 135.887 139.225 140.146 138.232 137.302 
136.635 140.648 141.569 139.759 138.911 138.245 137.755 142.27 143.107 
141.433 140.637 139.971 139.463 138.98 143.894 144.545 143.201 142.455 
141.727 141.144 140.636 140.097 145.289 145.814 144.777 144.2 143.521 
142.85 142.297 141.777 141.256 146.547 146.997 146.146 145.746 145.255 
144.649 144.047 143.545 143.066 142.601 143.994 144.447 145.927 144.917 
146.46 148.038 145.352 146.847 148.548 150.349 145.895 147.239 148.854 
150.835 152.705 146.497 147.791 149.233 151.197 153.249 154.828 146.978 
148.324 149.695 151.536 153.71 155.395 156.787 147.34 148.745 150.115 
151.745 153.904 155.799 157.178 158.77 147.663 149.078 150.505 151.945 
153.862 155.894 157.394 158.846 160.674 148.006 149.323 150.774 152.172 
153.831 155.817 157.485 158.847 160.491 162.281 144.973 146.989 146.132 
149.347 148.266 147.535 151.934 150.841 149.858 149.1 154.333 153.548 
152.508 151.54 150.543 156.596 156.19 155.337 154.209 153.074 151.822 
159.014 159.002 158.428 157.265 155.923 154.573 153.086 161.27 161.582 
161.358 160.458 159.079 157.577 155.958 154.201 162.949 163.281 163.242 
162.821 161.888 160.496 158.823 156.918 154.983 163.994 164.301 165.113 
165.088 165.952 164.216 166.297 167.094 165.007 164.086 167.912 167.983 
166.561 165.079 163.801 168.342 167.755 167.747 166.272 164.695 162.874 
167.4 166.8 167.358 166.514 165.162 163.432 161.263 166.264 165.788 
166.361 165.891 164.937 163.474 161.472 159.2 165.207 164.779 165.422 
165.124 164.314 163.06 161.26 159.101 156.961 164.012 163.71 164.233 
164.056 163.316 162.17 160.661 158.774 156.79 154.975 162.599 164.292 
162.698 164.165 162.558 165.333 163.758 162.365 164.915 165.949 163.453 
162.08 164.344 165.191 166.58 162.895 161.263 163.985 164.559 165.482 
166.907 161.635 159.981 163.147 164.069 164.683 165.641 166.568 160.272 
158.82 161.811 163.07 163.842 164.57 165.392 165.838 159.27 157.938 
160.686 161.937 162.76 163.418 164.227 164.851 164.98 158.384 157.147 
159.718 160.937 161.765 162.324 163.025 163.769 164.119 164.026 148.086 
149.244 149.25 150.529 150.362 150.671 151.794 151.429 152.021 152.166 
153.051 152.51 153.407 153.614 153.778 154.251 153.568 154.82 155.152 
155.501 155.771 155.35 154.577 156.161 156.716 157.169 157.591 157.686 
156.338 155.535 157.316 158.195 158.778 159.177 159.345 159.175 157.192 
156.401 158.175 159.324 160.265 160.73 160.916 160.943 160.779 146.764 
147.866 146.464 147.522 146.002 148.958 147.041 145.533 148.559 149.951 
146.647 145.262 148.178 149.605 150.979 146.367 145.092 147.85 149.393 
150.777 152.098 146.063 144.871 147.399 148.956 150.572 151.933 153.174 
145.818 144.642 147 148.295 149.917 151.58 152.925 154.169 145.672 
144.453 146.853 147.919 149.198 150.867 152.498 153.831 155.096 145.499 