# vtk DataFile Version 4.0
vtk output
ASCII
DATASET POLYDATA
POINTS 1002 float
-83.2909 -83.7822 74.1109 -83.3582 -83.1107 73.0814 -82.7545 -83.0212 73.5953 
-82.7596 -83.7504 74.9058 -82.3215 -82.7921 74.5292 -83.3889 -84.5101 75.6187 
-82.3512 -83.5874 76.0296 -82.0539 -82.4236 75.8263 -82.9235 -84.495 76.6291 
-83.6073 -85.2187 77.4768 -82.0513 -83.272 77.2291 -81.7601 -82.0508 76.9989 
-82.4456 -84.379 77.6763 -83.0935 -85.2475 78.3999 -83.5723 -86.212 79.1894 
-81.7598 -82.9871 78.2942 -81.3055 -81.8568 77.9381 -82.0431 -84.2564 78.7365 
-82.5023 -85.3424 79.3352 -82.949 -86.4836 79.9938 -83.1157 -87.8583 80.6483 
-81.3273 -83.0248 79.4646 -80.8261 -82.0592 79.1217 -81.6927 -84.3422 79.9358 
-82.0479 -85.6648 80.5283 -82.3555 -86.9385 81.1111 -82.5345 -88.3939 81.6505 
-82.6563 -89.7981 82.2685 -80.7664 -83.4823 80.8262 -80.5697 -82.6517 80.5868 
-81.1538 -84.6365 81.1831 -81.6567 -86.0928 81.7455 -81.9286 -87.5202 82.383 
-82.0601 -88.9477 82.9461 -82.2412 -90.3877 83.5086 -82.4559 -91.582 84.1218 
-80.3408 -84.059 82.0551 -80.5742 -83.277 81.9244 -80.4935 -84.9457 82.2287 
-81.1146 -86.3046 82.6639 -81.5376 -87.9276 83.3327 -81.6475 -89.4551 84.0422 
-81.8509 -90.9125 84.7243 -82.098 -92.2839 85.3484 -82.2367 -93.4469 85.8522 
-80.2379 -84.4763 83.1249 -80.699 -83.7191 83.0718 -80.1336 -85.2133 83.1789 
-80.6559 -86.4197 83.5358 -81.1733 -88.1813 84.2268 -81.2903 -89.9994 85.0122 
-81.4322 -91.5954 85.7813 -81.6991 -93.0793 86.4682 -81.8196 -94.451 86.9746 
-81.8235 -95.6057 87.3129 -80.396 -84.8419 84.2654 -80.8509 -84.1178 84.1902 
-80.219 -85.5929 84.3199 -80.5908 -86.8173 84.6769 -81.0486 -88.697 85.4403 
-81.1254 -90.7985 86.302 -81.1193 -92.6295 87.0418 -81.2799 -94.1839 87.6524 
-81.3779 -95.6101 88.0877 -81.347 -96.8636 88.3643 -81.3659 -97.8449 88.5838 
-83.0271 -82.4511 72.4581 -82.4539 -82.1809 73.0757 -82.6464 -81.6748 71.8269 
-82.1891 -81.16 72.7021 -82.3178 -80.6651 71.2274 -82.0922 -81.7199 74.2074 
-81.9774 -80.0059 72.3985 -82.1175 -79.512 70.8121 -81.8282 -80.5895 73.9934 
-81.7473 -81.2916 75.5936 -81.7423 -78.9054 72.1737 -81.9383 -78.4186 70.7225 
-81.5314 -79.5525 73.7248 -81.1972 -80.3342 75.2892 -81.126 -81.0747 76.6703 
-81.3856 -77.8537 72.1635 -81.7985 -77.3689 70.9222 -81.2519 -78.5544 73.5457 
-80.7395 -79.4781 75.0279 -80.1873 -80.3287 76.3815 -80.3898 -81.0626 77.6459 
-81.2312 -76.7256 72.4708 -82.0439 -76.4128 71.3986 -81.0197 -77.4064 73.7082 
-80.7298 -78.4291 75.1449 -79.7786 -79.471 76.5053 -79.3922 -80.318 77.6639 
-80.0718 -81.3262 79.0378 -81.6931 -75.8456 73.1168 -82.7303 -75.8993 72.195 
-81.0828 -76.305 74.2246 -80.9484 -77.2968 75.5938 -80.2693 -78.4406 77.0066 
-79.2532 -79.382 78.1118 -79.4114 -80.3954 79.2062 -80.3114 -81.8202 80.612 
-82.5385 -75.5916 73.9991 -83.4529 -75.9232 73.1687 -81.6228 -75.6941 75.0013 
-81.1899 -76.4661 76.2001 -80.9404 -77.601 77.4989 -80.0945 -78.5617 78.6239 
-79.4818 -79.4045 79.571 -80.0247 -80.6812 80.7091 -80.7275 -82.3276 82.0039 
-83.2869 -75.7777 74.9372 -83.9657 -76.1494 74.1253 -82.412 -75.5972 75.9202 
-81.6092 -76.0025 76.9963 -81.3005 -76.9884 78.0367 -81.006 -78.0289 79.0205 
-80.3173 -78.7874 79.9685 -80.1037 -79.6943 80.97 -80.6447 -81.1642 82.1111 
-81.0225 -82.8178 83.2472 -84.0329 -76.1292 75.601 -83.3976 -75.7882 76.6224 
-84.2077 -76.0826 77.2631 -83.5749 -75.7775 78.4882 -84.4701 -76.19 78.8812 
-82.4877 -75.7094 77.7955 -83.8072 -76.0859 80.1411 -84.6902 -76.7909 80.2426 
-82.6285 -75.889 79.6702 -81.7088 -76.3235 78.7971 -84.0086 -77.125 81.4844 
-84.8188 -77.8732 81.6826 -82.8925 -76.6257 81.1595 -81.9637 -76.8236 80.4338 
-81.5032 -77.4705 79.5829 -84.1959 -78.4056 83.0701 -84.9105 -78.9011 83.4755 
-83.2458 -77.9937 82.5401 -82.3709 -77.883 81.9198 -81.8268 -78.1544 81.1984 
-81.223 -78.491 80.5047 -84.4109 -79.251 84.933 -84.9829 -79.6887 85.1324 
-83.6741 -79.1247 84.3284 -82.8402 -79.1674 83.6249 -82.1444 -79.1988 83.0492 
-81.4795 -79.2181 82.3825 -80.7078 -79.3144 81.6065 -84.5728 -80.1168 86.414 
-85.0676 -80.6689 86.303 -84.0377 -79.9615 86.1005 -83.3004 -80.1749 85.4634 
-82.4569 -80.3076 84.9258 -81.7037 -80.2595 84.385 -81.1048 -80.2758 83.5649 
-80.7496 -80.5598 82.709 -84.6782 -81.5027 87.4111 -85.2204 -81.978 87.2491 
-84.1984 -81.2624 87.3112 -83.5946 -81.3787 86.8793 -82.7805 -81.5042 86.425 
-81.9955 -81.4806 86.0118 -81.4756 -81.5644 85.3576 -81.2304 -81.849 84.5191 
-81.1386 -82.2843 83.7895 -84.8097 -83.0445 88.269 -85.4133 -83.2906 88.1689 
-84.2758 -82.9183 88.1807 -83.7342 -83.0076 87.8406 -83.0503 -83.0727 87.4814 
-82.337 -82.9773 87.2145 -81.847 -83.0311 86.7894 -81.5922 -83.3415 86.1344 
-81.4102 -83.6568 85.4485 -81.1759 -83.894 84.8091 -80.7898 -85.175 85.5169 
-81.1856 -85.2842 86.2901 -80.9166 -86.714 87.0832 -81.5403 -85.3117 86.9564 
-81.2315 -87.0723 87.8828 -81.1172 -88.9789 88.7704 -81.8297 -85.0899 87.5756 
-81.5817 -87.2741 88.5267 -81.2758 -89.329 89.4778 -81.1413 -91.7342 90.516 
-82.1578 -84.8424 88.0714 -81.9553 -87.1916 89.0875 -81.5835 -89.5366 90.0823 
-81.317 -91.8568 91.1036 -81.0731 -94.4535 92.2794 -82.6964 -84.8636 88.2879 
-82.4342 -87.0496 89.404 -82.0284 -89.5223 90.5572 -81.6356 -91.8864 91.6166 
-81.4172 -94.3012 92.6981 -81.0988 -96.7822 93.6562 -83.3671 -84.8787 88.4743 
-83.0588 -86.9236 89.4809 -82.6131 -89.2908 90.7362 -82.0401 -91.7102 91.9572 
-81.6727 -94.0252 93.0986 -81.4656 -96.4163 93.9928 -81.1203 -98.6854 94.4231 
-83.9666 -84.6645 88.8385 -83.6647 -86.6149 89.6824 -83.2474 -88.8585 90.8159 
-82.612 -91.262 92.0642 -82.0102 -93.599 93.3281 -81.6521 -95.9614 94.4418 
-81.39 -98.291 94.9913 -81.0335 -100.425 94.9275 -84.5321 -84.4786 89.1112 
-84.2007 -86.2249 89.9533 -83.7926 -88.3743 90.9504 -83.2673 -90.7268 92.1022 
-82.6824 -93.0433 93.308 -82.134 -95.4807 94.5624 -81.676 -97.9509 95.5374 
-81.3 -100.177 95.7466 -80.9144 -102.257 95.3039 -85.1635 -84.4693 89.1161 
-84.7927 -85.9703 89.9915 -84.3164 -87.9935 90.9023 -83.8415 -90.3121 91.9907 
-83.4449 -92.521 93.1507 -82.9782 -94.8841 94.2961 -82.334 -97.5522 95.433 
-81.7189 -99.9934 96.1575 -81.2718 -102.075 96.0502 -80.8705 -104.12 95.35 
-80.5461 -86.0191 85.6907 -80.9826 -88.1572 87.5228 -80.7594 -87.362 86.0338 
-81.1723 -91.2452 89.5541 -81.2387 -90.4615 88.2633 -81.1441 -89.4815 86.8227 
-80.87 -94.4349 91.6411 -80.9859 -94.074 90.5869 -81.1709 -93.1934 89.2895 
-81.16 -91.9423 87.8311 -80.5452 -97.0535 93.4176 -80.2526 -96.9601 92.696 
-80.4813 -96.4788 91.4765 -80.8254 -95.5146 90.1464 -80.9786 -94.0892 88.6302 
-80.5158 -99.1417 94.2918 -79.8188 -99.1163 94.0333 -79.6575 -98.734 93.0835 
-80.0961 -98.2327 91.8242 -80.5955 -97.3178 90.5974 -80.9434 -95.8075 89.1442 
-80.5736 -101.039 94.506 -79.8745 -101.241 94.3647 -79.3477 -100.919 93.8322 
-79.4029 -100.472 92.7691 -79.8675 -99.9684 91.7659 -80.3922 -98.9328 90.7382 
-80.8987 -97.3055 89.4191 -80.5172 -103.037 94.6424 -80.0203 -103.604 94.3294 
-79.5448 -103.641 93.9725 -79.2986 -103.23 93.1362 -79.3518 -102.633 92.2531 
-79.6621 -101.767 91.5722 -80.1868 -100.387 90.688 -80.7987 -98.6165 89.5303 
-80.4066 -105.122 94.6689 -79.9705 -106.023 94.2644 -79.6955 -106.525 93.9566 
-79.5644 -106.44 93.2547 -79.4535 -105.774 92.3807 -79.4225 -104.681 91.8329 
-79.6899 -103.266 91.3762 -80.2471 -101.532 90.6328 -80.8527 -99.634 89.6455 
-80.6061 -106.746 94.6066 -79.9801 -108.064 94.0778 -80.38 -109.62 93.7658 
-79.6661 -111.067 93.391 -80.3739 -112.267 93.1116 -79.586 -109.088 93.8042 
-79.7465 -113.796 92.6057 -80.6998 -114.471 92.4558 -79.3599 -112.178 92.9573 
-79.5705 -109.606 93.2606 -80.2317 -116.188 91.491 -81.1328 -116.093 91.3643 
-79.4158 -115.069 91.647 -79.43 -112.647 92.0151 -79.6446 -109.282 92.3146 
-80.7597 -117.39 90.0082 -81.4552 -116.487 90.0707 -79.7216 -117.039 90.0953 
-79.282 -115.051 90.4946 -79.5383 -111.718 91.159 -79.5984 -107.986 91.6781 
-81.2003 -116.622 88.6835 -81.8353 -115.565 89.2535 -80.1853 -116.86 88.6924 
-79.3975 -115.781 89.2378 -79.4246 -113.129 90.148 -79.7357 -109.576 91.0557 
-79.7087 -106.142 91.4902 -81.6919 -115.003 88.155 -82.3664 -114.208 89.1268 
-80.7714 -115.23 87.8876 -79.9022 -114.821 88.4911 -79.6562 -113.258 89.5397 
-80.0076 -110.392 90.6188 -80.2524 -107.054 91.2651 -80.1816 -104.073 91.195 
-82.1857 -113.544 88.5543 -82.8798 -112.721 89.4451 -81.3824 -113.768 88.0664 
-80.5869 -113.547 88.4103 -80.1724 -112.63 89.3218 -80.3752 -110.468 90.3457 
-80.7996 -107.383 91.0934 -80.897 -104.376 91.138 -80.7765 -101.862 90.5135 
-82.6248 -111.724 89.3976 -83.3305 -110.721 89.8603 -81.939 -112.206 89.0149 
-81.2898 -112.14 89.0531 -80.8151 -111.445 89.521 -80.7675 -109.728 90.1785 
-81.1127 -107.013 90.7841 -81.3969 -104.149 90.9399 -81.3617 -101.77 90.4142 
-81.2627 -99.752 89.5015 -81.2039 -104.539 95.5746 -81.1311 -107.097 94.6495 
-81.5378 -104.585 95.4259 -81.6224 -106.822 94.5577 -81.7684 -104.114 94.9198 
-81.1434 -109.862 93.7713 -81.9129 -105.958 94.2246 -82.1751 -103.336 94.4018 
-81.7472 -109.313 93.7923 -81.2356 -112.326 93.1309 -82.3499 -104.924 93.8588 
-83.0472 -102.455 94.2142 -82.0395 -108.075 93.5585 -81.7012 -111.466 93.0067 
-81.3543 -114.078 92.2745 -83.1853 -103.844 93.7887 -84.0324 -101.266 94.1112 
-82.5438 -106.607 93.3591 -82.0224 -109.749 92.7766 -81.5659 -112.599 91.9219 
-81.4567 -114.893 91.0968 -84.0593 -102.358 93.6647 -84.7463 -99.6659 93.5741 
-83.4231 -105.038 93.3936 -82.8671 -107.735 92.9205 -82.1581 -110.314 91.9905 
-81.6864 -112.665 91.0755 -81.7406 -114.631 90.312 -84.7732 -100.446 93.064 
-85.3924 -97.9674 92.6611 -84.2433 -103.107 93.1526 -83.9204 -105.712 93.099 
-83.4021 -107.998 92.527 -82.6328 -110.056 91.5907 -82.2718 -112.098 90.9038 
-82.3643 -113.666 90.1472 -85.539 -98.5165 92.2324 -86.1981 -96.4073 91.7381 
-84.9483 -100.907 92.5401 -84.6534 -103.495 92.7962 -84.4604 -105.841 92.7446 
-83.9268 -107.711 92.1149 -83.3284 -109.478 91.4238 -83.1309 -111.22 90.8921 
-83.0993 -112.394 90.1772 -86.4406 -96.7815 91.4383 -87.0746 -94.9594 90.9064 
-85.786 -98.804 91.8745 -85.3085 -101.132 92.2434 -85.0909 -103.513 92.4686 
[...]
CELL_DATA 2000
SCALARS Distance double
LOOKUP_TABLE default
137.807 137.823 138.139 138.923 138.055 138.293 139.13 139.444 140.368 
138.345 138.588 139.391 139.695 140.603 140.961 141.897 138.561 138.853 
139.665 139.96 140.848 141.186 142.131 142.484 143.425 138.92 139.127 
140.065 140.311 141.313 141.556 142.592 142.829 143.877 144.12 145.155 
139.673 139.679 140.639 140.817 141.917 142.168 143.306 143.488 144.603 
144.755 145.88 146.037 147.133 140.666 140.532 141.283 141.384 142.359 
142.714 143.85 144.192 145.3 145.53 146.644 146.842 147.982 148.116 
149.184 141.646 141.449 141.99 141.957 142.768 143.069 144.223 144.649 
145.872 146.181 147.371 147.604 148.815 148.994 150.143 150.198 151.207 
142.625 142.373 142.894 142.707 143.536 143.63 144.929 145.222 146.719 
146.944 148.376 148.494 149.854 149.941 151.199 151.221 152.305 152.235 
153.17 137.197 136.227 136.829 137.123 135.19 135.844 136.165 136.841 
137.304 134.151 134.825 135.203 135.888 136.347 137.086 137.595 133.239 
133.855 134.264 134.939 135.37 136.094 136.54 137.302 137.76 132.495 
133.006 133.399 134.041 134.469 135.124 135.498 136.19 136.612 137.419 
138.012 132.054 132.335 132.687 133.24 133.763 134.351 134.783 135.276 
135.668 136.312 136.984 137.877 138.778 132.236 132.136 132.434 132.704 
133.331 133.837 134.5 134.858 135.31 135.628 136.249 136.961 137.991 
138.917 139.945 133.04 132.654 132.903 132.783 133.37 133.649 134.48 
134.824 135.47 135.597 136.119 136.453 137.35 138.177 139.341 140.184 
141.102 134.054 133.632 133.865 133.521 133.969 133.938 134.689 134.952 
135.747 135.919 136.496 136.568 137.238 137.688 138.741 139.567 140.662 
141.354 142.149 134.658 135.614 134.936 134.564 136.716 135.997 135.679 
134.925 134.673 137.929 137.183 136.906 136.122 135.907 135.213 135.26 
139.335 138.507 138.294 137.44 137.264 136.516 136.569 136.008 136.232 
140.972 140.08 139.956 138.998 138.898 138.018 138.099 137.398 137.578 
136.973 137.064 142.574 141.779 141.744 140.814 140.797 139.84 139.948 
139.087 139.253 138.445 138.525 137.75 137.852 143.97 143.31 143.368 
142.597 142.656 141.787 141.889 141.008 141.142 140.249 140.353 139.437 
139.615 138.806 139.245 145.333 144.697 144.839 144.169 144.307 143.565 
143.674 142.868 142.972 142.128 142.263 141.381 141.619 140.768 141.202 
140.488 141.079 146.739 146.114 146.294 145.653 145.839 145.162 145.316 
144.571 144.7 143.907 144.092 143.292 143.594 142.803 143.208 142.458 
142.898 142.232 142.611 143.47 143.978 144.171 145.12 144.414 144.744 
145.855 146.039 147.242 144.775 145.189 146.422 146.759 147.997 148.297 
149.726 145.172 145.553 146.831 147.287 148.608 148.982 150.354 150.799 
152.347 145.691 145.979 147.214 147.686 149.067 149.534 150.907 151.352 
152.797 153.347 154.815 146.251 146.497 147.633 148.063 149.392 149.926 
151.279 151.793 153.135 153.693 155.051 155.623 156.813 146.738 146.996 
148.036 148.427 149.638 150.175 151.457 152.028 153.293 153.885 155.168 
155.777 156.974 157.438 158.378 147.161 147.42 148.385 148.744 149.843 
150.347 151.556 152.13 153.351 153.942 155.201 155.835 157.101 157.633 
158.699 158.981 159.789 147.565 147.808 148.7 149.018 150.006 150.472 
151.603 152.183 153.372 153.966 155.179 155.823 157.096 157.741 158.911 
159.339 160.228 160.396 161.077 143.403 145.028 144.012 143.755 147.34 
146.044 145.938 144.664 144.632 150.105 148.772 148.99 147.45 147.606 
146.062 146.266 152.896 151.725 152.185 150.781 151.124 149.487 149.688 
148.01 148.171 155.369 154.449 154.904 153.809 154.129 152.846 153.028 
151.506 151.527 149.871 149.851 157.272 156.637 156.978 156.164 156.297 
155.356 155.423 154.378 154.401 153.073 152.959 151.395 151.28 158.716 
158.235 158.548 157.925 158.012 157.196 157.162 156.329 156.366 155.482 
155.469 154.274 154.096 152.666 152.498 160.041 159.57 159.956 159.414 
159.692 158.911 158.999 158.065 158.124 157.257 157.344 156.439 156.374 
155.225 154.996 153.699 153.483 161.309 160.881 161.329 160.873 161.357 
160.716 161.047 160.109 160.25 159.197 159.281 158.294 158.318 157.303 
157.171 156.013 155.767 154.535 154.29 162.084 163.35 162.545 162.218 
164.734 163.919 163.68 162.784 162.378 166.112 165.352 165.141 164.283 
163.917 162.908 162.217 167.203 166.683 166.467 165.683 165.263 164.353 
163.629 162.503 161.473 167.451 167.441 167.206 166.752 166.159 165.453 
164.618 163.706 162.625 161.52 160.38 166.723 167.105 166.743 166.855 
166.127 165.886 164.945 164.385 163.316 162.47 161.318 160.334 159.259 
165.792 166.079 165.587 165.868 165.207 165.355 164.588 164.42 163.536 
162.993 161.972 161.142 160.03 159.132 158.059 165.167 165.262 164.811 
164.849 164.378 164.456 164.017 164.003 163.421 163.123 162.275 161.665 
160.583 159.776 158.594 157.775 156.642 164.482 164.694 164.344 164.365 
163.986 163.962 163.6 163.578 163.061 162.919 162.082 161.735 160.624 
160.078 158.828 158.149 156.91 156.221 155.102 162.266 162.662 162.814 
163.435 162.542 163.026 163.788 164.047 164.776 161.982 162.668 163.572 
164.211 165.092 165.399 166.117 161.491 162.049 162.884 163.724 164.667 
165.397 166.115 166.529 167.044 161.214 161.652 162.289 162.965 163.755 
164.618 165.239 166.007 166.391 167.014 167.183 160.614 161.261 161.816 
162.406 163.026 163.699 164.192 164.869 165.152 165.906 166.103 166.757 
166.642 159.499 160.37 160.92 161.719 162.301 163.016 163.489 163.99 
164.214 164.697 164.916 165.567 165.736 166.157 165.951 158.313 159.143 
159.649 160.555 161.124 162.07 162.613 163.316 163.565 163.961 164.069 
164.54 164.754 165.3 165.372 165.602 165.347 157.325 158.024 158.466 
159.26 159.764 160.721 161.28 162.226 162.578 163.213 163.269 163.729 
163.776 164.33 164.402 164.899 164.746 164.965 164.57 148.073 149.177 
148.808 149.192 150.314 149.939 150.367 149.989 150.484 151.541 151.148 
151.648 151.242 151.829 151.448 152.1 152.736 152.409 152.95 152.583 
153.227 152.879 153.62 153.221 153.912 153.643 153.469 153.982 153.79 
154.455 154.259 155.063 154.771 155.553 155.094 155.766 154.36 154.236 
154.774 154.694 155.465 155.417 156.34 156.181 157.075 156.738 157.535 
157.021 157.709 155.176 155.019 155.712 155.59 156.561 156.515 157.604 
157.477 158.426 158.183 159.011 158.699 159.44 158.961 159.519 156.049 
155.957 156.795 156.706 157.781 157.757 158.878 158.77 159.624 159.407 
160.074 159.921 160.588 160.419 160.962 160.541 160.822 156.763 156.81 
157.66 157.737 158.745 158.877 159.875 159.9 160.591 160.423 160.885 
160.753 161.293 161.281 161.846 161.696 162.029 161.576 161.661 147.567 
147.134 147.802 148.677 146.633 147.339 148.244 148.914 149.788 146.085 
146.796 147.676 148.417 149.318 150.021 150.939 145.553 146.221 147.057 
147.801 148.662 149.438 150.372 151.171 152.1 145.176 145.726 146.544 
147.208 148.021 148.732 149.591 150.455 151.433 152.28 153.09 144.992 
145.432 146.222 146.783 147.593 148.168 148.932 149.644 150.558 151.483 
152.427 153.188 153.865 144.823 145.254 145.976 146.504 147.304 147.832 
148.576 149.102 149.893 150.636 151.575 152.441 153.285 153.948 154.6 
144.577 145.022 145.685 146.209 146.955 147.523 148.279 148.804 149.551 
150.113 150.939 151.658 152.52 153.282 154.038 154.693 155.362 144.39 
144.784 145.444 145.901 146.599 147.13 147.855 148.437 149.191 149.779 
150.554 151.151 151.93 152.581 153.336 154.032 154.737 155.412 156.053 
144.57 145.3 145.159 145.64 146.062 145.949 146.43 146.261 146.763 
146.824 146.747 147.296 147.092 147.556 147.395 147.956 147.708 147.61 
148.25 148.013 148.477 148.223 148.758 148.652 149.305 148.562 148.53 
149.192 149.01 149.483 149.187 149.695 149.52 150.206 150.098 150.758 
149.128 149.207 149.811 149.827 150.326 150.164 150.671 150.498 151.182 
151.065 151.765 151.567 152.141 149.568 149.601 150.117 150.248 150.819 
150.881 151.498 151.451 152.171 152.074 152.797 152.604 153.197 152.931 
153.477 150.099 150.029 150.492 150.548 151.201 151.342 152.136 152.231 
153.062 153.049 153.818 153.662 154.291 154.018 154.569 154.293 154.858 
150.623 150.577 151.076 151.062 151.784 151.868 152.764 152.891 153.796 
153.872 154.673 154.632 155.294 155.108 155.665 155.398 155.929 155.665 
156.185 151.021 152.129 151.577 151.68 153.651 152.977 153.18 152.434 
152.553 155.156 154.578 154.828 154.104 154.249 153.444 153.571 156.542 
156.025 156.302 155.684 155.817 155.106 155.178 154.448 154.546 158.124 
157.534 157.907 157.192 157.355 156.597 156.655 155.946 156.01 155.34 
155.391 159.773 159.254 159.748 158.989 159.226 158.306 158.389 157.496 
157.564 156.787 156.836 156.11 156.054 161.25 160.858 161.402 160.809 
161.089 160.264 160.364 159.409 159.439 158.488 158.471 157.597 157.497 
156.681 156.477 162.658 162.288 162.813 162.318 162.58 161.943 162.047 
161.293 161.311 160.413 160.288 159.299 159.058 158.132 157.859 157.021 
156.739 163.898 163.618 164.072 163.638 163.815 163.253 163.286 162.717 
162.747 162.096 161.982 161.074 160.723 159.698 159.297 158.385 158.056 
157.249 156.958 150.802 150.555 151.013 151.783 150.304 150.797 151.699 
152.227 153.247 150.23 150.7 151.717 152.224 153.289 153.784 154.766 
150.12 150.68 151.7 152.267 153.291 153.805 154.738 155.204 156.112 
149.739 150.417 151.332 152.055 152.991 153.659 154.545 155.11 156.015 
156.551 157.571 149.291 149.934 150.779 151.499 152.4 153.17 154.114 
154.821 155.776 156.405 157.423 158.053 159.123 148.976 149.543 150.397 
150.989 151.901 152.592 153.621 154.373 155.424 156.12 157.134 157.808 
158.851 159.537 160.579 148.705 149.266 150.11 150.675 151.552 152.186 
153.185 153.929 154.982 155.725 156.722 157.435 158.459 159.202 160.303 
160.994 162.035 148.404 148.959 149.741 150.331 151.128 151.785 152.685 
153.452 154.425 155.211 156.155 156.923 157.931 158.756 159.909 160.715 
161.842 162.471 163.375 150.333 149.568 150.005 150.016 148.499 149.121 
149.109 149.567 149.613 147.163 147.927 148.032 148.591 148.592 149.156 
149.377 145.858 146.605 146.801 147.463 147.537 148.105 148.219 148.927 
149.22 144.568 145.327 145.485 146.212 146.314 146.977 147.048 147.722 
147.874 148.665 148.886 143.092 143.923 144 144.803 144.848 145.632 
145.687 146.44 146.517 147.277 147.417 148.235 148.445 141.57 142.367 
142.42 143.222 143.24 144.062 144.119 144.958 145.056 145.861 145.978 
146.774 146.964 147.817 148.096 140.227 140.918 141.001 141.705 141.752 
142.484 142.543 143.354 143.482 144.345 144.518 145.347 145.546 146.367 
146.638 147.514 147.834 139.031 139.666 139.767 140.411 140.482 141.119 
141.154 141.845 141.927 142.752 142.958 143.863 144.141 144.996 145.287 
146.108 146.428 147.277 147.594 138.379 137.536 138.363 139.117 136.646 
137.49 138.321 139.119 139.842 136.053 136.7 137.535 138.312 139.088 
139.819 140.494 135.883 136.305 137.066 137.649 138.413 139.075 139.788 
140.477 141.218 135.914 136.235 136.941 137.351 138.08 138.558 139.301 
139.87 140.708 141.368 142.283 136.167 136.347 137.074 137.347 138.107 
138.429 139.229 139.622 140.554 141.072 142.111 142.661 143.615 136.73 
136.77 137.511 137.635 138.433 138.631 139.487 139.762 140.732 141.132 
142.205 142.666 143.664 144.062 144.878 137.3 137.37 138.055 138.156 
138.913 139.067 139.903 140.125 141.054 141.387 142.399 142.818 143.79 
144.175 145.001 145.307 146.035 137.687 137.823 138.452 138.615 139.313 
139.511 140.3 140.538 141.41 141.704 142.632 142.995 143.918 144.294 
145.132 145.454 146.202 146.478 147.187 138.099 139.171 138.679 138.896 
140.598 139.923 140.086 139.551 139.806 142.179 141.473 141.634 140.922 
141.147 140.565 140.861 143.733 143.073 143.318 142.584 142.812 142.086 
142.373 141.729 142.039 145.405 144.678 144.978 144.277 144.558 143.827 
144.099 143.371 143.655 142.967 143.266 147.323 146.477 146.76 145.989 
146.285 145.555 145.821 145.097 145.344 144.63 144.885 144.208 144.498 
149.341 148.463 148.725 147.869 148.14 147.327 147.568 146.793 147.009 
146.285 146.516 145.83 146.079 145.423 145.68 151.322 150.47 150.727 
149.86 150.111 149.247 149.464 148.597 148.769 147.956 148.149 147.434 
147.663 146.994 147.214 146.557 146.756 153.252 152.432 152.687 151.833 
152.057 151.201 151.395 150.521 150.662 149.776 149.896 149.082 149.239 
148.535 148.713 148.062 148.229 147.581 147.736 148.484 148.98 149.08 
149.782 149.489 149.588 150.319 150.413 151.169 150.116 150.187 151.02 
151.053 151.908 151.931 152.79 150.889 150.952 151.931 151.928 152.887 
152.834 153.76 153.693 154.562 151.693 151.8 152.839 152.907 153.923 
153.906 154.842 154.749 155.616 155.495 156.302 152.447 152.605 153.656 
153.782 154.838 154.91 155.946 155.894 156.889 156.703 157.655 157.374 
158.236 153.183 153.38 154.541 154.659 155.849 155.902 157.156 157.128 
158.41 158.221 159.436 159.053 160.111 159.572 160.423 153.878 154.151 
155.46 155.653 157.02 157.099 158.517 158.523 159.953 159.868 161.163 
160.917 161.964 161.539 162.341 161.762 162.375 154.441 154.812 156.162 
156.536 157.961 158.253 159.662 159.85 161.155 161.255 162.324 162.317 
163.076 162.97 163.518 163.315 163.761 163.401 163.769 133.992 133.003 
133.533 133.594 132.179 132.56 132.597 133.101 133.169 131.92 131.945 
131.917 132.188 132.242 132.718 132.947 132.247 131.954 131.843 131.781 
131.809 131.998 132.261 132.733 133.255 132.906 132.426 132.245 131.955 
131.975 131.891 132.139 132.32 132.843 133.305 133.967 133.837 133.21 
133.008 132.523 132.556 132.298 132.55 132.476 132.891 133.077 133.66 
134.085 134.695 134.986 134.308 134.157 133.486 133.502 133.058 133.321 
133.072 133.412 133.306 133.732 133.899 134.482 134.851 135.478 136.128 
135.542 135.485 134.779 134.749 134.145 134.331 133.952 134.265 133.974 
134.301 134.165 134.669 134.819 135.519 135.809 136.528 137.135 136.668 
136.698 136.101 136.063 135.418 135.481 134.999 135.252 134.897 135.208 
134.902 135.326 135.228 135.902 136.042 136.832 137.028 137.747 134.53 
134.156 134.633 135.212 133.771 134.265 134.881 135.35 136.004 133.587 
133.96 134.625 135.051 135.713 136.197 136.922 133.887 134.005 134.688 
134.935 135.628 135.981 136.721 137.178 137.947 134.534 134.505 135.133 
135.199 135.883 136.065 136.838 137.141 137.979 138.328 139.136 135.192 
135.149 135.708 135.72 136.343 136.439 137.177 137.392 138.235 138.518 
139.359 139.627 140.405 135.922 135.792 136.346 136.304 136.935 136.962 
137.665 137.784 138.562 138.798 139.596 139.874 140.607 140.871 141.543 
136.906 136.63 137.191 137.037 137.714 137.655 138.386 138.37 139.097 
139.17 139.915 140.105 140.833 141.057 141.712 141.935 142.532 138.04 
137.698 138.203 137.971 138.598 138.495 139.19 139.14 139.809 139.782 
140.453 140.513 141.232 141.362 142.058 142.185 142.808 142.932 143.494 
134.933 135.621 135.445 135.848 136.459 136.214 136.629 136.439 136.923 
137.435 137.165 137.603 137.312 137.757 137.558 138.098 138.417 138.162 
138.629 138.34 138.739 138.446 138.932 138.782 139.442 139.494 139.156 
139.613 139.342 139.783 139.468 139.939 139.695 140.363 140.26 141.046 
140.733 140.312 140.753 140.392 140.899 140.561 141.107 140.8 141.463 
141.27 142.036 141.915 142.637 141.901 141.555 142.011 141.629 142.12 
141.751 142.293 141.987 142.606 142.389 143.06 142.9 143.543 143.401 
143.999 142.861 142.621 143.084 142.819 143.258 142.94 143.366 143.088 
143.589 143.412 143.991 143.855 144.443 144.291 144.875 144.724 145.332 
143.745 143.512 143.95 143.761 144.189 143.951 144.322 144.054 144.468 
144.28 144.815 144.702 145.304 145.181 145.798 145.643 146.273 146.112 
146.738 150.265 149.772 149.891 149.522 149.138 149.272 148.831 148.962 
148.386 148.536 148.579 148.016 148.135 147.504 147.625 146.973 147.834 
147.887 147.239 147.326 146.68 146.74 146.087 146.201 145.643 146.918 
147.012 146.294 146.469 145.812 145.936 145.232 145.323 144.683 144.888 
144.344 146.088 146.084 145.329 145.445 144.756 144.948 144.196 144.355 
143.578 143.813 143.158 143.483 142.876 145.436 145.385 144.659 144.607 
143.892 143.926 143.186 143.265 142.49 142.643 141.952 142.231 141.635 
141.954 141.373 144.738 144.761 144.075 144.024 143.292 143.213 142.473 
142.413 141.707 141.705 141.072 141.166 140.599 140.79 140.256 140.52 
140.025 144.024 144.052 143.398 143.398 142.681 142.626 141.874 141.799 
141.097 141.064 140.448 140.457 139.868 139.917 139.341 139.49 138.978 
139.25 138.816 
POINT_DATA 1002
SCALARS Distance double
LOOKUP_TABLE default
138.461 137.553 137.409 138.55 137.514 139.762 138.818 137.839 140.024 
141.32 139.111 138.09 140.247 141.542 142.833 139.363 138.232 140.527 
141.773 143.08 144.367 139.791 138.739 141.046 142.371 143.637 144.919 
146.187 140.512 139.774 141.619 143.091 144.462 145.716 147.011 148.207 
141.316 140.912 142.027 143.435 145.027 146.417 147.805 149.136 150.214 
142.123 141.907 142.532 143.748 145.49 147.105 148.597 150.047 151.25 
152.164 143.092 142.878 143.469 144.61 146.432 148.244 149.788 151.184 
152.373 153.299 154.052 136.63 136.45 135.603 135.483 134.486 136.565 
134.51 133.462 135.622 136.86 133.6 132.661 134.689 135.803 136.96 
132.763 132.068 133.84 134.886 135.81 137.068 132.182 131.921 133.123 
134.334 135.138 136.062 137.826 132.313 132.481 132.814 134.063 135.111 
135.69 136.998 139.153 133.174 133.471 133.228 134.075 135.306 135.999 
136.674 138.382 140.49 134.257 134.438 134.169 134.517 135.48 136.458 
137.034 138.011 139.832 141.666 135.282 135.272 136.292 136.432 137.428 
135.339 137.692 138.672 136.601 135.787 139.162 140.176 138.031 137.165 
136.76 140.905 141.84 139.804 138.863 138.273 137.705 142.595 143.291 
141.735 140.856 140.129 139.361 138.514 144.047 144.575 143.463 142.774 
142.042 141.26 140.44 139.894 145.471 145.954 145.001 144.46 143.793 
143.085 142.447 141.973 141.741 146.921 147.346 146.492 146.03 145.463 
144.846 144.347 143.991 143.664 143.293 144.241 144.982 146.141 145.589 
146.999 148.591 145.99 147.692 149.305 151.29 146.326 148.184 149.955 
151.807 153.951 146.768 148.553 150.471 152.301 154.288 156.211 147.264 
148.871 150.759 152.615 154.494 156.377 157.856 147.697 149.15 150.9 
152.718 154.553 156.464 158.088 159.197 148.075 149.387 150.998 152.778 
154.563 156.495 158.351 159.663 160.513 148.431 149.597 151.038 152.779 
154.564 156.417 158.383 160.007 161.019 161.704 144.705 147.291 145.82 
150.442 149.245 147.76 153.454 152.671 151.468 149.847 155.952 155.315 
154.414 153.215 151.531 157.754 157.232 156.348 155.515 154.481 152.876 
159.101 158.795 158.013 157.132 156.46 155.474 153.948 160.421 160.354 
159.934 159.06 158.188 157.392 156.264 154.787 161.721 161.856 161.871 
161.347 160.354 159.31 158.261 156.996 155.527 162.837 163.089 164.135 
164.543 165.534 163.418 165.988 166.822 164.901 163.446 167.249 167.546 
166.174 164.727 162.731 167.535 167.277 166.842 165.469 163.673 161.486 
166.508 166.388 166.19 165.351 164.025 162.266 160.214 165.345 165.648 
164.911 164.527 163.894 162.705 160.958 158.928 164.797 165.059 164.294 
163.936 163.595 162.786 161.351 159.452 157.409 164.231 164.161 164.009 
163.663 163.211 162.389 161.089 159.445 157.593 155.732 162.27 163.349 
162.379 163.361 161.898 164.671 162.753 161.305 164.617 166.002 162.095 
161.081 163.815 165.583 166.771 161.788 160.782 162.995 164.469 165.677 
166.733 161.223 159.846 162.447 163.645 164.473 165.316 166.267 160.049 
158.611 161.498 162.967 163.866 164.316 165.127 165.825 158.779 157.557 
160.128 161.754 163.127 163.714 164.189 164.958 165.343 157.744 156.681 
158.883 160.289 161.807 162.809 163.294 163.854 164.405 164.5 148.443 
149.553 149.539 150.73 150.676 150.824 152.043 151.91 152.179 152.49 
153.28 153.023 153.534 153.977 154.399 154.11 153.805 154.565 155.274 
155.943 156.323 154.805 154.48 155.418 156.421 157.336 157.956 158.334 
155.784 155.275 156.558 157.717 158.686 159.27 159.82 160.177 156.823 
156.061 157.787 159.007 159.921 160.279 160.684 161.27 161.448 146.916 
148.051 146.438 147.532 145.931 149.154 146.929 145.397 148.569 150.236 
146.34 144.927 147.908 149.513 151.373 145.916 144.687 147.381 148.78 
150.484 152.448 145.695 144.596 147.057 148.347 149.674 151.521 153.317 
145.474 144.402 146.763 148.095 149.291 150.719 152.49 154.054 145.192 
144.14 146.393 147.714 149.032 150.334 151.769 153.308 154.759 145.022 