# vtk DataFile Version 4.0
vtk output
ASCII
DATASET POLYDATA
POINTS 1002 float
-83.3727 -83.943 75.0146 -83.5875 -83.0492 74.1249 -83.0383 -82.9411 74.7571 
-82.7915 -83.8691 75.7457 -82.3742 -82.9091 75.4361 -83.3203 -84.655 76.3421 
-82.1719 -83.8365 76.6482 -81.7123 -82.9574 76.2915 -82.8156 -84.557 77.2646 
-83.4283 -85.2308 78.0015 -81.6571 -83.8352 77.8161 -81.2879 -82.9386 77.568 
-82.2883 -84.5441 78.3694 -82.9334 -85.2854 78.962 -83.1861 -86.4189 79.444 
-81.3324 -83.7948 79.2311 -80.9916 -82.7943 79.0817 -81.8064 -84.6678 79.598 
-82.3688 -85.528 80.0385 -82.6045 -86.7797 80.3851 -82.5682 -88.2399 80.7992 
-80.9315 -83.8757 80.5414 -80.4588 -82.8449 80.2477 -81.3444 -84.9341 80.7948 
-81.802 -85.9611 81.1612 -82.0996 -87.2135 81.5397 -82.1417 -88.6718 82.0001 
-82.2851 -89.849 82.5982 -80.3523 -84.3187 81.5528 -79.8669 -83.2983 81.0766 
-80.8238 -85.3604 81.8848 -81.28 -86.4713 82.2832 -81.682 -87.6937 82.8113 
-81.8919 -89.0985 83.3714 -82.046 -90.4035 83.9601 -82.3003 -91.4023 84.4435 
-79.9189 -84.942 82.5314 -79.5954 -83.8835 82.0629 -80.4 -85.8597 83.0039 
-80.9204 -86.9225 83.4977 -81.3583 -88.1861 84.1122 -81.6016 -89.644 84.6949 
-81.704 -91.1729 85.1665 -81.8484 -92.4823 85.5519 -81.9878 -93.5679 85.7717 
-79.7211 -85.4379 83.6158 -79.5405 -84.3326 83.2739 -80.1446 -86.3344 84.1416 
-80.6996 -87.364 84.7283 -81.1342 -88.7172 85.3426 -81.2751 -90.3382 85.8583 
-81.1825 -92.1246 86.1681 -81.1548 -93.7712 86.4099 -81.301 -95.0623 86.6467 
-81.4325 -96.1 86.7895 -79.5903 -85.8066 84.6895 -79.4787 -84.68 84.4525 
-79.9269 -86.8346 85.1484 -80.3982 -87.9802 85.7196 -80.7645 -89.4188 86.2759 
-80.8613 -91.1315 86.7175 -80.6885 -93.06 86.9697 -80.5028 -94.9503 87.1473 
-80.5895 -96.4627 87.4032 -80.8603 -97.5801 87.6659 -81.077 -98.4614 87.8167 
-83.3877 -82.2117 73.6752 -82.7949 -82.0426 74.369 -82.8819 -81.6564 72.9893 
-82.267 -81.3652 73.7484 -82.2194 -81.0679 72.1524 -82.0679 -81.9817 75.0427 
-81.6812 -80.5431 73.0026 -81.894 -79.919 71.7077 -81.5937 -81.1301 74.5267 
-81.4115 -82.0153 75.9817 -81.4243 -79.2054 72.6754 -82.0182 -78.5234 71.9388 
-81.185 -80.0306 74.0203 -81.0987 -81.0219 75.7343 -81.0253 -81.9667 77.4553 
-81.4291 -77.7941 72.9505 -82.3282 -77.4854 72.4805 -81.0333 -78.5352 73.9158 
-80.9351 -79.7971 75.5741 -80.7561 -80.9792 77.3543 -80.5589 -81.822 78.9033 
-81.6305 -76.7423 73.4849 -82.8131 -76.6607 72.9832 -81.0329 -77.1101 74.2748 
-80.9712 -78.3324 75.7001 -80.6673 -79.8723 77.294 -80.1147 -80.8772 78.5869 
-79.8519 -81.8534 79.8095 -82.1689 -75.9872 74.1144 -83.4397 -75.9049 73.5008 
-81.2474 -76.1531 74.9029 -81.079 -77.0304 76.1614 -80.8466 -78.6258 77.5606 
-80.0476 -79.8708 78.5723 -79.4574 -80.7533 79.5134 -79.4413 -82.1622 80.7451 
-82.8764 -75.5511 74.9199 -83.9704 -75.4778 74.194 -81.7607 -75.7138 75.7373 
-81.2547 -76.2718 76.8501 -81.0922 -77.5517 78.1313 -80.4253 -78.9046 79.1051 
-79.5788 -79.7457 79.8914 -79.3255 -80.8418 80.9332 -79.4527 -82.6023 82.1442 
-83.4958 -75.4775 75.8529 -84.3297 -75.4596 75.062 -82.4383 -75.6638 76.693 
-81.607 -76.0543 77.6647 -81.2833 -76.9182 78.7784 -80.9033 -78.1639 79.7887 
-80.1115 -79.1249 80.6587 -79.5308 -79.9104 81.6395 -79.462 -81.2753 82.6943 
-79.506 -83.0824 83.6269 -84.2372 -75.663 76.5246 -83.4164 -75.7749 77.4189 
-84.257 -76.1012 77.9569 -83.4668 -76.2404 78.993 -84.3538 -76.6491 79.3645 
-82.3934 -76.0627 78.3779 -83.5557 -76.6684 80.6498 -84.4047 -77.103 81.0609 
-82.4649 -76.5236 80.0734 -81.6435 -76.5922 79.3945 -83.5957 -77.2157 82.3386 
-84.4272 -77.684 82.7334 -82.618 -77.0586 81.7377 -81.7992 -77.2244 81.0282 
-81.3026 -77.6196 80.3895 -83.6662 -78.3258 83.5954 -84.5193 -78.8295 83.8362 
-82.7706 -78.0595 83.17 -82.0135 -78.12 82.5578 -81.3775 -78.4644 81.94 
-80.7367 -78.8105 81.3762 -83.8147 -79.8197 84.6026 -84.6278 -80.2453 84.8148 
-82.8887 -79.4989 84.3469 -82.0968 -79.3342 83.9785 -81.3884 -79.4576 83.486 
-80.6165 -79.647 83.0363 -79.9519 -79.6843 82.4889 -83.9564 -81.1427 85.8689 
-84.657 -81.4636 86.0467 -83.0149 -80.8789 85.6396 -82.1017 -80.6359 85.3723 
-81.3674 -80.5547 84.9619 -80.6005 -80.6639 84.5184 -79.9174 -80.6921 84.1606 
-79.5769 -80.7721 83.5785 -84.0381 -82.3726 87.064 -84.6172 -82.6635 87.0865 
-83.1817 -82.1459 86.9265 -82.2172 -81.9769 86.686 -81.501 -81.9011 86.2893 
-80.8997 -81.9853 85.7675 -80.2004 -82.0792 85.3702 -79.6905 -82.1322 85.0293 
-79.5247 -82.4362 84.4215 -84.0633 -83.7721 87.8411 -84.5634 -84.031 87.7398 
-83.3404 -83.5438 87.853 -82.4397 -83.4171 87.7235 -81.7296 -83.4377 87.4074 
-81.2997 -83.5836 86.9183 -80.757 -83.7071 86.4576 -80.0628 -83.7155 86.1395 
-79.5942 -83.8018 85.7403 -79.4533 -84.1595 85.1181 -79.4344 -85.8293 85.6876 
-79.4269 -85.4898 86.385 -79.4821 -87.3514 87.0759 -79.7235 -85.3136 86.9965 
-79.4941 -87.1069 87.8742 -79.526 -89.4313 88.462 -80.3827 -85.353 87.3632 
-79.812 -86.9805 88.4548 -79.5511 -89.1707 89.2346 -79.4377 -91.7584 89.5577 
-81.0765 -85.3701 87.6601 -80.4596 -87.0288 88.6839 -79.8868 -89.0268 89.6032 
-79.6309 -91.5727 90.1552 -79.3798 -93.9689 90.4919 -81.5134 -85.1972 88.0756 
-81.1333 -87.0169 88.8804 -80.6068 -89.0667 89.6555 -80.2133 -91.5531 90.3485 
-79.8049 -93.987 91.0238 -79.4618 -96.256 91.5426 -82.003 -85.0081 88.458 
-81.6638 -86.837 89.249 -81.3428 -89.022 89.8666 -81.0085 -91.6005 90.3926 
-80.5036 -94.0432 91.2054 -79.8992 -96.3012 92.0386 -79.5716 -98.9353 92.4805 
-82.7929 -85.0034 88.6208 -82.2845 -86.6919 89.5355 -81.908 -88.7943 90.2752 
-81.5791 -91.3904 90.6828 -81.0826 -93.91 91.2902 -80.4619 -96.1723 92.1508 
-79.9834 -98.7732 92.7596 -79.6969 -101.831 92.9903 -83.6049 -85.1577 88.5882 
-83.0556 -86.6859 89.5675 -82.529 -88.5443 90.5007 -82.0557 -90.9468 91.055 
-81.4803 -93.4547 91.5919 -80.889 -95.7748 92.294 -80.5134 -98.3792 92.7785 
-80.2156 -101.435 93.0197 -79.8001 -104.479 93.1676 -84.2185 -85.3521 88.4613 
-83.7829 -86.7339 89.4592 -83.2654 -88.3435 90.4777 -82.7201 -90.5095 91.1445 
-82.0625 -92.9317 91.7869 -81.3584 -95.2114 92.6229 -80.9592 -97.7542 93.0664 
-80.7859 -100.803 93.0473 -80.3975 -103.888 93.0974 -79.7703 -106.603 93.2587 
-79.6378 -87.1266 86.0193 -79.6414 -89.161 87.3748 -79.9488 -88.5949 86.4652 
-79.4172 -91.6552 88.5901 -79.5882 -91.1225 87.6224 -80.1309 -90.2407 86.9131 
-79.17 -93.9263 89.6809 -79.0558 -93.622 88.7144 -79.3639 -92.9356 87.8676 
-80.1552 -92.0219 87.2894 -79.2735 -96.2347 90.8364 -79.0956 -95.9668 89.9805 
-78.9893 -95.4894 89.0109 -79.3901 -94.8612 88.164 -80.1057 -94.0407 87.5746 
-79.496 -99.2679 91.9238 -79.5579 -99.1654 91.2241 -79.427 -98.6244 90.4036 
-79.3538 -97.9237 89.4024 -79.6309 -97.1491 88.5293 -80.0329 -96.1688 87.8433 
-79.5173 -102.663 92.6437 -79.6103 -103.049 92.0439 -79.6351 -102.694 91.4233 
-79.5524 -101.73 90.6709 -79.6808 -100.518 89.8079 -79.9192 -99.2648 89.017 
-80.1546 -97.9406 88.22 -79.4202 -105.628 92.9898 -79.2995 -106.437 92.4324 
-79.2407 -106.521 91.7992 -79.1962 -105.742 91.2845 -79.4905 -104.284 90.7836 
-80.0107 -102.532 90.2366 -80.3208 -100.837 89.5306 -80.5082 -99.2279 88.6147 
-79.2848 -107.927 93.1393 -79.0443 -109.001 92.5963 -78.9016 -109.478 91.8356 
-78.7715 -109.156 91.2648 -79.0145 -108.01 90.9898 -79.7369 -106.172 90.833 
-80.3969 -104.059 90.5144 -80.6901 -102.06 89.8228 -80.8415 -100.221 88.8421 
-79.2681 -109.312 93.3081 -78.9095 -110.859 92.8352 -78.9049 -112.119 92.9902 
-78.6311 -113.935 92.1384 -78.7569 -114.761 92.1805 -78.774 -111.954 91.9687 
-78.0736 -116.658 91.3007 -78.4906 -116.503 91.2251 -78.3424 -115.041 91.1664 
-78.6134 -112.246 91.1179 -77.2071 -118.178 90.5465 -78.2903 -117.126 90.4793 
-77.2765 -117.568 90.425 -78.1252 -115.079 90.36 -78.6584 -111.611 90.6666 
-77.2461 -118.339 89.753 -78.8202 -116.895 89.9627 -76.4559 -118.55 89.5839 
-77.2726 -116.977 89.5513 -78.5513 -113.831 89.9962 -79.2901 -109.968 90.6415 
-78.636 -117.194 89.113 -79.9003 -115.628 89.6804 -77.3678 -117.785 88.7321 
-77.2339 -116.954 88.7097 -78.333 -114.692 89.2742 -79.4695 -111.358 90.1652 
-80.1319 -107.555 90.7073 -80.2046 -114.952 88.94 -80.9422 -113.568 89.5938 
-79.2639 -115.71 88.4153 -78.5525 -115.394 88.3107 -78.7422 -113.913 88.8374 
-79.5458 -111.487 89.7282 -80.2796 -108.333 90.38 -80.6811 -104.967 90.4113 
-81.3446 -112.582 89.0065 -81.8918 -111.567 89.5233 -80.701 -113.261 88.5602 
-79.9961 -113.315 88.4323 -79.7038 -112.459 88.8385 -80.0268 -110.69 89.5716 
-80.5366 -108.21 90.091 -80.8715 -105.335 90.099 -80.9502 -102.564 89.6228 
-82.3083 -110.652 89.0054 -82.8138 -109.871 89.3717 -81.6892 -111.159 88.7055 
-80.9863 -111.298 88.6158 -80.5477 -110.852 88.8995 -80.6854 -109.566 89.4631 
-81.0983 -107.487 89.8622 -81.2942 -105.022 89.7762 -81.2278 -102.599 89.2693 
-81.1095 -100.414 88.553 -80.1173 -106.778 93.2979 -79.5773 -109.401 93.4875 
-80.5549 -106.628 93.4225 -80.1931 -109.072 93.6918 -81.088 -106.03 93.6001 
-79.3275 -111.967 93.2138 -81.026 -108.299 93.8375 -81.7939 -104.82 93.7032 
-80.1299 -111.18 93.4152 -79.3989 -113.995 92.2415 -81.9183 -106.887 93.827 
-82.7077 -103.011 93.7679 -80.9925 -109.919 93.5302 -80.1826 -112.44 92.3562 
-79.425 -114.966 91.1408 -82.8315 -104.789 93.7139 -83.5694 -101.093 93.7153 
-81.877 -108.117 93.4994 -80.8518 -110.573 92.5926 -80.1918 -112.837 91.3616 
-79.5761 -115.159 90.5641 -83.6468 -102.532 93.4697 -84.147 -99.5856 93.2677 
-82.9758 -105.779 93.4109 -81.8778 -108.496 92.8303 -80.9448 -110.659 91.8741 
-80.5358 -112.767 91.0708 -80.1822 -114.666 90.4187 -84.297 -100.672 93.0074 
-84.6808 -98.4333 92.5257 -84.0162 -103.367 93.2803 -83.2887 -106.147 93.0282 
-82.2261 -108.487 92.3155 -81.5988 -110.367 91.6253 -81.3109 -112.045 91.0361 
-81.0239 -113.248 90.3333 -84.9533 -99.193 92.3981 -85.4274 -97.2963 91.8105 
-84.7435 -101.329 92.9317 -84.4094 -103.749 93.0633 -83.6011 -106.161 92.5932 
-82.8659 -108.076 91.9114 -82.5247 -109.532 91.375 -82.1946 -110.724 90.8314 
-81.906 -111.449 90.166 -85.7025 -97.817 91.7119 -86.2712 -96.0529 91.1565 
-85.3253 -99.6501 92.2693 -85.0845 -101.614 92.656 -84.5775 -103.768 92.5753 
[...]
CELL_DATA 2000
SCALARS Distance double
LOOKUP_TABLE default
138.482 138.449 138.777 139.459 138.503 138.798 139.544 139.877 140.683 
138.8 138.982 139.791 140.059 140.92 141.211 142.054 139.337 139.436 
140.256 140.43 141.316 141.538 142.418 142.643 143.505 139.849 140.011 
140.824 140.971 141.853 142.025 142.952 143.123 144.077 144.234 145.207 
140.283 140.496 141.374 141.539 142.451 142.618 143.614 143.776 144.839 
144.97 146.06 146.14 147.184 140.902 141.032 142.008 142.137 143.133 
143.281 144.37 144.536 145.692 145.834 146.988 147.085 148.179 148.198 
149.178 141.74 141.787 142.776 142.868 143.918 144.055 145.211 145.379 
146.583 146.732 147.89 148.006 149.095 149.172 150.181 150.168 151.078 
142.597 142.629 143.561 143.661 144.7 144.866 146.009 146.219 147.39 
147.588 148.702 148.857 149.912 150.035 151.065 151.135 152.118 152.074 
152.971 137.902 136.986 137.587 137.839 135.904 136.607 136.877 137.508 
137.823 134.721 135.445 135.757 136.486 136.849 137.555 138.054 133.768 
134.287 134.581 135.327 135.801 136.595 137.185 137.938 138.586 133.296 
133.482 133.642 134.223 134.768 135.6 136.316 137.107 137.749 138.475 
139.064 133.224 133.153 133.145 133.449 133.965 134.704 135.516 136.296 
136.91 137.572 138.032 138.799 139.37 133.418 133.203 133.141 133.153 
133.593 134.101 134.967 135.644 136.299 136.786 137.144 137.728 138.263 
139.138 139.921 133.866 133.577 133.611 133.389 133.769 133.96 134.801 
135.3 136.086 136.409 136.823 137.071 137.574 138.181 139.048 139.912 
140.846 134.54 134.231 134.416 134.085 134.438 134.343 135.05 135.317 
136.166 136.435 137.028 137.093 137.604 137.836 138.654 139.258 140.252 
140.976 141.838 135.061 136.037 135.371 135.036 137.173 136.453 136.148 
135.397 135.13 138.394 137.649 137.383 136.602 136.379 135.659 135.674 
139.684 138.92 138.687 137.895 137.722 136.988 137.024 136.43 136.654 
141.028 140.256 140.083 139.279 139.178 138.413 138.471 137.815 137.973 
137.406 137.51 142.449 141.667 141.571 140.76 140.716 139.938 139.992 
139.289 139.399 138.738 138.802 138.14 138.17 143.921 143.167 143.135 
142.322 142.296 141.502 141.529 140.798 140.868 140.173 140.26 139.55 
139.673 138.954 139.206 145.3 144.647 144.666 143.907 143.893 143.095 
143.129 142.356 142.462 141.706 141.856 141.106 141.317 140.594 140.907 
140.238 140.68 146.52 145.974 146.048 145.393 145.418 144.677 144.744 
143.994 144.173 143.414 143.653 142.852 143.102 142.317 142.61 141.922 
142.288 141.715 142.15 143.08 143.254 143.611 144.632 143.624 143.901 
144.954 145.328 146.539 144.164 144.393 145.445 145.729 146.905 147.342 
148.596 144.713 144.974 146.008 146.251 147.33 147.701 148.922 149.381 
150.571 145.162 145.463 146.487 146.772 147.809 148.124 149.31 149.738 
151.006 151.379 152.583 145.634 145.873 146.883 147.197 148.269 148.596 
149.782 150.181 151.471 151.868 153.117 153.458 154.73 146.224 146.374 
147.335 147.605 148.686 149.036 150.203 150.623 151.838 152.287 153.469 
153.902 155.095 155.583 156.895 146.796 146.946 147.835 148.074 149.085 
149.426 150.521 150.949 152.063 152.532 153.618 154.105 155.22 155.777 
157.005 157.637 158.899 147.225 147.426 148.26 148.518 149.446 149.773 
150.772 151.179 152.22 152.677 153.723 154.195 155.275 155.812 156.988 
157.624 158.833 159.477 160.564 143.346 144.922 144.166 144.35 146.876 
145.954 146.166 145.317 145.567 148.945 148.026 148.214 147.274 147.489 
146.631 146.907 150.877 150.036 150.184 149.28 149.392 148.539 148.758 
147.984 148.258 152.918 152.02 152.284 151.289 151.451 150.457 150.665 
149.818 150.12 149.334 149.58 155.258 154.32 154.883 153.744 154.187 
152.888 153.23 152.001 152.366 151.332 151.655 150.689 150.866 157.618 
156.832 157.629 156.615 157.273 155.981 156.42 154.967 155.298 153.926 
154.234 152.997 153.196 152.031 152.106 159.662 159.123 159.946 159.236 
159.868 158.916 159.288 158.083 158.282 156.95 157.118 155.774 155.898 
154.558 154.575 153.288 153.23 161.268 160.946 161.705 161.245 161.792 
161.124 161.421 160.537 160.677 159.628 159.726 158.549 158.6 157.295 
157.229 155.85 155.677 154.343 154.127 162.268 163.837 162.991 162.751 
165.296 164.557 164.308 163.348 162.85 166.295 165.892 165.706 164.86 
164.284 163.234 162.472 166.544 166.55 166.466 166.023 165.494 164.601 
163.773 162.697 161.784 166.361 166.516 166.408 166.352 165.901 165.485 
164.738 163.921 162.991 161.934 160.924 165.957 166.186 165.95 166.016 
165.502 165.443 164.774 164.484 163.647 162.972 161.943 160.953 159.807 
165.16 165.542 165.234 165.41 164.833 164.858 164.187 164.162 163.449 
163.221 162.296 161.69 160.516 159.621 158.35 164.182 164.574 164.279 
164.555 164.053 164.156 163.551 163.561 162.945 162.859 162.088 161.749 
160.668 160.036 158.745 157.951 156.659 163.341 163.641 163.368 163.614 
163.192 163.357 162.844 162.939 162.386 162.387 161.684 161.472 160.462 
159.994 158.729 158.108 156.795 156.137 154.941 162.181 162.45 162.809 
163.741 162.57 163.041 163.985 164.326 165.159 162.431 163.092 164.034 
164.456 165.161 165.524 166.062 161.924 162.798 163.746 164.321 164.827 
165.245 165.57 166.024 166.251 161.119 162.094 163.004 163.782 164.185 
164.654 164.775 165.272 165.467 165.991 166.13 160.167 161.12 161.956 
162.862 163.34 163.885 163.989 164.41 164.571 165.13 165.375 165.849 
165.85 159.215 160.069 160.841 161.772 162.399 163.059 163.316 163.702 
163.846 164.293 164.51 165.03 165.084 165.429 165.151 158.38 159.107 
159.798 160.676 161.353 162.144 162.54 163.052 163.191 163.599 163.705 
164.167 164.2 164.595 164.4 164.613 164.227 157.634 158.279 158.833 
159.624 160.201 161.05 161.468 162.166 162.319 162.833 162.852 163.318 
163.3 163.72 163.59 163.875 163.605 163.746 163.4 147.666 148.733 
148.375 148.768 149.918 149.547 150.003 149.582 150.001 151.101 150.778 
151.296 150.892 151.359 150.888 151.331 152.263 151.976 152.585 152.227 
152.778 152.313 152.815 152.303 152.785 153.503 153.216 153.936 153.591 
154.253 153.798 154.384 153.867 154.415 153.845 154.327 154.707 154.506 
155.302 155.02 155.727 155.305 155.889 155.425 156.015 155.523 156.085 
155.459 155.935 155.656 155.603 156.39 156.291 156.994 156.712 157.24 
156.84 157.395 157.035 157.702 157.244 157.85 157.167 157.683 156.389 
156.401 157.122 157.163 157.877 157.807 158.417 158.132 158.736 158.4 
159.162 158.822 159.595 159.08 159.696 158.981 159.495 157.055 157.068 
157.748 157.789 158.528 158.575 159.358 159.27 160.075 159.826 160.699 
160.37 161.229 160.792 161.473 160.892 161.398 160.716 161.14 147.224 
146.923 147.436 148.236 146.704 147.183 147.966 148.506 149.374 146.431 
146.972 147.751 148.266 149.091 149.66 150.526 145.984 146.617 147.413 
148.005 148.813 149.384 150.226 150.799 151.66 145.548 146.14 146.933 
147.573 148.39 149.037 149.892 150.511 151.377 151.953 152.842 145.264 
145.776 146.548 147.113 147.908 148.544 149.389 150.09 150.966 151.635 
152.492 153.123 153.985 144.992 145.506 146.269 146.8 147.583 148.127 
148.924 149.551 150.379 151.093 151.919 152.648 153.456 154.161 154.937 
144.692 145.193 145.929 146.49 147.282 147.844 148.652 149.188 149.97 
150.534 151.298 151.969 152.756 153.514 154.302 155.019 155.726 144.47 
144.899 145.573 146.1 146.845 147.465 148.288 148.914 149.727 150.246 
150.966 151.454 152.168 152.799 153.584 154.329 155.096 155.776 156.427 
144.591 145.074 145.099 145.652 145.489 145.563 146.146 146.209 146.875 
145.951 146.007 146.659 146.724 147.474 147.561 148.355 146.626 146.619 
147.373 147.358 148.186 148.238 149.139 149.169 149.915 147.372 147.404 
148.249 148.226 149.081 149.057 149.964 149.993 150.795 150.687 151.218 
147.985 148.098 148.978 149.096 149.99 149.998 150.855 150.844 151.637 
151.558 152.144 151.913 152.374 148.597 148.674 149.557 149.747 150.731 
150.855 151.764 151.756 152.545 152.437 153.083 152.869 153.416 153.153 
153.731 149.375 149.373 150.274 150.381 151.418 151.577 152.587 152.649 
153.485 153.389 154.049 153.851 154.441 154.22 154.835 154.609 155.229 
150.235 150.236 151.146 151.186 152.173 152.297 153.295 153.425 154.289 
154.287 154.941 154.8 155.357 155.197 155.794 155.652 156.26 156.062 
156.58 150.989 152.372 151.792 151.948 153.551 153.121 153.369 152.776 
152.96 154.733 154.302 154.666 154.163 154.435 153.826 154.036 156.192 
155.652 156.086 155.532 155.875 155.281 155.511 154.876 154.999 157.752 
157.224 157.683 157.085 157.454 156.798 157.022 156.328 156.395 155.701 
155.645 159.236 158.767 159.262 158.705 159.094 158.441 158.668 157.905 
157.931 157.114 157.008 156.233 156.086 160.697 160.25 160.767 160.247 
160.631 160.035 160.27 159.556 159.6 158.739 158.624 157.71 157.559 
156.71 156.578 161.988 161.643 162.096 161.667 161.982 161.467 161.654 
161.053 161.128 160.39 160.327 159.424 159.258 158.308 158.127 157.246 
157.07 162.899 162.714 163.075 162.801 163.047 162.658 162.781 162.294 
162.349 161.784 161.775 161.057 160.902 160.007 159.721 158.792 158.48 
157.638 157.346 150.634 150.503 151.08 152.014 150.37 150.948 151.878 
152.368 153.155 150.194 150.794 151.671 152.177 152.934 153.423 154.249 
149.779 150.481 151.306 151.897 152.658 153.189 154.075 154.646 155.67 
149.183 149.918 150.766 151.452 152.303 152.918 153.883 154.508 155.594 
156.185 157.234 148.719 149.358 150.27 150.943 151.907 152.581 153.607 
154.294 155.365 156.041 157.084 157.687 158.673 148.43 148.999 149.912 
150.544 151.515 152.205 153.204 153.933 154.925 155.671 156.678 157.417 
158.464 159.117 160.127 148.143 148.707 149.542 150.177 151.067 151.773 
152.694 153.436 154.355 155.116 156.103 156.92 158.044 158.85 159.979 
160.602 161.518 147.814 148.356 149.111 149.733 150.554 151.253 152.134 
152.869 153.773 154.518 155.505 156.329 157.49 158.39 159.598 160.382 
161.363 161.876 162.531 149.683 148.302 149.1 149.474 147.337 147.789 
147.963 148.851 149.301 146.717 146.979 146.929 147.462 147.769 148.722 
149.19 145.775 146.267 146.173 146.573 146.669 147.334 147.686 148.591 
148.893 144.34 145.063 145.029 145.646 145.659 146.282 146.432 147.172 
147.372 148.188 148.339 142.923 143.604 143.593 144.295 144.307 145.053 
145.119 145.876 145.951 146.707 146.818 147.632 147.838 141.643 142.284 
142.289 142.918 142.914 143.601 143.647 144.419 144.491 145.268 145.364 
146.158 146.37 147.236 147.548 140.389 141.017 141.046 141.678 141.677 
142.284 142.276 142.952 143.025 143.793 143.947 144.741 144.973 145.808 
146.129 147.002 147.321 139.327 139.832 139.871 140.458 140.484 141.07 
141.04 141.638 141.668 142.381 142.572 143.371 143.657 144.465 144.789 
145.617 145.952 146.782 147.062 138.847 138.249 138.81 139.33 137.476 
138.167 138.709 139.311 139.878 136.696 137.397 138.049 138.671 139.23 
139.835 140.409 136.336 136.818 137.593 138.124 138.779 139.263 139.867 
140.409 141.069 136.455 136.715 137.488 137.884 138.653 139.017 139.71 
140.076 140.818 141.27 142.06 136.773 136.928 137.601 137.901 138.656 
139.012 139.755 140.089 140.854 141.217 142.041 142.432 143.231 137.195 
137.271 137.893 138.068 138.754 139.043 139.77 140.126 140.882 141.276 
142.077 142.479 143.278 143.638 144.39 137.719 137.744 138.371 138.444 
139.123 139.258 139.979 140.202 140.974 141.298 142.121 142.505 143.332 
143.703 144.485 144.81 145.544 138.243 138.277 138.899 138.968 139.661 
139.743 140.48 140.581 141.366 141.537 142.384 142.644 143.51 143.814 
144.632 144.932 145.68 145.967 146.655 138.705 139.717 139.258 139.418 
140.94 140.393 140.586 140.071 140.244 142.287 141.702 141.908 141.34 
141.549 140.969 141.122 143.714 143.085 143.309 142.718 142.956 142.355 
142.558 141.905 142.048 145.365 144.601 144.83 144.167 144.421 143.802 
144.046 143.404 143.599 142.896 143.062 147.27 146.384 146.581 145.79 
146.033 145.327 145.567 144.906 145.125 144.461 144.649 143.952 144.139 
149.221 148.327 148.482 147.621 147.841 147.043 147.276 146.506 146.707 
145.987 146.178 145.504 145.684 145.017 145.205 151.111 150.244 150.378 
149.509 149.689 148.88 149.115 148.309 148.508 147.676 147.835 147.057 
147.222 146.523 146.688 146.038 146.212 153.008 152.145 152.291 151.392 
151.518 150.683 150.86 150.101 150.29 149.504 149.641 148.804 148.91 
148.105 148.22 147.501 147.635 146.996 147.152 147.863 148.378 148.45 
149.157 149.043 149.068 149.837 149.853 150.63 149.823 149.841 150.692 
150.662 151.493 151.444 152.249 150.561 150.637 151.512 151.548 152.42 
152.395 153.241 153.144 153.933 151.192 151.326 152.199 152.308 153.231 
153.307 154.267 154.225 155.136 154.941 155.768 151.843 151.985 153 
153.08 154.181 154.223 155.4 155.367 156.51 156.32 157.344 156.986 
157.886 152.625 152.773 154.034 154.119 155.507 155.491 156.907 156.774 
158.079 157.846 158.982 158.668 159.642 159.216 160.029 153.467 153.675 
155.075 155.286 156.831 156.968 158.479 158.435 159.706 159.482 160.489 
160.22 161.066 160.802 161.511 161.165 161.714 154.198 154.51 155.91 
156.267 157.771 158.125 159.548 159.767 160.892 160.876 161.669 161.505 
162.13 161.959 162.509 162.327 162.764 162.498 162.801 134.441 133.885 
134.151 134.204 133.581 133.758 133.851 134.031 134.207 133.428 133.57 
133.706 133.81 133.953 134.17 134.502 133.379 133.441 133.557 133.68 
133.798 133.967 134.185 134.503 134.861 133.665 133.462 133.501 133.535 
133.662 133.802 133.95 134.164 134.375 134.755 135.1 134.507 133.969 
133.93 133.665 133.808 133.771 133.933 133.972 134.113 134.302 134.626 
135.044 135.588 135.682 135.009 134.927 134.386 134.49 134.178 134.343 
134.136 134.259 134.196 134.524 134.765 135.423 135.828 136.569 136.804 
136.203 136.113 135.51 135.541 135.061 135.177 134.772 134.874 134.567 
134.862 134.881 135.56 135.862 136.674 136.977 137.632 137.752 137.255 
137.188 136.646 136.629 136.126 136.194 135.725 135.83 135.384 135.63 
135.414 135.997 136.124 136.902 137.151 137.806 137.986 138.465 134.869 
134.59 134.965 135.57 134.584 134.795 135.416 135.815 136.545 134.917 
134.964 135.54 135.782 136.504 136.867 137.544 135.343 135.401 135.937 
136.031 136.642 136.873 137.509 137.816 138.407 135.64 135.778 136.346 
136.448 136.992 137.093 137.666 137.85 138.477 138.726 139.39 136.117 
136.114 136.709 136.803 137.372 137.459 138.022 138.128 138.778 138.942 
139.661 139.86 140.577 136.989 136.777 137.311 137.245 137.802 137.835 
138.398 138.498 139.122 139.296 139.988 140.189 140.867 141.057 141.681 
137.927 137.691 138.125 137.957 138.449 138.36 138.893 138.898 139.477 
139.601 140.23 140.443 141.072 141.295 141.881 142.077 142.629 138.701 
138.516 138.909 138.754 139.221 139.084 139.6 139.498 140.059 140.033 
140.628 140.701 141.306 141.464 142.061 142.256 142.83 143.008 143.553 
135.28 135.989 135.795 136.242 136.896 136.586 136.966 136.815 137.33 
137.842 137.516 137.805 137.565 138.033 137.949 138.535 138.717 138.424 
138.733 138.441 138.876 138.709 139.324 139.235 139.858 139.708 139.354 
139.763 139.436 139.929 139.661 140.286 140.117 140.786 140.616 141.214 
140.869 140.469 140.919 140.568 141.106 140.794 141.402 141.161 141.81 
141.603 142.217 141.998 142.594 141.958 141.625 142.053 141.746 142.249 
141.96 142.501 142.254 142.844 142.64 143.244 143.028 143.619 143.405 
144.014 142.91 142.635 143.058 142.809 143.287 143.034 143.522 143.278 
143.822 143.634 144.244 144.058 144.648 144.426 144.985 144.787 145.348 
143.827 143.564 143.999 143.769 144.26 144.028 144.517 144.264 144.783 
144.585 145.193 145.04 145.645 145.439 145.957 145.725 146.212 146.032 
146.531 149.449 148.694 148.769 148.206 148.003 148.098 147.735 147.768 
147.413 147.351 147.446 147.142 147.337 147.125 147.169 146.831 146.655 
146.747 146.333 146.634 146.388 146.685 146.299 146.401 145.795 145.925 
145.986 145.484 145.739 145.4 145.749 145.295 145.549 144.882 145.026 
144.283 145.327 145.294 144.776 144.905 144.531 144.77 144.308 144.484 
143.834 143.979 143.302 143.462 142.839 144.902 144.796 144.225 144.239 
143.78 143.943 143.47 143.595 142.964 143.028 142.377 142.507 141.928 
142.1 141.544 144.492 144.394 143.749 143.686 143.079 143.16 142.602 
142.748 142.123 142.215 141.554 141.653 141.059 141.205 140.65 140.816 
140.288 144.025 143.951 143.301 143.197 142.532 142.477 141.848 141.891 
141.276 141.362 140.74 140.84 140.262 140.382 139.856 139.979 139.498 
139.641 139.237 
POINT_DATA 1002
SCALARS Distance double
LOOKUP_TABLE default
139.088 138.207 138.152 139.093 138.105 140.198 139.199 138.209 140.344 
141.509 139.54 138.654 140.636 141.782 142.873 140.117 139.244 141.115 
142.199 143.278 144.37 140.676 139.629 141.684 142.764 143.898 145.062 
146.195 141.187 140.035 142.262 143.41 144.671 145.955 147.168 148.193 
141.877 140.797 142.965 144.175 145.53 146.88 148.136 149.238 150.109 
142.69 141.735 143.764 145.027 146.435 147.79 149.009 150.149 151.166 
151.967 143.464 142.596 144.53 145.807 147.197 148.545 149.78 150.957 
152.098 153.096 153.855 137.349 137.264 136.349 136.212 135.155 137.158 
134.972 134.04 136.091 137.303 133.853 133.418 134.923 136.395 137.863 
133.181 133.296 133.899 135.49 137.068 138.321 132.989 133.393 133.272 
134.731 136.336 137.331 138.449 133.234 133.633 133.205 134.307 135.872 
136.697 137.409 138.934 133.869 134.103 133.735 134.373 135.729 136.666 
137.112 138.205 140.009 134.728 134.794 134.658 134.926 135.856 136.918 
137.508 138.197 139.564 141.188 135.664 135.726 136.725 136.911 137.887 
135.812 138.155 139.143 137.088 136.243 139.465 140.449 138.445 137.638 
137.194 140.857 141.781 139.931 139.16 138.618 138.11 142.366 143.204 
141.496 140.726 140.094 139.491 138.808 143.936 144.627 143.108 142.287 
141.577 140.938 140.354 139.862 145.382 145.893 144.682 143.894 143.208 
142.605 142.029 141.57 141.292 146.65 147.022 146.117 145.459 144.882 
144.433 143.926 143.355 142.908 142.669 143.979 144.188 145.731 144.611 
146.068 147.822 145.215 146.513 148.14 149.833 145.785 147.029 148.454 
150.178 151.709 146.174 147.507 148.895 150.589 152.257 153.789 146.566 
147.913 149.392 151.066 152.764 154.335 156.075 147.101 148.341 149.808 
151.417 153.037 154.612 156.346 158.275 147.625 148.783 150.134 151.629 
153.15 154.673 156.381 158.299 160.134 148.007 149.151 150.407 151.781 
153.258 154.768 156.39 158.202 160.008 161.557 145.057 147.078 146.368 
149.187 148.383 147.723 151.095 150.279 149.521 149.042 153.262 152.5 
151.579 150.902 150.426 155.92 155.477 154.59 153.528 152.677 151.873 
158.517 158.465 157.89 156.794 155.583 154.45 153.272 160.592 160.744 
160.41 159.582 158.486 157.295 155.956 154.5 162.124 162.412 162.232 
161.633 160.829 159.877 158.64 157.099 155.437 163.131 163.727 164.662 
165.294 165.943 163.916 166.453 166.499 165.383 163.565 166.707 166.435 
166.244 164.866 162.904 166.412 166.244 166.108 165.356 164.007 162.082 
165.911 165.723 165.531 164.87 164.107 162.847 160.917 165.004 164.76 
164.798 164.182 163.526 162.732 161.326 159.318 163.966 163.827 163.875 
163.499 162.988 162.339 161.21 159.479 157.444 163.136 163.065 163.007 
162.704 162.338 161.845 160.882 159.307 157.41 155.536 161.865 163.442 
162.054 163.639 162.03 164.886 163.619 161.659 164.856 165.756 163.131 
161.001 164.499 165.138 165.83 162.169 160.202 163.728 164.339 164.861 
165.721 161.007 159.303 162.706 163.6 164.041 164.82 165.593 159.908 
158.44 161.618 162.886 163.478 164.029 164.69 164.983 158.981 157.725 
160.51 161.94 162.807 163.302 163.794 164.125 164.105 158.136 157.046 
159.388 160.709 161.762 162.4 162.866 163.25 163.404 163.315 147.971 
149.148 149.083 150.412 150.262 150.451 151.663 151.38 151.818 151.812 
152.891 152.523 153.209 153.319 153.325 154.242 153.751 154.684 154.876 
154.968 154.961 155.53 154.846 156.14 156.362 156.437 156.648 156.654 
156.438 155.689 157.207 157.639 157.727 158.03 158.439 158.468 157.084 
156.402 157.849 158.581 159.04 159.456 160.013 160.348 160.286 146.682 
147.658 146.432 147.463 146.221 148.782 147.237 145.838 148.557 149.94 
146.779 145.338 148.228 149.66 151.083 146.306 145.002 147.717 149.229 
150.794 152.261 146.022 144.771 147.32 148.692 150.253 151.858 153.364 
145.729 144.48 147.06 148.372 149.715 151.177 152.731 154.281 145.374 
144.226 146.685 148.104 149.483 150.718 152.008 153.536 155.094 145.101 