# vtk DataFile Version 4.0
vtk output
ASCII
DATASET POLYDATA
POINTS 1002 float
-84.0539 -87.458 72.5617 -84.0996 -86.9597 71.6282 -83.7948 -86.6929 72.2705 
-83.7381 -87.2479 73.363 -83.405 -86.4678 73.117 -84.0272 -88.0263 73.7915 
-83.2569 -87.1565 74.2445 -82.8291 -86.4171 73.9403 -83.596 -87.9792 74.6468 
-83.9674 -88.8046 75.1801 -82.6534 -87.2503 75.0034 -82.1837 -86.5009 74.6446 
-83.0171 -88.0406 75.4587 -83.3872 -88.9243 75.9445 -83.7428 -89.81 76.4765 
-82.1231 -87.392 75.8625 -81.6998 -86.5929 75.6414 -82.4877 -88.1775 76.2744 
-82.7449 -89.0631 76.7005 -83.0867 -90.016 77.1651 -83.4049 -90.9249 77.7501 
-81.6843 -87.4977 77.1812 -81.3693 -86.7876 77.0399 -82.0627 -88.2967 77.3898 
-82.2902 -89.231 77.6921 -82.52 -90.2314 78.0636 -82.8334 -91.2279 78.5572 
-83.1038 -92.1661 79.1261 -81.242 -87.6873 78.5745 -80.9456 -87.0963 78.2609 
-81.6178 -88.3908 78.7275 -81.9393 -89.4111 78.8836 -82.1918 -90.5196 79.2303 
-82.4416 -91.5856 79.6511 -82.6333 -92.6686 80.0419 -82.776 -93.667 80.3672 
-80.7005 -87.9853 79.5118 -80.2784 -87.3426 79.0899 -81.1786 -88.5499 79.8143 
-81.5814 -89.5304 79.9522 -81.8727 -90.8279 80.2629 -82.0969 -92.0329 80.7171 
-82.2378 -93.2274 81.0445 -82.3208 -94.3936 81.2528 -82.4336 -95.3573 81.4132 
-80.0308 -88.3536 80.173 -79.5689 -87.5676 79.8688 -80.6796 -88.8665 80.5289 
-81.2295 -89.6643 80.7617 -81.5047 -91.0534 81.0395 -81.6146 -92.5258 81.4643 
-81.7259 -93.8629 81.8232 -81.88 -95.1332 82.0898 -82.0788 -96.1627 82.3431 
-82.2895 -96.9616 82.5379 -79.4751 -88.7837 80.902 -79.1794 -87.9124 80.7468 
-80.1082 -89.3358 81.1418 -80.7963 -89.9754 81.404 -81.1695 -91.2783 81.7184 
-81.2032 -92.9567 82.117 -81.2321 -94.4928 82.4763 -81.4521 -95.8564 82.806 
-81.7976 -96.9453 83.2191 -82.1404 -97.7049 83.6022 -82.3858 -98.3675 83.8097 
-83.8573 -86.2742 71.119 -83.4318 -85.9957 71.7647 -83.3639 -85.583 70.4775 
-82.8779 -85.3131 71.1536 -82.9116 -84.9027 69.8821 -82.9885 -85.7718 72.6768 
-82.5418 -84.5659 70.6874 -82.9086 -84.0999 69.7493 -82.5454 -85.0555 72.1935 
-82.421 -85.6704 73.5731 -82.5187 -83.5866 70.6164 -83.1088 -83.1054 69.9698 
-82.3119 -84.1607 71.8265 -82.1666 -84.771 73.2712 -81.8581 -85.6083 74.432 
-82.4212 -82.4898 70.6547 -83.173 -82.0498 70.0456 -82.017 -83.0621 71.621 
-81.9661 -83.6796 73.0082 -81.7804 -84.5353 74.3561 -81.5124 -85.6922 75.6283 
-82.4608 -81.5961 70.6422 -83.3548 -81.0583 70.1013 -81.6904 -82.1458 71.5572 
-81.4982 -82.6223 72.8231 -81.5727 -83.4415 74.2379 -81.4662 -84.736 75.6417 
-81.207 -86.0569 76.9941 -82.9699 -80.9607 70.9232 -83.7311 -80.2327 70.5242 
-81.9662 -81.6836 71.8542 -81.2718 -81.9807 73.041 -81.1521 -82.5177 74.2597 
-81.2074 -83.8181 75.635 -81.0223 -85.2388 76.9877 -80.6189 -86.3614 78.1085 
-83.5646 -80.4955 71.5704 -84.0645 -79.7566 71.215 -82.695 -81.4172 72.5257 
-81.7283 -81.7587 73.7437 -81.1494 -81.9279 74.7509 -81.0099 -82.9682 75.8434 
-80.8574 -84.435 77.1671 -80.3972 -85.4961 78.2631 -79.8563 -86.4485 79.0832 
-83.9373 -80.2641 72.3243 -84.3431 -79.7283 71.9167 -83.2549 -81.1175 73.2735 
-82.3723 -81.601 74.5342 -81.6248 -81.6625 75.5159 -81.2524 -82.3083 76.3326 
-81.041 -83.714 77.47 -80.577 -84.8556 78.6328 -79.8832 -85.6174 79.4397 
-79.3484 -86.6445 80.0858 -84.4096 -80.2098 72.9105 -83.7711 -80.7337 73.74 
-84.3392 -80.7554 74.3327 -83.5609 -81.0123 75.4872 -84.2355 -81.053 76.0906 
-82.9817 -81.2836 75.007 -83.6546 -81.1838 77.2903 -84.3505 -81.231 77.8398 
-82.8849 -81.3304 76.7102 -82.2364 -81.5145 76.163 -84.0353 -81.6819 78.7511 
-84.612 -81.753 79.1555 -83.1542 -81.75 78.1914 -82.3278 -81.8031 77.5794 
-81.7415 -81.931 76.9488 -84.2393 -82.6972 79.6721 -84.7291 -82.7734 80.0543 
-83.3949 -82.6733 79.3114 -82.4615 -82.625 78.9033 -81.894 -82.7631 78.3846 
-81.4727 -83.1719 77.8982 -84.1804 -83.9335 80.5447 -84.7225 -83.881 81.0856 
-83.4065 -83.8601 80.2064 -82.4606 -83.6167 80.117 -81.8404 -83.702 79.8258 
-81.5298 -84.1582 79.4095 -81.0526 -84.5418 79.0672 -84.1335 -84.9227 81.8318 
-84.746 -84.7339 82.3846 -83.45 -85.0216 81.3277 -82.629 -84.7366 81.2672 
-81.8651 -84.6188 81.1406 -81.4217 -85.0274 80.6627 -80.9626 -85.3507 80.2873 
-80.3029 -85.3867 79.9637 -84.1667 -85.6631 83.1432 -84.7849 -85.538 83.463 
-83.5491 -85.9075 82.6325 -82.9291 -85.8738 82.4076 -82.1844 -85.7318 82.2992 
-81.4998 -85.9644 81.7887 -80.9603 -86.289 81.2214 -80.2859 -86.2788 80.9556 
-79.6019 -86.2811 80.6199 -84.2178 -86.5449 84.0057 -84.7991 -86.5696 84.0765 
-83.6094 -86.6861 83.6954 -83.068 -86.798 83.4087 -82.4493 -86.8185 83.2524 
-81.7232 -86.9543 82.8618 -81.1258 -87.2126 82.2249 -80.5747 -87.3312 81.8339 
-79.8668 -87.3607 81.6398 -79.2815 -87.5615 81.2603 -79.2623 -88.9581 81.7182 
-79.6101 -88.6962 82.2389 -79.6711 -89.8876 82.6808 -80.2996 -88.4173 82.5648 
-80.1598 -89.6363 83.2089 -80.2397 -90.8078 83.7435 -80.8686 -88.2343 82.8363 
-80.7483 -89.3468 83.617 -80.6337 -90.6964 84.3415 -80.766 -92.3093 85.1035 
-81.3048 -88.0975 83.3511 -81.1565 -89.2374 84.0877 -81.0582 -90.6878 84.9168 
-80.9769 -92.4829 85.7378 -81.174 -94.5445 86.5246 -81.9176 -87.9426 83.8752 
-81.5895 -89.2336 84.6138 -81.5131 -90.7953 85.4972 -81.3747 -92.6668 86.3188 
-81.3644 -94.7882 87.0354 -81.562 -97.0907 87.6488 -82.6024 -87.8084 84.1415 
-82.1806 -89.1304 84.9626 -82.0167 -90.7923 85.9033 -81.8965 -92.6754 86.7588 
-81.777 -94.7834 87.4377 -81.8535 -97.2185 88.0327 -81.9412 -99.7564 88.6043 
-83.2036 -87.7431 84.3405 -82.8018 -89.0194 85.1733 -82.5171 -90.6266 86.1394 
-82.3208 -92.5015 86.9897 -82.1744 -94.5606 87.6727 -82.1956 -97.0243 88.3092 
-82.2367 -99.7897 88.9489 -82.0962 -102.371 89.519 -83.8288 -87.7433 84.5165 
-83.4466 -89.0654 85.2717 -83.0943 -90.5152 86.2704 -82.7715 -92.2691 87.1518 
-82.5251 -94.3232 87.8085 -82.4722 -96.707 88.4532 -82.4949 -99.4724 89.1553 
-82.3194 -102.212 89.8036 -81.9814 -104.545 90.2474 -84.4684 -87.7911 84.539 
-84.1143 -89.1667 85.1919 -83.7544 -90.5093 86.1752 -83.3987 -92.0368 87.1738 
-83.0816 -94.0281 87.9105 -82.8768 -96.3773 88.534 -82.7677 -98.9753 89.2127 
-82.5748 -101.67 89.9048 -82.2203 -104.097 90.46 -81.8524 -106.136 90.7409 
-79.5806 -89.7129 81.8445 -79.9863 -90.6724 82.8686 -80.234 -90.3341 82.041 
-80.5893 -92.0799 84.2055 -80.5726 -91.8293 83.222 -80.8259 -91.5085 82.3928 
-81.1212 -94.2612 85.8015 -81.0398 -94.02 84.801 -80.9683 -93.7189 83.7723 
-81.0028 -93.3414 82.8776 -81.4337 -96.9235 87.1777 -81.3431 -96.6378 86.3987 
-81.2307 -96.2223 85.3992 -81.0957 -95.6983 84.3566 -81.027 -95.1338 83.3273 
-81.7089 -99.8032 88.273 -81.5123 -99.5498 87.7073 -81.4311 -98.9237 86.9035 
-81.4645 -98.0725 85.9698 -81.3953 -97.341 84.8732 -81.2938 -96.6662 83.7239 
-81.9184 -102.751 89.2827 -81.7727 -102.816 88.8492 -81.6625 -102.314 88.1828 
-81.7333 -101.149 87.4006 -81.8971 -99.8643 86.5187 -81.8623 -98.8579 85.4154 
-81.7439 -97.924 84.2407 -81.8447 -105.32 90.0625 -81.8711 -105.92 89.7151 
-81.8945 -106.023 89.1533 -81.849 -105.165 88.4362 -81.951 -103.49 87.7332 
-82.166 -101.677 86.9729 -82.2348 -100.092 85.9663 -82.1716 -98.7724 84.7788 
-81.6437 -107.228 90.5371 -81.663 -108.308 90.1872 -81.8069 -109.047 89.6863 
-81.8079 -108.896 89.0261 -81.7493 -107.613 88.3724 -81.9471 -105.51 87.8552 
-82.3021 -103.122 87.25 -82.4908 -100.989 86.3022 -82.4644 -99.4381 85.0753 
-81.7147 -108.247 90.963 -81.4843 -109.767 90.5938 -81.7458 -110.653 90.9583 
-81.3851 -112.585 90.5284 -81.7498 -113.183 90.7415 -81.4591 -111.148 90.0942 
-81.2232 -115.152 90.4093 -81.6428 -115.12 90.3269 -81.1487 -113.81 89.9433 
-81.503 -111.712 89.4413 -81.1746 -116.557 89.9632 -81.7579 -115.716 89.702 
-80.8904 -115.694 89.6637 -81.1134 -113.684 89.1113 -81.4906 -111.091 88.7193 
-81.6419 -116.385 89.0158 -82.3584 -115.054 88.9173 -81.0312 -116.408 88.8573 
-81.0254 -114.894 88.5725 -81.3797 -112.581 88.3838 -81.6585 -109.405 88.2096 
-82.634 -115.222 88.0346 -83.2188 -113.941 88.2064 -81.7368 -115.957 87.7711 
-81.2987 -115.335 87.6958 -81.5882 -113.463 87.9387 -81.9241 -110.572 88.0632 
-82.1189 -106.783 87.8424 -83.6499 -113.823 87.5221 -83.9766 -112.803 87.7759 
-82.7699 -114.675 87.1749 -81.8877 -114.697 87.019 -81.8162 -113.364 87.3873 
-82.2126 -110.846 87.7952 -82.4401 -107.409 87.6952 -82.5318 -103.787 87.1723 
-84.2913 -112.246 87.3445 -84.5026 -111.392 87.5208 -83.6214 -112.878 87.1089 
-82.704 -113.017 86.9166 -82.2664 -112.028 87.0797 -82.424 -109.895 87.4328 
-82.6246 -107.114 87.3732 -82.6814 -104.071 86.8323 -82.6504 -101.364 86.0474 
-84.6198 -110.333 87.11 -84.8613 -109.578 87.2099 -84.0818 -110.74 87.0242 
-83.3864 -110.756 86.9609 -82.9736 -109.975 87.0137 -82.9451 -108.188 87.1544 
-82.9374 -105.969 87.0233 -82.8123 -103.786 86.4297 -82.7005 -101.671 85.595 
-82.5803 -99.8094 84.7042 -82.0965 -106.198 91.0342 -82.1256 -108.261 91.2923 
-82.5064 -106.093 91.2158 -82.6674 -108.114 91.4788 -83.0632 -105.812 91.2366 
-82.2556 -110.467 91.1526 -83.2691 -107.715 91.4961 -83.7608 -105.177 91.0747 
-82.7676 -109.928 91.1446 -82.2203 -112.489 90.5613 -83.9127 -106.803 91.2822 
-84.3287 -104.112 90.5781 -83.3357 -109.069 91.1308 -82.7088 -111.266 90.3119 
-82.1473 -113.765 89.8502 -84.3629 -105.398 90.6156 -84.5807 -102.796 89.6965 
-83.9934 -107.772 90.9984 -83.4089 -109.948 90.4254 -82.8172 -112.087 89.6509 
-82.4098 -113.966 89.3094 -84.7085 -103.768 89.6826 -84.9283 -101.287 88.8242 
-84.5628 -106.083 90.4308 -84.1723 -108.405 90.4728 -83.6517 -110.567 89.9032 
-83.1648 -112.25 89.3205 -82.9717 -113.365 88.8099 -85.3186 -101.969 88.9587 
-85.6258 -99.5875 88.2443 -85.1975 -104.193 89.7188 -84.825 -106.455 90.0437 
-84.3234 -108.708 89.8477 -83.9271 -110.482 89.4513 -83.5931 -111.676 88.9315 
-83.6105 -112.452 88.3124 -86.0309 -100.084 88.362 -86.3435 -97.9327 87.7224 
-85.933 -102.212 89.0894 -85.546 -104.305 89.4586 -84.8902 -106.382 89.3372 
-84.5452 -108.164 89.12 -84.3631 -109.519 88.8921 -84.1457 -110.569 88.4506 
-84.2278 -111.25 87.9277 -86.533 -98.3605 87.5812 -86.8383 -96.538 87.02 
-86.4686 -100.301 88.2803 -86.2362 -102.231 88.7752 -85.6013 -104.069 88.7774 
[...]
CELL_DATA 2000
SCALARS Distance double
LOOKUP_TABLE default
139.836 139.884 140.121 140.703 139.966 140.215 140.829 141.08 141.762 
140.035 140.309 140.946 141.217 141.904 142.198 142.925 140.231 140.437 
141.129 141.364 142.056 142.325 143.048 143.355 144.092 140.735 140.792 
141.524 141.656 142.394 142.559 143.309 143.529 144.326 144.582 145.383 
141.376 141.402 142.084 142.15 142.899 143.012 143.828 143.959 144.829 
144.976 145.861 146.011 146.836 141.789 141.946 142.573 142.685 143.379 
143.528 144.359 144.546 145.452 145.604 146.506 146.616 147.472 147.541 
148.318 141.997 142.228 142.881 143.07 143.744 143.942 144.743 145.011 
145.915 146.169 147.06 147.245 148.106 148.223 149.05 149.075 149.848 
142.34 142.481 143.181 143.351 144.055 144.26 145.067 145.353 146.281 
146.575 147.508 147.74 148.657 148.839 149.76 149.854 150.724 150.692 
151.484 139.307 138.379 138.999 139.291 137.343 137.992 138.333 139.012 
139.356 136.524 137.006 137.36 138.038 138.44 139.079 139.415 135.995 
136.301 136.551 137.127 137.543 138.177 138.547 139.146 139.56 135.449 
135.725 135.782 136.301 136.626 137.291 137.707 138.329 138.807 139.44 
140.053 134.937 135.13 135.112 135.488 135.709 136.328 136.779 137.492 
138.077 138.77 139.442 140.093 140.748 134.797 134.83 134.977 135.067 
135.327 135.593 136.041 136.607 137.295 138.051 138.803 139.502 140.118 
140.714 141.184 135.022 134.984 135.356 135.318 135.725 135.645 136.049 
136.179 136.83 137.38 138.235 138.902 139.566 140.083 140.493 140.998 
141.373 135.455 135.385 135.848 135.858 136.362 136.267 136.64 136.502 
136.987 137.185 138.017 138.518 139.326 139.707 140.181 140.45 140.825 
141.243 141.727 135.912 136.848 136.314 136.321 137.873 137.293 137.244 
136.805 136.837 138.986 138.355 138.252 137.721 137.678 137.233 137.131 
140.204 139.558 139.485 138.812 138.723 138.122 138.058 137.512 137.506 
141.395 140.805 140.771 140.098 140 139.298 139.286 138.646 138.807 
138.213 138.526 142.58 141.991 141.971 141.342 141.257 140.588 140.583 
139.982 140.198 139.663 139.98 139.437 139.737 143.826 143.214 143.235 
142.581 142.573 141.879 141.907 141.28 141.462 140.981 141.227 140.761 
140.877 140.395 140.458 145.007 144.453 144.498 143.892 143.956 143.292 
143.373 142.683 142.809 142.215 142.391 141.884 141.975 141.434 141.428 
140.934 141.032 146.042 145.566 145.61 145.097 145.161 144.627 144.716 
144.126 144.199 143.572 143.654 143.067 143.177 142.592 142.683 142.06 
142.191 141.656 141.933 142.697 142.989 143.218 144.034 143.422 143.597 
144.411 144.619 145.451 143.857 144.011 144.789 145.014 145.877 146.107 
147.125 144.341 144.434 145.202 145.403 146.331 146.58 147.666 147.981 
149.287 144.889 144.949 145.715 145.876 146.868 147.124 148.287 148.581 
149.883 150.274 151.699 145.367 145.467 146.205 146.392 147.372 147.688 
148.852 149.197 150.433 150.826 152.181 152.664 154.106 145.782 145.9 
146.628 146.833 147.763 148.115 149.21 149.632 150.769 151.225 152.473 
153.037 154.453 155.04 156.456 146.216 146.324 147.065 147.252 148.154 
148.461 149.489 149.887 150.96 151.421 152.593 153.189 154.553 155.253 
156.655 157.272 158.492 146.628 146.757 147.482 147.681 148.535 148.821 
149.772 150.133 151.157 151.586 152.711 153.259 154.536 155.234 156.573 
157.294 158.481 159.062 160.008 142.916 144.162 143.565 143.69 145.568 
144.864 144.938 144.361 144.556 147.376 146.474 146.647 145.815 146.051 
145.37 145.676 149.693 148.638 148.984 147.894 148.222 147.21 147.539 
146.686 147.005 152.184 151.165 151.609 150.483 150.837 149.666 149.945 
148.829 149.054 148.083 148.292 154.672 153.715 154.237 153.15 153.522 
152.334 152.579 151.361 151.53 150.339 150.462 149.387 149.521 157.097 
156.246 156.918 155.866 156.38 155.122 155.446 154.09 154.301 152.959 
153.094 151.788 151.858 150.665 150.722 159.131 158.551 159.32 158.537 
159.221 158.115 158.563 157.15 157.372 155.878 155.988 154.546 154.553 
153.17 153.089 151.834 151.742 160.608 160.301 161.062 160.66 161.405 
160.749 161.27 160.189 160.372 158.967 158.953 157.467 157.359 155.886 
155.671 154.258 153.994 152.733 152.508 161.508 163.075 162.22 162.082 
164.749 163.91 163.816 162.841 162.567 166.166 165.582 165.483 164.554 
164.179 163.166 162.525 166.795 166.705 166.597 165.958 165.37 164.52 
163.738 162.755 161.683 166.512 166.852 166.745 166.579 165.923 165.354 
164.49 163.725 162.682 161.623 160.298 165.801 166.246 166.151 166.309 
165.777 165.557 164.806 164.308 163.379 162.519 161.241 160.08 158.627 
165.114 165.487 165.4 165.618 165.195 165.198 164.545 164.373 163.514 
163.018 161.75 160.834 159.272 158.225 156.744 164.35 164.757 164.597 
164.865 164.416 164.528 163.821 163.836 162.902 162.752 161.477 160.97 
159.373 158.588 157.002 156.203 154.868 163.26 163.785 163.479 163.883 
163.324 163.588 162.804 162.925 161.916 161.879 160.626 160.372 158.906 
158.409 156.909 156.284 154.956 154.338 153.238 161.45 161.773 162.066 
162.976 161.984 162.372 163.281 163.594 164.53 161.99 162.519 163.356 
163.73 164.46 164.948 165.749 161.588 162.358 163.146 163.614 164.088 
164.561 165.085 165.786 166.292 160.611 161.654 162.468 163.189 163.637 
164.068 164.385 164.929 165.31 165.971 166.134 159.323 160.437 161.278 
162.265 162.862 163.512 163.871 164.312 164.587 165.04 165.205 165.637 
165.569 158.149 159.14 159.974 160.997 161.664 162.541 162.967 163.646 
163.879 164.378 164.442 164.816 164.756 165.078 164.935 157.115 158.007 
158.773 159.748 160.38 161.273 161.622 162.44 162.597 163.356 163.37 
163.955 163.832 164.258 164.091 164.446 164.218 156.062 156.9 157.521 
158.501 159.068 159.971 160.251 161.009 161.077 161.846 161.875 162.638 
162.576 163.184 162.992 163.473 163.203 163.593 163.2 147.032 147.962 
147.636 147.956 149.009 148.66 149.055 148.677 149.056 150.142 149.783 
150.209 149.83 150.269 149.873 150.303 151.248 150.933 151.393 151.027 
151.525 151.145 151.69 151.244 151.736 152.281 152.01 152.534 152.231 
152.837 152.496 153.194 152.767 153.432 152.847 153.394 153.298 153.045 
153.62 153.38 154.105 153.864 154.694 154.364 155.162 154.657 155.331 
154.652 155.247 154.218 154.053 154.662 154.481 155.278 155.141 156.078 
155.87 156.754 156.376 157.123 156.583 157.243 156.586 157.214 154.925 
154.91 155.584 155.501 156.337 156.294 157.325 157.245 158.268 157.984 
158.835 158.353 159.068 158.498 159.132 158.505 159.051 155.484 155.584 
156.374 156.391 157.272 157.301 158.36 158.427 159.564 159.484 160.465 
160.101 160.855 160.305 160.904 160.301 160.783 160.159 160.535 146.673 
146.338 146.841 147.525 145.92 146.468 147.174 147.729 148.515 145.519 
146.053 146.778 147.351 148.155 148.764 149.617 145.215 145.695 146.403 
146.952 147.731 148.36 149.225 149.873 150.713 144.942 145.398 146.045 
146.57 147.286 147.897 148.721 149.42 150.307 150.953 151.759 144.667 
145.092 145.685 146.182 146.833 147.412 148.155 148.852 149.719 150.475 
151.363 152.001 152.777 144.497 144.844 145.428 145.844 146.478 146.971 
147.646 148.251 149.007 149.777 150.635 151.464 152.291 152.965 153.652 
144.438 144.732 145.309 145.658 146.299 146.703 147.368 147.817 148.472 
149.057 149.787 150.594 151.398 152.265 152.98 153.692 154.274 144.382 
144.672 145.208 145.551 146.158 146.558 147.215 147.62 148.244 148.647 
149.267 149.822 150.542 151.311 152.048 152.85 153.472 154.184 154.736 
144.493 144.928 144.902 145.326 145.425 145.365 145.813 145.798 146.288 
145.987 145.89 146.323 146.305 146.849 146.846 147.373 146.636 146.497 
146.943 146.865 147.428 147.43 148.029 147.975 148.441 147.388 147.22 
147.732 147.595 148.179 148.09 148.724 148.662 149.207 149.041 149.464 
148.065 147.963 148.498 148.436 149.041 148.922 149.519 149.41 149.999 
149.858 150.367 150.14 150.663 148.542 148.527 149.041 149.113 149.733 
149.723 150.263 150.177 150.715 150.645 151.21 151.073 151.622 151.439 
152.056 149.016 148.991 149.547 149.612 150.269 150.319 150.883 150.837 
151.35 151.313 151.899 151.866 152.462 152.354 152.934 152.818 153.432 
149.635 149.582 150.198 150.189 150.847 150.863 151.475 151.446 152.028 
151.978 152.626 152.584 153.268 153.178 153.818 153.681 154.298 154.164 
154.756 150.199 151.146 150.744 150.797 151.831 151.579 151.719 151.34 
151.4 152.855 152.355 152.613 152.228 152.416 151.967 152.027 154.818 
153.902 154.272 153.482 153.851 153.17 153.391 152.697 152.727 156.979 
156.182 156.655 155.66 156.087 155.068 155.386 154.39 154.49 153.522 
153.471 158.46 158.08 158.621 157.992 158.373 157.463 157.657 156.599 
156.62 155.507 155.373 154.306 154.144 159.627 159.326 159.876 159.55 
159.912 159.365 159.423 158.625 158.503 157.556 157.352 156.282 156.014 
154.943 154.706 160.987 160.566 161.082 160.692 161.051 160.598 160.659 
160.031 159.888 159.157 159.009 158.152 157.943 156.876 156.567 155.469 
155.197 162.364 161.963 162.409 161.948 162.263 161.755 161.877 161.234 
161.17 160.451 160.387 159.675 159.607 158.733 158.474 157.376 156.99 
155.909 155.602 150.023 150.062 150.373 150.951 150.128 150.401 150.932 
151.171 151.618 150.19 150.475 150.993 151.179 151.673 151.872 152.585 
150.003 150.449 151.036 151.296 151.891 152.083 152.934 153.237 154.423 
149.532 150.111 150.791 151.269 151.967 152.329 153.208 153.622 154.761 
155.259 156.451 149.085 149.624 150.332 150.919 151.672 152.242 153.082 
153.686 154.69 155.351 156.388 156.99 157.897 148.769 149.245 149.919 
150.467 151.212 151.829 152.656 153.34 154.288 155.035 156.048 156.74 
157.683 158.238 159.102 148.451 148.924 149.552 150.072 150.772 151.365 
152.184 152.859 153.811 154.557 155.596 156.339 157.371 158.023 159.016 
159.54 160.486 148.104 148.562 149.153 149.67 150.334 150.917 151.698 
152.373 153.292 154.055 155.059 155.853 156.868 157.642 158.661 159.383 
160.395 160.974 161.877 149.379 148.551 149.055 149.388 147.951 148.251 
148.418 149.051 149.453 147.354 147.627 147.6 148.091 148.408 149.137 
149.528 146.474 146.912 146.849 147.264 147.406 148.059 148.379 149.12 
149.335 145.341 145.935 145.97 146.446 146.487 147.032 147.202 147.896 
148.068 148.768 148.855 144.148 144.785 144.902 145.492 145.559 146.078 
146.144 146.723 146.836 147.487 147.606 148.275 148.413 143.067 143.639 
143.777 144.403 144.536 145.101 145.162 145.687 145.744 146.316 146.423 
147.062 147.227 147.909 148.105 142.14 142.64 142.777 143.342 143.482 
144.05 144.11 144.657 144.683 145.247 145.314 145.919 146.057 146.725 
146.923 147.621 147.812 141.247 141.748 141.882 142.411 142.518 143.024 
143.022 143.539 143.522 144.119 144.189 144.821 144.963 145.593 145.793 
146.454 146.68 147.339 147.52 140.738 140.154 140.781 141.425 139.515 
140.198 140.883 141.482 142.048 138.871 139.552 140.221 140.869 141.399 
141.978 142.446 138.394 138.956 139.635 140.22 140.754 141.285 141.759 
142.341 142.9 138.294 138.625 139.314 139.763 140.389 140.795 141.365 
141.799 142.461 142.98 143.673 138.565 138.692 139.315 139.606 140.291 
140.625 141.302 141.637 142.373 142.764 143.525 143.914 144.572 138.968 
139.027 139.577 139.738 140.396 140.658 141.359 141.669 142.412 142.781 
143.551 143.904 144.587 144.866 145.456 139.321 139.397 139.923 140.044 
140.672 140.863 141.549 141.783 142.493 142.811 143.569 143.941 144.658 
144.951 145.557 145.783 146.345 139.648 139.72 140.237 140.364 140.976 
141.163 141.838 142.033 142.707 142.933 143.639 143.957 144.679 145.009 
145.636 145.892 146.427 146.655 147.171 140.018 140.876 140.476 140.623 
141.956 141.448 141.598 141.174 141.4 143.15 142.617 142.75 142.239 
142.446 142.031 142.282 144.35 143.837 143.983 143.428 143.582 143.11 
143.345 142.932 143.161 145.635 145.093 145.316 144.719 144.882 144.3 
144.509 144.025 144.278 143.828 144.08 147.02 146.447 146.723 146.134 
146.367 145.712 145.896 145.274 145.483 144.971 145.222 144.782 145.063 
148.435 147.841 148.095 147.548 147.823 147.231 147.422 146.742 146.854 
146.217 146.367 145.884 146.113 145.731 145.975 149.94 149.284 149.524 
148.928 149.209 148.651 148.895 148.258 148.374 147.65 147.713 147.067 
147.211 146.738 146.952 146.57 146.767 151.563 150.862 151.126 150.442 
150.727 150.09 150.363 149.726 149.912 149.197 149.285 148.526 148.612 
147.944 148.101 147.581 147.774 147.341 147.516 148.085 148.398 148.534 
149.144 148.835 148.939 149.636 149.705 150.379 149.44 149.505 150.286 
150.313 151.062 151.059 151.795 150.129 150.196 151.018 151.043 151.838 
151.83 152.647 152.615 153.437 150.772 150.9 151.773 151.823 152.695 
152.685 153.591 153.561 154.489 154.397 155.256 151.307 151.53 152.522 
152.637 153.662 153.67 154.734 154.665 155.708 155.562 156.505 156.291 
157.108 151.756 152.064 153.179 153.415 154.58 154.712 155.935 155.949 
157.132 156.96 157.977 157.668 158.555 158.21 158.988 152.183 152.531 
153.724 154.066 155.329 155.608 156.924 157.119 158.421 158.419 159.542 
159.271 160.206 159.798 160.636 160.171 160.855 152.619 152.976 154.213 
154.614 155.98 156.353 157.776 158.069 159.451 159.608 160.82 160.754 
161.732 161.452 162.261 161.852 162.511 161.979 162.421 135.274 134.873 
135.054 135.178 134.757 134.795 134.887 135.09 135.313 135.006 134.859 
134.855 134.846 134.89 135.155 135.362 135.518 135.268 135.147 134.882 
134.682 134.7 134.792 135.189 135.592 135.976 135.775 135.64 135.262 
134.937 134.623 134.629 134.78 135.328 135.743 136.455 136.437 136.195 
136.174 135.819 135.608 135.104 135.064 134.902 135.464 135.738 136.574 
136.876 137.573 137.239 136.815 136.906 136.507 136.507 135.962 135.94 
135.545 135.925 136.004 136.734 137.03 137.69 137.93 138.456 138.273 
137.782 137.883 137.431 137.519 136.994 137.009 136.5 136.696 136.515 
137.047 137.187 137.807 138.014 138.553 138.755 139.28 139.196 138.782 
138.834 138.426 138.485 138.029 138.05 137.556 137.673 137.322 137.712 
137.618 138.215 138.264 138.883 138.965 139.553 139.666 140.224 135.63 
135.529 135.762 136.321 135.681 135.809 136.293 136.573 137.227 135.837 
135.998 136.491 136.659 137.238 137.527 138.187 136.108 136.18 136.741 
136.891 137.464 137.644 138.263 138.517 139.163 136.827 136.631 137.143 
137.18 137.772 137.906 138.5 138.676 139.293 139.524 140.143 137.825 
137.501 137.877 137.714 138.243 138.263 138.848 138.951 139.538 139.704 
140.311 140.519 141.101 138.736 138.464 138.798 138.536 138.957 138.827 
139.36 139.362 139.943 140.017 140.614 140.743 141.336 141.486 142.03 
139.588 139.344 139.733 139.46 139.834 139.593 140.03 139.928 140.472 
140.486 141.068 141.123 141.687 141.771 142.303 142.412 142.903 140.474 
140.225 140.64 140.393 140.78 140.493 140.87 140.647 141.122 141.05 
141.605 141.611 142.136 142.158 142.633 142.694 143.151 143.251 143.686 
136.001 136.707 136.52 136.965 137.627 137.359 137.783 137.576 138.038 
138.542 138.282 138.68 138.449 138.844 138.641 139.107 139.455 139.165 
139.521 139.296 139.664 139.444 139.833 139.699 140.225 140.41 140.084 
140.419 140.146 140.534 140.276 140.664 140.441 140.905 140.822 141.392 
141.338 141.022 141.347 141.071 141.474 141.211 141.626 141.337 141.761 
141.552 142.08 142.004 142.596 142.226 141.919 142.214 141.958 142.341 
142.134 142.549 142.304 142.688 142.433 142.887 142.743 143.325 143.254 
143.85 143.088 142.793 143.065 142.794 143.139 142.942 143.351 143.165 
143.552 143.32 143.723 143.545 144.072 143.995 144.585 144.511 145.041 
143.878 143.627 143.896 143.63 143.936 143.716 144.1 143.932 144.348 
144.154 144.565 144.366 144.84 144.724 145.27 145.208 145.728 145.635 
146.078 149.146 148.672 148.748 148.478 148.325 148.43 148.343 148.315 
148.088 147.797 148.044 147.979 148.174 147.986 147.929 147.518 147.002 
147.309 147.072 147.496 147.209 147.504 146.999 147.071 146.469 146.234 
146.431 146.051 146.385 145.996 146.397 145.904 146.21 145.616 145.802 
145.213 145.601 145.709 145.298 145.444 145.028 145.246 144.833 145.089 
144.648 144.866 144.376 144.536 144.027 145.008 145.088 144.653 144.756 
144.321 144.447 144.027 144.195 143.796 143.993 143.583 143.747 143.291 
143.411 142.961 144.484 144.505 144.041 144.109 143.656 143.765 143.301 
143.437 142.955 143.147 142.692 142.931 142.498 142.693 142.252 142.4 
142.006 144.061 144.026 143.551 143.544 143.083 143.125 142.654 142.721 
142.197 142.296 141.777 141.981 141.55 141.827 141.434 141.663 141.257 
141.452 141.084 
POINT_DATA 1002
SCALARS Distance double
LOOKUP_TABLE default
140.348 139.59 139.572 140.444 139.639 141.318 140.564 139.698 141.481 
142.488 140.668 139.742 141.608 142.626 143.663 140.904 140.049 141.819 
142.743 143.778 144.838 141.426 140.733 142.247 143.118 144.07 145.134 
146.179 142.05 141.347 142.779 143.676 144.694 145.727 146.724 147.608 
142.444 141.579 143.227 144.133 145.27 146.395 147.4 148.295 149.055 
142.663 141.753 143.539 144.466 145.633 146.846 147.945 148.978 149.88 
150.611 143.028 142.242 143.853 144.775 145.963 147.25 148.432 149.598 
150.706 151.587 152.257 138.762 138.666 137.713 137.6 136.719 138.735 
136.701 136.156 137.781 138.806 136.051 135.783 136.904 137.947 138.892 
135.346 135.222 135.952 137.026 138.152 139.382 134.825 134.768 135.169 
136.01 137.304 138.781 140.168 134.901 134.728 135.213 135.606 136.512 
138.072 139.561 140.629 135.327 135.013 135.848 136.122 136.424 137.559 
139.079 140.062 140.791 135.816 135.538 136.407 136.838 136.964 137.577 
138.92 139.984 140.501 141.188 136.385 136.743 137.419 137.722 138.481 
137.272 138.867 139.615 138.173 137.594 140.194 140.804 139.398 138.601 
137.981 141.418 141.966 140.704 139.9 139.359 139.085 142.592 143.184 
141.907 141.163 140.691 140.548 140.311 143.869 144.427 143.246 142.57 
141.99 141.709 141.429 140.894 145.065 145.531 144.564 144.061 143.49 
142.95 142.518 141.982 141.41 146.104 146.493 145.663 145.258 144.83 
144.279 143.736 143.278 142.791 142.374 143.478 143.804 144.82 144.199 
145.233 146.301 144.558 145.612 146.788 148.288 145.011 146.039 147.343 
148.871 150.705 145.559 146.578 147.99 149.532 151.25 153.147 146.015 
147.043 148.498 150.073 151.698 153.6 155.577 146.428 147.443 148.808 
150.329 151.908 153.817 155.948 157.85 146.883 147.887 149.135 150.526 
152.028 153.848 155.999 158.024 159.609 147.287 148.277 149.443 150.742 
152.206 153.905 155.861 157.866 159.56 160.86 144.19 145.583 145.043 
147.539 146.819 146.293 150.089 149.328 148.522 147.805 152.706 152.037 
151.152 150.165 149.198 155.298 154.715 153.82 152.771 151.656 150.535 
157.871 157.594 156.839 155.686 154.453 153.176 151.865 159.942 160.155 
159.923 158.938 157.504 156.015 154.471 152.934 161.36 161.891 162.179 
161.717 160.473 158.895 157.179 155.37 153.681 162.307 163 163.924 
164.814 165.516 163.641 166.425 166.562 165.216 163.688 167.132 166.693 
166.236 164.663 162.869 166.734 166.113 166.37 165.165 163.648 161.538 
165.897 165.398 165.826 165.139 164.117 162.38 159.819 165.172 164.775 
165.135 164.63 163.869 162.566 160.319 157.69 164.328 163.951 164.294 
163.825 163.015 161.835 160.042 157.767 155.557 163.08 162.751 163.032 
162.653 161.944 160.804 159.254 157.429 155.534 153.778 161.189 162.706 
161.43 162.985 161.542 164.16 163.037 161.397 164.052 165.179 162.648 
160.725 163.76 164.461 165.625 161.595 159.519 163.166 163.993 164.709 
165.601 160.203 158.253 162.041 163.384 164.244 164.815 165.202 158.971 
157.229 160.754 162.205 163.319 164.081 164.434 164.636 157.827 156.294 
159.526 160.866 161.803 162.676 163.358 163.711 163.931 156.586 155.311 
158.156 159.527 160.367 161.068 161.888 162.49 162.783 162.902 147.318 
148.305 148.264 149.412 149.354 149.451 150.587 150.488 150.63 150.728 
151.728 151.532 151.868 152.081 152.265 152.776 152.542 153.104 153.546 
153.96 154.076 153.823 153.533 154.267 154.95 155.591 155.943 155.981 
154.809 154.318 155.363 156.213 157.077 157.602 157.834 157.922 155.61 
154.855 156.344 157.316 158.454 159.281 159.633 159.746 159.734 146.211 
146.996 145.811 146.601 145.352 147.928 146.208 144.999 147.528 149.011 
145.881 144.768 147.123 148.544 150.123 145.548 144.511 146.709 148.028 
149.594 151.208 145.22 144.272 146.291 147.502 148.938 150.628 152.258 
145.043 144.178 146.024 147.122 148.317 149.77 151.51 153.106 144.977 
144.159 145.91 146.967 148.017 149.087 150.507 152.182 153.654 144.882 