# vtk DataFile Version 4.0
vtk output
ASCII
DATASET POLYDATA
POINTS 1002 float
-84.3673 -83.3147 73.7036 -84.5253 -82.5483 72.6365 -84.128 -82.4078 73.2854 
-83.9815 -83.2029 74.5083 -83.545 -82.4079 73.9066 -84.3389 -84.1407 75.1008 
-83.3939 -83.2309 75.2608 -82.8561 -82.4373 74.581 -83.9998 -84.0415 76.0676 
-84.4143 -84.9686 76.8138 -82.8471 -83.3283 76.1248 -82.4869 -82.337 75.613 
-83.4952 -84.1127 76.9189 -84.0051 -85.0036 77.7501 -84.2723 -86.047 78.4702 
-82.6404 -83.3624 77.3713 -82.5047 -82.1379 76.9661 -83.0123 -84.3638 77.9144 
-83.4386 -85.2703 78.5782 -83.692 -86.3562 79.2665 -83.9215 -87.5108 79.9358 
-82.4428 -83.3589 78.6655 -82.3685 -82.1198 78.2221 -82.5268 -84.635 79.1228 
-82.7925 -85.7414 79.6015 -83.0595 -86.8492 80.1531 -83.3487 -88.0238 80.8131 
-83.7059 -89.0905 81.5332 -82.0081 -83.5485 79.7526 -81.9966 -82.4671 79.4725 
-81.9465 -84.8607 80.1817 -82.1402 -86.185 80.7193 -82.5043 -87.3824 81.2851 
-82.8281 -88.5521 81.8615 -83.1525 -89.6724 82.5037 -83.436 -90.688 83.1517 
-81.7084 -84.0066 81.0985 -81.7692 -83.0201 81.0435 -81.6245 -85.2235 81.3275 
-81.7738 -86.6065 81.848 -82.1732 -87.8816 82.5254 -82.4856 -89.017 83.0814 
-82.605 -90.1687 83.4952 -82.7042 -91.3377 83.9348 -82.8285 -92.4465 84.4097 
-81.6206 -84.5201 82.7443 -81.695 -83.5297 82.6594 -81.6327 -85.7438 82.89 
-81.7673 -87.1729 83.2658 -82.0224 -88.5271 83.8655 -82.251 -89.652 84.4204 
-82.2599 -90.7454 84.7102 -82.1272 -91.9689 84.8631 -82.0953 -93.2207 85.123 
-82.2042 -94.3301 85.5032 -81.5243 -84.9347 84.1369 -81.6288 -83.9459 83.8861 
-81.6089 -86.2246 84.4132 -81.7577 -87.7582 84.7795 -81.8151 -89.2536 85.2297 
-81.8623 -90.5158 85.6938 -81.9551 -91.6528 86.0516 -81.9182 -92.8503 86.2084 
-81.7767 -94.1145 86.2808 -81.7588 -95.295 86.4636 -81.8952 -96.2611 86.7611 
-84.4135 -81.7745 72.0324 -83.9493 -81.6237 72.6495 -84.1636 -81.0199 71.3656 
-83.7008 -80.7183 72.0241 -83.8425 -80.1391 70.6485 -83.3273 -81.5388 73.264 
-83.3445 -79.6758 71.4027 -83.5203 -79.2401 69.9306 -83.1458 -80.414 72.7918 
-82.6879 -81.3775 74.0801 -82.8952 -78.7993 70.7761 -83.2639 -78.5069 69.4296 
-82.787 -79.2936 72.3658 -82.574 -80.1275 73.82 -82.3902 -81.1078 75.2808 
-82.6275 -78.0629 70.4299 -83.2736 -77.7438 69.4077 -82.3513 -78.4227 71.9459 
-82.2709 -79.0681 73.6132 -82.1736 -79.9363 75.1038 -82.2823 -80.9307 76.6393 
-82.7991 -77.2134 70.6938 -83.6714 -76.9345 69.8064 -82.2657 -77.536 71.9581 
-82.0916 -78.1384 73.6007 -81.9131 -78.9885 75.1523 -81.824 -79.9265 76.5294 
-81.9886 -81.096 78.005 -83.3244 -76.5766 71.4316 -84.3202 -76.4669 70.4247 
-82.5787 -76.7229 72.6412 -82.266 -77.2071 74.1236 -82.0344 -78.0925 75.6278 
-81.6596 -79.063 76.8982 -81.572 -80.1828 78.1764 -81.7553 -81.5941 79.6331 
-84.0275 -76.4378 72.3266 -84.9986 -76.4361 71.2001 -83.1543 -76.3896 73.6512 
-82.634 -76.606 75.0431 -82.3876 -77.3647 76.3879 -82.0235 -78.3543 77.5854 
-81.6692 -79.3738 78.7264 -81.678 -80.696 80.0338 -81.7822 -82.1969 81.4265 
-84.7332 -76.5682 73.1978 -85.5252 -76.6181 72.0527 -83.9381 -76.4154 74.5982 
-83.2616 -76.3944 75.9623 -82.8205 -76.9241 77.1114 -82.5022 -77.8962 78.1652 
-82.1612 -78.8587 79.2631 -81.9762 -79.9435 80.461 -81.9671 -81.3505 81.7326 
-81.8601 -82.7563 82.9138 -85.4552 -76.8228 73.5834 -84.8767 -76.6163 74.995 
-85.4174 -77.0068 75.1535 -85.1181 -76.6992 76.6451 -85.4751 -77.4045 76.5347 
-84.2762 -76.3799 76.4817 -85.2932 -77.2839 77.9253 -85.6661 -78.1909 77.86 
-84.661 -76.6184 77.9487 -83.6241 -76.5949 77.6365 -85.4202 -78.3673 79.3001 
-86.0081 -78.9584 79.5993 -84.8792 -77.584 79.143 -83.9839 -77.2866 78.9051 
-83.0762 -77.5324 78.5668 -85.6967 -79.2188 81.1807 -86.3843 -79.4496 81.608 
-85.0659 -78.846 80.7149 -84.2666 -78.5185 80.3067 -83.3631 -78.5034 79.9678 
-82.6857 -78.6523 79.67 -86.0127 -79.8459 83.057 -86.6563 -80.1479 83.2453 
-85.3371 -79.7296 82.6067 -84.5551 -79.6906 82.0841 -83.6712 -79.6386 81.6613 
-82.9466 -79.6141 81.3105 -82.4314 -79.6744 80.9443 -86.1843 -80.8132 84.5059 
-86.8599 -81.1884 84.5063 -85.4886 -80.6149 84.2504 -84.7801 -80.6516 83.7824 
-83.9981 -80.7122 83.3421 -83.2564 -80.7192 82.9668 -82.719 -80.7698 82.5872 
-82.3093 -80.9661 82.1979 -86.2911 -81.9534 85.729 -87.0195 -82.176 85.7155 
-85.5325 -81.8037 85.575 -84.8769 -81.8057 85.1909 -84.2783 -81.8734 84.7435 
-83.6385 -81.9395 84.3742 -83.0303 -82.0437 84.0164 -82.5279 -82.1927 83.6603 
-82.127 -82.4226 83.3275 -86.386 -82.9782 86.8136 -87.0642 -83.0559 86.8219 
-85.6381 -82.9945 86.6894 -84.9922 -83.0912 86.3904 -84.4804 -83.1846 85.9717 
-83.968 -83.2498 85.5987 -83.3897 -83.3509 85.2886 -82.7829 -83.4571 84.9406 
-82.2155 -83.5377 84.5885 -81.809 -83.6862 84.2705 -81.4898 -84.9838 84.9999 
-81.7601 -84.7984 85.3647 -81.5636 -86.3694 86.1422 -82.3181 -84.7649 85.8033 
-81.9391 -86.2302 86.6456 -81.8207 -88.1751 87.4697 -82.9581 -84.7661 86.2464 
-82.4468 -86.2059 87.2439 -82.1131 -88.0142 88.1134 -81.9036 -90.2336 88.8406 
-83.5569 -84.7141 86.54 -82.9301 -86.2241 87.6348 -82.3824 -87.9129 88.6607 
-82.0247 -90.0241 89.4117 -81.7467 -92.4299 89.9534 -84.1505 -84.6568 86.8036 
-83.5411 -86.248 87.7965 -82.8497 -87.9578 88.882 -82.3418 -89.9187 89.8035 
-81.9439 -92.2351 90.417 -81.6955 -94.7597 90.8973 -84.7106 -84.5572 87.1622 
-84.2824 -86.2073 88.0183 -83.6407 -88.018 88.9998 -83.0543 -90.0042 89.9774 
-82.4843 -92.1895 90.7844 -81.9799 -94.6002 91.3906 -81.7521 -97.1188 91.8981 
-85.277 -84.3609 87.4791 -84.9254 -86.0306 88.2768 -84.401 -87.8851 89.1942 
-83.8159 -89.9355 90.0965 -83.1839 -92.173 90.9146 -82.4246 -94.49 91.7054 
-81.8805 -96.9224 92.371 -81.6862 -99.4499 92.7946 -85.9386 -84.1748 87.6555 
-85.5062 -85.8079 88.4102 -84.9876 -87.6565 89.297 -84.3758 -89.6328 90.1997 
-83.7589 -91.8847 90.9265 -83.0015 -94.2542 91.6998 -82.2149 -96.5975 92.5568 
-81.7636 -99.1126 93.1651 -81.5931 -101.752 93.374 -86.6164 -84.1125 87.7203 
-86.1258 -85.6654 88.4459 -85.5912 -87.4935 89.2459 -84.9518 -89.3595 90.1606 
-84.3068 -91.4723 90.9194 -83.671 -93.858 91.6199 -82.9195 -96.1552 92.4976 
-82.2362 -98.4923 93.2883 -81.856 -101.159 93.6727 -81.6535 -103.865 93.6787 
-81.4695 -86.2762 85.4294 -81.5683 -88.0496 86.7279 -81.5999 -87.9517 85.9343 
-81.6864 -90.1466 88.106 -81.4685 -89.9535 87.3342 -81.5433 -89.7039 86.4058 
-81.6208 -92.4512 89.4154 -81.3101 -92.1509 88.6643 -81.085 -91.7719 87.7496 
-81.3424 -91.2896 86.7823 -81.505 -94.9681 90.5099 -81.2323 -94.7105 89.956 
-80.9303 -94.1576 89.0583 -80.9854 -93.606 88.1266 -81.4673 -92.7746 87.215 
-81.5616 -97.5344 91.5427 -81.2257 -97.5155 91.1524 -80.9638 -96.9654 90.4373 
-81.0771 -96.2915 89.5489 -81.4756 -95.482 88.7549 -81.7832 -94.2216 87.6618 
-81.6147 -100.062 92.4829 -81.3016 -100.307 92.1555 -80.9259 -99.9669 91.6059 
-80.978 -99.2188 90.8018 -81.4595 -98.3625 90.1282 -81.8158 -97.1781 89.3167 
-81.8059 -95.6008 87.8836 -81.4903 -102.631 93.0683 -81.2995 -103.152 92.7436 
-81.0075 -103.181 92.3101 -80.8617 -102.585 91.5784 -81.0653 -101.554 90.8668 
-81.4581 -100.29 90.3688 -81.6785 -98.6739 89.4628 -81.6764 -96.8666 87.9475 
-81.3657 -105.046 93.3433 -81.1071 -105.86 92.9376 -80.9909 -106.335 92.5375 
-81.012 -106.258 91.9551 -81.0014 -105.369 91.1733 -81.0317 -103.892 90.6234 
-81.2761 -102.079 90.2388 -81.5594 -99.9881 89.3945 -81.7162 -97.9317 88.0586 
-81.5887 -106.657 93.6498 -81.0553 -107.866 93.1977 -81.4417 -109.043 93.5234 
-80.6292 -110.127 92.9923 -81.2058 -110.717 93.2145 -80.6742 -108.75 92.6667 
-80.1806 -111.822 92.6057 -80.9597 -112.31 92.4432 -80.1334 -111.077 92.3463 
-80.7914 -109.372 92.1555 -79.9705 -113.655 91.667 -80.8914 -114.179 91.2886 
-79.526 -112.731 91.7623 -80.343 -111.661 91.6711 -81.0652 -109.182 91.442 
-80.202 -115.382 90.2237 -81.0702 -115.196 90.2427 -79.2743 -114.208 90.463 
-79.6155 -112.899 90.7864 -80.7005 -111.167 90.8162 -81.0242 -107.864 90.6591 
-80.6604 -115.76 88.9242 -81.4161 -114.638 89.5117 -79.6512 -115.315 88.7964 
-79.3224 -113.81 89.3475 -80.1742 -112.159 89.9609 -80.9153 -109.584 90.1814 
-81.0495 -105.801 90.2803 -81.2179 -114.732 88.2843 -81.9977 -113.333 89.0117 
-80.3576 -115.242 87.8039 -79.7799 -114.423 88.1399 -80.1526 -112.845 89.0569 
-80.9764 -110.541 89.7716 -81.3458 -107.088 90.0567 -81.4262 -103.238 89.9704 
-82.0363 -113.108 88.2448 -82.829 -111.885 88.7312 -81.2449 -113.919 87.8171 
-80.6277 -113.831 87.8799 -80.6191 -112.783 88.5687 -81.199 -110.756 89.3942 
-81.697 -107.564 89.8476 -81.819 -103.806 89.7584 -81.7748 -100.494 89.1036 
-82.9778 -111.113 88.4246 -83.6437 -110.095 88.6272 -82.2662 -111.798 88.2515 
-81.6216 -111.883 88.2416 -81.3044 -111.252 88.5375 -81.4634 -109.735 89.0378 
-81.8117 -107.076 89.4201 -82.0062 -103.694 89.3862 -82.0156 -100.571 88.8094 
-81.9445 -98.1594 87.829 -81.9959 -103.999 93.8776 -82.0006 -106.782 93.769 
-82.3139 -103.64 93.7673 -82.1975 -106.26 93.4045 -82.5357 -102.959 93.3678 
-81.9482 -108.999 93.484 -82.4079 -105.334 92.9011 -83.1078 -102.22 93.1194 
-82.1285 -108.289 92.854 -81.7691 -110.522 92.8284 -83.2342 -104.325 92.9469 
-84.11 -101.388 93.1383 -82.5001 -107.159 92.4283 -81.9754 -109.649 92.0102 
-81.4806 -112.054 91.7503 -84.1605 -103.114 93.0663 -84.8676 -100.275 92.8138 
-83.4171 -105.866 92.6684 -82.54 -108.309 91.785 -81.7805 -110.851 91.1192 
-81.368 -113.422 90.8446 -84.602 -101.518 92.4572 -85.3858 -98.9425 92.0192 
-84.0524 -104.225 92.5541 -83.4494 -106.729 92.0008 -82.6424 -109.168 91.166 
-81.9809 -111.609 90.7445 -81.6543 -113.552 90.4087 -85.2692 -99.786 91.6434 
-86.1864 -97.5768 91.2558 -84.5083 -102.231 91.8762 -84.0095 -104.744 91.7601 
-83.6123 -107.235 91.2821 -83.1513 -109.587 90.8708 -82.6652 -111.439 90.6042 
-82.2721 -112.641 89.9839 -86.3719 -98.1761 91.0416 -87.087 -96.2524 90.5416 
-85.5237 -100.278 91.3754 -84.7162 -102.537 91.4129 -84.2088 -104.901 91.1445 
-84.0337 -107.267 90.8284 -83.8422 -109.3 90.5891 -83.4595 -110.678 90.157 
-83.0735 -111.488 89.4258 -87.2608 -96.6926 90.2423 -87.7097 -94.9955 89.6243 
-86.6643 -98.5272 90.8211 -85.8628 -100.495 91.1383 -85.0342 -102.526 91.0407 
[...]
CELL_DATA 2000
SCALARS Distance double
LOOKUP_TABLE default
138.002 138.042 138.352 139.059 138.045 138.409 139.21 139.551 140.4 
138.193 138.487 139.368 139.727 140.649 140.982 141.869 138.691 138.84 
139.764 139.998 140.947 141.239 142.152 142.45 143.334 139.304 139.444 
140.339 140.51 141.423 141.626 142.543 142.778 143.723 143.981 144.952 
139.891 140.002 140.825 141.022 141.907 142.137 143.083 143.287 144.277 
144.479 145.502 145.716 146.706 140.768 140.673 141.494 141.535 142.491 
142.666 143.753 143.941 145.018 145.152 146.147 146.296 147.226 147.423 
148.284 141.922 141.719 142.58 142.45 143.5 143.5 144.716 144.793 
145.981 146.018 147.025 147.021 147.891 147.947 148.784 148.926 149.745 
142.953 142.843 143.693 143.633 144.689 144.687 145.869 145.897 147.05 
147.056 148.093 148.025 148.955 148.825 149.726 149.629 150.552 150.527 
151.432 137.413 136.513 137.115 137.394 135.494 136.157 136.423 137.057 
137.341 134.376 135.068 135.356 136.047 136.336 136.996 137.407 133.351 
133.94 134.228 134.95 135.312 136.006 136.438 137.179 137.816 132.658 
133.024 133.262 133.876 134.306 135.019 135.514 136.238 136.851 137.687 
138.422 132.42 132.531 132.732 133.096 133.568 134.163 134.764 135.402 
136.013 136.737 137.462 138.31 139.081 132.688 132.561 132.797 132.857 
133.363 133.709 134.437 134.897 135.595 136.074 136.799 137.463 138.354 
139.124 140.029 133.395 133.113 133.432 133.244 133.762 133.822 134.594 
134.863 135.675 135.949 136.702 137.074 137.983 138.599 139.646 140.306 
141.248 134.292 133.993 134.379 134.1 134.598 134.449 135.122 135.207 
136.008 136.207 136.987 137.209 138.048 138.45 139.461 140.041 141.026 
141.573 142.357 134.885 135.858 135.279 135.072 136.877 136.324 136.216 
135.543 135.348 138.03 137.415 137.365 136.72 136.581 135.882 135.806 
139.484 138.713 138.681 137.948 137.867 137.145 137.111 136.47 136.588 
141.138 140.306 140.306 139.451 139.438 138.586 138.61 137.857 137.999 
137.37 137.57 142.722 141.962 141.996 141.172 141.205 140.326 140.377 
139.513 139.649 138.887 139.111 138.422 138.678 144.188 143.491 143.54 
142.804 142.85 142.075 142.136 141.318 141.427 140.622 140.828 140.079 
140.382 139.67 140.051 145.584 144.931 144.992 144.298 144.359 143.648 
143.743 143.006 143.141 142.38 142.575 141.828 142.101 141.404 141.749 
141.107 141.502 146.843 146.273 146.346 145.718 145.807 145.144 145.277 
144.587 144.764 144.054 144.27 143.552 143.787 143.084 143.326 142.688 
142.957 142.413 142.721 143.489 143.743 143.967 144.809 144.198 144.347 
145.22 145.458 146.543 144.73 144.9 145.819 145.99 147.04 147.355 
148.569 145.206 145.431 146.357 146.575 147.555 147.847 148.947 149.354 
150.529 145.671 145.897 146.822 147.057 148.014 148.294 149.337 149.698 
150.823 151.248 152.435 146.151 146.368 147.308 147.536 148.521 148.764 
149.837 150.131 151.278 151.609 152.796 153.198 154.451 146.612 146.822 
147.738 148.007 148.987 149.273 150.321 150.642 151.755 152.097 153.222 
153.591 154.757 155.215 156.439 147.07 147.247 148.091 148.372 149.305 
149.651 150.624 151.009 152.017 152.443 153.472 153.91 154.957 155.436 
156.557 157.102 158.256 147.517 147.672 148.447 148.691 149.569 149.902 
150.827 151.203 152.143 152.572 153.562 154.036 155.056 155.539 156.583 
157.122 158.226 158.815 159.898 143.652 145.057 144.378 144.529 146.849 
146.011 146.29 145.487 145.708 148.913 148.004 148.267 147.391 147.654 
146.773 146.937 150.944 150.113 150.357 149.42 149.57 148.679 148.819 
147.957 148.042 152.93 152.157 152.531 151.562 151.718 150.663 150.797 
149.844 150.014 149.074 149.119 155.01 154.253 154.789 153.839 154.143 
152.99 153.211 152.073 152.384 151.278 151.457 150.238 150.142 157.067 
156.403 157.041 156.183 156.595 155.504 155.75 154.609 154.927 153.84 
154.109 152.832 152.748 151.277 150.99 158.931 158.405 159.112 158.411 
158.937 157.977 158.276 157.138 157.357 156.286 156.512 155.422 155.398 
154.001 153.65 152.11 151.769 160.579 160.17 160.885 160.351 160.964 
160.249 160.723 159.707 159.963 158.749 158.878 157.711 157.74 156.517 
156.284 154.815 154.399 152.892 152.579 161.683 163.277 162.358 161.969 
164.415 163.757 163.405 162.535 162.064 165.095 164.656 164.4 163.807 
163.508 162.635 162.009 165.674 165.269 165.007 164.578 164.394 163.918 
163.478 162.442 161.411 166.117 165.845 165.443 165.01 164.619 164.434 
164.096 163.616 162.692 161.524 160.203 165.914 166.017 165.558 165.254 
164.593 164.393 163.977 163.867 163.219 162.524 161.29 160.138 158.841 
165.158 165.482 165.146 165.119 164.529 164.306 163.865 163.738 163.339 
162.932 162.007 161.06 159.711 158.644 157.311 164.38 164.684 164.482 
164.62 164.245 164.18 163.792 163.699 163.318 163.086 162.297 161.625 
160.277 159.308 157.775 156.843 155.402 163.593 163.935 163.736 163.977 
163.629 163.757 163.286 163.385 162.8 162.825 161.895 161.599 160.173 
159.521 157.866 157.085 155.539 154.785 153.471 161.666 161.864 162.37 
163.305 161.486 162.294 163.34 163.845 164.474 160.935 161.699 162.685 
163.517 164.273 164.725 165.104 160.763 161.265 162.09 162.746 163.45 
164.145 164.668 165.176 165.571 160.528 161.123 161.867 162.332 162.86 
163.323 163.775 164.427 164.958 165.596 165.969 159.653 160.51 161.151 
161.911 162.363 162.846 163.157 163.623 164.072 164.756 165.216 165.791 
165.836 158.634 159.398 159.903 160.798 161.248 162.052 162.388 163.009 
163.377 163.973 164.38 164.937 165.08 165.402 165.157 157.859 158.466 
158.928 159.599 160.035 160.788 161.167 161.962 162.339 163.132 163.497 
164.148 164.312 164.687 164.552 164.701 164.397 157.01 157.681 158.122 
158.761 159.168 159.77 160.092 160.737 161.022 161.828 162.128 163.004 
163.183 163.84 163.752 164.09 163.805 163.963 163.603 147.976 148.979 
148.625 148.942 150.063 149.723 150.135 149.708 150.092 151.186 150.898 
151.414 150.991 151.418 150.947 151.349 152.282 152.083 152.675 152.294 
152.748 152.295 152.712 152.238 152.655 153.3 153.213 153.906 153.568 
154.046 153.607 154.096 153.653 154.175 153.651 154.128 154.217 154.234 
155.068 154.827 155.386 154.944 155.492 155.083 155.756 155.289 155.879 
155.242 155.695 155.052 155.12 156.013 155.944 156.629 156.312 156.886 
156.508 157.172 156.828 157.479 156.996 157.479 156.816 157.221 155.812 
155.894 156.721 156.773 157.526 157.451 158.119 157.871 158.464 158.142 
158.709 158.388 158.927 158.501 158.994 158.377 158.844 156.445 156.564 
157.306 157.382 158.102 158.194 158.981 158.98 159.67 159.401 159.899 
159.527 160.062 159.781 160.442 160.08 160.695 160.074 160.54 147.575 
147.154 147.761 148.515 146.535 147.252 148.033 148.689 149.493 145.816 
146.564 147.351 148.103 148.905 149.638 150.496 145.156 145.844 146.609 
147.369 148.176 148.959 149.79 150.593 151.482 144.628 145.238 145.988 
146.671 147.508 148.253 149.101 149.854 150.686 151.511 152.397 144.173 
144.755 145.493 146.116 146.961 147.669 148.592 149.277 150.114 150.77 
151.582 152.385 153.27 143.709 144.293 145.002 145.62 146.397 147.115 
148.028 148.796 149.703 150.336 151.118 151.71 152.524 153.283 154.162 
143.268 143.816 144.498 145.099 145.807 146.487 147.284 148.107 149.008 
149.835 150.676 151.327 152.072 152.679 153.471 154.196 155.004 142.935 
143.401 144.057 144.606 145.3 145.9 146.621 147.325 148.138 148.998 
149.888 150.739 151.54 152.223 152.91 153.552 154.248 154.975 155.665 
143.006 143.459 143.501 144.086 143.925 143.965 144.596 144.675 145.34 
144.507 144.476 145.175 145.256 146.006 146.011 146.692 145.299 145.164 
145.878 145.921 146.763 146.767 147.506 147.427 148.169 146.211 146.056 
146.751 146.709 147.56 147.571 148.397 148.328 149.122 149.042 149.902 
147.115 147.034 147.796 147.668 148.477 148.411 149.299 149.274 150.186 
150.102 150.979 150.858 151.645 147.951 147.982 148.863 148.757 149.546 
149.394 150.269 150.24 151.248 151.219 152.113 151.957 152.654 152.462 
153.045 148.697 148.809 149.726 149.749 150.52 150.423 151.214 151.212 
152.196 152.26 153.148 153.03 153.623 153.403 153.912 153.745 154.307 
149.405 149.513 150.39 150.492 151.245 151.25 151.964 152.025 152.912 
153.084 153.965 153.965 154.548 154.325 154.79 154.597 155.184 155.06 
155.691 150.117 151.544 150.897 151.063 153.044 152.373 152.467 151.803 
151.884 154.438 153.871 153.984 153.25 153.272 152.569 152.644 155.641 
155.209 155.445 154.787 154.862 154.081 154.188 153.455 153.662 156.861 
156.433 156.785 156.23 156.44 155.729 155.889 155.129 155.311 154.577 
154.708 158.335 157.811 158.239 157.641 157.934 157.287 157.512 156.824 
156.976 156.223 156.218 155.437 155.277 160.053 159.476 159.994 159.281 
159.579 158.83 159.027 158.356 158.523 157.831 157.837 156.977 156.772 
155.853 155.589 161.71 161.231 161.795 161.134 161.44 160.598 160.686 
159.865 159.922 159.251 159.29 158.568 158.445 157.509 157.264 156.263 
156.05 162.959 162.679 163.165 162.76 163.062 162.403 162.437 161.563 
161.433 160.614 160.502 159.85 159.724 159.042 158.808 157.966 157.686 
156.772 156.536 149.808 149.906 150.307 151.262 149.991 150.423 151.357 
151.794 152.747 149.826 150.396 151.269 151.798 152.683 153.195 154.059 
149.347 150.049 150.893 151.542 152.366 152.979 153.816 154.384 155.195 
148.793 149.488 150.349 151.051 151.91 152.576 153.455 154.082 154.972 
155.518 156.392 148.389 148.995 149.867 150.525 151.433 152.115 153.069 
153.742 154.71 155.313 156.273 156.806 157.8 148.089 148.655 149.502 
150.109 150.991 151.658 152.611 153.341 154.334 155.03 156.015 156.655 
157.703 158.314 159.427 147.786 148.347 149.159 149.749 150.57 151.207 
152.095 152.834 153.81 154.581 155.587 156.324 157.41 158.149 159.334 
160.001 161.106 147.497 148.027 148.805 149.376 150.148 150.753 151.573 
152.28 153.226 154.019 155.051 155.848 156.968 157.792 159.026 159.83 
161 161.61 162.494 148.891 147.562 148.457 148.972 146.338 147.141 
147.631 148.567 149.069 145.28 145.931 146.288 147.185 147.639 148.586 
148.938 144.33 144.862 145.043 145.819 146.181 147.105 147.427 148.313 
148.499 143.312 143.852 143.903 144.563 144.81 145.653 145.954 146.805 
146.997 147.805 147.958 142.09 142.729 142.729 143.362 143.47 144.258 
144.501 145.354 145.566 146.358 146.532 147.324 147.552 140.743 141.437 
141.455 142.108 142.13 142.858 143 143.856 144.077 144.935 145.145 
145.95 146.18 146.991 147.262 139.451 140.106 140.15 140.806 140.826 
141.497 141.574 142.348 142.549 143.421 143.69 144.556 144.821 145.64 
145.9 146.711 146.978 138.305 138.876 138.903 139.522 139.55 140.198 
140.271 140.976 141.157 141.954 142.246 143.109 143.437 144.283 144.58 
145.378 145.653 146.442 146.72 137.705 136.919 137.624 138.252 136.21 
136.854 137.512 138.204 138.883 135.83 136.302 136.991 137.556 138.288 
138.923 139.663 135.764 136.101 136.813 137.23 137.999 138.492 139.301 
139.836 140.625 135.898 136.129 136.837 137.183 137.973 138.372 139.194 
139.629 140.46 140.921 141.744 136.278 136.374 137.071 137.303 138.101 
138.426 139.247 139.617 140.446 140.854 141.7 142.13 142.96 136.807 
136.853 137.544 137.666 138.443 138.647 139.457 139.732 140.566 140.91 
141.773 142.156 143.003 143.378 144.152 137.285 137.362 138.015 138.151 
138.874 139.045 139.799 140.008 140.81 141.092 141.958 142.295 143.156 
143.481 144.262 144.558 145.262 137.724 137.789 138.385 138.534 139.198 
139.402 140.1 140.326 141.068 141.342 142.161 142.495 143.343 143.667 
144.454 144.724 145.435 145.677 146.346 138.188 139.238 138.717 138.848 
140.578 139.908 139.99 139.452 139.652 142.081 141.372 141.446 140.735 
140.866 140.321 140.566 143.591 142.92 143.077 142.312 142.421 141.686 
141.873 141.297 141.574 145.203 144.49 144.727 143.985 144.158 143.358 
143.509 142.759 142.997 142.387 142.7 146.948 146.209 146.454 145.684 
145.9 145.116 145.281 144.474 144.646 143.919 144.187 143.578 143.887 
148.563 147.942 148.213 147.463 147.673 146.88 147.053 146.239 146.375 
145.59 145.778 145.102 145.362 144.756 144.998 150.012 149.471 149.806 
149.168 149.411 148.666 148.844 148.025 148.141 147.304 147.425 146.683 
146.882 146.237 146.449 145.817 145.984 151.595 150.957 151.305 150.694 
150.973 150.327 150.544 149.806 149.928 149.082 149.134 148.314 148.424 
147.735 147.911 147.272 147.424 146.768 146.888 147.602 148.165 148.223 
148.897 148.68 148.781 149.481 149.539 150.22 149.247 149.324 150.096 
150.15 150.91 150.922 151.671 150.039 150.04 150.929 150.906 151.808 
151.757 152.652 152.554 153.403 150.876 150.934 151.906 151.899 152.91 
152.841 153.866 153.727 154.696 154.47 155.326 151.467 151.677 152.67 
152.84 153.913 153.99 155.103 155.047 156.133 155.92 156.905 156.536 
157.381 151.903 152.181 153.25 153.528 154.763 154.977 156.292 156.34 
157.61 157.457 158.617 158.276 159.282 158.754 159.576 152.349 152.669 
153.926 154.23 155.734 155.99 157.615 157.704 159.202 159.058 160.32 
160.03 161.084 160.675 161.509 160.935 161.557 152.787 153.195 154.631 
155.043 156.729 157.118 158.903 159.146 160.71 160.678 161.837 161.622 
162.486 162.238 162.91 162.59 163.065 162.606 162.932 134.085 133.21 
133.601 133.525 132.557 132.796 132.691 133.028 132.949 132.343 132.353 
132.245 132.344 132.238 132.505 132.562 132.591 132.387 132.316 132.164 
132.054 132.029 132.065 132.33 132.686 133.247 132.853 132.834 132.501 
132.436 132.141 132.115 132.063 132.331 132.689 133.287 134.223 133.683 
133.683 133.227 133.235 132.777 132.74 132.373 132.487 132.496 132.979 
133.412 134.119 135.319 134.74 134.712 134.194 134.219 133.716 133.722 
133.204 133.256 132.906 133.234 133.297 133.967 134.356 135.106 136.343 
135.813 135.762 135.24 135.226 134.724 134.737 134.239 134.311 133.846 
134.084 133.821 134.351 134.433 135.179 135.463 136.179 137.251 136.784 
136.753 136.262 136.239 135.726 135.718 135.232 135.315 134.892 135.109 
134.766 135.149 134.997 135.586 135.686 136.374 136.583 137.209 134.555 
134.033 134.579 135.127 133.454 134.043 134.656 135.195 135.757 133.059 
133.508 134.147 134.707 135.339 135.851 136.444 133.23 133.371 134.012 
134.339 135.02 135.461 136.132 136.604 137.292 133.886 133.831 134.448 
134.488 135.138 135.343 136.047 136.395 137.15 137.576 138.337 134.682 
134.574 135.112 135.041 135.564 135.621 136.248 136.469 137.199 137.532 
138.292 138.672 139.369 135.558 135.37 135.831 135.682 136.119 136.072 
136.631 136.75 137.442 137.67 138.385 138.674 139.346 139.661 140.257 
136.528 136.263 136.693 136.45 136.908 136.727 137.314 137.264 137.977 
138.036 138.757 138.879 139.547 139.725 140.339 140.556 141.12 137.498 
137.221 137.633 137.37 137.854 137.636 138.237 138.096 138.777 138.709 
139.392 139.382 140.03 140.074 140.688 140.774 141.346 141.475 142.014 
135.03 135.544 135.471 135.905 136.147 136.002 136.363 136.339 136.845 
136.877 136.673 137.045 136.88 137.37 137.358 138.006 137.757 137.501 
137.952 137.7 138.227 138.062 138.753 138.708 139.502 138.768 138.471 
138.934 138.671 139.222 139.03 139.728 139.616 140.418 140.35 141.163 
139.757 139.491 139.906 139.646 140.142 139.981 140.641 140.58 141.338 
141.289 142.051 141.993 142.728 140.619 140.411 140.836 140.597 141.068 
140.873 141.486 141.415 142.144 142.129 142.861 142.831 143.545 143.499 
144.19 141.448 141.246 141.722 141.52 142.046 141.832 142.435 142.284 
142.98 142.911 143.636 143.6 144.323 144.296 145.011 144.95 145.602 
142.307 142.097 142.591 142.419 142.987 142.815 143.416 143.249 143.879 
143.761 144.428 144.371 145.072 145.059 145.774 145.753 146.416 146.325 
146.877 148.631 147.84 147.882 147.248 147.103 147.103 146.458 146.561 
146.072 146.432 146.451 145.917 145.925 145.515 145.561 145.175 145.726 
145.867 145.495 145.527 145.166 145.148 144.77 144.752 144.325 144.872 
145.143 144.831 145.042 144.602 144.695 144.146 144.24 143.698 143.8 
143.265 144.036 144.265 143.902 144.196 143.654 143.849 143.11 143.314 
142.621 142.911 142.311 142.563 141.97 143.418 143.498 143.066 143.242 
142.688 142.807 142.075 142.183 141.491 141.724 141.155 141.452 140.891 
141.158 140.584 142.927 142.927 142.423 142.484 141.928 141.958 141.313 
141.312 140.696 140.767 140.237 140.392 139.866 140.069 139.532 139.78 
139.284 142.452 142.415 141.848 141.857 141.268 141.28 140.655 140.66 
140.045 140.082 139.498 139.582 139.002 139.132 138.584 138.782 138.315 
138.569 138.164 
POINT_DATA 1002
SCALARS Distance double
LOOKUP_TABLE default
138.612 137.69 137.706 138.74 137.683 139.829 138.807 137.648 140.086 
141.288 139.008 137.927 140.29 141.575 142.748 139.588 138.562 140.7 
141.855 143.031 144.226 140.187 139.168 141.247 142.327 143.452 144.692 
145.941 140.655 139.855 141.639 142.842 144.086 145.299 146.521 147.662 
141.515 140.939 142.317 143.523 144.898 146.073 147.073 148.09 149.107 
142.709 142.122 143.522 144.665 145.963 147.087 147.921 148.683 149.585 
150.547 143.704 143.038 144.672 145.879 147.068 148.124 149.073 149.877 
150.623 151.452 152.299 136.846 136.797 135.897 135.78 134.806 136.694 
134.621 133.703 135.669 136.65 133.5 132.853 134.566 135.705 136.963 
132.722 132.402 133.567 134.791 136.051 137.542 132.474 132.39 133.006 
134.136 135.37 136.623 138.225 132.827 132.854 133.099 133.993 135.19 
136.232 137.546 139.296 133.665 133.673 133.814 134.383 135.412 136.43 
137.449 138.959 140.686 134.648 134.56 134.831 135.158 135.832 136.784 
137.751 138.947 140.481 141.914 135.452 135.742 136.384 136.849 137.402 
136.062 137.997 138.695 137.253 136.431 139.452 140.308 138.598 137.754 
137.152 141.162 141.949 140.308 139.411 138.668 138.178 142.778 143.44 
142.05 141.261 140.463 139.819 139.339 144.258 144.869 143.587 142.917 
142.235 141.586 141.081 140.728 145.67 146.216 145.051 144.444 143.871 
143.321 142.819 142.407 142.115 146.935 147.38 146.435 145.939 145.451 
144.974 144.518 144.028 143.545 143.214 144.216 144.474 145.741 145.026 
146.164 147.73 145.649 146.785 148.175 149.808 146.131 147.297 148.587 
150.086 151.701 146.591 147.748 149.002 150.428 151.962 153.648 147.064 
148.273 149.545 150.97 152.442 153.991 155.719 147.464 148.688 150.006 
151.417 152.886 154.346 155.942 157.663 147.844 148.969 150.263 151.608 
153.033 154.506 156.026 157.709 159.405 148.239 149.263 150.479 151.744 
153.082 154.578 156.091 157.639 159.338 160.96 145.216 147.081 146.576 
149.206 148.52 147.87 151.33 150.541 149.655 148.939 153.448 152.821 
151.797 150.945 150.165 155.67 155.255 154.359 153.482 152.729 151.483 
157.829 157.632 156.905 155.993 155.314 154.29 152.478 159.734 159.784 
159.405 158.527 157.561 156.671 155.242 153.237 161.382 161.549 161.573 
161.202 160.172 158.914 157.648 155.974 153.992 162.716 162.985 164.136 
164.157 164.957 163.08 164.859 165.475 164.189 163.263 165.48 166.075 
164.69 164.309 162.872 165.99 166.291 164.866 164.309 163.677 161.539 
165.775 165.682 164.912 164.008 163.623 162.367 159.977 164.994 164.804 
164.673 164.003 163.589 162.816 160.85 158.321 164.259 164.083 164.197 
163.867 163.511 162.865 161.226 158.771 156.244 163.47 163.232 163.484 
163.215 162.788 162.113 160.723 158.585 156.252 154.126 161.333 163.071 
161.201 162.622 160.649 164.335 161.84 160.329 163.601 164.888 161.637 
160.335 162.806 163.951 165.173 161.41 159.848 162.565 163.22 164.163 
165.548 160.282 158.838 161.77 162.765 163.496 164.566 165.539 159.084 
157.988 160.351 161.631 162.777 163.867 164.715 164.994 158.334 157.261 
159.373 160.391 161.489 162.761 163.871 164.359 164.312 157.454 156.321 
158.584 159.555 160.341 161.244 162.388 163.298 163.608 163.502 148.312 
149.328 149.301 150.545 150.348 150.538 151.807 151.408 151.894 151.829 
153.037 152.405 153.186 153.169 153.146 154.203 153.298 154.486 154.474 
154.654 154.732 155.209 154.151 155.8 155.882 156.132 156.49 156.423 
156.007 155.005 156.832 157.264 157.521 157.872 158.082 157.94 156.677 
155.76 157.489 158.266 158.836 159.044 159.218 159.488 159.562 147.038 
147.937 146.489 147.333 145.786 148.833 146.576 145.092 148.148 149.737 
145.869 144.511 147.388 148.997 150.639 145.338 144.038 146.76 148.379 
149.93 151.495 144.891 143.593 146.253 147.873 149.527 150.892 152.367 
144.4 143.137 145.719 147.223 148.994 150.593 151.877 153.336 143.916 
142.753 145.183 146.523 148.11 149.925 151.517 152.829 154.253 143.537 