# vtk DataFile Version 4.0
vtk output
ASCII
DATASET POLYDATA
POINTS 1002 float
-84.0605 -87.0405 75.3054 -84.0524 -86.5048 74.1561 -83.6733 -86.3258 74.8526 
-83.5796 -86.9819 75.9998 -83.0698 -86.2758 75.5911 -83.9766 -87.7495 76.5568 
-82.8492 -87.0405 76.6667 -82.2902 -86.3204 76.2537 -83.3606 -87.7541 77.2279 
-83.7894 -88.533 77.8783 -82.1205 -87.0759 77.3751 -81.6211 -86.2778 76.9833 
-82.6564 -87.7801 77.9578 -83.121 -88.602 78.6049 -83.5836 -89.4474 79.2418 
-81.6143 -86.9641 78.348 -81.1739 -86.0541 78.0833 -82.1299 -87.771 78.8633 
-82.5634 -88.7044 79.4818 -82.9876 -89.7384 80.0912 -83.4293 -90.6514 80.7114 
-81.223 -86.8279 79.5817 -80.8419 -85.8823 79.3534 -81.6692 -87.8464 79.9162 
-82.0856 -88.9023 80.4066 -82.5115 -90.0738 80.974 -82.9382 -91.1453 81.6186 
-83.2727 -92.0675 82.2693 -80.8667 -86.9127 80.7348 -80.5057 -86.0765 80.4131 
-81.2354 -88.0425 80.9917 -81.5438 -89.2397 81.3271 -81.9485 -90.4257 81.8003 
-82.4396 -91.5928 82.4285 -82.7954 -92.6657 83.1257 -83.0246 -93.6476 83.6962 
-80.4378 -87.3257 81.7378 -80.027 -86.6374 81.4122 -80.9377 -88.2672 82.0198 
-81.2654 -89.5039 82.3517 -81.5157 -90.7801 82.7997 -81.905 -92.0173 83.3444 
-82.257 -93.2733 83.9625 -82.4913 -94.4441 84.545 -82.7363 -95.4076 84.968 
-79.9014 -87.9186 82.7271 -79.5188 -87.2572 82.493 -80.5688 -88.5811 82.9899 
-81.1645 -89.6767 83.381 -81.4535 -91.1291 83.9441 -81.6555 -92.5547 84.5173 
-81.855 -93.9268 85.0033 -81.9996 -95.2556 85.4787 -82.2252 -96.3351 85.9331 
-82.5464 -97.1103 86.2713 -79.5889 -88.4084 83.5957 -79.3288 -87.6609 83.4316 
-80.1908 -88.9962 83.8243 -80.8991 -89.981 84.2358 -81.3401 -91.5677 84.9027 
-81.5394 -93.2341 85.6341 -81.6873 -94.6529 86.1604 -81.7684 -95.9778 86.5275 
-81.8809 -97.1595 86.9249 -82.1558 -98.0248 87.3281 -82.4767 -98.6429 87.5998 
-83.7875 -85.9349 73.4502 -83.3229 -85.6842 74.2407 -83.4263 -85.3597 72.7523 
-82.8927 -85.0234 73.6261 -82.9617 -84.7246 72.0989 -82.6827 -85.513 75.1037 
-82.4545 -84.3221 73.0708 -82.4635 -83.9533 71.5452 -82.3579 -84.6722 74.6468 
-81.9651 -85.406 75.8642 -82.0729 -83.4902 72.7301 -82.0729 -83.0176 71.234 
-82.0853 -83.8427 74.3326 -81.7733 -84.3825 75.5929 -81.3424 -85.2733 76.7344 
-81.7976 -82.4759 72.6683 -81.9065 -82.0551 71.3151 -81.7329 -82.9336 74.2444 
-81.4039 -83.4521 75.4523 -81.0149 -84.2888 76.5605 -80.8341 -85.1434 77.9273 
-81.6934 -81.4683 72.8002 -82.0081 -81.2204 71.7424 -81.4198 -81.8882 74.2519 
-80.8087 -82.4688 75.3767 -80.292 -83.3997 76.3144 -80.2831 -84.4118 77.6026 
-80.4589 -85.1928 79.0835 -81.809 -80.6135 73.1209 -82.3746 -80.4783 72.3595 
-81.373 -80.9866 74.3219 -80.5787 -81.4989 75.3755 -79.6809 -82.363 76.149 
-79.5184 -83.556 77.2116 -79.9223 -84.5693 78.6565 -80.1208 -85.5049 80.1279 
-82.1607 -79.8429 73.7233 -82.9286 -79.8098 73.1053 -81.5719 -80.3071 74.6714 
-80.8856 -80.9043 75.6276 -79.9145 -81.529 76.3615 -79.286 -82.4894 77.2328 
-79.4312 -83.6159 78.512 -79.7319 -84.699 79.9812 -79.6761 -85.9638 81.3685 
-82.6842 -79.2344 74.5524 -83.5039 -79.3736 73.9412 -81.9375 -79.7068 75.3565 
-81.3305 -80.5424 76.2002 -80.6381 -81.2133 76.9361 -79.8763 -81.8208 77.7426 
-79.4845 -82.6754 78.8671 -79.495 -83.6766 80.215 -79.4778 -84.9009 81.5367 
-79.3343 -86.3674 82.6404 -83.5196 -79.0648 75.2283 -82.6626 -79.1559 76.0059 
-83.4865 -79.3116 76.5787 -82.6324 -79.6832 77.4227 -83.4646 -80.0807 77.8403 
-81.8814 -79.986 76.8335 -82.6188 -80.519 78.7977 -83.5012 -80.8786 79.3034 
-81.8464 -80.5851 78.2721 -81.2949 -80.9679 77.6148 -82.6728 -81.1944 80.4543 
-83.6056 -81.4478 81.0828 -81.8241 -81.1283 79.8062 -81.2837 -81.3982 79.1455 
-80.7041 -81.6205 78.445 -82.8731 -81.8311 82.2039 -83.7809 -82.1514 82.6699 
-81.9412 -81.6329 81.5395 -81.2964 -81.8086 80.7994 -80.7677 -82.1309 80.1582 
-80.0731 -82.2833 79.535 -83.1213 -82.8033 83.6535 -83.9538 -83.1595 83.9629 
-82.2224 -82.4868 83.1747 -81.5179 -82.4954 82.4732 -80.9034 -82.8472 81.8055 
-80.2058 -83.011 81.3578 -79.6483 -83.119 80.8496 -83.2476 -83.9174 85.0125 
-84.0432 -84.1497 85.304 -82.4212 -83.6458 84.654 -81.8139 -83.5139 84.0914 
-81.2706 -83.7221 83.3663 -80.5166 -83.8926 82.8582 -79.7919 -83.8493 82.5677 
-79.4514 -84.1478 82.1231 -83.3215 -84.8688 86.3719 -84.0872 -85.0073 86.5727 
-82.5191 -84.7298 86.0986 -81.9627 -84.6244 85.6625 -81.596 -84.6974 84.9641 
-81.0415 -84.812 84.2532 -80.2868 -84.7563 83.8305 -79.6774 -84.9047 83.5475 
-79.3692 -85.5694 83.1397 -83.4629 -85.7736 87.4704 -84.1502 -85.9119 87.5122 
-82.7068 -85.7044 87.3416 -82.1194 -85.7085 87.0442 -81.7654 -85.8153 86.4729 
-81.4126 -85.9315 85.7408 -80.9034 -85.8865 85.0918 -80.343 -85.8912 84.6118 
-79.8328 -86.3359 84.2226 -79.4497 -87.0819 83.8347 -79.6956 -88.4338 84.2353 
-80.0666 -87.9453 84.6373 -80.4484 -89.2759 85.1329 -80.5379 -87.4351 85.1889 
-80.8107 -89.0424 85.7938 -81.028 -90.7668 86.6873 -80.9063 -87.2821 85.8932 
-81.0241 -88.9643 86.7315 -81.0821 -90.8636 87.6846 -81.0491 -93.1569 88.8369 
-81.2478 -87.3838 86.5877 -81.1636 -89.0817 87.612 -81.1075 -91.0238 88.6507 
-81.0037 -93.3797 89.6919 -80.9056 -95.8357 90.7083 -81.6307 -87.3293 87.2309 
-81.4721 -89.09 88.1588 -81.3655 -90.9997 89.2086 -81.2824 -93.3423 90.1676 
-81.1626 -95.9069 91.107 -81.0421 -98.2317 91.9016 -82.0169 -87.0912 87.8451 
-81.9094 -88.8582 88.6224 -81.7778 -90.7533 89.5332 -81.7005 -92.9879 90.4579 
-81.6173 -95.602 91.3201 -81.4777 -98.0969 92.1279 -81.3024 -100.573 92.6743 
-82.4969 -86.8997 88.2389 -82.3624 -88.5784 89.0614 -82.1887 -90.5137 89.8961 
-82.0222 -92.6616 90.8102 -81.8734 -95.1547 91.7173 -81.7343 -97.6953 92.4463 
-81.6089 -100.273 92.8953 -81.4226 -103.204 93.1091 -83.1519 -86.8464 88.3408 
-82.8935 -88.3794 89.2175 -82.6393 -90.3076 90.0608 -82.4282 -92.47 90.9321 
-82.2065 -94.8217 91.956 -81.9266 -97.2177 92.8615 -81.7334 -99.7193 93.2608 
-81.6093 -102.684 93.2898 -81.3677 -105.905 93.2787 -83.8598 -86.9124 88.3078 
-83.5469 -88.2624 89.1638 -83.2102 -90.0214 89.9908 -82.9766 -92.1502 90.7271 
-82.8276 -94.4841 91.6612 -82.5166 -96.7639 92.8109 -82.1046 -99.044 93.5475 
-81.8301 -101.809 93.6335 -81.6026 -105.085 93.4974 -81.2301 -108.185 93.4168 
-80.0441 -89.2178 84.4611 -80.734 -90.4972 85.6504 -80.597 -90.2363 84.895 
-81.0965 -92.7319 87.6032 -80.9558 -92.3764 86.4719 -81.0335 -91.9769 85.6298 
-80.9966 -95.5021 89.8183 -81.0411 -95.0992 88.5905 -80.9968 -94.63 87.456 
-81.2401 -93.9771 86.5455 -80.8799 -98.1843 91.3958 -81.0019 -97.7884 90.451 
-81.0485 -97.1562 89.3972 -81.1518 -96.3948 88.3774 -81.4659 -95.5344 87.3051 
-80.9783 -100.957 92.3317 -80.9683 -100.863 91.5816 -81.1836 -100.101 90.7968 
-81.3451 -98.9215 90.0753 -81.5294 -97.7935 89.0363 -81.6879 -96.8506 87.75 
-81.1199 -104.046 92.9353 -80.9301 -104.488 92.3566 -81.0607 -104.141 91.6154 
-81.3399 -102.831 91.1507 -81.592 -101.025 90.5275 -81.7579 -99.4031 89.3769 
-81.8015 -98.1766 88.0837 -81.0863 -107.083 93.2181 -80.8258 -107.84 92.9205 
-80.7477 -108.002 92.2363 -80.8786 -107.31 91.6298 -81.1712 -105.606 91.2602 
-81.554 -103.238 90.615 -81.8403 -100.969 89.5932 -81.9877 -99.2677 88.4627 
-80.8471 -109.555 93.2823 -80.5204 -110.407 93.11 -80.3473 -110.71 92.6167 
-80.3305 -110.539 91.8773 -80.5029 -109.701 91.3581 -80.9609 -107.771 91.0652 
-81.5608 -104.917 90.5961 -82.0128 -102.099 89.8091 -82.2719 -100.032 88.7671 
-80.7701 -110.923 93.4196 -80.1924 -112.159 93.0593 -80.2671 -113.161 93.0479 
-79.5272 -114.411 92.3253 -80.0585 -115.242 92.1512 -79.8155 -112.757 92.6402 
-79.2982 -116.767 91.2757 -80.311 -117.224 91.2557 -79.1435 -115.023 91.6576 
-79.7324 -112.814 91.9648 -79.7283 -118.466 90.4589 -80.7976 -118.1 90.7947 
-79.0126 -117.238 90.5185 -79.2758 -114.919 90.9445 -79.901 -112.518 91.247 
-80.5063 -118.438 89.7883 -81.2812 -117.556 90.3881 -79.6057 -118.137 89.4839 
-79.3985 -116.591 89.9059 -79.8458 -114.316 90.5703 -80.3747 -111.495 90.9661 
-81.2351 -117.462 89.1749 -81.8264 -116.465 89.9816 -80.4759 -117.635 88.6112 
-79.994 -116.994 88.99 -80.1893 -115.421 90.047 -80.6618 -112.744 90.7772 
-81.127 -109.004 90.918 -81.9312 -116.127 89.215 -82.5423 -114.931 90.0211 
-81.2621 -116.636 88.5272 -80.6895 -116.452 88.6241 -80.6099 -115.406 89.6348 
-80.9927 -113.075 90.604 -81.4652 -109.466 90.8625 -81.842 -105.45 90.5422 
-82.7408 -113.837 89.803 -83.349 -112.601 90.3141 -82.0787 -114.641 89.3087 
-81.4864 -114.829 89.1913 -81.1903 -114.122 89.671 -81.3022 -112.191 90.3101 
-81.6633 -109.057 90.5341 -82.0589 -105.414 90.2868 -82.2943 -102.256 89.6726 
-83.5796 -110.841 90.1056 -84.0934 -109.912 90.3194 -82.9757 -111.536 89.9263 
-82.4295 -111.844 89.904 -82.0835 -111.448 90.0671 -81.9635 -110.061 90.205 
-82.0127 -107.736 90.0914 -82.2024 -104.903 89.7485 -82.4473 -102.207 89.2252 
-82.56 -100.125 88.4857 -81.4686 -108.2 93.7216 -81.1643 -110.853 93.7931 
-81.8709 -107.771 93.9931 -81.7409 -110.279 94.0601 -82.3167 -106.997 93.8531 
-80.9555 -112.97 93.3742 -82.2818 -109.263 93.8825 -82.8454 -105.853 93.4911 
-81.7075 -112.241 93.6219 -81.0312 -114.86 92.3819 -82.9425 -107.713 93.6304 
-83.5765 -104.293 93.361 -82.2969 -110.976 93.6464 -81.7577 -113.742 92.6805 
-81.2568 -116.302 91.5298 -83.7839 -105.739 93.5139 -84.2405 -102.494 93.088 
-83.1004 -109.159 93.69 -82.3889 -112.03 93.0493 -81.8346 -114.456 91.9187 
-81.476 -116.494 91.1668 -84.401 -103.54 92.9595 -84.6989 -100.625 92.2663 
-83.9817 -106.937 93.4647 -83.3725 -109.994 93.3556 -82.673 -112.285 92.4926 
-82.1258 -114.165 91.6035 -81.873 -115.691 90.8807 -84.8998 -101.215 91.9893 
-85.3216 -98.8259 91.3623 -84.5462 -104.244 92.6535 -84.1866 -107.475 93.0656 
-83.7086 -110.062 92.8513 -83.1649 -111.821 92.1708 -82.7453 -113.286 91.4266 
-82.5642 -114.48 90.6795 -85.6944 -99.1469 91.1918 -86.1936 -97.3078 90.7437 
-85.2234 -101.426 91.7702 -84.7929 -104.272 92.3181 -84.377 -107.179 92.5472 
-84.0101 -109.324 92.3529 -83.7021 -110.74 91.875 -83.4693 -111.905 91.2781 
-83.3657 -112.648 90.7163 -86.6101 -97.6173 90.619 -86.9841 -96.0878 90.2291 
[...]
CELL_DATA 2000
SCALARS Distance double
LOOKUP_TABLE default
140.91 140.94 141.239 141.89 140.906 141.246 141.896 142.24 142.932 
140.87 141.205 141.88 142.231 142.951 143.308 144.06 140.991 141.251 
141.994 142.289 143.088 143.4 144.251 144.553 145.414 141.323 141.503 
142.298 142.53 143.392 143.656 144.585 144.869 145.831 146.074 147.006 
141.799 141.93 142.746 142.934 143.809 144.035 144.963 145.249 146.241 
146.54 147.523 147.746 148.663 142.376 142.461 143.286 143.44 144.343 
144.524 145.473 145.686 146.699 146.967 148.013 148.271 149.264 149.432 
150.334 143.033 143.073 143.866 143.994 144.916 145.112 146.153 146.333 
147.438 147.591 148.715 148.87 149.958 150.095 151.096 151.166 152.056 
143.704 143.726 144.456 144.555 145.444 145.677 146.789 147.07 148.294 
148.481 149.669 149.751 150.861 150.915 151.956 152.001 152.958 152.943 
153.787 140.306 139.397 140.01 140.314 138.425 139.065 139.363 139.999 
140.284 137.411 138.077 138.394 139.04 139.333 139.942 140.229 136.433 
137.094 137.487 138.121 138.448 139.015 139.314 139.92 140.302 135.628 
136.199 136.645 137.272 137.619 138.161 138.444 139.031 139.428 140.094 
140.603 135.144 135.517 135.907 136.466 136.756 137.282 137.47 138.09 
138.46 139.211 139.752 140.478 141.067 135.02 135.157 135.445 135.823 
136.074 136.448 136.549 137.044 137.35 138.145 138.742 139.598 140.258 
141 141.647 135.197 135.132 135.353 135.528 135.857 136.025 136.219 
136.369 136.659 137.145 137.787 138.59 139.377 140.19 140.934 141.649 
142.338 135.63 135.41 135.598 135.606 136.03 136.105 136.516 136.463 
136.839 136.886 137.499 137.914 138.752 139.412 140.25 140.96 141.727 
142.39 143.062 135.989 136.702 136.154 135.983 137.725 137.047 136.903 
136.387 136.427 138.95 138.197 138.054 137.438 137.459 136.963 136.977 
140.303 139.499 139.313 138.621 138.596 138.049 138.06 137.484 137.399 
141.736 140.913 140.712 139.916 139.833 139.204 139.261 138.664 138.677 
137.989 138.042 143.196 142.394 142.255 141.396 141.315 140.549 140.636 
139.977 140.11 139.408 139.52 138.843 139.137 144.639 143.885 143.819 
142.991 142.964 142.146 142.241 141.497 141.653 140.926 141.059 140.357 
140.586 140.044 140.496 145.988 145.315 145.293 144.551 144.572 143.811 
143.92 143.167 143.306 142.537 142.645 141.895 142.071 141.465 141.837 
141.411 141.93 147.195 146.615 146.64 145.992 146.061 145.383 145.526 
144.823 144.991 144.226 144.355 143.542 143.694 142.973 143.277 142.748 
143.195 142.804 143.272 144.061 144.088 144.486 145.361 144.257 144.62 
145.645 145.987 147.127 144.709 144.967 146.116 146.43 147.702 148.057 
149.523 145.354 145.556 146.729 147.031 148.354 148.71 150.176 150.634 
152.208 145.956 146.191 147.299 147.635 148.891 149.308 150.688 151.2 
152.685 153.235 154.674 146.445 146.708 147.755 148.111 149.27 149.713 
150.987 151.545 152.937 153.566 154.961 155.519 156.821 146.899 147.14 
148.144 148.496 149.606 150.025 151.235 151.754 153.089 153.715 155.074 
155.692 156.967 157.539 158.795 147.378 147.568 148.493 148.828 149.883 
150.31 151.464 151.971 153.246 153.845 155.16 155.763 156.983 157.571 
158.759 159.413 160.647 147.86 148.017 148.849 149.135 150.092 150.505 
151.564 152.096 153.281 153.924 155.18 155.816 156.978 157.543 158.634 
159.264 160.425 161.155 162.304 144.309 145.58 144.952 145.077 147.38 
146.459 146.635 145.881 146.149 149.89 148.675 148.949 147.829 148.181 
147.254 147.663 152.667 151.459 151.809 150.513 150.858 149.645 150.04 
148.984 149.335 155.154 154.174 154.546 153.389 153.661 152.426 152.675 
151.501 151.743 150.634 150.781 157.375 156.552 157.031 156.004 156.344 
155.157 155.383 154.135 154.283 153.065 153.136 151.961 151.96 159.52 
158.817 159.528 158.562 159.12 157.925 158.327 156.968 157.183 155.745 
155.785 154.393 154.34 153.082 153.025 161.492 160.984 161.852 161.099 
161.765 160.75 161.22 159.987 160.257 158.809 158.831 157.245 157.098 
155.586 155.424 154.122 154.01 163.114 162.811 163.629 163.179 163.747 
163.087 163.409 162.557 162.729 161.66 161.67 160.288 160.079 158.477 
158.158 156.62 156.34 155.032 154.824 164.147 165.462 164.793 164.58 
166.356 165.846 165.606 165.009 164.626 167.278 166.702 166.416 165.831 
165.433 164.827 164.269 168.127 167.667 167.333 166.658 166.168 165.529 
165.003 164.351 163.662 168.2 168.178 167.765 167.379 166.791 166.254 
165.72 165.108 164.508 163.716 162.791 167.622 167.834 167.409 167.362 
166.802 166.617 166.179 165.819 165.295 164.596 163.668 162.656 161.327 
166.967 167.188 166.879 166.888 166.468 166.43 166.115 166.049 165.596 
165.202 164.207 163.372 161.901 160.867 159.304 166.108 166.482 166.212 
166.387 166.011 166.083 165.694 165.764 165.188 165.085 163.982 163.498 
161.912 161.15 159.495 158.681 157.258 164.81 165.371 164.999 165.465 
164.98 165.35 164.761 165.033 164.213 164.297 163.074 162.86 161.291 
160.825 159.221 158.651 157.264 156.683 155.557 164.032 164.275 164.682 
165.464 164.196 164.841 165.727 165.943 166.45 163.68 164.57 165.581 
166.093 166.693 166.835 167.316 162.94 163.898 164.955 165.749 166.436 
166.868 167.332 167.637 168.06 162.08 163.079 164.113 165.032 165.783 
166.393 166.78 167.285 167.593 168.061 168.15 160.824 161.985 162.96 
164.088 164.914 165.689 166.088 166.567 166.74 167.259 167.359 167.782 
167.62 159.33 160.46 161.27 162.608 163.435 164.613 165.134 165.834 
165.985 166.411 166.453 166.881 166.857 167.173 166.954 158.179 158.994 
159.596 160.741 161.431 162.786 163.367 164.538 164.779 165.526 165.494 
165.995 165.901 166.334 166.164 166.468 166.106 157.444 158.02 158.502 
159.261 159.812 160.834 161.372 162.549 162.884 163.943 163.968 164.772 
164.6 165.228 164.978 165.481 165.108 165.43 164.869 148.343 149.391 
149.024 149.373 150.506 150.168 150.604 150.176 150.609 151.596 151.329 
151.853 151.466 151.941 151.513 152.055 152.592 152.384 152.985 152.722 
153.317 152.923 153.561 153.12 153.816 153.566 153.338 153.991 153.846 
154.671 154.404 155.244 154.793 155.598 155.061 155.783 154.581 154.322 
154.994 154.89 155.906 155.832 156.901 156.579 157.445 156.915 157.601 
157.006 157.566 155.537 155.335 156.006 155.925 156.958 157.044 158.2 
158.132 159.012 158.647 159.269 158.753 159.291 158.698 159.202 156.321 
156.23 156.899 156.879 157.842 158.003 159.129 159.241 160.156 159.995 
160.675 160.315 160.965 160.457 161.101 160.438 161.031 156.94 156.935 
157.597 157.652 158.569 158.779 159.903 160.092 161.107 161.059 161.893 
161.67 162.5 162.156 162.962 162.415 163.083 162.362 162.905 147.959 
147.615 148.155 148.906 147.204 147.756 148.474 149.085 149.907 146.872 
147.38 148.091 148.633 149.424 150.088 150.953 146.586 147.109 147.859 
148.334 149.103 149.651 150.531 151.169 152.02 146.202 146.774 147.536 
148.1 148.868 149.397 150.243 150.829 151.742 152.296 153.095 145.873 
146.354 147.057 147.667 148.429 149.066 149.858 150.506 151.368 152.018 
152.871 153.395 154.124 145.777 146.114 146.763 147.224 147.964 148.559 
149.346 150.008 150.795 151.507 152.307 153.02 153.78 154.359 155.02 
145.748 146.07 146.703 147.057 147.763 148.209 148.989 149.532 150.311 
150.912 151.651 152.333 153.073 153.806 154.514 155.148 155.757 145.613 
145.985 146.601 146.997 147.665 148.077 148.794 149.261 150.019 150.526 
151.256 151.779 152.472 153.083 153.792 154.49 155.17 155.803 156.371 
145.682 146.151 146.166 146.713 146.751 146.705 147.289 147.281 147.838 
147.443 147.345 147.899 147.889 148.489 148.446 148.99 148.154 148.013 
148.514 148.498 149.116 149.117 149.75 149.665 150.228 148.932 148.699 
149.154 149.109 149.791 149.814 150.576 150.511 151.183 150.984 151.505 
149.782 149.489 149.893 149.79 150.551 150.596 151.51 151.466 152.234 
152.016 152.556 152.244 152.688 150.484 150.3 150.728 150.614 151.433 
151.472 152.468 152.459 153.24 153.058 153.56 153.275 153.685 153.409 
153.903 150.948 150.94 151.544 151.517 152.426 152.456 153.448 153.42 
154.136 153.965 154.405 154.181 154.592 154.379 154.887 154.686 155.255 
151.418 151.48 152.309 152.381 153.383 153.455 154.399 154.361 155 
154.804 155.221 154.994 155.461 155.283 155.863 155.679 156.255 156.031 
156.515 152.055 153.689 152.922 153.115 155.247 154.604 154.795 154.072 
154.268 156.431 155.968 156.133 155.602 155.732 155.121 155.18 157.665 
157.155 157.379 156.819 156.933 156.376 156.368 155.782 155.641 159.065 
158.559 158.916 158.246 158.452 157.698 157.764 156.991 156.887 156.123 
155.9 160.285 159.931 160.323 159.815 160.054 159.36 159.471 158.629 
158.612 157.644 157.48 156.501 156.29 161.412 161.084 161.481 161.074 
161.296 160.784 160.848 160.229 160.181 159.406 159.226 158.27 157.996 
156.996 156.747 162.684 162.309 162.799 162.298 162.602 162.006 162.13 
161.483 161.447 160.763 160.561 159.799 159.453 158.608 158.229 157.369 
157.06 163.983 163.663 164.228 163.738 164.117 163.481 163.714 162.96 
163.041 162.175 162.042 161.113 160.776 159.879 159.45 158.647 158.247 
157.52 157.198 151.758 151.902 152.316 153.379 152.156 152.549 153.602 
154.018 154.97 152.285 152.746 153.699 154.162 155.023 155.415 156.154 
152.117 152.682 153.514 154.07 154.849 155.34 156.074 156.497 157.284 
151.701 152.332 153.11 153.727 154.501 155.067 155.854 156.371 157.217 
157.708 158.596 151.178 151.829 152.615 153.266 154.072 154.69 155.541 
156.14 157.049 157.61 158.513 159.008 159.832 150.688 151.303 152.1 
152.762 153.573 154.232 155.086 155.777 156.723 157.397 158.329 158.883 
159.717 160.17 160.95 150.303 150.851 151.626 152.26 153.056 153.708 
154.528 155.247 156.191 156.977 157.95 158.628 159.473 160.007 160.8 
161.29 162.126 149.999 150.49 151.213 151.802 152.571 153.192 153.978 
154.663 155.569 156.378 157.368 158.154 159.02 159.661 160.429 161.033 
161.872 162.475 163.353 150.952 150.019 150.568 150.96 149.26 149.678 
149.866 150.6 151.149 148.428 148.905 149.009 149.553 149.924 150.787 
151.333 147.367 148.016 148.166 148.682 148.885 149.584 150.003 150.889 
151.277 146.027 146.84 147.036 147.713 147.842 148.498 148.749 149.557 
149.884 150.718 150.927 144.607 145.414 145.624 146.432 146.593 147.324 
147.485 148.254 148.486 149.309 149.504 150.289 150.413 143.414 144.08 
144.315 145.052 145.278 146.011 146.167 146.91 147.066 147.873 148.052 
148.862 149.016 149.783 149.933 142.412 143.015 143.258 143.892 144.112 
144.761 144.889 145.562 145.649 146.41 146.568 147.404 147.626 148.43 
148.648 149.385 149.593 141.404 142.026 142.246 142.875 143.035 143.638 
143.694 144.297 144.319 144.998 145.12 145.93 146.202 147.063 147.382 
148.164 148.432 149.124 149.344 140.876 140.312 140.98 141.728 139.723 
140.401 141.142 141.801 142.479 139.221 139.834 140.539 141.169 141.81 
142.462 143.074 138.934 139.408 140.113 140.631 141.267 141.817 142.445 
143.051 143.692 138.996 139.265 139.987 140.36 141.07 141.459 142.145 
142.582 143.296 143.802 144.55 139.371 139.491 140.21 140.436 141.206 
141.466 142.207 142.497 143.25 143.614 144.433 144.863 145.706 139.802 
139.911 140.594 140.773 141.512 141.719 142.434 142.66 143.385 143.686 
144.503 144.887 145.764 146.153 146.968 140.18 140.294 140.92 141.111 
141.779 142.001 142.656 142.882 143.556 143.834 144.611 144.981 145.842 
146.242 147.055 147.393 148.075 140.615 140.672 141.264 141.398 142.027 
142.216 142.853 143.07 143.738 143.999 144.754 145.089 145.913 146.296 
147.088 147.447 148.126 148.415 148.994 141.093 142.097 141.629 141.744 
143.199 142.715 142.839 142.336 142.484 144.351 143.867 144.054 143.51 
143.637 143.114 143.292 145.662 145.093 145.33 144.776 144.956 144.36 
144.525 143.98 144.209 147.216 146.532 146.774 146.141 146.378 145.747 
145.954 145.327 145.563 144.99 145.274 148.867 148.16 148.403 147.7 
147.942 147.252 147.472 146.805 147.037 146.421 146.694 146.12 146.424 
150.508 149.811 150.059 149.357 149.588 148.875 149.071 148.358 148.549 
147.895 148.126 147.541 147.803 147.26 147.54 152.182 151.466 151.713 
151.003 151.24 150.527 150.727 149.984 150.144 149.423 149.605 148.962 
149.18 148.606 148.832 148.31 148.536 153.868 153.151 153.389 152.667 
152.914 152.196 152.429 151.672 151.835 151.049 151.183 150.459 150.628 
149.991 150.179 149.595 149.776 149.239 149.407 150.044 150.488 150.589 
151.267 150.948 151.076 151.811 151.902 152.617 151.441 151.572 152.357 
152.468 153.244 153.302 154.043 152.069 152.158 153.02 153.087 153.961 
154.007 154.884 154.861 155.703 152.813 152.914 153.892 153.909 154.879 
154.864 155.851 155.824 156.778 156.68 157.535 153.451 153.672 154.741 
154.86 155.899 155.902 156.912 156.875 157.842 157.771 158.615 158.478 
159.176 153.93 154.235 155.333 155.617 156.732 156.895 157.985 158 
159.032 158.911 159.806 159.581 160.316 160.048 160.66 154.41 154.705 
155.842 156.165 157.404 157.686 158.992 159.127 160.4 160.288 161.382 
161.019 161.891 161.41 162.133 161.649 162.257 154.922 155.226 156.441 
156.763 158.154 158.473 160.004 160.241 161.74 161.762 163.013 162.741 
163.671 163.18 163.901 163.332 163.944 163.352 163.845 135.758 135.296 
135.638 135.932 135.019 135.23 135.485 135.846 136.1 134.998 135.009 
135.184 135.449 135.678 135.968 136.156 135.384 135.126 135.225 135.272 
135.467 135.608 135.756 136.013 136.293 136.207 135.728 135.811 135.567 
135.727 135.582 135.637 135.67 135.879 136.243 136.715 137.244 136.701 
136.786 136.375 136.505 136.103 136.057 135.738 135.785 135.893 136.322 
136.779 137.357 138.271 137.756 137.802 137.376 137.457 136.999 136.929 
136.391 136.336 136.05 136.379 136.544 137.172 137.529 138.13 139.227 
138.741 138.74 138.316 138.347 137.914 137.878 137.352 137.341 136.863 
137.143 136.946 137.559 137.621 138.319 138.471 139.095 140.13 139.663 
139.656 139.22 139.251 138.803 138.814 138.322 138.385 137.929 138.209 
137.9 138.438 138.294 138.965 138.928 139.596 139.61 140.222 136.19 
136.343 136.48 136.957 136.46 136.617 137.053 137.256 137.766 136.512 
136.684 137.133 137.345 137.878 138.097 138.677 136.716 136.793 137.272 
137.44 138.016 138.242 138.871 139.087 139.739 137.208 137.16 137.625 
137.66 138.198 138.385 139.013 139.272 139.929 140.18 140.845 137.834 
137.748 138.194 138.118 138.589 138.633 139.223 139.415 140.087 140.342 
141.023 141.276 141.936 138.509 138.383 138.846 138.742 139.229 139.153 
139.728 139.754 140.437 140.577 141.302 141.492 142.183 142.373 143.003 
139.358 139.113 139.581 139.439 139.972 139.867 140.427 140.365 140.979 
141.025 141.71 141.847 142.524 142.669 143.272 143.415 143.96 140.394 
140.046 140.468 140.248 140.768 140.635 141.157 141.056 141.56 141.545 
142.117 142.235 142.859 143.011 143.569 143.685 144.171 144.304 144.778 
136.321 137.125 136.779 136.995 137.971 137.628 137.865 137.578 137.963 
138.875 138.498 138.759 138.468 138.861 138.642 139.158 139.949 139.494 
139.758 139.399 139.807 139.56 140.09 139.907 140.503 141.11 140.655 
140.949 140.507 140.909 140.569 141.089 140.857 141.454 141.283 141.906 
142.216 141.821 142.152 141.735 142.121 141.738 142.205 141.897 142.438 
142.226 142.837 142.687 143.32 143.256 142.907 143.24 142.88 143.24 
142.898 143.317 143.008 143.486 143.224 143.785 143.61 144.254 144.113 
144.745 144.206 143.914 144.239 143.914 144.244 143.93 144.322 144.051 
144.523 144.266 144.795 144.576 145.183 145.036 145.673 145.522 146.09 
145.041 144.812 145.147 144.866 145.173 144.875 145.237 144.998 145.481 
145.275 145.809 145.585 146.126 145.943 146.513 146.39 146.94 146.79 
147.27 150.8 150.537 150.45 150.053 150.242 150.285 149.929 149.784 
149.332 149.546 149.821 149.406 149.471 148.851 148.857 148.308 148.61 
148.931 148.447 148.647 147.909 148.048 147.349 147.603 147.074 147.759 
147.982 147.516 147.66 146.984 147.033 146.332 146.508 145.964 146.275 
145.755 146.974 147.149 146.688 146.833 146.249 146.258 145.593 145.618 
145.051 145.219 144.711 144.935 144.399 146.213 146.337 145.83 146.006 
145.423 145.523 144.824 144.886 144.232 144.371 143.816 143.987 143.457 
143.645 143.188 145.598 145.615 145.089 145.18 144.612 144.68 143.987 
144.032 143.346 143.484 142.92 143.113 142.593 142.767 142.278 142.512 
142.136 145.161 145.092 144.577 144.557 144.035 143.999 143.382 143.301 
142.659 142.658 142.13 142.254 141.785 141.931 141.437 141.611 141.161 
141.453 141.107 
POINT_DATA 1002
SCALARS Distance double
LOOKUP_TABLE default
141.524 140.587 140.62 141.574 140.627 142.572 141.541 140.554 142.576 
143.651 141.524 140.536 142.579 143.701 144.83 141.696 140.745 142.766 
143.923 145.132 146.284 142.072 141.155 143.13 144.282 145.555 146.81 
147.926 142.567 141.677 143.604 144.696 145.914 147.257 148.506 149.559 
143.143 142.312 144.153 145.277 146.451 147.735 149.053 150.236 151.209 
143.768 143.021 144.689 145.908 147.276 148.59 149.825 151.001 152.056 
152.907 144.392 143.701 145.21 146.435 148.028 149.581 150.841 151.922 
152.95 153.871 154.585 139.713 139.699 138.782 138.718 137.777 139.675 
137.738 136.721 138.73 139.598 136.827 135.756 137.899 138.72 139.629 
136.018 135.116 137.096 137.867 138.748 139.912 135.422 134.901 136.289 
136.887 137.659 138.975 140.371 135.154 135.009 135.764 136.174 136.592 
137.804 139.451 140.954 135.237 135.35 135.672 136.141 136.348 137.042 
138.517 140.167 141.685 135.649 135.896 135.915 136.508 136.904 137.271 
138.187 139.555 141.032 142.467 136.427 136.389 137.292 137.463 138.422 
136.862 138.708 139.723 137.995 137.524 140.069 141.12 139.165 138.631 
138.028 141.555 142.536 140.517 139.821 139.336 138.671 143.096 143.961 
142.118 141.312 140.779 140.22 139.675 144.601 145.36 143.763 143.012 
142.403 141.781 141.179 140.907 145.988 146.621 145.293 144.662 144.088 
143.428 142.726 142.309 142.296 147.238 147.73 146.697 146.195 145.723 
145.164 144.474 143.885 143.64 143.651 144.834 144.975 146.275 145.248 
146.714 148.395 145.771 147.331 149.064 151.116 146.427 147.994 149.741 
151.729 153.785 146.984 148.489 150.194 152.134 154.197 156.046 147.42 
148.863 150.46 152.312 154.373 156.319 158.103 147.807 149.206 150.754 
152.494 154.467 156.389 158.199 160.09 148.201 149.473 150.973 152.668 
154.58 156.438 158.129 159.957 161.903 148.615 149.734 151.073 152.65 
154.53 156.436 158.067 159.713 161.615 163.405 145.631 147.472 146.803 
150.163 149.216 148.528 153.106 152.167 151.197 150.4 155.637 154.902 
153.92 152.91 151.924 157.982 157.482 156.656 155.577 154.365 153.121 
160.379 160.237 159.654 158.684 157.299 155.696 154.207 162.497 162.696 
162.377 161.643 160.462 158.751 156.86 155.211 164.046 164.356 164.198 
163.661 162.894 161.672 159.834 157.796 156.019 164.997 165.345 166.052 
166.149 166.875 165.334 167.09 167.877 166.019 164.958 168.038 168.47 
166.874 165.62 164.441 168.03 168.105 167.229 166.275 165.273 163.822 
167.372 167.394 166.829 166.351 165.916 164.705 162.492 166.803 166.709 
166.466 166.112 165.887 164.997 162.937 160.294 165.942 165.682 165.9 
165.676 165.303 164.387 162.581 160.237 157.965 164.5 164.257 164.566 
164.489 164.138 163.221 161.633 159.676 157.761 156.07 163.706 165.353 
163.779 165.404 163.417 166.436 164.9 162.734 166.449 167.207 164.07 
162.029 165.908 166.962 167.839 163.151 161.071 165.13 166.323 167.066 
167.881 161.744 159.663 163.997 165.628 166.325 166.838 167.366 159.981 
158.354 162.094 164.226 165.56 166.08 166.45 166.766 158.655 157.533 
160.159 162.05 163.839 164.947 165.464 165.798 165.94 157.878 156.925 
158.978 160.306 161.772 163.054 163.913 164.431 164.716 164.68 148.687 
149.774 149.715 151.018 150.786 151.024 152.185 151.819 152.36 152.445 
153.15 152.811 153.625 153.972 154.272 154.06 153.833 154.773 155.626 
156.142 156.387 155.083 154.836 155.851 157.109 157.978 158.222 158.201 
156.094 155.69 156.851 158.181 159.316 159.749 159.846 159.836 156.912 
156.367 157.698 158.982 160.231 160.928 161.36 161.703 161.778 147.461 
148.318 147.068 147.884 146.662 149.223 147.597 146.36 148.795 150.256 
147.371 146.031 148.613 149.906 151.433 146.922 145.655 148.318 149.676 
151.149 152.647 146.489 145.478 147.764 149.207 150.695 152.262 153.709 
146.378 145.477 147.423 148.71 150.126 151.568 153.095 154.539 146.359 
145.411 147.373 148.496 149.764 151.047 152.34 153.788 155.219 146.187 
145.242 147.26 148.364 149.525 150.77 151.955 153.125 154.468 155.826 