# vtk DataFile Version 4.0
vtk output
ASCII
DATASET POLYDATA
POINTS 1002 float
-81.0055 -79.8401 69.4319 -81.3896 -79.1851 68.4598 -80.7083 -78.8736 68.9871 
-80.4069 -79.5972 70.0787 -79.9329 -78.6814 69.525 -80.6814 -80.579 70.6663 
-79.809 -79.4382 70.8708 -79.2511 -78.5067 70.2886 -80.1598 -80.4256 71.4654 
-80.4235 -81.465 72.1355 -79.1983 -79.3002 71.869 -78.7112 -78.2967 71.3381 
-79.5531 -80.36 72.3968 -79.8243 -81.4837 72.9543 -80.14 -82.5732 73.7012 
-78.5779 -79.2442 72.981 -78.2368 -78.2402 72.6316 -78.8945 -80.3604 73.4589 
-79.1486 -81.567 73.9824 -79.5163 -82.7562 74.6397 -79.8582 -83.7905 75.4791 
-78.0928 -79.4186 74.4022 -77.8453 -78.4815 74.3207 -78.4689 -80.4865 74.6926 
-78.678 -81.6964 75.2811 -78.9729 -82.9505 76.0161 -79.3858 -84.0944 76.7952 
-79.632 -85.1041 77.5384 -77.7313 -79.7982 76.2992 -77.5469 -78.8814 76.2497 
-78.2588 -80.804 76.3647 -78.5748 -81.9572 76.7888 -78.6556 -83.236 77.546 
-78.9187 -84.5209 78.3539 -79.2266 -85.6775 79.0199 -79.3541 -86.7789 79.5117 
-77.3936 -80.2461 78.0932 -77.3627 -79.2625 77.8696 -77.8364 -81.2861 78.2489 
-78.3054 -82.4115 78.5083 -78.412 -83.6867 78.9827 -78.4496 -85.1158 79.6351 
-78.676 -86.4775 80.3127 -78.8903 -87.6814 80.8377 -78.9754 -88.8288 81.1937 
-77.2781 -80.6838 79.3338 -77.4128 -79.6035 79.0514 -77.3455 -81.8283 79.7075 
-77.6171 -82.961 80.119 -77.8845 -84.1777 80.4534 -78.0312 -85.6767 80.8072 
-78.1768 -87.2645 81.3614 -78.382 -88.635 81.9972 -78.5655 -89.8337 82.4833 
-78.6752 -90.9378 82.7953 -77.52 -81.106 80.3225 -77.6914 -79.9732 80.0859 
-77.2847 -82.3314 80.7503 -77.1364 -83.4718 81.3177 -77.2923 -84.5662 81.7864 
-77.6655 -85.9913 82.1113 -77.9428 -87.763 82.5468 -78.0835 -89.3949 83.1798 
-78.2531 -90.7208 83.7844 -78.4556 -91.9072 84.178 -78.6048 -92.9543 84.3837 
-81.3504 -78.336 67.9137 -80.4969 -78.0007 68.4127 -81.2339 -77.4783 67.3534 
-80.2814 -77.076 67.8869 -81.0861 -76.5374 66.806 -79.4977 -77.794 68.8707 
-80.1728 -75.9876 67.4775 -80.9534 -75.3325 66.3923 -79.196 -76.7679 68.3593 
-78.7515 -77.5431 69.6321 -80.1832 -74.7026 67.2741 -80.9838 -74.0169 66.2639 
-79.1845 -75.5245 68.1107 -78.5001 -76.3707 69.2051 -78.3661 -77.2419 70.839 
-80.4352 -73.5736 67.3643 -81.3539 -73.0353 66.4697 -79.4115 -74.2214 68.1841 
-78.5305 -74.9638 69.1843 -78.2556 -75.9226 70.6229 -78.1378 -77.1741 72.4365 
-81.0056 -72.8158 67.7538 -81.9125 -72.3114 66.9469 -79.9515 -73.2663 68.5827 
-78.7755 -73.673 69.6151 -78.195 -74.3963 70.882 -78.1895 -75.7845 72.4374 
-77.9408 -77.4583 74.3589 -81.6181 -72.0568 68.3269 -82.3849 -71.4758 67.5824 
-80.7373 -72.6322 69.163 -79.4296 -72.9619 70.2829 -78.3038 -73.2854 71.5677 
-78.1053 -74.3194 72.8047 -78.1282 -76.1168 74.3733 -77.7379 -77.8864 76.2698 
-82.0545 -71.197 68.9481 -82.7401 -70.7493 68.2424 -81.3978 -71.9307 69.7677 
-80.3401 -72.5906 70.8905 -78.9726 -72.9604 72.2728 -78.2213 -73.5144 73.4656 
-78.1753 -74.8605 74.622 -78.0007 -76.6775 76.2143 -77.6111 -78.2805 77.855 
-82.3667 -70.7128 69.548 -83.0311 -70.5925 68.8381 -81.7895 -71.2733 70.3883 
-81.0387 -72.1023 71.4636 -79.9129 -72.8328 72.8158 -78.8733 -73.3901 74.0945 
-78.4155 -74.2321 75.1229 -78.2123 -75.6415 76.362 -77.9097 -77.238 77.8811 
-77.6915 -78.6625 79.168 -82.8473 -70.913 69.8935 -82.2111 -70.9815 70.8395 
-82.6861 -71.5013 71.2881 -82.0297 -71.5124 72.5928 -82.6107 -72.0968 73.0691 
-81.5664 -71.5064 71.9918 -81.9137 -72.1582 74.591 -82.6275 -72.7602 74.8672 
-81.2912 -71.9225 74.0502 -80.7264 -72.3463 73.342 -81.9106 -73.0953 76.2779 
-82.634 -73.749 76.4329 -81.1013 -72.591 76.0524 -80.4292 -72.7304 75.4405 
-79.7297 -73.2138 74.7007 -81.9764 -74.3235 77.761 -82.6336 -74.8329 78.121 
-81.0715 -73.738 77.6076 -80.1921 -73.5035 77.2949 -79.5662 -73.7882 76.5997 
-78.9616 -74.0754 75.8134 -82.093 -75.4279 79.5641 -82.7061 -75.6842 80.0022 
-81.2387 -75.0878 79.2152 -80.1793 -74.7795 78.9433 -79.394 -74.7682 78.4336 
-78.9315 -74.9815 77.6849 -78.518 -75.2238 76.9512 -82.2089 -76.397 81.36 
-82.8121 -76.5398 81.5574 -81.4879 -76.2817 81.0518 -80.4984 -76.1507 80.7107 
-79.5516 -76.0729 80.2521 -78.9701 -76.1427 79.6269 -78.5592 -76.3372 78.9785 
-78.1827 -76.6849 78.3819 -82.2961 -77.5531 82.6683 -82.9088 -77.6845 82.6597 
-81.6338 -77.4964 82.5483 -80.8303 -77.4536 82.2991 -79.9797 -77.4086 81.9078 
-79.3217 -77.4429 81.3611 -78.8197 -77.5837 80.8023 -78.3539 -77.8118 80.2822 
-77.976 -78.173 79.7137 -82.3927 -78.8687 83.7171 -82.983 -78.9909 83.6395 
-81.7205 -78.8457 83.6699 -80.9819 -78.8407 83.4967 -80.2664 -78.7929 83.2398 
-79.6847 -78.8029 82.8276 -79.1811 -78.9475 82.2977 -78.6861 -79.1285 81.8183 
-78.2837 -79.3152 81.3162 -77.9827 -79.5953 80.6901 -77.9848 -81.1923 81.3785 
-78.2565 -80.955 82.1239 -78.1905 -82.7045 83.0648 -78.4834 -80.8303 82.7485 
-78.3716 -82.6162 83.8466 -78.2046 -84.3778 84.906 -78.8748 -80.7069 83.2502 
-78.5779 -82.5757 84.4025 -78.4168 -84.3778 85.5667 -78.2428 -86.2911 86.4246 
-79.3928 -80.4888 83.8198 -79.0465 -82.4281 84.9794 -78.7989 -84.3315 86.055 
-78.6276 -86.37 86.9208 -78.455 -88.7804 87.696 -79.8884 -80.3455 84.2943 
-79.5932 -82.1876 85.5839 -79.3362 -84.1687 86.6645 -79.0699 -86.3712 87.4272 
-78.8069 -88.9895 88.2503 -78.6592 -91.6759 89.1156 -80.4843 -80.3503 84.5367 
-80.1233 -82.0583 85.8757 -79.8312 -83.9635 87.1082 -79.4288 -86.2437 87.967 
-78.9936 -89.0319 88.9484 -78.7568 -91.8602 90.0214 -78.7286 -94.2391 90.5545 
-81.2518 -80.3084 84.7501 -80.8228 -81.9398 86.0511 -80.4303 -83.7593 87.2898 
-79.8743 -85.9619 88.2192 -79.2105 -88.7468 89.3574 -78.8005 -91.7045 90.8437 
-78.7365 -94.1841 91.7249 -78.7744 -96.2959 91.569 -82.015 -80.2069 84.9039 
-81.5955 -81.6946 86.2754 -81.17 -83.4258 87.5315 -80.5961 -85.534 88.4161 
-79.8039 -88.1499 89.3627 -79.1519 -91.1041 90.8528 -78.9169 -93.8026 92.2007 
-78.9174 -96.0616 92.5077 -78.8741 -98.2939 91.9624 -82.6441 -80.2187 84.8407 
-82.2078 -81.5264 86.2477 -81.7589 -83.0812 87.5944 -81.3068 -85.0572 88.6019 
-80.6577 -87.4597 89.3951 -79.883 -90.2324 90.4215 -79.3807 -93.0926 91.6253 
-79.227 -95.6601 92.3559 -79.1557 -97.999 92.3202 -78.9754 -100.369 91.862 
-77.7401 -82.5057 81.771 -77.8582 -84.0903 83.6078 -77.3124 -83.7843 82.3149 
-77.8999 -85.9107 85.4075 -77.4501 -85.3711 84.0435 -77.1034 -84.8792 82.8632 
-78.0636 -88.378 87.0034 -77.742 -87.6137 85.8159 -77.5015 -86.7306 84.5105 
-77.4494 -86.2101 83.3544 -78.38 -91.4899 88.5872 -78.0905 -90.9069 87.8323 
-77.9825 -89.848 86.5855 -77.9635 -88.8095 85.2565 -77.922 -88.195 83.9277 
-78.6238 -94.4518 89.8559 -78.353 -94.4689 89.5215 -78.1489 -93.9761 88.7963 
-78.1413 -92.8316 87.4676 -78.1391 -91.4529 86.0532 -78.0633 -90.3062 84.6133 
-78.68 -96.8921 90.5689 -78.4146 -97.4536 90.1308 -78.0531 -97.768 89.9357 
-77.891 -97.3043 89.0793 -77.9645 -95.7405 87.7972 -78.0679 -93.6752 86.5875 
-78.1316 -91.9616 85.2456 -78.6622 -99.2161 91.0102 -78.343 -100.084 90.2564 
-77.9026 -100.725 90.0206 -77.6038 -100.868 89.6101 -77.6688 -99.9167 88.6673 
-77.9629 -97.725 87.762 -78.2287 -95.2348 86.9018 -78.3618 -93.3085 85.6604 
-78.6447 -101.559 91.3016 -78.2482 -102.628 90.5795 -77.796 -103.241 90.1034 
-77.4577 -103.367 89.7305 -77.4606 -102.923 89.0343 -77.7953 -101.442 88.26 
-78.2359 -99.0043 87.7261 -78.5299 -96.5009 87.0207 -78.6011 -94.5097 85.8209 
-78.7599 -103.282 91.4334 -78.2405 -104.7 91.0652 -78.312 -106.145 91.1146 
-77.5662 -107.444 90.8413 -77.7355 -108.569 90.7906 -77.7033 -105.548 90.5267 
-76.8142 -109.618 90.3521 -77.3749 -110.594 90.2984 -76.9727 -107.767 90.224 
-77.3178 -105.539 89.9766 -76.5525 -111.506 89.4599 -77.6155 -111.871 89.1938 
-76.2985 -109.714 89.4025 -76.8246 -107.271 89.3914 -77.2599 -105.077 89.2873 
-77.2415 -112.498 87.9263 -78.4647 -111.954 87.2287 -76.2945 -111.553 88.2819 
-76.4522 -109.184 88.4086 -77.0771 -106.571 88.5254 -77.5372 -104.187 88.4798 
-78.4824 -112.178 86.0249 -79.4743 -111.447 85.4392 -77.1893 -112.096 86.9839 
-76.6841 -110.645 87.5653 -77.0065 -108.14 87.7401 -77.561 -105.331 87.8722 
-78.0371 -102.31 87.9307 -79.3996 -111.317 84.8692 -80.132 -110.792 84.8828 
-78.2185 -111.272 85.7271 -77.453 -110.474 86.8141 -77.4463 -108.733 87.2927 
-77.7821 -106.126 87.3836 -78.2218 -102.993 87.5298 -78.535 -99.6561 87.5107 
-79.7063 -110.107 84.8173 -80.3486 -109.491 85.1172 -78.7324 -110.047 85.0512 
-78.0435 -109.342 85.9212 -78.0562 -108.055 86.7608 -78.3643 -105.974 87.0823 
-78.5994 -103.131 87.1585 -78.7559 -100.006 87.11 -78.7577 -97.0515 86.6836 
-79.8151 -108.178 85.151 -80.4543 -107.411 85.2753 -79.0052 -108.421 85.0506 
-78.3907 -107.968 85.2884 -78.3809 -106.89 85.9281 -78.7901 -105.134 86.5525 
-79.0728 -102.632 86.8179 -79.0622 -99.7993 86.707 -78.9097 -97.171 86.221 
-78.7355 -94.9059 85.3909 -79.235 -100.892 91.6358 -79.0404 -103.735 91.1763 
-79.474 -101.246 91.065 -79.329 -103.858 90.7212 -79.6749 -101.098 90.6535 
-78.684 -106.394 90.8159 -79.6256 -103.437 90.3794 -80.0644 -100.18 90.4726 
-79.0824 -106.251 90.3007 -78.325 -108.73 90.4443 -80.1727 -102.295 90.1102 
-80.7397 -98.7621 90.2114 -79.4542 -105.571 89.7544 -78.7961 -108.344 89.7065 
-78.1912 -110.488 89.8098 -80.8833 -100.663 89.8432 -81.2781 -97.2881 89.7879 
-80.1095 -104.174 89.436 -79.1896 -107.264 88.9859 -78.5866 -109.545 88.864 
-78.4225 -111.03 88.388 -81.2292 -98.8102 89.43 -81.5508 -95.7493 89.1861 
-80.7996 -102.251 89.303 -80.0659 -105.548 88.8386 -79.1534 -108.068 88.3254 
-78.7132 -109.642 87.6728 -79.0504 -110.72 86.5537 -81.4875 -96.7477 88.7554 
-82.1077 -94.0853 88.4846 -81.0501 -99.969 88.8504 -80.8876 -103.375 88.7847 
-80.4543 -106.274 88.4338 -79.6135 -108.201 87.7433 -79.3388 -109.433 86.7003 
-79.8463 -110.358 85.5759 -82.3437 -94.6722 88.1462 -83.076 -92.5271 87.8735 
-81.5292 -97.4462 88.2366 -81.2294 -100.714 88.3358 -81.3892 -103.878 88.3477 
-81.0632 -106.307 88.0065 -80.3008 -107.899 87.2599 -80.1273 -108.943 86.3096 
-80.4206 -109.517 85.5147 -83.5095 -92.9249 87.6955 -83.9349 -91.2356 87.2509 
-82.7128 -95.1143 87.9057 -81.9421 -97.8764 87.991 -81.7489 -100.855 88.0158 
[...]
CELL_DATA 2000
SCALARS Distance double
LOOKUP_TABLE default
131.704 131.437 131.868 132.496 131.287 131.699 132.434 132.801 133.541 
131.317 131.679 132.485 132.828 133.612 133.958 134.785 131.553 131.815 
132.645 132.953 133.777 134.093 134.972 135.317 136.245 132.166 132.213 
133.082 133.252 134.181 134.399 135.401 135.658 136.728 136.969 137.997 
133.19 133.055 133.975 133.954 134.995 135.052 136.167 136.298 137.482 
137.654 138.81 138.911 139.954 134.285 134.162 135.07 135.017 136.061 
136.06 137.155 137.205 138.35 138.495 139.673 139.816 140.919 140.955 
141.96 135.239 135.177 136.031 136.047 137.013 137.08 138.085 138.162 
139.202 139.34 140.471 140.659 141.81 141.927 143.005 143.001 144.002 
136.188 136.103 136.943 136.933 137.842 137.906 138.843 138.955 139.954 
140.125 141.262 141.47 142.691 142.844 144.029 144.074 145.178 145.111 
146.127 131.213 130.337 130.787 130.847 129.419 129.863 129.833 130.366 
130.544 128.468 128.928 128.854 129.315 129.403 130.099 130.48 127.58 
128.003 127.973 128.363 128.401 128.979 129.347 130.151 130.727 127.086 
127.3 127.347 127.596 127.645 128.059 128.397 129.107 129.776 130.592 
131.371 127.121 127.121 127.242 127.254 127.33 127.471 127.742 128.254 
128.936 129.748 130.672 131.479 132.408 127.329 127.318 127.521 127.445 
127.597 127.47 127.677 127.808 128.382 128.998 129.963 130.824 131.86 
132.637 133.543 127.487 127.505 127.769 127.797 128.089 127.966 128.231 
128.07 128.519 128.7 129.545 130.192 131.264 132.071 133.05 133.744 
134.55 127.77 127.692 127.971 128.03 128.438 128.47 128.888 128.772 
129.219 129.126 129.79 130.028 130.978 131.568 132.592 133.267 134.158 
134.746 135.521 128.118 128.901 128.375 128.306 130.027 129.33 129.225 
128.727 128.801 131.371 130.596 130.473 129.798 129.819 129.32 129.375 
132.796 132.011 131.891 131.128 131.089 130.455 130.497 129.916 129.875 
134.313 133.497 133.402 132.581 132.503 131.773 131.788 131.146 131.171 
130.481 130.489 135.939 135.111 135.088 134.196 134.149 133.277 133.292 
132.534 132.633 131.913 132.041 131.307 131.559 137.502 136.767 136.84 
135.989 136.03 135.083 135.135 134.217 134.367 133.541 133.778 132.997 
133.307 132.602 133.045 138.915 138.285 138.424 137.714 137.823 136.991 
137.075 136.166 136.307 135.426 135.676 134.854 135.178 134.413 134.792 
134.131 134.567 140.278 139.686 139.869 139.236 139.384 138.682 138.796 
138.022 138.159 137.353 137.566 136.771 137.059 136.289 136.617 135.887 
136.238 135.58 135.946 136.922 137.298 137.617 138.725 137.704 138.035 
139.187 139.559 140.766 138.146 138.464 139.618 140.011 141.246 141.63 
142.839 138.642 138.935 140.107 140.473 141.717 142.098 143.35 143.709 
145.011 139.167 139.437 140.612 140.989 142.253 142.616 143.877 144.231 
145.589 146.012 147.518 139.716 139.95 141.066 141.457 142.701 143.12 
144.352 144.747 146.097 146.587 148.146 148.654 150.165 140.271 140.489 
141.551 141.894 143.084 143.499 144.675 145.11 146.384 146.978 148.53 
149.209 150.762 151.209 152.43 140.75 141.004 142.032 142.362 143.492 
143.871 144.991 145.381 146.537 147.106 148.524 149.355 150.892 151.62 
152.863 153.226 154.149 141.126 141.416 142.379 142.741 143.771 144.193 
145.245 145.665 146.725 147.207 148.404 149.152 150.521 151.43 152.671 
153.376 154.307 154.717 155.503 137.057 138.862 137.889 137.86 140.914 
139.844 139.748 138.737 138.729 143.017 141.955 141.844 140.708 140.581 
139.613 139.663 145.327 144.201 144.256 142.96 142.876 141.634 141.667 
140.664 140.844 148.015 146.825 147.218 145.773 145.974 144.372 144.543 
143.081 143.339 142.104 142.352 150.64 149.627 150.228 149.008 149.52 
147.929 148.262 146.477 146.73 145.053 145.252 143.785 143.916 152.753 
152.007 152.539 151.773 152.384 151.35 151.779 150.279 150.423 148.656 
148.649 146.921 146.87 145.331 145.292 154.47 153.87 154.34 153.754 
154.331 153.727 154.219 153.304 153.454 152.071 151.919 150.264 150.03 
148.365 148.162 146.627 146.469 155.971 155.508 156.06 155.492 156.04 
155.464 155.928 155.287 155.503 154.585 154.484 153.201 152.921 151.406 
151.102 149.524 149.229 147.709 147.435 156.915 158.483 157.574 157.184 
159.815 159.09 158.748 157.751 157.175 160.784 160.207 159.799 159.064 
158.437 157.547 156.876 161.441 161.014 160.478 159.839 159.131 158.466 
157.736 157.038 156.307 161.424 161.422 160.974 160.456 159.716 159.031 
158.282 157.655 156.913 156.264 155.359 160.737 161.063 160.848 160.761 
160.18 159.653 158.887 158.202 157.414 156.754 155.856 155.112 153.956 
160.075 160.325 160.131 160.328 159.91 159.85 159.176 158.74 157.859 
157.218 156.229 155.529 154.379 153.552 152.213 159.478 159.696 159.323 
159.508 159.019 159.224 158.647 158.66 157.837 157.471 156.383 155.781 
154.546 153.844 152.492 151.686 150.283 158.47 158.876 158.397 158.626 
158.004 158.212 157.592 157.823 157.11 157.112 156.082 155.719 154.409 
153.838 152.426 151.78 150.364 149.671 148.343 156.935 157.147 157.537 
158.425 157.064 157.627 158.568 158.976 159.757 156.714 157.431 158.385 
158.96 159.82 160.209 160.842 156.108 156.952 157.88 158.599 159.418 
160.064 160.778 161.166 161.534 155.296 156.23 157.136 157.944 158.659 
159.415 159.996 160.711 161.017 161.45 161.359 154.199 155.241 156.119 
157.08 157.814 158.585 159.083 159.738 159.955 160.518 160.442 160.85 
160.588 152.915 153.925 154.659 155.812 156.61 157.649 158.309 158.971 
159.286 159.615 159.658 159.923 159.896 160.154 160.053 151.881 152.634 
153.18 154.197 154.911 156.17 156.978 158.075 158.605 159.153 159.275 
159.452 159.445 159.625 159.612 159.781 159.585 151.166 151.746 152.215 
152.896 153.462 154.46 155.181 156.438 157.05 158.119 158.305 158.913 
158.765 159.121 158.896 159.207 158.889 159.098 158.584 141.619 142.765 
142.401 142.872 143.904 143.533 143.983 143.685 144.222 145.017 144.642 
145.063 144.773 145.369 145.115 145.717 146.057 145.756 146.266 145.947 
146.656 146.367 147.122 146.727 147.314 146.908 146.766 147.455 147.256 
148.117 147.834 148.694 148.272 148.968 148.406 149.015 147.698 147.61 
148.409 148.396 149.35 149.268 150.14 149.848 150.532 150.076 150.72 
150.221 150.98 148.673 148.515 149.336 149.318 150.289 150.333 151.233 
151.12 151.832 151.535 152.202 151.843 152.605 152.239 153.021 149.72 
149.572 150.373 150.296 151.251 151.262 152.244 152.17 153.039 152.813 
153.622 153.307 154.115 153.77 154.526 154.142 154.722 150.568 150.528 
151.26 151.254 152.157 152.231 153.264 153.266 154.256 154.103 155.021 
154.766 155.617 155.279 156.012 155.602 156.176 155.679 156.048 141.058 
140.575 141.274 142.198 139.997 140.739 141.702 142.463 143.4 139.291 
140.052 140.95 141.858 142.907 143.688 144.567 138.613 139.297 140.066 
140.959 141.985 143.025 144.059 144.819 145.571 138.165 138.714 139.424 
140.094 140.962 141.961 143.042 144.1 145.004 145.714 146.344 137.924 
138.39 139.114 139.6 140.332 141.025 141.959 142.977 143.99 144.96 
145.746 146.42 147.073 137.766 138.178 138.878 139.349 140.05 140.548 
141.305 142.023 142.934 143.884 144.801 145.695 146.502 147.207 147.991 
137.718 138.021 138.642 139.087 139.784 140.277 140.995 141.525 142.296 
142.987 143.841 144.706 145.595 146.498 147.384 148.173 149.004 137.829 
138.02 138.564 138.882 139.524 139.981 140.701 141.222 141.98 142.524 
143.292 143.917 144.715 145.527 146.407 147.361 148.258 149.112 149.87 
138.091 138.737 138.54 138.822 139.438 139.25 139.568 139.337 139.721 
140.184 140.008 140.363 140.112 140.485 140.325 140.849 140.965 140.795 
141.157 140.902 141.275 141.11 141.68 141.579 142.189 141.728 141.583 
141.955 141.699 142.09 141.92 142.559 142.483 143.183 142.989 143.548 
142.376 142.297 142.708 142.511 142.942 142.776 143.436 143.388 144.123 
143.992 144.558 144.306 144.847 142.826 142.837 143.272 143.222 143.711 
143.628 144.258 144.231 144.917 144.855 145.432 145.264 145.843 145.677 
146.425 143.133 143.188 143.648 143.721 144.297 144.337 144.993 144.996 
145.674 145.621 146.286 146.159 146.89 146.742 147.609 147.457 148.336 
143.491 143.518 144.069 144.145 144.845 144.925 145.687 145.715 146.49 
146.445 147.275 147.169 148.104 147.953 148.937 148.741 149.629 149.376 
150.056 143.953 145.248 144.575 144.665 146.78 146.085 146.184 145.437 
145.541 148.203 147.627 147.843 147.094 147.192 146.385 146.452 149.966 
149.213 149.623 148.828 149.057 148.169 148.253 147.342 147.352 152.296 
151.362 151.818 150.833 151.126 150.146 150.338 149.333 149.426 148.356 
148.324 154.249 153.635 153.972 153.089 153.218 152.241 152.36 151.438 
151.617 150.611 150.675 149.459 149.345 155.422 155.154 155.523 154.954 
155.07 154.217 154.228 153.348 153.441 152.634 152.709 151.758 151.631 
150.436 150.178 156.504 156.233 156.803 156.36 156.741 156.019 156.208 
155.27 155.326 154.377 154.31 153.45 153.221 152.355 152 151.021 
150.667 157.742 157.461 158.094 157.707 158.19 157.667 158.017 157.28 
157.42 156.404 156.219 155.074 154.647 153.654 153.188 152.402 151.992 
151.238 150.879 143.805 143.934 144.211 145.031 144.029 144.362 145.209 
145.601 146.512 143.954 144.402 145.246 145.719 146.576 146.978 147.82 
143.606 144.197 145.037 145.636 146.484 146.951 147.797 148.266 149.401 
143.07 143.733 144.585 145.297 146.202 146.79 147.731 148.273 149.525 
150.184 151.683 142.578 143.202 144.073 144.793 145.741 146.438 147.467 
148.173 149.478 150.288 151.769 152.504 153.73 142.203 142.776 143.642 
144.316 145.25 145.955 146.971 147.787 149.071 150.057 151.471 152.373 
153.505 154.129 154.916 141.851 142.408 143.226 143.888 144.781 145.469 
146.419 147.216 148.426 149.465 150.878 151.898 153.076 153.783 154.627 
155.137 155.915 141.487 142.017 142.769 143.422 144.277 144.974 145.882 
146.639 147.751 148.741 150.133 151.231 152.54 153.367 154.337 154.892 
155.737 156.25 157.12 143.289 142.757 143.129 143.368 142.057 142.572 
142.764 143.186 143.42 141 141.666 141.924 142.507 142.667 143.158 
143.319 140.217 140.602 140.782 141.439 141.636 142.281 142.363 142.911 
142.954 139.904 140.052 139.985 140.331 140.399 141.048 141.152 141.822 
141.811 142.396 142.384 139.065 139.551 139.331 139.616 139.41 139.847 
139.828 140.485 140.516 141.173 141.156 141.783 141.845 137.474 138.246 
138.022 138.62 138.312 138.817 138.63 139.204 139.184 139.839 139.882 
140.542 140.62 141.296 141.457 136.05 136.645 136.485 137.09 136.88 
137.504 137.365 137.986 137.935 138.559 138.597 139.265 139.388 140.083 
140.254 140.951 141.142 135.08 135.501 135.415 135.805 135.698 136.168 
136.146 136.719 136.741 137.336 137.368 138.005 138.126 138.841 139.046 
139.764 139.968 140.649 140.829 134.51 133.59 134.397 134.881 132.51 
133.439 134.137 134.772 135.199 131.721 132.478 133.32 134.05 134.643 
135.158 135.634 131.415 131.91 132.654 133.306 133.972 134.58 135.105 
135.645 136.179 131.233 131.668 132.273 132.763 133.356 133.914 134.472 
135.056 135.617 136.2 136.793 131.043 131.444 132.087 132.48 133.087 
133.473 134.088 134.531 135.195 135.698 136.399 136.912 137.607 131.129 
131.37 132.08 132.395 133.111 133.409 134.12 134.413 135.159 135.499 
136.284 136.681 137.464 137.877 138.601 131.455 131.596 132.246 132.49 
133.197 133.504 134.225 134.543 135.266 135.59 136.329 136.683 137.439 
137.823 138.551 138.916 139.565 131.74 131.894 132.448 132.659 133.267 
133.561 134.206 134.563 135.218 135.603 136.267 136.67 137.361 137.777 
138.476 138.866 139.516 139.85 140.433 132.04 132.805 132.513 132.768 
133.829 133.398 133.631 133.293 133.582 135.11 134.572 134.813 134.303 
134.552 134.168 134.499 136.562 135.959 136.26 135.652 135.89 135.299 
135.555 135.138 135.5 138.201 137.49 137.812 137.184 137.492 136.806 
137.033 136.373 136.649 136.193 136.575 140.067 139.228 139.512 138.805 
139.173 138.487 138.786 138.018 138.25 137.542 137.848 137.337 137.721 
142.056 141.164 141.423 140.609 140.961 140.23 140.574 139.816 140.064 
139.267 139.495 138.785 139.083 138.53 138.869 144.089 143.184 143.436 
142.567 142.864 142.071 142.373 141.605 141.844 141.061 141.253 140.484 
140.682 139.991 140.224 139.655 139.911 146.189 145.259 145.5 144.582 
144.818 143.969 144.206 143.403 143.604 142.813 142.986 142.208 142.365 
141.609 141.755 141.062 141.223 140.642 140.829 141.5 141.982 142.071 
142.811 142.605 142.669 143.482 143.534 144.348 143.287 143.38 144.274 
144.311 145.191 145.176 146.013 143.951 144.095 145.079 145.165 146.147 
146.135 147.113 147.006 147.987 144.619 144.794 145.87 146.011 147.126 
147.175 148.33 148.279 149.482 149.297 150.452 145.308 145.519 146.727 
146.903 148.193 148.276 149.593 149.597 150.94 150.874 152.123 151.885 
152.876 146.025 146.278 147.642 147.88 149.379 149.517 151.002 150.995 
152.368 152.306 153.53 153.41 154.36 154.062 154.698 146.79 147.079 
148.558 148.869 150.497 150.772 152.388 152.482 153.855 153.75 154.843 
154.684 155.578 155.374 156.058 155.681 156.164 147.521 147.882 149.396 
149.783 151.394 151.8 153.4 153.715 155.088 155.135 156.128 155.943 
156.695 156.49 157.179 156.952 157.548 157.137 157.579 127.737 127.391 
127.563 127.695 127.193 127.273 127.299 127.549 127.757 126.99 127.05 
127.022 127.19 127.335 127.652 128.012 126.98 126.884 126.866 126.943 
127.11 127.334 127.737 128.099 128.717 127.509 127.124 127.12 126.957 
127.205 127.281 127.749 127.982 128.612 128.985 129.683 128.452 127.917 
127.895 127.482 127.738 127.623 128.123 128.174 128.698 128.903 129.464 
129.871 130.489 129.449 128.943 128.906 128.392 128.556 128.314 128.774 
128.698 129.115 129.064 129.421 129.616 130.181 130.647 131.387 130.379 
129.936 129.932 129.408 129.491 129.152 129.537 129.401 129.822 129.612 
129.894 129.754 130.258 130.491 131.354 131.785 132.69 131.244 130.86 
130.918 130.433 130.504 130.085 130.383 130.174 130.622 130.406 130.764 
130.462 130.923 130.859 131.688 131.951 132.923 133.232 134.011 128.09 
128.097 128.318 128.864 128.197 128.391 128.964 129.215 129.834 128.465 
128.544 129.131 129.357 130.016 130.241 130.871 129.147 128.981 129.513 
129.584 130.27 130.477 131.175 131.344 131.999 130.114 129.846 130.287 
130.12 130.72 130.8 131.536 131.705 132.399 132.524 133.17 130.996 
130.809 131.259 131.005 131.495 131.376 132.024 132.105 132.802 132.928 
133.56 133.677 134.285 131.929 131.696 132.229 131.98 132.485 132.254 
132.809 132.697 133.312 133.337 133.956 134.054 134.666 134.78 135.369 
133.119 132.755 133.256 132.963 133.473 133.245 133.779 133.574 134.097 
133.946 134.492 134.477 135.085 135.176 135.794 135.873 136.405 134.292 
133.941 134.299 133.978 134.375 134.163 134.658 134.502 134.998 134.798 
135.248 135.092 135.601 135.609 136.198 136.292 136.839 136.874 137.301 
128.324 129.098 128.787 129.107 130.045 129.66 129.948 129.706 130.196 
131.051 130.632 130.897 130.597 131.046 130.886 131.492 132.163 131.688 
131.953 131.581 131.995 131.759 132.326 132.218 132.883 133.336 132.855 
133.113 132.687 133.053 132.733 133.244 133.073 133.736 133.655 134.384 
134.455 134.013 134.241 133.822 134.104 133.76 134.189 133.992 134.641 
134.557 135.325 135.234 135.991 135.514 135.094 135.3 134.888 135.113 
134.747 135.11 134.896 135.525 135.468 136.262 136.204 136.96 136.838 
137.521 136.497 136.109 136.3 135.91 136.145 135.759 136.113 135.829 
136.42 136.33 137.11 137.099 137.849 137.768 138.411 138.285 138.896 
137.35 137.015 137.192 136.865 137.135 136.805 137.181 136.875 137.393 
137.221 137.893 137.871 138.586 138.575 139.226 139.142 139.75 139.63 
140.24 143.142 142.814 142.849 142.624 142.42 142.463 142.095 142.221 
141.838 141.866 141.922 141.392 141.522 141.031 141.222 140.776 141.18 
141.24 140.659 140.755 140.314 140.46 140.188 140.312 140.152 140.401 
140.471 139.891 140.02 139.696 139.895 139.799 139.946 139.921 140.004 
139.921 139.619 139.666 139.049 139.204 138.874 139.238 139.14 139.503 
139.334 139.606 139.283 139.515 139.012 138.946 138.951 138.326 138.377 
137.936 138.278 138.058 138.557 138.212 138.627 138.034 138.417 137.735 
138.097 137.378 138.35 138.37 137.804 137.755 137.215 137.345 136.976 
137.347 136.966 137.333 136.733 137.019 136.349 136.682 136.113 136.447 
135.949 137.766 137.826 137.327 137.285 136.703 136.682 136.17 136.333 
135.921 136.182 135.71 135.894 135.338 135.507 135.039 135.312 134.97 
135.273 134.953 
POINT_DATA 1002
SCALARS Distance double
LOOKUP_TABLE default
132.256 131.594 131.265 132.086 130.961 133.15 132.051 130.85 133.169 
134.307 132.139 130.966 133.268 134.403 135.648 132.343 131.355 133.456 
134.614 135.904 137.186 132.946 132.202 133.961 135.132 136.463 137.822 
138.987 134.024 133.35 134.961 136.068 137.306 138.683 139.932 140.95 
135.117 134.393 136.073 137.156 138.249 139.502 140.839 141.991 142.945 
136.025 135.304 136.955 138.018 139.088 140.277 141.641 142.956 144.073 
144.995 136.983 136.279 137.824 138.75 139.764 141.017 142.497 143.939 
145.197 146.269 147.121 130.783 130.317 129.913 129.363 128.985 129.824 
128.441 127.982 128.763 129.627 127.591 127.171 127.892 128.554 129.865 
127.144 126.949 127.313 127.737 128.907 130.561 127.276 127.143 127.312 
127.373 128.126 129.783 131.679 127.54 127.31 127.754 127.733 127.935 
129.094 131.02 132.89 127.67 127.485 128.102 128.42 128.55 129.078 
130.468 132.313 133.955 127.925 127.904 128.322 128.897 129.357 129.756 
130.541 131.929 133.541 134.983 128.528 128.674 129.505 129.816 130.764 
129.189 131.214 132.141 130.395 129.881 132.681 133.571 131.781 131.098 
130.519 134.244 135.129 133.286 132.447 131.827 131.173 135.964 136.727 
135.062 134.103 133.334 132.744 132.211 137.615 138.168 136.944 136.088 
135.22 134.552 134.043 133.673 139.076 139.504 138.585 137.945 137.195 
136.51 135.97 135.526 135.183 140.483 140.85 140.052 139.519 138.928 
138.356 137.836 137.373 136.956 136.578 137.912 138.364 139.903 138.788 
140.414 141.985 139.234 140.835 142.494 144.043 139.739 141.353 142.968 
144.593 146.403 140.22 141.88 143.532 145.136 147.047 149.111 140.706 
142.276 143.951 145.578 147.588 149.814 151.576 141.246 142.706 144.273 
145.806 147.779 150.234 152.244 153.477 141.718 143.137 144.638 146.069 
147.744 150.06 152.388 153.963 155.013 142.049 143.373 144.808 146.296 
147.817 149.663 151.849 153.782 155.181 156.321 138.776 140.857 139.616 
143.026 141.654 140.477 145.541 144.205 142.773 141.754 148.538 147.582 
146.143 144.719 143.548 151.24 150.914 150.075 148.581 146.901 145.317 
153.213 153.175 153.076 152.201 150.503 148.557 146.744 154.932 154.888 
154.943 154.65 153.525 151.744 149.803 147.946 156.593 156.671 156.574 
156.277 155.59 154.347 152.684 150.829 148.919 157.841 158.301 159.317 
159.664 160.471 158.29 160.493 161.394 159.246 157.784 161.163 161.772 
159.784 158.374 157.059 161.337 161.171 160.427 158.944 157.54 156.149 
160.69 160.358 160.524 159.594 158.131 156.581 154.85 159.93 159.938 
159.776 159.438 158.502 156.952 155.166 153.134 159.221 159.278 158.821 
158.465 158.048 156.971 155.239 153.247 151.105 158.134 158.003 157.841 
157.355 156.964 156.329 154.959 153.042 150.997 148.994 156.654 158.128 
156.671 158.092 156.44 159.494 157.771 155.946 159.305 160.67 157.152 
155.241 158.732 160.228 161.442 156.312 154.348 157.962 159.297 160.471 
161.143 155.075 153.184 156.984 158.51 159.454 159.946 160.244 153.525 
152.047 155.389 157.468 158.962 159.452 159.584 159.865 152.34 151.265 
153.689 155.668 157.809 159.055 159.327 159.432 159.544 151.641 150.597 
152.674 154.038 155.849 157.503 158.366 158.612 158.652 158.477 141.96 
143.198 143.142 144.266 144.308 144.49 145.359 145.39 145.569 146.054 
146.525 146.263 146.921 147.483 147.836 147.517 146.954 148.33 149.105 
149.503 149.575 148.369 147.78 149.349 150.377 150.944 151.16 151.437 
149.403 148.842 150.244 151.281 152.049 152.514 152.948 153.442 150.477 
149.848 151.249 152.269 153.19 153.89 154.476 154.935 155.214 140.369 
141.497 139.865 140.86 139.271 142.754 140.031 138.579 141.964 144.008 
139.287 137.98 140.888 143.109 145.066 138.88 137.641 140.112 141.893 
144.132 145.821 138.653 137.482 139.813 141.078 142.915 144.933 146.491 
138.402 137.416 139.585 140.758 142.085 143.812 145.668 147.355 138.25 
137.492 139.278 140.494 141.738 143.072 144.647 146.478 148.325 138.321 