# vtk DataFile Version 4.0
vtk output
ASCII
DATASET POLYDATA
POINTS 1002 float
-87.2623 -84.266 73.9094 -87.3338 -83.5489 72.8053 -87.0586 -83.3936 73.5888 
-86.9016 -84.2623 74.7843 -86.519 -83.5057 74.2747 -87.2204 -85.1465 75.2684 
-86.3515 -84.5015 75.5382 -85.9142 -83.6718 74.9242 -86.9081 -85.2254 76.2607 
-87.2463 -86.1327 76.82 -85.8514 -84.7409 76.3366 -85.6194 -83.6737 75.9467 
-86.4185 -85.5042 77.103 -86.9618 -86.2347 77.8552 -87.1517 -87.2541 78.4466 
-85.6419 -84.8206 77.5986 -85.5252 -83.7611 77.333 -85.9335 -85.8153 78.0605 
-86.4223 -86.5799 78.7618 -86.7997 -87.4899 79.5171 -86.9983 -88.6289 80.2524 
-85.444 -84.9632 79.024 -85.1967 -84.1148 78.5518 -85.6664 -86.0583 79.423 
-85.9297 -87.0931 79.9001 -86.2736 -88.0377 80.5835 -86.6151 -89.1044 81.3758 
-86.8466 -90.1891 82.0416 -85.0546 -85.2922 80.1168 -84.7734 -84.4641 79.5915 
-85.4207 -86.3747 80.741 -85.7064 -87.6018 81.3292 -85.912 -88.7404 81.9003 
-86.1618 -89.8418 82.5384 -86.3657 -90.9086 83.1023 -86.3711 -91.9431 83.4249 
-84.8087 -85.7571 81.1879 -84.6592 -84.7453 80.8225 -85.1045 -86.9029 81.8107 
-85.4509 -88.1377 82.5819 -85.6602 -89.3532 83.2449 -85.7507 -90.6243 83.7534 
-85.8218 -91.877 84.2134 -85.8122 -93.0087 84.5486 -85.6972 -94.1239 84.7153 
-84.8293 -86.3945 82.542 -84.7808 -85.1912 82.2162 -84.893 -87.6407 83.0164 
-85.0668 -88.8433 83.6741 -85.2623 -90.0018 84.3408 -85.3104 -91.3544 84.8267 
-85.2739 -92.9028 85.2428 -85.2677 -94.3099 85.6983 -85.2704 -95.5102 86.0546 
-85.2673 -96.5996 86.237 -84.8661 -87.1666 83.9512 -84.8596 -85.8569 83.5344 
-84.7744 -88.4506 84.3897 -84.7492 -89.6567 84.8665 -84.8594 -90.8495 85.3705 
-84.9132 -92.2451 85.8108 -84.8368 -93.9379 86.1945 -84.7934 -95.599 86.6587 
-84.8415 -96.9369 87.1572 -84.9102 -98.0159 87.4864 -84.973 -98.9049 87.5925 
-87.1975 -82.7164 72.2499 -86.8714 -82.5896 73.0217 -86.8759 -81.8788 71.5933 
-86.4959 -81.8154 72.375 -86.3956 -81.1395 70.8152 -86.2796 -82.6631 73.7084 
-85.9943 -81.0818 71.6893 -85.8994 -80.4314 70.1028 -85.9672 -81.7628 73.2769 
-85.739 -82.5972 74.5535 -85.564 -80.2237 71.2186 -85.4799 -79.5238 69.8128 
-85.5631 -80.8921 72.9133 -85.4805 -81.504 74.3854 -85.5045 -82.5086 75.7479 
-85.3604 -79.0386 71.2943 -85.3468 -78.4526 70.1805 -85.2664 -79.9151 72.6816 
-85.0609 -80.5855 74.1312 -85.1439 -81.4505 75.4834 -85.2953 -82.8368 76.9884 
-85.506 -77.6969 71.8979 -85.7416 -77.5978 71.0061 -85.2977 -78.5934 72.809 
-84.8702 -79.6265 73.9433 -84.7044 -80.4419 75.2097 -84.8963 -81.7848 76.6173 
-84.898 -83.327 78.1543 -85.9691 -76.7477 72.631 -86.4643 -77.235 71.8592 
-85.6124 -77.2066 73.2405 -85.124 -78.4571 74.117 -84.6745 -79.4249 75.3612 
-84.6578 -80.4855 76.706 -84.7148 -82.1139 78.0993 -84.6229 -83.5598 79.497 
-86.5036 -76.5668 73.2289 -87.0915 -77.3331 72.5365 -86.0148 -76.4697 73.7398 
-85.5494 -77.4733 74.5308 -85.0239 -78.6125 75.8555 -84.7644 -79.4634 77.2757 
-84.7533 -80.7795 78.5123 -84.6629 -82.3619 79.7208 -84.6374 -83.7431 80.9651 
-86.9306 -77.0063 73.733 -87.4841 -77.6882 73.0955 -86.4106 -76.6448 74.2611 
-85.9652 -77.1654 75.0438 -85.4554 -78.1658 76.3674 -85.0466 -78.9941 77.842 
-84.9361 -79.9959 79.0155 -84.8411 -81.3667 80.0426 -84.6979 -82.7316 81.1567 
-84.7355 -84.1753 82.3449 -87.4517 -77.8452 74.095 -86.932 -77.4332 74.7346 
-87.487 -78.2749 75.2948 -87.1257 -78.209 76.1971 -87.7255 -78.7974 76.8427 
-86.5109 -77.472 75.5504 -87.4877 -78.8443 78.1103 -88.0573 -79.2657 78.581 
-86.7627 -78.3502 77.482 -86.0222 -78.0431 76.8357 -87.7206 -79.3579 80.0064 
-88.2335 -79.9006 80.2018 -86.9769 -78.8873 79.6034 -86.1137 -78.6742 78.9532 
-85.4492 -78.7709 78.3299 -87.7681 -80.2809 81.5015 -88.2419 -80.9045 81.5411 
-87.0454 -79.7002 81.3265 -86.2061 -79.3781 80.8445 -85.5576 -79.4957 80.1255 
-85.1789 -79.7379 79.5144 -87.8437 -81.5859 82.6757 -88.2236 -82.119 82.6553 
-87.1869 -81.1121 82.6117 -86.363 -80.742 82.4015 -85.7425 -80.6871 81.8563 
-85.3712 -80.8721 81.1026 -85.0806 -81.0352 80.5043 -87.9133 -82.8712 83.8411 
-88.1988 -83.3319 83.7321 -87.412 -82.5052 83.8458 -86.6039 -82.2587 83.7864 
-85.8558 -82.1158 83.596 -85.4037 -82.0923 83.0301 -85.0863 -82.1322 82.2455 
-84.8383 -82.2937 81.6209 -87.8648 -84.0519 85.0622 -88.1661 -84.4476 84.8315 
-87.4751 -83.6674 85.2011 -86.7879 -83.4381 85.1725 -85.9427 -83.3502 85.0744 
-85.3078 -83.2809 84.839 -84.9492 -83.235 84.2478 -84.7584 -83.3471 83.4735 
-84.7126 -83.6843 82.8408 -87.8033 -85.1764 86.1163 -88.1694 -85.4417 85.8154 
-87.4076 -84.8566 86.3941 -86.8531 -84.6103 86.4704 -86.112 -84.5487 86.3231 
-85.4064 -84.5972 86.1283 -84.9557 -84.6431 85.8529 -84.7488 -84.7739 85.3137 
-84.7175 -85.0821 84.6413 -84.7935 -85.4829 84.0532 -84.8123 -87.5466 85.0851 
-84.7625 -87.2988 85.658 -84.562 -89.3052 86.6219 -84.7659 -86.9555 86.26 
-84.5959 -89.1617 87.1918 -84.272 -91.0777 87.9149 -84.8948 -86.6234 86.7755 
-84.7433 -88.8754 87.7312 -84.3293 -90.9995 88.4677 -84.0507 -93.3876 89.0286 
-85.1965 -86.3723 87.0532 -85.0066 -88.5125 88.0989 -84.5128 -90.7204 89.0127 
-84.0639 -93.3089 89.6484 -83.7931 -96.1101 90.341 -85.7225 -86.1656 87.2524 
-85.4258 -88.1851 88.2739 -84.8626 -90.3387 89.3706 -84.2623 -92.96 90.2042 
-83.883 -95.8798 90.9709 -83.4219 -98.2662 91.8008 -86.3826 -86.055 87.4599 
-86.0005 -87.9765 88.3717 -85.4207 -90.0527 89.4342 -84.7188 -92.527 90.4095 
-84.2231 -95.4387 91.2216 -83.6937 -97.9532 92.1066 -83.0051 -99.905 92.7864 
-86.9993 -86.1114 87.4451 -86.6239 -87.8875 88.3151 -86.106 -89.9023 89.2686 
-85.3882 -92.1563 90.261 -84.7909 -94.9075 91.0606 -84.2417 -97.5972 91.8734 
-83.4807 -99.7622 92.6988 -82.7447 -101.8 93.118 -87.5162 -86.2484 87.1689 
-87.2175 -87.8129 88.0612 -86.8016 -89.7522 89.004 -86.1494 -91.8425 90.0331 
-85.4689 -94.2922 90.833 -84.909 -97.0504 91.5021 -84.2489 -99.549 92.3187 
-83.4657 -101.732 92.996 -82.8061 -103.83 93.1802 -87.9579 -86.373 86.8219 
-87.7261 -87.7076 87.7337 -87.4001 -89.5167 88.7152 -86.8724 -91.5457 89.833 
-86.1914 -93.7191 90.7169 -85.5409 -96.2684 91.2702 -84.9469 -98.9782 91.9457 
-84.3205 -101.411 92.7557 -83.6727 -103.545 93.2183 -83.0839 -105.444 93.1638 
-84.6723 -88.9264 85.6069 -84.367 -90.715 87.1202 -84.5333 -90.2438 86.0665 
-84.1745 -92.9945 88.3604 -84.3717 -92.4239 87.5522 -84.582 -91.6906 86.4796 
-83.8885 -95.9751 89.6063 -84.137 -95.438 88.8783 -84.4252 -94.5502 88.0038 
-84.6496 -93.3862 86.8976 -83.3275 -98.5508 91.0917 -83.4235 -98.4443 90.2175 
-83.7755 -97.8296 89.4257 -84.2176 -96.7091 88.4851 -84.5347 -95.2793 87.3037 
-82.7681 -100.335 92.366 -82.6663 -100.581 91.4481 -82.7823 -100.416 90.5598 
-83.306 -99.7668 89.8328 -83.9559 -98.6073 88.8662 -84.4122 -97.1167 87.7072 
-82.4025 -102.296 92.9254 -82.3218 -102.65 92.2121 -82.2968 -102.639 91.3023 
-82.5123 -102.229 90.6289 -83.1481 -101.404 89.9628 -83.8631 -100.136 89.0565 
-84.4058 -98.581 88.1142 -82.2809 -104.508 92.9733 -82.1476 -104.96 92.4476 
-82.201 -104.995 91.6848 -82.2668 -104.626 91.027 -82.5334 -103.886 90.4754 
-83.0841 -102.721 89.7674 -83.7648 -101.257 89.0529 -84.4159 -99.6683 88.3921 
-82.421 -106.294 92.8794 -82.0608 -106.843 92.4211 -82.0428 -106.952 91.7881 
-82.164 -106.723 91.1658 -82.3053 -106.208 90.6685 -82.4957 -105.2 90.0526 
-82.8881 -103.729 89.3571 -83.6033 -102.128 88.8946 -84.4109 -100.532 88.4449 
-82.9185 -107.315 92.7818 -82.2712 -108.179 92.3909 -82.6767 -109.321 92.1302 
-82.1039 -110.273 91.7747 -82.407 -111.861 91.4761 -81.9368 -108.559 91.8517 
-81.8863 -113.156 91.155 -82.223 -114.467 90.9511 -81.81 -110.795 91.185 
-81.953 -108.575 91.1753 -81.587 -115.851 90.4663 -82.2885 -115.931 90.3258 
-81.4856 -113.999 90.4476 -81.8611 -111.05 90.4499 -82.1782 -108.421 90.6144 
-81.6058 -116.875 89.5381 -82.7273 -116.106 89.488 -80.9817 -116.348 89.586 
-81.4953 -114.03 89.698 -82.1874 -110.778 89.9565 -82.3464 -107.762 90.115 
-82.2887 -116.557 88.5696 -83.2883 -115.543 88.7076 -81.1351 -116.547 88.6068 
-81.1121 -115.339 88.921 -81.9732 -112.793 89.3296 -82.3371 -109.45 89.4797 
-82.3943 -106.28 89.4099 -83.1072 -115.488 87.9565 -83.7288 -114.203 88.1998 
-82.1311 -115.608 87.8789 -81.5513 -114.734 88.2011 -81.9041 -113.117 88.7414 
-82.3036 -110.48 88.9559 -82.3772 -107.24 88.8461 -82.8089 -104.369 88.8493 
-83.697 -113.524 87.7519 -84.2812 -112.174 87.9528 -83.0796 -114.045 87.6699 
-82.5488 -113.489 87.8721 -82.4285 -112.28 88.3219 -82.5523 -110.386 88.596 
-82.6491 -107.646 88.535 -83.0316 -104.803 88.5137 -83.7638 -102.486 88.607 
-84.3747 -111.011 87.7422 -85.1235 -110 87.8558 -83.7696 -111.734 87.7621 
-83.3839 -111.733 87.9398 -83.202 -110.976 88.2264 -83.1514 -109.532 88.4271 
-83.2266 -107.297 88.4136 -83.5798 -104.725 88.3561 -84.1761 -102.515 88.3414 
-84.6958 -100.68 88.1382 -83.7174 -105.543 93.1757 -83.4847 -107.416 92.6333 
-84.1231 -105.343 92.9116 -83.8901 -107.231 92.2706 -84.2377 -104.951 92.3084 
-83.1493 -109.686 91.8316 -84.1924 -106.805 91.8404 -84.4516 -104.394 91.6742 
-83.6592 -109.571 91.572 -82.8643 -112.319 91.2132 -84.5691 -106.041 91.4593 
-85.0786 -103.45 91.2598 -84.1911 -108.885 91.4374 -83.5095 -111.888 91.1458 
-82.8333 -114.294 90.78 -85.1496 -104.743 91.0874 -86.0021 -101.964 90.8925 
-84.6384 -107.594 91.1511 -84.1595 -110.631 91.0749 -83.5541 -113.194 90.7245 
-83.1139 -114.912 90.1806 -86.0624 -102.946 90.7607 -86.9673 -100.153 90.3975 
-85.2928 -105.814 90.8262 -84.8239 -108.734 90.7862 -84.3217 -111.386 90.598 
-83.7867 -113.233 90.112 -83.4958 -114.556 89.4426 -87.1283 -100.905 90.3736 
-87.8347 -98.3835 89.7919 -86.3649 -103.749 90.6926 -85.8229 -106.558 90.7082 
-85.3842 -109.109 90.5283 -84.7076 -111.035 90.1072 -84.0794 -112.361 89.4807 
-83.8287 -113.486 88.8084 -88.05 -98.9281 89.6932 -88.6024 -96.8947 89.0954 
-87.4335 -101.51 90.296 -86.9016 -104.247 90.6702 -86.5152 -106.724 90.6562 
-85.9572 -108.672 90.2515 -85.1507 -110.013 89.608 -84.5672 -111.033 88.9477 
-84.3718 -111.853 88.3787 -88.8324 -97.2934 88.8242 -89.3061 -95.7428 88.3516 
-88.2967 -99.3654 89.4428 -87.7495 -101.815 90.0822 -87.301 -104.233 90.4342 
[...]
CELL_DATA 2000
SCALARS Distance double
LOOKUP_TABLE default
140.462 140.619 140.857 141.53 140.743 141.035 141.803 142.059 142.858 
140.977 141.216 142.066 142.361 143.239 143.479 144.319 141.547 141.627 
142.491 142.693 143.606 143.857 144.76 144.982 145.897 142.268 142.322 
143.182 143.272 144.196 144.329 145.295 145.475 146.49 146.69 147.697 
142.858 142.984 143.875 144.018 145.014 145.102 146.137 146.197 147.274 
147.387 148.441 148.552 149.452 143.537 143.591 144.547 144.705 145.8 
145.966 147.068 147.15 148.211 148.274 149.315 149.369 150.314 150.286 
151.11 144.553 144.476 145.501 145.518 146.642 146.767 147.886 148.021 
149.056 149.164 150.178 150.266 151.285 151.279 152.26 152.12 153.07 
145.743 145.655 146.704 146.626 147.695 147.694 148.77 148.837 149.892 
149.976 151.04 151.134 152.247 152.31 153.418 153.374 154.41 154.246 
155.185 139.856 138.93 139.61 139.976 137.867 138.63 139.027 139.694 
140.044 136.759 137.544 138.003 138.723 139.102 139.755 140.216 135.742 
136.476 136.982 137.724 138.173 138.831 139.32 140.051 140.733 134.995 
135.563 136.093 136.777 137.255 137.909 138.389 139.142 139.831 140.692 
141.452 134.764 135.01 135.487 136.001 136.48 137.05 137.488 138.173 
138.819 139.724 140.525 141.391 142.082 135.106 134.999 135.293 135.534 
135.993 136.427 136.915 137.407 138.028 138.756 139.607 140.471 141.29 
142.034 142.757 135.795 135.465 135.562 135.496 135.885 136.142 136.758 
137.099 137.792 138.23 139.084 139.733 140.652 141.345 142.178 142.845 
143.702 136.576 136.183 136.218 135.927 136.252 136.276 136.954 137.18 
137.97 138.241 139.07 139.474 140.366 140.895 141.753 142.343 143.2 
143.892 144.831 137.024 137.787 137.153 136.74 138.967 138.165 137.858 
137.066 136.87 140.412 139.585 139.42 138.493 138.351 137.519 137.579 
141.835 141.098 140.995 140.143 139.986 139.12 139.086 138.378 138.543 
143.19 142.509 142.44 141.664 141.518 140.692 140.615 139.876 139.992 
139.367 139.622 144.541 143.889 143.916 143.149 143.123 142.267 142.29 
141.464 141.625 140.892 141.158 140.513 140.853 145.876 145.277 145.413 
144.705 144.794 143.98 144.091 143.257 143.441 142.635 142.852 142.108 
142.371 141.76 142.132 147.16 146.624 146.824 146.211 146.35 145.641 
145.747 145.012 145.153 144.416 144.576 143.817 144.015 143.312 143.649 
143.079 143.558 148.353 147.885 148.113 147.588 147.766 147.141 147.258 
146.572 146.709 146.025 146.231 145.519 145.788 145.043 145.428 144.737 
145.266 144.657 145.238 146.43 146.515 147.098 148.294 146.661 147.219 
148.483 148.975 150.064 146.916 147.405 148.668 149.188 150.329 150.713 
151.81 147.23 147.647 148.84 149.373 150.538 150.974 152.102 152.554 
153.851 147.625 147.94 149.052 149.535 150.696 151.167 152.318 152.818 
154.121 154.702 156.018 148.119 148.349 149.383 149.77 150.892 151.335 
152.474 152.987 154.251 154.886 156.17 156.72 157.749 148.569 148.805 
149.745 150.093 151.136 151.548 152.62 153.104 154.271 154.906 156.131 
156.761 157.805 158.243 159.076 148.867 149.144 149.994 150.359 151.326 
151.755 152.771 153.225 154.281 154.844 155.984 156.637 157.735 158.274 
159.215 159.579 160.413 149.059 149.345 150.124 150.496 151.402 151.866 
152.871 153.347 154.348 154.828 155.843 156.436 157.513 158.159 159.199 
159.717 160.629 160.961 161.718 146.753 148.588 147.714 147.753 150.316 
149.521 149.596 148.702 148.721 152.161 151.316 151.535 150.61 150.723 
149.728 149.779 154.354 153.407 153.811 152.783 153.077 151.941 152.062 
150.895 150.942 156.493 155.68 156.073 155.15 155.479 154.433 154.634 
153.399 153.436 152.146 152.16 158.132 157.579 157.863 157.169 157.363 
156.595 156.779 155.863 155.952 154.76 154.733 153.424 153.416 159.466 
159.016 159.367 158.766 158.969 158.26 158.427 157.713 157.873 157.027 
157.057 155.955 155.889 154.66 154.597 160.795 160.351 160.796 160.26 
160.567 159.877 160.067 159.326 159.479 158.738 158.78 157.945 157.851 
156.897 156.772 155.702 155.557 162.03 161.657 162.037 161.62 161.885 
161.369 161.513 160.902 160.993 160.31 160.291 159.501 159.319 158.504 
158.304 157.526 157.373 156.474 156.265 162.725 163.601 163.037 162.722 
164.596 163.928 163.584 162.943 162.523 165.956 165.143 164.752 163.863 
163.35 162.652 162.159 167.094 166.544 166.226 165.246 164.638 163.632 
163.06 162.286 161.731 167.363 167.293 167.046 166.527 165.956 165.047 
164.345 163.366 162.653 161.794 161.037 167.017 167.196 166.883 166.804 
166.259 165.93 165.23 164.554 163.621 162.701 161.637 160.835 159.906 
166.3 166.668 166.347 166.383 165.776 165.732 165.092 164.917 164.014 
163.392 162.128 161.294 160.14 159.555 158.769 165.178 165.737 165.5 
165.74 165.174 165.173 164.538 164.501 163.748 163.434 162.293 161.607 
160.395 159.761 158.921 158.514 157.897 163.95 164.482 164.262 164.719 
164.293 164.507 163.929 163.961 163.267 163.091 162.127 161.641 160.521 
159.959 159.07 158.665 158.003 157.641 156.909 162.838 163.035 163.232 
163.682 162.794 163.258 163.836 164.063 164.65 162.292 162.92 163.687 
164.14 164.896 165.18 165.938 161.748 162.425 163.309 163.945 164.821 
165.321 166.097 166.431 166.997 161.109 161.835 162.63 163.429 164.293 
165.049 165.772 166.32 166.764 167.106 167.272 160.305 161.081 161.765 
162.589 163.342 164.248 164.93 165.696 166.042 166.561 166.631 166.999 
166.91 159.374 160.187 160.891 161.692 162.414 163.24 163.919 164.702 
165.068 165.641 165.617 166.088 165.919 166.374 166.112 158.39 159.185 
159.855 160.747 161.467 162.332 162.99 163.75 164.15 164.684 164.677 
165.036 164.803 165.215 164.954 165.396 165.023 157.504 158.17 158.685 
159.574 160.192 161.192 161.77 162.701 163.06 163.749 163.777 164.171 
163.969 164.242 164.021 164.321 164.083 164.344 163.964 149.392 150.238 
150.013 150.459 151.133 150.9 151.417 151.201 151.771 152.099 151.843 
152.44 152.247 152.95 152.69 153.325 153.158 152.872 153.506 153.331 
154.129 153.942 154.669 154.311 154.858 154.215 153.955 154.574 154.411 
155.199 155.093 155.848 155.611 156.189 155.792 156.297 155.145 154.956 
155.552 155.43 156.171 156.103 156.834 156.684 157.3 157.04 157.638 
157.29 157.913 155.922 155.807 156.394 156.327 157.074 157.04 157.798 
157.659 158.317 158.107 158.812 158.602 159.372 159.03 159.67 156.554 
156.521 157.131 157.119 157.897 157.92 158.752 158.665 159.38 159.17 
159.879 159.731 160.553 160.404 161.128 160.737 161.178 157.053 157.107 
157.776 157.834 158.635 158.711 159.566 159.587 160.353 160.233 160.904 
160.759 161.472 161.414 162.109 161.973 162.434 162.031 162.239 148.911 
148.497 149.054 149.76 148.134 148.677 149.418 149.944 150.655 147.744 
148.317 149.069 149.626 150.382 150.884 151.618 147.223 147.855 148.593 
149.233 150.018 150.609 151.391 151.898 152.665 146.712 147.29 148.006 
148.677 149.455 150.156 150.959 151.603 152.393 152.948 153.702 146.463 
146.884 147.573 148.119 148.881 149.547 150.339 151.049 151.839 152.539 
153.322 153.93 154.632 146.376 146.749 147.416 147.82 148.554 149.07 
149.853 150.456 151.225 151.898 152.692 153.417 154.191 154.799 155.427 
146.173 146.632 147.3 147.711 148.401 148.84 149.6 150.098 150.857 
151.382 152.123 152.76 153.546 154.252 154.955 155.522 156.05 145.818 
146.342 147.017 147.515 148.174 148.648 149.359 149.872 150.629 151.117 
151.814 152.297 152.991 153.604 154.317 154.962 155.546 156.067 156.517 
145.817 146.248 146.369 147.044 146.76 146.844 147.54 147.619 148.25 
147.406 147.422 148.138 148.173 148.869 148.868 149.502 148.136 148.124 
148.875 148.873 149.642 149.604 150.334 150.234 150.848 148.848 148.851 
149.651 149.686 150.532 150.49 151.261 151.143 151.773 151.578 152.057 
149.662 149.618 150.52 150.55 151.503 151.45 152.234 152.088 152.687 
152.49 152.963 152.725 153.176 150.671 150.59 151.613 151.587 152.617 
152.502 153.277 153.061 153.635 153.408 153.91 153.662 154.151 153.902 
154.431 151.63 151.646 152.66 152.708 153.654 153.589 154.247 154.049 
154.562 154.364 154.916 154.69 155.221 154.929 155.411 155.16 155.63 
152.289 152.438 153.287 153.493 154.24 154.353 154.856 154.814 155.25 
155.196 155.779 155.697 156.28 156.029 156.453 156.126 156.485 156.24 
156.606 152.785 153.626 153.378 153.732 154.617 154.226 154.55 154.303 
154.605 156.104 155.478 155.758 155.22 155.449 155.081 155.218 157.529 
157.062 157.397 156.719 156.913 156.181 156.299 155.705 155.778 158.534 
158.262 158.673 158.275 158.538 157.854 157.949 157.126 157.201 156.448 
156.503 159.864 159.362 159.814 159.397 159.739 159.278 159.41 158.765 
158.741 158 157.933 157.189 157.047 161.524 160.961 161.409 160.764 
161.094 160.487 160.689 160.074 160.078 159.39 159.214 158.497 158.205 
157.499 157.155 162.695 162.435 162.801 162.337 162.579 161.981 162.185 
161.501 161.609 160.802 160.698 159.797 159.49 158.616 158.227 157.473 
157.129 163.394 163.284 163.594 163.371 163.56 163.232 163.42 162.971 
163.126 162.449 162.411 161.468 161.185 160.108 159.692 158.686 158.296 
157.493 157.215 152.389 152.176 152.61 153.253 152.012 152.429 153.096 
153.487 154.249 151.764 152.247 152.949 153.381 154.216 154.693 155.686 
151.345 151.928 152.677 153.215 154.109 154.678 155.68 156.211 157.096 
150.889 151.498 152.328 152.924 153.865 154.512 155.51 156.109 156.947 
157.402 158.107 150.569 151.136 152.036 152.619 153.555 154.206 155.161 
155.819 156.669 157.198 157.993 158.447 159.376 150.338 150.884 151.759 
152.344 153.203 153.832 154.681 155.361 156.213 156.863 157.756 158.357 
159.382 159.946 160.998 150.055 150.604 151.381 151.99 152.758 153.386 
154.145 154.812 155.652 156.373 157.337 158.07 159.112 159.822 160.821 
161.432 162.219 149.706 150.232 150.924 151.524 152.247 152.872 153.61 
154.255 155.096 155.825 156.836 157.626 158.691 159.443 160.4 161.068 
161.845 162.385 162.972 151.672 150.388 151.16 151.444 149.097 149.82 
150.081 150.933 151.249 147.929 148.564 148.722 149.515 149.849 150.732 
151.012 146.763 147.439 147.615 148.263 148.515 149.309 149.603 150.424 
150.593 145.485 146.238 146.478 147.179 147.369 148.057 148.23 148.983 
149.126 149.917 150.059 144.238 144.946 145.102 145.881 146.018 146.804 
146.877 147.614 147.658 148.418 148.55 149.401 149.664 143.041 143.714 
143.777 144.456 144.51 145.293 145.37 146.168 146.216 146.969 147.085 
147.907 148.196 149.102 149.461 141.746 142.47 142.548 143.181 143.203 
143.853 143.942 144.677 144.81 145.55 145.702 146.485 146.77 147.659 
148.049 148.944 149.273 140.425 141.14 141.25 141.933 141.981 142.618 
142.706 143.381 143.552 144.245 144.432 145.148 145.404 146.244 146.624 
147.539 147.915 148.753 149.01 139.789 139.132 139.817 140.562 138.531 
139.156 139.848 140.569 141.306 138.053 138.598 139.264 139.889 140.654 
141.349 142.113 137.788 138.228 138.947 139.439 140.241 140.831 141.692 
142.279 143.043 137.79 138.102 138.869 139.274 140.119 140.594 141.476 
141.984 142.787 143.259 143.954 138.086 138.245 138.979 139.291 140.114 
140.537 141.377 141.841 142.622 143.06 143.782 144.204 144.938 138.655 
138.674 139.364 139.511 140.262 140.554 141.342 141.742 142.535 142.95 
143.738 144.132 144.956 145.341 146.187 139.355 139.312 139.972 140.005 
140.727 140.837 141.612 141.826 142.67 142.978 143.868 144.213 145.119 
145.468 146.356 146.69 147.502 140.032 139.988 140.6 140.626 141.346 
141.413 142.209 142.298 143.152 143.31 144.219 144.47 145.389 145.693 
146.556 146.869 147.636 147.936 148.606 140.574 141.659 141.099 141.169 
142.983 142.314 142.411 141.825 141.976 144.436 143.722 143.813 143.171 
143.361 142.751 142.917 146.047 145.25 145.329 144.607 144.771 144.167 
144.377 143.737 143.883 147.877 147.02 147.152 146.258 146.377 145.612 
145.808 145.177 145.384 144.729 144.908 149.566 148.846 149.051 148.214 
148.368 147.425 147.564 146.712 146.914 146.216 146.446 145.792 146.022 
151.113 150.403 150.594 149.961 150.191 149.434 149.582 148.654 148.761 
147.872 148.042 147.314 147.534 146.896 147.125 153.029 152.081 152.232 
151.455 151.685 151.053 151.272 150.558 150.655 149.786 149.836 148.981 
149.091 148.372 148.541 147.932 148.13 155.17 154.19 154.327 153.317 
153.461 152.606 152.794 152.093 152.242 151.519 151.57 150.755 150.77 
149.96 150.021 149.321 149.451 148.869 149.045 149.717 150.16 150.25 
150.933 150.801 150.809 151.534 151.567 152.281 151.601 151.57 152.342 
152.296 153.039 152.991 153.696 152.386 152.402 153.214 153.185 153.988 
153.888 154.666 154.522 155.278 153.07 153.164 154.043 154.078 154.992 
154.932 155.852 155.685 156.584 156.32 157.149 153.771 153.897 154.923 
154.975 156.042 156.025 157.116 157.003 158.053 157.8 158.708 158.321 
159.073 154.628 154.75 155.919 155.967 157.127 157.151 158.351 158.333 
159.49 159.321 160.268 159.906 160.603 160.154 160.73 155.543 155.7 
156.861 156.958 158.046 158.169 159.33 159.488 160.661 160.68 161.642 
161.398 162.064 161.629 162.11 161.658 162.105 156.275 156.511 157.505 
157.698 158.598 158.851 159.883 160.24 161.363 161.626 162.565 162.563 
163.233 162.978 163.461 163.028 163.402 162.932 163.258 136.608 135.809 
136.228 136.168 134.972 135.344 135.238 135.643 135.54 134.426 134.527 
134.322 134.661 134.597 135.071 135.201 134.585 134.263 133.994 133.953 
133.871 134.176 134.382 134.933 135.289 135.386 134.798 134.611 134.13 
134.001 133.784 133.882 134.175 134.58 135.142 135.603 136.419 135.781 
135.679 135.097 135.007 134.393 134.302 134.009 134.271 134.549 135.125 
135.617 136.216 137.511 136.849 136.697 136.166 136.112 135.536 135.423 
134.804 134.891 134.652 135.203 135.399 136.136 136.462 137.125 138.605 
137.949 137.737 137.148 137.05 136.546 136.51 135.964 136.042 135.588 
136.018 135.872 136.585 136.654 137.357 137.503 138.113 139.584 139.012 
138.827 138.208 138.079 137.509 137.498 137.003 137.135 136.721 137.061 
136.812 137.364 137.283 137.906 137.912 138.512 138.568 139.16 137.05 
136.583 137.085 137.573 136.009 136.527 137.07 137.615 138.218 135.739 
136.077 136.686 137.16 137.852 138.365 139.044 135.812 135.995 136.569 
136.921 137.65 138.107 138.824 139.249 139.895 136.096 136.159 136.647 
136.874 137.54 137.964 138.714 139.118 139.783 140.136 140.804 136.704 
136.599 137.115 137.1 137.716 137.929 138.693 139.055 139.812 140.137 
140.843 141.158 141.885 137.536 137.362 137.936 137.795 138.405 138.34 
139.026 139.165 139.949 140.235 141.01 141.294 141.999 142.277 142.941 
138.404 138.205 138.731 138.637 139.214 139.123 139.685 139.651 140.301 
140.459 141.221 141.486 142.191 142.421 143.016 143.259 143.839 139.388 
139.087 139.538 139.381 139.91 139.837 140.363 140.302 140.86 140.893 
141.573 141.742 142.436 142.62 143.193 143.359 143.887 144.124 144.702 
137.349 137.988 137.8 138.109 138.7 138.513 138.904 138.689 139.168 
139.524 139.328 139.784 139.547 140.022 139.857 140.482 140.354 140.188 
140.705 140.496 140.988 140.75 141.3 141.196 141.863 141.248 141.039 
141.585 141.417 141.946 141.726 142.231 142.044 142.635 142.558 143.211 
142.3 142.017 142.533 142.311 142.821 142.624 143.123 142.951 143.499 
143.371 143.977 143.894 144.525 143.333 143.083 143.566 143.299 143.747 
143.491 143.96 143.789 144.354 144.236 144.834 144.702 145.29 145.195 
145.81 144.24 144.052 144.547 144.31 144.739 144.442 144.862 144.636 
145.192 145.08 145.711 145.582 146.16 146 146.565 146.47 147.071 
145.122 144.945 145.471 145.261 145.707 145.422 145.806 145.543 146.029 
145.904 146.52 146.438 147.03 146.881 147.412 147.256 147.799 147.709 
148.265 151.553 150.83 150.901 150.248 149.946 150.121 149.591 149.648 
149.064 149.047 149.25 148.834 149.001 148.491 148.498 147.895 148.233 
148.388 147.919 148.162 147.608 147.77 147.073 147.19 146.548 147.448 
147.549 146.941 147.156 146.521 146.73 145.992 146.173 145.482 145.739 
145.201 146.681 146.711 146.031 146.16 145.537 145.683 145.032 145.133 
144.494 144.663 144.156 144.438 144.013 146.034 145.97 145.283 145.315 
144.73 144.823 144.253 144.315 143.694 143.772 143.191 143.407 142.927 
143.251 142.803 145.528 145.397 144.72 144.67 144.087 144.115 143.531 
143.575 142.915 142.971 142.294 142.436 141.83 142.105 141.58 141.953 
141.467 145.123 144.956 144.297 144.192 143.615 143.559 142.953 142.897 
142.21 142.184 141.515 141.568 140.975 141.096 140.556 140.765 140.275 
140.603 140.166 
POINT_DATA 1002
SCALARS Distance double
LOOKUP_TABLE default
141.05 140.097 140.241 141.284 140.335 142.257 141.489 140.407 142.639 
143.679 141.754 140.774 142.958 144.121 145.159 142.355 141.516 143.369 
144.494 145.669 146.866 143.098 142.193 144.096 145.127 146.267 147.539 
148.691 143.665 142.721 144.865 146.086 147.201 148.359 149.431 150.239 
144.391 143.504 145.588 146.953 148.169 149.268 150.323 151.193 151.905 
145.538 144.619 146.579 147.765 148.945 150.06 151.213 152.327 153.268 
154.045 146.811 145.802 147.768 148.743 149.807 150.931 152.138 153.398 
154.535 155.431 156.083 139.234 139.356 138.202 138.332 137.068 139.394 
137.234 135.976 138.446 139.47 136.22 135.033 137.496 138.582 139.913 
135.442 134.515 136.621 137.654 138.934 140.649 135.079 134.702 135.945 
136.881 137.933 139.593 141.335 135.221 135.401 135.582 136.46 137.411 
138.746 140.488 142.05 135.777 136.212 135.689 136.389 137.431 138.539 
139.971 141.502 142.986 136.563 136.957 136.317 136.754 137.725 138.759 
139.915 141.216 142.544 144.074 137.556 137.342 138.464 138.691 139.747 
137.542 140.322 141.17 139.25 138.264 141.807 142.533 140.863 139.851 
139.15 143.19 143.849 142.329 141.367 140.633 140.196 144.63 145.147 
143.933 143.111 142.397 141.85 141.431 146.057 146.426 145.554 144.9 
144.267 143.662 143.048 142.638 147.393 147.664 147.025 146.474 145.871 
145.325 144.747 144.254 144.059 148.601 148.795 148.348 147.928 147.376 
146.882 146.488 146.131 145.903 145.841 147.651 147.806 149.431 147.955 
149.694 151.072 148.134 149.921 151.378 152.987 148.322 150.07 151.63 
153.306 155.269 148.62 150.217 151.807 153.527 155.541 157.25 149.056 
150.478 151.986 153.637 155.6 157.377 158.625 149.435 150.749 152.185 
153.697 155.49 157.312 158.733 159.876 149.653 150.898 152.336 153.799 
155.354 157.117 158.783 160.134 161.235 149.781 150.94 152.371 153.911 
155.339 156.845 158.583 160.239 161.519 162.405 148.686 150.45 149.656 
152.431 151.729 150.789 154.814 154.199 153.312 152.094 156.967 156.449 
155.799 154.804 153.422 158.528 158.101 157.548 156.998 156.065 154.723 
159.903 159.677 159.137 158.602 158.028 157.087 155.865 161.285 161.209 
160.825 160.247 159.593 158.728 157.746 156.712 162.458 162.374 162.08 
161.641 161.096 160.19 159.047 158.129 157.286 163.319 163.339 164.15 
164.299 165.348 163.12 165.79 166.737 164.176 162.762 167.114 167.435 
165.783 163.968 162.461 167.335 167.323 166.693 165.404 163.678 161.832 
166.934 166.798 166.384 165.702 164.595 162.601 160.488 166.275 165.83 
165.834 165.115 164.466 162.991 160.803 159.139 165.113 164.596 165.116 
164.577 163.931 162.857 161.04 159.352 158.283 163.746 163.513 163.937 
163.835 163.384 162.495 161.038 159.498 158.372 157.362 162.798 163.587 
162.727 163.469 162.192 164.463 163.105 161.587 164.5 165.739 162.59 
161.077 164.242 165.734 166.826 161.845 160.415 163.465 165.183 166.407 
167.064 160.995 159.517 162.466 164.107 165.508 166.219 166.615 160.061 
158.552 161.629 163.159 164.501 165.203 165.437 165.713 158.951 157.672 
160.562 162.22 163.601 164.359 164.478 164.504 164.652 157.893 156.95 
159.218 160.806 162.293 163.296 163.685 163.752 163.815 163.792 149.602 
150.658 150.456 151.59 151.355 152.007 152.588 152.36 153.148 153.699 
153.674 153.445 154.262 154.984 155.331 154.75 154.456 155.303 156.039 
156.527 156.716 155.67 155.315 156.244 156.974 157.497 157.888 158.32 
156.443 156.015 157.076 157.913 158.519 158.95 159.611 160.196 157.112 
156.541 157.845 158.78 159.578 160.056 160.642 161.413 161.782 148.338 
149.223 147.935 148.877 147.594 150.157 148.485 147.158 149.849 151.144 
147.926 146.587 149.371 150.839 152.194 147.36 146.193 148.737 150.262 
151.779 153.209 147.102 146.097 148.262 149.647 151.111 152.633 154.131 
147.05 145.984 148.1 149.303 150.613 151.955 153.493 154.957 146.865 
145.671 147.986 149.12 150.382 151.581 152.839 154.313 155.6 146.492 
145.291 147.695 148.842 150.117 151.391 152.474 153.664 154.979 156.064 