# vtk DataFile Version 4.0
vtk output
ASCII
DATASET POLYDATA
POINTS 1002 float
-85.326 -81.7105 73.5486 -85.2072 -81.1133 72.2916 -84.9256 -80.8044 73.0584 
-85.0081 -81.5442 74.3578 -84.6386 -80.5533 73.9407 -85.3887 -82.5014 74.8804 
-84.6832 -81.4165 75.2377 -84.2902 -80.404 74.8457 -85.0711 -82.4353 75.7855 
-85.4511 -83.3404 76.283 -84.3329 -81.3576 76.2015 -83.799 -80.4237 75.7752 
-84.7153 -82.4444 76.7578 -85.1338 -83.3621 77.3469 -85.501 -84.3104 77.8387 
-83.9964 -81.4227 77.3424 -83.302 -80.7008 76.8454 -84.3823 -82.5408 77.8507 
-84.6846 -83.6122 78.4085 -85.1092 -84.5686 78.9602 -85.3837 -85.7248 79.4506 
-83.6777 -81.6977 78.5757 -83.0278 -81.1267 78.1122 -84.1254 -82.6944 79.0784 
-84.2836 -83.9871 79.5375 -84.5667 -85.1074 80.0151 -84.9234 -86.2036 80.5297 
-85.0513 -87.4314 81.0034 -83.2965 -82.1494 79.7258 -82.8596 -81.4499 79.4528 
-83.7125 -83.0457 80.1851 -83.9173 -84.3705 80.6871 -84.0966 -85.7298 81.1321 
-84.389 -86.85 81.5897 -84.5707 -88.0175 82.0665 -84.5976 -89.2543 82.4772 
-82.8606 -82.6533 80.792 -82.546 -81.6915 80.6554 -83.1327 -83.6712 81.1027 
-83.3516 -84.9305 81.6171 -83.5891 -86.3751 82.1687 -83.8546 -87.6313 82.6448 
-84.0228 -88.7935 83.0715 -84.0576 -90.0912 83.4435 -84.0884 -91.346 83.7472 
-82.4416 -83.2062 81.7929 -82.1328 -82.0992 81.6303 -82.6642 -84.3824 82.0201 
-82.7904 -85.6417 82.4154 -82.9701 -87.0811 82.9568 -83.2242 -88.4747 83.4948 
-83.4075 -89.7359 83.9394 -83.4624 -91.0738 84.286 -83.4834 -92.4072 84.5477 
-83.5592 -93.5037 84.7667 -82.0909 -83.8512 82.6966 -81.8351 -82.7456 82.4665 
-82.3266 -85.028 82.949 -82.423 -86.2625 83.2594 -82.4695 -87.7077 83.6744 
-82.5967 -89.2276 84.1648 -82.7663 -90.6114 84.6331 -82.8782 -92.001 85.0234 
-82.9212 -93.3993 85.3211 -82.9617 -94.5607 85.5261 -83.0553 -95.4158 85.6853 
-84.8998 -80.3321 71.6113 -84.625 -79.9306 72.5008 -84.6359 -79.3231 71.1247 
-84.3379 -78.9749 72.1118 -84.4168 -78.1632 70.741 -84.3373 -79.6755 73.5238 
-84.0696 -77.9348 71.779 -84.2163 -77.0632 70.3908 -83.9884 -78.8225 73.2088 
-83.8579 -79.5939 74.4574 -83.8551 -76.7725 71.564 -84.1138 -75.9313 70.3221 
-83.5838 -77.7635 72.8843 -83.3198 -78.7716 74.0517 -83.1256 -79.7507 75.2834 
-83.8131 -75.4586 71.7002 -84.1879 -74.5911 70.6751 -83.261 -76.4182 72.703 
-82.83 -77.5397 73.6635 -82.5704 -78.8644 74.8028 -82.6306 -80.141 76.3834 
-83.9553 -74.2094 72.1338 -84.3339 -73.4321 71.2469 -83.2583 -75.1737 72.8636 
-82.6134 -76.1353 73.5796 -82.3795 -77.4523 74.6158 -82.4021 -79.1283 76.172 
-82.6106 -80.4889 77.9543 -84.1427 -73.3601 72.7502 -84.4879 -72.8945 71.9655 
-83.5751 -74.3099 73.394 -82.8084 -75.1887 73.9902 -82.4361 -76.1162 74.9325 
-82.4717 -77.7078 76.3921 -82.5252 -79.4392 78.0887 -82.537 -80.6417 79.5665 
-84.3374 -72.9926 73.5783 -84.7537 -72.8645 72.8631 -83.9556 -73.7231 74.2697 
-83.2886 -74.6376 74.8733 -82.6604 -75.3704 75.6834 -82.4704 -76.546 76.9273 
-82.4443 -78.3095 78.3973 -82.3019 -79.7761 79.7393 -82.1577 -80.8556 80.7935 
-84.6096 -73.0078 74.4783 -85.1711 -73.0609 73.7841 -84.2511 -73.3906 75.2675 
-83.765 -74.1856 75.9647 -83.0593 -74.9797 76.6476 -82.5284 -75.8954 77.5865 
-82.3232 -77.4097 78.7558 -82.1595 -79.0507 79.8955 -81.9345 -80.2502 80.875 
-81.8045 -81.3693 81.7142 -85.203 -73.3441 75.0211 -84.6317 -73.3742 75.9024 
-85.2075 -73.8915 76.2471 -84.6479 -73.9806 77.2747 -85.2697 -74.5805 77.4965 
-84.209 -73.8136 76.813 -84.7615 -74.8405 78.5676 -85.4966 -75.3129 78.9056 
-84.1564 -74.5596 78.1986 -83.6076 -74.6493 77.5441 -84.9633 -75.8661 80.0071 
-85.7558 -76.155 80.4626 -84.1951 -75.6695 79.5149 -83.4833 -75.5389 78.9607 
-82.8738 -75.5879 78.2912 -85.0739 -76.9298 81.536 -85.8905 -77.1799 81.8838 
-84.2492 -76.7842 81.0759 -83.4773 -76.6328 80.5004 -82.825 -76.5832 79.8679 
-82.4058 -76.861 79.2669 -85.1208 -78.1186 82.769 -85.949 -78.4108 82.9848 
-84.2775 -77.8462 82.5626 -83.4896 -77.6277 82.2075 -82.9026 -77.6095 81.6111 
-82.4895 -77.9761 80.8978 -82.2019 -78.5468 80.2986 -85.1946 -79.5081 83.7497 
-85.957 -79.7778 83.9234 -84.4344 -79.1988 83.6512 -83.6283 -78.9193 83.5319 
-82.9667 -78.849 83.203 -82.6275 -79.1498 82.5814 -82.3192 -79.6591 81.8265 
-81.9895 -80.0233 81.2322 -85.2458 -80.8783 84.8055 -85.9262 -81.0653 84.9157 
-84.6549 -80.7096 84.6717 -84.0069 -80.5714 84.5197 -83.2254 -80.5346 84.3199 
-82.6958 -80.6695 83.9857 -82.4532 -80.9388 83.4018 -82.1065 -81.1554 82.6758 
-81.7827 -81.2427 82.09 -85.3074 -82.0673 85.9208 -85.9446 -82.1517 85.9505 
-84.8051 -82.0696 85.7682 -84.3779 -82.1184 85.5273 -83.716 -82.1896 85.2743 
-82.9534 -82.2758 85.0527 -82.5301 -82.3766 84.7415 -82.2843 -82.4861 84.176 
-81.9389 -82.5623 83.4715 -81.7239 -82.62 82.8839 -81.8163 -84.2306 83.497 
-81.8418 -84.1726 84.0672 -81.8342 -85.8056 84.67 -82.1279 -84.0739 84.778 
-82.0118 -85.8414 85.3391 -81.8366 -87.4886 85.9502 -82.4048 -83.9354 85.4425 
-82.315 -85.7853 86.0325 -82.1233 -87.739 86.645 -81.8362 -89.6736 87.3867 
-82.7181 -83.834 85.8563 -82.5406 -85.6676 86.5976 -82.3713 -87.9122 87.2566 
-82.0742 -90.0698 88.0667 -81.772 -92.3368 88.9292 -83.4117 -83.7836 86.0778 
-82.9822 -85.5838 86.9627 -82.5827 -87.913 87.7804 -82.2545 -90.3081 88.5995 
-81.913 -92.5265 89.5068 -81.6566 -95.08 90.2685 -84.1887 -83.7279 86.2763 
-83.7564 -85.5898 87.0929 -83.1133 -87.8181 88.0924 -82.5718 -90.2157 89.0525 
-82.2107 -92.5029 89.8791 -81.9186 -95.0309 90.6508 -81.7233 -97.8837 91.1965 
-84.6484 -83.595 86.5336 -84.4021 -85.5666 87.1163 -83.8554 -87.771 88.0047 
-83.1804 -89.9552 89.2219 -82.6978 -92.1899 90.1412 -82.3879 -94.8045 90.7927 
-82.1441 -97.7951 91.4546 -81.9682 -100.594 91.8376 -85.0602 -83.3869 86.8014 
-84.8647 -85.3082 87.298 -84.4935 -87.5996 87.8388 -83.8891 -89.7145 89.0135 
-83.3048 -91.7715 90.2212 -82.884 -94.344 90.8547 -82.5495 -97.3991 91.4408 
-82.2874 -100.357 92.1126 -82.0951 -102.734 92.3371 -85.656 -83.2337 86.9415 
-85.4188 -84.8884 87.5915 -85.0782 -87.1231 87.9625 -84.5399 -89.3436 88.7912 
-83.9505 -91.3547 90.0908 -83.452 -93.7587 90.9376 -82.9873 -96.7092 91.3753 
-82.5466 -99.6645 92.044 -82.2248 -102.208 92.6574 -82.02 -104.214 92.6765 
-81.9815 -85.389 83.7951 -81.8098 -86.9849 85.0228 -82.0942 -86.5896 84.1168 
-81.669 -89.0732 86.4187 -81.7873 -88.529 85.4089 -82.1034 -88.1039 84.4746 
-81.6849 -92.0112 88.0453 -81.666 -91.4426 86.9507 -81.8052 -90.662 85.8703 
-82.1161 -89.907 84.9172 -81.6587 -95.2404 89.6519 -81.747 -95.0312 88.7118 
-81.7635 -94.0816 87.5711 -81.8604 -92.7113 86.3993 -82.2129 -91.5427 85.3962 
-81.5489 -98.2598 90.8075 -81.6391 -98.3743 90.2138 -81.7422 -97.7024 89.3172 
-81.7663 -96.0939 88.0914 -81.9477 -94.3439 86.8417 -82.3549 -93.0545 85.8294 
-81.6333 -101.035 91.4366 -81.4438 -101.216 91.0169 -81.4734 -100.961 90.526 
-81.5815 -99.815 89.5951 -81.7593 -97.8887 88.3598 -82.0596 -96.0279 87.215 
-82.4509 -94.6186 86.212 -81.8282 -103.327 91.7856 -81.4599 -103.572 91.2241 
-81.2472 -103.632 90.9109 -81.3328 -103.288 90.4472 -81.5782 -101.957 89.5699 
-81.8388 -99.7826 88.5828 -82.1127 -97.6335 87.5689 -82.4784 -95.9454 86.491 
-81.8679 -105.01 92.0291 -81.5395 -105.437 91.2497 -81.194 -105.709 90.782 
-81.1766 -105.921 90.5402 -81.4738 -105.498 90.1105 -81.7457 -103.819 89.4981 
-81.8954 -101.263 88.7563 -82.1153 -98.7915 87.7462 -82.5239 -96.8847 86.6259 
-81.8331 -106.065 92.4284 -81.6166 -106.914 91.5536 -81.7151 -107.987 91.8704 
-81.3797 -109.117 91.0234 -81.7384 -109.867 91.2587 -81.239 -107.519 90.748 
-81.2764 -111.667 90.5119 -81.8492 -111.584 90.6259 -80.9919 -110.223 90.2534 
-81.0328 -108.064 90.287 -81.3263 -114.017 89.7884 -82.0506 -112.98 89.9138 
-80.9178 -113.296 89.598 -81.0008 -110.865 89.6228 -81.3105 -108.231 89.9802 
-81.6639 -115.019 88.9648 -82.5409 -113.375 89.3127 -81.07 -115.347 88.7208 
-81.0404 -113.32 88.7545 -81.4497 -110.278 89.2137 -81.7172 -107.239 89.6596 
-82.4209 -114.088 88.4022 -83.2748 -112.378 88.8839 -81.6176 -115.075 88.0097 
-81.236 -114.051 87.9692 -81.4555 -111.394 88.4081 -81.7884 -108.284 89.0539 
-81.8598 -104.844 89.2667 -83.2635 -112.061 88.1061 -83.8999 -110.599 88.5268 
-82.4911 -113.067 87.6757 -81.8182 -112.739 87.5629 -81.6403 -110.983 87.906 
-81.8364 -108.437 88.4731 -81.9372 -105.256 88.8002 -81.9607 -101.792 88.5292 
-83.8506 -109.802 88.021 -84.3409 -108.605 88.3192 -83.2758 -110.63 87.6638 
-82.6376 -110.514 87.5219 -82.2383 -109.32 87.815 -82.2298 -107.468 88.2731 
-82.2848 -104.974 88.4436 -82.2465 -101.922 88.1394 -82.3093 -99.0809 87.4543 
-84.3292 -107.391 88.1128 -84.8105 -106.455 88.2755 -83.8663 -108.061 87.8851 
-83.3841 -108.081 87.7353 -83.0062 -107.223 87.9314 -82.9026 -105.754 88.3346 
-82.9143 -103.879 88.4208 -82.8251 -101.547 87.9755 -82.7574 -99.1198 87.2167 
-82.8548 -97.0793 86.4077 -82.0514 -104.217 93.0137 -81.9685 -106.197 92.7897 
-82.4305 -103.984 93.1838 -82.5389 -106.035 93.0368 -83.2748 -103.636 93.2907 
-82.0788 -108.069 92.1462 -83.4597 -105.569 93.2834 -84.0717 -103.018 93.1507 
-82.8129 -107.69 92.4082 -82.3335 -109.453 91.3832 -84.1141 -104.578 93.11 
-84.4489 -101.769 92.3751 -83.6395 -106.904 92.7227 -83.14 -108.712 91.5905 
-82.6127 -110.594 90.6707 -84.3698 -102.874 92.1237 -84.8592 -99.8909 91.338 
-84.0454 -105.529 92.4752 -83.8143 -107.741 91.8352 -83.4992 -109.688 90.8691 
-82.9897 -111.637 90.0943 -84.8493 -100.684 91.0762 -85.6479 -97.867 90.7323 
-84.2762 -103.505 91.5558 -84.0845 -106.042 91.5751 -84.1051 -108.351 91.0172 
-83.9271 -110.311 90.3403 -83.5494 -111.665 89.6494 -85.7716 -98.4249 90.5664 
-86.5383 -96.0459 90.3343 -85.0435 -101.133 90.8662 -84.5649 -103.722 91.0767 
-84.4507 -106.014 90.9007 -84.4718 -108.1 90.4305 -84.3399 -109.634 89.8465 
-84.1021 -110.388 89.176 -86.7668 -96.318 90.0867 -87.3228 -94.4055 89.65 
-86.2214 -98.6832 90.4905 -85.7185 -101.251 90.8286 -85.2874 -103.457 90.8662 
-85.0084 -105.287 90.5253 -84.8671 -106.92 89.9755 -84.7331 -108.064 89.3442 
-84.543 -108.577 88.7474 -87.6227 -94.4537 89.2845 -88.0595 -92.8978 88.7763 
-87.2343 -96.3604 89.8227 -86.9193 -98.7063 90.386 -86.539 -101.024 90.7468 
[...]
CELL_DATA 2000
SCALARS Distance double
LOOKUP_TABLE default
137.456 137.567 137.864 138.612 137.745 138.025 138.809 139.1 139.885 
137.972 138.246 139.074 139.357 140.208 140.445 141.269 138.349 138.565 
139.471 139.707 140.619 140.837 141.733 141.928 142.825 138.979 139.086 
140.048 140.218 141.178 141.344 142.282 142.452 143.398 143.576 144.506 
139.748 139.793 140.687 140.835 141.795 141.969 142.94 143.086 144.052 
144.194 145.151 145.286 146.192 140.455 140.514 141.309 141.437 142.344 
142.555 143.556 143.766 144.764 144.904 145.861 145.966 146.897 146.988 
147.88 141.069 141.157 141.961 142.054 142.931 143.095 144.085 144.335 
145.368 145.586 146.556 146.691 147.617 147.718 148.625 148.696 149.547 
141.713 141.789 142.648 142.732 143.607 143.714 144.648 144.856 145.866 
146.126 147.114 147.325 148.262 148.419 149.335 149.441 150.297 150.331 
151.087 136.759 135.759 136.446 136.846 134.772 135.467 135.896 136.588 
137.03 133.806 134.502 134.976 135.677 136.117 136.778 137.219 132.937 
133.567 134.012 134.725 135.139 135.83 136.208 136.937 137.474 132.279 
132.779 133.118 133.72 134.032 134.738 135.09 135.87 136.42 137.296 
138.064 131.896 132.245 132.553 132.925 133.145 133.649 134.014 134.749 
135.426 136.318 137.221 138.091 138.961 131.872 132.032 132.424 132.596 
132.878 133.054 133.442 133.896 134.683 135.478 136.531 137.383 138.335 
139.044 139.772 132.274 132.215 132.676 132.724 133.171 133.153 133.584 
133.696 134.427 134.96 136.024 136.8 137.79 138.474 139.186 139.775 
140.37 133.006 132.78 133.212 133.167 133.708 133.663 134.152 134.091 
134.678 134.902 135.795 136.384 137.357 137.987 138.728 139.243 139.829 
140.367 140.99 133.584 134.533 133.919 133.774 135.603 134.953 134.838 
134.272 134.251 136.845 136.12 136.02 135.388 135.346 134.775 134.721 
138.295 137.492 137.407 136.66 136.601 135.92 135.864 135.236 135.254 
139.794 139.006 138.934 138.137 138.072 137.283 137.243 136.505 136.592 
135.969 136.285 141.194 140.468 140.398 139.651 139.593 138.81 138.798 
138.02 138.149 137.459 137.784 137.234 137.716 142.539 141.843 141.817 
141.098 141.099 140.34 140.393 139.632 139.818 139.113 139.423 138.785 
139.137 138.619 139 143.868 143.208 143.27 142.574 142.689 141.932 
142.076 141.294 141.528 140.812 141.144 140.459 140.756 140.071 140.32 
139.766 140.08 145.153 144.555 144.69 144.065 144.269 143.589 143.803 
143.046 143.268 142.532 142.829 142.156 142.46 141.743 141.968 141.228 
141.476 140.881 141.253 142.152 142.435 142.74 143.726 142.941 143.161 
144.173 144.435 145.449 143.421 143.678 144.683 144.959 146.038 146.268 
147.391 143.802 144.091 145.089 145.425 146.548 146.885 148.083 148.36 
149.66 144.263 144.5 145.514 145.814 146.957 147.356 148.608 148.999 
150.276 150.661 152.03 144.777 145.015 146.028 146.29 147.408 147.776 
149.019 149.453 150.71 151.144 152.439 152.941 154.335 145.175 145.469 
146.44 146.761 147.814 148.201 149.364 149.814 151.007 151.469 152.701 
153.238 154.615 155.212 156.607 145.515 145.795 146.719 147.07 148.064 
148.488 149.571 150.06 151.183 151.679 152.825 153.384 154.672 155.367 
156.756 157.399 158.6 145.901 146.128 147.008 147.32 148.263 148.657 
149.67 150.16 151.238 151.772 152.875 153.432 154.6 155.282 156.55 
157.329 158.516 159.143 160.025 142.425 143.938 143.223 143.371 145.576 
144.772 144.868 144.181 144.334 147.529 146.531 146.623 145.764 145.936 
145.192 145.4 149.976 148.813 149.053 147.861 148.1 147.033 147.276 
146.386 146.644 152.567 151.513 152.017 150.72 151.066 149.637 149.825 
148.531 148.694 147.697 147.906 154.969 154.11 154.78 153.74 154.202 
152.824 152.929 151.359 151.307 149.937 149.988 148.955 149.1 157.194 
156.433 157.051 156.256 156.759 155.744 155.919 154.481 154.341 152.737 
152.608 151.23 151.258 150.161 150.24 159.088 158.476 158.907 158.243 
158.633 157.943 158.26 157.25 157.3 155.827 155.673 154.058 153.917 
152.496 152.417 151.258 151.21 160.444 160.052 160.333 159.801 160.02 
159.515 159.849 159.283 159.576 158.602 158.609 157.152 156.905 155.286 
154.966 153.52 153.259 152.108 151.95 161.135 162.034 161.44 161.032 
162.983 162.365 161.973 161.233 160.754 164.034 163.478 163.249 162.361 
161.933 161.066 160.665 164.949 164.633 164.683 163.853 163.464 162.432 
161.99 161.091 160.567 165.368 165.401 165.569 165.166 164.775 163.902 
163.236 162.357 161.673 160.784 159.799 165.062 165.412 165.419 165.544 
165.075 164.709 163.811 163.211 162.253 161.595 160.47 159.565 158.127 
164.15 164.669 164.48 164.879 164.322 164.392 163.441 163.225 162.144 
161.77 160.555 159.912 158.425 157.545 156.005 162.961 163.513 163.261 
163.707 163.148 163.364 162.497 162.505 161.514 161.368 160.238 159.796 
158.379 157.648 156.133 155.368 154.07 161.719 162.247 161.967 162.427 
161.912 162.186 161.426 161.523 160.655 160.639 159.665 159.408 158.166 
157.575 156.171 155.456 154.213 153.589 152.622 161.182 161.419 161.623 
162.169 161.663 161.897 162.526 162.594 163.076 161.834 162.196 162.824 
162.921 163.325 163.412 163.874 161.334 162.144 162.821 163.139 163.451 
163.541 163.827 164.073 164.548 159.963 161.159 161.908 162.759 163.151 
163.525 163.767 163.979 164.331 164.652 165.022 158.473 159.558 160.259 
161.413 161.939 162.825 163.177 163.745 164.055 164.428 164.656 164.927 
164.924 157.391 158.185 158.782 159.771 160.364 161.378 161.825 162.736 
163.039 163.79 163.899 164.391 164.228 164.488 164.107 156.446 157.154 
157.666 158.499 159.128 160.003 160.538 161.345 161.656 162.437 162.535 
163.246 163.084 163.573 163.175 163.448 162.938 155.428 156.124 156.536 
157.368 157.942 158.868 159.46 160.254 160.613 161.207 161.317 161.864 
161.81 162.32 162.076 162.443 162.028 162.251 161.745 146.392 147.479 
147.123 147.512 148.564 148.256 148.716 148.328 148.768 149.634 149.372 
149.906 149.558 150.053 149.651 150.16 150.734 150.5 151.104 150.772 
151.338 150.967 151.557 151.151 151.74 151.838 151.668 152.359 152.029 
152.649 152.289 152.987 152.626 153.336 152.856 153.457 152.873 152.804 
153.598 153.324 153.975 153.63 154.394 154.11 154.973 154.561 155.281 
154.656 155.243 153.771 153.812 154.671 154.526 155.211 154.934 155.722 
155.525 156.519 156.25 157.12 156.563 157.211 156.515 157.141 154.467 
154.605 155.451 155.477 156.193 156.072 156.891 156.816 157.913 157.811 
158.842 158.419 159.116 158.465 159.038 158.409 159.005 154.955 155.155 
155.948 156.107 156.839 156.902 157.741 157.851 158.989 159.124 160.273 
160.092 160.842 160.289 160.748 160.148 160.585 160.071 160.464 145.955 
145.627 146.181 146.974 145.211 145.805 146.558 147.174 147.986 144.701 
145.332 146.082 146.714 147.503 148.16 149 144.26 144.837 145.617 
146.231 147.026 147.666 148.486 149.164 150.032 144.025 144.501 145.274 
145.814 146.618 147.217 148.025 148.654 149.461 150.161 151.034 143.84 
144.314 145.044 145.529 146.294 146.844 147.655 148.238 149.008 149.602 
150.372 151.104 151.977 143.528 144.052 144.754 145.273 145.984 146.52 
147.298 147.883 148.67 149.213 149.924 150.49 151.254 152.01 152.864 
143.204 143.687 144.367 144.909 145.601 146.157 146.876 147.481 148.247 
148.851 149.572 150.102 150.788 151.373 152.135 152.871 153.64 143.042 
143.413 144.06 144.531 145.215 145.743 146.43 147.008 147.712 148.346 
149.055 149.677 150.363 150.943 151.637 152.243 152.942 153.604 154.231 
143.215 143.844 143.74 144.213 144.555 144.44 144.933 144.81 145.341 
145.276 145.201 145.74 145.587 146.097 145.973 146.535 145.943 145.934 
146.544 146.425 146.939 146.763 147.283 147.178 147.777 146.618 146.63 
147.341 147.264 147.835 147.629 148.113 147.943 148.512 148.45 149.095 
147.381 147.373 148.158 148.113 148.746 148.545 149.019 148.794 149.343 
149.232 149.911 149.836 150.483 148.197 148.164 148.91 148.912 149.543 
149.423 149.898 149.696 150.242 150.114 150.83 150.739 151.451 151.27 
151.844 148.948 148.903 149.501 149.541 150.123 150.124 150.648 150.543 
151.11 151.011 151.711 151.657 152.362 152.247 152.824 152.602 153.094 
149.513 149.487 149.925 149.984 150.533 150.632 151.272 151.288 151.94 
151.868 152.513 152.454 153.068 153.028 153.56 153.47 153.939 153.785 
154.261 149.849 150.467 150.166 150.269 151.591 151.024 151.235 150.78 
150.986 153.166 152.458 152.717 152.06 152.346 151.727 151.914 154.516 
153.991 154.175 153.609 153.847 153.241 153.399 152.693 152.703 155.617 
155.181 155.372 154.891 155.068 154.589 154.689 154.105 154.038 153.343 
153.225 157.019 156.473 156.9 156.234 156.568 155.883 156.1 155.385 
155.377 154.614 154.468 153.773 153.674 158.607 158.115 158.721 158.051 
158.548 157.73 158.118 157.172 157.34 156.26 156.174 155.145 155.006 
154.231 154.155 159.948 159.639 160.213 159.786 160.22 159.652 159.976 
159.26 159.456 158.481 158.418 157.191 156.943 155.788 155.585 154.728 
154.601 161.014 160.804 161.313 161.032 161.381 160.997 161.182 160.731 
160.812 160.254 160.165 159.305 158.958 157.823 157.398 156.315 156.025 
155.168 154.981 149.738 149.646 149.889 150.3 149.393 149.761 150.289 
150.586 151.319 149.046 149.521 150.231 150.631 151.511 151.903 152.882 
148.7 149.243 150.103 150.615 151.588 152.085 153.077 153.484 154.292 
148.366 148.949 149.851 150.462 151.395 152.01 152.901 153.473 154.23 
154.643 155.302 148.024 148.608 149.454 150.115 150.958 151.628 152.403 
153.063 153.797 154.392 155.137 155.633 156.494 147.66 148.221 148.979 
149.628 150.416 151.086 151.851 152.499 153.288 153.926 154.8 155.415 
156.388 156.969 157.986 147.275 147.811 148.505 149.111 149.867 150.523 
151.321 151.979 152.83 153.49 154.435 155.106 156.134 156.8 157.836 
158.441 159.371 146.914 147.414 148.085 148.641 149.371 149.992 150.783 
151.457 152.308 153.023 153.948 154.7 155.7 156.462 157.484 158.193 
159.142 159.715 160.503 149.32 148.348 149.025 149.201 146.988 147.844 
148.116 148.796 148.873 145.68 146.442 146.737 147.554 147.732 148.371 
148.416 144.603 145.252 145.517 146.239 146.493 147.168 147.26 147.868 
147.954 143.443 144.176 144.431 145.123 145.35 145.997 146.106 146.692 
146.744 147.398 147.561 142.085 142.895 143.125 143.928 144.085 144.815 
144.874 145.518 145.54 146.18 146.296 147.024 147.245 140.782 141.51 
141.686 142.49 142.622 143.414 143.464 144.194 144.22 144.922 145.023 
145.757 145.958 146.718 146.936 139.68 140.285 140.429 141.102 141.241 
141.956 142.057 142.774 142.857 143.573 143.697 144.445 144.637 145.416 
145.634 146.393 146.582 138.718 139.262 139.405 139.967 140.088 140.688 
140.792 141.446 141.564 142.259 142.413 143.135 143.332 144.085 144.309 
145.078 145.295 146.039 146.232 138.24 137.712 138.314 138.935 137.036 
137.729 138.366 138.97 139.561 136.316 137.008 137.64 138.305 138.902 
139.555 140.185 135.835 136.382 137.04 137.606 138.227 138.858 139.555 
140.231 140.955 135.71 136.09 136.809 137.211 137.894 138.344 139.102 
139.682 140.516 141.114 141.877 135.829 136.095 136.821 137.155 137.894 
138.231 139.007 139.429 140.295 140.802 141.641 142.118 142.85 136.116 
136.284 136.976 137.247 138.006 138.319 139.1 139.453 140.287 140.708 
141.55 141.976 142.739 143.137 143.842 136.557 136.641 137.331 137.498 
138.271 138.507 139.311 139.592 140.411 140.754 141.582 141.956 142.734 
143.091 143.809 144.162 144.846 137.107 137.146 137.84 137.941 138.712 
138.875 139.691 139.891 140.71 140.949 141.764 142.053 142.843 143.149 
143.886 144.189 144.879 145.184 145.826 137.666 138.82 138.282 138.417 
140.061 139.484 139.63 139.101 139.296 141.413 140.765 140.909 140.35 
140.578 140.052 140.284 142.974 142.22 142.361 141.697 141.944 141.383 
141.66 141.088 141.314 144.657 143.875 144.015 143.253 143.474 142.828 
143.128 142.522 142.772 142.137 142.347 146.33 145.575 145.71 144.931 
145.098 144.403 144.673 144.044 144.312 143.647 143.846 143.182 143.388 
148.033 147.279 147.449 146.634 146.77 146.013 146.236 145.591 145.87 
145.22 145.434 144.725 144.89 144.218 144.409 149.714 149.017 149.249 
148.435 148.573 147.723 147.877 147.148 147.399 146.766 147.008 146.326 
146.481 145.754 145.884 145.212 145.379 151.231 150.643 150.914 150.217 
150.374 149.544 149.614 148.797 148.927 148.258 148.464 147.847 148.005 
147.321 147.405 146.695 146.784 146.14 146.282 146.952 147.488 147.514 
148.147 148.138 148.132 148.79 148.779 149.448 148.756 148.804 149.49 
149.481 150.173 150.15 150.866 149.244 149.377 150.12 150.183 150.932 
150.93 151.696 151.654 152.423 149.785 149.895 150.754 150.844 151.745 
151.769 152.665 152.594 153.458 153.328 154.138 150.562 150.604 151.602 
151.641 152.746 152.759 153.881 153.763 154.775 154.54 155.449 155.176 
155.986 151.35 151.469 152.551 152.643 153.88 153.944 155.241 155.165 
156.321 156.048 157.024 156.659 157.521 157.121 157.857 151.861 152.141 
153.235 153.527 154.815 155.077 156.43 156.531 157.722 157.588 158.567 
158.274 159.124 158.734 159.462 158.984 159.559 152.153 152.512 153.603 
154.046 155.367 155.845 157.237 157.561 158.745 158.806 159.742 159.636 
160.455 160.233 160.932 160.549 161.068 160.557 160.925 132.922 132.081 
132.503 132.668 131.542 131.691 131.694 132.248 132.484 131.482 131.288 
131.04 131.297 131.419 132.051 132.344 131.87 131.422 131.027 130.84 
130.764 131.087 131.41 132.034 132.509 132.567 131.999 131.674 131.149 
130.989 130.791 131.048 131.344 131.948 132.488 133.169 133.479 132.87 
132.704 132.075 132.002 131.44 131.614 131.419 131.983 132.216 132.991 
133.404 134.148 134.502 133.905 133.841 133.249 133.276 132.658 132.792 
132.31 132.73 132.598 133.323 133.484 134.294 134.546 135.273 135.532 
134.97 134.939 134.407 134.465 133.926 134.052 133.537 133.845 133.52 
134.121 134.056 134.847 134.925 135.707 135.803 136.486 136.546 136.006 
135.978 135.473 135.527 135.051 135.186 134.727 134.985 134.618 135.088 
134.916 135.597 135.593 136.341 136.377 137.055 137.067 137.65 133.486 
133.315 133.714 134.355 133.155 133.567 134.182 134.572 135.155 132.994 
133.373 133.953 134.35 134.915 135.33 135.953 133.125 133.3 133.886 
134.16 134.773 135.13 135.828 136.237 137.005 133.724 133.659 134.262 
134.314 134.988 135.173 135.939 136.237 137.048 137.409 138.2 134.591 
134.402 134.954 134.879 135.519 135.575 136.31 136.489 137.264 137.526 
138.286 138.6 139.304 135.578 135.293 135.755 135.605 136.153 136.142 
136.792 136.904 137.623 137.804 138.539 138.759 139.47 139.701 140.338 
136.685 136.306 136.71 136.443 136.948 136.809 137.428 137.424 138.136 
138.223 138.963 139.098 139.823 139.975 140.637 140.769 141.338 137.795 
137.411 137.775 137.452 137.931 137.694 138.288 138.162 138.847 138.825 
139.527 139.578 140.255 140.366 141.003 141.123 141.686 141.769 142.261 
133.855 134.68 134.408 134.75 135.507 135.249 135.57 135.343 135.775 
136.354 136.082 136.451 136.195 136.623 136.43 136.982 137.413 137.044 
137.447 137.124 137.579 137.332 137.892 137.735 138.401 138.599 138.214 
138.624 138.225 138.657 138.333 138.876 138.681 139.34 139.217 139.899 
139.668 139.363 139.783 139.428 139.818 139.445 139.9 139.654 140.272 
140.153 140.836 140.706 141.327 140.62 140.348 140.765 140.505 140.91 
140.577 140.965 140.66 141.186 141.044 141.723 141.634 142.288 142.111 
142.674 141.55 141.264 141.663 141.437 141.895 141.629 142.052 141.721 
142.18 141.95 142.571 142.487 143.17 143.06 143.65 143.442 143.966 
142.448 142.168 142.554 142.334 142.825 142.613 143.103 142.809 143.257 
142.959 143.486 143.328 143.966 143.892 144.506 144.374 144.901 144.702 
145.202 149.153 148.429 148.608 148.099 147.55 147.737 147.186 147.369 
146.763 146.708 146.843 146.358 146.514 146.022 146.087 145.55 145.968 
146.05 145.609 145.783 145.386 145.47 144.952 144.968 144.448 145.29 
145.328 144.782 144.981 144.503 144.735 144.131 144.264 143.579 143.749 
143.171 144.623 144.628 143.938 144.055 143.42 143.668 143.001 143.23 
142.491 142.707 142.048 142.342 141.804 143.957 143.949 143.236 143.22 
142.532 142.615 141.994 142.13 141.509 141.64 141.052 141.244 140.746 
141.012 140.565 143.323 143.32 142.683 142.606 141.953 141.896 141.314 
141.329 140.786 140.83 140.284 140.375 139.871 140.05 139.606 139.856 
139.468 142.741 142.745 142.181 142.122 141.507 141.415 140.801 140.757 
140.16 140.174 139.563 139.629 139.039 139.189 138.676 138.913 138.491 
138.796 138.464 
POINT_DATA 1002
SCALARS Distance double
LOOKUP_TABLE default
138.164 137.079 137.128 138.302 137.274 139.374 138.501 137.461 139.628 
140.657 138.778 137.68 139.945 141.055 142.1 139.239 138.13 140.401 
141.515 142.632 143.746 139.892 138.917 141.017 142.122 143.213 144.355 
145.423 140.574 139.757 141.598 142.774 143.929 145.018 146.086 147.073 
141.214 140.396 142.142 143.299 144.601 145.769 146.801 147.812 148.762 
141.864 140.95 142.809 143.848 145.113 146.395 147.51 148.548 149.522 
150.362 142.557 141.635 143.527 144.489 145.613 146.877 148.075 149.207 
150.258 151.116 151.789 136.074 136.137 135.067 135.199 134.055 136.356 
134.255 133.112 135.479 136.518 133.34 132.364 134.446 135.495 136.614 
132.64 131.84 133.38 134.276 135.503 137.148 132.263 131.592 132.762 
133.297 134.473 136.308 138.212 132.246 131.782 132.767 133.109 133.924 
135.66 137.632 139.166 132.621 132.423 133.163 133.588 134.061 135.303 
137.115 138.629 139.767 133.299 133.299 133.721 134.243 134.631 135.348 
136.739 138.222 139.336 140.387 134.156 134.305 135.14 135.418 136.255 
134.794 136.69 137.592 135.954 135.293 138.196 139.1 137.338 136.515 
135.789 139.726 140.559 138.882 138.001 137.217 136.774 141.122 141.905 
140.348 139.551 138.845 138.389 138.193 142.505 143.209 141.826 141.125 
140.504 140.109 139.776 139.445 143.915 144.484 143.395 142.849 142.256 
141.828 141.498 140.997 140.519 145.27 145.707 144.889 144.527 144.036 
143.515 143.147 142.737 142.172 141.74 143.085 143.397 144.7 143.917 
145.21 146.441 144.383 145.753 147.155 148.583 144.746 146.143 147.753 
149.348 151.057 145.242 146.558 148.178 149.902 151.586 153.456 145.771 
147.074 148.6 150.286 151.95 153.788 155.77 146.111 147.441 148.935 
150.564 152.178 153.981 156.085 157.972 146.388 147.663 149.095 150.689 
152.303 154.001 156.044 158.147 159.686 146.729 147.912 149.221 150.701 
152.329 153.999 155.81 157.806 159.602 160.793 144.031 145.588 144.989 
147.567 146.72 146.103 150.296 149.305 148.283 147.45 153.197 152.569 
151.333 149.869 148.772 155.689 155.465 154.58 152.883 151.177 150.024 
157.848 157.625 157.196 155.99 154.159 152.499 151.261 159.614 159.265 
159.017 158.575 157.345 155.528 153.736 152.261 160.861 160.531 160.271 
160.265 159.897 158.595 156.603 154.57 152.951 161.756 161.708 162.642 
162.751 163.561 161.466 164.13 164.419 162.874 161.468 165.361 165.077 
164.565 162.965 161.548 165.773 165.264 165.58 164.186 162.568 160.916 
165.206 164.723 165.281 164.365 162.89 161.313 159.193 164.086 163.646 
164.155 163.535 162.432 161.121 159.244 156.85 162.815 162.428 162.887 
162.409 161.559 160.565 159.039 156.864 154.693 161.506 161.228 161.587 
161.271 160.613 159.81 158.637 156.834 154.822 153.129 161.004 162.115 
161.144 162.438 161.414 163.033 162.744 161.351 163.3 163.65 162.344 
160.313 163.382 163.68 164.158 160.828 158.756 162.559 163.52 164.108 
164.732 159.099 157.575 160.859 162.405 163.614 164.45 164.791 157.892 
156.715 159.366 160.878 162.199 163.313 163.94 163.958 156.865 155.764 
158.252 159.778 160.969 161.809 162.493 162.829 162.746 155.751 154.775 
156.998 158.586 160.028 160.853 161.3 161.646 161.761 161.587 146.744 
147.9 147.796 149.076 148.823 149.176 150.222 149.864 150.428 150.563 
151.421 150.922 151.676 151.919 152.197 152.666 151.932 152.998 153.282 
153.769 154.05 153.821 152.872 154.317 154.622 155.287 155.873 155.931 
154.749 153.699 155.45 155.877 156.679 157.602 157.896 157.816 155.374 
154.335 156.24 156.904 157.906 159.163 159.769 159.692 159.613 145.416 
146.386 145.083 145.951 144.602 147.343 145.447 144.057 146.853 148.318 
145.012 143.716 146.397 147.832 149.314 144.778 143.583 146.036 147.426 
148.821 150.252 144.582 143.358 145.776 147.073 148.472 149.737 151.133 
144.22 143.008 145.463 146.715 148.11 149.435 150.605 152.029 143.836 
142.771 145.048 146.296 147.623 149.014 150.271 151.492 152.892 143.634 
142.722 144.712 145.888 147.111 148.406 149.751 151.072 152.351 153.591 