# vtk DataFile Version 4.0
vtk output
ASCII
DATASET POLYDATA
POINTS 1002 float
-83.9024 -82.6055 73.6127 -83.8314 -82.1712 72.2353 -83.2503 -82.0222 72.9295 
-83.259 -82.625 74.349 -82.6955 -81.8428 73.7392 -83.7967 -83.3336 74.9629 
-82.6281 -82.6223 75.1878 -82.204 -81.619 74.655 -83.171 -83.475 75.7496 
-83.6953 -84.233 76.4281 -82.1446 -82.4923 76.1522 -81.7171 -81.449 75.6327 
-82.6592 -83.5449 76.7661 -83.2359 -84.3681 77.4666 -83.7481 -85.1921 78.3472 
-81.8654 -82.3401 77.3271 -81.404 -81.3933 76.9151 -82.3535 -83.4823 77.9794 
-82.869 -84.4833 78.7776 -83.3494 -85.3943 79.6268 -83.6859 -86.4077 80.429 
-81.8187 -82.3392 78.8977 -81.4522 -81.4284 78.571 -82.1551 -83.5061 79.3942 
-82.4919 -84.6584 80.0979 -82.8307 -85.72 80.8847 -83.1196 -86.8906 81.5714 
-83.3095 -88.0394 82.0838 -81.781 -82.5157 80.5212 -81.5408 -81.5477 80.0995 
-81.8911 -83.7667 80.9944 -82.0464 -85.0602 81.4984 -82.236 -86.2182 82.0281 
-82.4144 -87.492 82.5723 -82.6516 -88.7894 83.0866 -82.8966 -89.8488 83.5165 
-81.5053 -82.8146 81.7409 -81.3378 -81.7655 81.325 -81.4684 -84.1605 82.3421 
-81.5569 -85.6152 82.9692 -81.8246 -86.8768 83.4344 -81.931 -88.1714 83.7647 
-82.0204 -89.5807 84.1792 -82.328 -90.7295 84.6794 -82.6613 -91.584 85.0698 
-81.1706 -83.2071 82.8472 -81.0286 -82.0881 82.5966 -81.1077 -84.6005 83.3748 
-81.1238 -86.1585 84.1286 -81.5054 -87.5652 84.8518 -81.8033 -88.8864 85.2938 
-81.7677 -90.3573 85.5716 -81.8723 -91.6847 85.9464 -82.2334 -92.6114 86.3274 
-82.5359 -93.3447 86.5126 -81.0135 -83.6646 84.1903 -80.8844 -82.5117 84 
-81.0163 -85.0713 84.5618 -80.9501 -86.6611 85.1511 -81.1576 -88.1993 85.8886 
-81.5523 -89.6071 86.5618 -81.6945 -91.0855 86.9799 -81.7131 -92.5695 87.2481 
-81.9498 -93.741 87.5128 -82.2712 -94.5962 87.6724 -82.4518 -95.352 87.6459 
-83.2768 -81.7536 71.3003 -82.7297 -81.4179 72.0268 -82.7766 -81.1613 70.513 
-82.3199 -80.6045 71.3247 -82.5913 -80.1811 70.0663 -82.3433 -80.9931 72.9886 
-82.0562 -79.4796 70.9537 -82.6187 -78.902 69.8733 -82.0055 -80.0196 72.4179 
-81.9222 -80.668 74.0563 -81.8296 -78.1944 70.7705 -82.6099 -77.679 69.7913 
-81.5747 -78.8371 72.0539 -81.5549 -79.6406 73.5934 -81.339 -80.5539 75.1926 
-81.8391 -77.071 70.8091 -82.727 -76.6932 69.9469 -81.2749 -77.5855 71.8951 
-81.1631 -78.338 73.3149 -81.0037 -79.43 74.9341 -80.9981 -80.5287 76.7049 
-82.328 -76.1981 71.312 -83.1973 -75.9423 70.4888 -81.5393 -76.5789 72.2112 
-81.1203 -77.0671 73.4394 -80.9146 -77.9637 74.9733 -80.8023 -79.296 76.6725 
-81.104 -80.5338 78.4535 -83.0362 -75.5209 72.1904 -83.8392 -75.5004 71.3252 
-82.2276 -75.7766 73.049 -81.5333 -76.1817 74.1492 -81.1401 -76.7663 75.5098 
-80.9414 -77.8733 76.9602 -80.9449 -79.335 78.4862 -81.18 -80.631 80.0001 
-83.6351 -75.1567 73.1073 -84.4081 -75.3974 72.2434 -82.8992 -75.1409 74.008 
-82.126 -75.4977 75.1223 -81.5233 -76.0787 76.4027 -81.2508 -76.9149 77.6187 
-81.1113 -78.1615 78.828 -81.0066 -79.5649 80.1605 -80.9952 -80.8479 81.4549 
-84.1267 -75.1736 73.8946 -84.8894 -75.4973 73.0919 -83.4581 -74.9177 74.8125 
-82.7638 -75.0437 75.9585 -82.0593 -75.6174 77.2288 -81.6158 -76.4499 78.3581 
-81.4371 -77.4661 79.3804 -81.2211 -78.6631 80.559 -80.9533 -79.9333 81.8367 
-80.8333 -81.2084 82.9845 -84.9033 -75.5043 74.3879 -84.1896 -75.2039 75.3128 
-85.0791 -75.6086 75.9059 -84.4487 -75.4572 77.0823 -85.3876 -75.7624 77.7535 
-83.5822 -75.0398 76.484 -84.8163 -75.8454 78.9611 -85.6661 -76.0547 79.4528 
-83.9206 -75.5244 78.3418 -82.9153 -75.3516 77.7866 -85.0769 -76.4854 80.4356 
-85.819 -76.8377 80.6947 -84.2773 -76.2584 79.9842 -83.2472 -76.0958 79.4661 
-82.2407 -76.1712 78.9592 -85.1685 -77.534 81.7359 -85.91 -77.9848 81.9793 
-84.4123 -77.192 81.4458 -83.4812 -77.0278 81.0385 -82.508 -77.0576 80.551 
-81.8349 -77.2059 80.0074 -85.2399 -78.6524 83.2794 -86.0276 -78.9672 83.5026 
-84.4346 -78.2405 83.101 -83.5394 -77.9345 82.8493 -82.658 -77.9355 82.3967 
-82.0311 -78.1046 81.8304 -81.5912 -78.2945 81.2152 -85.3877 -79.6667 84.742 
-86.1454 -79.8641 84.8359 -84.5825 -79.3492 84.6901 -83.6924 -78.9613 84.6163 
-82.8138 -78.8451 84.3029 -82.1929 -79.0462 83.7797 -81.7342 -79.2592 83.2169 
-81.2589 -79.4936 82.5694 -85.5177 -80.8157 85.8711 -86.186 -80.9847 85.8616 
-84.8113 -80.6131 85.9067 -84.0089 -80.3084 85.9419 -83.1215 -80.1217 85.777 
-82.423 -80.2569 85.3612 -81.9492 -80.4759 84.9047 -81.4341 -80.6002 84.4357 
-80.9693 -80.8137 83.7786 -85.5522 -82.0486 86.8578 -86.1579 -82.1867 86.7852 
-84.9522 -81.9039 86.962 -84.2904 -81.7207 87.065 -83.4631 -81.5912 87.0066 
-82.6783 -81.6703 86.6949 -82.1588 -81.8599 86.267 -81.7028 -81.9434 85.8821 
-81.2011 -81.9938 85.4456 -80.8927 -82.1876 84.7916 -80.9638 -83.7714 85.5867 
-81.0256 -83.5018 86.3332 -81.0035 -85.2962 87.3446 -81.3521 -83.3454 86.8715 
-81.056 -84.988 87.9812 -80.9088 -87.0535 89.0306 -81.8205 -83.2853 87.3294 
-81.405 -84.7275 88.5261 -81.0384 -86.684 89.5743 -80.9603 -89.0886 90.3358 
-82.2726 -83.1731 87.8049 -81.8867 -84.5647 89.0917 -81.503 -86.3423 90.1336 
-81.2523 -88.7531 90.8301 -81.3465 -91.3299 91.3268 -82.9323 -82.987 88.1873 
-82.4283 -84.422 89.4859 -82.0449 -86.1806 90.5327 -81.7433 -88.4745 91.2742 
-81.6232 -91.0562 91.8937 -81.7249 -93.6774 92.3432 -83.8195 -82.8894 88.3519 
-83.2658 -84.2174 89.6625 -82.7445 -86.0729 90.6246 -82.3208 -88.406 91.3722 
-82.0448 -90.8345 92.2255 -81.9491 -93.4298 92.9426 -81.8924 -96.29 93.2333 
-84.5643 -82.9554 88.2601 -84.1623 -84.0722 89.6564 -83.7047 -85.8314 90.6613 
-83.179 -88.3072 91.313 -82.7307 -90.7541 92.162 -82.4757 -93.1609 93.0889 
-82.2814 -96.0433 93.5669 -81.9982 -99.1673 93.5947 -85.1365 -83.1063 88.0292 
-84.7909 -84.131 89.3896 -84.4915 -85.6373 90.543 -84.0835 -88.0092 91.28 
-83.6033 -90.582 92.0068 -83.2506 -92.9167 92.8919 -82.9561 -95.6161 93.4892 
-82.5487 -98.8267 93.6331 -82.0793 -101.906 93.5725 -85.7366 -83.2407 87.8325 
-85.3382 -84.2891 89.0179 -85.0155 -85.642 90.1457 -84.6724 -87.7245 91.0112 
-84.261 -90.237 91.7604 -83.9404 -92.5954 92.6038 -83.6753 -95.0918 93.2852 
-83.2256 -98.1551 93.5556 -82.6237 -101.389 93.5923 -82.101 -104.181 93.5795 
-81.0515 -85.1982 85.9803 -81.0238 -87.0296 87.9371 -81.0174 -86.8825 86.4296 
-80.9395 -89.1243 89.613 -80.966 -88.9746 88.352 -80.9499 -88.649 86.917 
-81.1844 -91.4442 90.7636 -81.0143 -91.3223 89.9083 -80.8638 -90.9496 88.6342 
-81.0873 -90.3301 87.4999 -81.6613 -93.9312 91.6869 -81.472 -93.9117 91.0094 
-81.0558 -93.5864 90.084 -80.9362 -92.8987 89.0199 -81.3446 -91.9776 88.0759 
-81.8122 -96.7188 92.6246 -81.8166 -96.8352 91.9056 -81.5749 -96.5902 91.1706 
-81.231 -95.8859 90.3201 -81.2942 -94.7924 89.4242 -81.5843 -93.6336 88.4452 
-81.6843 -99.823 93.2774 -81.6038 -100.104 92.6905 -81.6292 -99.9493 91.979 
-81.5742 -99.2472 91.2368 -81.599 -97.9994 90.4734 -81.7839 -96.5293 89.6451 
-81.8954 -95.0986 88.6546 -81.6245 -102.801 93.4548 -81.301 -103.293 93.1369 
-81.2113 -103.305 92.566 -81.3172 -102.727 91.8217 -81.5565 -101.503 91.1102 
-81.9027 -99.8501 90.4861 -82.1503 -98.0649 89.742 -82.2102 -96.2706 88.7693 
-81.6767 -105.253 93.4425 -81.2744 -105.955 93.1964 -80.9836 -106.205 92.7787 
-80.9191 -105.895 92.1168 -81.1037 -104.934 91.3806 -81.5301 -103.409 90.8845 
-82.0219 -101.522 90.4764 -82.2939 -99.4133 89.7556 -82.3658 -97.2583 88.7297 
-81.8948 -106.914 93.6056 -81.5336 -107.979 93.2313 -81.8694 -109.482 93.4239 
-81.4988 -110.586 92.6945 -81.9494 -111.711 92.7926 -81.1484 -108.645 92.7333 
-81.4348 -113.048 91.9081 -81.992 -113.501 91.8769 -81.1003 -111.363 91.9532 
-80.874 -108.797 92.1268 -81.3737 -115.313 91.2815 -82.1214 -115.066 91.0628 
-81.0559 -114.174 91.2495 -80.9234 -111.524 91.2334 -80.8442 -108.245 91.3693 
-81.6184 -117.099 90.7549 -82.5514 -116.244 90.3762 -81.1455 -116.662 90.848 
-81.0999 -114.261 90.5733 -81.0463 -110.662 90.5633 -81.1175 -106.94 90.8308 
-82.2365 -117.615 89.8615 -83.1585 -116.224 89.6361 -81.5245 -117.855 90.1581 
-81.3592 -116.066 90.0765 -81.4302 -112.639 90.0513 -81.449 -108.785 90.4407 
-81.6624 -105.029 90.7037 -82.9072 -116.484 88.8337 -83.6627 -114.819 88.9737 
-82.0703 -117.201 89.0086 -81.61 -116.109 89.2305 -81.6686 -113.307 89.5439 
-81.8522 -109.83 90.1411 -81.961 -106.246 90.5434 -82.1432 -102.654 90.3388 
-83.4 -114.273 88.331 -84.0115 -112.664 88.6477 -82.5946 -115.195 88.2549 
-81.8868 -114.665 88.4109 -81.6799 -112.599 88.8345 -81.9381 -109.746 89.5691 
-82.1838 -106.624 90.1111 -82.2647 -103.276 89.9647 -82.337 -99.9944 89.3756 
-83.7814 -111.58 88.3991 -84.3347 -110.239 88.6226 -83.0905 -112.48 88.2953 
-82.3539 -112.332 88.2936 -81.8688 -110.942 88.4445 -81.9049 -108.756 88.9121 
-82.2265 -106.161 89.4201 -82.3927 -103.224 89.3845 -82.4024 -100.176 88.8316 
-82.4329 -97.4598 88.2053 -82.4006 -104.526 93.7346 -82.1994 -107.346 93.8594 
-82.8399 -104.528 93.8502 -82.6655 -107.311 93.8629 -83.4908 -104.143 93.7399 
-82.2771 -109.848 93.6556 -83.3339 -106.717 93.5658 -84.166 -103.379 93.5032 
-82.8172 -109.586 93.5433 -82.5225 -111.705 92.8922 -84.042 -105.597 93.3438 
-84.6439 -102.195 93.21 -83.4788 -108.679 93.2894 -83.1721 -111.078 92.8097 
-82.7715 -113.018 91.8043 -84.6394 -103.949 93.065 -85.0955 -100.518 92.633 
-84.1391 -107.177 93.123 -83.7586 -109.904 92.7487 -83.5248 -112.132 91.8287 
-83.0937 -114.23 90.8729 -85.2431 -101.783 92.4121 -85.8011 -98.5036 91.9058 
-84.702 -105.058 92.6561 -84.1893 -108.015 92.4933 -83.9586 -110.6 91.88 
-83.8315 -112.91 91.0042 -83.5268 -114.858 90.2526 -86.0271 -99.415 91.7675 
-86.6619 -96.5316 91.3179 -85.3753 -102.521 92.0354 -84.6976 -105.49 91.9768 
-84.263 -108.151 91.6237 -84.1563 -110.619 91.0965 -84.0874 -112.705 90.4744 
-83.9161 -114.103 89.7415 -86.8962 -97.2432 91.2615 -87.4322 -94.8364 90.7045 
-86.3098 -99.9956 91.6632 -85.6384 -102.828 91.7335 -85.0249 -105.374 91.4551 
-84.6376 -107.654 91.0183 -84.4271 -109.759 90.5693 -84.314 -111.369 90.0096 
-84.2162 -112.301 89.2849 -87.672 -95.4011 90.5703 -88.0811 -93.4156 89.9123 
-87.2554 -97.7263 91.1793 -86.7773 -100.299 91.552 -86.2284 -102.772 91.536 
[...]
CELL_DATA 2000
SCALARS Distance double
LOOKUP_TABLE default
137.149 137.126 137.497 138.228 137.169 137.524 138.303 138.636 139.415 
137.293 137.624 138.478 138.802 139.682 139.961 140.887 137.634 137.856 
138.813 139.104 140.121 140.375 141.402 141.635 142.672 138.406 138.433 
139.456 139.614 140.707 140.924 142 142.223 143.269 143.485 144.462 
139.394 139.375 140.373 140.427 141.495 141.618 142.664 142.83 143.843 
144.059 145.052 145.239 146.156 140.198 140.275 141.198 141.315 142.347 
142.473 143.539 143.608 144.636 144.706 145.746 145.877 146.912 147.004 
147.946 140.909 140.976 141.878 142.024 143.067 143.273 144.435 144.575 
145.718 145.71 146.806 146.773 147.889 147.897 148.961 148.918 149.838 
141.806 141.771 142.73 142.772 143.855 144.005 145.213 145.437 146.674 
146.815 147.967 147.966 149.071 149.026 150.121 150.047 151.046 150.879 
151.733 136.448 135.349 136.039 136.369 134.315 134.931 135.245 135.993 
136.396 133.383 133.912 134.174 134.891 135.31 136.066 136.508 132.517 
132.96 133.118 133.804 134.206 134.994 135.467 136.225 136.787 131.913 
132.164 132.245 132.757 133.105 133.868 134.391 135.201 135.835 136.663 
137.483 131.846 131.838 131.975 132.131 132.458 132.921 133.482 134.19 
134.922 135.757 136.647 137.544 138.487 132.27 132.085 132.313 132.21 
132.559 132.651 133.212 133.58 134.352 134.987 135.915 136.74 137.701 
138.55 139.38 132.955 132.682 132.905 132.72 133.066 133.008 133.544 
133.656 134.388 134.716 135.602 136.166 137.111 137.821 138.689 139.4 
140.151 133.74 133.417 133.599 133.359 133.684 133.577 134.096 134.121 
134.808 134.962 135.773 136.084 136.972 137.435 138.32 138.866 139.694 
140.269 141.063 134.252 135.106 134.458 134.127 136.306 135.501 135.196 
134.469 134.267 137.675 136.868 136.636 135.768 135.568 134.794 134.731 
138.968 138.252 138.109 137.298 137.122 136.261 136.158 135.404 135.455 
140.313 139.574 139.499 138.749 138.643 137.827 137.729 136.922 136.95 
136.238 136.401 141.803 141.026 140.995 140.207 140.172 139.358 139.332 
138.519 138.586 137.824 138.003 137.292 137.551 143.249 142.543 142.559 
141.787 141.801 140.974 141.003 140.175 140.3 139.524 139.752 138.992 
139.247 138.517 138.823 144.57 143.951 144.037 143.351 143.436 142.658 
142.731 141.904 142.046 141.271 141.528 140.785 141.06 140.282 140.539 
139.811 140.136 145.813 145.254 145.401 144.803 144.969 144.288 144.428 
143.649 143.798 143.022 143.261 142.542 142.826 142.087 142.339 141.569 
141.839 141.134 141.487 142.515 142.868 143.193 144.318 143.329 143.589 
144.64 145.046 146.249 143.815 144.066 145.069 145.384 146.51 146.971 
148.224 144.268 144.539 145.566 145.846 146.936 147.285 148.501 148.98 
150.301 144.779 145.01 146.042 146.328 147.408 147.736 148.903 149.319 
150.617 151.12 152.487 145.352 145.555 146.543 146.799 147.839 148.163 
149.288 149.701 150.949 151.449 152.801 153.336 154.703 145.824 146.067 
147.001 147.273 148.271 148.581 149.678 150.063 151.278 151.752 153.061 
153.611 154.964 155.523 156.831 146.179 146.436 147.305 147.625 148.573 
148.945 150.005 150.428 151.597 152.063 153.298 153.823 155.098 155.691 
156.962 157.545 158.727 146.533 146.752 147.558 147.853 148.729 149.128 
150.111 150.617 151.703 152.26 153.396 153.967 155.131 155.737 156.923 
157.557 158.71 159.298 160.339 142.704 144.581 143.645 143.707 146.632 
145.691 145.823 144.775 144.882 148.693 147.822 148.076 147.018 147.124 
146.036 146.218 150.809 149.957 150.326 149.316 149.474 148.339 148.466 
147.432 147.665 153.029 152.171 152.65 151.657 151.933 150.759 150.89 
149.73 149.915 148.883 149.044 155.284 154.458 155.031 154.08 154.508 
153.352 153.58 152.29 152.451 151.234 151.388 150.23 150.257 157.45 
156.721 157.355 156.489 157.004 155.971 156.302 155.064 155.227 153.901 
154.001 152.704 152.725 151.436 151.344 159.367 158.804 159.467 158.745 
159.265 158.388 158.728 157.673 157.823 156.612 156.652 155.365 155.335 
153.991 153.845 152.486 152.262 160.971 160.572 161.232 160.689 161.185 
160.483 160.786 159.908 160.015 158.985 158.989 157.866 157.829 156.585 
156.421 155.025 154.701 153.296 152.934 162.022 163.634 162.683 162.293 
165.016 164.203 163.77 162.81 162.246 166.041 165.457 165.085 164.209 
163.603 162.6 161.842 166.901 166.484 166.371 165.554 165.003 163.928 
163.083 162.001 161.052 167.7 167.459 167.629 166.957 166.544 165.406 
164.484 163.237 162.174 161.072 160.039 167.94 168.091 168.258 168.038 
167.637 166.815 165.796 164.604 163.402 162.221 161.105 160.026 158.939 
167.215 167.781 167.718 168.045 167.483 167.295 166.161 165.485 164.162 
163.272 162.027 161.041 159.801 158.778 157.506 165.855 166.577 166.359 
166.934 166.273 166.495 165.342 165.197 163.865 163.506 162.202 161.611 
160.211 159.385 157.885 157.027 155.62 164.338 165.038 164.779 165.378 
164.754 165.075 164.018 164.063 162.818 162.764 161.525 161.32 159.932 
159.412 157.819 157.116 155.579 154.939 153.66 162.042 162.486 162.795 
163.725 162.66 163.155 164.18 164.44 165.16 162.502 163.16 164.188 
164.712 165.473 165.661 166.099 162.025 162.832 163.815 164.514 165.301 
165.736 166.169 166.345 166.703 161.118 162.144 163.104 163.968 164.745 
165.38 165.879 166.234 166.574 166.866 167.305 159.829 160.984 161.878 
162.971 163.662 164.571 165.059 165.733 166.094 166.58 166.91 167.343 
167.588 158.561 159.6 160.385 161.508 162.118 163.178 163.579 164.551 
164.86 165.729 165.964 166.659 166.716 167.211 166.997 157.499 158.378 
159.091 160.059 160.697 161.633 162.071 162.957 163.237 164.168 164.356 
165.283 165.279 166.017 165.734 166.219 165.714 156.505 157.313 157.956 
158.853 159.516 160.389 160.932 161.676 162.009 162.684 162.846 163.587 
163.606 164.371 164.18 164.805 164.391 164.815 164.254 146.992 148.025 
147.674 148.019 149.081 148.757 149.149 148.762 149.176 150.126 149.859 
150.348 149.961 150.422 150.023 150.56 151.174 150.959 151.571 151.228 
151.766 151.347 151.924 151.535 152.173 152.234 152.058 152.761 152.49 
153.131 152.751 153.387 152.979 153.677 153.26 153.924 153.276 153.141 
153.885 153.681 154.42 154.142 154.926 154.552 155.368 154.9 155.668 
155.109 155.745 154.243 154.169 154.944 154.794 155.602 155.431 156.384 
156.156 157.159 156.743 157.618 157.009 157.709 157.002 157.576 155.088 
155.09 155.912 155.839 156.712 156.624 157.673 157.602 158.733 158.514 
159.474 158.991 159.709 159.034 159.606 158.853 159.355 155.827 155.89 
156.751 156.773 157.702 157.715 158.803 158.849 160.009 159.963 160.952 
160.681 161.424 160.934 161.513 160.859 161.337 160.585 160.981 146.549 
146.14 146.744 147.539 145.654 146.273 147.063 147.724 148.533 145.245 
145.779 146.531 147.195 148.019 148.696 149.51 144.976 145.428 146.143 
146.712 147.543 148.186 149.02 149.667 150.499 144.68 145.164 145.864 
146.39 147.22 147.804 148.654 149.227 150.037 150.662 151.514 144.261 
144.801 145.49 146.069 146.876 147.501 148.366 148.935 149.722 150.251 
151.038 151.675 152.531 143.84 144.356 145.017 145.61 146.354 147.042 
147.885 148.585 149.407 149.975 150.713 151.246 152.024 152.671 153.49 
143.535 143.98 144.618 145.139 145.808 146.43 147.173 147.941 148.783 
149.55 150.353 150.948 151.669 152.211 152.951 153.584 154.335 143.34 
143.729 144.369 144.813 145.471 145.946 146.598 147.204 147.965 148.777 
149.646 150.456 151.245 151.863 152.542 153.088 153.767 154.382 155.074 
143.452 144.029 143.989 144.517 144.708 144.658 145.245 145.144 145.654 
145.424 145.389 146.054 145.96 146.488 146.283 146.753 146.174 146.113 
146.802 146.777 147.363 147.168 147.614 147.404 148.011 147.038 146.883 
147.464 147.443 148.024 147.969 148.457 148.297 148.904 148.828 149.652 
147.925 147.75 148.168 148.037 148.493 148.502 149.072 149.082 149.79 
149.771 150.623 150.579 151.364 148.522 148.507 148.857 148.692 149.058 
148.99 149.665 149.738 150.67 150.711 151.665 151.595 152.385 152.197 
152.757 148.762 148.92 149.361 149.313 149.774 149.683 150.489 150.539 
151.669 151.727 152.796 152.693 153.482 153.243 153.802 153.503 153.968 
148.957 149.143 149.781 149.842 150.539 150.519 151.462 151.524 152.692 
152.787 153.84 153.791 154.532 154.326 154.866 154.581 155.07 154.755 
155.247 149.414 150.83 150.169 150.351 152.6 151.835 152.041 151.219 
151.347 154.184 153.625 153.965 153.148 153.353 152.374 152.51 155.485 
155.084 155.542 154.982 155.248 154.436 154.565 153.617 153.738 156.992 
156.468 156.985 156.459 156.773 156.121 156.186 155.441 155.439 154.684 
154.691 158.79 158.176 158.727 158.059 158.464 157.703 157.857 156.991 
156.967 156.16 156.108 155.394 155.284 160.491 159.977 160.509 159.871 
160.286 159.548 159.844 158.915 159.02 157.938 157.909 156.887 156.78 
155.891 155.679 161.97 161.558 162.056 161.519 161.843 161.249 161.502 
160.836 160.984 160.097 160.046 158.94 158.731 157.594 157.304 156.279 
155.955 163.325 162.961 163.467 162.974 163.273 162.68 162.821 162.238 
162.282 161.693 161.583 160.823 160.504 159.519 159.071 157.995 157.539 
156.526 156.132 149.048 148.988 149.455 150.481 149.059 149.51 150.578 
151.083 152.197 149.054 149.571 150.591 151.149 152.182 152.726 153.688 
148.777 149.402 150.327 151 151.959 152.584 153.485 154.045 154.941 
148.301 148.96 149.803 150.545 151.499 152.24 153.213 153.832 154.81 
155.359 156.426 147.839 148.45 149.27 149.965 150.942 151.735 152.835 
153.573 154.664 155.282 156.405 157 158.179 147.442 148.025 148.849 
149.484 150.45 151.214 152.355 153.184 154.334 155.077 156.171 156.883 
158.03 158.732 159.855 147.053 147.637 148.458 149.088 150.016 150.743 
151.825 152.673 153.809 154.64 155.707 156.496 157.601 158.425 159.595 
160.324 161.372 146.694 147.254 148.076 148.696 149.602 150.292 151.298 
152.104 153.188 154.045 155.118 155.949 157.063 157.927 159.154 159.999 
161.18 161.824 162.787 148.323 147.353 147.885 148.143 146.581 146.987 
147.131 147.755 148.149 145.718 146.209 146.266 146.783 147.013 147.755 
148.149 144.411 145.13 145.133 145.778 145.861 146.58 146.832 147.659 
147.938 142.885 143.653 143.664 144.424 144.47 145.262 145.417 146.268 
146.486 147.329 147.509 141.537 142.215 142.3 142.98 143.059 143.788 
143.905 144.742 144.916 145.809 145.999 146.856 147.037 140.286 140.968 
141.11 141.762 141.842 142.457 142.48 143.198 143.298 144.18 144.386 
145.313 145.551 146.418 146.638 139.033 139.713 139.843 140.558 140.617 
141.248 141.166 141.783 141.756 142.554 142.754 143.706 144.025 144.943 
145.222 146.049 146.27 137.911 138.487 138.562 139.24 139.285 139.948 
139.874 140.462 140.383 141.06 141.215 142.111 142.486 143.448 143.81 
144.665 144.92 145.698 145.922 137.354 136.603 137.294 137.927 135.773 
136.506 137.158 137.888 138.569 135.109 135.748 136.452 137.13 137.813 
138.523 139.165 134.811 135.261 135.987 136.539 137.259 137.856 138.528 
139.127 139.757 134.889 135.136 135.811 136.212 136.94 137.435 138.165 
138.661 139.384 139.881 140.661 135.255 135.338 135.95 136.175 136.893 
137.256 138.042 138.456 139.271 139.703 140.588 141.049 141.978 135.768 
135.779 136.366 136.453 137.178 137.393 138.241 138.527 139.415 139.746 
140.672 141.082 142.031 142.466 143.336 136.317 136.326 136.924 136.953 
137.664 137.802 138.659 138.884 139.788 140.034 140.93 141.237 142.132 
142.515 143.352 143.737 144.467 136.873 136.898 137.523 137.541 138.218 
138.312 139.099 139.308 140.153 140.41 141.237 141.513 142.33 142.643 
143.446 143.771 144.514 144.824 145.501 137.398 138.466 137.984 138.084 
139.654 139.113 139.253 138.706 138.822 141.128 140.442 140.64 139.993 
140.15 139.526 139.708 142.895 142.099 142.334 141.562 141.744 140.98 
141.133 140.485 140.721 144.653 143.898 144.135 143.367 143.573 142.722 
142.829 142.004 142.164 141.528 141.788 146.315 145.588 145.822 145.123 
145.381 144.599 144.748 143.829 143.931 143.091 143.304 142.637 142.904 
148.058 147.274 147.523 146.797 147.101 146.382 146.627 145.774 145.906 
144.982 145.142 144.305 144.531 143.798 144.026 149.87 149.061 149.303 
148.548 148.854 148.132 148.398 147.611 147.757 146.904 147.029 146.19 
146.355 145.532 145.686 144.913 145.075 151.688 150.865 151.07 150.315 
150.596 149.889 150.14 149.371 149.482 148.654 148.721 147.948 148.073 
147.318 147.429 146.619 146.691 145.92 146.036 146.786 147.503 147.482 
148.213 148.278 148.28 149.051 149.005 149.774 148.931 149.024 149.864 
149.888 150.725 150.656 151.491 149.593 149.678 150.618 150.711 151.683 
151.673 152.603 152.489 153.38 150.425 150.47 151.517 151.58 152.716 
152.726 153.81 153.697 154.679 154.476 155.358 151.177 151.351 152.501 
152.622 153.881 153.911 155.146 155.034 156.172 155.929 156.953 156.582 
157.458 151.684 152.014 153.271 153.584 154.971 155.147 156.493 156.459 
157.714 157.535 158.731 158.387 159.428 158.865 159.7 152.188 152.522 
153.895 154.315 155.878 156.221 157.715 157.811 159.118 159.053 160.304 
160.158 161.313 160.924 161.807 161.143 161.778 152.843 153.139 154.594 
155.018 156.703 157.145 158.778 159.007 160.363 160.38 161.594 161.584 
162.762 162.637 163.573 163.131 163.712 163.024 163.388 133.701 132.843 
133.267 133.254 132.11 132.411 132.342 132.762 132.788 131.761 131.842 
131.8 131.999 132.081 132.45 132.718 131.96 131.8 131.843 131.762 
131.873 131.991 132.283 132.64 133.112 132.579 132.273 132.336 132.065 
132.087 131.975 132.098 132.287 132.615 133.082 133.577 133.367 133.006 
133.027 132.664 132.562 132.256 132.156 132.109 132.219 132.534 132.939 
133.514 134.091 134.238 133.818 133.836 133.406 133.305 132.825 132.673 
132.31 132.34 132.295 132.675 133.003 133.683 134.196 134.916 135.231 
134.736 134.767 134.287 134.263 133.712 133.643 133.085 133.151 132.769 
133.14 133.091 133.788 134.053 134.876 135.228 135.931 136.291 135.764 
135.765 135.264 135.257 134.737 134.722 134.18 134.262 133.792 134.094 
133.824 134.389 134.402 135.147 135.357 136.08 136.303 136.886 134.205 
133.801 134.318 134.913 133.347 133.868 134.52 135.049 135.68 133.237 
133.528 134.2 134.671 135.374 135.857 136.514 133.63 133.677 134.303 
134.534 135.269 135.639 136.353 136.746 137.407 134.177 134.201 134.789 
134.845 135.507 135.701 136.412 136.694 137.379 137.699 138.385 134.711 
134.734 135.323 135.355 135.937 136.034 136.677 136.862 137.541 137.777 
138.479 138.767 139.498 135.424 135.323 135.893 135.87 136.445 136.48 
137.107 137.207 137.892 138.041 138.754 138.957 139.688 139.941 140.638 
136.296 136.1 136.612 136.505 137.1 137.063 137.724 137.734 138.428 
138.486 139.191 139.31 140.01 140.185 140.848 141.048 141.634 137.164 
136.945 137.405 137.268 137.861 137.799 138.467 138.429 139.078 139.068 
139.7 139.765 140.403 140.529 141.142 141.286 141.841 141.99 142.494 
134.557 135.31 135.068 135.41 136.119 135.884 136.281 136.05 136.549 
136.958 136.739 137.195 136.972 137.474 137.283 137.846 137.817 137.6 
138.078 137.892 138.402 138.208 138.721 138.551 139.095 138.765 138.49 
138.951 138.756 139.265 139.097 139.612 139.431 139.975 139.81 140.422 
139.864 139.514 139.965 139.678 140.186 139.968 140.527 140.339 140.941 
140.759 141.406 141.234 141.901 140.967 140.636 141.08 140.759 141.271 
140.985 141.578 141.338 141.982 141.773 142.428 142.244 142.883 142.712 
143.319 141.917 141.66 142.077 141.828 142.324 142.088 142.67 142.446 
143.058 142.834 143.42 143.222 143.79 143.635 144.196 144.051 144.6 
142.749 142.528 142.925 142.73 143.2 143.043 143.587 143.45 144.002 
143.834 144.324 144.133 144.602 144.456 144.975 144.869 145.416 145.291 
145.821 148.332 148.203 147.958 147.417 147.99 147.828 147.228 147.062 
146.591 147.391 147.439 146.784 146.735 146.147 146.17 145.669 146.489 
146.666 146.028 146.097 145.412 145.511 144.898 145.033 144.362 145.579 
145.739 145.152 145.264 144.552 144.631 143.919 144.087 143.407 143.548 
142.828 144.785 144.881 144.289 144.401 143.696 143.735 142.964 143.068 
142.399 142.569 141.93 142.048 141.426 144.077 144.12 143.5 143.574 
142.887 142.897 142.137 142.164 141.52 141.65 141.093 141.203 140.597 
140.703 140.131 143.448 143.446 142.834 142.846 142.202 142.168 141.473 
141.431 140.818 140.879 140.36 140.445 139.857 139.9 139.272 139.398 
138.874 142.925 142.88 142.301 142.257 141.655 141.587 140.948 140.868 
140.258 140.25 139.703 139.753 139.167 139.188 138.55 138.592 138.04 
138.196 137.78 
POINT_DATA 1002
SCALARS Distance double
LOOKUP_TABLE default
137.86 136.833 136.757 137.877 136.747 138.949 137.95 136.813 139.084 
140.214 138.111 136.956 139.376 140.589 141.863 138.504 137.447 139.827 
141.164 142.457 143.702 139.353 138.422 140.514 141.786 143.053 144.303 
145.388 140.353 139.41 141.419 142.558 143.655 144.826 146.032 147.054 
141.067 140.121 142.179 143.449 144.617 145.641 146.778 147.931 148.858 
141.744 140.867 142.83 144.197 145.666 146.878 147.906 148.987 149.969 
150.69 142.705 141.851 143.746 144.993 146.454 147.907 149.121 150.19 
151.19 151.982 152.532 135.757 135.605 134.688 134.503 133.758 135.63 
133.479 132.917 134.545 135.759 132.488 132.151 133.393 134.683 135.963 
131.859 131.734 132.394 133.534 134.963 136.584 131.927 131.882 132.145 
132.84 134.08 135.732 137.631 132.454 132.479 132.565 132.976 133.828 
135.157 136.863 138.612 133.12 133.271 133.148 133.492 134.172 135.17 
136.485 137.99 139.469 133.866 134.088 133.815 134.097 134.706 135.55 
136.602 137.833 139.143 140.475 134.806 134.704 135.81 135.994 137.119 
134.893 137.497 138.413 136.42 135.396 138.851 139.644 137.981 136.97 
136.114 140.231 141.067 139.419 138.534 137.687 137.054 141.785 142.56 
140.974 140.127 139.341 138.734 138.223 143.288 143.902 142.607 141.826 
141.062 140.503 140.023 139.499 144.665 145.147 144.16 143.544 142.828 
142.253 141.832 141.328 140.795 145.954 146.342 145.586 145.163 144.58 
143.989 143.545 143.104 142.588 142.137 143.561 143.883 145.513 144.297 
145.744 147.496 144.8 146.114 147.677 149.506 145.275 146.628 148.07 
149.762 151.64 145.771 147.085 148.515 150.131 151.964 153.861 146.318 
147.544 148.893 150.464 152.258 154.188 156.069 146.725 147.962 149.31 
150.839 152.54 154.393 156.32 158.116 147 148.191 149.568 151.144 
152.818 154.542 156.368 158.211 159.866 147.305 148.37 149.627 151.145 
152.827 154.549 156.31 158.103 159.829 161.331 144.674 146.892 145.91 
149.083 148.259 147.21 151.286 150.614 149.556 148.637 153.591 153.078 
152.113 151.005 150.11 155.931 155.581 154.873 153.759 152.594 151.466 
158.178 157.97 157.472 156.571 155.358 154.057 152.656 160.135 160.102 
159.735 158.99 157.92 156.689 155.266 153.617 161.73 161.843 161.622 
161.01 160.058 159.002 157.809 156.198 154.294 163.011 163.315 164.581 
164.722 165.75 163.282 165.909 166.471 164.633 162.905 167.081 167.157 
166.13 164.257 162.099 168.146 167.805 167.665 165.842 163.367 161.07 
168.326 167.695 168.306 166.942 164.613 162.242 160.019 167.326 166.628 
167.506 166.641 164.911 162.976 160.877 158.52 165.782 165.161 165.975 
165.343 164.051 162.649 160.997 158.772 156.373 164.179 163.679 164.384 
163.914 162.808 161.61 160.33 158.479 156.215 154.157 161.794 163.59 
162.084 163.802 162.106 165.155 163.584 161.831 165.188 166.084 163.094 
161.162 164.78 165.942 166.488 162.188 160.016 164.04 165.424 166.28 
166.961 160.76 158.723 162.697 164.258 165.504 166.506 167.27 159.329 
157.643 161.08 162.59 163.9 165.186 166.209 166.675 158.173 156.689 
159.781 161.242 162.392 163.431 164.463 165.174 165.36 157.085 155.745 
158.617 160.158 161.408 162.241 162.879 163.486 163.888 163.932 147.333 
148.385 148.359 149.531 149.355 149.533 150.695 150.332 150.824 150.913 
151.853 151.342 152.17 152.311 152.555 152.983 152.381 153.452 153.78 
154.079 154.404 154.064 153.388 154.615 155.202 155.807 156.224 156.382 
155.062 154.285 155.715 156.489 157.472 158.207 158.431 158.326 155.933 
155.055 156.753 157.685 158.862 159.879 160.349 160.362 160.147 145.976 
146.927 145.52 146.375 145.07 147.889 145.896 144.774 147.325 148.847 
145.619 144.539 146.918 148.391 149.827 145.338 144.167 146.638 148.107 
149.469 150.823 144.903 143.716 146.234 147.761 149.234 150.468 151.827 
144.454 143.354 145.698 147.135 148.765 150.228 151.448 152.801 144.137 
143.118 145.268 146.462 147.928 149.663 151.175 152.389 153.67 143.936 