# vtk DataFile Version 4.0
vtk output
ASCII
DATASET POLYDATA
POINTS 1002 float
-87.6001 -85.7433 73.7294 -87.5301 -85.0516 72.5048 -87.3103 -84.7854 73.2791 
-87.3931 -85.4766 74.5681 -86.9163 -84.6608 73.9971 -87.6682 -86.4538 75.1829 
-87.0301 -85.3647 75.4088 -86.3674 -84.6788 74.6973 -87.4175 -86.2886 76.0886 
-87.5893 -87.4153 76.7269 -86.4894 -85.4789 76.2465 -85.8417 -84.7408 75.5637 
-86.9769 -86.3898 76.9669 -87.1032 -87.6397 77.533 -87.1858 -88.94 78.0663 
-85.8656 -85.7044 77.0774 -85.4615 -84.7337 76.6091 -86.2485 -86.8136 77.6752 
-86.3905 -88.1135 78.2028 -86.4648 -89.5033 78.7142 -86.7329 -90.6627 79.3534 
-85.32 -85.904 77.9646 -85.0837 -84.8581 77.6334 -85.4295 -87.3173 78.3115 
-85.5523 -88.7106 78.7844 -85.7495 -89.9872 79.399 -86.1019 -91.1525 80.1629 
-86.5428 -92.0707 81.0039 -84.9021 -86.2658 78.9917 -84.6085 -85.3646 78.6087 
-84.9279 -87.6979 79.2805 -84.9919 -89.2359 79.684 -85.3 -90.419 80.402 
-85.6736 -91.5335 81.248 -86.0133 -92.6377 82.0358 -86.3334 -93.5299 82.7388 
-84.5527 -86.8757 80.0691 -84.2042 -86.0184 79.6504 -84.7404 -88.0742 80.5452 
-84.8451 -89.6043 81.035 -85.1171 -90.9332 81.7422 -85.4179 -92.0892 82.5749 
-85.5521 -93.3784 83.206 -85.6779 -94.5386 83.6627 -85.9131 -95.4004 84.1004 
-84.2576 -87.4679 81.0738 -84.0069 -86.4844 80.7609 -84.5378 -88.5303 81.6437 
-84.7196 -89.8823 82.3024 -84.8626 -91.3986 82.9782 -85.0001 -92.8253 83.6921 
-85.0431 -94.2402 84.2629 -85.0693 -95.5861 84.6009 -85.2302 -96.619 84.8952 
-85.4996 -97.3799 85.2413 -84.0516 -87.9166 82.0788 -83.9531 -86.8028 81.8926 
-84.2525 -89.0309 82.5288 -84.413 -90.2355 83.1916 -84.4428 -91.743 83.8581 
-84.4108 -93.4506 84.4532 -84.4341 -95.058 85.0068 -84.5535 -96.4685 85.4573 
-84.7425 -97.6545 85.7976 -84.9603 -98.5801 86.1103 -85.1763 -99.3061 86.4025 
-87.2784 -84.1922 71.8627 -86.9237 -83.9674 72.6284 -86.8152 -83.4237 71.1944 
-86.3444 -83.1821 71.906 -86.1895 -82.7209 70.45 -86.3892 -83.9016 73.278 
-85.6496 -82.4021 71.1133 -85.6086 -81.8579 69.7798 -85.8246 -83.0424 72.6032 
-85.8066 -83.9222 74.0105 -85.0467 -81.4477 70.5471 -85.3146 -80.6796 69.5715 
-85.2391 -82.1075 72.0719 -85.3929 -82.9428 73.6064 -85.4008 -83.8866 75.0947 
-84.8082 -80.2095 70.5598 -85.3784 -79.4404 69.9068 -84.713 -81.0554 71.8578 
-84.9363 -81.8667 73.4295 -85.0446 -82.847 74.8778 -85.0738 -83.8495 76.2862 
-84.9561 -79.0046 71.0553 -85.6583 -78.542 70.4847 -84.5319 -79.8689 72.0727 
-84.468 -80.7987 73.3974 -84.5583 -81.7517 74.7105 -84.5574 -82.9012 75.9879 
-84.5722 -84.1242 77.3154 -85.2895 -78.242 71.8396 -86.0855 -78.0696 71.2699 
-84.7239 -78.819 72.6924 -84.3659 -79.7694 73.6852 -84.2208 -80.7681 74.7082 
-84.1135 -81.8614 75.838 -84.0249 -83.2315 77.1189 -84.0787 -84.683 78.4318 
-85.7741 -77.9541 72.9075 -86.6922 -77.9007 72.3332 -85.0839 -78.1812 73.6684 
-84.608 -78.8901 74.4357 -84.3181 -79.9629 75.1716 -84.1139 -81.0246 76.1067 
-83.9115 -82.2107 77.3219 -83.8291 -83.6854 78.6051 -83.8969 -85.1699 79.7573 
-86.4245 -77.9631 74.0596 -87.3674 -77.9404 73.4355 -85.5857 -77.9696 74.7864 
-84.9733 -78.3225 75.4496 -84.6222 -79.2969 76.0165 -84.4316 -80.4843 76.7453 
-84.2352 -81.5403 77.8135 -84.0567 -82.7415 79.0383 -83.9777 -84.1495 80.1522 
-83.9557 -85.5169 81.077 -87.4258 -78.1462 74.8181 -86.4933 -78.0929 75.6028 
-87.4781 -78.4306 76.136 -86.5946 -78.4037 76.9266 -87.5678 -78.9041 77.3288 
-85.6257 -78.1151 76.3263 -86.7433 -79.1554 78.1092 -87.6575 -79.7145 78.5777 
-85.7513 -78.708 77.6309 -85.0367 -78.7535 76.9094 -86.8843 -80.2439 79.5414 
-87.6539 -80.685 80.0362 -85.979 -79.8026 79.0128 -85.2262 -79.6809 78.351 
-84.78 -80.0138 77.5465 -86.9849 -81.2502 81.2134 -87.6532 -81.6274 81.545 
-86.1979 -80.903 80.7284 -85.4621 -80.7228 80.0186 -84.9768 -80.9188 79.2059 
-84.6294 -81.2387 78.4736 -87.1051 -82.2197 82.7545 -87.7396 -82.6758 82.9055 
-86.3187 -81.877 82.4321 -85.5836 -81.6548 81.827 -85.0846 -81.7829 80.9643 
-84.779 -82.1366 80.1889 -84.4527 -82.3802 79.6252 -87.2061 -83.3408 84.1133 
-87.7856 -83.8195 84.1549 -86.3894 -83.037 83.8684 -85.6099 -82.8533 83.4446 
-85.117 -82.8986 82.7588 -84.8385 -83.2608 81.898 -84.6095 -83.5337 81.2544 
-84.3003 -83.7007 80.7638 -87.2395 -84.4827 85.3727 -87.7627 -84.8845 85.3165 
-86.4706 -84.2847 85.1646 -85.6916 -84.265 84.8023 -85.212 -84.326 84.3778 
-84.9298 -84.5928 83.6961 -84.6624 -84.8698 82.9111 -84.4064 -84.9027 82.321 
-84.1464 -85.0405 81.7501 -87.2746 -85.6304 86.4089 -87.7671 -85.9239 86.2712 
-86.59 -85.5007 86.3007 -85.8615 -85.5747 85.9761 -85.3814 -85.689 85.6512 
-85.0922 -85.8548 85.2361 -84.7366 -86.096 84.5815 -84.3776 -86.1661 83.9123 
-84.1415 -86.1357 83.3042 -83.9962 -86.3538 82.6045 -83.9235 -87.9769 83.2116 
-83.9288 -87.6752 84.0759 -83.9052 -89.6482 84.8338 -84.0419 -87.553 84.8162 
-83.9392 -89.5471 85.7514 -83.9825 -91.75 86.6098 -84.3479 -87.5149 85.3696 
-84.0998 -89.4471 86.2985 -84.1291 -91.7878 87.3137 -84.1291 -94.0436 88.1737 
-84.8203 -87.3445 85.9295 -84.4433 -89.2673 86.6326 -84.3677 -91.6761 87.5822 
-84.399 -94.1006 88.5863 -84.194 -96.6422 89.3755 -85.2123 -87.1723 86.4323 
-84.8508 -89.032 87.1385 -84.6114 -91.4061 87.9563 -84.666 -93.9625 88.901 
-84.5404 -96.7046 89.7132 -84.037 -99.7263 90.3005 -85.5736 -87.0957 86.7754 
-85.2242 -88.9303 87.6483 -84.8379 -91.1087 88.615 -84.7563 -93.5809 89.5238 
-84.7659 -96.4899 90.1791 -84.4098 -99.7965 90.6112 -83.7119 -102.793 90.9158 
-86.1745 -86.9946 87.0638 -85.7564 -88.904 87.9012 -85.2693 -90.9575 88.9831 
-84.9315 -93.1303 90.0432 -84.8282 -95.9179 90.6853 -84.6334 -99.4217 90.9491 
-84.1427 -102.744 91.0978 -83.4791 -105.207 91.2286 -86.9029 -86.9544 87.2179 
-86.4769 -88.8301 87.9529 -85.9774 -90.8725 88.9044 -85.5035 -92.8342 90.0106 
-85.1564 -95.2854 90.822 -84.8626 -98.6599 91.1888 -84.5097 -102.167 91.3054 
-84.0373 -104.891 91.3473 -83.4889 -106.946 91.4056 -87.5046 -87.0732 87.1302 
-87.1423 -88.7773 87.8596 -86.6876 -90.7436 88.6899 -86.2419 -92.623 89.7194 
-85.8241 -94.8075 90.6442 -85.3578 -97.8688 91.2381 -84.9128 -101.295 91.5503 
-84.5448 -104.135 91.6242 -84.1325 -106.295 91.5666 -83.6348 -108.269 91.5431 
-83.9913 -89.3208 83.4873 -83.9401 -91.2146 85.2303 -84.0869 -90.6259 83.9871 
-83.9864 -93.562 87.1359 -83.9583 -92.8 85.7584 -84.0907 -92.0985 84.6348 
-84.029 -96.3912 88.8002 -84.028 -95.7702 87.7283 -83.9618 -94.8301 86.3877 
-84.0014 -94.0203 85.2417 -83.7752 -99.6981 89.9842 -83.8867 -99.4131 89.3937 
-84.0619 -98.5464 88.3699 -83.9715 -97.2274 87.017 -83.9969 -96.0135 85.8164 
-83.2518 -102.925 90.7053 -83.1462 -102.898 90.3275 -83.5364 -102.456 89.7922 
-83.961 -101.138 88.9277 -84.0928 -99.2587 87.6655 -84.2121 -97.6342 86.4225 
-82.8883 -105.557 91.0962 -82.4652 -105.685 90.7137 -82.5522 -105.644 90.2572 
-83.2037 -104.977 89.9524 -83.9418 -103.206 89.4007 -84.3358 -100.889 88.2753 
-84.5035 -98.9918 86.9442 -82.8759 -107.722 91.3411 -82.3951 -108.23 91.0049 
-82.2414 -108.466 90.3967 -82.5813 -108.344 90.0546 -83.3363 -107.354 90.0715 
-84.0659 -105.142 89.7054 -84.4654 -102.421 88.6321 -84.6802 -100.185 87.2915 
-83.027 -109.562 91.515 -82.5654 -110.71 91.3129 -82.412 -111.406 90.6949 
-82.5969 -111.498 90.0411 -83.0618 -110.965 89.9307 -83.6243 -109.463 90.0553 
-84.0777 -106.777 89.6702 -84.4189 -103.676 88.6887 -84.7661 -101.126 87.4981 
-83.3928 -110.475 91.5984 -82.776 -112.348 91.5387 -83.1539 -112.911 91.5143 
-82.4684 -115.08 91.2455 -83.1498 -114.945 91.1578 -82.3863 -113.897 91.1188 
-82.3168 -116.976 90.5307 -83.541 -116.406 90.6052 -81.896 -116.501 90.4521 
-82.3797 -114.477 90.246 -82.6899 -118.141 89.7723 -84.021 -117.273 90.0947 
-81.4784 -117.87 89.4224 -81.8143 -116.429 89.3802 -82.7555 -113.999 89.6157 
-83.4667 -118.363 89.2425 -84.3115 -116.884 89.5826 -82.0237 -118.439 88.6305 
-81.4818 -117.184 88.3901 -82.4327 -115.292 88.9 -83.2922 -112.819 89.6427 
-84.2725 -117.05 88.6493 -84.7867 -115.402 88.9929 -83.3371 -117.917 88.1586 
-82.3636 -117.378 87.8318 -82.4899 -115.804 88.2221 -83.2456 -113.65 89.0795 
-83.7114 -110.619 89.7055 -85.1465 -115.135 88.0822 -85.6898 -113.941 88.633 
-84.5153 -116.168 87.7192 -83.7397 -116.553 87.6471 -83.3406 -115.768 87.9983 
-83.5139 -113.778 88.6459 -83.7693 -110.843 89.1828 -84.0523 -107.25 89.2491 
-86.0619 -113.531 88.0106 -86.5975 -112.595 88.6619 -85.3933 -114.215 87.6161 
-84.7064 -114.68 87.68 -84.2207 -114.503 88.102 -84.078 -113.014 88.5773 
-84.0983 -110.273 88.8607 -84.2166 -106.975 88.8225 -84.4999 -103.773 88.3541 
-86.7497 -111.738 88.319 -87.1687 -110.767 88.7932 -86.1118 -112.285 88.005 
-85.4164 -112.459 88.0345 -84.8902 -112.217 88.338 -84.6389 -111.107 88.6381 
-84.5775 -108.905 88.7173 -84.6272 -106.138 88.5208 -84.8124 -103.449 88.0377 
-85.0462 -101.144 87.2856 -84.1095 -108.023 91.7239 -83.8802 -110.078 91.7127 
-84.4971 -107.471 92.1168 -84.3403 -109.316 92.1206 -84.8369 -106.722 92.6507 
-83.748 -112.223 91.6011 -84.8784 -108.357 92.734 -85.4051 -105.95 92.9805 
-84.337 -111.234 92.0792 -83.9938 -113.969 91.3161 -85.5761 -107.402 92.9322 
-86.1425 -105.144 92.7621 -84.9443 -110.142 92.6553 -84.6256 -112.803 91.8406 
-84.4614 -115.193 90.8581 -86.1372 -106.259 92.3535 -86.7703 -103.831 92.1034 
-85.4634 -108.961 92.4914 -85.1358 -111.582 92.2539 -85.0222 -113.696 91.3106 
-84.689 -115.542 90.3097 -86.7655 -104.371 91.6205 -87.5576 -101.832 91.445 
-85.8989 -107.171 91.6941 -85.5496 -109.991 91.9416 -85.6461 -112.15 91.6644 
-85.383 -113.606 90.6674 -84.8902 -114.738 89.7488 -87.9777 -102.011 91.2936 
-88.679 -99.7585 90.9426 -86.9663 -104.583 91.2946 -86.233 -107.432 91.4227 
-86.2626 -110.023 91.6201 -86.3083 -111.769 91.1241 -85.8652 -112.813 90.1817 
-85.5663 -113.538 89.3733 -89.3188 -99.9754 91.0209 -89.6853 -98.0758 90.4022 
-88.6116 -102.107 91.3121 -87.6908 -104.476 91.3488 -87.1476 -107 91.4653 
-87.0206 -109.263 91.3414 -86.7681 -110.822 90.703 -86.4717 -111.757 89.964 
-86.4704 -112.348 89.2984 -90.142 -98.356 90.3787 -90.3064 -96.6707 89.7056 
-89.8364 -100.248 90.9539 -89.2354 -102.187 91.227 -88.4829 -104.148 91.3158 
[...]
CELL_DATA 2000
SCALARS Distance double
LOOKUP_TABLE default
141.355 141.458 141.766 142.501 141.541 141.885 142.676 142.982 143.785 
141.675 142.011 142.874 143.194 144.036 144.321 145.154 141.91 142.199 
143.068 143.407 144.26 144.57 145.404 145.703 146.564 142.243 142.466 
143.28 143.593 144.439 144.768 145.618 145.945 146.855 147.176 148.124 
142.736 142.866 143.7 143.89 144.805 145.042 146.021 146.269 147.31 
147.571 148.639 148.871 149.867 143.412 143.477 144.397 144.49 145.522 
145.647 146.787 146.924 148.112 148.251 149.414 149.541 150.599 150.692 
151.618 144.16 144.215 145.149 145.266 146.312 146.475 147.618 147.803 
148.976 149.148 150.274 150.402 151.428 151.498 152.419 152.445 153.292 
144.92 144.958 145.843 145.978 146.956 147.174 148.215 148.496 149.563 
149.858 150.904 151.149 152.145 152.297 153.235 153.287 154.171 154.15 
154.98 140.66 139.612 140.341 140.727 138.456 139.226 139.591 140.362 
140.749 137.221 137.998 138.356 139.178 139.579 140.379 140.835 136.076 
136.749 137.115 137.944 138.431 139.244 139.761 140.552 141.104 135.283 
135.718 136.06 136.784 137.345 138.162 138.761 139.547 140.137 140.902 
141.485 134.976 135.136 135.419 135.909 136.45 137.163 137.771 138.552 
139.135 139.933 140.527 141.315 141.942 135.156 135.061 135.306 135.504 
135.995 136.451 137.031 137.639 138.211 138.926 139.544 140.347 141.047 
141.855 142.584 135.808 135.492 135.728 135.636 136.082 136.242 136.823 
137.156 137.784 138.232 138.925 139.522 140.328 141.049 141.891 142.617 
143.39 136.776 136.351 136.571 136.263 136.625 136.534 137.077 137.206 
137.896 138.142 138.912 139.247 140.108 140.591 141.506 142.084 142.927 
143.507 144.238 137.419 138.335 137.653 137.231 139.281 138.592 138.185 
137.505 137.206 140.393 139.626 139.271 138.519 138.262 137.629 137.59 
141.741 140.911 140.666 139.793 139.627 138.848 138.882 138.257 138.434 
143.172 142.382 142.258 141.371 141.264 140.393 140.438 139.706 139.906 
139.258 139.491 144.598 143.86 143.807 142.995 142.907 142.063 142.052 
141.298 141.463 140.803 141.057 140.393 140.674 146.02 145.317 145.3 
144.528 144.484 143.674 143.693 142.915 143.087 142.39 142.687 142.015 
142.33 141.654 142.003 147.364 146.732 146.755 146.026 146.037 145.266 
145.38 144.616 144.864 144.114 144.434 143.705 144.018 143.316 143.612 
142.975 143.322 148.588 148.039 148.116 147.464 147.521 146.822 146.974 
146.302 146.575 145.902 146.191 145.473 145.714 144.988 145.21 144.536 
144.795 144.218 144.555 145.436 145.711 146.016 147.074 146.133 146.375 
147.477 147.871 149.177 146.639 146.837 147.886 148.285 149.622 150.121 
151.524 147.132 147.339 148.299 148.648 149.902 150.478 151.906 152.454 
153.848 147.52 147.787 148.727 149.032 150.185 150.706 152.123 152.748 
154.208 154.761 156.182 147.876 148.149 149.134 149.445 150.57 151.005 
152.354 152.95 154.434 155.067 156.547 157.111 158.468 148.349 148.552 
149.548 149.858 150.984 151.385 152.627 153.161 154.526 155.203 156.649 
157.362 158.732 159.274 160.38 148.878 149.054 149.993 150.284 151.359 
151.749 152.887 153.363 154.565 155.194 156.527 157.307 158.666 159.38 
160.51 160.967 161.818 149.304 149.516 150.375 150.676 151.656 152.047 
153.091 153.54 154.633 155.181 156.41 157.128 158.463 159.222 160.402 
160.976 161.844 162.228 162.93 145.659 147.303 146.467 146.613 149.414 
148.336 148.407 147.52 147.728 151.824 150.656 150.703 149.532 149.627 
148.711 148.98 154.291 153.195 153.447 152.121 152.235 150.912 151.073 
150.057 150.359 156.72 155.74 156.265 155.065 155.438 153.932 154.091 
152.554 152.699 151.52 151.77 158.944 158.124 158.646 157.765 158.271 
157.142 157.433 155.886 155.91 154.26 154.278 152.968 153.098 160.767 
160.139 160.51 159.837 160.22 159.534 159.923 158.949 159.107 157.615 
157.507 155.821 155.705 154.292 154.277 162.233 161.771 162.205 161.573 
161.971 161.292 161.773 161.088 161.562 160.553 160.692 159.138 158.919 
157.173 156.902 155.42 155.262 163.447 163.162 163.819 163.324 163.944 
163.223 163.807 163.036 163.645 162.853 163.278 162.123 162.05 160.4 
159.957 158.208 157.775 156.313 156.052 164.244 165.771 165.003 164.865 
167.168 166.589 166.613 165.656 165.23 168.142 167.778 167.804 167.216 
166.884 165.855 165.152 168.823 168.554 168.348 167.961 167.548 167.059 
166.477 165.601 164.863 168.965 169.022 168.71 168.305 167.644 167.275 
166.74 166.432 165.897 165.205 164.41 168.195 168.701 168.53 168.481 
167.826 167.394 166.786 166.502 166.1 165.803 165.101 164.401 163.195 
167.196 167.67 167.578 167.93 167.553 167.498 166.972 166.694 166.197 
165.887 165.143 164.654 163.391 162.632 161.046 166.59 166.815 166.649 
166.937 166.688 166.952 166.587 166.664 166.073 165.886 164.919 164.486 
163.117 162.51 160.932 160.225 158.707 165.932 166.221 165.952 166.154 
165.805 166.051 165.639 165.912 165.26 165.345 164.256 164.017 162.572 
162.103 160.583 160.016 158.622 158.017 156.827 164.126 164.219 164.597 
165.481 164.219 164.615 165.441 165.93 166.798 164.205 164.592 165.388 
165.841 166.672 167.14 167.873 164.063 164.531 165.301 165.77 166.544 
166.992 167.68 168.092 168.631 163.428 164.139 164.793 165.487 166.202 
166.788 167.346 167.789 168.142 168.571 168.706 162.302 163.16 163.644 
164.569 165.202 166.14 166.722 167.34 167.546 167.904 167.838 168.211 
167.962 161.236 161.983 162.429 163.234 163.76 164.804 165.475 166.454 
166.828 167.3 167.218 167.397 167.182 167.374 167.132 160.427 161.091 
161.635 162.224 162.702 163.433 164.014 165.013 165.533 166.368 166.465 
166.841 166.658 166.82 166.662 166.782 166.621 159.57 160.305 160.881 
161.545 162.027 162.593 162.999 163.69 164.076 164.921 165.105 165.813 
165.69 166.158 165.926 166.268 166.033 166.266 165.945 149.739 150.766 
150.439 150.862 151.879 151.543 152.03 151.677 152.169 153.021 152.698 
153.231 152.899 153.459 153.082 153.613 154.197 153.873 154.464 154.144 
154.797 154.444 155.085 154.63 155.201 155.419 155.098 155.743 155.432 
156.197 155.881 156.701 156.258 157.002 156.398 157.06 156.552 156.314 
156.989 156.739 157.582 157.35 158.313 157.979 158.887 158.35 159.118 
158.429 159.115 157.467 157.357 158.065 157.936 158.837 158.734 159.763 
159.576 160.513 160.158 160.912 160.409 161.015 160.411 160.937 158.225 
158.204 158.951 158.924 159.845 159.888 160.94 160.92 161.822 161.603 
162.247 161.911 162.4 162.007 162.401 161.936 162.267 158.921 158.961 
159.731 159.744 160.583 160.712 161.684 161.869 162.757 162.73 163.326 
163.063 163.474 163.147 163.506 163.153 163.472 163.051 163.33 149.273 
148.893 149.457 150.251 148.582 149.107 149.916 150.495 151.346 148.327 
148.829 149.626 150.188 151.04 151.619 152.474 148.028 148.541 149.299 
149.882 150.707 151.302 152.145 152.739 153.609 147.755 148.212 148.936 
149.511 150.319 150.932 151.746 152.364 153.235 153.885 154.794 147.651 
148.003 148.703 149.178 149.986 150.552 151.352 151.933 152.746 153.429 
154.342 155.056 155.92 147.613 147.95 148.619 149.02 149.804 150.295 
151.089 151.58 152.312 152.898 153.723 154.484 155.36 156.083 156.826 
147.459 147.85 148.477 148.909 149.643 150.137 150.917 151.377 152.073 
152.517 153.228 153.848 154.667 155.418 156.192 156.879 157.542 147.231 
147.624 148.207 148.669 149.347 149.889 150.636 151.17 151.869 152.312 
152.974 153.446 154.179 154.779 155.523 156.185 156.858 157.528 158.172 
147.307 147.811 147.769 148.275 148.448 148.334 148.834 148.818 149.428 
149.168 149.013 149.485 149.42 150.04 150.064 150.73 150.018 149.811 
150.278 150.107 150.681 150.679 151.372 151.399 152.005 150.998 150.783 
151.282 150.984 151.477 151.345 152.026 152.055 152.763 152.685 153.212 
151.851 151.748 152.238 151.987 152.395 152.183 152.806 152.781 153.582 
153.534 154.2 153.955 154.45 152.38 152.394 152.785 152.732 153.111 
153.026 153.63 153.623 154.447 154.43 155.161 154.978 155.489 155.206 
155.679 152.715 152.732 153.047 153.086 153.536 153.614 154.335 154.436 
155.306 155.323 156.042 155.897 156.382 156.158 156.597 156.401 156.918 
153.052 153.035 153.407 153.402 153.989 154.084 154.961 155.134 156.095 
156.165 156.898 156.757 157.238 157.008 157.477 157.289 157.864 157.688 
158.272 153.406 154.491 153.893 153.911 156.019 155.283 155.363 154.589 
154.672 157.424 156.862 157.038 156.275 156.417 155.588 155.782 158.59 
158.168 158.462 157.894 158.106 157.391 157.561 156.78 156.921 159.827 
159.399 159.819 159.303 159.611 158.981 159.142 158.436 158.453 157.719 
157.626 161.062 160.696 161.167 160.717 161.089 160.498 160.696 159.969 
159.974 159.164 158.997 158.193 157.945 162.335 161.945 162.438 162.025 
162.407 161.92 162.145 161.512 161.58 160.77 160.688 159.725 159.514 
158.539 158.3 163.842 163.356 163.89 163.362 163.761 163.218 163.466 
162.88 162.977 162.312 162.296 161.484 161.348 160.342 160.098 159.032 
158.782 165.24 164.863 165.336 164.849 165.204 164.645 164.898 164.263 
164.347 163.647 163.56 162.876 162.701 161.986 161.717 160.835 160.479 
159.493 159.159 153.256 153.115 153.509 154.257 152.856 153.354 154.239 
154.748 155.717 152.688 153.166 154.134 154.708 155.732 156.232 157.096 
152.654 153.107 154.053 154.601 155.581 156.138 156.987 157.446 158.195 
152.488 153.036 153.877 154.441 155.276 155.869 156.688 157.251 158.061 
158.546 159.368 152.044 152.694 153.444 154.079 154.803 155.436 156.239 
156.9 157.803 158.401 159.288 159.769 160.595 151.515 152.139 152.859 
153.514 154.249 154.902 155.743 156.446 157.423 158.119 159.067 159.639 
160.492 160.968 161.825 151.111 151.634 152.338 152.939 153.718 154.373 
155.257 155.973 156.95 157.696 158.654 159.329 160.222 160.815 161.758 
162.294 163.29 150.845 151.288 151.952 152.48 153.234 153.871 154.731 
155.461 156.378 157.151 158.066 158.822 159.747 160.473 161.487 162.18 
163.249 163.824 164.753 152.815 152.094 152.54 152.587 151.044 151.693 
151.754 152.201 152.232 149.751 150.506 150.7 151.299 151.328 151.813 
151.959 148.545 149.213 149.409 150.141 150.285 150.874 150.964 151.564 
151.84 147.391 148.032 148.124 148.833 149.002 149.722 149.845 150.498 
150.646 151.388 151.654 146.103 146.812 146.911 147.581 147.708 148.419 
148.564 149.269 149.378 150.101 150.255 151.066 151.25 144.832 145.524 
145.688 146.366 146.503 147.174 147.309 147.988 148.099 148.783 148.893 
149.642 149.807 150.604 150.774 143.704 144.328 144.474 145.142 145.278 
145.961 146.081 146.758 146.851 147.513 147.596 148.292 148.435 149.202 
149.417 150.191 150.409 142.666 143.235 143.328 143.944 144.04 144.706 
144.809 145.501 145.586 146.259 146.319 146.993 147.099 147.845 148.059 
148.864 149.141 149.912 150.171 142.14 141.559 142.149 142.768 140.982 
141.57 142.172 142.78 143.436 140.394 140.997 141.611 142.198 142.849 
143.479 144.184 139.892 140.449 141.116 141.675 142.339 142.926 143.629 
144.258 144.967 139.654 140.076 140.776 141.259 141.958 142.478 143.177 
143.741 144.44 145.037 145.715 139.668 139.975 140.665 141.043 141.755 
142.187 142.901 143.37 144.072 144.578 145.285 145.825 146.533 139.864 
140.072 140.749 141.034 141.745 142.087 142.828 143.21 143.965 144.357 
145.12 145.541 146.333 146.785 147.564 140.294 140.371 141.05 141.22 
141.947 142.186 142.968 143.268 144.102 144.417 145.26 145.57 146.419 
146.76 147.608 147.96 148.732 140.923 140.91 141.582 141.644 142.386 
142.519 143.328 143.538 144.413 144.678 145.568 145.835 146.695 146.969 
147.807 148.104 148.886 149.161 149.829 141.517 142.69 142.118 142.196 
143.997 143.384 143.502 142.886 143.014 145.378 144.757 144.914 144.272 
144.429 143.786 143.966 146.818 146.181 146.351 145.705 145.877 145.242 
145.443 144.81 145.047 148.397 147.703 147.898 147.184 147.339 146.678 
146.883 146.283 146.536 145.933 146.189 150.094 149.371 149.613 148.834 
148.996 148.216 148.391 147.719 147.97 147.388 147.661 147.065 147.305 
151.788 151.089 151.355 150.602 150.8 149.973 150.116 149.315 149.499 
148.827 149.082 148.499 148.761 148.162 148.391 153.443 152.766 153.05 
152.339 152.568 151.782 151.92 151.081 151.18 150.4 150.554 149.909 
150.133 149.568 149.798 149.218 149.416 155.101 154.42 154.719 154.026 
154.273 153.526 153.68 152.86 152.928 152.087 152.142 151.39 151.511 
150.9 151.079 150.541 150.71 150.165 150.302 150.921 151.355 151.428 
152.016 151.773 151.879 152.542 152.605 153.296 152.291 152.373 153.136 
153.198 153.986 154.02 154.818 153.02 153.047 153.927 153.933 154.811 
154.801 155.665 155.647 156.478 153.868 153.905 154.881 154.876 155.844 
155.773 156.693 156.596 157.478 157.378 158.193 154.646 154.766 155.782 
155.859 156.897 156.887 157.911 157.788 158.783 158.57 159.5 159.222 
160.02 155.271 155.491 156.545 156.716 157.827 157.931 159.099 159.088 
160.263 160.079 161.168 160.8 161.727 161.224 161.965 155.761 156.067 
157.206 157.465 158.709 158.901 160.251 160.345 161.689 161.616 162.786 
162.519 163.46 163.034 163.784 163.218 163.808 156.187 156.549 157.792 
158.143 159.537 159.845 161.357 161.572 163.026 163.048 164.194 164.004 
164.798 164.52 165.115 164.805 165.293 164.862 165.231 136.763 135.826 
136.356 136.558 135.199 135.553 135.783 136.258 136.496 135.001 135.129 
135.334 135.634 135.854 136.241 136.487 135.239 135.117 135.238 135.327 
135.457 135.684 135.883 136.299 136.729 135.965 135.564 135.609 135.406 
135.444 135.406 135.535 135.785 136.249 136.776 137.473 137.056 136.473 
136.491 136.029 136.063 135.682 135.791 135.682 136.161 136.477 137.284 
137.753 138.499 138.231 137.609 137.588 137.053 137.128 136.6 136.749 
136.321 136.768 136.716 137.538 137.79 138.641 138.88 139.52 139.349 
138.739 138.67 138.142 138.223 137.744 137.938 137.47 137.851 137.576 
138.268 138.281 139.102 139.21 139.903 139.973 140.55 140.394 139.812 
139.724 139.192 139.255 138.813 139.019 138.622 138.95 138.647 139.166 
139.062 139.734 139.76 140.405 140.44 141.006 141.045 141.589 137.372 
137.155 137.561 138.168 137.033 137.392 138.016 138.385 138.98 137.004 
137.295 137.935 138.297 138.973 139.287 139.953 137.306 137.394 138.042 
138.292 139.02 139.339 140.078 140.378 141.113 138.03 137.91 138.507 
138.551 139.226 139.444 140.19 140.504 141.267 141.576 142.287 138.878 
138.689 139.16 139.097 139.651 139.736 140.403 140.639 141.401 141.715 
142.469 142.733 143.399 139.744 139.484 139.875 139.74 140.26 140.234 
140.871 140.956 141.695 141.905 142.686 142.938 143.651 143.849 144.483 
140.737 140.385 140.785 140.535 141.101 140.962 141.638 141.574 142.285 
142.321 143.056 143.211 143.923 144.112 144.743 144.917 145.496 141.784 
141.428 141.818 141.528 142.057 141.881 142.512 142.409 143.037 142.978 
143.59 143.632 144.269 144.405 145.022 145.172 145.726 145.877 146.386 
137.765 138.521 138.308 138.643 139.269 139.027 139.365 139.193 139.574 
140.216 139.839 140.177 139.945 140.401 140.202 140.676 141.394 140.923 
141.27 140.902 141.4 141.131 141.67 141.414 141.96 142.555 142.124 
142.456 142.073 142.542 142.236 142.771 142.474 142.99 142.733 143.303 
143.633 143.234 143.536 143.188 143.606 143.342 143.854 143.589 144.083 
143.782 144.292 144.07 144.678 144.732 144.332 144.662 144.264 144.668 
144.357 144.867 144.627 145.155 144.876 145.368 145.085 145.635 145.45 
146.073 145.778 145.448 145.834 145.447 145.848 145.466 145.925 145.636 
146.159 145.918 146.422 146.151 146.639 146.406 146.956 146.808 147.387 
146.661 146.434 146.839 146.568 146.951 146.618 146.98 146.669 147.091 
146.87 147.349 147.142 147.607 147.375 147.848 147.661 148.182 148.055 
148.582 152.754 152.4 152.422 152.037 151.885 151.922 151.364 151.458 
150.866 151.173 151.221 150.495 150.602 149.951 150.121 149.543 150.313 
150.386 149.643 149.704 149.104 149.244 148.787 148.916 148.455 149.459 
149.539 148.884 148.916 148.347 148.475 148.041 148.213 147.747 147.86 
147.309 148.696 148.781 148.187 148.21 147.572 147.679 147.092 147.327 
146.72 146.967 146.296 146.524 145.897 147.978 148.071 147.488 147.519 
146.818 146.849 146.139 146.276 145.606 145.815 145.15 145.383 144.779 
145.065 144.579 147.318 147.371 146.792 146.815 146.131 146.103 145.396 
145.401 144.784 144.851 144.297 144.387 143.869 144.028 143.591 143.856 
143.485 146.8 146.768 146.204 146.174 145.547 145.48 144.82 144.764 
144.171 144.185 143.664 143.708 143.185 143.255 142.759 142.935 142.524 
142.808 142.458 
POINT_DATA 1002
SCALARS Distance double
LOOKUP_TABLE default
142.045 140.959 141.062 142.194 141.119 143.266 142.346 141.161 143.489 
144.604 142.53 141.337 143.749 144.874 145.99 142.733 141.663 143.945 
145.093 146.251 147.457 143.006 142.064 144.105 145.273 146.496 147.824 
149.095 143.534 142.615 144.565 145.753 147.041 148.398 149.698 150.813 
144.285 143.339 145.375 146.629 147.982 149.318 150.532 151.571 152.477 
145.025 144.118 146.14 147.426 148.803 150.149 151.361 152.398 153.294 
154.11 145.735 144.909 146.771 147.96 149.265 150.627 151.942 153.138 
154.174 155.049 155.787 139.962 140.001 138.875 138.804 137.689 139.97 
137.503 136.473 138.762 140.009 136.272 135.485 137.571 138.963 140.314 
135.4 134.968 136.514 137.955 139.368 140.732 135.045 134.92 135.818 
137.024 138.339 139.701 141.152 135.224 135.327 135.656 136.515 137.557 
138.742 140.192 141.801 135.929 136.172 136.035 136.561 137.4 138.4 
139.636 141.16 142.715 136.958 137.205 136.831 137.013 137.663 138.629 
139.71 140.982 142.38 143.69 138.097 137.908 139.002 138.87 139.974 
137.779 140.036 141.172 138.91 138.099 141.53 142.524 140.435 139.54 
139.012 143.096 143.899 142.152 141.207 140.571 140.138 144.587 145.311 
143.741 142.832 142.119 141.703 141.334 146.057 146.696 145.261 144.454 
143.797 143.351 143.01 142.65 147.447 147.952 146.764 146.089 145.6 
145.199 144.756 144.292 143.899 148.72 149.096 148.185 147.618 147.219 
146.909 146.468 145.92 145.42 145.069 146.335 146.648 148.244 147.062 
148.726 150.567 147.531 149.07 151.074 152.937 148.022 149.348 151.293 
153.356 155.258 148.435 149.73 151.481 153.599 155.676 157.625 148.795 
150.176 151.81 153.776 155.933 158.044 159.748 149.247 150.607 152.174 
153.902 155.908 158.121 160.044 161.358 149.732 151.003 152.473 154.019 
155.779 157.906 159.987 161.508 162.594 150.098 151.298 152.672 154.133 
155.751 157.71 159.787 161.441 162.589 163.612 147.334 149.434 148.458 
151.972 150.708 149.72 154.685 153.69 152.314 151.192 157.288 156.833 
155.803 154.166 152.748 159.474 159.189 158.807 157.703 155.873 154.219 
161.208 160.861 160.623 160.352 159.282 157.378 155.523 162.755 162.66 
162.402 162.304 162.042 160.769 158.625 156.568 164.144 164.566 164.616 
164.413 164.228 163.576 161.823 159.44 157.328 164.98 165.894 166.447 
167.435 167.63 166.52 168.279 168.525 167.704 166.439 168.865 169.087 
167.904 167.042 165.959 169.12 168.692 168.148 166.882 166.304 165.438 
168.296 167.601 168.179 167.154 166.327 165.677 164.201 167.12 166.872 
167.323 167.164 166.606 165.668 164.097 161.889 166.457 166.445 166.373 
166.375 166.23 165.395 163.709 161.56 159.361 165.767 165.59 165.638 
165.412 165.14 164.425 162.965 161.059 159.142 157.372 163.793 165.025 
163.849 164.981 163.837 166.328 164.968 163.818 166.226 167.471 164.816 
163.562 166.128 167.288 168.288 164.045 162.686 165.527 166.957 167.8 
168.346 162.756 161.476 164.143 165.944 167.272 167.574 167.6 161.729 
160.513 162.815 164.336 166.155 167.063 167.025 166.929 161.043 159.733 
162.143 163.163 164.559 165.896 166.444 166.513 166.551 160.146 158.837 
161.459 162.486 163.361 164.321 165.109 165.526 165.748 165.807 150.026 
151.195 151.08 152.357 152.204 152.543 153.539 153.328 153.801 154.037 
154.759 154.509 155.098 155.497 155.725 156.031 155.721 156.445 157.053 
157.56 157.729 157.195 156.747 157.75 158.562 159.339 159.777 159.863 
158.136 157.527 158.873 159.902 160.84 161.371 161.597 161.594 158.956 
158.2 159.772 160.901 162.029 162.604 162.771 162.837 162.778 148.699 
149.65 148.332 149.343 148.075 150.759 149.072 147.836 150.466 151.898 
148.718 147.535 150.112 151.545 152.997 148.388 147.344 149.707 151.141 
152.557 154.155 148.281 147.33 149.444 150.812 152.105 153.582 155.295 
148.242 147.269 149.338 150.633 151.826 153.01 154.581 156.211 148.043 
147.068 149.15 150.444 151.677 152.72 153.96 155.466 156.903 147.764 