# vtk DataFile Version 4.0
vtk output
ASCII
DATASET POLYDATA
POINTS 1002 float
-82.5016 -81.1207 71.1055 -82.7038 -80.5278 69.9619 -82.1125 -80.2166 70.7105 
-81.9152 -80.8235 72.0403 -81.4842 -79.816 71.6186 -82.4727 -81.6651 72.659 
-81.3784 -80.4953 73.1104 -80.8512 -79.5808 72.507 -81.9159 -81.4332 73.7567 
-82.4602 -82.2629 74.4799 -80.829 -80.3845 74.0853 -80.1946 -79.5673 73.4093 
-81.3424 -81.3075 74.7934 -81.7786 -82.2307 75.463 -82.1027 -83.2885 76.023 
-79.9812 -80.4772 74.9635 -79.4003 -79.5728 74.4861 -80.5354 -81.4671 75.5927 
-81.0061 -82.4537 76.3285 -81.4072 -83.4872 76.9733 -81.6895 -84.6882 77.4919 
-79.0739 -80.546 75.9535 -78.7365 -79.5238 75.6538 -79.5224 -81.7163 76.4032 
-80.0644 -82.9297 77.1705 -80.7316 -83.9275 78.0809 -81.3131 -84.9048 78.8541 
-81.6442 -85.9818 79.5076 -78.8213 -80.5648 77.2329 -78.588 -79.513 76.9398 
-79.1139 -81.7866 77.6481 -79.4522 -83.252 78.3429 -80.0601 -84.4674 79.3059 
-80.8457 -85.3247 80.2602 -81.3743 -86.2767 81.0514 -81.5607 -87.4049 81.6796 
-78.9865 -80.7074 78.8419 -78.701 -79.6166 78.5232 -79.3378 -81.8495 79.3196 
-79.542 -83.2994 79.9388 -79.7733 -84.7744 80.689 -80.2821 -85.8467 81.4764 
-80.8065 -86.8593 82.2318 -81.065 -88.1377 82.9197 -81.1508 -89.4328 83.4431 
-78.9156 -81.0372 80.4943 -78.7144 -79.857 80.1773 -79.2598 -82.1563 80.976 
-79.5138 -83.4371 81.5376 -79.6407 -84.9623 82.0998 -79.8764 -86.3471 82.6573 
-80.2083 -87.5843 83.244 -80.4356 -89.0181 83.8763 -80.5788 -90.5016 84.4822 
-80.7362 -91.6904 84.9436 -78.745 -81.4281 81.8162 -78.7164 -80.1853 81.5235 
-78.8847 -82.5963 82.2387 -79.0451 -83.7771 82.7591 -79.1976 -85.2478 83.2894 
-79.45 -86.8767 83.8168 -79.7645 -88.3866 84.3774 -79.9589 -89.8999 84.9397 
-80.0645 -91.4445 85.4647 -80.2303 -92.7546 85.937 -80.467 -93.7147 86.3184 
-82.5571 -79.7809 69.2965 -81.9982 -79.3304 70.1818 -82.3495 -78.9978 68.5963 
-81.8452 -78.4436 69.6728 -82.1133 -78.102 67.9644 -81.2235 -78.9389 71.0435 
-81.5809 -77.4321 69.1618 -81.9554 -76.9685 67.5046 -80.8686 -78.0726 70.4621 
-80.3246 -78.8016 71.7535 -81.2945 -76.2167 68.7108 -81.895 -75.7674 67.2684 
-80.4729 -76.9623 69.9407 -79.7855 -77.8506 71.0849 -79.5793 -78.7117 72.7271 
-81.1716 -75.0999 68.5352 -81.9314 -74.7606 67.3396 -80.308 -75.7158 69.7108 
-79.5273 -76.5632 70.805 -79.1656 -77.4893 72.2876 -78.9688 -78.5057 74.1028 
-81.328 -74.2244 68.8277 -82.1504 -73.9694 67.7697 -80.556 -74.7111 69.983 
-79.7607 -75.3714 71.1249 -79.1456 -76.1016 72.3888 -78.7929 -77.1093 73.939 
-78.5583 -78.3464 75.4963 -81.7005 -73.5208 69.5025 -82.5721 -73.4491 68.5035 
-81.0481 -73.8607 70.6505 -80.344 -74.4567 71.8587 -79.492 -75.0234 73.0033 
-78.8482 -75.777 74.2123 -78.5612 -76.9753 75.5744 -78.5252 -78.3288 77.0149 
-82.1911 -73.1205 70.3378 -83.1172 -73.2854 69.4054 -81.5335 -73.1531 71.434 
-80.9194 -73.6113 72.6388 -80.0324 -74.1853 73.7507 -79.1496 -74.8015 74.7987 
-78.7269 -75.801 76.0071 -78.6496 -77.1004 77.3836 -78.6616 -78.4608 78.8087 
-82.7857 -73.0456 71.1763 -83.7001 -73.3451 70.3109 -82.0361 -72.8084 72.192 
-81.3767 -73.0094 73.3307 -80.5587 -73.5298 74.4058 -79.6639 -74.1253 75.3991 
-79.113 -75.0024 76.5556 -78.9471 -76.1884 77.9115 -78.8586 -77.4332 79.26 
-78.755 -78.7552 80.4773 -83.7475 -73.2349 71.7152 -82.8961 -72.8375 72.697 
-83.8763 -73.0684 73.2124 -83.0439 -72.8372 74.3484 -83.9282 -73.2327 74.7987 
-82.0709 -72.7555 73.837 -83.1207 -73.256 76.0923 -83.8597 -73.881 76.4533 
-82.0832 -73.0797 75.5932 -81.1877 -73.156 74.9808 -83.1693 -73.9502 77.9039 
-83.8572 -74.6474 78.2306 -82.1563 -73.6568 77.4464 -81.0961 -73.6422 76.7485 
-80.2908 -73.7455 76.0122 -83.248 -74.8186 79.7014 -83.9774 -75.4171 80.0061 
-82.3007 -74.3617 79.3299 -81.2413 -74.2717 78.7029 -80.3606 -74.3592 77.8937 
-79.6695 -74.57 77.1777 -83.2812 -75.9778 81.2837 -84.0741 -76.4176 81.5291 
-82.3775 -75.4157 81.0392 -81.4298 -75.0777 80.6537 -80.5992 -75.1747 79.9809 
-79.9407 -75.4678 79.2437 -79.387 -75.771 78.5965 -83.308 -77.1723 82.716 
-84.1435 -77.4841 82.8931 -82.3932 -76.7191 82.5312 -81.5634 -76.2388 82.3436 
-80.8367 -76.1441 81.911 -80.1703 -76.4593 81.223 -79.6122 -76.7751 80.5787 
-79.18 -77.0152 79.9742 -83.4723 -78.0949 84.189 -84.2647 -78.368 84.2484 
-82.5445 -77.8323 84.0142 -81.7572 -77.5387 83.8158 -81.1716 -77.3929 83.5007 
-80.5365 -77.5566 82.9119 -79.8474 -77.8098 82.2352 -79.3172 -77.9754 81.68 
-78.9679 -78.2436 81.1287 -83.7312 -78.934 85.5547 -84.397 -79.2013 85.4597 
-82.8701 -78.7819 85.4593 -82.0648 -78.7378 85.2041 -81.5299 -78.7866 84.8341 
-81.0337 -78.9277 84.3302 -80.3338 -79.0549 83.7331 -79.6482 -79.1061 83.1598 
-79.1777 -79.2554 82.6318 -78.8722 -79.6498 82.089 -78.8539 -81.3692 82.7657 
-79.1364 -80.8922 83.3821 -79.2054 -82.6348 84.0352 -79.4972 -80.5847 84.0757 
-79.4748 -82.3081 84.917 -79.5161 -84.0676 85.6316 -80.0335 -80.5694 84.6871 
-79.7333 -82.2059 85.8095 -79.5475 -83.997 86.7476 -79.503 -86.0587 87.5565 
-80.7729 -80.6166 85.1547 -80.2906 -82.3156 86.3015 -79.8216 -84.093 87.5272 
-79.5408 -86.156 88.5439 -79.4339 -88.6267 89.3829 -81.3913 -80.4651 85.6433 
-81.0252 -82.2915 86.579 -80.5577 -84.1655 87.7602 -80.1663 -86.2597 88.9608 
-79.8142 -88.6192 90.0107 -79.5621 -91.311 90.7474 -81.8632 -80.1951 86.1835 
-81.5802 -82.0199 87.0822 -81.2369 -83.9816 88.0763 -80.9434 -86.2253 89.1231 
-80.53 -88.6264 90.189 -80.0003 -91.1358 91.1211 -79.6393 -94.0291 91.6408 
-82.5494 -79.9991 86.5766 -82.1696 -81.741 87.5709 -81.7458 -83.6986 88.5877 
-81.4192 -85.9645 89.5419 -81.06 -88.5321 90.3937 -80.4724 -91.0515 91.2732 
-79.89 -93.7622 91.9622 -79.5607 -96.8682 92.2368 -83.4137 -79.9654 86.711 
-82.9916 -81.58 87.7179 -82.4612 -83.5036 88.7514 -81.9674 -85.6445 89.8176 
-81.5515 -88.1715 90.6894 -81.0232 -90.8031 91.4558 -80.3537 -93.4493 92.1715 
-79.7899 -96.4204 92.5973 -79.4561 -99.5291 92.663 -84.1393 -80.1083 86.6091 
-83.7888 -81.5352 87.6218 -83.319 -83.3413 88.6032 -82.7931 -85.3477 89.6834 
-82.2859 -87.6881 90.6967 -81.7605 -90.2789 91.5321 -81.1176 -92.9049 92.269 
-80.3922 -95.7561 92.8091 -79.7693 -98.8395 93.0215 -79.361 -101.722 92.9509 
-78.8286 -82.6864 83.0981 -79.1833 -84.0111 84.4411 -78.8146 -83.9424 83.5885 
-79.5485 -85.8014 86.2325 -79.1355 -85.6004 85.1253 -78.8445 -85.4397 84.2277 
-79.5528 -88.4699 88.3084 -79.5548 -88.0921 87.1179 -79.1445 -87.7237 86.0105 
-79.0478 -87.3641 84.9227 -79.4298 -91.591 90.0503 -79.5602 -91.3893 89.0765 
-79.4836 -90.8034 88.0195 -79.2667 -90.1578 86.8803 -79.3958 -89.3434 85.6391 
-79.4456 -94.6906 91.1876 -79.3718 -94.8849 90.4894 -79.3766 -94.3618 89.6593 
-79.3246 -93.4919 88.7157 -79.3735 -92.4247 87.5997 -79.6253 -91.1379 86.2785 
-79.4349 -97.8246 91.8589 -79.253 -98.3673 91.3504 -79.1098 -98.1253 90.7549 
-79.1037 -97.2689 90.0264 -79.1779 -96.0135 89.1125 -79.373 -94.3968 87.9987 
-79.6874 -92.7843 86.714 -79.3176 -100.766 92.2672 -79.1019 -101.64 91.7785 
-78.8384 -101.806 91.2909 -78.8288 -101.28 90.7734 -78.9931 -100.147 90.057 
-79.125 -98.2677 89.125 -79.3736 -96.0423 88.0991 -79.7868 -94.1821 87.0226 
-79.1648 -103.13 92.5408 -78.9164 -104.299 91.9726 -78.5379 -104.922 91.3664 
-78.4237 -104.885 90.8713 -78.7308 -104.239 90.4094 -78.9853 -102.674 89.7472 
-79.1144 -100.1 88.9418 -79.4715 -97.3786 88.1608 -80.0054 -95.2782 87.3204 
-79.103 -104.546 92.8818 -78.8378 -106.076 92.2924 -78.8629 -107.29 92.5628 
-78.3822 -109.076 91.7911 -78.6051 -109.906 91.9172 -78.3785 -107.343 91.4994 
-77.7448 -112.005 91.1508 -78.2655 -112.03 91.0005 -77.639 -110.496 90.8602 
-77.9257 -107.943 90.7078 -77.192 -113.996 90.4093 -78.164 -113.229 89.9947 
-76.7953 -113.214 90.2757 -77.2337 -110.852 89.9705 -78.0963 -107.789 90.1844 
-77.4679 -114.601 89.3667 -78.73 -113.606 89.0919 -76.4626 -114.508 89.4577 
-76.6299 -112.873 89.2559 -77.7024 -110.254 89.4173 -78.6288 -106.815 89.798 
-78.6617 -114.41 88.2119 -79.685 -113.245 88.4805 -77.2819 -114.591 88.1644 
-76.708 -113.56 88.2222 -77.3817 -111.664 88.5764 -78.3528 -108.715 89.1138 
-78.889 -104.494 89.2717 -79.8648 -113.599 87.5544 -80.4824 -111.985 88.2189 
-78.6967 -114.182 87.1573 -77.6627 -113.439 87.2104 -77.629 -111.9 87.7263 
-78.2542 -109.528 88.4603 -78.8213 -105.658 88.8798 -79.2 -101.107 88.7252 
-80.6159 -111.878 87.5229 -81.1095 -110.044 88.1705 -79.7824 -112.979 87.0332 
-78.8106 -112.658 86.9847 -78.41 -111.208 87.4038 -78.6891 -109.11 88.0799 
-79.1441 -105.882 88.6307 -79.5404 -101.689 88.6706 -79.8416 -97.9269 88.1607 
-81.2389 -109.409 87.7613 -81.7984 -107.841 88.1854 -80.5435 -110.63 87.4148 
-79.7553 -110.75 87.3656 -79.2964 -109.597 87.6416 -79.4108 -107.675 88.0879 
-79.7916 -105.051 88.5079 -80.1291 -101.619 88.598 -80.3601 -98.1908 88.1501 
-80.46 -95.5937 87.3005 -79.5698 -101.937 93.2404 -79.3309 -104.829 93.1913 
-80.0731 -101.91 93.4003 -80.0028 -104.801 93.4066 -80.8688 -101.401 93.3918 
-79.2618 -107.46 92.8423 -80.9609 -104.046 93.3716 -81.703 -100.235 93.1864 
-80.1227 -107.165 93.0827 -79.2397 -109.573 91.9991 -81.5939 -102.436 92.8575 
-82.3296 -98.7907 92.8232 -80.9624 -106.057 92.9866 -80.1347 -108.726 92.1718 
-79.1203 -111.028 90.7828 -81.9301 -100.576 92.1725 -82.8851 -97.4876 92.3705 
-81.2922 -104.151 92.2741 -80.7794 -107.285 92.1512 -79.9885 -109.76 90.9437 
-79.1812 -111.94 89.7276 -82.6647 -98.7947 91.788 -83.6071 -96.0626 91.6833 
-81.7778 -101.955 91.6151 -81.2504 -105.123 91.6737 -80.7285 -107.961 91.1991 
-80.0371 -110.371 90.0759 -79.6581 -112.149 89.192 -83.8004 -96.8283 91.3752 
-84.4647 -94.3398 90.6822 -82.9147 -99.6577 91.4419 -82.1339 -102.55 91.2743 
-81.6362 -105.327 91.1084 -81.0648 -107.937 90.5566 -80.491 -109.966 89.7714 
-80.3476 -111.219 89.0194 -84.8933 -94.8557 90.5918 -85.3467 -92.7225 89.6602 
-84.1979 -97.3044 91.1419 -83.2946 -99.9045 91.074 -82.6617 -102.444 90.8496 
-82.3193 -104.896 90.6707 -81.8093 -107.042 90.2782 -81.2728 -108.522 89.6449 
-81.0881 -109.442 88.8887 -85.8347 -93.2824 89.6816 -86.1844 -91.4652 88.8418 
-85.3149 -95.2735 90.4443 -84.4544 -97.44 90.6849 -83.6332 -99.7413 90.5459 
[...]
CELL_DATA 2000
SCALARS Distance double
LOOKUP_TABLE default
134.202 134.09 134.464 135.167 134.046 134.422 135.21 135.58 136.409 
134.105 134.47 135.321 135.685 136.533 136.887 137.701 134.187 134.556 
135.396 135.797 136.651 137.022 137.866 138.19 139.033 134.325 134.628 
135.429 135.829 136.739 137.159 138.146 138.48 139.494 139.722 140.734 
134.808 134.92 135.812 136.019 137.075 137.395 138.588 138.918 140.122 
140.364 141.511 141.653 142.73 135.727 135.69 136.743 136.753 137.942 
138.056 139.349 139.561 140.827 141.058 142.23 142.441 143.549 143.695 
144.741 136.805 136.766 137.838 137.852 139.004 139.083 140.287 140.439 
141.627 141.805 142.936 143.13 144.253 144.462 145.585 145.718 146.766 
137.8 137.802 138.767 138.843 139.843 139.99 141.035 141.253 142.364 
142.587 143.734 143.905 145.075 145.23 146.413 146.561 147.682 147.754 
148.746 133.633 132.73 133.29 133.484 131.783 132.385 132.571 133.11 
133.339 130.773 131.414 131.589 132.143 132.273 132.93 133.272 129.776 
130.364 130.482 131.065 131.122 131.776 132.048 132.887 133.352 129.043 
129.429 129.518 129.983 130.061 130.616 130.877 131.655 132.17 133.028 
133.561 128.754 128.899 129.069 129.301 129.525 129.82 130.142 130.644 
131.176 131.924 132.565 133.344 133.997 128.907 128.849 129.109 129.183 
129.569 129.678 130.071 130.24 130.703 131.137 131.783 132.462 133.224 
133.979 134.827 129.447 129.21 129.461 129.418 129.841 129.918 130.34 
130.384 130.754 130.904 131.464 131.908 132.723 133.359 134.281 134.994 
135.933 130.248 129.893 130.079 129.884 130.241 130.241 130.66 130.683 
131.041 131.069 131.569 131.814 132.63 133.095 134.056 134.606 135.541 
136.156 137.025 130.786 131.558 130.954 130.603 132.496 131.82 131.502 
130.888 130.722 133.662 132.908 132.648 131.917 131.711 131.129 131.068 
135.03 134.221 134.019 133.2 132.982 132.224 132.062 131.488 131.438 
136.53 135.696 135.539 134.673 134.496 133.624 133.478 132.673 132.641 
131.98 132.083 138.056 137.244 137.123 136.253 136.122 135.231 135.167 
134.286 134.353 133.513 133.719 132.949 133.252 139.53 138.769 138.686 
137.852 137.768 136.908 136.91 136.059 136.178 135.354 135.575 134.78 
135.064 134.305 134.644 140.948 140.239 140.209 139.417 139.398 138.583 
138.661 137.847 138.003 137.185 137.367 136.581 136.791 136.068 136.328 
135.663 136.01 142.293 141.657 141.701 140.962 141.008 140.237 140.38 
139.619 139.84 139.037 139.232 138.38 138.549 137.745 137.968 137.274 
137.588 136.989 137.389 138.359 138.569 138.939 139.961 138.971 139.258 
140.351 140.683 141.812 139.591 139.79 140.923 141.197 142.394 142.678 
143.937 140.296 140.486 141.607 141.846 143.048 143.323 144.6 144.93 
146.344 140.88 141.143 142.223 142.498 143.655 143.967 145.238 145.596 
146.977 147.396 148.863 141.365 141.645 142.71 143.025 144.15 144.505 
145.754 146.176 147.526 147.97 149.336 149.811 151.193 141.92 142.134 
143.187 143.482 144.603 144.955 146.172 146.617 147.931 148.419 149.716 
150.189 151.459 151.988 153.302 142.536 142.708 143.701 143.967 145.043 
145.383 146.538 146.975 148.223 148.735 149.995 150.488 151.699 152.197 
153.432 154.009 155.268 143.056 143.255 144.158 144.433 145.423 145.768 
146.836 147.267 148.427 148.947 150.156 150.693 151.87 152.384 153.543 
154.095 155.273 155.869 156.979 138.624 140.195 139.439 139.58 141.995 
141.099 141.194 140.431 140.619 144.187 143.11 143.241 142.221 142.398 
141.559 141.829 146.755 145.591 145.915 144.642 144.907 143.683 143.978 
142.963 143.281 149.397 148.34 148.855 147.594 147.994 146.579 146.896 
145.519 145.818 144.594 144.825 151.83 150.982 151.626 150.554 151.034 
149.734 150.051 148.628 148.858 147.424 147.571 146.195 146.274 154.041 
153.364 154.14 153.249 153.822 152.677 153.037 151.711 151.914 150.482 
150.539 149.06 149.018 147.608 147.593 156.032 155.513 156.352 155.655 
156.289 155.344 155.781 154.616 154.89 153.512 153.553 152.01 151.854 
150.341 150.181 148.844 148.785 157.694 157.35 158.147 157.669 158.263 
157.58 157.998 157.142 157.483 156.395 156.527 155.061 154.858 153.194 
152.88 151.381 151.181 149.924 149.813 158.752 160.342 159.48 159.221 
161.756 161.014 160.746 159.814 159.335 162.869 162.368 162.149 161.268 
160.737 159.737 159.082 163.43 163.296 163.203 162.555 161.993 161.057 
160.395 159.422 158.677 163.51 163.597 163.528 163.268 162.71 162.083 
161.39 160.64 159.923 158.935 157.871 163.421 163.54 163.372 163.274 
162.706 162.403 161.729 161.344 160.644 159.974 158.852 157.739 156.191 
163.064 163.326 163.147 163.074 162.511 162.242 161.594 161.385 160.749 
160.392 159.325 158.455 156.844 155.693 154.048 162.234 162.731 162.633 
162.787 162.298 162.095 161.406 161.174 160.503 160.286 159.336 158.731 
157.245 156.227 154.591 153.56 152.196 161.1 161.693 161.596 162.039 
161.612 161.716 160.971 160.864 160.026 159.896 158.939 158.595 157.274 
156.527 154.978 154.056 152.661 151.828 150.705 158.699 159.103 159.408 
160.323 159.381 159.822 160.782 160.978 161.737 159.25 159.98 161.039 
161.401 162.057 162.199 162.717 158.506 159.489 160.57 161.389 162.046 
162.352 162.618 162.841 163.127 157.513 158.42 159.271 160.437 161.216 
162.004 162.277 162.584 162.7 163.019 163.237 156.633 157.371 157.969 
158.961 159.724 160.811 161.346 162.023 162.201 162.57 162.736 163.083 
163.237 155.658 156.465 157.04 157.805 158.407 159.333 159.939 160.864 
161.241 161.9 162.044 162.51 162.56 162.94 162.861 154.549 155.431 
156.077 156.876 157.368 158.132 158.565 159.445 159.868 160.736 160.986 
161.633 161.629 162.089 161.909 162.3 162.007 153.614 154.393 155.052 
155.852 156.319 157.034 157.326 158.092 158.446 159.341 159.728 160.503 
160.646 161.125 160.972 161.296 160.999 161.318 160.951 143.544 144.605 
144.272 144.688 145.762 145.421 145.934 145.532 145.993 147.002 146.67 
147.279 146.884 147.441 146.952 147.45 148.191 147.913 148.591 148.288 
148.966 148.514 149.106 148.531 149.078 149.324 149.066 149.785 149.587 
150.419 150.1 150.832 150.29 150.898 150.26 150.818 150.428 150.202 
150.994 150.834 151.834 151.617 152.527 152.06 152.732 152.11 152.678 
152.023 152.538 151.356 151.261 152.129 152.088 153.2 153.107 154.133 
153.771 154.484 153.91 154.475 153.864 154.418 153.746 154.238 152.108 
152.107 153.001 153.119 154.222 154.345 155.356 155.239 155.962 155.569 
156.161 155.64 156.257 155.645 156.224 155.487 155.971 152.883 152.868 
153.754 153.889 154.909 155.125 156.041 156.15 156.884 156.814 157.528 
157.269 158.008 157.517 158.161 157.48 157.982 157.209 157.62 143.076 
142.697 143.271 144.072 142.353 142.904 143.696 144.289 145.163 142.018 
142.581 143.379 143.945 144.804 145.43 146.361 141.608 142.21 143.019 
143.625 144.462 145.076 145.985 146.645 147.564 141.235 141.785 142.596 
143.228 144.051 144.679 145.516 146.21 147.14 147.835 148.72 141.024 
141.481 142.285 142.85 143.686 144.255 145.006 145.64 146.49 147.297 
148.256 148.984 149.813 140.849 141.295 142.055 142.589 143.428 143.961 
144.699 145.176 145.894 146.575 147.509 148.384 149.316 150.018 150.728 
140.62 141.07 141.756 142.295 143.076 143.675 144.461 144.953 145.643 
146.108 146.902 147.623 148.581 149.4 150.217 150.844 151.474 140.426 
140.825 141.456 141.937 142.63 143.23 144.02 144.652 145.43 145.929 
146.635 147.143 147.937 148.654 149.51 150.255 150.99 151.582 152.232 
140.553 141.12 141.07 141.573 141.768 141.687 142.197 142.135 142.711 
142.491 142.365 142.893 142.808 143.415 143.38 144.09 143.313 143.107 
143.632 143.545 144.23 144.185 144.965 144.904 145.612 144.177 143.93 
144.424 144.331 145.087 145.072 145.898 145.836 146.542 146.379 146.902 
144.892 144.734 145.229 145.166 145.949 145.962 146.755 146.705 147.309 
147.208 147.711 147.569 148.096 145.378 145.363 145.939 145.964 146.768 
146.816 147.556 147.481 147.977 147.854 148.345 148.303 148.95 148.885 
149.583 145.822 145.865 146.562 146.652 147.482 147.574 148.304 148.238 
148.743 148.557 149.12 149.031 149.855 149.815 150.673 150.505 151.168 
146.403 146.424 147.188 147.282 148.103 148.213 148.931 148.93 149.508 
149.387 150.063 149.982 150.931 150.892 151.88 151.7 152.429 152.065 
152.537 147.029 148.28 147.708 147.846 149.452 148.947 149.096 148.568 
148.73 150.614 150.089 150.237 149.749 149.883 149.393 149.483 152.084 
151.385 151.566 150.943 151.127 150.554 150.69 150.109 150.135 154.025 
153.153 153.473 152.584 152.909 152.074 152.378 151.565 151.776 150.926 
150.975 156.175 155.343 155.863 154.865 155.322 154.256 154.615 153.572 
153.85 152.867 153.057 152.017 152.053 157.982 157.435 158.026 157.286 
157.758 156.794 157.008 155.896 155.914 154.912 154.952 154.082 154.093 
153.106 152.971 159.239 158.94 159.439 159.072 159.455 158.882 158.948 
158.039 157.761 156.748 156.476 155.682 155.563 154.846 154.639 153.753 
153.391 160.24 159.977 160.369 160.13 160.436 160.128 160.186 159.579 
159.264 158.355 157.923 157.056 156.812 156.114 155.91 155.155 154.761 
153.884 153.394 146.841 147.077 147.324 148.083 147.332 147.593 148.306 
148.549 149.249 147.287 147.735 148.425 148.735 149.408 149.68 150.407 
146.776 147.442 148.154 148.688 149.386 149.796 150.587 150.926 151.832 
146.091 146.778 147.511 148.221 148.998 149.629 150.49 151.038 152.043 
152.497 153.621 145.547 146.129 146.847 147.542 148.385 149.131 150.056 
150.784 151.832 152.543 153.738 154.361 155.596 145.093 145.635 146.313 
146.944 147.787 148.534 149.509 150.286 151.347 152.166 153.383 154.244 
155.526 156.256 157.381 144.609 145.161 145.816 146.427 147.237 147.967 
148.958 149.754 150.838 151.654 152.844 153.754 155.059 155.971 157.171 
157.852 158.752 144.14 144.675 145.345 145.935 146.731 147.423 148.389 
149.195 150.283 151.129 152.283 153.181 154.437 155.406 156.671 157.525 
158.573 159.118 159.87 146.105 145.204 145.823 146.312 144.528 144.976 
145.334 146.05 146.555 143.873 144.3 144.455 145.041 145.38 146.178 
146.507 142.825 143.462 143.491 144.056 144.143 144.881 145.079 145.908 
146.021 141.364 142.18 142.219 142.893 142.848 143.533 143.58 144.39 
144.506 145.31 145.377 139.862 140.677 140.798 141.525 141.525 142.175 
142.155 142.875 142.96 143.782 143.936 144.728 144.859 138.445 139.227 
139.374 140.13 140.19 140.859 140.831 141.478 141.49 142.251 142.401 
143.264 143.472 144.275 144.422 137.075 137.812 137.892 138.671 138.691 
139.454 139.41 140.119 140.087 140.811 140.917 141.745 141.985 142.849 
143.065 143.835 143.955 135.827 136.47 136.494 137.178 137.147 137.88 
137.834 138.601 138.611 139.387 139.524 140.329 140.597 141.423 141.704 
142.482 142.667 143.37 143.49 135.184 134.394 135.147 135.814 133.608 
134.379 135.066 135.749 136.398 132.972 133.672 134.44 135.063 135.689 
136.341 137.044 132.645 133.151 133.937 134.524 135.219 135.761 136.463 
137.095 137.895 132.671 132.958 133.652 134.124 134.899 135.407 136.19 
136.705 137.558 138.116 138.969 132.932 133.1 133.777 134.043 134.842 
135.227 136.081 136.537 137.436 137.942 138.854 139.322 140.145 133.298 
133.441 134.172 134.34 135.125 135.362 136.185 136.519 137.382 137.843 
138.747 139.251 140.09 140.516 141.248 133.693 133.833 134.522 134.718 
135.432 135.672 136.411 136.687 137.462 137.822 138.659 139.122 139.95 
140.414 141.137 141.545 142.186 134.07 134.194 134.796 134.984 135.624 
135.877 136.574 136.869 137.622 137.939 138.736 139.096 139.901 140.293 
141.031 141.412 142.064 142.43 143.031 134.475 135.436 135.007 135.203 
136.684 136.124 136.296 135.804 136.036 138.011 137.471 137.69 137.075 
137.277 136.731 137.016 139.317 138.783 139.086 138.533 138.782 138.142 
138.39 137.81 138.122 140.921 140.192 140.49 139.917 140.243 139.662 
139.934 139.302 139.572 138.972 139.27 142.874 141.984 142.232 141.466 
141.809 141.159 141.493 140.849 141.123 140.479 140.732 140.124 140.396 
144.898 143.996 144.216 143.342 143.641 142.873 143.223 142.493 142.788 
142.063 142.299 141.614 141.829 141.22 141.464 146.922 146.031 146.234 
145.32 145.528 144.723 145.007 144.275 144.547 143.791 144.004 143.238 
143.418 142.695 142.871 142.25 142.47 148.912 148.077 148.301 147.349 
147.485 146.578 146.75 145.985 146.197 145.491 145.676 144.945 145.096 
144.335 144.46 143.721 143.857 143.227 143.422 144.115 144.627 144.689 
145.386 145.305 145.334 146.1 146.088 146.845 145.976 146.058 146.899 
146.911 147.75 147.695 148.548 146.563 146.712 147.629 147.734 148.689 
148.693 149.653 149.563 150.492 147.142 147.323 148.366 148.523 149.656 
149.716 150.836 150.769 151.822 151.635 152.58 147.842 148.023 149.28 
149.443 150.824 150.879 152.217 152.113 153.33 153.105 154.199 153.859 
154.818 148.713 148.898 150.359 150.561 152.171 152.272 153.813 153.702 
155.064 154.793 156.016 155.642 156.714 156.225 157.111 149.559 149.836 
151.344 151.683 153.368 153.655 155.285 155.341 156.745 156.576 157.816 
157.524 158.622 158.182 159.037 158.453 159.059 150.121 150.544 151.958 
152.483 154.103 154.652 156.269 156.616 157.964 158.036 159.141 159.09 
160.082 159.906 160.69 160.261 160.738 160.122 160.384 130.229 129.381 
129.807 129.834 128.801 129.038 129.033 129.403 129.474 128.656 128.645 
128.613 128.765 128.857 129.196 129.484 128.949 128.707 128.658 128.575 
128.634 128.764 129.029 129.41 129.857 129.606 129.165 129.095 128.83 
128.861 128.748 128.876 129.026 129.329 129.778 130.218 130.509 129.929 
129.828 129.434 129.533 129.225 129.297 129.062 129.171 129.287 129.648 
130.129 130.704 131.534 130.903 130.787 130.292 130.461 130.096 130.284 
129.794 129.838 129.451 129.737 129.817 130.506 130.912 131.757 132.581 
131.988 131.915 131.346 131.481 131.091 131.352 130.91 131.039 130.458 
130.688 130.354 131.033 131.104 132.056 132.303 133.206 133.556 133.063 
133.076 132.522 132.604 132.132 132.317 131.928 132.114 131.667 131.912 
131.514 132.068 131.92 132.76 132.825 133.689 133.823 134.566 130.77 
130.367 130.881 131.472 129.979 130.441 131.065 131.583 132.203 129.982 
130.199 130.826 131.23 131.945 132.4 133.111 130.395 130.447 131.056 
131.218 131.949 132.271 133.071 133.456 134.233 130.842 130.941 131.592 
131.656 132.34 132.47 133.223 133.502 134.301 134.648 135.396 131.359 
131.408 132.154 132.239 132.956 132.992 133.656 133.757 134.483 134.748 
135.518 135.82 136.519 132.296 132.105 132.852 132.851 133.625 133.644 
134.307 134.283 134.929 135.028 135.786 136.011 136.76 136.966 137.614 
133.573 133.208 133.822 133.656 134.37 134.339 135.027 134.976 135.609 
135.585 136.297 136.399 137.153 137.289 137.943 138.062 138.635 134.837 
134.46 134.934 134.66 135.248 135.124 135.794 135.729 136.397 136.328 
137.004 136.996 137.683 137.738 138.353 138.422 138.954 139.049 139.561 
131.124 131.867 131.63 131.895 132.605 132.38 132.684 132.436 132.774 
133.482 133.173 133.512 133.247 133.624 133.399 133.873 134.57 134.164 
134.509 134.165 134.59 134.313 134.82 134.606 135.204 135.721 135.309 
135.661 135.268 135.711 135.377 135.91 135.63 136.227 136.016 136.677 
136.823 136.448 136.831 136.455 136.916 136.565 137.103 136.781 137.357 
137.084 137.711 137.515 138.18 137.882 137.538 137.949 137.617 138.092 
137.766 138.291 137.978 138.529 138.23 138.808 138.563 139.193 139.006 
139.643 138.884 138.58 138.996 138.71 139.171 138.885 139.359 139.09 
139.6 139.352 139.899 139.654 140.234 140.018 140.628 140.44 141.036 
139.807 139.545 139.958 139.714 140.155 139.899 140.322 140.067 140.523 
140.325 140.859 140.681 141.238 141.036 141.588 141.396 141.954 141.783 
142.33 145.832 145.32 145.35 145.004 145.011 144.995 144.7 144.678 
144.43 144.615 144.719 144.42 144.417 144.074 144.109 143.78 143.872 
144.152 143.768 143.933 143.393 143.537 143.001 143.208 142.664 142.885 
143.197 142.713 143.003 142.361 142.586 141.898 142.168 141.525 141.814 
141.158 141.95 142.137 141.576 141.839 141.255 141.486 140.855 141.041 
140.396 140.61 139.972 140.232 139.623 141.194 141.249 140.647 140.786 
140.262 140.468 139.957 140.113 139.507 139.605 138.936 139.09 138.466 
138.739 138.196 140.572 140.564 139.971 140 139.469 139.592 139.09 
139.249 138.65 138.753 138.037 138.123 137.425 137.613 137.036 137.346 
136.857 140.029 139.997 139.435 139.416 138.867 138.892 138.322 138.397 
137.767 137.861 137.167 137.241 136.536 136.634 136.016 136.229 135.735 
136.053 135.628 
POINT_DATA 1002
SCALARS Distance double
LOOKUP_TABLE default
134.806 133.979 133.823 134.766 133.683 135.932 134.82 133.638 136.046 
137.254 134.955 133.726 136.192 137.363 138.49 134.99 133.85 136.249 
137.516 138.722 139.891 135.049 134.082 136.255 137.719 139.207 140.558 
141.759 135.633 134.714 136.758 138.216 139.832 141.331 142.648 143.787 
136.727 135.743 137.872 139.2 140.638 142.015 143.348 144.655 145.787 
137.831 136.846 138.961 140.183 141.484 142.765 144.031 145.388 146.719 
147.798 138.733 137.824 139.742 140.831 142.097 143.517 144.925 146.276 
147.583 148.752 149.693 133.1 132.95 132.145 132.066 131.143 132.701 
131.041 130.141 131.666 132.456 129.916 129.279 130.495 131.211 132.483 
129.1 128.756 129.545 130.149 131.278 132.756 128.849 128.665 129.264 
129.773 130.513 131.745 133.199 129.042 129.022 129.444 130.006 130.442 
131.162 132.449 134.03 129.573 129.753 129.774 130.313 130.711 131.117 
132.12 133.605 135.215 130.359 130.639 130.311 130.643 131.033 131.386 
132.21 133.564 135.003 136.41 131.364 131.144 132.17 132.151 133.171 
131.215 133.408 134.41 132.389 131.534 134.849 135.837 133.807 132.754 
131.902 136.406 137.351 135.369 134.317 133.367 132.658 137.98 138.84 
136.989 136.013 135.178 134.519 133.985 139.491 140.263 138.592 137.728 
136.992 136.37 135.841 135.37 140.966 141.618 140.173 139.434 138.824 
138.196 137.537 136.996 136.622 142.391 142.872 141.749 141.106 140.603 
140.094 139.408 138.704 138.207 137.937 139.318 139.566 141 140.005 
141.485 142.955 140.664 142.104 143.598 145.264 141.389 142.773 144.273 
145.934 147.841 141.948 143.336 144.861 146.585 148.418 150.337 142.389 
143.796 145.321 147.087 148.913 150.687 152.564 142.909 144.266 145.751 
147.448 149.265 150.977 152.723 154.631 143.468 144.731 146.138 147.731 
149.497 151.231 152.9 154.685 156.499 143.907 145.103 146.44 147.937 
149.619 151.359 153.029 154.71 156.434 158.014 140.267 142.032 141.286 
144.348 143.348 142.565 147.169 146.237 145.141 144.234 150.02 149.388 
148.367 147.189 146.038 152.601 152.269 151.459 150.34 149.054 147.628 
154.941 154.891 154.317 153.348 152.065 150.508 148.928 156.982 157.149 
156.842 156.199 155.14 153.469 151.597 150.027 158.583 158.891 158.765 
158.401 157.865 156.592 154.531 152.527 150.999 159.668 160.2 161.168 
161.687 162.423 160.363 163.006 163.187 161.767 160.097 163.705 163.407 
162.905 161.321 159.782 163.685 163.445 163.199 162.031 160.831 159.174 
163.496 163.326 162.941 161.982 161.181 159.933 157.468 163.162 162.71 
162.79 161.806 161 160.076 157.985 155.101 162.328 161.673 162.415 
161.694 160.725 159.796 158.155 155.62 153.067 161.087 160.547 161.381 
161.047 160.185 159.186 157.859 155.833 153.498 151.425 158.425 160.143 
158.753 160.581 158.825 161.634 160.55 158.393 161.998 162.552 159.54 
157.6 161.633 162.52 162.796 158.135 156.817 160.153 161.872 162.451 
162.864 157.174 155.921 158.611 160.42 161.758 162.406 162.946 156.314 
154.749 157.645 158.98 160.428 161.55 162.188 162.554 155.242 153.663 
156.684 157.788 158.942 160.248 161.176 161.538 161.647 154.281 152.904 
155.64 156.642 157.561 158.847 160.099 160.677 160.716 160.645 143.857 
145.056 144.903 146.307 146.08 146.442 147.626 147.304 147.908 147.979 
148.815 148.46 149.337 149.661 149.684 149.931 149.587 150.619 151.311 
151.534 151.485 151.1 150.607 151.964 152.934 153.349 153.324 153.236 
152.088 151.385 153.214 154.436 155.043 155.07 155.044 154.985 152.859 
152.09 154.068 155.396 156.248 156.606 156.821 156.922 156.781 142.502 
143.458 142.133 143.124 141.807 144.51 142.815 141.436 144.203 145.703 
142.383 141.01 143.863 145.327 146.932 141.967 140.731 143.444 144.852 
146.376 148.118 141.749 140.596 143.145 144.475 145.697 147.404 149.252 
141.545 140.411 142.877 144.267 145.362 146.629 148.501 150.201 141.258 
140.195 142.469 143.886 145.236 146.338 147.745 149.503 150.955 141.027 
140.059 142.088 143.339 144.84 146.219 147.353 148.721 150.314 151.708 