# vtk DataFile Version 4.0
vtk output
ASCII
DATASET POLYDATA
POINTS 1002 float
-82.4705 -82.1737 72.7818 -82.5405 -81.4829 71.7194 -81.9641 -81.2185 72.3183 
-81.8309 -81.9997 73.4159 -81.2827 -81.0171 72.9736 -82.2925 -83.0343 73.9025 
-81.2764 -81.8728 74.3567 -80.6213 -80.975 73.9032 -81.8327 -82.881 74.863 
-82.2814 -83.8983 75.474 -80.8202 -81.9201 75.6214 -80.1167 -81.047 75.0869 
-81.5154 -82.7898 76.2211 -81.9648 -83.8198 76.8001 -82.3477 -84.8995 77.3932 
-80.279 -82.0972 76.8415 -79.6708 -81.1076 76.3127 -81.074 -82.9079 77.5469 
-81.5671 -83.8886 78.1835 -81.8027 -85.1478 78.6853 -82.1476 -86.3122 79.1294 
-79.6262 -82.2894 77.9733 -79.2536 -81.1478 77.6009 -80.3116 -83.2312 78.5746 
-80.911 -84.2164 79.2227 -81.1476 -85.5711 79.7818 -81.4281 -86.8754 80.2819 
-81.8807 -87.8786 80.7509 -79.2256 -82.5166 79.2972 -78.9925 -81.3025 78.995 
-79.5944 -83.6858 79.7216 -80.1253 -84.7963 80.25 -80.518 -86.1667 80.8179 
-80.8712 -87.5205 81.4508 -81.3692 -88.4838 82.0565 -81.7631 -89.396 82.5213 
-79.0674 -82.8627 80.6934 -78.7643 -81.6768 80.3419 -79.2766 -84.1623 81.0723 
-79.5732 -85.4429 81.5492 -79.964 -86.8244 82.0965 -80.4139 -88.216 82.7367 
-80.958 -89.2518 83.4309 -81.3788 -90.1486 83.9467 -81.5129 -91.271 84.2361 
-78.7436 -83.3288 81.9326 -78.4255 -82.2178 81.5497 -79.011 -84.5884 82.3 
-79.2589 -85.9381 82.7632 -79.544 -87.3587 83.3288 -79.9054 -88.8296 83.9258 
-80.4024 -90.1223 84.594 -80.8805 -91.2131 85.224 -81.1015 -92.3822 85.607 
-81.1413 -93.6166 85.7934 -78.2718 -83.8487 83.0097 -78.1287 -82.7935 82.6205 
-78.5312 -85.0069 83.3691 -78.8845 -86.32 83.7883 -79.2307 -87.7818 84.3215 
-79.4972 -89.3456 84.8661 -79.8132 -90.9055 85.4324 -80.2624 -92.34 86.1086 
-80.6496 -93.6759 86.7249 -80.8486 -94.9446 87.0901 -80.9871 -96.0229 87.2647 
-82.1598 -80.7328 70.9434 -81.6155 -80.3661 71.6519 -81.8076 -79.8922 70.2204 
-81.1726 -79.506 71.0201 -81.389 -78.8891 69.6768 -80.8267 -80.1721 72.3751 
-80.5034 -78.5113 70.4552 -80.7656 -77.7619 69.2215 -80.2498 -79.3362 71.8006 
-80.0854 -80.1147 73.3505 -79.8127 -77.2915 69.9836 -80.3307 -76.6888 68.9698 
-79.5562 -78.2513 71.2628 -79.5667 -79.1642 72.8712 -79.6596 -80.0499 74.6277 
-79.7299 -76.027 69.9961 -80.5694 -75.6909 69.272 -79.1413 -76.7929 70.996 
-79.0622 -77.9024 72.5188 -79.2783 -78.9427 74.3423 -79.3392 -79.9785 76.0516 
-80.2781 -74.9137 70.6621 -81.1406 -74.6266 69.9224 -79.3849 -75.3768 71.3922 
-78.8419 -76.3837 72.5504 -78.8353 -77.6763 74.241 -78.9548 -78.8628 75.9734 
-78.9515 -80.0151 77.516 -80.8004 -73.98 71.4494 -81.5268 -73.6674 70.4867 
-79.969 -74.3709 72.2179 -79.1315 -75.1397 73.0705 -78.639 -76.3688 74.4235 
-78.5024 -77.7229 76.0334 -78.4754 -78.9798 77.5089 -78.5782 -80.263 78.9323 
-81.0907 -73.313 72.1039 -81.8131 -73.1451 71.0892 -80.4414 -73.6816 72.9791 
-79.7123 -74.3772 73.7518 -78.9773 -75.4057 74.8445 -78.4542 -76.6355 76.2831 
-78.1472 -77.9434 77.6473 -78.092 -79.3002 78.9155 -78.2708 -80.7437 80.2596 
-81.4183 -72.9893 72.8809 -82.2309 -73.0535 71.9731 -80.8138 -73.2011 73.7245 
-80.2782 -73.8551 74.4504 -79.6135 -74.8308 75.3725 -78.9192 -75.89 76.6677 
-78.3545 -77.0385 77.9844 -78.0154 -78.3625 79.115 -77.9832 -79.8312 80.2694 
-78.0994 -81.3512 81.4993 -82.2068 -73.0068 73.6287 -81.4199 -72.9236 74.4841 
-82.2572 -73.0826 75.2815 -81.5608 -73.2421 76.0962 -82.389 -73.6428 76.6721 
-80.8765 -73.3541 75.2197 -81.7108 -74.1218 77.6188 -82.5921 -74.606 78.0176 
-80.9615 -74.0081 76.8907 -80.306 -74.3271 76.014 -81.8468 -75.1417 79.24 
-82.823 -75.4605 79.6991 -80.9605 -74.9963 78.6565 -80.2452 -75.1268 77.8761 
-79.584 -75.4437 77.1688 -82.0636 -76.0652 80.9772 -83.051 -76.3063 81.473 
-81.094 -75.9755 80.396 -80.256 -76.0596 79.7248 -79.5644 -76.259 79.0778 
-78.9092 -76.5347 78.5098 -82.3626 -77.2751 82.4829 -83.3009 -77.4904 82.8952 
-81.4425 -77.1355 81.9654 -80.5725 -77.1455 81.3612 -79.7773 -77.3023 80.7874 
-79.065 -77.4883 80.2661 -78.4122 -77.799 79.6808 -82.6667 -78.7157 83.6903 
-83.5477 -78.7962 84.0516 -81.7977 -78.5885 83.3166 -80.9717 -78.5012 82.8696 
-80.1414 -78.5747 82.3696 -79.3906 -78.7216 81.9011 -78.7268 -78.9111 81.3723 
-78.1787 -79.2921 80.7657 -82.9076 -80.0311 84.8265 -83.7135 -80.0145 85.1497 
-82.0754 -79.981 84.5508 -81.2873 -79.9046 84.2733 -80.4641 -79.9345 83.9032 
-79.6885 -80.0514 83.4829 -79.0919 -80.1908 83.0169 -78.5633 -80.463 82.4595 
-78.1551 -80.8984 81.9144 -83.0672 -81.2443 85.9326 -83.7906 -81.2143 86.1679 
-82.2997 -81.2355 85.7167 -81.5862 -81.2163 85.5111 -80.835 -81.278 85.2367 
-80.0191 -81.3992 84.8961 -79.3745 -81.5104 84.5028 -78.915 -81.7064 84.0156 
-78.4555 -82.065 83.4869 -78.1219 -82.467 83.0168 -77.9934 -84.0529 83.887 
-78.2037 -83.7912 84.3538 -78.0542 -85.4986 85.2145 -78.6729 -83.4333 84.8715 
-78.4494 -85.3184 85.7666 -78.4424 -87.2534 86.6773 -79.1304 -83.1277 85.4118 
-78.9192 -85.0182 86.3731 -78.8469 -87.117 87.357 -78.9009 -89.3249 88.2532 
-79.6848 -82.9901 85.8346 -79.3777 -84.7725 86.8861 -79.2082 -86.8244 88.0014 
-79.2276 -89.2035 88.9735 -79.2121 -91.6153 89.7517 -80.5112 -82.8951 86.1387 
-80.1161 -84.6898 87.1527 -79.7189 -86.5763 88.3384 -79.6118 -88.9146 89.4122 
-79.6396 -91.6352 90.2574 -79.5518 -94.2092 90.9636 -81.3224 -82.7485 86.4367 
-81.0191 -84.6193 87.3652 -80.5499 -86.4853 88.464 -80.2171 -88.6023 89.5508 
-80.1946 -91.4189 90.395 -80.1466 -94.4251 91.1487 -79.9411 -97.1452 91.8352 
-81.9773 -82.6413 86.6917 -81.7272 -84.4615 87.6378 -81.38 -86.4091 88.6591 
-80.9553 -88.379 89.7477 -80.747 -90.9717 90.6021 -80.703 -94.2072 91.2341 
-80.5205 -97.3188 91.8873 -80.1558 -100.108 92.4702 -82.6724 -82.5951 86.876 
-82.3541 -84.2816 87.8418 -82.0656 -86.2239 88.8251 -81.66 -88.1958 89.9248 
-81.2339 -90.4912 90.9632 -81.023 -93.5545 91.646 -80.9277 -96.9398 92.1004 
-80.6562 -100.008 92.5635 -80.1613 -102.763 92.9488 -83.4177 -82.5414 87.0392 
-83.0622 -84.1012 87.9754 -82.7546 -85.9335 88.9054 -82.3727 -87.9396 89.8991 
-81.8131 -90.1065 91.0271 -81.3041 -92.7983 92.004 -81.1082 -96.0869 92.5423 
-81.0182 -99.3979 92.818 -80.6726 -102.345 93.0734 -80.0753 -104.996 93.2651 
-78.041 -85.2249 84.3193 -78.1523 -86.9193 85.7727 -78.3716 -86.5563 84.7697 
-78.5902 -89.07 87.3625 -78.5629 -88.628 86.3867 -78.8718 -88.1483 85.302 
-78.9354 -91.47 88.9519 -78.876 -91.1776 88.0653 -79.0358 -90.6284 87.013 
-79.248 -89.9352 85.8483 -79.1642 -94.0361 90.4069 -79.0564 -93.8448 89.6027 
-79.1839 -93.4813 88.7181 -79.3294 -92.7338 87.5578 -79.4708 -91.7895 86.3504 
-79.489 -97.1145 91.5712 -79.2801 -96.9489 90.8934 -79.3291 -96.6049 90.1508 
-79.483 -95.9021 89.2953 -79.6077 -94.8437 88.1154 -79.8213 -93.6131 86.9862 
-79.7215 -100.557 92.3523 -79.4889 -100.791 91.8135 -79.4737 -100.545 91.1081 
-79.6257 -99.6462 90.5424 -79.8727 -98.3237 89.8229 -80.0889 -96.8536 88.7959 
-80.3117 -95.2874 87.7429 -79.7014 -103.709 92.8449 -79.455 -104.533 92.3833 
-79.4354 -104.814 91.646 -79.5736 -104.06 91.0606 -79.9131 -102.406 90.7009 
-80.3445 -100.46 90.1943 -80.6028 -98.5645 89.3724 -80.7019 -96.7221 88.308 
-79.5443 -106.274 93.1501 -79.2456 -107.449 92.74 -79.2258 -108.217 92.0059 
-79.3628 -108.057 91.2553 -79.6568 -106.718 90.812 -80.1809 -104.547 90.6013 
-80.7161 -102.147 90.297 -80.9599 -99.8963 89.6384 -80.9635 -97.8649 88.5679 
-79.5755 -107.942 93.3815 -79.0818 -109.492 93.0831 -79.1641 -110.991 93.3086 
-78.7943 -112.593 92.7763 -79.1569 -113.727 93.0883 -78.9399 -110.64 92.4319 
-78.7996 -115.212 92.2232 -79.6291 -115.638 92.6278 -78.7165 -113.44 91.8761 
-79.0535 -111.084 91.5445 -79.1523 -116.958 91.2625 -80.3244 -116.459 91.7535 
-78.5591 -115.779 90.9616 -78.8269 -113.482 90.8748 -79.2875 -110.506 90.798 
-79.936 -117.451 90.0598 -80.9656 -116.308 90.8137 -78.8611 -117.166 89.6784 
-78.6875 -115.398 89.9259 -79.1751 -112.545 90.2388 -79.7374 -108.736 90.4457 
-80.8984 -116.66 89.4152 -81.4879 -115.339 90.41 -79.9005 -116.945 88.6966 
-79.2386 -116.02 88.9623 -79.3414 -113.857 89.6741 -79.8681 -110.326 90.11 
-80.4377 -106.037 90.3661 -81.6559 -114.986 89.5129 -82.0225 -113.692 90.3377 
-81.0214 -115.464 88.6232 -80.3232 -115.07 88.5335 -80.0488 -113.768 89.2528 
-80.2864 -111.045 89.8957 -80.7557 -107.05 90.1833 -81.0448 -103.069 90.1648 
-82.2684 -112.903 89.58 -82.6439 -111.665 90.0557 -81.7705 -113.561 88.9087 
-81.1547 -113.453 88.5853 -80.7537 -112.602 88.97 -80.8112 -110.641 89.6075 
-81.1661 -107.315 89.9764 -81.3923 -103.541 89.9519 -81.256 -100.381 89.4582 
-82.8865 -110.633 89.2994 -83.2369 -109.508 89.6292 -82.4195 -111.451 88.8914 
-81.7828 -111.621 88.6173 -81.2286 -110.978 88.7277 -81.1022 -109.403 89.1298 
-81.3904 -106.737 89.4922 -81.6653 -103.44 89.5381 -81.5638 -100.457 89.097 
-81.2179 -98.0931 88.2424 -80.4433 -105.249 93.421 -79.9845 -108.099 93.5435 
-80.9368 -105 93.6015 -80.6456 -107.511 93.7709 -81.4762 -104.277 93.892 
-79.7145 -110.909 93.5614 -81.4143 -106.378 94.1163 -81.9842 -103.29 94.2508 
-80.5969 -109.836 93.8698 -79.9956 -113.202 93.4391 -82.1443 -105.024 94.4003 
-82.5697 -101.982 94.4552 -81.5283 -108.255 94.1401 -80.9419 -111.645 93.661 
-80.6381 -114.492 92.9459 -82.905 -103.308 94.439 -83.3766 -100.272 94.3678 
-82.3934 -106.472 94.2129 -81.7466 -109.751 93.7024 -81.2955 -112.589 92.9701 
-81.1245 -114.766 92.0628 -83.6915 -101.285 94.2214 -84.2241 -98.4796 93.9159 
-83.2328 -104.329 94.1044 -82.6719 -107.606 93.7075 -81.9704 -110.517 93.0004 
-81.5129 -112.632 92.1813 -81.4273 -114.299 91.3479 -84.3583 -99.2806 93.6336 
-84.9205 -96.7289 93.0095 -83.8984 -102.05 93.8053 -83.5923 -105.127 93.6559 
-83.1176 -108.144 93.2234 -82.4238 -110.377 92.4882 -81.9581 -111.944 91.7068 
-81.8973 -113.157 91.0227 -85.0344 -97.2201 92.6366 -85.5943 -94.8691 91.8228 
-84.4918 -99.772 93.1785 -84.1945 -102.54 93.3411 -84.047 -105.432 93.2299 
-83.6792 -107.872 92.812 -83.1211 -109.527 92.0663 -82.726 -110.702 91.2871 
-82.6079 -111.469 90.6533 -85.8724 -95.0617 91.4728 -86.3384 -93.0124 90.6732 
-85.3287 -97.3742 92.2444 -84.8513 -99.865 92.7154 -84.559 -102.495 92.8271 
[...]
CELL_DATA 2000
SCALARS Distance double
LOOKUP_TABLE default
135.614 135.442 135.875 136.584 135.443 135.799 136.618 136.97 137.807 
135.752 136.01 136.968 137.22 138.186 138.422 139.385 136.188 136.445 
137.454 137.718 138.725 138.942 139.921 140.128 141.09 136.631 136.875 
137.841 138.163 139.148 139.447 140.407 140.664 141.625 141.843 142.791 
137.262 137.385 138.352 138.564 139.586 139.848 140.894 141.155 142.228 
142.441 143.497 143.628 144.619 138.1 138.153 139.167 139.245 140.32 
140.449 141.597 141.78 142.992 143.18 144.379 144.482 145.58 145.587 
146.592 138.935 139.016 140.014 140.113 141.157 141.288 142.409 142.59 
143.787 144.007 145.233 145.417 146.585 146.646 147.725 147.664 148.683 
139.702 139.787 140.711 140.856 141.836 142.038 143.108 143.349 144.484 
144.743 145.916 146.186 147.386 147.601 148.783 148.846 149.966 149.864 
150.915 134.941 133.857 134.521 134.76 132.742 133.428 133.666 134.335 
134.66 131.503 132.246 132.48 133.214 133.535 134.311 134.836 130.267 
130.922 131.135 131.95 132.324 133.174 133.711 134.595 135.254 129.57 
129.853 129.993 130.62 131.045 131.935 132.576 133.502 134.203 135.07 
135.761 129.524 129.516 129.595 129.787 130.14 130.771 131.476 132.391 
133.197 134.082 134.822 135.633 136.381 129.626 129.636 129.762 129.729 
129.98 130.199 130.8 131.447 132.288 133.124 133.921 134.734 135.496 
136.331 137.16 129.75 129.762 129.997 129.986 130.264 130.291 130.777 
131.067 131.822 132.397 133.215 133.904 134.681 135.459 136.292 137.157 
138.016 130.202 130.038 130.327 130.273 130.645 130.645 131.142 131.247 
131.925 132.211 132.998 133.427 134.218 134.782 135.622 136.353 137.255 
138.052 138.885 130.725 131.636 130.998 130.765 132.754 132.01 131.766 
131.159 131.092 134.102 133.276 133.096 132.328 132.259 131.629 131.679 
135.628 134.759 134.626 133.787 133.729 132.967 133.012 132.352 132.495 
137.25 136.362 136.248 135.381 135.33 134.515 134.556 133.814 133.938 
133.277 133.495 138.916 138.034 137.966 137.068 137.05 136.179 136.246 
135.437 135.579 134.822 135.007 134.341 134.634 140.54 139.719 139.711 
138.84 138.873 137.982 138.078 137.213 137.387 136.562 136.78 135.982 
136.254 135.573 135.996 142.046 141.314 141.347 140.566 140.637 139.815 
139.928 139.082 139.25 138.421 138.656 137.84 138.125 137.338 137.719 
137.058 137.585 143.436 142.78 142.849 142.148 142.253 141.524 141.668 
140.894 141.06 140.263 140.477 139.699 139.976 139.219 139.554 138.841 
139.257 138.661 139.165 140.142 140.31 140.693 141.71 140.626 140.967 
142.053 142.414 143.602 141.023 141.338 142.451 142.825 144.074 144.491 
145.862 141.506 141.775 142.881 143.242 144.494 144.953 146.354 146.847 
148.289 142.077 142.309 143.409 143.712 144.915 145.337 146.699 147.258 
148.744 149.283 150.748 142.643 142.885 143.983 144.275 145.44 145.778 
147.041 147.54 148.997 149.642 151.192 151.76 153.253 143.161 143.407 
144.474 144.808 145.966 146.306 147.503 147.9 149.248 149.846 151.391 
152.094 153.651 154.243 155.686 143.692 143.899 144.909 145.24 146.368 
146.76 147.928 148.331 149.566 150.086 151.509 152.217 153.758 154.491 
155.946 156.549 157.843 144.226 144.413 145.357 145.647 146.703 147.094 
148.213 148.655 149.807 150.316 151.58 152.253 153.674 154.472 155.905 
156.647 157.928 158.521 159.625 140.44 141.957 141.237 141.423 143.868 
142.926 143.107 142.323 142.592 146.208 145.102 145.342 144.288 144.572 
143.659 143.974 148.691 147.594 147.927 146.78 147.106 145.951 146.233 
145.168 145.439 151.184 150.12 150.519 149.422 149.831 148.661 148.961 
147.687 147.873 146.689 146.908 153.778 152.721 153.227 152.088 152.599 
151.437 151.878 150.57 150.809 149.385 149.543 148.25 148.458 156.319 
155.402 156.088 154.969 155.599 154.365 154.925 153.597 153.988 152.507 
152.715 151.175 151.319 149.895 150.005 158.524 157.864 158.677 157.817 
158.548 157.447 158.021 156.729 157.124 155.71 155.938 154.424 154.514 
152.949 152.935 151.414 151.312 160.299 159.878 160.704 160.163 160.911 
160.156 160.702 159.666 159.963 158.712 158.832 157.473 157.476 156.032 
155.912 154.38 154.141 152.594 152.299 161.411 163.214 162.201 161.917 
164.979 164.013 163.734 162.65 162.186 166.475 165.676 165.317 164.34 
163.81 162.741 162.012 167.322 166.88 166.441 165.674 165.035 164.148 
163.374 162.309 161.294 167.381 167.324 166.884 166.441 165.765 165.124 
164.347 163.485 162.478 161.356 160.143 166.923 167.099 166.7 166.541 
165.902 165.569 164.877 164.296 163.359 162.405 161.176 160.039 158.732 
166.164 166.497 166.132 166.157 165.54 165.443 164.83 164.597 163.792 
163.135 161.925 160.92 159.527 158.474 157.1 165.093 165.587 165.259 
165.47 164.871 164.916 164.276 164.288 163.549 163.287 162.147 161.442 
159.978 159.065 157.57 156.655 155.23 163.767 164.359 164.063 164.47 
163.926 164.117 163.407 163.524 162.695 162.71 161.594 161.295 159.835 
159.222 157.639 156.897 155.381 154.627 153.244 161.387 161.727 162.103 
163.138 161.803 162.319 163.409 163.853 164.893 161.684 162.279 163.34 
163.954 165.051 165.548 166.431 161.376 162.054 163.027 163.718 164.713 
165.432 166.311 166.813 167.298 160.773 161.572 162.452 163.228 164.057 
164.85 165.554 166.295 166.733 167.234 167.314 159.893 160.773 161.551 
162.43 163.172 164.023 164.61 165.347 165.669 166.313 166.424 166.923 
166.813 158.757 159.716 160.379 161.333 162.019 162.979 163.615 164.394 
164.734 165.27 165.347 165.856 165.825 166.283 166.059 157.363 158.394 
158.975 160.001 160.596 161.659 162.292 163.287 163.736 164.401 164.49 
164.899 164.799 165.217 165.025 165.409 165.02 155.908 156.899 157.44 
158.486 159.012 160.096 160.609 161.741 162.171 163.169 163.323 163.977 
163.838 164.251 163.979 164.336 163.962 164.263 163.744 144.784 145.994 
145.568 145.955 147.266 146.855 147.33 146.855 147.314 148.601 148.202 
148.771 148.31 148.842 148.32 148.829 149.974 149.601 150.263 149.831 
150.462 149.933 150.499 149.915 150.453 151.315 151.007 151.75 151.377 
152.124 151.639 152.307 151.694 152.306 151.647 152.266 152.575 152.365 
153.206 152.899 153.756 153.353 154.17 153.608 154.341 153.65 154.373 
153.647 154.382 153.688 153.627 154.609 154.399 155.368 155.033 155.984 
155.525 156.406 155.784 156.592 155.871 156.659 155.896 156.621 154.568 
154.684 155.791 155.778 156.85 156.651 157.66 157.329 158.279 157.815 
158.657 158.056 158.812 158.136 158.82 158.069 158.634 155.229 155.469 
156.611 156.818 157.933 157.979 158.98 158.861 159.773 159.522 160.326 
159.925 160.605 160.093 160.697 160.1 160.615 159.899 160.297 144.325 
143.966 144.581 145.465 143.576 144.2 145.089 145.74 146.678 143.213 
143.82 144.72 145.365 146.322 146.985 147.972 142.856 143.46 144.347 
144.999 145.957 146.635 147.631 148.305 149.306 142.452 143.059 143.883 
144.566 145.474 146.213 147.18 147.921 148.903 149.615 150.59 142.058 
142.623 143.389 144.041 144.886 145.636 146.549 147.355 148.301 149.108 
150.052 150.823 151.757 141.786 142.268 143.025 143.581 144.401 145.053 
145.919 146.666 147.569 148.398 149.324 150.171 151.072 151.888 152.767 
141.646 142.059 142.805 143.289 144.099 144.654 145.484 146.097 146.93 
147.655 148.543 149.383 150.281 151.123 151.955 152.784 153.589 141.563 
141.938 142.628 143.082 143.85 144.382 145.187 145.733 146.502 147.085 
147.877 148.611 149.471 150.302 151.121 151.933 152.68 153.507 154.247 
141.724 142.264 142.242 142.77 142.866 142.815 143.405 143.383 144.007 
143.611 143.496 144.139 144.1 144.81 144.74 145.387 144.444 144.288 
144.945 144.911 145.692 145.629 146.319 146.146 146.714 145.321 145.113 
145.726 145.715 146.546 146.556 147.305 147.129 147.7 147.457 148.038 
146.256 145.994 146.532 146.472 147.3 147.384 148.207 148.117 148.709 
148.467 149.043 148.855 149.556 147.067 146.883 147.363 147.273 148.036 
148.122 148.972 148.973 149.597 149.424 149.973 149.832 150.519 150.429 
151.165 147.566 147.551 148.023 148.019 148.719 148.826 149.662 149.722 
150.403 150.278 150.848 150.715 151.406 151.35 152.114 152.018 152.722 
147.902 147.973 148.522 148.587 149.29 149.426 150.262 150.391 151.17 
151.123 151.799 151.649 152.399 152.289 153.124 153.005 153.783 153.596 
154.294 148.338 149.65 148.977 149.09 151.291 150.498 150.544 149.809 
149.944 152.75 152.114 152.165 151.387 151.469 150.761 150.943 154.111 
153.534 153.756 153.022 153.162 152.387 152.548 151.812 151.911 155.971 
155.195 155.647 154.784 155.079 154.191 154.418 153.55 153.665 152.763 
152.698 158.235 157.418 158.007 157.011 157.378 156.309 156.548 155.545 
155.712 154.701 154.693 153.593 153.444 160.2 159.641 160.274 159.457 
159.844 158.761 158.933 157.789 157.903 156.83 156.867 155.742 155.602 
154.405 154.195 161.661 161.326 161.946 161.454 161.896 161.104 161.31 
160.223 160.264 159.089 159.063 157.915 157.77 156.583 156.298 155.107 
154.814 162.884 162.608 163.169 162.842 163.28 162.826 163.113 162.389 
162.46 161.422 161.287 160.103 159.854 158.669 158.34 157.156 156.781 
155.63 155.296 148.062 147.96 148.426 149.375 147.843 148.364 149.434 
149.98 151.047 147.733 148.251 149.294 149.956 151.049 151.594 152.473 
147.617 148.119 149.04 149.697 150.71 151.399 152.303 152.831 153.684 
147.353 147.918 148.746 149.366 150.3 150.987 151.967 152.594 153.614 
154.176 155.378 146.875 147.52 148.329 148.99 149.916 150.606 151.673 
152.348 153.534 154.175 155.504 156.146 157.555 146.366 146.992 147.82 
148.512 149.461 150.204 151.29 152.07 153.294 154.085 155.423 156.203 
157.57 158.281 159.52 145.991 146.543 147.371 148.023 148.964 149.711 
150.747 151.583 152.732 153.664 154.947 155.915 157.242 158.116 159.333 
160.025 161.042 145.71 146.216 146.996 147.6 148.479 149.191 150.15 
150.959 152.017 152.954 154.183 155.244 156.6 157.629 158.921 159.75 
160.848 161.447 162.343 147.467 146.693 147.116 147.246 145.894 146.356 
146.402 146.869 147.063 144.826 145.476 145.59 146.053 146.129 146.671 
146.935 143.515 144.291 144.463 145.11 145.151 145.705 145.825 146.513 
146.809 142.105 142.905 143.052 143.833 143.896 144.566 144.601 145.306 
145.49 146.306 146.549 140.661 141.449 141.582 142.384 142.502 143.232 
143.284 143.983 144.089 144.893 145.09 145.931 146.09 139.294 140.023 
140.171 140.942 141.087 141.843 141.927 142.637 142.705 143.459 143.606 
144.434 144.613 145.427 145.587 138.068 138.724 138.858 139.576 139.698 
140.438 140.503 141.237 141.275 142.034 142.136 142.955 143.141 143.972 
144.188 144.988 145.217 136.93 137.533 137.622 138.292 138.39 139.078 
139.132 139.818 139.854 140.578 140.684 141.483 141.69 142.529 142.791 
143.619 143.897 144.694 144.963 136.312 135.553 136.277 136.985 134.822 
135.54 136.286 137.008 137.743 134.215 134.868 135.635 136.335 137.094 
137.78 138.48 133.849 134.365 135.13 135.747 136.537 137.183 137.918 
138.529 139.218 133.751 134.134 134.875 135.355 136.163 136.728 137.542 
138.086 138.837 139.357 140.099 133.835 134.137 134.886 135.242 136.045 
136.487 137.345 137.835 138.669 139.126 139.918 140.371 141.161 134.162 
134.339 135.14 135.386 136.204 136.507 137.348 137.744 138.606 139.041 
139.876 140.295 141.109 141.522 142.312 134.771 134.828 135.638 135.773 
136.593 136.779 137.591 137.857 138.698 139.052 139.907 140.297 141.137 
141.529 142.345 142.715 143.471 135.418 135.478 136.216 136.319 137.074 
137.213 137.981 138.173 138.985 139.244 140.092 140.401 141.248 141.594 
142.422 142.78 143.559 143.88 144.575 135.935 136.915 136.527 136.748 
138.068 137.562 137.806 137.38 137.603 139.575 138.873 139.089 138.528 
138.797 138.297 138.536 141.279 140.507 140.693 139.977 140.24 139.621 
139.91 139.325 139.582 142.986 142.227 142.421 141.658 141.873 141.17 
141.44 140.799 141.07 140.438 140.689 144.773 143.975 144.215 143.419 
143.634 142.85 143.073 142.365 142.617 141.963 142.207 141.565 141.815 
146.69 145.838 146.11 145.284 145.553 144.699 144.925 144.083 144.305 
143.547 143.784 143.099 143.342 142.7 142.962 148.744 147.823 148.086 
147.224 147.507 146.662 146.912 146.029 146.225 145.343 145.524 144.723 
144.929 144.233 144.467 143.837 144.076 150.956 149.966 150.212 149.253 
149.484 148.601 148.823 147.98 148.163 147.291 147.41 146.525 146.629 
145.833 145.988 145.317 145.507 144.895 145.073 145.783 146.271 146.37 
147.077 146.815 146.908 147.699 147.77 148.567 147.547 147.578 148.461 
148.489 149.384 149.391 150.263 148.413 148.446 149.433 149.417 150.424 
150.364 151.351 151.242 152.188 149.198 149.33 150.403 150.472 151.608 
151.576 152.729 152.564 153.676 153.409 154.467 149.922 150.114 151.297 
151.454 152.742 152.825 154.181 154.115 155.45 155.175 156.395 155.954 
157.026 150.729 150.945 152.328 152.488 153.984 154.08 155.635 155.651 
157.184 157.046 158.42 158.041 159.15 158.573 159.44 151.589 151.875 
153.449 153.687 155.375 155.514 157.209 157.236 158.832 158.764 160.165 
159.958 161.065 160.635 161.429 160.811 161.388 152.371 152.758 154.384 
154.79 156.526 156.876 158.598 158.796 160.33 160.341 161.591 161.483 
162.472 162.262 163.007 162.605 163.116 162.52 162.873 130.083 129.559 
129.727 129.727 129.465 129.41 129.314 129.463 129.637 129.467 129.418 
129.325 129.276 129.369 129.581 130.025 129.555 129.446 129.388 129.317 
129.317 129.418 129.742 130.137 130.758 130.202 129.774 129.714 129.438 
129.361 129.311 129.472 129.802 130.338 130.899 131.572 131.365 130.719 
130.645 130.067 129.984 129.553 129.624 129.592 130.067 130.483 131.229 
131.757 132.48 132.552 131.918 131.817 131.19 131.163 130.535 130.626 
130.147 130.555 130.508 131.277 131.583 132.427 132.795 133.544 133.666 
133.047 132.927 132.332 132.34 131.798 131.964 131.42 131.763 131.377 
132.003 131.951 132.758 132.93 133.714 133.961 134.672 134.798 134.187 
134.1 133.46 133.465 132.94 133.133 132.698 133.015 132.623 133.074 
132.838 133.464 133.437 134.142 134.249 134.942 135.119 135.765 130.598 
130.254 130.769 131.534 130.134 130.487 131.255 131.788 132.543 130.511 
130.563 131.252 131.59 132.355 132.775 133.458 131.282 131.148 131.741 
131.793 132.506 132.73 133.465 133.775 134.551 132.104 131.955 132.482 
132.402 133.02 133.072 133.798 133.967 134.781 135.056 135.919 132.956 
132.765 133.269 133.134 133.691 133.656 134.321 134.411 135.186 135.386 
136.207 136.464 137.237 133.963 133.69 134.211 133.98 134.539 134.384 
135.008 134.98 135.687 135.803 136.564 136.768 137.511 137.722 138.406 
135.042 134.749 135.26 134.995 135.539 135.313 135.895 135.745 136.382 
136.352 137.049 137.145 137.873 138.035 138.742 138.902 139.562 136.072 
135.795 136.25 136.008 136.482 136.277 136.786 136.629 137.191 137.093 
137.71 137.696 138.367 138.448 139.141 139.273 139.934 140.063 140.661 
131.022 131.981 131.64 131.98 132.953 132.644 132.955 132.631 133.03 
133.844 133.571 133.923 133.616 134.005 133.743 134.291 134.946 134.554 
135.01 134.652 135.133 134.793 135.359 135.119 135.799 136.292 135.824 
136.325 135.902 136.46 136.048 136.641 136.292 136.96 136.707 137.425 
137.556 137.157 137.616 137.253 137.787 137.417 137.975 137.61 138.223 
137.922 138.603 138.359 139.066 138.682 138.317 138.735 138.433 138.937 
138.654 139.187 138.878 139.438 139.148 139.779 139.535 140.21 139.986 
140.657 139.812 139.426 139.828 139.502 139.997 139.734 140.289 140.026 
140.593 140.315 140.913 140.666 141.305 141.093 141.736 141.525 142.141 
140.894 140.546 140.923 140.59 141.041 140.773 141.309 141.088 141.667 
141.435 142.017 141.772 142.364 142.143 142.748 142.553 143.147 142.946 
143.508 147.44 147.185 147.129 146.733 146.696 146.798 146.341 146.331 
145.829 145.862 146.119 145.594 145.714 145.071 145.196 144.611 144.885 
145.163 144.631 144.805 144.131 144.277 143.655 143.864 143.304 143.937 
144.169 143.634 143.817 143.191 143.331 142.744 142.922 142.386 142.559 
141.97 143.052 143.222 142.65 142.83 142.212 142.389 141.787 142.001 
141.418 141.624 140.983 141.157 140.504 142.301 142.372 141.77 141.879 
141.239 141.392 140.743 140.961 140.305 140.548 139.855 140.085 139.41 
139.656 139.084 141.708 141.694 141.073 141.078 140.415 140.468 139.799 
139.921 139.26 139.426 138.767 138.953 138.339 138.566 138.045 138.316 
137.87 141.176 141.138 140.494 140.442 139.751 139.718 139.028 139.056 
138.409 138.491 137.89 138 137.457 137.61 137.143 137.351 136.932 
137.179 136.775 
POINT_DATA 1002
SCALARS Distance double
LOOKUP_TABLE default
136.299 135.367 135.178 136.15 134.999 137.305 136.251 135.083 137.457 
138.662 136.701 135.475 137.955 139.151 140.347 137.164 135.929 138.5 
139.724 140.892 142.037 137.534 136.434 138.826 140.122 141.382 142.607 
143.734 138.19 137.167 139.336 140.6 141.966 143.341 144.546 145.583 
139.105 138.032 140.212 141.417 142.78 144.237 145.563 146.636 147.561 
139.916 138.86 141.026 142.238 143.577 145.011 146.454 147.744 148.802 
149.694 140.59 139.66 141.632 142.856 144.235 145.645 147.097 148.611 
149.999 151.105 151.953 134.281 134.107 133.187 132.993 132.051 133.902 
131.698 130.764 132.752 133.953 130.308 129.733 131.404 132.821 134.362 
129.524 129.458 130.152 131.584 133.327 134.924 129.575 129.546 129.693 
130.583 132.268 134.001 135.545 129.793 129.545 129.926 130.328 131.496 
133.107 134.661 136.285 129.956 129.757 130.247 130.626 131.383 132.594 
133.949 135.436 137.158 130.408 130.449 130.623 131.068 131.737 132.662 
133.744 134.965 136.469 138.14 131.322 131.268 132.321 132.444 133.498 
131.589 133.89 134.92 132.956 132.236 135.47 136.499 134.521 133.715 
133.091 137.122 138.133 136.157 135.316 134.644 134.085 138.852 139.767 
137.928 137.069 136.356 135.742 135.199 140.542 141.316 139.743 138.951 
138.217 137.592 137.009 136.559 142.088 142.738 141.416 140.755 140.081 
139.456 138.921 138.45 138.151 143.517 144.057 142.944 142.404 141.849 
141.255 140.722 140.288 139.926 139.697 141.074 141.311 142.75 141.667 
143.186 144.874 142.063 143.626 145.415 147.3 142.544 144.039 145.822 
147.831 149.743 143.131 144.556 146.154 148.125 150.281 152.226 143.679 
145.141 146.628 148.347 150.525 152.778 154.762 144.139 145.607 147.155 
148.731 150.673 152.986 155.198 157.106 144.617 145.976 147.524 149.111 
150.861 153.001 155.299 157.351 159.08 145.108 146.35 147.786 149.335 
150.982 152.905 155.126 157.301 159.141 160.662 142.051 143.982 143.292 
146.452 145.594 144.833 149.033 148.299 147.43 146.44 151.589 150.939 
150.261 149.197 147.988 154.355 153.746 153.12 152.26 150.978 149.67 
157.102 156.82 156.245 155.421 154.292 152.882 151.409 159.4 159.546 
159.296 158.538 157.429 156.107 154.561 152.839 161.168 161.56 161.643 
161.18 160.186 158.899 157.438 155.745 153.845 162.413 163.033 164.205 
164.811 165.929 163.367 166.297 167.205 164.85 163.224 167.146 167.622 
165.884 164.379 162.531 167.212 167.316 166.3 165.118 163.554 161.364 
166.777 166.682 166.115 165.294 164.227 162.312 159.873 166.039 165.777 
165.585 164.925 164.279 162.885 160.599 158.126 164.951 164.558 164.793 
164.243 163.67 162.712 160.865 158.489 156.104 163.573 163.176 163.67 
163.319 162.667 161.76 160.326 158.33 156.107 153.937 161.099 162.809 
161.287 162.876 161.258 164.557 162.715 161.091 164.443 166.168 162.368 
160.679 164.01 165.699 167.077 161.679 159.971 163.32 164.855 166.119 
167.012 160.681 159.038 162.303 163.908 165.079 165.817 166.449 159.438 
157.804 161.027 162.74 164.21 164.924 165.31 165.724 157.947 156.347 
159.548 161.222 162.926 164.084 164.474 164.626 164.733 156.411 154.972 
157.971 159.527 161.088 162.51 163.386 163.664 163.658 163.504 145.189 
146.41 146.385 147.774 147.643 147.809 149.193 148.971 149.351 149.37 
150.646 150.31 150.956 151.086 151.048 152.073 151.571 152.54 152.885 
152.959 152.92 153.461 152.703 154.095 154.646 154.992 155.084 155.126 
154.725 153.645 155.652 156.369 156.952 157.289 157.416 157.447 155.691 
154.378 156.968 157.942 158.681 159.218 159.476 159.556 159.47 143.731 
144.826 143.344 144.433 142.955 146.012 144.077 142.611 145.655 147.306 
143.697 142.264 145.271 146.95 148.644 143.222 141.874 144.736 146.422 
148.174 149.898 142.777 141.528 144.171 145.755 147.476 149.26 151.006 
142.501 141.332 143.799 145.236 146.772 148.465 150.255 151.962 142.347 
141.262 143.571 144.93 146.29 147.736 149.436 151.158 152.752 142.208 