# vtk DataFile Version 4.0
vtk output
ASCII
DATASET POLYDATA
POINTS 1002 float
-84.3329 -83.5791 73.5917 -84.4902 -82.7944 72.5129 -84.0647 -82.6041 73.148 
-83.8593 -83.4526 74.2886 -83.4917 -82.5116 73.772 -84.2815 -84.2987 74.9208 
-83.3298 -83.4189 75.0348 -82.7973 -82.5773 74.399 -83.8539 -84.1941 75.761 
-84.3143 -85.0487 76.5376 -82.7276 -83.5172 75.8429 -82.1617 -82.6433 75.1688 
-83.3978 -84.2249 76.6663 -83.8876 -85.083 77.5118 -84.1362 -86.1971 78.2764 
-82.1968 -83.5911 76.8569 -81.8708 -82.5323 76.3045 -82.8169 -84.4277 77.623 
-83.3501 -85.3149 78.4595 -83.5649 -86.5082 79.2263 -83.7155 -87.7421 79.8802 
-81.9416 -83.6367 78.1744 -81.8275 -82.4837 77.7123 -82.2486 -84.7162 78.7814 
-82.6694 -85.7284 79.4244 -82.9059 -86.9764 80.0687 -83.0801 -88.2747 80.7198 
-83.3734 -89.3663 81.352 -81.7347 -83.8966 79.5504 -81.5995 -82.7658 79.0402 
-81.8694 -85.1367 80.1368 -82.0934 -86.2702 80.6371 -82.3092 -87.5141 81.0688 
-82.5378 -88.8888 81.6133 -82.848 -90.0769 82.2614 -83.153 -91.0759 82.8702 
-81.3211 -84.3537 80.7722 -81.191 -83.2443 80.2412 -81.5036 -85.6746 81.4164 
-81.7477 -86.9247 81.9842 -81.976 -88.1108 82.4056 -82.1926 -89.466 82.8601 
-82.453 -90.8081 83.4222 -82.698 -91.9196 83.9462 -82.886 -92.8789 84.3536 
-80.9687 -84.8382 81.9488 -80.9611 -83.7409 81.5112 -81.1142 -86.1734 82.5387 
-81.43 -87.539 83.1604 -81.774 -88.7636 83.7232 -81.9993 -90.061 84.2619 
-82.1394 -91.481 84.7865 -82.2796 -92.7413 85.1926 -82.4288 -93.7686 85.4461 
-82.5843 -94.6662 85.6376 -80.9131 -85.3397 83.1927 -80.9753 -84.2446 82.8784 
-80.942 -86.6455 83.6384 -81.1402 -88.0518 84.1729 -81.4596 -89.3719 84.7666 
-81.7274 -90.7132 85.3928 -81.8321 -92.2117 85.9555 -81.8803 -93.6235 86.3421 
-82.0006 -94.7608 86.5433 -82.1678 -95.7282 86.6529 -82.3222 -96.6068 86.7656 
-84.3947 -81.8528 71.932 -83.8976 -81.5874 72.5936 -84.1264 -80.9284 71.3703 
-83.4985 -80.6391 72.0632 -83.6983 -80.0977 70.8251 -83.1672 -81.5149 73.1781 
-82.9673 -79.8153 71.5421 -83.3241 -79.1882 70.3171 -82.6479 -80.5916 72.6338 
-82.3513 -81.6106 73.7568 -82.5368 -78.8271 71.0464 -83.0093 -78.0867 69.8955 
-82.0938 -79.6926 72.1827 -81.8431 -80.6322 73.2649 -81.7994 -81.5933 74.63 
-82.1975 -77.5957 70.7332 -82.7762 -77.0159 69.7649 -81.7014 -78.4667 71.8945 
-81.3579 -79.5291 73.0172 -81.3955 -80.5307 74.3388 -81.6654 -81.4391 75.9927 
-82.1195 -76.5142 70.9207 -82.9881 -76.2151 70.1513 -81.5449 -77.0807 71.9394 
-81.1185 -78.1007 73.048 -80.9859 -79.3539 74.2922 -81.2642 -80.4666 75.854 
-81.5804 -81.5243 77.5037 -82.5846 -75.8776 71.6569 -83.6504 -75.7856 70.9273 
-81.7832 -76.1608 72.4819 -81.2658 -76.8495 73.4358 -80.9581 -78.0277 74.5078 
-80.9397 -79.392 75.85 -81.1511 -80.6673 77.3784 -81.2821 -81.9211 78.8477 
-83.3607 -75.6682 72.5959 -84.3167 -75.7413 71.7865 -82.4215 -75.8405 73.3758 
-81.7094 -76.3079 74.2156 -81.3122 -77.1029 75.1271 -81.0892 -78.2532 76.1837 
-80.9741 -79.6183 77.4667 -80.9941 -81.0286 78.8469 -81.02 -82.4042 80.203 
-84.057 -75.7478 73.4602 -84.7806 -75.9354 72.6049 -83.201 -75.8342 74.2988 
-82.3228 -76.2295 75.1714 -81.74 -76.7853 76.0765 -81.4508 -77.5285 76.9874 
-81.1579 -78.604 78.0073 -80.9305 -79.9804 79.2029 -80.926 -81.4676 80.4786 
-80.9829 -82.8971 81.7249 -84.8007 -76.0444 73.982 -84.137 -75.9622 74.904 
-84.8948 -76.3224 75.3897 -84.1956 -76.4209 76.4281 -84.9416 -76.9217 76.7806 
-83.2362 -76.2119 75.9076 -84.1631 -77.1595 77.9007 -84.9243 -77.7405 78.2077 
-83.2275 -76.7452 77.5794 -82.3329 -76.6839 76.9712 -84.1395 -78.1681 79.2632 
-84.9847 -78.5891 79.7342 -83.2665 -77.592 79.0058 -82.394 -77.2651 78.7171 
-81.8097 -77.2614 77.991 -84.2582 -79.3117 80.7412 -85.1082 -79.5358 81.2876 
-83.4608 -78.8828 80.3106 -82.5963 -78.3651 80.1523 -81.8389 -78.0574 79.8379 
-81.4213 -78.0982 78.9915 -84.4413 -80.3722 82.4493 -85.1683 -80.6229 82.7687 
-83.7419 -80.1461 82.0127 -82.9274 -79.8104 81.6909 -81.9484 -79.399 81.5347 
-81.2471 -79.1314 81.0666 -80.996 -79.316 80.1247 -84.5933 -81.3178 84.0972 
-85.2023 -81.6755 84.1381 -83.9548 -81.0469 83.9513 -83.2269 -80.8971 83.6089 
-82.2705 -80.7277 83.2986 -81.3369 -80.4874 83.0226 -80.9011 -80.4396 82.3781 
-80.8746 -80.8252 81.3787 -84.7273 -82.3412 85.3958 -85.2672 -82.6743 85.3203 
-84.0999 -81.9855 85.4971 -83.3917 -81.7948 85.3616 -82.6196 -81.7732 84.9936 
-81.7862 -81.7529 84.6845 -81.1643 -81.7486 84.3318 -80.9786 -81.9636 83.5966 
-80.9965 -82.4113 82.5994 -84.843 -83.5449 86.3697 -85.338 -83.7393 86.2863 
-84.2403 -83.2619 86.5295 -83.5153 -83.0404 86.5721 -82.8299 -82.9958 86.3348 
-82.2133 -83.0505 86.006 -81.5905 -83.1128 85.7699 -81.165 -83.2611 85.3831 
-81.0598 -83.5596 84.6283 -81.0478 -83.9183 83.6936 -81.0095 -85.5305 84.459 
-81.0046 -85.2782 85.3676 -81.0206 -87.1349 86.1233 -80.9871 -85.0007 86.2181 
-80.8916 -86.9238 87.0484 -81.0067 -89.0317 87.8346 -81.2868 -84.7989 86.7413 
-80.9516 -86.7063 87.7285 -80.935 -88.8299 88.6633 -81.0099 -91.2302 89.3689 
-81.9097 -84.7097 86.9755 -81.5101 -86.5877 88.0529 -81.2444 -88.6366 89.091 
-81.1799 -91.042 89.9104 -81.0887 -93.8081 90.4107 -82.4859 -84.6348 87.2209 
-82.2063 -86.4872 88.2691 -81.9109 -88.4778 89.2849 -81.66 -90.8406 90.0803 
-81.4458 -93.6388 90.6777 -81.3445 -96.6523 91.1294 -83.0645 -84.5772 87.4801 
-82.7434 -86.3248 88.5298 -82.487 -88.2144 89.5602 -82.1875 -90.5847 90.2682 
-81.8999 -93.4398 90.8148 -81.7525 -96.4995 91.3859 -81.6919 -99.4838 91.9137 
-83.8204 -84.6449 87.5201 -83.4038 -86.222 88.6394 -83.0474 -87.916 89.7859 
-82.6767 -90.1998 90.5693 -82.3106 -93.152 91.0534 -82.1191 -96.2753 91.6093 
-82.0516 -99.3389 92.2207 -81.8263 -102.16 92.6757 -84.5437 -84.8029 87.3776 
-84.1853 -86.2348 88.5336 -83.7963 -87.7342 89.7525 -83.3612 -89.7917 90.6669 
-82.8834 -92.701 91.2127 -82.5129 -95.8767 91.7611 -82.3367 -98.9387 92.4092 
-82.1297 -101.929 92.9247 -81.6998 -104.596 93.176 -85.1046 -84.9138 87.2423 
-84.8494 -86.2578 88.3688 -84.5395 -87.637 89.5804 -84.1376 -89.4386 90.5318 
-83.6462 -92.1309 91.1184 -83.1365 -95.2765 91.6996 -82.7298 -98.2657 92.4339 
-82.4246 -101.215 93.0554 -82.0519 -104.149 93.3773 -81.5721 -106.644 93.4346 
-80.9964 -86.8727 84.7876 -81.0735 -88.7705 86.4956 -81.0229 -88.3831 85.2001 
-81.0139 -91.0357 88.2518 -80.9963 -90.5141 86.9003 -81.1109 -89.8918 85.7139 
-80.9327 -93.765 89.7336 -80.8666 -93.2258 88.6271 -80.9321 -92.3095 87.3978 
-81.2904 -91.4322 86.334 -81.0885 -96.8648 90.7525 -80.9792 -96.5576 90.0572 
-80.9306 -95.5849 89.0392 -81.0686 -94.3485 87.9091 -81.4456 -93.1985 86.9149 
-81.4 -99.8801 91.6131 -81.2775 -99.8928 91.1397 -81.2258 -99.2232 90.3971 
-81.151 -97.9792 89.3448 -81.2295 -96.4791 88.2483 -81.5152 -94.9419 87.3092 
-81.4946 -102.62 92.4299 -81.3018 -102.736 92.0095 -81.2736 -102.362 91.3907 
-81.2402 -101.447 90.5278 -81.2353 -100.063 89.4953 -81.3802 -98.252 88.4978 
-81.6528 -96.3292 87.5545 -81.3106 -105.189 92.9681 -81.0541 -105.365 92.5593 
-81.0121 -105.151 91.9361 -81.0439 -104.515 91.2019 -81.1314 -103.466 90.4624 
-81.3571 -101.883 89.6804 -81.6197 -99.7149 88.7617 -81.8696 -97.4793 87.7188 
-81.139 -107.463 93.2026 -80.8788 -107.874 92.7575 -80.8835 -107.985 92.06 
-80.9607 -107.683 91.2784 -81.012 -106.858 90.704 -81.2226 -105.564 90.3359 
-81.5527 -103.622 89.8079 -81.8076 -101.059 88.9154 -82.0306 -98.5355 87.8253 
-81.3242 -109.031 93.3862 -80.9683 -109.883 92.9273 -81.3235 -111.142 92.9877 
-81.1157 -112.259 92.1656 -81.4688 -113.029 92.0475 -80.9371 -110.56 92.1248 
-81.1549 -114.683 90.8246 -81.578 -114.945 90.6372 -81.0882 -113.494 90.944 
-81.0754 -110.976 91.1083 -80.8927 -116.961 89.2725 -81.7271 -116.575 89.3441 
-80.6226 -116.225 89.4354 -80.9554 -114.03 89.7909 -81.072 -110.551 90.3218 
-80.8802 -118.223 88.1887 -82.0483 -117.036 88.5923 -79.946 -118.033 88.2059 
-80.1615 -116.155 88.5664 -80.8355 -113.001 89.2533 -81.1095 -109.257 90.0703 
-81.4845 -117.744 87.6521 -82.5797 -116.194 88.1432 -80.2046 -118.286 87.5976 
-79.8099 -116.956 87.8693 -80.4673 -114.248 88.4139 -81.1051 -111.009 89.3236 
-81.3947 -107.377 90.0085 -82.4685 -116.04 87.363 -83.3098 -114.796 87.8467 
-81.3458 -116.921 87.3022 -80.5904 -116.468 87.5667 -80.7559 -114.437 87.9726 
-81.2334 -111.662 88.6695 -81.4945 -108.437 89.4454 -81.6864 -104.695 89.5652 
-83.439 -114.027 87.4166 -84.0323 -113.178 87.8855 -82.564 -114.693 87.2445 
-81.7284 -114.77 87.401 -81.4696 -113.624 87.7575 -81.6053 -111.349 88.2957 
-81.6571 -108.436 88.9198 -81.7329 -105.024 89.1331 -81.9144 -101.505 88.6565 
-84.1083 -111.87 87.8445 -84.526 -111.145 88.194 -83.4345 -112.289 87.6114 
-82.6306 -112.37 87.5733 -82.1002 -111.745 87.7639 -81.9613 -110.074 88.1576 
-81.9061 -107.545 88.6001 -81.8919 -104.543 88.7421 -82.043 -101.449 88.3393 
-82.2275 -98.7204 87.567 -81.8996 -106.886 93.6292 -81.7804 -109.303 93.5038 
-82.3674 -106.608 93.7585 -82.293 -108.929 93.4085 -82.9019 -105.913 93.7603 
-81.7841 -111.268 92.9211 -82.7794 -107.986 93.2048 -83.4954 -105.045 93.6625 
-82.1828 -110.681 92.5343 -81.8523 -112.87 91.7895 -83.418 -106.883 93.217 
-84.1228 -104.012 93.4137 -82.6452 -109.476 92.2928 -82.1535 -111.976 91.3599 
-82.0449 -114.357 90.4908 -84.1028 -105.723 93.1881 -84.5934 -102.477 92.7608 
-83.4699 -108.243 92.6037 -82.7277 -110.56 91.373 -82.4146 -113.028 90.4518 
-82.4013 -115.304 89.6491 -84.4924 -103.906 92.512 -85.0132 -100.344 91.8057 
-84.1932 -106.886 92.736 -83.6637 -109.157 91.8637 -83.1053 -111.396 90.7454 
-82.9389 -113.535 90.0708 -82.8514 -115.194 89.2248 -84.9801 -101.309 91.5224 
-85.7778 -98.0918 91.0171 -84.5574 -104.588 92.1096 -84.2617 -107.276 91.9798 
-83.8968 -109.591 91.1048 -83.6952 -111.687 90.4156 -83.5975 -113.304 89.8225 
-83.4354 -114.365 88.8218 -85.9832 -98.7297 90.8308 -86.7803 -96.1968 90.4288 
-85.2725 -101.66 91.3554 -84.721 -104.459 91.5923 -84.3231 -106.999 91.1679 
-84.2477 -109.327 90.5852 -84.3303 -111.199 90.1709 -84.2337 -112.482 89.4739 
-84.0833 -113.162 88.534 -87.0493 -96.6961 90.2362 -87.5446 -94.6911 89.6902 
[...]
CELL_DATA 2000
SCALARS Distance double
LOOKUP_TABLE default
138.05 138.016 138.366 139.06 137.999 138.366 139.127 139.472 140.281 
138.056 138.418 139.272 139.615 140.503 140.825 141.733 138.304 138.584 
139.513 139.84 140.796 141.116 142.07 142.366 143.297 138.873 139.007 
139.969 140.195 141.185 141.458 142.434 142.726 143.684 143.958 144.889 
139.64 139.717 140.701 140.82 141.831 141.97 142.966 143.157 144.174 
144.408 145.431 145.637 146.619 140.382 140.484 141.488 141.628 142.69 
142.775 143.816 143.868 144.947 145.062 146.196 146.331 147.414 147.496 
148.467 141.171 141.22 142.221 142.387 143.494 143.658 144.764 144.838 
145.948 146.004 147.168 147.245 148.369 148.403 149.387 149.369 150.232 
142.158 142.095 143.073 143.151 144.248 144.426 145.557 145.732 146.852 
146.995 148.13 148.246 149.348 149.393 150.376 150.336 151.21 151.124 
151.944 137.429 136.454 137.084 137.355 135.411 136.055 136.293 136.963 
137.258 134.359 134.985 135.186 135.85 136.111 136.848 137.228 133.293 
133.911 134.086 134.736 134.976 135.686 136.072 136.876 137.424 132.296 
132.823 132.982 133.627 133.877 134.576 134.988 135.773 136.392 137.238 
137.984 131.783 131.988 132.133 132.599 132.892 133.524 133.987 134.752 
135.433 136.288 137.101 137.95 138.763 132.04 131.86 132.018 132.085 
132.429 132.77 133.302 133.886 134.615 135.398 136.257 137.105 137.95 
138.758 139.534 132.808 132.45 132.647 132.394 132.763 132.73 133.3 
133.53 134.272 134.772 135.633 136.335 137.224 137.991 138.836 139.571 
140.371 133.689 133.341 133.581 133.246 133.61 133.379 133.919 133.872 
134.568 134.737 135.533 135.928 136.798 137.392 138.311 138.988 139.898 
140.546 141.41 134.242 135.164 134.531 134.218 136.249 135.559 135.293 
134.586 134.313 137.448 136.722 136.489 135.751 135.523 134.793 134.629 
138.761 137.983 137.771 137.003 136.822 136.079 135.969 135.249 135.235 
140.233 139.399 139.259 138.409 138.307 137.488 137.45 136.674 136.69 
135.971 136.099 141.791 140.976 140.959 140.075 140.088 139.17 139.205 
138.305 138.361 137.522 137.65 136.946 137.25 143.283 142.563 142.633 
141.843 141.929 141.058 141.13 140.196 140.275 139.34 139.499 138.648 
138.959 138.265 138.732 144.653 144.029 144.138 143.462 143.566 142.823 
142.907 142.085 142.181 141.305 141.49 140.619 140.945 140.136 140.576 
139.867 140.355 145.926 145.371 145.52 144.911 145.041 144.372 144.485 
143.763 143.904 143.144 143.357 142.58 142.889 142.125 142.512 141.771 
142.181 141.474 141.881 142.93 143.279 143.622 144.721 143.615 143.973 
145.074 145.48 146.705 143.973 144.314 145.406 145.809 147.035 147.525 
148.86 144.398 144.706 145.815 146.175 147.383 147.841 149.172 149.702 
151.074 144.863 145.145 146.253 146.615 147.807 148.215 149.482 149.983 
151.333 151.895 153.306 145.369 145.607 146.664 147.028 148.186 148.602 
149.799 150.271 151.56 152.123 153.543 154.165 155.656 145.89 146.105 
147.1 147.421 148.52 148.92 150.069 150.532 151.775 152.332 153.734 
154.383 155.898 156.549 157.997 146.339 146.579 147.531 147.837 148.868 
149.23 150.318 150.757 151.953 152.509 153.855 154.523 155.979 156.704 
158.141 158.783 160.021 146.695 146.958 147.869 148.201 149.178 149.539 
150.546 150.963 152.068 152.62 153.879 154.559 155.905 156.657 158.002 
158.761 159.999 160.618 161.634 143.087 144.921 143.978 144.028 146.996 
145.971 146.041 145.04 145.184 149.234 148.19 148.303 147.179 147.26 
146.265 146.461 151.546 150.547 150.782 149.581 149.659 148.462 148.592 
147.586 147.803 153.92 152.982 153.46 152.257 152.497 151.099 151.227 
149.916 150.098 148.99 149.175 156.343 155.467 156.135 155.066 155.515 
154.148 154.337 152.814 152.901 151.494 151.582 150.37 150.426 158.634 
157.875 158.516 157.652 158.114 157.046 157.252 155.91 155.918 154.431 
154.367 152.924 152.836 151.55 151.454 160.588 159.987 160.523 159.81 
160.18 159.347 159.533 158.506 158.543 157.296 157.249 155.806 155.659 
154.132 153.908 152.516 152.311 162.165 161.717 162.213 161.62 161.987 
161.259 161.508 160.614 160.756 159.71 159.806 158.59 158.573 157.083 
156.84 155.192 154.837 153.349 153.067 163.109 164.427 163.624 163.178 
165.506 164.883 164.53 163.626 163.029 166.285 165.879 165.721 164.992 
164.502 163.442 162.649 166.853 166.589 166.515 166.05 165.681 164.861 
164.079 162.928 161.927 167.149 167.065 166.918 166.631 166.202 165.717 
164.977 164.161 163.157 162.077 161 166.881 167.085 166.907 166.825 
166.301 165.966 165.204 164.701 163.812 163.084 162.052 161.049 159.836 
166.155 166.503 166.324 166.522 166.065 165.926 165.182 164.797 163.95 
163.467 162.507 161.818 160.56 159.581 158.074 165.368 165.671 165.418 
165.721 165.312 165.458 164.794 164.659 163.777 163.453 162.412 161.948 
160.638 159.937 158.349 157.464 155.877 164.504 164.835 164.484 164.762 
164.276 164.523 163.863 163.99 163.092 163.015 161.867 161.587 160.204 
159.717 158.149 157.479 155.918 155.199 153.878 163.189 163.532 163.819 
164.54 163.498 164.002 164.772 165.024 165.533 163.17 163.762 164.455 
164.962 165.466 165.785 166.162 162.776 163.364 163.926 164.425 164.862 
165.396 165.827 166.274 166.658 162.108 162.935 163.583 163.985 164.333 
164.711 165.129 165.711 166.198 166.698 166.977 160.734 161.978 162.847 
163.624 164.048 164.354 164.647 165.044 165.512 166.083 166.429 166.822 
166.79 159.046 160.321 161.195 162.478 163.063 163.855 164.094 164.579 
164.882 165.416 165.761 166.201 166.25 166.444 166.186 157.759 158.698 
159.415 160.637 161.273 162.416 162.72 163.604 163.794 164.585 164.845 
165.486 165.586 165.909 165.728 165.811 165.475 156.802 157.555 158.151 
159.07 159.667 160.647 161.011 161.94 162.124 163.092 163.296 164.257 
164.371 165.058 164.902 165.25 164.897 165.04 164.599 147.145 148.255 
147.904 148.364 149.472 149.11 149.626 149.231 149.713 150.689 150.37 
150.928 150.545 151.054 150.617 151.089 151.855 151.579 152.17 151.838 
152.389 151.986 152.532 152.071 152.634 153.066 152.78 153.422 153.088 
153.736 153.369 154.066 153.631 154.358 153.821 154.515 154.276 154.046 
154.746 154.41 155.16 154.821 155.71 155.322 156.239 155.709 156.525 
155.868 156.578 155.198 155.162 155.884 155.7 156.498 156.296 157.315 
157.069 158.134 157.692 158.584 157.946 158.679 157.968 158.64 155.766 
155.89 156.621 156.651 157.505 157.536 158.646 158.627 159.777 159.53 
160.458 159.954 160.68 160.042 160.698 160.007 160.607 156.229 156.375 
157.149 157.271 158.227 158.43 159.662 159.846 161.049 160.997 161.898 
161.605 162.29 161.868 162.486 161.953 162.496 161.841 162.248 146.658 
146.305 146.872 147.71 145.941 146.527 147.346 147.964 148.87 145.443 
146.105 146.923 147.58 148.458 149.131 150.052 144.844 145.525 146.33 
147.066 147.939 148.674 149.58 150.284 151.198 144.36 144.94 145.68 
146.389 147.232 148.046 148.948 149.746 150.657 151.404 152.347 144.06 
144.545 145.23 145.784 146.534 147.272 148.135 148.996 149.877 150.74 
151.654 152.515 153.464 143.795 144.282 144.978 145.44 146.13 146.669 
147.451 148.179 149.018 149.855 150.686 151.623 152.52 153.5 154.349 
143.467 143.98 144.685 145.196 145.893 146.365 147.093 147.64 148.441 
149.091 149.864 150.622 151.406 152.367 153.211 154.213 154.938 143.142 
143.615 144.273 144.83 145.519 146.071 146.771 147.322 148.09 148.661 
149.423 149.975 150.657 151.329 152.061 152.983 153.775 154.729 155.412 
143.202 143.679 143.69 144.287 144.265 144.194 144.756 144.838 145.512 
145.026 144.835 145.333 145.324 146.007 146.113 146.819 145.962 145.682 
146.127 145.969 146.621 146.668 147.481 147.526 148.245 146.855 146.623 
147.036 146.82 147.432 147.391 148.26 148.302 149.146 149.042 149.648 
147.49 147.39 147.806 147.684 148.315 148.279 149.172 149.192 150.067 
149.977 150.584 150.358 150.814 147.942 147.921 148.414 148.398 149.143 
149.182 150.131 150.155 150.995 150.886 151.438 151.227 151.665 151.478 
152.053 148.406 148.406 149.033 149.062 149.931 150.028 151.026 151.089 
151.891 151.772 152.274 152.05 152.52 152.346 153.001 152.895 153.696 
148.969 148.984 149.733 149.782 150.695 150.815 151.775 151.888 152.652 
152.591 153.106 152.908 153.462 153.297 154.076 153.953 154.817 154.666 
155.428 149.569 150.965 150.313 150.463 152.349 151.774 151.955 151.296 
151.479 153.606 153.102 153.323 152.751 152.932 152.32 152.495 155.16 
154.514 154.861 154.175 154.385 153.715 153.836 153.228 153.272 157.063 
156.352 156.85 156.004 156.315 155.382 155.518 154.641 154.656 153.894 
153.789 158.904 158.311 158.873 158.122 158.493 157.531 157.7 156.619 
156.687 155.6 155.576 154.528 154.399 160.691 160.128 160.738 160.075 
160.461 159.629 159.764 158.796 158.841 157.812 157.842 156.694 156.624 
155.378 155.219 162.472 161.947 162.593 161.945 162.367 161.545 161.657 
160.707 160.65 159.752 159.717 158.837 158.738 157.674 157.424 156.215 
155.936 163.882 163.57 164.144 163.693 164.098 163.421 163.538 162.596 
162.467 161.471 161.33 160.474 160.337 159.482 159.174 158.181 157.753 
156.717 156.36 149.31 149.322 149.747 150.658 149.322 149.782 150.718 
151.168 152.05 149.233 149.767 150.705 151.196 152.054 152.458 153.261 
148.974 149.598 150.525 151.098 151.942 152.408 153.236 153.685 154.676 
148.578 149.246 150.157 150.811 151.7 152.258 153.175 153.688 154.756 
155.295 156.49 148.183 148.826 149.746 150.409 151.368 152.004 153.027 
153.639 154.761 155.364 156.547 157.133 158.299 147.883 148.478 149.427 
150.052 151.034 151.687 152.719 153.423 154.516 155.24 156.367 157.069 
158.228 158.872 160.04 147.665 148.225 149.16 149.767 150.695 151.337 
152.271 153.001 153.998 154.808 155.885 156.719 157.901 158.709 159.963 
160.65 161.827 147.473 148.001 148.856 149.455 150.287 150.921 151.738 
152.446 153.358 154.18 155.256 156.151 157.384 158.302 159.622 160.477 
161.704 162.366 163.325 148.609 147.839 148.304 148.58 147.245 147.627 
147.756 148.244 148.525 146.393 146.945 147.026 147.455 147.526 148.108 
148.37 145.135 145.848 145.916 146.543 146.522 147.074 147.133 147.846 
148.085 143.807 144.474 144.481 145.211 145.238 145.921 145.943 146.601 
146.722 147.492 147.714 142.548 143.178 143.165 143.801 143.864 144.57 
144.696 145.385 145.502 146.18 146.331 147.095 147.317 141.207 141.913 
141.957 142.58 142.625 143.273 143.405 144.122 144.276 144.966 145.073 
145.759 145.912 146.706 146.977 139.824 140.552 140.64 141.341 141.368 
142.03 142.068 142.796 142.913 143.676 143.784 144.491 144.598 145.332 
145.559 146.409 146.755 138.578 139.221 139.306 139.998 140.026 140.696 
140.685 141.395 141.472 142.261 142.408 143.168 143.308 144.031 144.241 
145.035 145.378 146.247 146.629 137.966 137.264 137.953 138.65 136.598 
137.253 137.921 138.629 139.313 136.113 136.648 137.282 137.9 138.559 
139.264 139.966 135.873 136.28 136.921 137.388 138.083 138.636 139.403 
140.028 140.823 135.799 136.129 136.804 137.189 137.952 138.378 139.203 
139.675 140.509 141.032 141.827 135.929 136.138 136.824 137.161 137.944 
138.35 139.16 139.586 140.372 140.823 141.581 142.063 142.783 136.388 
136.422 137.092 137.285 138.056 138.378 139.166 139.541 140.301 140.705 
141.47 141.896 142.669 143.075 143.81 137.073 137.017 137.666 137.706 
138.46 138.617 139.425 139.652 140.477 140.75 141.619 141.936 142.836 
143.145 144 144.259 145.033 137.742 137.715 138.346 138.353 139.078 
139.146 139.949 140.072 140.934 141.112 142.042 142.276 143.241 143.485 
144.391 144.596 145.396 145.573 146.3 138.259 139.309 138.824 138.938 
140.541 139.981 140.152 139.595 139.728 141.976 141.327 141.512 140.898 
141.077 140.466 140.618 143.542 142.853 143.039 142.346 142.528 141.873 
142.075 141.432 141.624 145.153 144.467 144.705 143.966 144.146 143.401 
143.607 142.935 143.201 142.532 142.772 146.846 146.128 146.428 145.692 
145.917 145.111 145.273 144.513 144.75 144.108 144.404 143.736 143.972 
148.626 147.882 148.188 147.453 147.725 146.925 147.082 146.235 146.362 
145.635 145.861 145.27 145.521 144.89 145.065 150.349 149.645 149.935 
149.223 149.503 148.74 148.937 148.077 148.177 147.308 147.423 146.703 
146.903 146.313 146.51 145.894 146.019 152.032 151.329 151.619 150.93 
151.207 150.493 150.716 149.922 150.06 149.173 149.25 148.368 148.471 
147.727 147.896 147.27 147.432 146.798 146.901 147.622 148.166 148.252 
148.959 148.682 148.788 149.536 149.619 150.35 149.37 149.412 150.231 
150.248 151.026 151.043 151.798 150.238 150.256 151.189 151.123 152.008 
151.893 152.762 152.648 153.501 151.059 151.161 152.183 152.194 153.232 
153.112 154.167 153.931 154.958 154.64 155.574 151.711 151.916 152.987 
153.152 154.314 154.383 155.62 155.523 156.734 156.403 157.471 156.957 
157.874 152.237 152.519 153.67 153.934 155.221 155.437 156.814 156.927 
158.268 158.17 159.336 158.964 159.934 159.355 160.186 152.706 153.048 
154.33 154.671 156.127 156.414 157.939 158.124 159.557 159.587 160.798 
160.642 161.619 161.28 162.084 161.569 162.231 153.179 153.565 154.98 
155.406 157.009 157.391 159.014 159.276 160.744 160.841 162.041 161.967 
162.892 162.699 163.423 163.147 163.721 163.32 163.75 133.586 132.747 
133.176 133.176 132.03 132.378 132.416 132.785 132.819 131.782 131.849 
131.922 132.141 132.226 132.535 132.759 132.245 131.936 131.976 131.895 
131.98 132.091 132.318 132.675 133.161 133.177 132.657 132.616 132.244 
132.25 132.068 132.18 132.319 132.721 133.206 133.827 134.204 133.64 
133.533 133.03 132.973 132.565 132.576 132.372 132.605 132.815 133.371 
133.898 134.557 135.235 134.654 134.516 133.96 133.886 133.402 133.438 
133.019 133.196 132.985 133.432 133.608 134.295 134.717 135.412 136.264 
135.689 135.542 134.951 134.852 134.343 134.412 133.99 134.22 133.844 
134.233 134.032 134.639 134.726 135.455 135.719 136.401 137.238 136.703 
136.565 135.979 135.858 135.322 135.359 134.957 135.189 134.873 135.227 
134.963 135.441 135.318 135.94 135.989 136.658 136.805 137.423 134.068 
133.653 134.136 134.722 133.273 133.715 134.335 134.86 135.534 133.223 
133.453 134.073 134.513 135.241 135.738 136.42 133.683 133.662 134.25 
134.43 135.152 135.523 136.242 136.642 137.292 134.385 134.287 134.801 
134.785 135.416 135.602 136.321 136.59 137.277 137.58 138.279 135.095 
134.994 135.447 135.352 135.862 135.943 136.628 136.82 137.529 137.717 
138.418 138.679 139.415 135.891 135.734 136.213 136.028 136.505 136.435 
137.085 137.198 137.928 138.067 138.739 138.903 139.576 139.828 140.488 
136.787 136.584 137.103 136.89 137.409 137.209 137.818 137.764 138.468 
138.519 139.178 139.259 139.869 140.021 140.626 140.84 141.402 137.719 
137.486 137.984 137.803 138.335 138.153 138.7 138.564 139.162 139.119 
139.735 139.743 140.334 140.379 140.953 141.047 141.59 141.731 142.24 
134.476 135.153 134.973 135.373 135.959 135.715 136.093 135.931 136.412 
136.82 136.564 136.914 136.688 137.145 137.032 137.595 137.686 137.437 
137.818 137.552 137.997 137.816 138.409 138.301 138.931 138.675 138.369 
138.822 138.521 139.006 138.749 139.355 139.196 139.887 139.73 140.393 
139.792 139.451 139.919 139.596 140.096 139.808 140.391 140.196 140.884 
140.734 141.418 141.235 141.89 140.831 140.549 140.982 140.693 141.154 
140.88 141.403 141.203 141.833 141.71 142.388 142.248 142.888 142.712 
143.334 141.715 141.497 141.924 141.693 142.144 141.895 142.382 142.164 
142.738 142.607 143.268 143.173 143.827 143.682 144.276 144.103 144.678 
142.536 142.34 142.798 142.601 143.086 142.861 143.348 143.119 143.645 
143.482 144.101 144.018 144.679 144.583 145.183 145.022 145.559 145.388 
145.92 148.432 147.978 148.018 147.73 147.575 147.611 147.306 147.384 
147.111 147.102 147.167 146.744 146.848 146.448 146.632 146.214 146.408 
146.555 146.006 146.13 145.594 145.808 145.344 145.565 145.032 145.501 
145.716 145.125 145.268 144.656 144.858 144.363 144.635 144.17 144.346 
143.782 144.589 144.785 144.249 144.375 143.753 143.891 143.318 143.588 
143.096 143.406 142.866 143.067 142.462 143.809 143.943 143.455 143.566 
142.975 143.036 142.388 142.532 141.945 142.238 141.683 142 141.388 
141.648 141.03 143.162 143.222 142.711 142.81 142.237 142.291 141.638 
141.673 141.037 141.164 140.61 140.835 140.287 140.523 139.938 140.185 
139.635 142.651 142.622 142.07 142.099 141.524 141.563 140.947 140.967 
140.346 140.38 139.812 139.914 139.399 139.547 139.029 139.185 138.67 
138.873 138.419 
POINT_DATA 1002
SCALARS Distance double
LOOKUP_TABLE default
138.69 137.75 137.712 138.698 137.641 139.794 138.76 137.599 139.925 
141.128 138.897 137.676 140.163 141.423 142.653 139.182 138.057 140.464 
141.765 143.026 144.217 139.786 138.781 140.944 142.15 143.393 144.638 
145.818 140.589 139.556 141.733 142.82 143.933 145.2 146.46 147.582 
141.313 140.281 142.567 143.776 144.857 146.056 147.337 148.45 149.373 
142.07 141.167 143.285 144.635 145.886 147.105 148.347 149.429 150.288 
151.039 143.052 142.259 144.102 145.363 146.677 147.998 149.293 150.41 
151.295 152.05 152.748 136.828 136.714 135.823 135.63 134.784 136.537 
134.545 133.752 135.387 136.412 133.438 132.692 134.28 135.263 136.544 
132.344 131.855 133.168 134.187 135.517 137.118 131.77 131.729 132.29 
133.224 134.555 136.232 137.955 132.088 132.31 132.201 132.802 133.885 
135.41 137.131 138.767 132.959 133.162 132.9 133.192 133.91 135.026 
136.467 138.078 139.667 133.907 134.002 133.884 134.051 134.518 135.28 
136.297 137.636 139.225 140.807 134.821 134.868 135.806 136.005 136.94 
135.01 137.223 138.184 136.242 135.323 138.544 139.557 137.549 136.678 
135.912 140.099 141.046 139.136 138.24 137.437 136.726 141.787 142.543 
140.994 140.139 139.242 138.409 137.822 143.364 143.947 142.753 142.044 
141.212 140.375 139.719 139.343 144.779 145.237 144.273 143.676 143.003 
142.332 141.767 141.352 141.038 146.098 146.446 145.685 145.169 144.612 
144.098 143.642 143.259 142.927 142.582 143.953 144.334 145.881 144.663 
146.23 148.009 145.023 146.538 148.34 150.236 145.458 146.969 148.647 
150.535 152.458 145.883 147.423 149.032 150.772 152.701 154.767 146.329 
147.782 149.356 151.016 152.902 155.035 157.174 146.819 148.156 149.625 
151.231 153.088 155.22 157.447 159.378 147.237 148.539 149.913 151.421 
153.217 155.272 157.454 159.53 161.163 147.541 148.83 150.169 151.56 
153.232 155.199 157.254 159.305 161.169 162.576 144.933 147.104 146.09 
149.463 148.348 147.346 151.951 150.938 149.697 148.739 154.545 153.892 
152.669 151.322 150.24 157.098 156.769 155.891 154.461 152.93 151.584 
159.361 159.095 158.486 157.388 155.912 154.268 152.664 161.232 160.984 
160.468 159.653 158.597 157.246 155.473 153.595 162.764 162.653 162.334 
161.733 160.892 159.94 158.543 156.517 154.408 163.992 164.123 165.171 
165.363 165.99 164.11 166.295 166.579 165.515 163.893 166.908 167.082 
166.353 165.19 163.172 167.213 167.161 166.641 165.619 164.136 162.183 
166.888 166.6 166.624 165.641 164.362 162.951 161.039 166.029 165.841 
166.061 165.516 164.398 163.103 161.482 159.174 165.151 165.116 165.081 
164.803 164.073 162.873 161.275 159.172 156.713 164.245 164.155 164.064 
163.694 163.104 162.113 160.631 158.721 156.565 154.484 163.008 164.464 
163.135 164.417 162.955 165.444 163.926 162.642 165.033 165.928 163.536 
162.161 164.328 165.237 166.325 163.118 161.057 164.104 164.579 165.581 
166.696 161.77 159.389 163.661 164.39 164.983 165.979 166.616 159.816 
157.947 162.012 163.525 164.375 165.295 166.017 166.124 158.346 156.994 
160.097 161.722 162.923 164.093 165.155 165.593 165.475 157.336 156.082 
158.782 160.135 161.188 162.272 163.533 164.434 164.689 164.534 147.451 
148.722 148.593 150.017 149.808 150.143 151.29 150.974 151.48 151.542 
152.477 152.117 152.75 152.944 153.118 153.751 153.337 154.047 154.424 
154.842 155.126 155.057 154.441 155.44 156.004 156.715 157.171 157.288 
155.993 155.166 156.61 157.454 158.498 159.201 159.389 159.369 156.519 
155.62 157.362 158.556 159.941 160.901 161.283 161.378 161.356 146.078 
147.09 145.751 146.742 145.335 148.211 146.242 144.755 147.79 149.377 
145.583 144.199 147.171 148.86 150.506 145.043 143.842 146.418 148.111 
149.876 151.594 144.754 143.587 145.896 147.293 149.007 150.755 152.619 
144.508 143.293 145.675 146.823 148.243 149.81 151.501 153.444 144.14 
142.971 145.409 146.601 147.859 149.225 150.562 152.162 154.034 143.738 