# vtk DataFile Version 4.0
vtk output
ASCII
DATASET POLYDATA
POINTS 1002 float
-86.5162 -85.2414 75.9679 -86.5959 -84.6729 74.767 -86.0717 -84.591 75.4049 
-85.9689 -85.1819 76.6983 -85.5331 -84.5208 76.2399 -86.4539 -85.9588 77.3905 
-85.4779 -85.2376 77.6504 -85.0974 -84.4533 77.3184 -85.9527 -86.0138 78.2065 
-86.329 -86.9595 78.8617 -85.0087 -85.3835 78.8192 -84.6988 -84.4179 78.5123 
-85.4818 -86.2243 79.2359 -85.8515 -87.1448 79.7644 -86.0605 -88.1683 80.2987 
-84.4732 -85.4805 80.0208 -84.2942 -84.4225 79.7633 -84.8832 -86.4485 80.3825 
-85.3086 -87.3934 80.8125 -85.5562 -88.4377 81.334 -85.7863 -89.5105 81.8524 
-84.0979 -85.5553 81.2958 -83.9675 -84.5002 81.1153 -84.3215 -86.6229 81.5921 
-84.6933 -87.6532 81.9301 -85.0254 -88.7566 82.4206 -85.2915 -89.8978 83.0008 
-85.5509 -90.9991 83.4599 -83.8865 -85.8219 82.6593 -83.6111 -84.7508 82.3534 
-84.0645 -86.9882 82.979 -84.2998 -88.0925 83.2804 -84.6047 -89.2561 83.6336 
-84.8612 -90.4935 84.1334 -85.0454 -91.6442 84.5871 -85.1499 -92.7288 84.8374 
-83.4704 -86.2639 83.7672 -83.1301 -85.1811 83.2798 -83.7471 -87.535 84.2243 
-84.0007 -88.7357 84.6582 -84.2874 -89.9156 85.0331 -84.4882 -91.2865 85.3624 
-84.574 -92.6181 85.6844 -84.6266 -93.7452 85.9257 -84.6704 -94.7895 86.0573 
-82.9234 -86.7261 84.5617 -82.7166 -85.6836 84.0976 -83.1698 -87.998 85.0441 
-83.4617 -89.2944 85.5476 -83.801 -90.5163 86.0705 -84.0054 -91.9636 86.4655 
-84.0219 -93.5832 86.7057 -84.0686 -94.951 86.9309 -84.2108 -96.0276 87.1563 
-84.3527 -96.9648 87.3109 -82.5905 -87.2277 85.3726 -82.5184 -86.1936 85.0521 
-82.7139 -88.4516 85.7727 -82.9151 -89.7914 86.1935 -83.2162 -91.1066 86.6631 
-83.4327 -92.5607 87.1209 -83.419 -94.2868 87.4392 -83.4252 -95.9246 87.7012 
-83.65 -97.1829 88.03 -83.9352 -98.156 88.3348 -84.121 -98.9505 88.4883 
-86.3824 -83.969 74.0887 -85.827 -83.901 74.7979 -86.1033 -83.0879 73.4519 
-85.5551 -82.9711 74.2742 -85.7329 -82.1282 72.8189 -85.302 -83.7235 75.7649 
-85.2684 -81.9132 73.7997 -85.3558 -81.2229 72.2538 -85.088 -82.6733 75.3716 
-84.9167 -83.4528 76.9397 -85.0275 -80.9237 73.4555 -85.0239 -80.2754 71.8909 
-84.8638 -81.6232 75.0799 -84.7403 -82.348 76.6929 -84.5783 -83.3182 78.269 
-84.7558 -79.9058 73.3341 -84.7963 -79.2115 71.8403 -84.6209 -80.7 74.9733 
-84.4677 -81.443 76.6597 -84.3806 -82.3084 78.3088 -84.1696 -83.3892 79.7667 
-84.5287 -78.8118 73.558 -84.9384 -78.3167 72.2717 -84.3296 -79.6484 75.0895 
-84.1629 -80.5897 76.7518 -84.0222 -81.4717 78.4676 -83.8474 -82.4605 79.9362 
-83.6719 -83.5608 81.1457 -84.7035 -78.0117 74.2819 -85.5414 -77.8953 73.2248 
-84.1912 -78.5698 75.58 -83.968 -79.5359 77.0016 -83.7087 -80.5412 78.5169 
-83.3873 -81.5143 79.9039 -83.1816 -82.6364 81.0276 -83.1371 -83.878 82.1264 
-85.2842 -77.7806 75.3227 -86.2609 -77.9065 74.3748 -84.4391 -77.9587 76.4637 
-84.0122 -78.6082 77.6583 -83.6174 -79.5358 78.8199 -83.0483 -80.4803 79.8838 
-82.6996 -81.5932 80.8375 -82.6815 -82.9591 81.8524 -82.7328 -84.3616 82.9957 
-85.8922 -77.954 76.2831 -86.7735 -78.1106 75.3716 -84.9302 -77.9248 77.3915 
-84.2909 -78.1912 78.5664 -83.7649 -78.8028 79.6183 -82.9954 -79.5921 80.4412 
-82.4092 -80.5755 81.146 -82.3702 -81.9194 81.9858 -82.5185 -83.4528 83.0292 
-82.5492 -84.8871 84.0988 -86.6258 -78.2784 76.7739 -85.672 -78.1947 77.8746 
-86.3969 -78.4901 78.3213 -85.5271 -78.4519 79.5712 -86.3522 -78.6827 80.0456 
-84.8243 -78.2022 79.1687 -85.6186 -78.8112 81.2519 -86.4976 -79.1162 81.6344 
-84.8032 -78.547 80.9484 -84.1779 -78.4637 80.4482 -85.7395 -79.6169 82.689 
-86.5076 -80.0539 82.9215 -84.8601 -79.1939 82.5101 -83.987 -78.9161 82.2298 
-83.3055 -79.0352 81.444 -85.704 -80.6884 84.0785 -86.391 -81.1178 84.2569 
-84.9263 -80.2423 83.8637 -83.9837 -79.8232 83.6808 -83.0125 -79.6481 83.1903 
-82.4435 -79.9057 82.1433 -85.7279 -81.5665 85.6182 -86.4226 -81.9992 85.6744 
-85.0237 -81.2418 85.348 -84.252 -81.0441 84.9556 -83.3111 -80.8669 84.6204 
-82.5361 -80.8224 83.985 -82.265 -81.1906 82.89 -85.8698 -82.5476 86.9083 
-86.5118 -83.0438 86.7763 -85.182 -82.1783 86.849 -84.5268 -82.1887 86.3831 
-83.7932 -82.3413 85.8502 -83.0489 -82.2867 85.5344 -82.6034 -82.3288 84.9121 
-82.4772 -82.7956 83.8589 -85.9522 -83.9381 87.7387 -86.5025 -84.3737 87.5508 
-85.3159 -83.4733 87.9461 -84.6892 -83.3566 87.8013 -84.0573 -83.639 87.2205 
-83.3774 -83.7871 86.786 -82.8483 -83.7055 86.542 -82.6093 -83.8873 85.8671 
-82.5324 -84.3898 84.8522 -86.0079 -85.3747 88.4178 -86.5012 -85.6457 88.2766 
-85.4242 -84.9769 88.6963 -84.8202 -84.6988 88.8796 -84.2359 -84.8075 88.5957 
-83.5981 -85.0418 88.0808 -82.9699 -85.0452 87.7975 -82.5903 -85.0794 87.451 
-82.4812 -85.4191 86.6587 -82.4734 -85.8599 85.7196 -82.4859 -87.4887 86.3388 
-82.4462 -87.2283 87.1695 -82.5106 -89.2975 87.8156 -82.4315 -86.8239 88.0962 
-82.4409 -89.0827 88.668 -82.4227 -91.5051 89.2543 -82.6461 -86.5219 88.7334 
-82.4716 -88.6534 89.48 -82.349 -91.1615 89.9749 -82.2432 -93.5472 90.3174 
-83.2156 -86.455 89.0194 -82.8618 -88.3527 89.949 -82.4904 -90.6819 90.6393 
-82.2799 -93.0678 90.9986 -82.3137 -95.35 91.246 -83.8936 -86.3341 89.3592 
-83.5273 -88.2465 90.1086 -83.0019 -90.4888 90.9079 -82.5199 -92.7306 91.6374 
-82.4252 -95.0951 92.1375 -82.5593 -97.5961 92.45 -84.4889 -86.1441 89.7074 
-84.1649 -88.0586 90.3272 -83.7186 -90.4344 90.911 -83.1325 -92.7166 91.7872 
-82.6742 -94.9598 92.7392 -82.5597 -97.6021 93.3415 -82.5834 -100.303 93.4922 
-85.1016 -86.2101 89.6581 -84.7805 -87.862 90.4897 -84.4181 -90.1878 91.054 
-83.9882 -92.661 91.7524 -83.4038 -94.8734 92.772 -82.8359 -97.3356 93.6549 
-82.5744 -100.155 94.017 -82.4855 -102.759 93.9226 -85.7485 -86.4753 89.3588 
-85.47 -87.8415 90.3475 -85.0891 -89.88 91.119 -84.7245 -92.365 91.7941 
-84.3152 -94.6702 92.6751 -83.645 -96.9526 93.5719 -83.0023 -99.6025 94.1072 
-82.6842 -102.345 94.2094 -82.4883 -104.745 94.0465 -86.3188 -86.6818 89.154 
-86.1304 -87.9001 90.0941 -85.7472 -89.6936 90.9047 -85.2673 -92.0388 91.6138 
-84.9182 -94.3658 92.4777 -84.4778 -96.5557 93.4119 -83.8075 -98.9844 94.0646 
-83.2375 -101.655 94.339 -82.8707 -104.23 94.3414 -82.5122 -106.466 94.1872 
-82.5416 -88.8183 86.6789 -82.5223 -91.0407 88.2457 -82.6088 -90.3098 87.0839 
-82.319 -93.5249 89.6638 -82.4831 -92.842 88.6655 -82.7522 -91.8555 87.4485 
-82.1553 -95.5809 90.6267 -82.1752 -95.4249 90.0384 -82.4841 -94.5923 88.9278 
-82.9182 -93.437 87.7783 -82.3557 -97.5789 91.5985 -82.0503 -97.5006 91.0464 
-82.1187 -97.2059 90.3067 -82.4925 -96.3345 89.0923 -82.9073 -95.1927 88.0779 
-82.5328 -100.277 92.7189 -82.2141 -99.8787 92.0247 -82.0195 -99.5255 91.4603 
-82.2034 -99.046 90.5095 -82.4933 -98.0859 89.2943 -82.8659 -96.9609 88.3813 
-82.4088 -103.152 93.4192 -82.2003 -102.949 92.8077 -82.0073 -102.435 92.2934 
-82.1063 -101.844 91.661 -82.359 -100.922 90.6533 -82.6407 -99.671 89.5995 
-83.0896 -98.4167 88.7844 -82.249 -105.492 93.6743 -81.994 -105.815 93.1937 
-81.7913 -105.69 92.6896 -81.8454 -105.173 92.1773 -82.1295 -104.151 91.5303 
-82.4692 -102.637 90.736 -82.9059 -101.016 89.9601 -83.4496 -99.5467 89.2056 
-82.1454 -107.4 93.8504 -81.8212 -108.082 93.4332 -81.5622 -108.454 92.9013 
-81.4845 -108.383 92.2715 -81.6779 -107.627 91.7033 -82.0485 -106.101 91.2563 
-82.5193 -104.113 90.7935 -83.1035 -102.151 90.2064 -83.6886 -100.448 89.4415 
-82.1676 -108.824 94.1032 -81.7422 -109.885 93.7154 -81.7811 -111.247 93.7481 
-81.3949 -112.559 93.2668 -81.667 -113.435 92.9548 -81.4494 -110.729 93.2098 
-81.2791 -115.083 92.3053 -81.8461 -115.165 91.8978 -81.1601 -113.647 92.5706 
-81.2574 -111.209 92.4352 -81.4025 -116.89 91.0325 -82.196 -116.318 90.9222 
-80.9555 -116.23 91.3754 -81.005 -113.988 91.5462 -81.2691 -110.941 91.6019 
-82.0044 -117.554 89.803 -82.8676 -116.746 90.1859 -81.0652 -117.528 89.8901 
-80.8413 -116.017 90.3533 -81.1794 -113.172 90.8365 -81.5878 -109.685 91.184 
-83.0851 -117.301 88.9955 -83.6984 -116.367 89.8267 -81.8763 -117.449 88.6189 
-81.0613 -116.664 89.1322 -81.2539 -114.595 90.1257 -81.7018 -111.333 90.8336 
-82.0826 -107.559 91.0424 -83.9095 -116.384 89.0056 -84.245 -115.111 89.9381 
-82.9504 -116.742 88.2689 -81.7838 -116.302 88.4381 -81.5037 -114.95 89.4981 
-81.9062 -112.254 90.4834 -82.271 -108.58 90.8302 -82.6773 -104.991 90.6959 
-84.2288 -114.523 89.6153 -84.6108 -113.016 90.2314 -83.6017 -115.321 88.9739 
-82.6376 -115.208 88.8142 -82.0343 -114.22 89.3918 -82.1686 -112.065 90.1454 
-82.5287 -108.797 90.4546 -82.9053 -105.368 90.3679 -83.3589 -102.577 90.0366 
-84.5779 -111.806 90.0897 -85.1468 -110.504 90.2929 -84.0311 -112.791 89.8382 
-83.4044 -113.011 89.7123 -82.8779 -112.306 89.8749 -82.7629 -110.615 90.1351 
-82.9625 -107.996 90.1487 -83.2604 -105.073 89.9255 -83.6313 -102.578 89.6066 
-83.9614 -100.621 89.1368 -82.8265 -106.714 94.45 -82.5029 -109.132 94.2992 
-83.3204 -106.596 94.5921 -83.1616 -108.869 94.3896 -83.9317 -106.029 94.4944 
-82.3019 -111.372 93.7703 -83.9025 -108.069 94.3241 -84.4981 -105.17 94.2206 
-83.222 -110.881 93.9031 -82.4456 -113.148 92.8864 -84.4334 -106.859 94.0503 
-85.1369 -104.071 93.9594 -83.9836 -109.871 93.9792 -83.4101 -112.445 93.1773 
-82.6804 -114.468 91.9572 -85.1553 -105.25 93.7267 -86.1005 -102.694 93.7395 
-84.4507 -108.201 93.682 -84.0469 -111.168 93.3711 -83.4601 -113.465 92.3872 
-82.9171 -115.296 91.2366 -86.3086 -103.512 93.5102 -87.0484 -101.208 93.2861 
-85.3062 -106.114 93.3426 -84.6421 -109.025 93.1733 -84.1823 -111.661 92.6872 
-83.6137 -113.686 91.7591 -83.4235 -115.315 90.787 -87.267 -101.845 93.0537 
-87.5812 -99.7169 92.3833 -86.4999 -104.189 93.1818 -85.6333 -106.718 93.0229 
-85.0791 -109.187 92.7515 -84.5693 -111.276 92.162 -84.1045 -113.016 91.39 
-84.0703 -114.39 90.6389 -87.8183 -100.133 92.1285 -87.9868 -98.2108 91.301 
-87.4233 -102.337 92.7011 -86.7253 -104.678 92.8582 -86.0525 -106.879 92.7162 
-85.5706 -108.758 92.325 -85.1208 -110.365 91.7613 -84.7876 -111.738 91.1999 
-84.678 -112.685 90.6734 -88.3859 -98.4555 91.1203 -88.6149 -96.814 90.4562 
-88.1247 -100.401 91.8063 -87.6769 -102.584 92.2804 -87.0428 -104.705 92.4018 
[...]
CELL_DATA 2000
SCALARS Distance double
LOOKUP_TABLE default
141.63 141.654 141.946 142.646 141.857 142.064 142.796 143.087 143.899 
142.23 142.389 143.163 143.364 144.199 144.444 145.273 142.648 142.803 
143.584 143.785 144.607 144.821 145.66 145.867 146.709 143.182 143.269 
144.047 144.207 145.034 145.233 146.097 146.31 147.211 147.403 148.309 
143.867 143.919 144.777 144.818 145.731 145.787 146.747 146.857 147.868 
148.01 148.998 149.105 149.992 144.466 144.619 145.547 145.653 146.629 
146.666 147.679 147.703 148.77 148.825 149.882 149.913 150.865 150.836 
151.683 144.951 145.144 146.043 146.294 147.232 147.461 148.417 148.597 
149.589 149.737 150.746 150.836 151.801 151.799 152.708 152.621 153.495 
145.566 145.653 146.52 146.718 147.638 147.902 148.842 149.128 150.08 
150.361 151.315 151.552 152.491 152.65 153.576 153.636 154.542 154.488 
155.331 141.02 140.083 140.717 141.034 139.035 139.751 140.121 140.772 
141.184 137.956 138.694 139.121 139.832 140.274 140.976 141.49 136.982 
137.688 138.165 138.859 139.356 140.059 140.608 141.337 141.921 136.128 
136.792 137.338 138.005 138.568 139.223 139.847 140.528 141.183 141.847 
142.486 135.58 136.037 136.604 137.241 137.87 138.529 139.197 139.859 
140.539 141.181 141.814 142.455 143.098 135.741 135.765 136.255 136.637 
137.288 137.884 138.56 139.214 139.824 140.486 141.027 141.712 142.262 
143.008 143.624 136.578 136.258 136.631 136.603 137.195 137.498 138.167 
138.634 139.17 139.707 140.148 140.805 141.316 142.088 142.711 143.502 
144.151 137.594 137.215 137.495 137.231 137.706 137.698 138.311 138.477 
138.986 139.212 139.613 140.013 140.558 141.204 141.947 142.683 143.463 
144.141 144.854 138.176 139.002 138.423 138.122 139.965 139.33 139.114 
138.487 138.335 141.129 140.419 140.252 139.584 139.481 138.86 138.844 
142.41 141.682 141.537 140.817 140.699 140.031 139.92 139.353 139.329 
143.723 143.012 142.915 142.167 142.051 141.302 141.155 140.44 140.306 
139.761 139.819 145.067 144.371 144.338 143.592 143.545 142.752 142.701 
141.854 141.82 140.986 141.074 140.452 140.791 146.403 145.748 145.77 
145.056 145.089 144.324 144.391 143.562 143.677 142.783 142.981 142.104 
142.444 141.753 142.262 147.669 147.078 147.157 146.504 146.604 145.903 
146.035 145.287 145.449 144.668 144.884 144.09 144.377 143.606 143.977 
143.324 143.789 148.867 148.333 148.465 147.881 148.033 147.41 147.585 
146.911 147.08 146.365 146.542 145.841 146.072 145.401 145.684 145.03 
145.358 144.769 145.156 146.088 146.347 146.69 147.781 146.658 146.993 
148.097 148.543 149.794 147.009 147.312 148.386 148.836 150.046 150.559 
151.74 147.465 147.702 148.749 149.131 150.295 150.761 151.905 152.371 
153.461 147.986 148.195 149.202 149.519 150.641 151.036 152.175 152.577 
153.748 154.164 155.421 148.454 148.687 149.641 149.947 151.019 151.396 
152.538 152.922 154.12 154.543 155.875 156.337 157.702 148.849 149.095 
150.011 150.324 151.36 151.749 152.902 153.314 154.511 154.933 156.183 
156.703 158.003 158.542 159.718 149.226 149.458 150.339 150.647 151.641 
152.041 153.169 153.641 154.832 155.289 156.451 156.923 158.082 158.643 
159.767 160.304 161.264 149.584 149.811 150.646 150.943 151.867 152.258 
153.287 153.799 154.922 155.483 156.597 157.107 158.168 158.67 159.721 
160.257 161.252 161.723 162.569 146.311 148.017 147.148 147.272 150.117 
149.101 149.178 148.218 148.388 152.15 151.291 151.457 150.36 150.412 
149.399 149.59 153.877 153.197 153.514 152.632 152.737 151.613 151.641 
150.631 150.835 155.814 154.973 155.331 154.552 154.819 153.885 153.947 
152.827 152.863 151.882 152.081 158.132 157.157 157.49 156.504 156.825 
155.918 156.164 155.125 155.181 154.038 154.099 153.124 153.297 160.204 
159.457 159.817 158.824 159.107 158.094 158.42 157.396 157.595 156.417 
156.452 155.276 155.354 154.35 154.47 161.757 161.283 161.714 160.995 
161.296 160.401 160.698 159.73 159.973 158.861 158.917 157.684 157.668 
156.513 156.554 155.515 155.526 163.035 162.682 163.176 162.682 163.065 
162.398 162.699 161.894 162.111 161.157 161.22 160.09 160.009 158.819 
158.725 157.615 157.534 156.484 156.343 163.876 165.171 164.405 164.058 
166.353 165.715 165.445 164.554 164.056 167.279 166.867 166.762 165.977 
165.498 164.467 163.778 167.854 167.673 167.679 167.178 166.746 165.851 
165.08 164.039 163.177 168.106 168.053 167.966 167.772 167.359 166.834 
166.073 165.217 164.276 163.28 162.276 168.143 168.135 167.86 167.744 
167.266 167.076 166.471 165.995 165.155 164.294 163.227 162.205 161.069 
167.878 168.023 167.712 167.557 167.015 166.842 166.358 166.179 165.549 
165.001 163.943 163.029 161.769 160.829 159.676 167.076 167.507 167.278 
167.337 166.823 166.656 166.123 166 165.398 165.127 164.081 163.445 
162.067 161.303 160.037 159.349 158.318 165.787 166.412 166.194 166.627 
166.163 166.299 165.653 165.644 164.86 164.737 163.631 163.245 161.843 
161.298 159.978 159.478 158.415 157.942 157.018 163.954 164.354 164.553 
165.24 164.471 164.867 165.586 165.762 166.329 164.232 164.836 165.66 
166.015 166.563 166.703 167.136 163.697 164.412 165.294 165.94 166.605 
166.875 167.229 167.352 167.674 163.078 163.733 164.447 165.294 166.042 
166.707 167.123 167.375 167.583 167.759 167.992 162.477 163.078 163.589 
164.303 164.925 165.817 166.346 166.986 167.18 167.524 167.647 167.939 
168.06 161.599 162.376 162.882 163.494 163.967 164.683 165.199 165.969 
166.265 166.835 166.887 167.355 167.388 167.801 167.739 160.343 161.295 
161.869 162.68 163.142 163.816 164.225 164.89 165.191 165.795 165.878 
166.4 166.364 166.883 166.776 167.218 166.925 159.143 159.992 160.562 
161.488 162 162.843 163.218 163.924 164.144 164.745 164.821 165.351 
165.327 165.818 165.704 166.143 165.867 166.207 165.732 150.014 151.023 
150.711 151.116 152.082 151.789 152.261 151.9 152.354 153.166 152.906 
153.457 153.103 153.615 153.226 153.769 154.269 154.051 154.704 154.369 
154.953 154.552 155.157 154.763 155.405 155.32 155.179 155.925 155.669 
156.356 155.976 156.649 156.232 156.933 156.501 157.132 156.232 156.189 
157.001 156.879 157.687 157.42 158.191 157.8 158.543 158.093 158.767 
158.238 158.764 157.032 157.054 157.955 157.945 158.883 158.746 159.618 
159.329 160.096 159.7 160.38 159.897 160.469 159.863 160.319 157.787 
157.846 158.832 158.919 159.962 159.936 160.849 160.668 161.413 161.13 
161.785 161.431 162.035 161.555 162.056 161.424 161.822 158.495 158.589 
159.588 159.772 160.831 160.935 161.803 161.745 162.417 162.268 162.892 
162.693 163.319 163.014 163.563 163.084 163.48 162.85 163.126 149.54 
149.085 149.698 150.484 148.61 149.213 149.996 150.654 151.486 148.254 
148.772 149.539 150.16 150.983 151.651 152.505 148.015 148.477 149.223 
149.767 150.565 151.161 151.98 152.657 153.535 147.732 148.214 148.936 
149.482 150.271 150.81 151.576 152.151 152.972 153.679 154.554 147.454 
147.89 148.572 149.135 149.926 150.515 151.278 151.8 152.542 153.14 
153.966 154.673 155.482 147.359 147.681 148.31 148.764 149.517 150.116 
150.914 151.487 152.22 152.754 153.52 154.133 154.931 155.573 156.301 
147.358 147.656 148.251 148.583 149.258 149.738 150.515 151.092 151.858 
152.413 153.164 153.736 154.531 155.112 155.856 156.402 157.075 147.263 
147.621 148.212 148.544 149.164 149.545 150.252 150.742 151.488 152.026 
152.755 153.337 154.113 154.735 155.51 156.05 156.717 157.194 157.813 
147.355 147.849 147.86 148.358 148.392 148.401 148.954 148.901 149.374 
148.967 148.979 149.601 149.567 150.135 149.994 150.491 149.619 149.6 
150.294 150.282 150.947 150.832 151.383 151.182 151.689 150.407 150.332 
151.055 151.035 151.754 151.677 152.247 152.067 152.551 152.374 152.902 
151.259 151.178 151.896 151.849 152.568 152.494 153.056 152.887 153.351 
153.195 153.761 153.644 154.273 152.068 152.029 152.75 152.698 153.399 
153.316 153.885 153.699 154.175 153.997 154.614 154.534 155.268 155.124 
155.74 152.823 152.824 153.549 153.514 154.181 154.118 154.7 154.549 
155.073 154.884 155.527 155.435 156.215 156.127 156.786 156.543 156.98 
153.527 153.561 154.275 154.262 154.889 154.844 155.421 155.34 155.926 
155.809 156.488 156.395 157.163 157.075 157.745 157.545 158.002 157.68 
158.035 154.142 155.318 154.8 154.9 156.588 156.024 156.115 155.508 
155.51 157.941 157.382 157.503 156.799 156.771 156.089 156.045 159.145 
158.734 158.966 158.293 158.32 157.502 157.469 156.694 156.655 160.199 
159.887 160.27 159.759 159.948 159.181 159.233 158.339 158.341 157.432 
157.381 161.393 161.039 161.535 161.079 161.399 160.779 160.924 160.145 
160.165 159.255 159.171 158.206 158.08 162.663 162.342 162.888 162.436 
162.774 162.194 162.346 161.697 161.724 160.971 160.839 159.95 159.698 
158.793 158.546 163.802 163.566 164.108 163.751 164.062 163.537 163.645 
163.034 163.059 162.398 162.313 161.508 161.235 160.314 159.942 159.079 
158.735 164.893 164.648 165.148 164.843 165.123 164.699 164.789 164.26 
164.268 163.679 163.631 162.927 162.732 161.846 161.487 160.505 160.09 
159.184 158.806 153.825 153.68 154.167 155.001 153.515 154.006 154.848 
155.356 156.237 153.319 153.823 154.629 155.164 156.062 156.627 157.537 
153 153.572 154.367 154.92 155.786 156.393 157.308 157.887 158.7 
152.561 153.188 154.002 154.609 155.452 156.076 156.967 157.592 158.429 
158.959 159.715 152.124 152.737 153.556 154.193 155.018 155.669 156.539 
157.214 158.098 158.69 159.517 160.014 160.852 151.735 152.313 153.102 
153.733 154.529 155.177 156.008 156.719 157.634 158.339 159.241 159.828 
160.684 161.211 162.074 151.352 151.9 152.632 153.257 154.031 154.673 
155.471 156.158 157.043 157.808 158.742 159.469 160.344 160.972 161.814 
162.389 163.214 150.985 151.486 152.156 152.755 153.51 154.161 154.96 
155.629 156.466 157.195 158.085 158.868 159.765 160.515 161.398 162.07 
162.956 163.526 164.359 152.987 151.574 152.463 152.814 150.202 151.018 
151.396 152.303 152.679 149.11 149.744 150.057 150.894 151.307 152.185 
152.518 148.093 148.717 148.941 149.647 149.983 150.807 151.139 151.973 
152.202 146.825 147.592 147.814 148.538 148.775 149.515 149.762 150.564 
150.779 151.585 151.755 145.507 146.281 146.559 147.324 147.516 148.242 
148.381 149.161 149.335 150.152 150.338 151.137 151.329 144.334 145.054 
145.345 146.077 146.235 146.909 146.942 147.688 147.801 148.669 148.884 
149.737 149.966 150.759 150.978 143.126 143.861 144.082 144.847 144.968 
145.625 145.598 146.24 146.284 147.1 147.337 148.254 148.553 149.411 
149.673 150.445 150.656 141.902 142.575 142.711 143.484 143.596 144.315 
144.325 144.95 144.985 145.676 145.895 146.74 147.088 147.983 148.318 
149.149 149.413 150.147 150.343 141.325 140.758 141.34 142.055 140.258 
140.798 141.426 142.1 142.868 139.733 140.277 140.86 141.469 142.175 
142.9 143.637 139.377 139.8 140.417 140.933 141.648 142.281 143.081 
143.711 144.434 139.471 139.675 140.346 140.665 141.439 141.906 142.78 
143.321 144.164 144.646 145.416 139.851 139.964 140.654 140.832 141.615 
141.904 142.773 143.182 144.07 144.511 145.353 145.776 146.603 140.284 
140.377 141.035 141.198 141.929 142.168 142.975 143.292 144.15 144.519 
145.386 145.779 146.635 147.036 147.856 140.796 140.832 141.451 141.56 
142.242 142.447 143.225 143.514 144.366 144.686 145.554 145.885 146.741 
147.098 147.914 148.27 148.996 141.354 141.372 141.985 142.028 142.702 
142.807 143.578 143.791 144.652 144.938 145.801 146.098 146.912 147.225 
147.994 148.326 149.028 149.342 149.955 141.843 142.904 142.418 142.542 
144.157 143.603 143.774 143.2 143.318 145.476 144.905 145.1 144.523 
144.684 144.053 144.209 146.889 146.251 146.441 145.861 146.067 145.467 
145.653 145.027 145.258 148.499 147.774 147.993 147.298 147.531 146.879 
147.099 146.473 146.695 146.105 146.363 150.12 149.422 149.667 148.962 
149.218 148.481 148.705 147.975 148.176 147.522 147.747 147.177 147.43 
151.72 151.001 151.204 150.567 150.813 150.169 150.391 149.664 149.837 
149.079 149.255 148.577 148.8 148.223 148.474 153.512 152.675 152.843 
152.091 152.295 151.654 151.871 151.252 151.44 150.752 150.903 150.164 
150.318 149.633 149.827 149.246 149.468 155.37 154.543 154.711 153.848 
154.01 153.209 153.387 152.69 152.883 152.252 152.43 151.769 151.892 
151.18 151.28 150.612 150.747 150.184 150.357 150.994 151.438 151.512 
152.173 152.04 152.062 152.775 152.812 153.551 152.693 152.741 153.504 
153.517 154.299 154.296 155.056 153.238 153.377 154.191 154.27 155.089 
155.105 155.899 155.851 156.595 153.75 153.926 154.832 154.958 155.845 
155.897 156.734 156.719 157.511 157.434 158.196 154.371 154.541 155.576 
155.691 156.701 156.731 157.687 157.638 158.555 158.442 159.31 159.141 
159.928 155.077 155.26 156.369 156.515 157.631 157.703 158.838 158.792 
159.932 159.742 160.814 160.493 161.406 161.008 161.729 155.788 155.992 
157.101 157.294 158.454 158.646 159.932 160.052 161.392 161.315 162.55 
162.235 163.252 162.739 163.497 162.882 163.438 156.409 156.66 157.74 
157.978 159.15 159.435 160.804 161.112 162.534 162.694 163.913 163.844 
164.8 164.52 165.237 164.724 165.217 164.544 164.894 137.48 136.436 
136.958 136.933 135.491 135.866 135.837 136.382 136.422 135.168 135.104 
134.965 135.324 135.423 135.975 136.192 135.645 135.142 134.861 134.749 
134.781 135.097 135.378 135.92 136.324 136.575 135.902 135.634 135.096 
135.02 134.817 135.003 135.248 135.706 136.239 136.838 137.633 136.957 
136.811 136.162 136.119 135.516 135.568 135.258 135.629 135.831 136.543 
137.017 137.79 138.756 138.092 138 137.395 137.432 136.806 136.855 
136.22 136.456 136.175 136.846 137.012 137.879 138.183 138.926 139.86 
139.248 139.157 138.572 138.599 138.063 138.14 137.557 137.718 137.251 
137.751 137.626 138.403 138.489 139.206 139.338 139.915 140.849 140.322 
140.252 139.698 139.694 139.18 139.243 138.739 138.854 138.416 138.735 
138.537 139.112 139.102 139.704 139.722 140.236 140.296 140.802 137.988 
137.478 138.01 138.544 137.001 137.506 138.112 138.618 139.255 136.784 
137.147 137.81 138.27 139.019 139.499 140.271 136.913 137.102 137.762 
138.108 138.898 139.349 140.171 140.614 141.366 137.411 137.401 138.028 
138.2 138.954 139.306 140.103 140.516 141.255 141.661 142.332 138.278 
138.078 138.659 138.619 139.323 139.485 140.267 140.532 141.267 141.575 
142.274 142.625 143.306 139.28 139.025 139.534 139.368 139.986 139.981 
140.727 140.851 141.611 141.761 142.473 142.677 143.386 143.664 144.351 
140.19 139.968 140.424 140.245 140.766 140.673 141.293 141.352 142.067 
142.203 142.907 143.027 143.688 143.843 144.501 144.731 145.372 141.058 
140.827 141.274 141.093 141.575 141.428 141.93 141.889 142.48 142.6 
143.266 143.439 144.071 144.201 144.787 144.933 145.529 145.738 146.324 
138.404 138.975 138.858 139.208 139.695 139.488 139.891 139.728 140.158 
140.678 140.345 140.757 140.51 140.981 140.791 141.309 141.736 141.391 
141.75 141.45 141.889 141.667 142.166 141.998 142.546 142.698 142.396 
142.717 142.416 142.787 142.559 143.014 142.843 143.358 143.23 143.805 
143.666 143.35 143.687 143.357 143.72 143.452 143.912 143.701 144.222 
144.051 144.627 144.509 145.123 144.694 144.367 144.73 144.366 144.749 
144.434 144.924 144.67 145.21 144.973 145.527 145.353 145.95 145.838 
146.438 145.704 145.406 145.779 145.43 145.792 145.475 145.934 145.698 
146.214 145.981 146.468 146.252 146.767 146.64 147.207 147.116 147.673 
146.636 146.382 146.745 146.44 146.756 146.457 146.833 146.627 147.089 
146.912 147.356 147.146 147.581 147.419 147.93 147.845 148.397 148.316 
148.846 152.809 152.087 152.106 151.395 151.373 151.393 150.71 150.693 
150.057 150.622 150.699 150.106 150.099 149.533 149.508 149.019 149.781 
149.916 149.382 149.497 149.011 149.054 148.553 148.543 148.009 148.976 
149.063 148.494 148.679 148.199 148.416 147.908 148.002 147.332 147.349 
146.665 148.329 148.32 147.684 147.771 147.195 147.438 146.896 147.149 
146.461 146.55 145.756 145.854 145.24 147.773 147.723 147.061 147.032 
146.361 146.437 145.793 146.009 145.347 145.546 144.811 144.931 144.274 
144.485 144.032 147.242 147.174 146.515 146.452 145.783 145.721 145.026 
145.022 144.339 144.449 143.81 143.973 143.382 143.563 143.056 143.314 
142.882 146.77 146.668 146.013 145.928 145.299 145.216 144.575 144.447 
143.77 143.667 143.043 143.077 142.556 142.698 142.22 142.397 141.933 
142.159 141.731 
POINT_DATA 1002
SCALARS Distance double
LOOKUP_TABLE default
142.256 141.332 141.302 142.281 141.381 143.404 142.533 141.661 143.577 
144.719 142.977 142.055 143.984 145.038 146.065 143.382 142.51 144.396 
145.445 146.501 147.564 143.918 143.121 144.846 145.863 146.988 148.149 
149.218 144.723 143.761 145.695 146.657 147.725 148.897 149.952 150.811 
145.376 144.266 146.546 147.651 148.733 149.858 150.897 151.752 152.493 
145.794 144.795 146.964 148.19 149.413 150.626 151.759 152.754 153.625 
154.373 146.372 145.535 147.399 148.555 149.784 151.048 152.279 153.444 
154.535 155.47 156.155 140.428 140.423 139.402 139.43 138.276 140.515 
138.381 137.215 139.555 140.757 137.471 136.265 138.647 139.869 141.203 
136.646 135.477 137.904 139.159 140.517 141.833 135.993 135.276 137.18 
138.531 139.907 141.197 142.416 136.034 135.919 136.745 137.946 139.211 
140.36 141.526 142.848 136.829 136.993 137.037 137.81 138.751 139.555 
140.533 141.893 143.395 137.829 137.967 137.834 138.253 138.877 139.335 
139.956 141.188 142.763 144.234 138.735 138.709 139.568 139.717 140.616 
138.923 140.928 141.847 140.116 139.408 142.275 143.112 141.411 140.574 
139.782 143.655 144.405 142.821 141.925 140.97 140.172 145.058 145.741 
144.305 143.513 142.669 141.822 141.233 146.448 147.023 145.806 145.157 
144.505 143.86 143.262 142.841 147.767 148.221 147.261 146.749 146.203 
145.642 145.151 144.721 144.373 149.013 149.368 148.618 148.225 147.786 
147.253 146.734 146.335 146.002 145.703 147.029 147.34 148.979 147.642 
149.314 151.096 147.964 149.558 151.274 152.858 148.412 149.875 151.458 
152.988 154.541 148.923 150.275 151.78 153.292 154.969 156.76 149.355 
150.648 152.141 153.701 155.374 157.288 159.068 149.709 150.974 152.464 
154.109 155.729 157.453 159.278 160.818 150.049 151.263 152.693 154.357 
156.036 157.594 159.207 160.823 162.158 150.371 151.519 152.823 154.354 
156.061 157.699 159.218 160.748 162.193 163.361 148.047 150.28 149.212 
152.503 151.593 150.435 154.237 153.809 152.817 151.679 156.145 155.615 
155.038 153.993 152.925 158.575 157.757 157.107 156.352 155.204 154.176 
160.737 160.148 159.426 158.736 157.703 156.455 155.437 162.305 162.11 
161.64 161.039 160.154 158.902 157.653 156.579 163.592 163.64 163.455 
163.014 162.292 161.226 159.912 158.619 157.409 164.679 164.949 165.892 
166.312 166.862 165.081 167.437 167.545 166.547 164.875 168.047 167.977 
167.561 166.141 164.238 168.14 168.205 167.715 166.807 165.281 163.323 
168.065 168.162 167.379 166.709 165.905 164.291 162.081 167.844 167.632 
167.229 166.44 165.933 164.822 162.733 160.507 167.051 166.551 166.943 
166.302 165.634 164.64 162.798 160.685 158.93 165.644 165.174 165.895 
165.662 165.009 163.954 162.318 160.429 158.831 157.492 163.83 165.159 
164.084 165.366 163.973 166.243 165.18 163.555 166.447 167.011 164.51 
163.036 166.204 167.176 167.509 163.663 162.544 165.18 166.751 167.45 
167.798 163.037 161.858 164.077 165.53 166.767 167.332 167.818 162.239 
160.705 163.38 164.454 165.623 166.416 166.924 167.429 160.946 159.384 
162.43 163.626 164.604 165.357 165.872 166.308 166.601 159.65 158.398 
161.095 162.482 163.553 164.282 164.833 165.283 165.53 165.48 150.304 
151.459 151.309 152.602 152.337 152.725 153.785 153.379 153.99 154.138 
154.995 154.438 155.341 155.537 155.806 156.11 155.418 156.678 157.057 
157.358 157.641 157.045 156.24 157.857 158.532 158.991 159.284 159.382 
157.884 156.978 158.941 159.857 160.472 160.832 161.034 160.999 158.68 
157.707 159.937 161.016 161.683 162.095 162.437 162.643 162.535 148.951 
149.841 148.465 149.335 148.033 150.814 148.951 147.78 150.335 151.803 
148.703 147.565 150.018 151.348 152.792 148.378 147.256 149.73 151.069 
152.316 153.812 148.04 147.068 149.3 150.752 152.019 153.297 154.793 
147.938 147.075 148.955 150.299 151.695 152.953 154.314 155.69 147.957 
147.044 148.861 149.962 151.287 152.597 153.947 155.339 156.545 147.864 