# vtk DataFile Version 4.0
vtk output
ASCII
DATASET POLYDATA
POINTS 1002 float
-77.2301 -84.5182 72.3222 -77.5761 -84.0224 71.3359 -76.995 -83.6315 71.7603 
-76.6768 -84.2328 72.9651 -76.4806 -83.1811 72.587 -77.0513 -85.0606 73.6383 
-76.2075 -83.9118 74.1364 -76.1384 -82.7512 73.8954 -76.5591 -84.8696 74.6507 
-76.8981 -85.7387 75.3517 -76.0009 -83.676 75.666 -76.1533 -82.5639 75.3917 
-76.0696 -84.7511 76.1696 -76.3761 -85.679 76.7278 -76.4991 -86.7244 77.309 
-76.1878 -83.7219 77.223 -76.4248 -82.7139 77.0666 -75.7828 -84.7552 77.7187 
-75.7003 -85.7019 78.2685 -75.9132 -86.7775 78.7943 -75.9173 -88.0064 79.3471 
-76.4214 -83.98 79.009 -76.5969 -83.0215 79.0768 -75.855 -84.9017 79.2144 
-75.294 -85.7802 79.5965 -75.3245 -86.8326 80.125 -75.4879 -88.1351 80.7996 
-75.4665 -89.3989 81.5096 -76.4095 -84.2575 80.9916 -76.6709 -83.3904 80.9893 
-76.0009 -85.1308 81.03 -75.4426 -86.0082 81.1849 -75.2666 -87.0905 81.5522 
-75.3073 -88.4059 82.2127 -75.1697 -89.7747 83.0088 -75.1056 -90.9968 83.7857 
-76.4222 -84.5865 82.6724 -76.8509 -83.8533 82.4606 -76.084 -85.4749 82.8749 
-75.726 -86.4709 83.1482 -75.5384 -87.6991 83.5199 -75.4074 -89.094 84.0304 
-75.0002 -90.4769 84.6571 -74.6537 -91.8145 85.3095 -74.6756 -93.0997 85.972 
-76.6105 -85.014 84.0168 -77.0891 -84.3413 83.7147 -76.2508 -85.9782 84.3727 
-75.8811 -87.1268 84.8559 -75.5076 -88.4359 85.4109 -75.1795 -89.9043 85.9128 
-74.7038 -91.3713 86.3778 -74.218 -92.8028 86.8488 -74.0848 -94.2634 87.318 
-74.1846 -95.6869 87.7666 -76.8099 -85.4906 85.22 -77.2785 -84.801 84.893 
-76.428 -86.538 85.6155 -75.98 -87.8142 86.1368 -75.3043 -89.0879 86.7324 
-74.5869 -90.4224 87.2111 -74.059 -91.9442 87.5729 -73.7315 -93.5887 87.9847 
-73.6108 -95.2825 88.4172 -73.62 -96.9362 88.737 -73.5709 -98.4085 88.9121 
-77.6961 -83.2054 70.6836 -77.1191 -82.6393 71.1885 -77.9345 -82.2201 70.1005 
-77.4093 -81.6801 70.8016 -78.2894 -81.3472 69.7815 -76.6586 -82.1304 72.236 
-77.886 -80.988 70.7561 -78.8594 -80.5423 69.8623 -77.1211 -81.3423 72.136 
-76.4087 -81.7851 73.7293 -78.5222 -80.0802 71.0405 -79.573 -79.4553 70.1604 
-77.7962 -80.666 72.2559 -77.0331 -81.1429 73.82 -76.4436 -81.7154 75.3836 
-79.1292 -78.8936 71.4898 -80.2277 -78.5761 70.5448 -78.3727 -79.5626 72.5471 
-77.7804 -80.4315 74.0302 -77.0473 -81.1306 75.6925 -76.6347 -81.8923 77.3421 
-79.7432 -78.4923 72.043 -80.9183 -78.555 71.0889 -78.7799 -78.6934 73.0863 
-78.2278 -79.5284 74.4179 -77.7417 -80.5867 76.0931 -77.2029 -81.3506 77.7947 
-76.8832 -82.2468 79.4385 -80.5049 -78.9851 72.5945 -81.6993 -78.9163 71.6939 
-79.3662 -78.8365 73.7667 -78.5872 -79.0417 75.1079 -78.2024 -79.9887 76.6141 
-77.9091 -80.9859 78.1638 -77.5793 -81.8157 79.666 -77.2183 -82.8141 81.126 
-81.2098 -79.4599 73.0947 -82.2967 -79.1531 72.2793 -80.115 -79.3359 74.3339 
-79.2256 -78.9968 75.8274 -78.6976 -79.3479 77.2784 -78.455 -80.3911 78.5674 
-78.2822 -81.465 79.8079 -77.984 -82.4865 81.1379 -77.5331 -83.4672 82.4895 
-81.6819 -79.691 73.6963 -82.5677 -79.4328 72.9375 -80.78 -79.5773 74.8623 
-79.994 -79.0246 76.3744 -79.4168 -78.8438 77.8554 -79.0444 -79.6042 79.0397 
-78.8093 -80.8326 80.0831 -78.5717 -82.0397 81.263 -78.1998 -83.1166 82.5755 
-77.724 -84.0006 83.8213 -82.2585 -79.9658 74.1974 -81.5956 -79.8049 75.2302 
-82.3681 -80.1653 75.6393 -82.07 -79.5172 76.9038 -82.9744 -79.9232 76.8951 
-80.9491 -79.2131 76.6492 -82.7892 -79.3263 78.2464 -83.3628 -79.911 78.0135 
-81.549 -78.9993 78.3645 -80.3509 -78.739 78.1813 -82.8163 -79.8671 79.5393 
-82.9276 -80.796 79.7173 -81.9982 -79.5719 79.6943 -80.8568 -79.3541 79.6957 
-79.8423 -79.1891 79.4452 -82.2595 -81.0323 81.7097 -82.3407 -82.2196 82.2637 
-81.8919 -80.5155 81.3335 -81.1448 -80.6034 81.0991 -80.2536 -80.4263 80.8577 
-79.4234 -80.3596 80.5134 -82.2364 -82.2894 84.468 -82.4902 -83.3992 84.7307 
-81.8985 -81.3644 83.8447 -81.3245 -81.3785 83.102 -80.5457 -81.567 82.5555 
-79.7022 -81.44 82.1874 -79.0348 -81.6026 81.7407 -82.8119 -83.3793 86.5224 
-83.1497 -84.1569 86.3956 -82.3186 -82.4638 86.19 -81.6249 -82.108 85.4185 
-80.7653 -82.2321 84.6317 -79.8583 -82.2424 84.1335 -79.1135 -82.3533 83.7037 
-78.6231 -82.7675 83.1266 -83.2748 -84.2879 87.7874 -83.7198 -84.7779 87.652 
-82.5657 -83.7711 87.5884 -81.7424 -83.4552 87.0539 -80.8547 -83.3341 86.4266 
-79.9382 -83.1705 85.9197 -79.1616 -83.1333 85.5022 -78.6124 -83.4409 84.9972 
-78.1777 -83.8159 84.386 -83.4676 -85.087 89.0044 -84.0181 -85.471 88.9591 
-82.5367 -84.8385 88.6831 -81.6038 -84.7825 88.128 -80.829 -84.7447 87.6399 
-80.0466 -84.5222 87.2622 -79.289 -84.3159 86.8516 -78.6976 -84.3953 86.3952 
-78.2016 -84.6133 85.9184 -77.7209 -84.7436 85.4078 -77.1213 -85.7755 86.1908 
-77.6016 -85.812 86.6393 -76.8906 -87.1372 87.4613 -78.1797 -85.8428 87.0266 
-77.4254 -87.2395 87.8425 -76.5156 -88.6681 88.7209 -78.7765 -85.7543 87.472 
-78.0635 -87.3061 88.2009 -77.0783 -88.7223 89.1436 -75.9965 -90.3006 89.8903 
-79.4944 -85.7059 87.987 -78.7728 -87.1855 88.6506 -77.6862 -88.7583 89.4748 
-76.5425 -90.4048 90.2782 -75.3801 -92.483 90.7548 -80.2783 -85.8182 88.3928 
-79.6653 -87.058 89.1351 -78.4159 -88.7525 89.7821 -77.0422 -90.5807 90.4664 
-75.9128 -92.6587 91.0262 -74.7367 -95.0529 91.4113 -80.9045 -85.8319 88.7873 
-80.4249 -86.9841 89.5421 -79.294 -88.7507 90.1615 -77.6133 -90.7849 90.7309 
-76.3531 -92.7064 91.2956 -75.3088 -94.9056 91.7296 -74.0901 -97.2376 92.098 
-81.676 -85.7028 89.4329 -80.9805 -86.7968 90.0388 -79.9986 -88.5709 90.4978 
-78.323 -90.799 91.0907 -76.8266 -92.6567 91.7899 -75.8367 -94.4831 92.2074 
-74.703 -96.8014 92.4054 -73.3739 -99.1856 92.6507 -82.8019 -85.7459 90.0872 
-81.8797 -86.6856 90.6808 -80.7334 -88.2535 90.7763 -79.1466 -90.465 91.1452 
-77.5417 -92.4756 92.0728 -76.396 -94.1579 92.7119 -75.3228 -96.3136 92.7422 
-74.0018 -98.9217 92.724 -72.6825 -101.357 92.9265 -83.7605 -86.0619 90.312 
-82.9867 -86.8911 91.0935 -81.7425 -88.1727 91.0435 -80.1594 -90.0885 91.0305 
-78.5558 -92.1789 91.89 -77.18 -94.021 92.824 -75.9037 -96.0882 92.954 
-74.5999 -98.6469 92.7706 -73.3583 -101.21 92.8531 -72.2842 -103.393 93.1108 
-76.6215 -86.8035 86.6285 -76.2186 -88.4356 88.0127 -76.1093 -88.1912 87.1392 
-75.5944 -90.1224 89.2785 -75.4119 -89.9207 88.5762 -75.3104 -89.5632 87.716 
-74.8762 -92.1883 90.3324 -74.5612 -91.7723 89.8296 -74.3304 -91.2495 89.1101 
-74.2321 -90.7814 88.1729 -74.1621 -94.9433 91.1324 -73.8008 -94.4003 90.8487 
-73.5731 -93.5587 90.3536 -73.3235 -92.7564 89.3843 -73.4283 -92.2985 88.4014 
-73.4962 -97.5837 91.8479 -73.1309 -97.4377 91.5726 -72.9856 -96.8386 91.2767 
-72.9031 -95.9113 90.5399 -72.9029 -94.9956 89.4704 -73.1975 -94.3067 88.6968 
-72.7741 -99.7135 92.5292 -72.4486 -99.9543 92.1569 -72.2765 -99.9795 91.7198 
-72.2534 -99.6554 91.2648 -72.5016 -98.7906 90.5106 -72.8774 -97.6398 89.7322 
-73.232 -96.4845 89.1661 -71.9837 -101.92 92.9993 -71.6261 -102.248 92.7239 
-71.4664 -102.523 92.0676 -71.32 -102.748 91.4836 -71.4934 -102.476 91.0515 
-72.0879 -101.472 90.5126 -72.7013 -100.054 89.9941 -73.168 -98.5203 89.4893 
-71.4523 -104.18 93.239 -70.8906 -104.676 93.1591 -70.6864 -104.977 92.5662 
-70.5847 -105.262 91.7266 -70.5835 -105.334 91.1708 -70.9384 -104.781 90.7728 
-71.5671 -103.577 90.3002 -72.2412 -102.003 89.8964 -72.9121 -100.246 89.5063 
-71.7126 -105.611 93.3336 -70.8026 -106.699 93.3529 -71.3828 -107.651 93.158 
-70.5144 -109.078 93.0763 -71.0713 -109.727 92.41 -70.2535 -107.363 93.0956 
-70.409 -111.308 92.3274 -70.7267 -111.935 91.5244 -70.0364 -109.915 92.6049 
-70.1166 -107.711 92.2442 -70.1615 -113.551 91.3159 -70.605 -113.946 90.8192 
-69.8944 -112.378 91.5745 -69.9665 -110.377 91.5083 -70.1842 -107.877 91.2987 
-69.8297 -115.698 90.1988 -70.7297 -115.464 89.9467 -69.3705 -114.955 90.2675 
-69.7192 -113.057 90.3378 -70.2023 -110.394 90.5265 -70.3704 -107.575 90.699 
-69.8255 -117.225 89.0852 -70.9019 -116.307 88.9211 -68.9483 -117.081 89.088 
-69.1464 -115.471 89.1503 -70.0344 -112.718 89.484 -70.4016 -109.597 89.8558 
-70.6561 -106.577 90.1495 -70.3617 -117.495 88.2602 -71.3289 -116.157 88.2494 
-69.3346 -117.83 88.1883 -69.039 -116.714 88.2249 -69.7266 -114.309 88.5689 
-70.3228 -111.239 88.9555 -70.484 -108.09 89.2804 -71.1326 -105.037 89.6785 
-71.3616 -116.431 87.7695 -72.2592 -115.118 87.9234 -70.3706 -117.001 87.555 
-69.761 -116.442 87.5115 -69.9225 -114.746 87.8854 -70.3896 -112.183 88.3679 
-70.5619 -109.184 88.6727 -70.9329 -106.135 89.047 -71.9116 -103.145 89.4621 
-72.5096 -114.768 87.3823 -73.3794 -113.816 87.6201 -71.5356 -115.295 87.1202 
-70.8146 -115.171 87.0412 -70.6206 -114.22 87.4161 -70.8206 -112.331 88.0206 
-70.997 -109.681 88.4161 -71.2024 -106.742 88.7069 -71.869 -103.842 89.077 
-72.842 -101.035 89.2367 -72.7766 -103.675 93.2411 -72.4979 -105.422 93.4813 
-73.3141 -103.44 93.5004 -73.3034 -104.665 93.7364 -73.8364 -103.078 93.4808 
-72.1582 -107.132 92.9218 -73.9777 -104.165 93.649 -74.3763 -102.98 92.834 
-72.7939 -106.285 92.7947 -71.4287 -109.395 91.6855 -74.3575 -104.096 92.9477 
-74.8451 -102.658 92.0709 -73.3361 -105.74 92.6619 -71.7801 -108.77 91.3575 
-70.9395 -111.881 90.8405 -74.4421 -103.53 92.1418 -75.5576 -101.523 91.9227 
-73.5799 -105.207 92.2115 -72.4339 -107.871 91.4511 -71.5569 -111.244 90.7218 
-71.2494 -113.702 90.4212 -75.1266 -102.203 91.7794 -77.0386 -100.087 92.1438 
-73.6983 -104.192 91.5324 -72.9114 -106.607 91.2397 -72.4596 -109.906 90.8312 
-72.1265 -112.768 90.298 -71.6289 -114.649 89.5815 -76.7989 -100.781 91.6645 
-78.7871 -98.9627 92.0412 -74.6973 -102.911 91.1313 -73.3872 -105.266 90.7334 
-72.9968 -108.174 90.5109 -72.7842 -111.13 90.14 -72.2886 -113.196 89.3781 
-71.7188 -114.776 88.6516 -78.422 -99.4714 91.3564 -79.9328 -98.0199 91.4992 
-76.4252 -101.466 91.0172 -74.6223 -103.843 90.6097 -73.6554 -106.406 90.2255 
-73.2688 -109.055 89.8837 -72.8274 -111.2 89.3556 -72.3805 -112.744 88.6864 
-72.2386 -114.127 88.2276 -79.3713 -98.195 90.7876 -80.4802 -97.0628 90.8006 
-77.8801 -99.8156 90.7432 -76.2325 -102.017 90.6665 -74.9141 -104.43 90.3683 
[...]
CELL_DATA 2000
SCALARS Distance double
LOOKUP_TABLE default
133.878 133.668 134.04 134.684 133.766 134.005 134.743 135.049 135.836 
134.285 134.34 135.157 135.321 136.194 136.402 137.264 135.255 135.11 
135.923 135.916 136.763 136.878 137.758 137.936 138.824 136.558 136.272 
137.018 136.814 137.521 137.478 138.278 138.444 139.389 139.591 140.571 
137.923 137.615 138.306 137.995 138.646 138.376 139.167 139.112 140.158 
140.269 141.404 141.504 142.607 139.186 138.9 139.579 139.293 140.037 
139.702 140.626 140.361 141.54 141.392 142.647 142.549 143.746 143.704 
144.892 140.368 140.091 140.784 140.557 141.401 141.167 142.164 141.957 
143.107 142.954 144.127 143.969 145.09 144.965 146.126 146.094 147.314 
141.482 141.23 141.926 141.756 142.626 142.498 143.429 143.329 144.245 
144.229 145.133 145.185 146.117 146.181 147.223 147.293 148.443 148.496 
149.611 133.405 132.601 133.004 133.105 131.966 132.252 132.366 132.816 
133.14 131.707 131.82 132.01 132.271 132.628 133.048 133.619 131.637 
131.718 131.961 132.14 132.559 132.787 133.329 133.74 134.552 131.601 
131.649 131.86 132.091 132.558 132.847 133.428 133.681 134.413 134.872 
135.861 132.001 131.781 131.973 132.005 132.487 132.81 133.546 133.874 
134.651 134.937 135.839 136.304 137.309 132.919 132.505 132.733 132.423 
132.864 132.897 133.695 134.02 134.95 135.252 136.144 136.445 137.378 
137.778 138.677 133.852 133.514 133.756 133.389 133.732 133.518 134.143 
134.286 135.178 135.517 136.43 136.755 137.636 137.958 138.824 139.143 
139.929 134.599 134.359 134.605 134.339 134.616 134.376 134.802 134.783 
135.475 135.726 136.574 136.939 137.802 138.175 139.02 139.347 140.122 
140.384 141.075 135.095 135.971 135.388 135.138 136.948 136.343 136.064 
135.442 135.186 137.894 137.354 137.169 136.483 136.236 135.56 135.416 
138.932 138.347 138.329 137.691 137.592 136.822 136.732 136.002 136.08 
140.506 139.629 139.681 138.966 139.079 138.342 138.391 137.55 137.625 
136.884 137.127 142.657 141.573 141.632 140.618 140.774 139.951 140.131 
139.308 139.405 138.562 138.729 138.034 138.345 144.71 143.801 143.877 
142.792 142.829 141.825 141.931 141.06 141.151 140.319 140.426 139.679 
139.918 139.279 139.582 146.292 145.63 145.683 144.838 144.757 143.832 
143.77 142.872 142.859 142.009 142.056 141.306 141.478 140.838 141.085 
140.468 140.682 147.644 147.046 147.04 146.338 146.189 145.451 145.325 
144.568 144.501 143.69 143.675 142.892 142.997 142.333 142.529 141.921 
142.096 141.473 141.604 142.316 142.833 142.922 143.659 143.326 143.455 
144.22 144.334 145.13 143.831 143.964 144.784 144.911 145.713 145.818 
146.597 144.499 144.55 145.379 145.48 146.283 146.39 147.163 147.266 
148.064 145.268 145.28 146.08 146.128 146.896 146.951 147.691 147.798 
148.596 148.76 149.641 145.974 145.984 146.726 146.81 147.563 147.602 
148.302 148.338 149.087 149.238 150.088 150.327 151.197 146.762 146.673 
147.332 147.374 148.089 148.194 148.888 148.959 149.647 149.739 150.493 
150.69 151.49 151.758 152.534 147.69 147.561 148.196 148.056 148.649 
148.641 149.258 149.402 150.074 150.248 150.932 151.084 151.781 151.99 
152.727 153.003 153.76 148.426 148.477 149.152 148.999 149.466 149.257 
149.683 149.694 150.318 150.553 151.276 151.48 152.126 152.276 152.93 
153.173 153.924 154.234 155.012 142.264 143.68 142.89 142.804 145.192 
144.417 144.428 143.604 143.597 146.651 145.934 145.969 145.237 145.249 
144.432 144.394 148.157 147.413 147.459 146.731 146.715 145.964 145.859 
145.105 145.058 149.845 149.057 149.212 148.357 148.43 147.514 147.423 
146.518 146.443 145.736 145.828 151.489 150.823 151.099 150.275 150.514 
149.523 149.633 148.449 148.464 147.363 147.53 146.702 146.94 152.87 
152.387 152.72 152.097 152.393 151.633 151.908 150.899 151.088 149.836 
150.041 148.836 149.146 148.078 148.298 154.145 153.725 154.131 153.608 
153.925 153.332 153.634 152.97 153.263 152.389 152.611 151.515 151.719 
150.556 150.745 149.554 149.63 155.443 155.052 155.554 155.052 155.444 
154.84 155.153 154.541 154.857 154.242 154.498 153.74 153.849 152.924 
152.945 151.929 151.909 150.8 150.728 156.313 157.62 156.87 156.504 
158.713 158.171 157.926 157.008 156.45 159.632 159.242 159.171 158.396 
157.865 156.836 156.145 160.532 160.175 160.166 159.551 159.115 158.203 
157.507 156.478 155.801 161.314 161.036 160.993 160.479 160.115 159.365 
158.751 157.805 157.067 156.094 155.404 161.724 161.659 161.632 161.243 
160.898 160.284 159.705 158.924 158.127 157.218 156.338 155.499 154.701 
161.659 161.849 161.856 161.705 161.314 160.896 160.249 159.674 158.81 
158.046 157 156.203 155.237 154.576 153.746 161.197 161.547 161.485 
161.604 161.129 160.99 160.279 159.956 159.101 158.53 157.472 156.706 
155.638 154.968 154.101 153.54 152.721 160.538 160.884 160.674 160.923 
160.41 160.497 159.843 159.764 159.034 158.693 157.76 157.108 156.034 
155.329 154.388 153.83 153.023 152.474 151.591 156.404 156.757 156.958 
157.614 156.846 157.154 157.68 157.941 158.486 156.758 157.137 157.546 
157.782 158.158 158.604 159.219 156.454 156.957 157.367 157.578 157.822 
158.169 158.793 159.397 160.167 155.877 156.449 156.837 157.254 157.505 
157.865 158.474 159.054 159.941 160.449 161.091 155.437 155.765 155.977 
156.479 156.748 157.359 157.983 158.735 159.598 160.221 160.814 161.177 
161.465 155.385 155.427 155.461 155.685 155.882 156.445 157.033 157.958 
158.761 159.646 160.111 160.656 160.763 161.209 161.28 155.238 155.329 
155.273 155.363 155.474 155.772 156.21 156.908 157.584 158.511 158.962 
159.677 159.722 160.263 160.263 160.833 160.862 154.666 154.93 154.816 
155.066 155.118 155.436 155.717 156.194 156.656 157.348 157.796 158.483 
158.675 159.199 159.266 159.789 159.91 160.412 160.4 148.91 149.796 
149.568 149.759 150.429 150.306 150.497 150.178 150.037 151.145 150.866 
151 150.754 150.693 150.295 150.151 152.093 151.675 151.799 151.402 
151.566 151.102 151.217 150.663 150.819 152.781 152.559 152.748 152.406 
152.762 152.319 152.689 152.05 152.3 151.623 151.844 153.188 153.112 
153.392 153.25 153.591 153.445 153.777 153.463 153.602 153.076 153.113 
152.556 152.636 153.819 153.673 154.047 153.842 154.083 153.973 154.147 
154.096 154.158 153.975 153.972 153.632 153.704 153.26 153.407 154.475 
154.43 154.818 154.582 154.747 154.453 154.579 154.384 154.603 154.428 
154.716 154.443 154.784 154.386 154.727 154.192 154.464 154.646 154.864 
155.191 155.191 155.291 155.085 155.186 154.976 155.339 155.162 155.705 
155.436 155.984 155.608 156.089 155.609 155.968 155.36 155.595 148.334 
147.514 148.371 149.175 146.663 147.499 148.351 149.171 149.915 145.843 
146.664 147.487 148.338 149.259 150.017 150.809 144.858 145.739 146.447 
147.375 148.301 149.334 150.408 151.126 151.879 143.867 144.671 145.271 
146.166 146.964 148.172 149.334 150.537 151.492 152.116 152.552 143.138 
143.785 144.374 145.055 145.748 146.762 147.842 149.206 150.295 151.378 
151.951 152.501 152.806 142.563 143.149 143.764 144.341 144.986 145.712 
146.595 147.711 148.759 149.979 150.764 151.654 152.155 152.758 153.286 
142.088 142.595 143.201 143.783 144.418 145.045 145.742 146.567 147.391 
148.467 149.316 150.393 151.131 152.004 152.662 153.341 153.92 141.876 
142.203 142.761 143.251 143.894 144.479 145.14 145.778 146.436 147.225 
147.976 148.991 149.85 150.912 151.705 152.581 153.158 153.817 154.155 
142.064 142.646 142.474 142.843 143.261 143.051 143.392 143.356 143.916 
143.9 143.642 143.987 143.947 144.552 144.557 145.196 144.622 144.307 
144.647 144.586 145.277 145.283 145.949 145.856 146.459 145.329 145.064 
145.383 145.281 145.954 146.011 146.721 146.652 147.235 147.134 147.863 
145.927 145.767 146.093 145.974 146.456 146.538 147.181 147.306 147.972 
147.969 148.751 148.745 149.717 146.518 146.397 146.751 146.608 146.913 
146.88 147.368 147.586 148.385 148.644 149.597 149.706 150.692 150.708 
151.634 147.071 147.004 147.371 147.241 147.526 147.342 147.767 147.826 
148.728 149.069 150.222 150.49 151.467 151.559 152.317 152.375 153.022 
147.388 147.453 147.84 147.825 148.206 148.038 148.52 148.433 149.346 
149.582 150.805 151.104 152.072 152.167 152.736 152.794 153.249 153.419 
153.892 147.564 148.183 147.963 148.174 149.227 148.827 149.102 148.671 
148.718 150.549 150.065 150.393 149.83 149.978 149.297 149.267 152.043 
151.476 151.873 151.273 151.548 150.815 150.99 150.125 150.29 154.021 
153.193 153.658 152.904 153.248 152.491 152.752 151.985 152.258 151.43 
151.709 156.368 155.417 155.846 154.916 155.212 154.298 154.436 153.647 
153.778 153.158 153.281 152.662 152.725 158.266 157.572 157.778 157.004 
157.098 156.237 156.153 155.266 155.136 154.437 154.355 153.821 153.707 
153.232 153.147 159.355 158.962 158.921 158.431 158.292 157.731 157.485 
156.767 156.446 155.702 155.458 154.811 154.623 154.056 153.938 153.506 
153.548 160.018 159.727 159.607 159.194 158.975 158.562 158.329 157.812 
157.471 156.822 156.455 155.835 155.558 154.995 154.834 154.346 154.377 
154.013 154.186 147.272 146.812 147.249 147.76 146.285 146.769 147.371 
147.924 148.748 145.833 146.323 147.037 147.601 148.51 149.103 150.066 
145.421 145.943 146.704 147.309 148.249 148.885 149.911 150.498 151.547 
144.948 145.51 146.256 146.929 147.866 148.58 149.674 150.368 151.599 
152.191 153.514 144.488 145.017 145.766 146.445 147.416 148.164 149.338 
150.135 151.559 152.331 153.891 154.483 155.942 144.114 144.593 145.34 
145.983 146.998 147.751 148.989 149.829 151.328 152.265 153.934 154.792 
156.321 156.878 158 143.768 144.237 144.939 145.563 146.538 147.329 
148.567 149.474 150.95 151.967 153.579 154.613 156.088 156.937 158.036 
158.539 159.199 143.414 143.875 144.53 145.126 146.014 146.803 147.968 
148.942 150.373 151.477 153.039 154.128 155.526 156.451 157.5 158.232 
158.957 159.419 159.866 147.035 146.7 146.798 146.599 146.21 146.421 
146.149 146.228 145.957 145.303 145.726 145.444 145.656 145.284 145.505 
145.344 144.199 144.651 144.419 144.791 144.483 144.764 144.551 144.91 
144.877 143.294 143.595 143.385 143.758 143.564 143.918 143.763 144.115 
144.033 144.437 144.42 142.481 142.749 142.48 142.814 142.615 142.992 
142.834 143.251 143.151 143.582 143.523 143.958 143.958 141.469 141.831 
141.528 141.908 141.665 142.037 141.805 142.224 142.078 142.588 142.54 
143.044 143.036 143.515 143.567 140.39 140.752 140.494 140.907 140.71 
141.087 140.864 141.209 141.04 141.489 141.459 142 142.026 142.558 
142.592 143.123 143.202 139.511 139.772 139.554 139.915 139.782 140.164 
140.014 140.336 140.189 140.547 140.512 140.974 141.006 141.516 141.546 
142.09 142.152 142.733 142.839 138.998 138.194 138.739 139.034 137.31 
137.945 138.334 138.878 139.265 136.418 137.101 137.578 138.176 138.584 
139.13 139.497 135.644 136.279 136.791 137.406 137.82 138.4 138.791 
139.342 139.711 135.1 135.603 136.114 136.667 137.125 137.663 138.122 
138.669 139.156 139.647 140.089 134.726 135.129 135.606 136.089 136.631 
137.115 137.673 138.143 138.705 139.171 139.681 140.108 140.562 134.393 
134.758 135.195 135.641 136.208 136.716 137.329 137.803 138.361 138.795 
139.284 139.704 140.16 140.59 141.064 134.137 134.457 134.918 135.291 
135.853 136.324 136.929 137.426 137.968 138.43 138.925 139.345 139.845 
140.239 140.773 141.167 141.711 134.044 134.304 134.835 135.129 135.73 
136.08 136.698 137.075 137.649 138.046 138.632 139.05 139.681 140.057 
140.685 141.007 141.603 141.913 142.46 134.246 135.025 134.751 135.079 
136.11 135.665 135.987 135.676 136.032 137.437 136.849 137.117 136.7 
137.033 136.677 136.993 138.95 138.235 138.419 137.889 138.209 137.77 
138.052 137.631 137.91 140.699 139.844 139.975 139.265 139.558 139.031 
139.384 138.844 139.127 138.615 138.94 142.736 141.761 141.906 140.975 
141.181 140.473 140.809 140.246 140.568 139.988 140.278 139.742 140.066 
145.056 143.997 144.244 143.127 143.307 142.291 142.495 141.72 141.946 
141.356 141.575 141.076 141.313 140.839 141.082 147.535 146.478 146.844 
145.668 145.932 144.686 144.877 143.701 143.848 142.868 143.005 142.302 
142.488 141.998 142.209 141.767 141.966 149.835 148.94 149.33 148.29 
148.587 147.404 147.629 146.347 146.512 145.189 145.283 144.08 144.187 
143.299 143.482 142.882 143.082 142.608 142.792 143.393 143.762 143.887 
144.564 144.349 144.429 145.273 145.283 146.138 145.351 145.328 146.405 
146.27 147.283 147.14 148.182 146.686 146.645 147.908 147.69 148.822 
148.549 149.73 149.503 150.723 147.978 148.058 149.369 149.261 150.443 
150.222 151.506 151.284 152.657 152.319 153.535 149.054 149.239 150.534 
150.586 151.808 151.774 153.143 153.096 154.539 154.322 155.502 155.053 
155.954 149.955 150.199 151.472 151.625 152.884 153.018 154.423 154.584 
155.993 155.996 157.035 156.76 157.433 157.078 157.696 150.636 150.966 
152.162 152.427 153.618 153.925 155.246 155.612 156.89 157.11 158.017 
157.938 158.487 158.257 158.748 158.542 159.069 151.061 151.473 152.55 
152.911 153.939 154.383 155.535 156.092 157.241 157.673 158.532 158.656 
159.237 159.146 159.666 159.497 159.993 159.771 160.105 134.497 133.78 
134.185 134.358 132.868 133.392 133.645 134.206 134.629 131.972 132.424 
132.691 133.388 133.942 134.622 135.124 131.579 131.729 131.932 132.442 
133.024 133.827 134.491 135.109 135.499 131.62 131.61 131.772 131.945 
132.422 132.991 133.734 134.432 135.015 135.465 135.869 131.761 131.755 
131.992 132.02 132.4 132.629 133.241 133.776 134.466 135.007 135.586 
135.998 136.617 132.121 132.029 132.404 132.373 132.793 132.792 133.239 
133.458 134.037 134.509 135.164 135.7 136.392 136.897 137.612 132.78 
132.586 133.007 132.918 133.391 133.297 133.703 133.646 134.096 134.267 
134.88 135.304 136.02 136.573 137.283 137.817 138.407 133.531 133.31 
133.656 133.547 133.964 133.897 134.293 134.193 134.597 134.557 135.101 
135.252 135.933 136.277 136.97 137.424 138.012 138.461 138.902 134.899 
134.778 135.006 135.498 135.046 135.041 135.437 135.664 136.191 135.502 
135.415 135.684 135.71 136.133 136.386 136.908 135.85 135.837 136.115 
136.048 136.366 136.426 136.884 137.113 137.609 136.258 136.205 136.661 
136.583 137.005 136.855 137.237 137.208 137.65 137.822 138.297 137.079 
136.849 137.436 137.301 137.922 137.704 138.129 137.812 138.145 138.013 
138.444 138.556 139.029 138.108 137.855 138.403 138.213 138.838 138.683 
139.181 138.845 139.115 138.733 139.044 138.887 139.334 139.364 139.812 
138.89 138.795 139.276 139.135 139.652 139.545 140.037 139.828 140.107 
139.73 139.92 139.616 139.954 139.828 140.247 140.202 140.592 139.355 
139.396 139.901 139.875 140.403 140.32 140.819 140.643 140.934 140.607 
140.71 140.399 140.597 140.455 140.816 140.734 141.099 141.002 141.336 
135.262 135.861 135.732 136.149 136.518 136.355 136.72 136.643 137.069 
137.175 136.98 137.235 137.138 137.482 137.491 137.908 137.861 137.633 
137.849 137.646 137.953 137.885 138.355 138.369 138.939 138.564 138.342 
138.618 138.353 138.703 138.504 139.059 138.977 139.721 139.669 140.539 
139.257 139.052 139.37 139.159 139.539 139.347 139.898 139.81 140.588 
140.582 141.532 141.542 142.594 139.965 139.746 140.07 139.899 140.306 
140.156 140.697 140.632 141.379 141.424 142.335 142.45 143.447 143.58 
144.554 140.691 140.454 140.794 140.629 141.107 140.954 141.56 141.453 
142.251 142.241 143.173 143.221 144.167 144.277 145.196 145.338 146.156 
141.407 141.173 141.525 141.384 141.914 141.802 142.439 142.35 143.132 
143.138 144.061 144.104 145.007 145.019 145.856 145.921 146.744 146.836 
147.57 147.108 146.796 146.898 146.726 146.205 146.415 146.256 146.465 
146.228 145.659 145.814 145.617 145.849 145.647 145.817 145.377 145.205 
145.374 145.178 145.266 145.002 145.152 144.81 144.866 144.34 144.577 
144.895 144.711 144.825 144.423 144.513 144.177 144.324 144.018 143.977 
143.535 143.798 144.16 143.912 144.145 143.615 143.781 143.381 143.688 
143.568 143.75 143.506 143.331 142.821 143.071 143.35 143.025 143.225 
142.659 142.817 142.395 142.795 142.776 143.243 143.173 143.254 142.759 
142.502 141.799 142.398 142.613 142.272 142.405 141.903 141.957 141.564 
141.844 141.826 142.357 142.364 142.712 142.298 142.264 141.544 141.336 
140.644 141.763 141.924 141.593 141.727 141.314 141.358 141.001 141.154 
141.06 141.451 141.428 141.808 141.49 141.632 141.043 140.989 140.374 
140.238 139.723 
POINT_DATA 1002
SCALARS Distance double
LOOKUP_TABLE default
134.419 133.784 133.432 134.272 133.303 135.363 134.444 133.556 135.517 
136.631 135.026 134.278 136.008 137.063 138.104 136.031 135.461 136.72 
137.569 138.648 139.729 137.331 136.887 137.698 138.151 139.12 140.403 
141.588 138.633 138.254 138.962 139.286 140.07 141.288 142.529 143.712 
139.819 139.489 140.29 140.864 141.733 142.824 143.838 144.88 146.09 
140.97 140.649 141.566 142.351 143.282 144.313 145.256 146.186 147.32 
148.541 142.076 141.724 142.736 143.582 144.362 145.1 145.995 147.11 
148.382 149.635 150.665 133 132.583 132.222 131.954 131.726 132.567 
131.785 131.615 132.297 133.027 131.761 131.543 132.343 133.044 133.921 
131.652 131.617 132.176 133.163 134.085 135.239 132.08 132.313 132.194 
133.099 134.382 135.493 136.79 133.126 133.323 132.999 133.406 134.587 
135.888 137.055 138.292 134.099 134.138 134.049 134.156 134.873 136.08 
137.326 138.531 139.651 134.845 134.819 134.876 134.93 135.327 136.231 
137.414 138.67 139.863 140.856 135.625 135.698 136.595 136.741 137.511 
135.758 137.814 138.36 136.957 135.998 138.871 139.57 138.308 137.515 
136.686 140.455 141.504 139.728 139.209 138.453 137.738 142.768 143.705 
141.68 140.923 140.267 139.499 138.954 144.932 145.495 143.933 142.878 
141.996 141.196 140.589 140.217 146.465 146.917 145.651 144.689 143.747 
142.839 142.138 141.713 141.33 147.757 148.259 146.901 146.017 145.273 
144.486 143.704 143.153 142.725 142.236 142.993 143.541 144.446 144.102 
145.02 145.929 144.64 145.614 146.51 147.358 145.31 146.192 147.051 
147.936 148.906 146.047 146.888 147.617 148.414 149.447 150.581 146.634 
147.5 148.31 148.993 149.862 150.964 152.057 147.372 147.992 148.781 
149.587 150.371 151.252 152.264 153.291 148.413 148.806 149.156 149.85 
150.796 151.636 152.463 153.465 154.536 149.263 149.781 149.815 150.089 
151.026 152.014 152.736 153.605 154.713 155.796 143.604 145.207 144.477 
146.673 146.032 145.244 148.216 147.496 146.622 145.719 150.061 149.371 
148.433 147.222 146.396 151.841 151.407 150.776 149.703 148.479 147.724 
153.274 153.054 152.728 152.235 151.343 150.316 149.409 154.622 154.508 
154.226 153.961 153.606 152.902 151.955 150.882 156.011 156.039 155.797 
155.449 155.172 154.728 153.933 152.964 151.895 157.138 157.47 158.257 
158.793 159.097 157.523 159.846 159.961 158.882 157.2 160.726 160.917 
159.935 158.538 156.794 161.475 161.558 160.788 159.635 158.093 156.324 
161.952 161.67 161.476 160.439 159.055 157.247 155.455 161.929 161.383 
161.691 160.778 159.539 157.848 155.916 154.354 161.334 160.877 161.195 
160.504 159.561 158.213 156.363 154.646 153.317 160.447 160.295 160.246 
159.796 159.235 158.316 156.76 154.989 153.541 152.223 156.286 157.457 
156.535 157.476 156.53 158.118 157.409 156.337 157.765 158.611 157.128 
155.9 157.573 158.153 159.63 156.322 155.415 157.068 157.891 159.394 
160.805 155.566 155.342 156.053 157.132 158.938 160.471 161.173 155.389 
155.438 155.446 156.16 157.816 159.539 160.331 160.791 155.175 155.107 
155.27 155.723 156.759 158.187 159.168 159.672 160.331 154.514 154.381 
154.766 155.331 156.112 157.108 158.103 158.763 159.37 160.036 149.209 
150.235 149.947 150.74 150.605 150.522 151.259 151.576 151.007 150.558 
152.198 152.51 151.95 151.752 151.352 152.977 152.863 153.079 153.267 
153.059 152.501 153.504 153.204 153.707 154.002 154.078 153.685 153.168 
154.319 153.941 154.329 154.228 154.232 154.187 154.066 153.897 155.036 
154.455 155.109 154.818 154.712 154.884 155.09 155.208 155.089 147.535 
148.371 146.64 147.489 145.864 149.197 146.644 145.027 148.332 150.252 
145.549 144.003 147.152 149.422 151.555 144.467 143.138 145.799 147.945 
150.638 152.288 143.758 142.526 144.903 146.546 149.038 151.214 152.358 
143.174 141.995 144.371 145.691 147.552 149.688 151.395 152.72 142.623 
141.651 143.814 145.08 146.461 148.163 150.1 151.903 153.368 142.341 