# vtk DataFile Version 4.0
vtk output
ASCII
DATASET POLYDATA
POINTS 1002 float
-83.6116 -80.7681 67.6832 -83.6369 -80.2799 66.4106 -83.1112 -80.0474 67.1842 
-83.0205 -80.6704 68.436 -82.451 -79.8385 67.9469 -83.5512 -81.397 69.1064 
-82.3545 -80.5709 69.2088 -81.7924 -79.635 68.7283 -82.985 -81.4095 69.8792 
-83.5785 -82.0633 70.7474 -81.8486 -80.4024 70.2222 -81.494 -79.3847 69.861 
-82.4533 -81.3501 70.8523 -83.1043 -82.1196 71.6867 -83.614 -82.9119 72.5809 
-81.7023 -80.188 71.5485 -81.5014 -79.0503 71.2666 -82.0823 -81.2398 72.1541 
-82.6627 -82.1719 72.8906 -83.1001 -83.1778 73.6287 -83.3977 -84.3056 74.3469 
-81.5751 -80.0414 72.7601 -81.2835 -78.7708 72.3949 -81.7606 -81.2708 73.4401 
-82.1974 -82.3524 74.1815 -82.5997 -83.4964 74.7707 -82.8098 -84.8104 75.3319 
-83.1047 -85.9535 76.0423 -81.1934 -80.0918 73.8403 -80.8837 -78.7836 73.3876 
-81.2823 -81.4991 74.5179 -81.5933 -82.7718 75.2641 -82.0871 -83.9133 75.8945 
-82.393 -85.1896 76.431 -82.6404 -86.4706 77.1046 -83.0562 -87.4212 77.9518 
-80.9255 -80.3789 75.2901 -80.7881 -79.1123 74.7899 -80.9242 -81.8003 75.8354 
-81.0944 -83.22 76.3687 -81.6151 -84.45 77.0163 -82.1348 -85.6066 77.7586 
-82.438 -86.9097 78.4814 -82.7202 -88.1205 79.2174 -83.0807 -89.0289 79.9395 
-80.9801 -80.8019 76.9849 -80.9834 -79.5829 76.4427 -80.9696 -82.115 77.4396 
-81.0627 -83.4938 77.7236 -81.4356 -84.8969 78.2056 -81.9666 -86.1968 79.1227 
-82.3555 -87.5192 80.0832 -82.5587 -88.9123 80.7475 -82.7356 -90.0881 81.2182 
-82.9616 -90.9565 81.632 -81.1377 -81.2416 78.4031 -81.1792 -80.069 77.8635 
-81.1966 -82.4546 78.8421 -81.3272 -83.6876 79.0653 -81.5525 -85.143 79.4035 
-81.8789 -86.7563 80.2766 -82.1982 -88.2816 81.4159 -82.4008 -89.7355 82.2134 
-82.5072 -91.0722 82.5721 -82.6161 -92.1116 82.772 -82.7888 -92.8843 82.993 
-83.309 -79.6839 65.694 -82.724 -79.3921 66.5353 -82.9414 -79.0297 65.0344 
-82.2882 -78.7196 65.886 -82.5858 -78.2199 64.4335 -82.0096 -79.0923 67.3242 
-81.9147 -77.7931 65.343 -82.3319 -77.1573 63.9982 -81.5764 -78.306 66.719 
-81.4129 -78.773 68.2266 -81.7402 -76.5003 65.0971 -82.2796 -75.9581 63.8649 
-81.294 -77.1716 66.356 -81.0854 -77.7885 67.9115 -81.2147 -78.3596 69.6974 
-81.8194 -75.169 65.1 -82.4326 -74.7918 63.9533 -81.3164 -75.7848 66.3324 
-80.9308 -76.552 67.8874 -80.7841 -77.2193 69.7937 -81.0084 -77.8707 71.3193 
-82.0559 -74.0565 65.2088 -82.7182 -73.7496 64.1664 -81.5835 -74.6176 66.493 
-81.1445 -75.4105 68.0588 -80.5267 -76.1601 69.9489 -80.2038 -76.7809 71.4947 
-80.5052 -77.5912 72.3795 -82.3977 -73.2056 65.5843 -83.1647 -73.0222 64.6415 
-81.8714 -73.7241 66.8824 -81.5443 -74.5508 68.4365 -80.8703 -75.3998 70.1306 
-79.959 -76.0395 71.6035 -79.7742 -76.7031 72.5065 -80.3202 -77.7287 73.3686 
-82.9438 -72.7373 66.3446 -83.8118 -72.7207 65.4294 -82.2321 -73.0508 67.6132 
-81.86 -73.7639 69.1053 -81.4825 -74.6934 70.5484 -80.6584 -75.4976 71.803 
-80.0076 -76.1649 72.7708 -80.1869 -76.994 73.6399 -80.7039 -78.1638 74.8659 
-83.6797 -72.6444 67.2627 -84.5453 -72.6869 66.332 -82.8486 -72.7317 68.4852 
-82.2692 -73.1555 69.865 -81.9793 -73.9596 71.109 -81.5763 -74.8748 72.1706 
-81.0006 -75.6982 73.175 -80.7926 -76.5286 74.1501 -80.9974 -77.5114 75.223 
-81.1646 -78.7108 76.5176 -84.7417 -72.7306 67.8163 -83.8889 -72.7193 69.0064 
-84.9435 -72.8435 69.4766 -84.1894 -72.8661 70.8052 -85.1823 -72.9675 71.2872 
-83.1024 -72.8476 70.3464 -84.5468 -73.1497 72.5235 -85.4768 -73.2205 73.0727 
-83.5207 -73.2071 71.951 -82.5859 -73.4031 71.5255 -84.8649 -73.7433 74.1631 
-85.7658 -73.876 74.6151 -83.9424 -73.8964 73.4584 -83.0308 -74.0318 72.8837 
-82.2907 -74.3038 72.5329 -85.1003 -74.6731 75.7425 -85.9735 -74.9148 76.0335 
-84.2326 -74.7462 75.218 -83.364 -74.8727 74.5606 -82.6235 -74.9496 74.0665 
-81.9315 -75.2432 73.6609 -85.3006 -75.7535 77.2433 -86.1175 -75.9892 77.5097 
-84.497 -75.6283 76.98 -83.6239 -75.6263 76.5601 -82.8094 -75.7012 76.0199 
-82.2514 -75.9136 75.4959 -81.6384 -76.2328 74.876 -85.5034 -76.8251 78.6663 
-86.2706 -76.9536 78.9414 -84.7908 -76.6724 78.4454 -84.0149 -76.5349 78.2164 
-83.1159 -76.5807 77.8073 -82.4348 -76.857 77.2927 -82.0514 -77.1461 76.7273 
-81.5856 -77.321 76.0079 -85.7214 -77.8579 80.0259 -86.4556 -77.9123 80.2219 
-85.0336 -77.8414 79.7835 -84.3951 -77.7958 79.5412 -83.6339 -77.8179 79.2013 
-82.8316 -78.0485 78.7473 -82.272 -78.3128 78.2827 -81.9078 -78.4006 77.7681 
-81.53 -78.4676 77.1468 -85.9367 -78.8924 81.2714 -86.6251 -78.9237 81.352 
-85.2325 -78.9745 81.0837 -84.6292 -79.1109 80.8254 -84.0526 -79.2303 80.5033 
-83.384 -79.3736 80.122 -82.7035 -79.5323 79.7228 -82.1392 -79.579 79.2999 
-81.7044 -79.5819 78.8208 -81.3855 -79.7409 78.3256 -81.2864 -81.3172 79.3417 
-81.5061 -81.036 79.8101 -81.5464 -82.7732 80.7692 -81.9413 -80.8859 80.3453 
-81.889 -82.6419 81.3895 -81.8809 -84.4848 82.3967 -82.5441 -80.8702 80.8401 
-82.4206 -82.552 81.98 -82.303 -84.5703 83.0705 -82.0184 -86.4337 84.1781 
-83.198 -80.8628 81.1992 -82.9912 -82.5248 82.3538 -82.7531 -84.5787 83.4998 
-82.4232 -86.5856 84.6965 -82.0677 -88.4971 85.7979 -83.823 -80.7952 81.4994 
-83.5824 -82.514 82.555 -83.232 -84.5328 83.707 -82.8197 -86.5869 85.0295 
-82.4655 -88.5113 86.2718 -82.2708 -90.7778 87.1829 -84.3706 -80.6268 81.8223 
-84.1811 -82.4055 82.7938 -83.8904 -84.4221 83.9152 -83.3858 -86.4894 85.304 
-82.9115 -88.4717 86.6635 -82.6406 -90.7525 87.6722 -82.4765 -93.5447 88.3894 
-84.9184 -80.36 82.1206 -84.6928 -82.1216 83.0802 -84.5214 -84.1666 84.1653 
-84.1264 -86.279 85.5296 -83.5368 -88.3864 86.8447 -83.0991 -90.754 87.8643 
-82.8321 -93.5692 88.6956 -82.5549 -96.5561 89.3775 -85.5928 -80.1338 82.3199 
-85.2304 -81.7829 83.284 -84.9708 -83.79 84.3132 -84.7113 -85.9169 85.6071 
-84.238 -88.1166 86.8319 -83.7092 -90.6142 87.7327 -83.335 -93.4577 88.6077 
-82.9985 -96.4257 89.493 -82.6116 -99.2326 90.1004 -86.326 -80.0454 82.3945 
-85.9109 -81.5353 83.3593 -85.4862 -83.411 84.3199 -85.1746 -85.4656 85.5186 
-84.8507 -87.6206 86.7381 -84.3977 -90.1354 87.5845 -83.9605 -93.043 88.3646 
-83.5798 -96.0184 89.354 -83.1466 -98.8302 90.1781 -82.6952 -101.375 90.5383 
-81.3474 -82.5788 79.856 -81.6115 -84.089 81.3293 -81.5087 -83.7919 80.2304 
-81.7058 -85.9744 83.2118 -81.6462 -85.5003 81.9419 -81.6656 -85.2277 80.6146 
-81.7079 -88.3202 85.1909 -81.5662 -87.9466 84.1907 -81.6751 -87.5254 82.7906 
-81.8104 -87.164 81.4103 -81.9578 -90.9749 86.7434 -81.7466 -90.9671 86.196 
-81.6841 -90.6026 85.1877 -81.7609 -89.9511 83.8016 -81.9694 -89.1525 82.5495 
-82.2601 -93.9288 88.0111 -82.1557 -94.1459 87.5849 -82.0431 -93.9119 86.9406 
-81.8596 -93.0798 85.8179 -81.861 -91.9263 84.5543 -82.1312 -90.7929 83.4407 
-82.2914 -97.124 89.17 -82.2173 -97.4089 88.7679 -82.2261 -97.2526 88.1729 
-82.0842 -96.4237 87.2405 -81.9104 -94.9622 86.0699 -82.0046 -93.4472 84.9595 
-82.2768 -92.2127 83.8528 -82.2269 -100.098 90.0143 -82.0116 -100.573 89.7172 
-81.981 -100.565 89.164 -82.0007 -100.031 88.3471 -81.9832 -98.6943 87.3724 
-82.0394 -96.7129 86.3472 -82.2091 -94.8624 85.243 -82.4051 -93.4246 84.0223 
-82.2635 -102.499 90.4303 -81.9442 -103.277 90.1746 -81.7697 -103.515 89.6923 
-81.7646 -103.32 88.9944 -81.9091 -102.57 88.28 -82.111 -100.806 87.5856 
-82.2828 -98.3354 86.6681 -82.4096 -96.0858 85.4554 -82.557 -94.3588 84.1675 
-82.4926 -104.11 90.6245 -82.1136 -105.349 90.3533 -82.3291 -106.92 90.4349 
-81.9783 -108.261 89.9885 -82.1794 -109.594 90.15 -81.8264 -106.097 89.8864 
-81.6845 -111.201 89.4397 -81.976 -111.929 89.6293 -81.6719 -109.003 89.2145 
-81.67 -106.205 89.1776 -81.2818 -113.775 88.659 -81.8648 -113.552 88.7181 
-81.3343 -111.958 88.416 -81.6327 -108.869 88.3668 -81.7978 -105.848 88.5229 
-81.2531 -114.979 87.721 -82.1809 -113.957 87.689 -81.0677 -114.147 87.6787 
-81.5803 -111.224 87.6791 -82.0311 -107.983 87.977 -82.1419 -104.695 88.1467 
-81.888 -114.47 86.7298 -82.927 -113.305 86.749 -81.292 -114.497 86.8688 
-81.6048 -112.457 87.0943 -82.218 -109.329 87.467 -82.4632 -106.051 87.8538 
-82.4103 -102.231 87.6363 -82.8038 -113.126 85.8224 -83.6934 -112.113 85.9898 
-81.9456 -113.349 85.898 -81.7957 -112.109 86.2714 -82.2524 -109.559 86.808 
-82.6111 -106.456 87.3072 -82.6475 -102.884 87.3417 -82.5337 -99.1504 86.6066 
-83.5358 -111.323 85.3712 -84.2371 -110.322 85.6183 -82.6726 -111.567 85.2769 
-82.1763 -110.686 85.5248 -82.3079 -108.674 86.0942 -82.6655 -105.97 86.6907 
-82.8355 -102.818 86.8727 -82.7886 -99.4709 86.3348 -82.653 -96.5525 85.2757 
-84.0667 -108.755 85.4354 -84.6683 -107.793 85.5988 -83.332 -109.109 85.3247 
-82.7688 -108.531 85.4035 -82.6524 -106.966 85.7614 -82.8732 -104.73 86.2525 
-83.0985 -102.136 86.4763 -83.1346 -99.3664 86.0705 -83.0074 -96.7591 85.1056 
-82.8605 -94.609 83.989 -83.081 -101.769 90.7185 -82.8478 -104.651 90.7416 
-83.5306 -102.085 90.7531 -83.3536 -105.04 90.7335 -83.9874 -102.096 90.493 
-82.6999 -107.453 90.543 -83.9629 -104.803 90.5314 -84.4042 -101.351 89.9831 
-83.3419 -107.604 90.5457 -82.6793 -109.751 90.263 -84.4646 -103.475 90.1406 
-84.8847 -99.9326 89.4607 -84.0506 -106.908 90.3686 -83.4658 -109.451 90.1644 
-82.7136 -111.463 89.6088 -84.8841 -101.551 89.5678 -85.6019 -98.3278 89.0082 
-84.4432 -105.121 89.8773 -84.1062 -108.474 89.8185 -83.5898 -110.77 89.3793 
-82.8586 -112.485 88.6003 -85.5318 -99.6068 88.9029 -86.4458 -96.5054 88.4379 
-84.7327 -102.861 89.1215 -84.372 -106.454 89.2035 -84.1612 -109.506 89.0351 
-83.7475 -111.341 88.4674 -83.2697 -112.514 87.6279 -86.3863 -97.3789 88.1792 
-87.132 -94.332 87.5359 -85.4327 -100.483 88.45 -84.7763 -103.795 88.5871 
-84.5696 -107.061 88.6443 -84.3494 -109.437 88.3363 -84.0232 -110.811 87.6253 
-83.8389 -111.683 86.7691 -87.1454 -94.8511 87.2384 -87.644 -92.1897 86.3715 
-86.4245 -97.7667 87.8217 -85.6776 -100.877 88.1564 -85.2714 -103.993 88.3524 
-85.0273 -106.558 88.2253 -84.6432 -108.298 87.6439 -84.3815 -109.475 86.8502 
-84.3484 -110.21 86.1257 -87.7704 -92.5706 86.107 -88.1852 -90.4578 85.2454 
-87.3114 -94.9949 86.9104 -86.7309 -97.7689 87.5358 -86.2215 -100.759 87.9586 
[...]
CELL_DATA 2000
SCALARS Distance double
LOOKUP_TABLE default
132.882 132.791 133.172 133.857 132.675 133.083 133.837 134.23 135.017 
132.756 133.055 133.899 134.272 135.162 135.515 136.411 133.184 133.339 
134.229 134.49 135.474 135.774 136.756 137.04 138.004 133.631 133.843 
134.721 134.952 135.949 136.211 137.229 137.475 138.466 138.711 139.7 
133.963 134.235 135.154 135.428 136.423 136.713 137.746 138 139.011 
139.232 140.258 140.481 141.528 134.633 134.732 135.778 135.929 136.99 
137.21 138.318 138.564 139.691 139.884 141.025 141.179 142.341 142.467 
143.587 135.777 135.707 136.82 136.793 137.884 137.93 139.082 139.25 
140.521 140.716 142.039 142.155 143.454 143.486 144.692 144.666 145.734 
136.993 136.932 137.983 137.941 138.964 138.935 140.013 140.115 141.398 
141.636 143.058 143.266 144.637 144.709 145.922 145.873 146.913 146.801 
147.714 132.271 131.328 131.924 132.154 130.342 130.954 131.155 131.759 
131.987 129.317 129.932 130.12 130.731 130.957 131.609 131.998 128.377 
128.908 129.088 129.684 129.947 130.608 131.057 131.795 132.399 127.684 
128.062 128.239 128.734 129.05 129.667 130.166 130.895 131.494 132.26 
132.834 127.252 127.491 127.707 128.076 128.488 128.968 129.507 130.09 
130.624 131.3 131.779 132.547 133.073 127.159 127.215 127.491 127.743 
128.287 128.662 129.301 129.667 130.176 130.552 130.967 131.518 132.066 
132.853 133.645 127.571 127.384 127.698 127.749 128.353 128.637 129.386 
129.674 130.274 130.41 130.86 131.041 131.643 132.117 133.018 133.76 
134.818 128.392 128.058 128.38 128.208 128.76 128.854 129.593 129.841 
130.543 130.687 131.257 131.293 131.947 132.116 133.026 133.454 134.512 
135.135 136.156 129.004 130.027 129.332 129.042 131.186 130.459 130.222 
129.5 129.39 132.449 131.702 131.513 130.76 130.651 130.003 130.112 
133.816 133.045 132.915 132.131 132.041 131.315 131.368 130.813 130.996 
135.282 134.492 134.441 133.636 133.605 132.794 132.828 132.127 132.269 
131.693 131.808 136.795 136.014 136.015 135.232 135.255 134.432 134.466 
133.671 133.811 133.109 133.299 132.575 132.678 138.277 137.539 137.567 
136.824 136.888 136.102 136.152 135.339 135.465 134.732 134.982 134.252 
134.479 133.629 133.808 139.7 139.012 139.082 138.376 138.495 137.751 
137.872 137.06 137.205 136.423 136.669 135.962 136.238 135.485 135.711 
134.883 135.16 141.061 140.43 140.543 139.883 140.047 139.367 139.566 
138.816 139.02 138.221 138.458 137.687 137.945 137.202 137.433 136.694 
136.952 136.245 136.618 137.677 137.944 138.295 139.377 138.403 138.656 
139.77 140.14 141.376 138.971 139.199 140.335 140.654 141.958 142.311 
143.612 139.529 139.785 140.915 141.237 142.502 142.904 144.213 144.569 
145.824 140.055 140.328 141.428 141.76 142.952 143.373 144.644 145.083 
146.337 146.723 148.009 140.525 140.811 141.875 142.22 143.389 143.791 
145.051 145.484 146.766 147.18 148.485 148.928 150.351 140.939 141.218 
142.229 142.6 143.752 144.197 145.459 145.912 147.184 147.606 148.891 
149.357 150.758 151.31 152.807 141.376 141.608 142.554 142.896 143.977 
144.462 145.679 146.231 147.458 147.958 149.159 149.671 150.989 151.611 
153.06 153.704 155.106 141.842 142.044 142.93 143.209 144.188 144.615 
145.736 146.315 147.499 148.09 149.239 149.809 151.034 151.703 153.087 
153.822 155.198 155.837 157.021 137.933 139.655 138.83 138.94 141.594 
140.636 140.726 139.856 139.921 143.802 142.719 142.788 141.753 141.853 
140.892 141.013 146.13 145.065 145.283 144.089 144.312 143.11 143.373 
142.237 142.52 148.501 147.52 148.034 146.862 147.317 145.96 146.326 
144.94 145.278 143.993 144.293 150.992 150.059 150.801 149.756 150.408 
149.141 149.521 148.063 148.246 146.846 147.018 145.75 145.886 153.533 
152.676 153.501 152.557 153.271 152.166 152.561 151.182 151.211 149.732 
149.672 148.358 148.361 147.158 147.122 155.837 155.161 155.974 155.169 
155.839 154.883 155.319 154.1 154.21 152.698 152.583 151.035 150.913 
149.553 149.446 148.219 148.059 157.69 157.239 157.998 157.409 158 
157.235 157.646 156.685 156.938 155.68 155.723 154.136 153.981 152.306 
152.074 150.574 150.332 149.044 148.812 158.809 160.499 159.529 159.171 
162.111 161.201 160.834 159.774 159.193 163.528 162.772 162.384 161.355 
160.699 159.598 158.816 164.487 164.053 163.735 162.82 162.093 161.001 
160.196 159.113 158.194 164.742 164.725 164.547 163.99 163.282 162.301 
161.443 160.432 159.554 158.402 157.186 164.327 164.606 164.441 164.398 
163.765 163.205 162.262 161.482 160.506 159.59 158.33 157.08 155.462 
163.547 163.913 163.611 163.859 163.22 163.168 162.19 161.842 160.701 
160.144 158.773 157.875 156.164 155.001 153.289 162.527 162.957 162.535 
162.822 162.106 162.257 161.288 161.272 160.114 159.888 158.51 157.95 
156.288 155.398 153.667 152.72 151.263 161.177 161.735 161.254 161.624 
160.866 161.062 160.104 160.18 159.097 159.045 157.81 157.499 156.037 
155.383 153.796 152.967 151.522 150.764 149.6 158.848 159.384 159.614 
160.545 159.737 160.135 161.113 161.293 162.156 159.605 160.353 161.441 
161.805 162.638 162.809 163.518 158.842 159.917 161.122 161.899 162.763 
163.139 163.719 163.927 164.369 157.796 158.891 159.996 161.152 162.117 
162.952 163.546 163.939 164.235 164.457 164.593 156.757 157.739 158.56 
159.722 160.62 161.859 162.619 163.472 163.806 164.176 164.203 164.396 
164.267 155.499 156.548 157.193 158.224 158.92 160.154 160.949 162.174 
162.671 163.45 163.465 163.848 163.64 163.865 163.558 153.909 155.066 
155.692 156.77 157.368 158.487 159.189 160.415 160.994 162.023 162.128 
162.791 162.54 163.006 162.661 162.988 162.546 152.352 153.407 154.011 
155.137 155.715 156.866 157.481 158.683 159.245 160.329 160.535 161.305 
161.11 161.682 161.331 161.845 161.422 161.797 161.219 142.36 143.474 
143.104 143.472 144.58 144.26 144.711 144.293 144.731 145.682 145.413 
145.993 145.61 146.155 145.694 146.273 146.816 146.589 147.327 146.999 
147.703 147.243 147.902 147.394 148.041 147.936 147.783 148.652 148.421 
149.274 148.884 149.634 149.114 149.781 149.217 149.824 148.969 148.913 
149.889 149.781 150.742 150.465 151.295 150.854 151.595 151.041 151.739 
151.084 151.726 149.926 149.952 151.061 151.055 152.16 151.955 152.884 
152.5 153.36 152.895 153.775 153.172 153.987 153.194 153.887 150.817 
150.922 152.151 152.264 153.524 153.427 154.48 154.142 155.101 154.703 
155.736 155.273 156.246 155.562 156.316 155.433 156.008 151.603 151.788 
153.038 153.295 154.598 154.714 155.824 155.688 156.678 156.43 157.499 
157.204 158.236 157.741 158.495 157.754 158.245 157.383 157.755 141.89 
141.474 142.104 142.945 140.996 141.645 142.474 143.144 143.993 140.507 
141.156 141.984 142.653 143.508 144.178 145.033 140.001 140.663 141.508 
142.18 143.043 143.701 144.56 145.223 146.097 139.458 140.117 140.945 
141.675 142.549 143.246 144.108 144.765 145.625 146.296 147.167 138.973 
139.55 140.307 141.043 141.913 142.689 143.567 144.29 145.161 145.839 
146.69 147.347 148.172 138.681 139.126 139.828 140.432 141.258 142.003 
142.87 143.659 144.545 145.325 146.212 146.898 147.695 148.312 149.083 
138.563 138.93 139.619 140.071 140.831 141.413 142.199 142.911 143.742 
144.587 145.502 146.347 147.205 147.866 148.582 149.182 149.919 138.498 
138.853 139.532 139.93 140.643 141.091 141.791 142.317 143.032 143.745 
144.593 145.504 146.427 147.281 148.061 148.7 149.355 149.975 150.687 
138.668 139.279 139.22 139.728 139.927 139.868 140.424 140.343 140.86 
140.624 140.556 141.169 141.095 141.657 141.502 141.985 141.423 141.313 
141.986 141.91 142.538 142.359 142.843 142.624 143.145 142.378 142.194 
142.856 142.757 143.403 143.26 143.769 143.531 144.054 143.887 144.622 
143.393 143.188 143.748 143.6 144.146 144.048 144.563 144.426 144.999 
144.865 145.643 145.567 146.46 144.206 144.089 144.542 144.406 144.858 
144.747 145.29 145.204 145.905 145.836 146.701 146.642 147.542 147.435 
148.183 144.706 144.69 145.081 145.05 145.54 145.485 146.16 146.077 
146.944 146.858 147.831 147.742 148.655 148.513 149.232 149.007 149.542 
145.058 145.059 145.461 145.5 146.118 146.19 147.055 147.08 148.066 
148.012 148.989 148.893 149.759 149.609 150.302 150.066 150.625 150.325 
150.851 145.404 146.42 145.844 145.901 148.084 147.229 147.351 146.598 
146.778 149.911 149.125 149.336 148.416 148.643 147.757 147.962 151.441 
150.885 151.174 150.411 150.582 149.734 149.885 148.999 149.077 153.054 
152.466 152.902 152.164 152.322 151.503 151.535 150.765 150.79 149.989 
149.953 155.025 154.352 154.991 154.125 154.465 153.397 153.46 152.416 
152.417 151.561 151.553 150.747 150.649 156.978 156.409 157.123 156.376 
156.898 155.852 156.088 154.764 154.785 153.482 153.451 152.379 152.287 
151.364 151.167 158.711 158.251 158.911 158.352 158.874 158.167 158.515 
157.484 157.546 156.173 156.012 154.594 154.374 153.141 152.879 151.83 
151.522 160.244 159.868 160.467 159.971 160.412 159.875 160.222 159.569 
159.688 158.696 158.461 157.15 156.732 155.374 154.97 153.71 153.326 
152.189 151.817 145.296 145.31 145.601 146.284 145.162 145.632 146.492 
146.853 147.844 144.906 145.488 146.499 147.033 148.07 148.52 149.546 
144.663 145.264 146.306 146.959 147.995 148.573 149.505 150.028 150.949 
144.331 144.986 145.958 146.678 147.668 148.333 149.231 149.825 150.745 
151.344 152.423 143.838 144.536 145.451 146.219 147.186 147.916 148.868 
149.518 150.527 151.159 152.333 152.997 154.3 143.389 144.018 144.929 
145.664 146.652 147.407 148.434 149.166 150.265 150.976 152.185 152.909 
154.218 154.945 156.239 143.096 143.636 144.523 145.187 146.17 146.9 
147.932 148.712 149.809 150.632 151.8 152.642 153.882 154.734 156.018 
156.798 157.998 142.834 143.346 144.152 144.789 145.706 146.424 147.392 
148.17 149.192 150.051 151.152 152.079 153.263 154.225 155.489 156.432 
157.69 158.478 159.569 144.849 144.007 144.562 144.718 142.833 143.54 
143.666 144.289 144.411 141.545 142.273 142.437 143.122 143.215 143.881 
144.051 140.312 140.991 141.133 141.851 142.002 142.681 142.839 143.542 
143.797 139.074 139.739 139.791 140.507 140.639 141.417 141.613 142.355 
142.554 143.291 143.503 137.792 138.467 138.488 139.147 139.193 139.969 
140.149 141.014 141.219 142.016 142.153 142.901 143.031 136.486 137.171 
137.222 137.864 137.875 138.544 138.645 139.473 139.693 140.575 140.758 
141.539 141.665 142.408 142.586 135.252 135.883 135.93 136.584 136.588 
137.236 137.258 137.996 138.151 139.021 139.263 140.119 140.335 141.099 
141.316 142.06 142.323 134.226 134.737 134.761 135.323 135.311 135.922 
135.913 136.6 136.685 137.498 137.717 138.613 138.898 139.763 140.052 
140.841 141.126 141.865 142.126 133.734 133.07 133.692 134.209 132.26 
132.983 133.536 134.14 134.68 131.537 132.224 132.904 133.493 134.053 
134.635 135.257 131.22 131.689 132.463 132.992 133.655 134.128 134.767 
135.314 136.054 131.339 131.573 132.291 132.712 133.476 133.891 134.582 
134.985 135.729 136.251 137.101 131.654 131.786 132.422 132.694 133.476 
133.838 134.608 134.937 135.683 136.071 136.926 137.434 138.335 131.966 
132.108 132.759 132.941 133.702 133.966 134.775 135.056 135.843 136.141 
136.989 137.386 138.313 138.754 139.606 132.286 132.43 133.111 133.298 
134.039 134.261 135.036 135.286 136.077 136.353 137.191 137.53 138.431 
138.818 139.684 140.032 140.763 132.681 132.786 133.447 133.628 134.344 
134.569 135.3 135.545 136.294 136.576 137.373 137.713 138.551 138.931 
139.741 140.107 140.824 141.132 141.757 133.138 134.131 133.702 133.907 
135.299 134.786 134.997 134.548 134.804 136.684 136.07 136.295 135.736 
135.98 135.498 135.769 138.259 137.569 137.804 137.144 137.378 136.772 
137.019 136.498 136.777 139.959 139.226 139.465 138.734 138.951 138.255 
138.472 137.842 138.103 137.56 137.874 141.79 141.002 141.272 140.467 
140.683 139.897 140.103 139.374 139.606 138.966 139.26 138.712 139.049 
143.788 142.931 143.234 142.363 142.601 141.725 141.945 141.108 141.33 
140.557 140.791 140.134 140.417 139.88 140.192 145.852 144.986 145.286 
144.392 144.631 143.711 143.921 143.03 143.248 142.385 142.57 141.749 
141.93 141.256 141.499 140.973 141.238 147.805 147.01 147.312 146.454 
146.685 145.756 145.911 144.995 145.157 144.3 144.457 143.59 143.695 
142.856 142.993 142.31 142.522 141.976 142.186 142.875 143.308 143.451 
144.216 143.877 143.98 144.854 144.947 145.801 144.649 144.695 145.63 
145.685 146.621 146.643 147.517 145.444 145.53 146.506 146.56 147.552 
147.557 148.512 148.449 149.346 146.192 146.322 147.384 147.481 148.596 
148.614 149.71 149.602 150.62 150.427 151.373 147.051 147.171 148.394 
148.478 149.793 149.815 151.143 151.02 152.238 151.945 153.022 152.642 
153.606 147.911 148.122 149.494 149.646 151.123 151.186 152.675 152.609 
153.994 153.745 154.954 154.522 155.572 155.033 155.956 148.539 148.908 
150.32 150.696 152.236 152.512 154.031 154.131 155.517 155.445 156.676 
156.433 157.518 157.086 158.029 157.435 158.227 148.977 149.41 150.791 
151.333 152.891 153.42 154.975 155.312 156.682 156.788 157.966 157.927 
158.982 158.815 159.742 159.387 160.14 159.574 160.127 128.311 127.51 
127.915 128.024 127.112 127.276 127.382 127.726 127.908 127.201 127.116 
127.191 127.294 127.483 127.753 128.057 127.598 127.355 127.368 127.29 
127.425 127.516 127.789 128.059 128.505 128.249 127.848 127.811 127.574 
127.639 127.569 127.726 127.856 128.197 128.576 129.126 129.176 128.639 
128.618 128.191 128.268 127.953 128.029 127.873 128.06 128.255 128.753 
129.245 129.924 130.207 129.655 129.676 129.176 129.319 128.839 128.939 
128.444 128.53 128.302 128.726 128.982 129.77 130.22 131.017 131.197 
130.688 130.719 130.259 130.414 129.975 130.114 129.558 129.621 129.086 
129.393 129.259 130.026 130.282 131.204 131.488 132.227 132.146 131.669 
131.704 131.264 131.382 130.993 131.122 130.683 130.767 130.26 130.479 
130.145 130.734 130.749 131.588 131.788 132.546 132.701 133.267 128.854 
128.557 128.99 129.593 128.383 128.733 129.344 129.77 130.403 128.471 
128.643 129.225 129.576 130.245 130.647 131.332 128.939 128.908 129.448 
129.592 130.259 130.561 131.276 131.646 132.352 129.646 129.53 130.063 
130.011 130.63 130.733 131.442 131.683 132.41 132.71 133.396 130.447 
130.287 130.807 130.698 131.244 131.228 131.863 131.974 132.685 132.88 
133.585 133.801 134.467 131.412 131.138 131.603 131.431 131.93 131.852 
132.412 132.44 133.086 133.22 133.912 134.082 134.748 134.917 135.557 
132.484 132.14 132.545 132.282 132.78 132.6 133.157 133.046 133.636 
133.648 134.298 134.427 135.089 135.241 135.868 136.016 136.617 133.467 
133.158 133.527 133.258 133.757 133.543 134.109 133.902 134.443 134.287 
134.855 134.854 135.49 135.597 136.23 136.35 136.941 137.061 137.617 
129.276 129.993 129.813 130.235 130.78 130.547 130.953 130.822 131.34 
131.715 131.406 131.812 131.592 132.119 131.998 132.591 132.734 132.411 
132.827 132.538 133.05 132.851 133.456 133.317 133.946 133.735 133.43 
133.845 133.566 134.033 133.806 134.374 134.222 134.866 134.729 135.389 
134.764 134.436 134.86 134.574 135.03 134.768 135.288 135.12 135.77 
135.667 136.369 136.227 136.901 135.836 135.492 135.927 135.623 136.111 
135.804 136.318 136.063 136.694 136.569 137.308 137.211 137.916 137.747 
138.379 136.874 136.55 136.956 136.677 137.152 136.89 137.405 137.141 
137.728 137.537 138.235 138.132 138.846 138.727 139.363 139.184 139.77 
137.848 137.547 137.907 137.639 138.046 137.837 138.319 138.149 138.711 
138.555 139.186 139.057 139.717 139.608 140.238 140.112 140.699 140.536 
141.098 144.741 144.327 144.363 143.916 143.71 143.815 143.252 143.317 
142.701 142.819 143.02 142.4 142.527 141.882 141.99 141.395 141.782 
142.019 141.424 141.604 140.981 141.132 140.566 140.721 140.192 140.836 
141.012 140.447 140.623 139.999 140.176 139.575 139.814 139.279 139.503 
138.958 140.057 140.159 139.599 139.711 139.058 139.17 138.497 138.724 
138.158 138.473 137.945 138.205 137.647 139.362 139.425 138.84 138.913 
138.243 138.277 137.574 137.682 137.12 137.368 136.902 137.163 136.648 
136.871 136.331 138.711 138.735 138.116 138.158 137.484 137.496 136.795 
136.839 136.271 136.444 136.008 136.218 135.739 135.909 135.379 135.579 
135.103 138.122 138.105 137.48 137.467 136.808 136.783 136.099 136.098 
135.492 135.621 135.139 135.353 134.864 135.04 134.499 134.669 134.196 
134.43 134.069 
POINT_DATA 1002
SCALARS Distance double
LOOKUP_TABLE default
133.519 132.606 132.525 133.475 132.376 134.58 133.402 132.249 134.636 
135.839 133.517 132.506 134.781 136.073 137.325 133.998 133.054 135.175 
136.471 137.728 138.965 134.481 133.361 135.687 136.99 138.23 139.447 
140.693 134.866 133.666 136.12 137.468 138.785 140.023 141.309 142.587 
135.669 134.569 136.808 138.047 139.443 140.849 142.208 143.51 144.667 
136.889 135.877 137.91 138.94 140.263 141.859 143.414 144.745 145.825 
146.715 138.035 137.072 139.028 139.958 141.145 142.789 144.529 145.974 
147.053 147.867 148.564 131.686 131.565 130.736 130.564 129.731 131.34 
129.505 128.721 130.294 131.243 128.505 127.912 129.259 130.293 131.642 
127.775 127.371 128.444 129.456 130.758 132.089 127.335 127.058 128.016 
129.013 130.064 131.059 132.193 127.257 127.169 127.886 128.965 129.933 
130.54 131.305 132.702 127.733 127.817 128.113 129.069 130.133 130.763 
131.28 132.345 134.01 128.63 128.736 128.785 129.389 130.329 131.173 
131.838 132.725 134.008 135.522 129.652 129.719 130.714 130.95 131.899 
130.002 132.262 133.191 131.333 130.622 133.686 134.576 132.803 131.992 
131.491 135.217 136.058 134.425 133.591 132.903 132.418 136.773 137.558 
136.06 135.286 134.526 134.011 133.472 138.289 138.987 137.643 136.964 
136.211 135.663 135.276 134.691 139.763 140.352 139.198 138.648 138.008 
137.398 136.949 136.49 135.953 141.177 141.657 140.691 140.257 139.795 
139.26 138.718 138.17 137.642 137.265 138.697 138.928 140.51 139.401 
140.985 142.637 140.028 141.579 143.315 144.89 140.613 142.109 143.824 
145.507 147.082 141.114 142.562 144.191 145.923 147.585 149.366 141.528 
142.986 144.625 146.345 148.037 149.837 151.859 141.873 143.289 144.986 
146.773 148.441 150.202 152.243 154.328 142.263 143.53 145.115 146.941 
148.668 150.378 152.396 154.55 156.448 142.696 143.836 145.203 146.894 
148.668 150.388 152.345 154.529 156.521 158.1 139.761 141.639 140.78 
143.885 142.843 141.94 146.425 145.546 144.554 143.631 149.06 148.624 
147.789 146.644 145.566 151.759 151.592 151.018 149.764 148.336 147.16 
154.423 154.332 153.899 152.774 151.103 149.584 148.346 156.745 156.766 
156.431 155.638 154.228 152.427 150.736 149.262 158.534 158.726 158.519 
157.998 157.187 155.765 153.763 151.73 150.008 159.8 160.26 161.445 
161.908 162.986 160.344 163.432 164.172 161.823 159.942 164.566 164.732 
163.218 161.251 159.409 164.883 164.618 164.194 162.444 160.646 158.619 
164.321 164.047 164.119 162.986 161.368 159.516 156.869 163.376 163.221 
163.139 162.407 161.187 159.562 157.254 154.381 162.277 162.088 161.955 
161.231 160.236 158.933 157.051 154.57 152.055 160.846 160.602 160.646 
160.008 159.088 157.984 156.529 154.542 152.283 150.232 158.654 160.399 
159.109 160.907 159.208 162.045 160.955 158.666 162.472 163.404 160.142 
157.73 162.28 163.547 164.214 158.813 156.856 161.046 163.036 164.064 
164.435 157.559 155.868 159.321 161.507 163.323 164.037 164.143 156.229 
154.413 157.805 159.649 161.702 162.996 163.37 163.412 154.569 152.755 
156.291 158.023 159.91 161.382 162.017 162.243 162.336 152.907 151.401 
154.566 156.301 158.133 159.708 160.529 160.797 160.964 160.975 142.731 
143.889 143.806 145.09 144.846 145.159 146.307 145.897 146.587 146.726 
147.571 146.986 148.109 148.421 148.566 148.8 148.03 149.593 150.129 
150.361 150.423 149.918 148.968 150.959 151.685 152.085 152.353 152.454 
150.978 149.839 152.298 153.236 153.748 154.264 154.723 154.796 151.958 
150.663 153.528 154.762 155.46 156.113 156.847 157.181 156.983 141.285 
142.3 140.841 141.797 140.354 143.329 141.322 139.849 142.837 144.361 
140.821 139.336 142.387 143.91 145.415 140.198 138.844 141.821 143.445 
144.975 146.492 139.612 138.468 141.116 142.808 144.456 146.058 147.526 
139.302 138.276 140.574 142.089 143.719 145.468 147.117 148.449 139.214 
138.2 140.343 141.582 142.933 144.581 146.463 148.04 149.264 139.148 