# vtk DataFile Version 4.0
vtk output
ASCII
DATASET POLYDATA
POINTS 1002 float
-84.6633 -85.1915 75.1051 -84.6445 -84.6326 74.0008 -84.363 -84.3101 74.7713 
-84.3975 -84.9109 75.9981 -84.1721 -83.9001 75.7456 -84.7054 -85.8255 76.3975 
-84.2672 -84.5725 77.0884 -84.0102 -83.6014 76.7522 -84.465 -85.6368 77.3897 
-84.8157 -86.5542 77.9095 -84.0883 -84.433 78.1666 -83.6444 -83.6167 77.6656 
-84.2843 -85.4785 78.5615 -84.5343 -86.5315 78.9736 -84.9017 -87.4153 79.5742 
-83.5626 -84.6184 79.0599 -83.0953 -83.7758 78.6371 -83.9283 -85.5455 79.6536 
-84.1903 -86.6063 80.1583 -84.5015 -87.6149 80.677 -84.7977 -88.5171 81.2574 
-82.9282 -84.8249 79.9512 -82.715 -83.8263 79.7732 -83.2687 -85.8244 80.4575 
-83.693 -86.842 81.1505 -84.0636 -87.8847 81.7888 -84.3536 -88.9028 82.3772 
-84.5447 -89.9078 82.9 -82.6077 -84.8974 81.0611 -82.5135 -83.9134 80.9212 
-82.7078 -86.0547 81.3116 -83.0921 -87.1987 81.9045 -83.5826 -88.2357 82.6883 
-83.9133 -89.2917 83.3984 -84.0997 -90.4256 83.9627 -84.2166 -91.4886 84.3892 
-82.4221 -85.0924 82.2561 -82.2152 -84.223 81.993 -82.505 -86.2265 82.5172 
-82.7062 -87.509 82.9202 -83.0786 -88.6691 83.5585 -83.3758 -89.7531 84.2655 
-83.5278 -90.9855 84.8455 -83.6495 -92.2173 85.2716 -83.7647 -93.1827 85.5798 
-82.1074 -85.4963 83.3167 -81.868 -84.6277 83.0232 -82.3623 -86.5374 83.752 
-82.5749 -87.7544 84.2229 -82.7393 -89.0318 84.6759 -82.8326 -90.2983 85.1441 
-82.8622 -91.6479 85.6064 -82.9412 -93.0331 86.0096 -83.1064 -94.1681 86.3422 
-83.2592 -94.982 86.5905 -81.7992 -85.9251 84.2359 -81.6946 -84.9684 84.0101 
-82.0931 -86.9815 84.7097 -82.4006 -88.0803 85.3028 -82.5133 -89.3144 85.7656 
-82.4554 -90.7963 86.0616 -82.368 -92.3914 86.3528 -82.352 -93.8903 86.7046 
-82.4805 -95.1513 87.0778 -82.6956 -96.115 87.4083 -82.8537 -96.8869 87.6299 
-84.4491 -83.8645 73.3945 -84.1538 -83.4411 74.2302 -84.2878 -82.9809 72.8551 
-83.8422 -82.5886 73.6752 -84.1024 -82.091 72.4348 -83.8427 -83.0569 75.1846 
-83.4189 -81.8104 73.1856 -83.8388 -81.1869 72.1437 -83.2668 -82.3739 74.53 
-83.4753 -82.8862 76.1342 -83.0799 -80.8534 72.9 -83.6334 -80.1372 72.0115 
-82.7239 -81.6307 74.0163 -82.8185 -82.2393 75.5964 -83.0468 -82.8856 77.2244 
-82.9898 -79.6345 72.8844 -83.7037 -79.1089 72.1169 -82.506 -80.4613 73.8304 
-82.4848 -81.3225 75.3547 -82.6116 -82.0282 77.0775 -82.6876 -82.8506 78.5336 
-83.1755 -78.6051 73.1753 -84.1044 -78.4475 72.4998 -82.5004 -79.1078 74.0064 
-82.4118 -80.0564 75.3832 -82.4709 -80.9954 77.0757 -82.3811 -81.8462 78.5177 
-82.4273 -82.8544 79.7552 -83.6782 -78.0754 73.8168 -84.6878 -78.1775 73.1149 
-82.7289 -78.1512 74.624 -82.3572 -78.8443 75.7792 -82.3559 -79.9014 77.2242 
-82.1275 -80.8549 78.4884 -81.9683 -81.9072 79.6215 -82.1141 -83.1018 80.8408 
-84.3653 -77.9356 74.6864 -85.2198 -78.1362 73.8699 -83.3501 -77.7617 75.5814 
-82.5785 -78.0806 76.6123 -82.292 -78.9689 77.799 -82.0162 -79.9184 78.8336 
-81.655 -80.9312 79.7375 -81.6326 -82.2261 80.8445 -81.8074 -83.5113 82.024 
-84.9488 -78.0307 75.5535 -85.5762 -78.2317 74.6761 -84.1296 -77.7951 76.5222 
-83.2026 -77.8392 77.5401 -82.5412 -78.4157 78.6275 -82.1577 -79.2278 79.5869 
-81.7773 -80.0869 80.3448 -81.5602 -81.2717 81.2324 -81.6264 -82.661 82.303 
-81.7104 -83.8858 83.2526 -85.5098 -78.3201 76.0751 -84.9458 -78.1349 77.0578 
-85.523 -78.5285 77.5462 -84.9523 -78.4177 78.5503 -85.6242 -78.8304 79.0355 
-84.1369 -77.9871 78.1186 -84.9636 -78.7327 80.1538 -85.6661 -79.2187 80.5892 
-84.1202 -78.337 79.729 -83.2119 -78.203 79.2688 -84.9649 -79.1975 81.7839 
-85.5423 -79.8652 81.9475 -84.2138 -78.7534 81.413 -83.3071 -78.7095 80.922 
-82.5728 -78.8654 80.3468 -84.9502 -80.1097 83.0864 -85.4952 -80.7417 83.0879 
-84.4248 -79.5698 82.8978 -83.6512 -79.4824 82.3702 -82.823 -79.5766 81.7897 
-82.1921 -79.6826 81.1525 -85.0396 -81.1289 84.3687 -85.731 -81.4955 84.4803 
-84.5276 -80.7326 84.2181 -83.9576 -80.5674 83.7137 -83.1974 -80.604 83.0196 
-82.4956 -80.5829 82.5133 -81.9217 -80.7292 81.9592 -85.2535 -81.8994 85.8318 
-85.9993 -82.1392 85.9672 -84.5542 -81.6923 85.6718 -83.9487 -81.5144 85.3139 
-83.2899 -81.5038 84.5821 -82.7062 -81.6012 83.8896 -82.273 -81.7358 83.4827 
-81.8598 -82.093 82.9739 -85.4108 -82.8015 86.9293 -86.0567 -83.0302 86.975 
-84.6598 -82.6392 86.8343 -83.9128 -82.4239 86.7416 -83.2009 -82.2778 86.3642 
-82.6591 -82.4264 85.6077 -82.4157 -82.7214 84.9473 -82.206 -83.0171 84.4879 
-81.8812 -83.4178 83.9075 -85.4481 -84.0738 87.5404 -85.9876 -84.2178 87.5392 
-84.8012 -83.9654 87.4787 -84.0548 -83.7739 87.5083 -83.2848 -83.535 87.5404 
-82.6678 -83.5494 87.1845 -82.3974 -83.8283 86.4761 -82.3274 -84.0596 85.8317 
-82.114 -84.2534 85.2605 -81.8044 -84.5809 84.6123 -81.6638 -85.9558 85.1116 
-81.839 -85.6341 85.8029 -81.6653 -87.2898 86.4598 -82.1313 -85.5086 86.5257 
-81.7997 -87.1308 87.3023 -81.6448 -88.9738 88.0422 -82.2947 -85.545 87.1942 
-82.0164 -87.2012 88.0796 -81.6937 -88.9332 88.9778 -81.6562 -91.0133 89.5448 
-82.4386 -85.4281 87.8543 -82.2313 -87.3165 88.6819 -81.8772 -88.9499 89.6516 
-81.6657 -90.9545 90.3551 -81.7532 -93.5683 90.7069 -82.8675 -85.2375 88.266 
-82.5602 -87.1609 89.1328 -82.2344 -88.8611 90.0744 -81.9126 -90.8125 90.8106 
-81.7741 -93.4857 91.2814 -81.775 -96.4697 91.6338 -83.5944 -85.2891 88.2478 
-83.141 -86.9318 89.3235 -82.7524 -88.5734 90.4026 -82.4423 -90.6433 91.0669 
-82.148 -93.359 91.5336 -81.8935 -96.3276 92.0652 -81.6824 -99.1068 92.4791 
-84.3864 -85.4503 88.1267 -83.9222 -86.8838 89.2822 -83.4356 -88.3049 90.5611 
-83.0786 -90.429 91.2413 -82.7796 -93.3037 91.5772 -82.3853 -96.1623 92.1743 
-81.972 -98.7652 92.8334 -81.6259 -101.257 93.0849 -85.0582 -85.5087 88.1262 
-84.665 -86.8983 89.1799 -84.1939 -88.1798 90.4558 -83.74 -90.1641 91.2004 
-83.3941 -93.1207 91.5062 -83.0018 -96.0137 92.0902 -82.5031 -98.3732 92.8904 
-82.0243 -100.712 93.3446 -81.6211 -103.19 93.2447 -85.6094 -85.5155 88.1307 
-85.2479 -86.8701 89.056 -84.8344 -88.125 90.1761 -84.3589 -89.8923 90.9129 
-83.9406 -92.676 91.2904 -83.5628 -95.6398 91.9519 -83.0921 -97.9614 92.8632 
-82.5536 -100.094 93.4343 -82.0565 -102.531 93.4466 -81.6218 -105.033 93.0532 
-81.759 -87.1708 85.459 -81.7402 -88.7214 86.8768 -82.0447 -88.3841 86.0196 
-81.7067 -90.6967 88.3832 -81.8704 -90.154 87.3304 -82.2054 -89.6181 86.5688 
-81.7919 -93.3517 89.8118 -81.7366 -92.7289 88.7415 -81.8274 -91.9342 87.7702 
-82.1352 -91.2833 86.9262 -81.8575 -96.5242 91.0298 -81.7957 -96.0786 90.265 
-81.6557 -95.258 89.3186 -81.7725 -94.2992 88.2335 -82.0503 -93.317 87.2117 
-81.6595 -99.5115 91.9838 -81.6749 -99.3646 91.4472 -81.566 -98.7124 90.8565 
-81.5769 -97.7361 89.8963 -81.7916 -96.4662 88.6614 -82.0214 -95.0982 87.5583 
-81.4124 -102.003 92.6259 -81.3412 -102.191 92.0473 -81.2662 -101.738 91.569 
-81.2287 -100.858 90.9853 -81.4346 -99.5652 90.0491 -81.7645 -97.9701 88.9614 
-82.0726 -96.4491 87.9555 -81.2884 -104.223 92.822 -81.0932 -104.797 92.2102 
-81.008 -104.702 91.6141 -80.9213 -104.068 91.0925 -80.9741 -102.908 90.5367 
-81.3502 -101.164 89.9408 -81.8462 -99.2427 89.243 -82.2693 -97.5571 88.3543 
-81.2057 -106.258 92.6162 -80.8725 -107.148 92.0334 -80.7414 -107.484 91.4329 
-80.7492 -107.296 90.884 -80.781 -106.573 90.3941 -81.0199 -105.025 90.1149 
-81.557 -102.767 89.9764 -82.1004 -100.469 89.5348 -82.4902 -98.5211 88.6467 
-81.3383 -107.661 92.4402 -80.7767 -108.929 91.8305 -81.0269 -110.153 91.7499 
-80.2173 -111.371 91.0141 -80.7836 -112.312 91.1242 -80.3153 -109.725 91.1941 
-79.7484 -113.45 90.258 -80.7023 -114.093 90.4415 -79.5447 -111.937 90.3616 
-80.2293 -109.96 90.6749 -79.7029 -115.037 89.3331 -80.8347 -115.053 89.5403 
-78.9794 -113.664 89.4814 -79.5573 -111.888 89.9137 -80.471 -109.725 90.2064 
-80.183 -115.594 88.2967 -81.2566 -114.779 88.7046 -79.1424 -114.908 88.4263 
-79.2133 -113.159 89.0172 -80.2177 -111.337 89.5829 -80.8487 -108.711 89.9073 
-81.0231 -114.884 87.7873 -82.0052 -113.697 88.3826 -79.9567 -115.183 87.6871 
-79.5727 -113.897 88.1414 -80.247 -111.949 88.9004 -81.0746 -109.748 89.6034 
-81.4048 -106.503 90.0165 -82.0176 -113.483 87.9515 -82.8838 -112.378 88.4722 
-80.9972 -114.176 87.7223 -80.3841 -113.591 87.8464 -80.6321 -111.735 88.3658 
-81.3335 -109.572 89.2184 -81.813 -106.961 89.95 -82.0021 -103.637 90.0726 
-82.9365 -111.774 88.2499 -83.602 -110.74 88.6143 -82.0391 -112.365 88.0892 
-81.3376 -112.06 88.0942 -81.2684 -110.575 88.2981 -81.6532 -108.579 88.877 
-82.0228 -106.494 89.6076 -82.2471 -103.896 89.8894 -82.396 -100.994 89.4793 
-83.6411 -109.579 88.4309 -84.1101 -108.571 88.7141 -82.9613 -110.104 88.3332 
-82.3153 -109.891 88.3787 -82.0752 -108.753 88.5122 -82.1892 -107.097 88.8311 
-82.3005 -105.474 89.275 -82.3559 -103.616 89.4526 -82.4932 -101.229 89.1153 
-82.6885 -98.8165 88.4136 -81.9418 -105.229 93.0918 -81.7159 -107.875 92.5103 
-82.3806 -105.161 93.1307 -82.1442 -107.598 92.5388 -82.9504 -104.735 93.1582 
-81.5379 -110.179 91.9012 -82.6932 -106.838 92.5738 -83.6209 -104.028 93.2085 
-81.9468 -109.498 91.8505 -81.4512 -112.038 91.2828 -83.5328 -105.831 92.8459 
-84.2429 -103.064 93.1377 -82.5432 -108.351 91.8311 -81.8779 -110.891 91.1289 
-81.4495 -113.392 90.5955 -84.3259 -104.535 92.9572 -84.6956 -101.576 92.539 
-83.56 -107.051 92.2147 -82.6413 -109.356 91.1529 -82.0279 -111.808 90.6256 
-81.6245 -113.809 89.9013 -84.742 -102.58 92.2889 -85.2192 -99.4854 91.5677 
-84.2661 -105.373 92.3321 -83.6617 -107.651 91.5453 -83.0116 -109.912 90.8521 
-82.4628 -112.012 90.3353 -82.1446 -113.245 89.3889 -85.3429 -100.059 91.3714 
-86.1153 -97.2596 90.8593 -84.6309 -103.015 91.7707 -84.1924 -105.509 91.6179 
-83.9279 -107.693 91.0884 -83.5256 -109.839 90.6234 -83.1011 -111.411 90.0161 
-82.9302 -112.141 89.1574 -86.4894 -97.6108 90.8434 -87.198 -95.4246 90.4524 
-85.5626 -100.293 91.1982 -84.8292 -102.894 91.3561 -84.5434 -105.112 91.1351 
-84.3675 -107.166 90.7002 -84.0224 -108.934 90.2615 -83.742 -110.064 89.7257 
-83.6609 -110.621 89.1003 -87.6733 -95.7185 90.4275 -88.0862 -94.114 89.9647 
[...]
CELL_DATA 2000
SCALARS Distance double
LOOKUP_TABLE default
140.049 140.167 140.409 141.069 140.414 140.615 141.314 141.527 142.281 
140.735 140.941 141.696 141.868 142.653 142.853 143.69 141.032 141.27 
142.071 142.291 143.108 143.297 144.153 144.346 145.212 141.364 141.552 
142.328 142.61 143.463 143.741 144.629 144.851 145.752 145.921 146.801 
141.865 141.943 142.669 142.867 143.735 144.05 145.007 145.308 146.259 
146.482 147.404 147.555 148.426 142.495 142.526 143.282 143.348 144.235 
144.425 145.44 145.707 146.716 146.968 147.917 148.131 149.026 149.17 
149.972 143.134 143.184 144.003 144.07 145 145.099 146.113 146.264 
147.268 147.454 148.403 148.614 149.529 149.727 150.582 150.683 151.427 
143.772 143.82 144.65 144.783 145.73 145.88 146.847 146.98 147.919 
148.057 148.987 149.148 150.089 150.259 151.188 151.313 152.17 152.184 
152.945 139.44 138.526 139.144 139.511 137.605 138.2 138.537 139.232 
139.687 136.708 137.256 137.514 138.201 138.627 139.418 139.939 135.845 
136.338 136.532 137.161 137.557 138.336 138.881 139.693 140.252 135.146 
135.499 135.657 136.198 136.611 137.342 137.954 138.714 139.347 140.073 
140.665 134.892 134.962 135.055 135.398 135.814 136.488 137.177 137.912 
138.577 139.252 139.876 140.563 141.184 135.209 134.991 135.036 135.029 
135.384 135.826 136.541 137.219 137.893 138.516 139.07 139.755 140.385 
141.127 141.778 135.897 135.558 135.652 135.348 135.639 135.681 136.339 
136.756 137.465 137.924 138.458 138.981 139.596 140.315 141.053 141.773 
142.441 136.667 136.363 136.559 136.186 136.459 136.216 136.746 136.827 
137.522 137.743 138.338 138.594 139.222 139.701 140.521 141.154 141.953 
142.521 143.166 137.162 138.027 137.45 137.151 139.027 138.39 138.114 
137.452 137.133 140.117 139.44 139.175 138.485 138.23 137.539 137.396 
141.243 140.574 140.354 139.632 139.444 138.732 138.641 137.996 138.041 
142.387 141.744 141.65 140.929 140.835 140.072 140.024 139.306 139.315 
138.695 138.77 143.673 142.991 143.017 142.32 142.333 141.568 141.545 
140.764 140.773 140.042 140.118 139.465 139.661 145.062 144.374 144.414 
143.739 143.784 143.074 143.049 142.285 142.272 141.541 141.667 140.975 
141.229 140.568 140.948 146.314 145.722 145.727 145.106 145.125 144.477 
144.463 143.745 143.728 143.019 143.154 142.533 142.824 142.213 142.544 
141.941 142.313 147.376 146.879 146.912 146.351 146.389 145.783 145.829 
145.158 145.222 144.51 144.675 144.028 144.321 143.739 144.038 143.454 
143.704 143.166 143.452 144.208 144.496 144.714 145.579 144.904 145.112 
146.014 146.263 147.323 145.283 145.567 146.561 146.8 147.874 148.148 
149.332 145.652 145.967 147.047 147.357 148.432 148.71 149.838 150.187 
151.465 146.099 146.365 147.426 147.793 148.865 149.193 150.246 150.613 
151.822 152.326 153.714 146.611 146.816 147.794 148.139 149.189 149.548 
150.593 150.964 152.131 152.623 153.981 154.569 155.943 147.124 147.299 
148.22 148.509 149.521 149.856 150.908 151.287 152.46 152.935 154.255 
154.809 156.141 156.687 157.866 147.592 147.766 148.636 148.914 149.864 
150.182 151.167 151.558 152.686 153.211 154.485 155.054 156.298 156.83 
157.94 158.43 159.381 147.986 148.168 148.961 149.253 150.118 150.451 
151.317 151.715 152.716 153.297 154.508 155.171 156.368 156.926 157.953 
158.434 159.336 159.794 160.589 144.398 145.799 145.123 145.328 147.543 
146.703 146.905 146.205 146.474 149.569 148.604 148.742 147.882 148.087 
147.378 147.601 151.864 150.821 151.024 149.909 150.062 149.098 149.295 
148.507 148.692 154.3 153.309 153.745 152.501 152.771 151.445 151.674 
150.487 150.702 149.695 149.852 156.547 155.759 156.307 155.283 155.654 
154.385 154.62 153.235 153.383 152.037 152.117 150.94 151.015 158.41 
157.835 158.344 157.604 157.928 157.002 157.152 156.039 156.041 154.77 
154.673 153.367 153.278 152.105 152.107 159.901 159.494 159.992 159.417 
159.735 158.984 159.134 158.227 158.231 157.157 157.044 155.831 155.68 
154.435 154.322 153.168 153.105 161.086 160.812 161.312 160.899 161.255 
160.664 160.903 160.122 160.263 159.278 159.319 158.157 158.12 156.856 
156.761 155.473 155.32 154.108 153.934 161.854 163.001 162.334 162.068 
164.005 163.376 163.061 162.419 162.019 164.86 164.267 163.842 163.264 
162.885 162.283 161.757 165.397 164.983 164.435 163.886 163.436 163.014 
162.637 161.983 161.269 165.354 165.275 164.771 164.344 163.776 163.417 
163.104 162.746 162.241 161.419 160.452 164.909 165.034 164.737 164.552 
164.033 163.684 163.266 163.046 162.681 162.234 161.431 160.471 159.301 
164.458 164.602 164.43 164.439 164.047 163.826 163.263 163.053 162.551 
162.4 161.734 161.211 160.11 159.158 157.884 163.914 164.151 163.939 
164.073 163.66 163.626 162.95 162.808 162.067 162.019 161.306 161.171 
160.201 159.661 158.382 157.555 156.282 162.97 163.404 163.102 163.399 
162.893 163.021 162.288 162.252 161.414 161.371 160.591 160.572 159.71 
159.471 158.321 157.77 156.485 155.823 154.689 161.844 162.136 162.374 
163.05 162.229 162.58 163.307 163.539 164.117 162.145 162.539 163.163 
163.58 164.218 164.523 165.002 161.983 162.42 162.913 163.262 163.752 
164.29 164.852 165.259 165.529 161.402 162.164 162.727 163.039 163.343 
163.707 164.168 164.775 165.169 165.517 165.463 160.054 161.225 161.917 
162.657 162.952 163.324 163.609 164.087 164.502 164.976 165.097 165.236 
165.002 158.493 159.628 160.303 161.422 161.825 162.614 162.828 163.448 
163.737 164.311 164.508 164.82 164.714 164.757 164.519 157.408 158.196 
158.788 159.761 160.263 161.209 161.523 162.351 162.57 163.334 163.471 
164.07 163.994 164.326 164.078 164.228 163.928 156.718 157.297 157.801 
158.502 159.002 159.79 160.208 160.994 161.275 162.022 162.144 162.828 
162.754 163.32 163.066 163.491 163.128 163.415 162.966 148.403 149.37 
149.039 149.414 150.418 150.085 150.485 150.145 150.556 151.414 151.147 
151.548 151.218 151.612 151.29 151.719 152.303 152.112 152.58 152.283 
152.732 152.391 152.922 152.57 153.171 153.199 153.022 153.595 153.345 
153.951 153.636 154.361 153.988 154.795 154.329 155.085 154.099 153.957 
154.571 154.386 155.093 154.909 155.796 155.563 156.513 156.119 156.934 
156.367 156.986 154.871 154.809 155.429 155.334 156.077 156.021 156.983 
156.94 157.961 157.766 158.583 158.146 158.695 158.103 158.511 155.53 
155.508 156.152 156.136 156.963 157.001 158.07 158.107 159.2 159.096 
159.946 159.628 160.18 159.684 160.065 159.484 159.828 156.171 156.149 
156.805 156.832 157.73 157.879 159.068 159.222 160.386 160.327 161.162 
160.886 161.432 161.044 161.447 160.964 161.303 160.747 161.05 148.035 
147.754 148.225 148.925 147.385 147.904 148.596 149.146 149.924 146.986 
147.505 148.197 148.769 149.527 150.132 150.892 146.726 147.162 147.844 
148.36 149.086 149.681 150.421 151.028 151.741 146.588 146.979 147.64 
148.068 148.771 149.273 149.997 150.55 151.275 151.859 152.598 146.4 
146.824 147.459 147.883 148.562 149.021 149.744 150.218 150.929 151.433 
152.164 152.745 153.488 146.158 146.579 147.178 147.634 148.272 148.775 
149.494 150.004 150.711 151.163 151.819 152.317 153.007 153.597 154.27 
146.001 146.345 146.907 147.319 147.911 148.409 149.096 149.677 150.412 
150.937 151.581 152.011 152.614 153.112 153.769 154.336 154.96 145.97 
146.238 146.773 147.098 147.657 148.059 148.682 149.221 149.946 150.556 
151.267 151.768 152.373 152.789 153.394 153.875 154.521 155.038 155.631 
146.153 146.728 146.608 146.96 147.361 147.241 147.619 147.458 147.831 
148.029 147.922 148.345 148.163 148.533 148.362 148.812 148.754 148.639 
149.098 148.911 149.282 149.086 149.537 149.433 150.029 149.531 149.416 
149.892 149.688 150.053 149.834 150.283 150.182 150.813 150.763 151.391 
150.308 150.217 150.719 150.508 150.878 150.627 151.078 150.953 151.618 
151.579 152.253 152.114 152.596 151.015 150.975 151.473 151.307 151.688 
151.469 151.951 151.81 152.495 152.428 153.136 153 153.525 153.259 
153.641 151.522 151.579 152.019 151.953 152.318 152.22 152.746 152.695 
153.392 153.331 153.997 153.868 154.394 154.187 154.61 154.33 154.729 
151.751 151.914 152.314 152.361 152.729 152.752 153.309 153.401 154.108 
154.148 154.739 154.648 155.092 154.967 155.399 155.249 155.681 155.441 
155.826 151.959 152.603 152.363 152.555 153.707 153.208 153.391 152.978 
153.105 155.103 154.529 154.731 154.092 154.26 153.687 153.868 156.337 
155.916 156.163 155.552 155.681 155.027 155.17 154.585 154.732 157.401 
157.083 157.429 156.93 157.058 156.419 156.424 155.828 155.824 155.314 
155.281 158.466 158.171 158.631 158.206 158.478 157.827 157.86 157.095 
157.006 156.331 156.233 155.693 155.595 159.595 159.281 159.78 159.423 
159.814 159.293 159.477 158.694 158.665 157.743 157.641 156.807 156.737 
156.065 155.993 160.878 160.497 161.003 160.599 160.996 160.567 160.818 
160.248 160.285 159.484 159.347 158.426 158.259 157.404 157.267 156.528 
156.364 162.175 161.826 162.329 161.887 162.261 161.774 162.013 161.485 
161.543 160.911 160.765 160.002 159.725 158.903 158.596 157.816 157.518 
156.806 156.508 151.591 151.225 151.659 152.267 151.064 151.418 152.13 
152.545 153.379 151.066 151.407 152.165 152.535 153.405 153.835 154.737 
150.886 151.381 152.14 152.584 153.373 153.826 154.641 155.122 155.909 
150.419 151.029 151.744 152.36 153.078 153.647 154.373 154.913 155.662 
156.176 156.922 149.918 150.479 151.13 151.785 152.506 153.183 153.951 
154.571 155.361 155.912 156.703 157.199 157.971 149.503 149.992 150.608 
151.185 151.929 152.596 153.448 154.126 154.997 155.611 156.442 156.983 
157.792 158.284 159.091 149.143 149.596 150.207 150.731 151.481 152.103 
152.968 153.646 154.526 155.199 156.032 156.662 157.48 158.07 158.936 
159.467 160.351 148.862 149.271 149.887 150.372 151.111 151.697 152.524 
153.173 154.001 154.675 155.487 156.171 157.009 157.688 158.598 159.258 
160.217 160.78 161.657 151.131 150.225 150.696 150.723 149.355 149.827 
149.932 150.357 150.505 148.523 149.035 149.188 149.614 149.728 150.195 
150.412 147.431 148.107 148.237 148.807 148.855 149.35 149.409 150.004 
150.163 146.165 146.865 146.975 147.672 147.704 148.318 148.292 148.887 
148.933 149.614 149.726 145.097 145.664 145.762 146.373 146.439 147.074 
147.103 147.707 147.74 148.37 148.486 149.161 149.293 144.065 144.653 
144.71 145.252 145.288 145.865 145.932 146.536 146.601 147.201 147.291 
147.946 148.098 148.769 148.905 142.828 143.51 143.549 144.161 144.138 
144.723 144.732 145.365 145.42 146.052 146.102 146.741 146.845 147.547 
147.71 148.398 148.544 141.598 142.237 142.304 142.935 142.915 143.506 
143.461 144.102 144.137 144.822 144.89 145.538 145.62 146.287 146.451 
147.172 147.385 148.069 148.261 141.015 140.347 141.023 141.674 139.554 
140.301 140.942 141.638 142.249 138.81 139.5 140.168 140.862 141.467 
142.157 142.778 138.467 138.924 139.61 140.165 140.823 141.431 142.115 
142.772 143.49 138.515 138.793 139.463 139.824 140.533 140.977 141.74 
142.27 143.057 143.619 144.334 138.675 138.908 139.559 139.836 140.548 
140.882 141.665 142.078 142.882 143.331 144.058 144.499 145.137 138.898 
139.08 139.719 139.966 140.658 140.962 141.706 142.075 142.842 143.236 
143.956 144.329 144.99 145.356 146.003 139.264 139.362 139.983 140.158 
140.825 141.078 141.794 142.119 142.865 143.22 143.952 144.293 144.999 
145.323 146.014 146.329 146.989 139.744 139.785 140.379 140.479 141.117 
141.288 141.992 142.246 143.012 143.307 144.079 144.37 145.122 145.411 
146.142 146.422 147.098 147.35 147.938 140.229 141.239 140.759 140.868 
142.45 141.866 141.974 141.456 141.605 143.861 143.193 143.316 142.682 
142.835 142.277 142.493 145.364 144.668 144.801 144.118 144.285 143.637 
143.86 143.274 143.539 146.932 146.204 146.329 145.623 145.777 145.123 
145.341 144.725 144.971 144.371 144.617 148.565 147.825 147.965 147.196 
147.323 146.61 146.783 146.168 146.39 145.81 146.027 145.434 145.649 
150.113 149.45 149.63 148.885 149.021 148.227 148.342 147.611 147.774 
147.169 147.382 146.821 147.031 146.452 146.656 151.534 150.929 151.131 
150.494 150.673 149.944 150.048 149.239 149.316 148.582 148.742 148.147 
148.36 147.805 147.991 147.421 147.583 153.023 152.367 152.588 151.957 
152.182 151.535 151.688 150.929 150.965 150.161 150.218 149.533 149.692 
149.114 149.278 148.71 148.822 148.264 148.367 148.929 149.433 149.437 
149.987 149.966 150.009 150.636 150.61 151.25 150.442 150.551 151.258 
151.299 151.992 151.968 152.656 151.015 151.08 151.856 151.924 152.688 
152.713 153.445 153.411 154.106 151.825 151.818 152.699 152.672 153.578 
153.525 154.399 154.292 155.081 154.929 155.636 152.609 152.71 153.732 
153.727 154.799 154.676 155.721 155.496 156.431 156.123 156.918 156.582 
157.272 153.142 153.417 154.555 154.769 155.957 155.991 157.085 156.938 
157.903 157.622 158.465 158.068 158.803 158.34 158.988 153.586 153.915 
155.141 155.507 156.779 157.016 158.102 158.137 159.03 158.944 159.767 
159.568 160.341 159.97 160.653 160.132 160.7 154.064 154.408 155.694 
156.099 157.441 157.756 158.873 158.984 159.837 159.849 160.645 160.649 
161.455 161.344 162.05 161.729 162.275 161.768 162.16 136.57 135.867 
136.236 136.338 135.222 135.541 135.641 136.07 136.306 134.853 134.966 
134.985 135.342 135.561 136.096 136.424 135.024 134.801 134.68 134.751 
134.884 135.337 135.713 136.265 136.65 135.709 135.241 135.064 134.726 
134.737 134.824 135.178 135.614 136.099 136.582 137.068 136.58 136.074 
135.958 135.416 135.377 135.036 135.259 135.313 135.769 136.118 136.683 
137.149 137.758 137.442 136.964 136.907 136.406 136.408 135.92 136.038 
135.717 136.013 136.011 136.534 136.857 137.539 137.974 138.621 138.332 
137.842 137.803 137.347 137.398 136.96 137.086 136.651 136.846 136.529 
136.929 136.936 137.613 137.893 138.634 138.926 139.527 139.25 138.759 
138.732 138.266 138.334 137.922 138.082 137.683 137.884 137.481 137.787 
137.551 138.118 138.173 138.919 139.1 139.78 139.915 140.473 136.976 
136.789 137.092 137.619 136.821 137.035 137.6 137.88 138.511 136.945 
137.132 137.693 137.946 138.582 138.867 139.497 137.128 137.265 137.797 
138.039 138.666 138.957 139.587 139.842 140.404 137.545 137.538 138.071 
138.193 138.833 139.066 139.732 139.962 140.569 140.755 141.322 138.249 
138.117 138.653 138.614 139.229 139.326 139.98 140.154 140.79 140.974 
141.602 141.764 142.383 139.037 138.881 139.382 139.286 139.837 139.819 
140.395 140.459 141.048 141.205 141.844 142.057 142.719 142.885 143.489 
139.824 139.639 140.103 140.002 140.551 140.482 141.048 140.979 141.533 
141.537 142.152 142.302 142.986 143.19 143.824 143.957 144.478 140.705 
140.443 140.898 140.742 141.323 141.233 141.842 141.726 142.278 142.154 
142.714 142.707 143.348 143.477 144.122 144.265 144.806 144.886 145.324 
137.339 137.946 137.782 138.183 138.79 138.486 138.853 138.713 139.194 
139.753 139.403 139.725 139.479 139.954 139.808 140.318 140.639 140.334 
140.652 140.394 140.834 140.639 141.138 140.962 141.43 141.522 141.19 
141.513 141.281 141.714 141.525 141.985 141.793 142.228 142.041 142.497 
142.558 142.138 142.437 142.144 142.577 142.379 142.837 142.632 143.061 
142.85 143.324 143.16 143.732 143.653 143.223 143.496 143.13 143.537 
143.277 143.747 143.506 143.954 143.715 144.22 144.04 144.651 144.507 
145.136 144.631 144.274 144.542 144.194 144.575 144.284 144.748 144.472 
144.926 144.65 145.133 144.943 145.53 145.417 146.019 145.882 146.4 
145.461 145.176 145.447 145.17 145.536 145.29 145.732 145.482 145.914 
145.634 146.054 145.83 146.326 146.216 146.757 146.673 147.152 147.016 
147.428 151.245 150.946 150.832 150.246 150.385 150.373 149.746 149.735 
149.242 149.704 149.741 149.164 149.182 148.697 148.769 148.371 148.979 
149.062 148.558 148.623 148.151 148.208 147.72 147.811 147.288 148.204 
148.315 147.784 147.944 147.405 147.547 146.914 147.03 146.378 146.545 
145.988 147.486 147.546 146.954 147.081 146.463 146.627 145.928 146.072 
145.381 145.571 145.045 145.296 144.906 146.87 146.886 146.299 146.305 
145.685 145.715 145.08 145.128 144.544 144.653 144.2 144.403 144.032 
144.285 143.888 146.294 146.316 145.767 145.733 145.128 145.073 144.475 
144.451 143.936 143.981 143.55 143.66 143.224 143.393 142.902 143.145 
142.64 145.756 145.777 145.265 145.233 144.632 144.561 143.923 143.892 
143.324 143.392 142.906 143.019 142.507 142.602 142.027 142.158 141.61 
141.85 141.399 
POINT_DATA 1002
SCALARS Distance double
LOOKUP_TABLE default
140.655 139.725 139.77 140.805 139.931 141.75 141.113 140.201 142.029 
143.067 141.513 140.493 142.466 143.467 144.54 141.806 140.8 142.898 
143.962 145.033 146.067 142.054 141.241 143.128 144.367 145.56 146.666 
147.673 142.536 141.822 143.422 144.658 146 147.222 148.33 149.28 
143.223 142.442 144.09 145.198 146.466 147.687 148.847 149.906 150.735 
143.889 143.073 144.9 146.013 147.13 148.213 149.313 150.434 151.412 
152.14 144.499 143.746 145.563 146.731 147.799 148.832 149.922 151.036 
152.1 153.004 153.697 138.827 138.837 137.918 137.847 137.054 138.931 
136.869 136.204 137.829 139.124 135.945 135.39 136.787 138.058 139.465 
135.166 134.888 135.866 137.186 138.622 139.958 134.837 134.955 135.167 
136.417 137.933 139.181 140.492 135.187 135.491 135.09 135.901 137.313 
138.438 139.596 141.07 136.003 136.203 135.773 136.06 137.061 138.027 
138.913 140.283 141.81 136.89 136.914 136.789 136.82 137.364 138.144 
138.846 139.911 141.371 142.682 137.685 137.777 138.623 138.773 139.686 
137.794 139.863 140.806 138.892 138.009 141.056 141.869 140.146 139.299 
138.62 142.309 142.987 141.587 140.774 140.003 139.324 143.678 144.356 
143.067 142.346 141.517 140.802 140.23 145.092 145.742 144.474 143.812 
142.994 142.306 141.895 141.566 146.336 146.866 145.754 145.148 144.434 
143.76 143.4 143.18 142.887 147.436 147.828 146.967 146.449 145.894 
145.341 144.927 144.64 144.295 143.932 144.95 145.264 146.527 145.779 
147.003 148.445 146.286 147.623 149.001 150.557 146.691 148.167 149.511 
151.007 152.839 147.066 148.526 149.905 151.326 153.139 155.174 147.493 
148.828 150.215 151.664 153.411 155.402 157.261 147.961 149.21 150.528 
151.986 153.74 155.623 157.405 158.94 148.375 149.574 150.811 152.165 
153.918 155.808 157.47 158.951 160.26 148.697 149.814 150.97 152.174 
153.819 155.796 157.507 158.887 160.178 161.336 145.924 147.663 147.13 
149.71 148.857 148.276 152.202 151.167 150.167 149.45 154.898 154.144 
153.012 151.854 150.81 157.215 156.819 156.01 154.848 153.456 152.094 
159.039 158.788 158.185 157.269 156.016 154.557 153.191 160.512 160.435 
159.991 159.238 158.198 156.929 155.565 154.217 161.674 161.761 161.579 
161.15 160.414 159.36 158.086 156.643 155.108 162.56 162.778 163.673 
163.687 164.661 162.727 164.461 165.463 163.385 162.554 165.032 165.701 
163.816 163.112 162.256 165.096 165.27 164.187 163.329 162.878 161.597 
164.74 164.721 164.377 163.54 162.938 162.238 160.47 164.351 164.306 
164.203 163.565 162.692 162.037 160.942 158.932 163.803 163.637 163.67 
163.116 162.181 161.345 160.55 159.122 157.1 162.779 162.5 162.732 
162.287 161.475 160.604 159.836 158.752 157.095 155.267 161.646 162.929 
161.846 162.977 161.877 164.026 162.776 161.795 163.747 164.89 162.702 
161.462 163.275 164.243 165.431 162.339 160.415 163.152 163.612 164.658 
165.425 160.93 158.827 162.492 163.221 164.002 164.853 165.02 159.138 
157.527 160.854 162.139 163.131 164.087 164.593 164.536 157.937 156.769 
159.303 160.646 161.794 162.796 163.54 163.856 163.849 157.195 156.195 
158.279 159.436 160.555 161.489 162.16 162.574 162.777 162.768 148.688 
149.736 149.689 150.834 150.734 150.887 151.878 151.634 151.936 152.017 
152.828 152.452 153.039 153.228 153.529 153.79 153.357 154.173 154.649 
155.216 155.65 154.728 154.218 155.202 155.916 156.832 157.497 157.662 
155.488 154.912 156.083 156.96 158.084 158.976 159.284 159.146 156.13 
155.556 156.849 157.973 159.289 160.238 160.635 160.632 160.428 147.591 
148.4 147.275 148.039 146.845 149.352 147.635 146.482 148.92 150.313 
147.372 146.325 148.527 149.814 151.14 147.244 146.198 148.308 149.48 
150.699 151.989 147.033 145.971 148.103 149.278 150.478 151.616 152.893 
146.736 145.77 147.769 148.949 150.259 151.4 152.447 153.686 146.533 
145.702 147.454 148.514 149.828 151.155 152.192 153.209 154.415 146.48 