# vtk DataFile Version 4.0
vtk output
ASCII
DATASET POLYDATA
POINTS 1002 float
-85.4496 -82.7317 75.3658 -85.6239 -82.0481 74.3273 -85.2058 -81.7247 75.0673 
-84.9422 -82.5077 76.1086 -84.7127 -81.4296 75.8638 -85.1632 -83.5871 76.4172 
-84.5711 -82.2412 77.0341 -84.1596 -81.2665 76.6737 -84.7752 -83.4072 77.3408 
-85.1961 -84.3393 77.9034 -84.2374 -82.1138 78.1093 -83.5514 -81.297 77.5529 
-84.6061 -83.1831 78.5506 -84.9261 -84.2215 79.0997 -85.4166 -85.0563 79.8209 
-83.7107 -82.2472 79.2094 -83.0206 -81.4654 78.6288 -84.2892 -83.1724 79.7901 
-84.617 -84.174 80.4083 -84.9766 -85.1617 81.037 -85.3047 -86.2062 81.5253 
-83.0643 -82.5116 80.2627 -82.7005 -81.6583 79.8429 -83.611 -83.4031 80.7969 
-84.0136 -84.412 81.4593 -84.3468 -85.4733 82.1138 -84.7157 -86.6342 82.5702 
-84.9665 -87.8218 82.9061 -82.4805 -82.7917 81.2852 -82.4117 -81.8671 81.022 
-82.8145 -83.7153 81.6699 -83.2584 -84.8255 82.2499 -83.6374 -86.0511 82.9151 
-84.0453 -87.2728 83.4598 -84.4047 -88.4622 83.9062 -84.64 -89.5283 84.3745 
-81.9152 -83.1506 82.3307 -81.9453 -82.1668 82.155 -82.1238 -84.1401 82.6152 
-82.5694 -85.3142 83.0915 -82.9943 -86.6665 83.6686 -83.3842 -87.9772 84.221 
-83.7442 -89.1735 84.7619 -83.9907 -90.2858 85.3224 -84.1896 -91.2871 85.8216 
-81.4036 -83.5871 83.4108 -81.4627 -82.5744 83.275 -81.6139 -84.6608 83.6413 
-82.0655 -85.8962 84.0656 -82.4556 -87.2644 84.5746 -82.7495 -88.5725 85.0458 
-83.0756 -89.778 85.5532 -83.3248 -90.9789 86.123 -83.4917 -92.1465 86.6374 
-83.6992 -93.1694 87.0133 -81.1536 -84.0314 84.4632 -81.2478 -83.053 84.3216 
-81.3575 -85.1187 84.6626 -81.8065 -86.4206 85.047 -82.1457 -87.8598 85.563 
-82.2824 -89.1829 86.0309 -82.5108 -90.3646 86.4639 -82.8233 -91.6069 86.955 
-83.0178 -92.9119 87.4282 -83.1643 -94.0913 87.7968 -83.3762 -95.0396 88.0796 
-85.3054 -81.3103 73.6172 -84.9388 -80.8518 74.5167 -84.8678 -80.4921 72.985 
-84.5493 -79.9241 74.0471 -84.5526 -79.4746 72.6146 -84.3579 -80.5764 75.3546 
-84.2676 -78.7969 73.7692 -84.3607 -78.35 72.3609 -83.9227 -79.667 74.8857 
-83.5832 -80.5171 76.038 -83.9248 -77.5951 73.4873 -83.9787 -77.3347 72.061 
-83.5847 -78.4665 74.5843 -83.1031 -79.5863 75.5123 -82.8999 -80.5319 76.8839 
-83.2125 -76.5931 73.0866 -83.4892 -76.4303 71.8922 -83.024 -77.1982 74.2692 
-82.7659 -78.2953 75.3061 -82.5574 -79.4304 76.521 -82.6093 -80.5379 78.1802 
-82.6179 -75.8153 72.8743 -83.4401 -75.6252 72.05 -82.2244 -76.2498 73.8868 
-82.2174 -77.1042 75.175 -82.2841 -78.1395 76.5519 -82.3937 -79.2918 78.0456 
-82.5415 -80.6028 79.6427 -82.837 -75.2246 73.2156 -84.0061 -75.0993 72.5901 
-81.9923 -75.5658 73.9245 -81.7828 -76.2836 75.1157 -81.9196 -77.1822 76.6553 
-82.045 -78.162 78.1328 -82.2396 -79.4006 79.5752 -82.289 -80.816 80.9808 
-83.6923 -74.9205 74.0712 -84.797 -74.9431 73.4329 -82.6353 -75.0533 74.6995 
-82.0485 -75.5707 75.63 -81.928 -76.4444 76.9516 -81.8513 -77.4169 78.3262 
-81.8402 -78.4797 79.631 -81.9641 -79.7645 80.9817 -81.8496 -81.1936 82.2521 
-84.5528 -74.9447 75.029 -85.42 -75.0507 74.3258 -83.5696 -74.8752 75.7858 
-82.783 -75.0392 76.6767 -82.3838 -75.6884 77.7225 -82.1157 -76.7313 78.8189 
-81.8471 -77.8429 79.9311 -81.7764 -78.9705 81.1385 -81.7615 -80.2677 82.3782 
-81.5354 -81.698 83.4634 -85.4054 -75.2351 75.5776 -84.5632 -75.127 76.4629 
-85.3434 -75.5651 76.8683 -84.5124 -75.4838 78.0066 -85.3843 -75.9014 78.4454 
-83.6688 -74.9993 77.5335 -84.6276 -75.9002 79.7301 -85.6317 -76.1015 80.3915 
-83.7199 -75.3983 79.2827 -83.004 -75.1862 78.6311 -84.9816 -76.3367 81.6283 
-85.8956 -76.4229 82.3111 -83.9383 -76.0935 80.9761 -83.1137 -75.7998 80.4114 
-82.5809 -76.0424 79.6305 -85.2853 -76.9867 83.389 -86.033 -77.1774 83.8341 
-84.3387 -76.9243 82.7186 -83.3342 -76.7971 82.1113 -82.6738 -76.8504 81.4706 
-82.2181 -77.2932 80.6443 -85.4244 -78.0158 84.7219 -86.1656 -78.2509 85.0313 
-84.6674 -77.8999 84.248 -83.7268 -77.8441 83.7527 -82.9016 -77.8525 83.2821 
-82.396 -78.0805 82.604 -81.9856 -78.5023 81.7747 -85.5352 -79.3452 85.7746 
-86.3084 -79.4688 86.081 -84.8546 -79.2353 85.3954 -84.1028 -79.1195 85.0388 
-83.246 -79.0298 84.7515 -82.6232 -79.0729 84.3373 -82.2179 -79.3432 83.6566 
-81.879 -79.7709 82.9284 -85.6341 -80.7371 86.8113 -86.3649 -80.7734 87.0383 
-84.9664 -80.7541 86.4714 -84.3486 -80.7122 86.1419 -83.5673 -80.5803 85.9147 
-82.7989 -80.4652 85.6572 -82.3323 -80.5442 85.1807 -81.9996 -80.8503 84.5604 
-81.6866 -81.2621 83.9717 -85.6994 -81.998 87.8575 -86.3648 -82.043 87.9206 
-85.035 -82.0781 87.6299 -84.4772 -82.1684 87.3326 -83.8318 -82.1357 87.1188 
-83.0213 -82.0116 86.9269 -82.4077 -81.9947 86.538 -82.0978 -82.1893 85.9667 
-81.7942 -82.4862 85.3881 -81.4484 -82.7749 84.848 -81.2799 -84.2122 85.4432 
-81.6399 -84.0924 86.0622 -81.6418 -85.551 86.71 -82.0246 -83.9292 86.691 
-82.0515 -85.6145 87.4293 -81.9367 -87.3137 88.1892 -82.2544 -83.6668 87.3605 
-82.3538 -85.5795 88.1154 -82.2845 -87.566 88.9026 -81.8934 -89.6415 89.814 
-82.629 -83.4636 87.9503 -82.5475 -85.3629 88.7554 -82.532 -87.6787 89.4476 
-82.245 -89.9 90.3769 -81.8561 -92.0415 91.3704 -83.3795 -83.4626 88.2428 
-83.0608 -85.1757 89.1896 -82.8526 -87.5874 89.8813 -82.5806 -90.0004 90.7593 
-82.2549 -92.0049 91.8178 -81.9996 -94.1597 92.6175 -84.1072 -83.4988 88.373 
-83.7978 -85.1172 89.3396 -83.4938 -87.4168 90.1473 -83.0638 -89.8894 91.116 
-82.6239 -91.8719 92.2345 -82.3018 -93.9319 93.0452 -82.038 -96.5119 93.5523 
-84.646 -83.3891 88.6071 -84.3407 -84.986 89.5043 -84.1048 -87.1746 90.284 
-83.7116 -89.5933 91.3075 -83.1172 -91.6302 92.5853 -82.6121 -93.6959 93.5014 
-82.2813 -96.3811 93.9454 -82.0132 -99.2089 94.3923 -85.2735 -83.2313 88.8409 
-84.8764 -84.7272 89.7831 -84.564 -86.7887 90.5145 -84.2521 -89.175 91.3342 
-83.7332 -91.3278 92.5662 -83.1017 -93.4626 93.7419 -82.6407 -96.1275 94.3223 
-82.3572 -99.0457 94.6453 -82.1324 -101.508 95.1204 -85.9952 -83.2007 88.8736 
-85.6044 -84.5331 89.8976 -85.1832 -86.3621 90.733 -84.7747 -88.6635 91.3913 
-84.3283 -90.9734 92.2963 -83.7551 -93.2313 93.5316 -83.1936 -95.7885 94.4809 
-82.804 -98.56 94.8622 -82.5354 -101.068 95.1163 -82.3054 -103.027 95.4731 
-81.3218 -85.2638 85.6572 -81.6732 -86.8391 87.0814 -81.6496 -86.5997 85.9923 
-81.706 -89.1133 88.8008 -81.8137 -88.6451 87.6219 -81.9932 -88.2757 86.541 
-81.567 -91.8928 90.6257 -81.6622 -91.4318 89.538 -81.9477 -90.7201 88.3471 
-82.0871 -89.9189 87.1561 -81.7222 -94.4495 92.1411 -81.7094 -94.3336 91.3494 
-81.9579 -93.6016 90.298 -82.1106 -92.4567 89.0351 -82.2007 -91.2777 87.6622 
-81.8831 -96.8877 93.2261 -81.9463 -96.8865 92.6746 -82.1931 -96.3116 91.8921 
-82.355 -95.2678 90.857 -82.4021 -93.9532 89.5074 -82.5309 -92.635 88.0999 
-81.8087 -99.6203 94.1904 -81.8755 -99.5595 93.6921 -82.1752 -98.9736 92.9662 
-82.3816 -98.0841 92.167 -82.4744 -96.9892 91.1358 -82.6276 -95.5806 89.8131 
-82.7956 -94.1096 88.4972 -81.8218 -102.108 95.1001 -81.7017 -102.251 94.6024 
-81.8782 -101.893 93.6999 -82.0744 -101.166 92.8775 -82.1402 -100.185 92.1777 
-82.3491 -98.8057 91.2302 -82.6758 -97.0746 90.0133 -82.9084 -95.4284 88.8063 
-81.997 -103.835 95.6111 -81.743 -104.334 95.1659 -81.6967 -104.525 94.0742 
-81.8049 -104.344 93.0198 -81.8372 -103.615 92.4531 -81.918 -102.204 91.9706 
-82.2747 -100.234 91.1781 -82.7113 -98.1803 90.1407 -83.0417 -96.4488 89.0586 
-82.2165 -104.823 95.4903 -81.9318 -105.752 95.3183 -82.0425 -106.955 94.8224 
-81.7071 -108.197 94.0531 -81.8407 -109.525 93.5858 -81.6742 -106.542 94.2553 
-81.2656 -111.221 92.4619 -81.6715 -111.956 92.2835 -81.3146 -109.478 92.5972 
-81.5857 -107.175 92.8313 -80.8106 -113.942 91.3567 -81.6209 -113.647 91.2007 
-80.6202 -112.786 91.3253 -81.1633 -110.376 91.4613 -81.6442 -107.157 92.04 
-80.8411 -115.302 90.4649 -81.9242 -114.322 90.2523 -80.1308 -115.111 90.6773 
-80.527 -113.257 90.6678 -81.3495 -109.955 91.0843 -81.7074 -105.946 91.8084 
-81.6079 -115.116 89.3227 -82.6333 -113.968 89.5347 -80.533 -115.522 89.6962 
-80.3313 -114.623 89.9803 -81.0297 -111.967 90.2628 -81.6426 -107.872 90.9849 
-81.9347 -103.642 91.4956 -82.6408 -114.08 88.594 -83.4067 -112.865 89.4016 
-81.6271 -114.61 88.5606 -80.9867 -114.265 89.0731 -81.15 -112.561 89.6071 
-81.6719 -109.082 90.3161 -82.0892 -104.711 90.9851 -82.4309 -100.955 90.9161 
-83.4207 -112.527 88.9063 -83.9996 -111.143 89.8219 -82.6374 -113.172 88.4372 
-81.9708 -112.935 88.7523 -81.8089 -111.698 89.4643 -82.0565 -109.076 90.2198 
-82.4059 -105.249 90.8265 -82.7336 -101.47 90.7991 -82.9576 -98.6063 90.0514 
-83.9811 -110.192 89.7231 -84.4932 -108.787 90.2781 -83.3491 -111.008 89.2716 
-82.7643 -110.917 89.3217 -82.5327 -109.844 89.8449 -82.6764 -107.774 90.4746 
-82.9364 -104.796 90.897 -83.1693 -101.562 90.7736 -83.3318 -98.8542 90.0057 
-83.3836 -96.7786 88.9835 -82.575 -103.023 95.2536 -82.4052 -104.994 94.977 
-82.9372 -102.733 94.9499 -82.7927 -104.941 94.4847 -83.5408 -102.264 94.7629 
-82.242 -107.414 94.2899 -83.5125 -104.595 94.3263 -84.2152 -101.554 94.5255 
-82.7492 -107.425 93.9714 -82.2331 -109.775 93.3279 -84.2206 -103.64 94.2031 
-84.7858 -100.297 94.0718 -83.5007 -106.771 93.9791 -82.8418 -109.251 93.3012 
-82.3114 -111.433 92.2144 -84.8603 -101.782 93.9165 -85.5736 -98.5821 93.7256 
-84.1707 -105.17 93.8594 -83.5132 -108.036 93.365 -82.941 -110.299 92.3554 
-82.4265 -112.482 91.194 -85.8278 -99.601 93.7412 -86.5628 -97.0375 93.4788 
-84.9802 -102.717 93.6516 -84.2655 -105.951 93.2706 -83.6597 -108.699 92.5967 
-83.118 -110.952 91.6333 -82.7878 -112.814 90.5717 -86.8331 -97.8894 93.4152 
-87.2273 -95.8159 92.7923 -86.0982 -100.374 93.5695 -85.2936 -103.293 93.2768 
-84.6495 -106.25 92.8151 -84.0185 -108.778 92.2057 -83.536 -110.747 91.3827 
-83.4114 -112.127 90.3873 -87.4413 -96.428 92.5343 -87.6071 -94.5108 91.688 
-87.0321 -98.5607 93.1309 -86.3734 -100.94 93.2407 -85.7407 -103.461 93.0112 
-85.1332 -105.863 92.5867 -84.4964 -107.917 91.9792 -84.1221 -109.515 91.266 
-84.0541 -110.611 90.4965 -87.926 -94.7818 91.4237 -88.1425 -93.0297 90.6819 
-87.6441 -96.7721 92.1616 -87.1961 -98.9067 92.6479 -86.6723 -101.038 92.8114 
[...]
CELL_DATA 2000
SCALARS Distance double
LOOKUP_TABLE default
139.223 139.179 139.493 140.091 139.211 139.507 140.173 140.443 141.178 
139.367 139.658 140.464 140.682 141.517 141.742 142.646 139.665 139.935 
140.86 141.096 141.998 142.2 143.12 143.341 144.253 140.117 140.31 
141.208 141.487 142.388 142.662 143.557 143.812 144.718 144.937 145.808 
140.661 140.769 141.536 141.781 142.645 142.973 143.895 144.206 145.152 
145.408 146.347 146.527 147.426 141.215 141.272 141.962 142.118 142.972 
143.253 144.247 144.561 145.581 145.86 146.85 147.079 148.022 148.188 
149.076 141.799 141.814 142.522 142.613 143.512 143.715 144.767 145.018 
146.07 146.319 147.313 147.564 148.516 148.744 149.652 149.817 150.668 
142.502 142.457 143.202 143.251 144.198 144.368 145.469 145.665 146.736 
146.89 147.882 148.057 149.045 149.254 150.235 150.406 151.328 151.425 
152.27 138.605 137.587 138.266 138.57 136.555 137.24 137.576 138.227 
138.54 135.602 136.244 136.559 137.206 137.485 138.167 138.547 134.623 
135.267 135.53 136.179 136.41 137.069 137.396 138.191 138.741 133.583 
134.18 134.357 135.061 135.289 135.989 136.322 137.07 137.648 138.524 
139.255 132.836 133.159 133.226 133.825 134.101 134.86 135.311 136.072 
136.697 137.525 138.332 139.185 139.939 132.814 132.713 132.744 132.934 
133.264 133.832 134.46 135.179 135.899 136.655 137.456 138.304 139.132 
139.914 140.578 133.497 133.102 133.196 132.939 133.289 133.423 134.139 
134.609 135.44 136.01 136.804 137.493 138.325 139.115 139.895 140.577 
141.198 134.458 134.027 134.193 133.756 134.076 133.865 134.499 134.639 
135.473 135.804 136.619 137.048 137.865 138.453 139.307 139.958 140.725 
141.284 141.929 135.032 135.881 135.262 134.854 136.878 136.195 135.872 
135.15 134.809 138.128 137.333 137.061 136.283 136.04 135.288 135.19 
139.583 138.734 138.502 137.625 137.432 136.626 136.582 135.898 136.041 
141.048 140.255 140.112 139.209 139.058 138.158 138.141 137.37 137.512 
136.866 137.113 142.44 141.713 141.653 140.845 140.763 139.878 139.874 
139.036 139.184 138.43 138.661 137.989 138.312 143.822 143.115 143.107 
142.371 142.374 141.574 141.602 140.787 140.913 140.148 140.365 139.631 
139.91 139.263 139.669 145.196 144.522 144.571 143.863 143.955 143.202 
143.303 142.502 142.622 141.847 142.037 141.32 141.576 140.9 141.222 
140.638 141.042 146.495 145.892 145.992 145.345 145.49 144.808 144.975 
144.223 144.366 143.566 143.733 142.979 143.231 142.545 142.851 142.203 
142.522 141.944 142.272 143.096 143.466 143.712 144.651 143.863 144.16 
145.213 145.458 146.559 144.24 144.566 145.688 146.039 147.229 147.504 
148.735 144.721 144.976 146.085 146.471 147.711 148.119 149.391 149.733 
151.029 145.334 145.522 146.58 146.889 148.106 148.543 149.85 150.291 
151.565 151.962 153.214 145.893 146.108 147.107 147.391 148.547 148.954 
150.252 150.712 151.981 152.394 153.582 154.005 155.22 146.343 146.579 
147.515 147.828 148.907 149.342 150.582 151.084 152.326 152.763 153.913 
154.318 155.504 155.984 157.277 146.788 146.994 147.888 148.174 149.182 
149.603 150.756 151.299 152.494 153.019 154.158 154.615 155.777 156.261 
157.532 158.069 159.336 147.236 147.428 148.289 148.542 149.492 149.847 
150.899 151.387 152.51 153.073 154.218 154.778 155.953 156.495 157.697 
158.25 159.406 159.954 160.94 143.208 144.74 143.912 143.951 146.659 
145.647 145.713 144.844 145.042 148.913 147.782 147.91 146.853 147.089 
146.147 146.405 151.354 150.235 150.496 149.301 149.576 148.421 148.634 
147.56 147.695 153.676 152.748 153.18 152.046 152.396 151.121 151.309 
149.978 150.003 148.795 148.828 155.783 155.029 155.587 154.665 155.079 
153.944 154.152 152.794 152.79 151.331 151.262 149.967 150.011 157.911 
157.18 157.809 156.969 157.4 156.431 156.655 155.51 155.551 154.189 
154.099 152.63 152.538 151.213 151.228 159.972 159.34 159.965 159.164 
159.557 158.631 158.843 157.834 157.928 156.788 156.752 155.423 155.26 
153.842 153.668 152.378 152.307 161.528 161.179 161.72 161.138 161.43 
160.649 160.806 159.924 160.043 159.055 159.074 157.909 157.751 156.429 
156.153 154.809 154.561 153.349 153.214 162.315 163.324 162.801 162.555 
164.165 163.69 163.431 162.818 162.275 165.024 164.527 164.245 163.621 
163.146 162.413 161.723 165.805 165.432 165.272 164.579 164.188 163.379 
162.817 161.897 161.096 166.166 166.099 166.098 165.644 165.317 164.553 
163.99 163.066 162.243 161.197 160.16 165.982 166.162 166.112 166.116 
165.791 165.446 164.798 164.107 163.139 162.203 160.994 160.001 158.755 
165.546 165.748 165.556 165.74 165.399 165.446 164.851 164.548 163.574 
162.856 161.56 160.635 159.263 158.376 157.097 165.02 165.237 165.007 
165.123 164.779 164.871 164.398 164.332 163.541 163.086 161.895 161.084 
159.703 158.803 157.48 156.658 155.468 164.17 164.574 164.335 164.55 
164.151 164.263 163.748 163.79 163.063 162.881 161.808 161.275 159.939 
159.172 157.818 157.021 155.808 155.075 154.034 162.17 162.081 162.508 
163.174 161.948 162.375 163.131 163.505 164.127 161.854 162.319 163.134 
163.52 164.256 164.492 165.023 161.42 162.153 163.032 163.55 164.25 
164.571 165.051 165.269 165.642 160.554 161.462 162.339 163.178 163.842 
164.396 164.769 165.103 165.363 165.684 165.915 159.773 160.53 161.268 
162.17 162.827 163.66 164.099 164.653 164.907 165.282 165.493 165.804 
165.876 159.098 159.797 160.413 161.126 161.713 162.511 163.047 163.801 
164.173 164.724 164.931 165.323 165.408 165.648 165.552 158.079 158.951 
159.536 160.297 160.808 161.508 161.983 162.722 163.112 163.807 163.986 
164.558 164.564 165.021 164.917 165.206 164.983 156.831 157.736 158.287 
159.215 159.695 160.525 160.91 161.666 161.956 162.661 162.773 163.402 
163.329 163.919 163.755 164.296 164.052 164.448 164.079 147.72 148.791 
148.441 148.816 149.887 149.575 150.046 149.637 150.06 150.989 150.724 
151.289 150.924 151.432 150.976 151.461 152.134 151.908 152.569 152.216 
152.793 152.374 152.923 152.466 153.026 153.28 153.145 153.918 153.568 
154.168 153.746 154.364 153.959 154.63 154.154 154.782 154.237 154.277 
155.144 154.92 155.508 155.106 155.72 155.4 156.22 155.854 156.646 
156.05 156.661 154.939 155.117 156.043 156.03 156.658 156.36 156.918 
156.681 157.529 157.388 158.302 157.927 158.609 157.938 158.432 155.549 
155.746 156.72 156.84 157.597 157.428 158.017 157.806 158.599 158.558 
159.465 159.349 160.026 159.66 160.128 159.57 159.991 156.171 156.352 
157.355 157.526 158.396 158.347 159.023 158.863 159.636 159.583 160.46 
160.381 161.044 160.804 161.244 160.933 161.343 160.958 161.359 147.273 
146.886 147.472 148.27 146.422 147.035 147.819 148.467 149.301 145.944 
146.541 147.326 147.99 148.827 149.49 150.342 145.595 146.104 146.892 
147.517 148.371 149.017 149.835 150.497 151.37 145.38 145.817 146.56 
147.126 147.984 148.604 149.413 149.998 150.768 151.479 152.377 145.15 
145.58 146.227 146.77 147.565 148.213 149.044 149.624 150.362 150.921 
151.688 152.434 153.296 144.936 145.32 145.911 146.388 147.093 147.726 
148.533 149.203 149.988 150.567 151.306 151.867 152.617 153.301 154.063 
144.856 145.167 145.768 146.128 146.798 147.286 148.03 148.644 149.407 
150.082 150.855 151.5 152.236 152.792 153.464 154.053 154.732 144.836 
145.136 145.729 146.05 146.706 147.094 147.805 148.253 148.936 149.477 
150.184 150.887 151.656 152.36 153.048 153.596 154.19 154.737 155.373 
144.978 145.414 145.431 145.882 145.869 145.868 146.408 146.405 146.908 
146.535 146.414 147.006 147.003 147.651 147.559 148.067 147.34 147.182 
147.784 147.729 148.464 148.389 148.961 148.731 149.151 148.032 147.961 
148.573 148.553 149.293 149.257 149.851 149.63 150.016 149.767 150.258 
148.696 148.637 149.278 149.285 150.008 150.035 150.654 150.506 150.927 
150.658 151.157 151.006 151.7 149.471 149.392 150.062 150.008 150.711 
150.704 151.371 151.294 151.85 151.631 152.199 151.994 152.687 152.544 
153.188 150.143 150.163 150.833 150.811 151.47 151.424 152.082 152.036 
152.707 152.598 153.265 153.084 153.746 153.554 154.144 153.921 154.375 
150.556 150.691 151.329 151.45 152.071 152.113 152.714 152.728 153.394 
153.419 154.129 154.084 154.725 154.567 155.103 154.873 155.335 155.061 
155.512 150.912 151.732 151.437 151.719 152.854 152.384 152.679 152.308 
152.539 154.463 153.746 154.003 153.405 153.618 153.123 153.256 156.357 
155.559 155.77 154.93 155.051 154.336 154.468 153.883 154.007 158.012 
157.419 157.659 156.807 156.87 155.953 156.013 155.243 155.38 154.729 
154.826 159.214 158.871 159.227 158.607 158.755 157.869 157.9 156.961 
157.01 156.199 156.245 155.523 155.467 160.363 160.021 160.479 160.027 
160.309 159.656 159.779 158.908 158.916 157.958 157.901 157.001 156.87 
156.058 155.852 161.798 161.328 161.805 161.298 161.618 161.082 161.294 
160.643 160.714 159.858 159.777 158.779 158.594 157.586 157.331 156.408 
156.122 163.262 162.819 163.241 162.696 162.966 162.396 162.595 162.03 
162.134 161.469 161.403 160.567 160.362 159.388 159.104 158.056 157.718 
156.707 156.371 150.623 150.632 150.859 151.442 150.854 151.003 151.559 
151.771 152.53 150.909 151.233 151.805 151.982 152.704 153.041 154.081 
150.492 151.102 151.772 152.151 152.863 153.238 154.258 154.765 155.945 
149.873 150.56 151.344 151.946 152.746 153.284 154.274 154.874 156.002 
156.568 157.573 149.419 150.013 150.83 151.475 152.354 153.024 154.022 
154.735 155.779 156.447 157.363 157.924 158.705 149.074 149.622 150.394 
151.009 151.864 152.565 153.536 154.325 155.315 156.056 156.912 157.551 
158.353 158.946 159.796 148.7 149.24 149.952 150.558 151.347 152.038 
152.945 153.744 154.706 155.489 156.359 157.042 157.907 158.579 159.589 
160.214 161.251 148.33 148.832 149.495 150.075 150.82 151.486 152.348 
153.118 154.062 154.852 155.76 156.485 157.415 158.155 159.265 160.028 
161.209 161.808 162.799 150.088 149.198 149.764 150.072 148.252 148.831 
149.136 149.812 150.223 147.338 147.872 148.082 148.768 149.109 149.887 
150.195 146.361 146.938 147.089 147.699 147.918 148.642 148.847 149.621 
149.725 145.118 145.837 145.992 146.667 146.828 147.469 147.583 148.237 
148.301 149.015 149.095 143.72 144.476 144.604 145.401 145.529 146.281 
146.355 147.015 147.054 147.686 147.782 148.477 148.661 142.461 143.106 
143.195 143.937 144.021 144.816 144.866 145.652 145.708 146.449 146.557 
147.258 147.432 148.141 148.351 141.397 141.937 141.997 142.61 142.683 
143.351 143.403 144.122 144.203 145.002 145.17 145.983 146.183 146.932 
147.123 147.834 148.017 140.41 140.909 140.933 141.482 141.551 142.14 
142.22 142.815 142.901 143.57 143.748 144.549 144.811 145.632 145.873 
146.616 146.817 147.507 147.689 139.833 139.063 139.754 140.355 138.304 
138.996 139.668 140.336 140.983 137.724 138.319 139.027 139.683 140.403 
141.034 141.683 137.445 137.886 138.597 139.142 139.888 140.492 141.198 
141.757 142.38 137.405 137.74 138.443 138.859 139.592 140.076 140.796 
141.314 142.001 142.508 143.207 137.478 137.754 138.446 138.798 139.533 
139.911 140.63 141.032 141.763 142.216 142.996 143.481 144.284 137.762 
137.913 138.61 138.867 139.622 139.936 140.689 141.006 141.769 142.124 
142.951 143.371 144.217 144.645 145.414 138.326 138.349 139.046 139.156 
139.9 140.11 140.885 141.152 141.939 142.24 143.061 143.417 144.253 
144.634 145.401 145.753 146.413 138.956 138.968 139.61 139.665 140.345 
140.471 141.204 141.41 142.183 142.446 143.23 143.544 144.325 144.679 
145.418 145.76 146.417 146.719 147.305 139.447 140.334 139.961 140.112 
141.408 140.918 141.12 140.688 140.866 142.848 142.176 142.377 141.812 
142.041 141.528 141.741 144.435 143.725 143.898 143.222 143.44 142.824 
143.052 142.483 142.719 145.973 145.284 145.443 144.766 144.956 144.305 
144.511 143.873 144.08 143.495 143.742 147.591 146.857 147.033 146.307 
146.512 145.837 146.064 145.388 145.574 144.903 145.101 144.526 144.794 
149.274 148.552 148.761 147.976 148.184 147.445 147.705 146.998 147.214 
146.466 146.622 145.928 146.136 145.578 145.849 150.886 150.234 150.477 
149.725 149.898 149.141 149.357 148.659 148.889 148.151 148.289 147.508 
147.629 146.952 147.147 146.602 146.828 152.47 151.844 152.125 151.409 
151.565 150.805 150.946 150.255 150.457 149.789 149.941 149.18 149.242 
148.473 148.562 147.914 148.069 147.529 147.704 148.341 148.757 148.853 
149.507 149.326 149.365 150.086 150.132 150.865 150.082 150.076 150.893 
150.863 151.69 151.646 152.465 150.819 150.897 151.798 151.8 152.707 
152.626 153.496 153.378 154.207 151.346 151.555 152.509 152.674 153.639 
153.669 154.563 154.47 155.298 155.151 155.915 151.871 152.068 153.106 
153.338 154.438 154.574 155.611 155.57 156.528 156.347 157.237 156.95 
157.726 152.555 152.72 153.887 154.076 155.391 155.521 156.843 156.798 
158.038 157.808 158.957 158.564 159.566 159.012 159.812 153.166 153.442 
154.687 154.969 156.413 156.646 158.163 158.23 159.653 159.506 160.766 
160.445 161.52 161.031 161.885 161.217 161.852 153.529 153.945 155.182 
155.649 157.07 157.553 159.064 159.442 160.847 160.992 162.135 162.056 
162.943 162.726 163.419 163.066 163.582 163.036 163.381 134.397 133.486 
133.956 134.018 132.86 133.138 133.225 133.636 133.836 132.846 132.768 
132.838 133.018 133.281 133.689 134.167 133.445 133.03 132.977 132.862 
133.094 133.334 133.865 134.29 134.908 134.366 133.786 133.604 133.209 
133.292 133.292 133.736 134.069 134.638 135.052 135.571 135.319 134.729 
134.552 134.007 134.002 133.682 133.964 134.018 134.495 134.783 135.263 
135.638 136.154 136.277 135.684 135.566 135.025 135.063 134.586 134.781 
134.479 134.854 134.816 135.314 135.474 136.06 136.366 137.053 137.334 
136.708 136.604 136.055 136.118 135.668 135.862 135.452 135.742 135.444 
135.891 135.797 136.407 136.509 137.236 137.474 138.225 138.413 137.821 
137.721 137.13 137.147 136.684 136.864 136.492 136.756 136.416 136.769 
136.541 137.055 137.014 137.667 137.787 138.49 138.69 139.342 134.921 
134.563 135.024 135.598 134.392 134.736 135.379 135.781 136.419 134.681 
134.759 135.4 135.676 136.367 136.707 137.416 135.361 135.257 135.807 
135.872 136.526 136.744 137.443 137.776 138.532 136.037 135.971 136.482 
136.423 136.985 137.023 137.661 137.863 138.595 138.932 139.689 136.658 
136.607 137.184 137.125 137.676 137.595 138.16 138.187 138.869 139.074 
139.834 140.112 140.819 137.513 137.329 137.926 137.832 138.409 138.312 
138.858 138.787 139.405 139.46 140.177 140.346 141.062 141.257 141.909 
138.596 138.305 138.817 138.621 139.139 139.022 139.554 139.487 140.074 
140.063 140.707 140.766 141.431 141.557 142.21 142.367 142.988 139.643 
139.363 139.774 139.519 139.932 139.748 140.221 140.144 140.707 140.702 
141.293 141.309 141.885 141.947 142.538 142.674 143.28 143.437 144.002 
135.314 135.969 135.787 136.124 136.766 136.499 136.856 136.663 137.102 
137.792 137.431 137.836 137.529 138.019 137.785 138.356 138.941 138.561 
139.012 138.649 139.147 138.824 139.376 139.141 139.762 140.056 139.708 
140.127 139.811 140.25 139.949 140.411 140.161 140.702 140.539 141.154 
141.113 140.774 141.139 140.84 141.221 140.946 141.354 141.12 141.624 
141.456 142.062 141.923 142.544 142.167 141.809 142.178 141.846 142.254 
141.927 142.36 142.062 142.585 142.381 143.019 142.867 143.521 143.337 
143.939 143.232 142.87 143.243 142.909 143.352 143.028 143.496 143.155 
143.649 143.377 143.966 143.811 144.452 144.313 144.911 144.721 145.278 
144.228 143.907 144.235 143.933 144.323 144.075 144.518 144.262 144.695 
144.423 144.886 144.701 145.251 145.156 145.731 145.624 146.166 146.01 
146.531 150.014 149.553 149.559 149.068 148.894 148.997 148.517 148.582 
148.134 148.161 148.28 147.835 147.97 147.564 147.662 147.246 147.531 
147.6 147.12 147.237 146.806 146.998 146.577 146.727 146.241 146.861 
146.981 146.434 146.505 145.93 146.115 145.619 145.89 145.365 145.567 
144.967 146.049 146.218 145.65 145.747 145.067 145.18 144.565 144.82 
144.281 144.556 143.966 144.176 143.571 145.351 145.41 144.841 144.912 
144.259 144.317 143.675 143.811 143.251 143.467 142.919 143.144 142.595 
142.813 142.317 144.882 144.818 144.223 144.188 143.576 143.576 142.989 
143.029 142.468 142.553 142 142.151 141.64 141.86 141.421 141.66 
141.265 144.465 144.386 143.766 143.668 143.045 142.99 142.42 142.419 
141.868 141.875 141.305 141.344 140.822 140.967 140.55 140.784 140.42 
140.663 140.296 
POINT_DATA 1002
SCALARS Distance double
LOOKUP_TABLE default
139.806 138.957 138.908 139.767 138.866 140.701 139.891 138.878 140.864 
141.97 140.208 139.016 141.295 142.396 143.575 140.585 139.398 141.789 
142.913 144.054 145.133 140.951 140.005 142.091 143.289 144.475 145.629 
146.667 141.355 140.628 142.306 143.542 144.86 146.125 147.29 148.326 
141.838 141.183 142.699 143.916 145.286 146.601 147.828 148.953 149.952 
142.426 141.792 143.306 144.534 145.857 147.072 148.268 149.457 150.552 
151.504 143.157 142.559 144.025 145.267 146.609 147.746 148.833 150.039 
151.212 152.225 153.085 137.953 137.94 136.871 136.911 135.888 137.878 
135.938 134.984 136.833 137.748 134.885 134.003 135.771 136.631 137.813 
133.657 133.092 134.531 135.57 136.769 138.366 132.733 132.689 133.291 
134.485 135.882 137.445 139.189 132.721 133.038 132.783 133.722 135.176 
136.642 138.284 139.928 133.552 133.905 133.319 133.769 134.932 136.215 
137.557 139.138 140.624 134.63 134.844 134.402 134.511 135.223 136.27 
137.374 138.668 140.117 141.439 135.625 135.535 136.486 136.569 137.583 
135.517 137.851 138.954 136.767 135.841 139.401 140.399 138.259 137.274 
136.634 140.966 141.781 139.971 138.946 138.207 137.7 142.394 143.147 
141.6 140.72 139.96 139.389 138.898 143.808 144.515 143.122 142.405 
141.683 141.098 140.611 140.226 145.246 145.83 144.664 144.085 143.423 
142.762 142.254 141.868 141.575 146.604 147.054 146.129 145.68 145.163 
144.515 143.924 143.518 143.172 142.822 143.91 144.408 145.639 144.902 
146.33 147.71 145.28 146.886 148.474 150.026 145.728 147.251 149 
150.705 152.364 146.326 147.69 149.382 151.174 152.822 154.461 146.837 
148.16 149.796 151.584 153.189 154.738 156.47 147.223 148.489 150.077 
151.878 153.521 155.033 156.751 158.62 147.633 148.812 150.249 151.947 
153.663 155.297 157.008 158.845 160.548 148.051 149.185 150.483 151.972 
153.616 155.382 157.187 158.904 160.475 161.801 144.672 146.631 145.837 
149.009 148.094 147.341 151.678 150.808 149.834 148.733 154.207 153.661 
152.727 151.374 149.908 156.427 156.133 155.447 154.285 152.717 151.165 
158.652 158.355 157.718 156.804 155.572 154.014 152.439 160.756 160.494 
159.829 158.991 158 156.693 155.081 153.49 162.239 162.169 161.634 
160.964 160.186 159.047 157.523 155.863 154.338 162.908 163.262 163.808 
164.011 164.686 163.03 164.902 165.495 163.839 162.586 165.911 166.019 
165.014 163.729 162.156 166.373 166.113 166.015 164.929 163.33 161.263 
166.004 165.834 165.962 165.398 164.076 162.034 159.706 165.412 165.397 
165.258 164.98 164.181 162.482 160.187 157.911 164.909 164.761 164.705 
164.38 163.843 162.617 160.609 158.329 156.209 164.062 163.693 164.043 
163.715 163.163 162.206 160.626 158.599 156.536 154.683 161.806 162.814 
161.629 162.691 161.533 163.9 162.744 161.298 163.979 164.9 162.428 
160.548 163.938 164.842 165.421 161.423 159.704 163.18 164.418 165.056 
165.622 160.475 159.149 161.921 163.395 164.495 165.18 165.686 159.776 
158.373 160.998 162.234 163.528 164.51 165.114 165.433 158.709 157.159 
160.128 161.306 162.423 163.399 164.063 164.528 164.8 157.345 155.994 
158.813 160.15 161.28 162.174 162.758 163.178 163.572 163.795 148.059 
149.215 149.102 150.41 150.153 150.516 151.612 151.206 151.851 151.935 
152.91 152.29 153.192 153.344 153.497 154.242 153.316 154.61 154.711 
155.044 155.355 155.281 154.12 155.917 156.004 156.455 157.171 157.422 
155.956 154.749 156.899 157.166 157.594 158.547 159.198 159.215 156.539 
155.366 157.672 158.227 158.668 159.544 160.312 160.577 160.6 146.71 
147.651 146.299 147.16 145.811 148.65 146.657 145.369 148.164 149.669 
146.289 145.132 147.733 149.221 150.619 146.035 144.977 147.36 148.863 
150.159 151.532 145.731 144.745 146.919 148.418 149.854 151.078 152.461 
145.488 144.576 146.518 147.844 149.341 150.775 152.07 153.328 145.44 
144.555 146.38 147.5 148.751 150.136 151.661 152.984 154.088 145.417 