# vtk DataFile Version 4.0
vtk output
ASCII
DATASET POLYDATA
POINTS 1002 float
-83.2637 -79.0274 70.8757 -83.2949 -78.3484 69.8235 -82.7078 -78.2155 70.4467 
-82.6751 -78.9842 71.5913 -82.1625 -78.0224 71.188 -83.3582 -79.755 72.1482 
-82.1596 -78.8983 72.4656 -81.6835 -77.8345 72.1138 -82.7955 -79.7835 73.0294 
-83.5014 -80.5842 73.697 -81.7326 -78.7991 73.5219 -81.1516 -77.7886 73.1657 
-82.2926 -79.8078 74.0524 -82.8893 -80.721 74.67 -83.3551 -81.7579 75.2565 
-81.2154 -78.7821 74.6329 -80.5077 -77.9087 74.1918 -81.8285 -79.8531 75.1401 
-82.3154 -80.939 75.6897 -82.7026 -82.1015 76.18 -83.0417 -83.3439 76.6466 
-80.6354 -78.9574 75.7381 -79.9798 -78.1741 75.2325 -81.2753 -79.9889 76.2368 
-81.7689 -81.241 76.7053 -82.1478 -82.5154 77.1846 -82.5376 -83.7927 77.6757 
-82.9951 -84.9271 78.2354 -80.2001 -79.391 76.895 -79.6137 -78.613 76.4225 
-80.7817 -80.2996 77.4142 -81.2647 -81.5854 77.8406 -81.6687 -82.9637 78.2862 
-82.0913 -84.2151 78.8508 -82.5665 -85.3594 79.449 -82.9831 -86.374 80.0372 
-79.7786 -79.9155 77.9842 -79.196 -79.0689 77.6411 -80.3904 -80.7765 78.5164 
-80.8837 -81.9828 79.0592 -81.2844 -83.4074 79.5207 -81.6679 -84.7 80.0542 
-82.0836 -85.8678 80.6372 -82.4554 -86.9962 81.133 -82.6863 -88.0833 81.5604 
-79.3223 -80.2948 78.8991 -78.8312 -79.3445 78.7036 -79.9282 -81.2872 79.3621 
-80.4419 -82.4929 80.0292 -80.8685 -83.886 80.6258 -81.2591 -85.2471 81.144 
-81.6268 -86.5418 81.6952 -81.9697 -87.8131 82.1786 -82.2063 -89.0122 82.5373 
-82.3258 -90.1129 82.8523 -79.0992 -80.5962 79.8048 -78.773 -79.5337 79.6613 
-79.5324 -81.8123 80.1803 -79.9073 -83.1393 80.8117 -80.283 -84.4715 81.4466 
-80.746 -85.7833 81.9673 -81.1952 -87.1931 82.537 -81.5686 -88.6821 83.1584 
-81.8528 -90.0404 83.6595 -82.0071 -91.1799 84.0051 -82.0804 -92.1452 84.2683 
-82.9402 -77.5645 69.2082 -82.3679 -77.2816 69.9087 -82.5174 -76.6567 68.6602 
-81.9497 -76.2395 69.4597 -82.0872 -75.6561 68.2171 -81.8123 -76.9553 70.749 
-81.4195 -75.1675 69.033 -81.6234 -74.5657 67.8091 -81.3152 -75.8895 70.3394 
-81.2277 -76.8039 71.7432 -80.7514 -74.0765 68.574 -81.0155 -73.4637 67.4692 
-80.6572 -74.8746 69.8316 -80.6349 -75.8929 71.3292 -80.5277 -76.9429 72.7949 
-80.0756 -73.0009 68.3275 -80.5423 -72.4475 67.453 -79.9418 -73.7915 69.3873 
-80.0026 -74.9464 70.8949 -79.9179 -76.1143 72.4583 -79.8371 -77.1243 73.8122 
-79.8904 -71.9343 68.5611 -80.6487 -71.4511 67.8551 -79.5094 -72.6118 69.3786 
-79.4784 -73.7472 70.7443 -79.4098 -75.021 72.3443 -79.3032 -76.0863 73.6362 
-79.3971 -77.2813 74.9439 -80.3579 -70.9686 69.1156 -81.204 -70.5279 68.44 
-79.7597 -71.5395 69.8193 -79.4296 -72.4667 70.9949 -79.1283 -73.6941 72.539 
-78.917 -74.7925 73.7697 -78.9622 -76.0329 74.9014 -79.0821 -77.6332 76.3196 
-81.0271 -70.3895 69.7235 -81.8311 -69.9516 69.0255 -80.435 -70.9313 70.4527 
-79.9939 -71.5918 71.4928 -79.4055 -72.5405 72.9112 -78.8534 -73.5903 74.111 
-78.7377 -74.7705 75.0746 -78.7986 -76.3894 76.3576 -78.76 -78.0692 77.719 
-81.6255 -70.2486 70.3848 -82.4403 -69.8239 69.6597 -81.0367 -70.8097 71.1969 
-80.6814 -71.3284 72.1681 -80.1312 -71.9315 73.4116 -79.3195 -72.7515 74.5868 
-78.8509 -73.8078 75.4647 -78.8132 -75.2607 76.5106 -78.7311 -76.9431 77.8213 
-78.6254 -78.3774 78.9064 -82.5436 -70.1761 70.9813 -81.718 -70.6595 71.9405 
-82.6646 -70.4271 72.8811 -81.9027 -70.7759 74.0346 -82.8258 -70.2738 75.1248 
-81.2452 -71.205 72.9466 -82.2012 -70.6912 76.0651 -83.0555 -70.3846 76.941 
-81.4758 -71.3851 74.9526 -80.8892 -71.7124 74.0262 -82.4947 -71.3475 77.4154 
-83.2759 -71.5443 77.9921 -81.693 -71.7667 76.5827 -80.9545 -72.1394 75.8407 
-80.1347 -72.329 75.1822 -82.5885 -72.8672 78.4861 -83.3731 -73.2468 78.9167 
-81.7918 -72.8608 77.8632 -80.9459 -72.9315 77.3867 -80.0825 -72.9654 76.8979 
-79.3271 -73.2313 76.1638 -82.5859 -74.3698 79.8649 -83.4577 -74.6901 80.1892 
-81.7917 -74.2325 79.3383 -80.9685 -74.1062 78.908 -80.1029 -73.956 78.5764 
-79.4452 -74.086 77.9353 -79.0409 -74.5776 77.1093 -82.7737 -75.6393 81.3131 
-83.6746 -75.9156 81.5156 -81.9401 -75.502 80.9104 -81.1705 -75.4152 80.4538 
-80.3202 -75.2736 80.1204 -79.6239 -75.2809 79.6662 -79.2393 -75.643 78.9518 
-78.9466 -76.2457 78.2858 -83.1151 -76.9257 82.5333 -83.9382 -77.1315 82.6344 
-82.2676 -76.8136 82.2575 -81.5354 -76.7954 81.858 -80.762 -76.7863 81.5059 
-79.9649 -76.7783 81.1633 -79.4418 -76.9125 80.6289 -79.1138 -77.2601 79.9791 
-78.7924 -77.7743 79.4012 -83.4029 -78.1821 83.621 -84.1281 -78.2933 83.6253 
-82.5639 -78.1243 83.4564 -81.8342 -78.1322 83.1578 -81.1978 -78.212 82.8414 
-80.465 -78.3157 82.5613 -79.7894 -78.3954 82.1827 -79.382 -78.4925 81.6059 
-79.0953 -78.7007 80.9249 -78.8429 -79.0685 80.255 -79.1203 -80.6455 80.8812 
-79.2453 -80.3683 81.723 -79.4401 -82.4799 82.6459 -79.4233 -80.202 82.5695 
-79.5233 -82.3491 83.6391 -79.4903 -84.5745 84.5589 -79.702 -80.112 83.2287 
-79.6893 -82.1845 84.3423 -79.6296 -84.3701 85.3505 -79.7133 -86.1428 85.9597 
-80.2706 -79.9684 83.6351 -80.1839 -81.9617 84.6347 -80.1057 -84.1182 85.6191 
-80.1082 -85.9791 86.5322 -80.4426 -87.7915 87.2254 -80.9638 -79.7263 83.9215 
-80.8924 -81.6269 84.8306 -80.9036 -83.887 85.6422 -80.8383 -85.9796 86.7497 
-80.8522 -88.0247 87.9341 -81.0175 -90.699 88.9069 -81.5151 -79.513 84.2261 
-81.3904 -81.2464 85.2072 -81.5075 -83.5549 85.9824 -81.5135 -85.9667 87.0234 
-81.328 -88.2496 88.3932 -81.2232 -91.0249 89.5708 -81.1954 -94.3245 90.4046 
-82.1409 -79.427 84.5111 -81.8286 -80.9996 85.5725 -81.8492 -83.1533 86.4959 
-81.9126 -85.6853 87.5366 -81.6934 -88.1559 88.7884 -81.4711 -90.9188 89.9007 
-81.4679 -94.2096 90.7248 -81.4965 -97.4044 91.2942 -83.0047 -79.4126 84.6827 
-82.5878 -80.8972 85.7332 -82.4036 -82.8568 86.6736 -82.387 -85.2742 87.7593 
-82.167 -87.7971 89.0196 -81.8366 -90.4947 90.0524 -81.7647 -93.6554 90.8435 
-81.8604 -96.9091 91.5317 -81.8618 -99.6943 91.9298 -83.8501 -79.4221 84.6938 
-83.5048 -80.8242 85.7415 -83.2255 -82.6482 86.5886 -83.0821 -84.9021 87.5219 
-82.8635 -87.3718 88.7992 -82.4688 -90.0055 89.9758 -82.1846 -92.9801 90.8308 
-82.1292 -96.1498 91.6551 -82.0801 -99.0652 92.3215 -81.9274 -101.525 92.4771 
-79.3501 -82.1125 81.2226 -79.4325 -84.2572 83.1314 -79.5024 -83.7023 81.743 
-79.5325 -86.146 84.8693 -79.4647 -85.7793 83.4994 -79.6976 -85.1087 82.2835 
-80.2149 -87.6879 86.2532 -80.0204 -87.4862 85.0662 -79.9058 -86.9825 83.7955 
-80.1841 -86.3487 82.7377 -80.978 -90.4079 88.0375 -80.9825 -89.9461 86.9454 
-80.786 -89.2635 85.6658 -80.6059 -88.5017 84.3485 -80.794 -87.8412 83.3268 
-81.0781 -94.4663 89.9804 -81.1779 -94.1066 89.2716 -81.2645 -93.1648 88.1748 
-81.1147 -91.8457 86.6984 -81.0354 -90.647 85.2791 -81.245 -89.6702 84.1602 
-81.1343 -98.133 91.1535 -80.8919 -98.3976 90.9014 -80.916 -97.8947 90.2855 
-80.9834 -96.4384 89.071 -81.0071 -94.5167 87.5956 -81.208 -92.8147 86.2621 
-81.5488 -91.3831 84.9627 -81.5406 -100.705 91.663 -81.1249 -101.466 91.4213 
-80.8551 -101.708 91.0881 -80.8144 -100.927 90.3126 -80.8466 -99.0025 89.1796 
-80.9958 -96.629 88.1042 -81.3567 -94.491 86.9598 -81.7369 -92.7049 85.4972 
-81.7832 -102.708 91.9809 -81.546 -103.766 91.4697 -81.2523 -104.541 91.0453 
-81.0687 -104.577 90.4891 -81.0154 -103.365 89.6943 -81.007 -101.011 88.9702 
-81.1527 -98.2378 88.3316 -81.4901 -95.7234 87.2932 -81.8245 -93.7215 85.777 
-81.702 -104.125 92.4052 -81.6368 -105.648 91.6281 -81.5665 -107.089 91.7979 
-81.4563 -109.1 90.9326 -81.7441 -110.055 91.0137 -81.4764 -107.012 90.9255 
-81.3323 -112.327 90.1451 -82.0293 -112.323 90.2813 -81.0516 -110.655 90.1263 
-81.1965 -107.812 90.3093 -81.2751 -114.368 89.1729 -82.1706 -113.52 89.3905 
-80.4371 -113.583 89.1315 -80.5821 -111.082 89.378 -81.0745 -107.448 89.6483 
-81.468 -114.964 88.0494 -82.4388 -113.63 88.4973 -80.283 -114.959 87.9992 
-79.9748 -113.263 88.4123 -80.7169 -109.982 88.8765 -81.1492 -105.575 89.0881 
-82.1322 -114.294 87.3967 -83.072 -112.687 88.0675 -80.9474 -114.874 87.2225 
-80.2684 -113.919 87.683 -80.6697 -111.339 88.3288 -81.2266 -107.253 88.7066 
-81.2308 -102.475 88.7659 -83.0492 -112.508 87.4385 -83.7988 -110.826 88.0118 
-82.0227 -113.476 87.1721 -81.2339 -113.134 87.4385 -81.2299 -111.16 88.0027 
-81.5389 -107.658 88.4288 -81.5132 -103.237 88.5563 -81.3976 -99.0126 88.2307 
-83.8076 -109.791 87.7035 -84.3453 -108.277 87.987 -82.9787 -110.807 87.5325 
-82.1683 -110.85 87.5827 -81.864 -109.434 87.8526 -81.9242 -106.557 88.1423 
-81.8483 -102.838 88.224 -81.6849 -99.1521 87.895 -81.6939 -96.1005 87.0212 
-84.3068 -106.525 87.8259 -84.7428 -105.365 87.9051 -83.6658 -107.316 87.8248 
-82.9386 -107.433 87.8303 -82.4497 -106.488 87.8518 -82.2721 -104.342 87.9092 
-82.1555 -101.453 87.8514 -82.0165 -98.571 87.4421 -81.9601 -96.0982 86.5819 
-82.0006 -94.0035 85.4251 -81.9533 -101.692 92.985 -81.7692 -104.327 92.8377 
-82.2693 -101.552 93.2687 -82.4035 -104.098 93.1091 -83.0474 -101.054 93.2036 
-81.9087 -107.069 92.0756 -83.3994 -103.526 93.2103 -83.8033 -100.16 92.8362 
-82.7588 -106.465 92.3543 -82.3185 -109.414 91.1915 -83.9505 -102.471 92.9633 
-84.1615 -98.6485 92.1567 -83.582 -105.544 92.601 -82.9871 -108.154 91.3728 
-82.576 -110.969 90.3948 -84.1096 -100.451 92.1424 -84.6321 -96.4454 91.2831 
-83.8797 -104.024 92.4179 -83.5771 -106.711 91.5595 -83.129 -109.185 90.4958 
-82.7701 -111.731 89.6319 -84.757 -97.6173 91.1632 -85.5804 -94.0972 90.5314 
-84.1503 -101.38 91.6824 -83.9792 -104.634 91.5077 -83.8948 -107.284 90.7527 
-83.598 -109.622 90.0199 -83.2708 -111.549 89.1209 -85.8998 -94.9634 90.4904 
-86.5533 -92.231 89.8662 -85.0575 -98.1516 90.9786 -84.4739 -101.486 91.163 
-84.4139 -104.601 90.9011 -84.4274 -107.143 90.4326 -84.1639 -109.02 89.7765 
-83.9041 -110.283 88.8375 -86.8412 -93.0343 89.8434 -87.1815 -90.8315 88.9934 
-86.2694 -95.4728 90.4872 -85.4963 -98.1534 90.7994 -84.9058 -101.098 90.7484 
-84.7418 -103.864 90.4709 -84.6756 -105.937 90.0342 -84.5088 -107.346 89.3338 
-84.4041 -108.172 88.5298 -87.384 -91.5056 88.8752 -87.599 -89.5521 87.9022 
-87.1382 -93.5478 89.7549 -86.6885 -95.6133 90.3044 -85.9427 -97.9085 90.4253 
[...]
CELL_DATA 2000
SCALARS Distance double
LOOKUP_TABLE default
133.256 133.195 133.562 134.295 133.241 133.574 134.373 134.728 135.583 
133.43 133.723 134.579 134.897 135.796 136.127 137.026 133.68 133.976 
134.873 135.182 136.11 136.406 137.323 137.612 138.516 134.024 134.276 
135.209 135.51 136.48 136.771 137.73 137.987 138.956 139.197 140.189 
134.613 134.753 135.73 135.934 136.961 137.206 138.246 138.479 139.525 
139.745 140.808 141.011 142.047 135.31 135.428 136.393 136.556 137.6 
137.801 138.902 139.101 140.207 140.397 141.491 141.682 142.731 142.893 
143.853 135.893 136.049 136.949 137.176 138.194 138.456 139.557 139.801 
140.911 141.116 142.213 142.398 143.476 143.618 144.629 144.703 145.629 
136.478 136.584 137.481 137.69 138.723 139 140.091 140.385 141.462 
141.742 142.824 143.09 144.217 144.419 145.537 145.605 146.639 146.59 
147.531 132.613 131.574 132.228 132.504 130.488 131.156 131.434 132.129 
132.487 129.358 130.037 130.295 131.024 131.391 132.159 132.62 128.154 
128.839 129.054 129.832 130.219 131.049 131.534 132.337 132.851 127.071 
127.623 127.802 128.547 128.974 129.868 130.43 131.265 131.795 132.577 
133.154 126.483 126.739 126.898 127.409 127.862 128.681 129.344 130.199 
130.779 131.539 132.119 132.952 133.682 126.457 126.464 126.647 126.826 
127.271 127.797 128.502 129.229 129.873 130.567 131.147 131.938 132.694 
133.604 134.418 126.785 126.676 126.953 126.917 127.391 127.567 128.25 
128.66 129.334 129.82 130.421 131.054 131.822 132.672 133.556 134.393 
135.129 127.36 127.174 127.558 127.445 127.994 127.975 128.645 128.744 
129.401 129.581 130.189 130.543 131.305 131.952 132.887 133.642 134.478 
135.127 135.786 127.907 129.033 128.322 128.159 130.33 129.572 129.428 
128.726 128.674 131.606 130.882 130.768 130.073 130.031 129.335 129.324 
132.911 132.166 132.062 131.388 131.349 130.688 130.629 129.962 129.939 
134.362 133.554 133.46 132.713 132.677 131.987 131.939 131.241 131.174 
130.539 130.608 135.925 135.091 135.03 134.209 134.189 133.404 133.402 
132.627 132.644 131.889 132.021 131.375 131.718 137.523 136.703 136.687 
135.85 135.873 135.034 135.085 134.239 134.337 133.518 133.733 132.991 
133.364 132.737 133.259 139.081 138.319 138.349 137.538 137.612 136.785 
136.906 136.046 136.201 135.338 135.571 134.785 135.117 134.438 134.841 
134.288 134.752 140.519 139.854 139.927 139.184 139.279 138.517 138.682 
137.899 138.112 137.275 137.521 136.68 136.977 136.2 136.529 135.849 
136.195 135.651 136.035 136.948 137.23 137.6 138.837 137.655 138.01 
139.323 139.781 141.2 138.143 138.493 139.795 140.272 141.664 142.135 
143.369 138.667 138.992 140.229 140.683 142.002 142.506 143.756 144.147 
145.339 139.177 139.486 140.642 141.06 142.325 142.814 144.132 144.569 
145.929 146.308 147.876 139.651 139.932 141.007 141.408 142.646 143.146 
144.532 145.03 146.503 146.966 148.591 149.124 150.936 140.182 140.39 
141.403 141.739 142.941 143.447 144.857 145.442 146.926 147.489 149.027 
149.666 151.345 152.084 153.772 140.788 140.948 141.919 142.167 143.291 
143.729 145.082 145.704 147.161 147.798 149.226 149.892 151.408 152.223 
153.83 154.64 156.079 141.327 141.522 142.45 142.686 143.712 144.069 
145.276 145.851 147.227 147.914 149.292 149.967 151.357 152.133 153.643 
154.525 155.983 156.725 157.886 137.205 139.098 138.117 138.287 141.456 
140.298 140.374 139.344 139.571 143.606 142.628 142.655 141.559 141.613 
140.656 140.898 145.641 144.687 144.835 143.781 143.808 142.736 142.836 
141.955 142.225 148.395 147.127 147.601 146.263 146.568 145.167 145.339 
144.08 144.326 143.352 143.671 151.688 150.392 151.183 149.656 150.294 
148.541 148.903 147.1 147.351 145.835 146.153 144.962 145.243 154.606 
153.67 154.557 153.365 154.106 152.559 152.969 151.062 151.184 149.273 
149.405 147.799 147.983 146.617 146.709 156.842 156.239 157.054 156.309 
157.004 155.994 156.403 154.924 154.934 153.1 152.957 151.173 151.109 
149.525 149.452 148.003 147.864 158.537 158.141 158.864 158.38 159.034 
158.403 158.886 157.894 158.014 156.53 156.327 154.587 154.317 152.623 
152.367 150.78 150.48 149.014 148.729 159.543 161.092 160.215 159.934 
162.735 161.86 161.665 160.614 160.199 164.256 163.557 163.415 162.395 
161.95 160.806 160.123 165.093 164.82 164.639 163.93 163.386 162.425 
161.624 160.47 159.349 165.106 165.204 164.979 164.686 164.086 163.493 
162.673 161.767 160.579 159.32 157.778 164.67 164.923 164.739 164.697 
164.196 163.877 163.167 162.556 161.458 160.388 158.797 157.448 155.727 
163.928 164.328 164.176 164.333 163.926 163.83 163.162 162.818 161.742 
160.992 159.376 158.248 156.403 155.228 153.564 162.704 163.334 163.106 
163.546 163.047 163.269 162.444 162.434 161.192 160.845 159.145 158.423 
156.503 155.606 153.832 152.962 151.466 161.023 161.801 161.442 162.114 
161.462 161.954 160.956 161.225 159.854 159.833 158.129 157.787 155.948 
155.382 153.662 153.006 151.518 150.847 149.578 159.548 159.902 160.188 
161.057 160.107 160.514 161.409 161.668 162.575 160.064 160.707 161.65 
161.946 162.729 163.1 163.957 159.378 160.472 161.529 162.064 162.648 
163.017 163.617 164.186 164.757 157.904 159.359 160.49 161.567 162.146 
162.691 163.019 163.574 164.015 164.628 164.866 156.255 157.605 158.62 
160.05 160.793 161.812 162.207 162.867 163.227 163.818 164.12 164.554 
164.541 155.022 156.03 156.848 158.086 158.843 160.12 160.703 161.772 
162.193 162.987 163.235 163.776 163.761 164.092 163.82 154.038 154.91 
155.626 156.554 157.192 158.24 158.784 159.97 160.392 161.546 161.719 
162.613 162.471 163.077 162.704 163.117 162.593 152.944 153.86 154.536 
155.429 156.007 156.84 157.266 158.16 158.47 159.516 159.658 160.708 
160.577 161.446 161.075 161.727 161.2 161.655 160.984 141.839 142.965 
142.614 143.03 144.162 143.822 144.348 143.907 144.352 145.42 145.094 
145.711 145.305 145.869 145.357 145.924 146.689 146.395 147.109 146.75 
147.456 146.981 147.686 147.141 147.868 147.98 147.709 148.539 148.233 
149.106 148.687 149.543 149.016 149.841 149.238 149.974 149.265 149.049 
149.953 149.716 150.691 150.388 151.349 150.922 151.827 151.272 152.091 
151.395 152.103 150.395 150.307 151.227 151.091 152.057 151.896 152.89 
152.646 153.626 153.234 154.171 153.582 154.434 153.65 154.414 151.325 
151.355 152.293 152.254 153.192 153.132 154.166 154.085 155.216 155.001 
156.112 155.674 156.659 156.006 156.831 156.022 156.708 152.152 152.244 
153.213 153.232 154.168 154.168 155.245 155.303 156.612 156.605 157.918 
157.639 158.693 158.15 158.922 158.255 158.829 158.091 158.526 141.342 
140.927 141.537 142.385 140.553 141.134 141.957 142.598 143.518 140.181 
140.787 141.625 142.214 143.113 143.777 144.747 139.744 140.394 141.264 
141.889 142.768 143.403 144.343 145.023 145.989 139.343 139.948 140.797 
141.464 142.324 143.003 143.9 144.604 145.554 146.259 147.23 139.08 
139.597 140.398 140.993 141.826 142.49 143.356 144.085 145.015 145.78 
146.746 147.492 148.459 138.88 139.366 140.141 140.656 141.463 142.039 
142.885 143.537 144.433 145.181 146.118 146.918 147.842 148.637 149.533 
138.661 139.146 139.885 140.393 141.16 141.715 142.541 143.135 143.985 
144.63 145.492 146.231 147.092 147.902 148.742 149.578 150.41 138.449 
138.9 139.576 140.076 140.775 141.351 142.133 142.768 143.584 144.207 
144.995 145.635 146.419 147.137 147.928 148.723 149.532 150.383 151.206 
138.577 139.127 139.102 139.65 139.782 139.675 140.201 140.201 140.826 
140.589 140.393 140.896 140.812 141.469 141.483 142.214 141.469 141.246 
141.72 141.566 142.204 142.191 142.968 142.976 143.711 142.325 142.123 
142.565 142.385 142.961 142.934 143.704 143.75 144.535 144.488 145.149 
143.122 142.949 143.371 143.189 143.733 143.686 144.476 144.521 145.39 
145.358 146.105 145.943 146.574 143.809 143.69 144.098 143.953 144.513 
144.476 145.32 145.368 146.329 146.305 147.151 146.982 147.669 147.423 
148.06 144.314 144.288 144.722 144.652 145.275 145.281 146.177 146.253 
147.233 147.261 148.127 148.04 148.77 148.567 149.238 148.976 149.653 
144.645 144.723 145.267 145.291 146.038 146.091 147.045 147.123 148.075 
148.107 148.929 148.92 149.684 149.621 150.382 150.201 150.945 150.658 
151.361 144.979 146.152 145.609 145.819 147.888 147.129 147.426 146.658 
146.854 149.693 148.983 149.31 148.512 148.744 147.854 147.991 151.388 
150.723 151.059 150.356 150.588 149.774 149.838 148.946 148.95 153.332 
152.555 152.99 152.159 152.482 151.612 151.729 150.768 150.706 149.78 
149.726 155.349 154.66 155.19 154.296 154.691 153.707 153.97 152.861 
152.914 151.72 151.666 150.599 150.564 156.99 156.549 157.072 156.401 
156.711 155.894 156.116 155.176 155.294 154.142 154.117 152.837 152.75 
151.546 151.425 158.419 158.052 158.604 158.063 158.347 157.666 157.788 
157.055 157.103 156.282 156.232 155.221 155.056 153.865 153.612 152.376 
152.075 159.901 159.514 160.144 159.6 160.004 159.291 159.494 158.672 
158.706 157.87 157.776 156.96 156.758 155.867 155.54 154.476 154.048 
152.884 152.455 144.639 144.326 144.836 145.719 144.152 144.622 145.638 
146.225 147.416 144.249 144.637 145.742 146.273 147.532 148.089 149.27 
144.407 144.828 145.918 146.443 147.653 148.211 149.368 149.87 150.958 
144.327 144.87 145.848 146.474 147.541 148.195 149.269 149.884 150.986 
151.558 152.765 144.022 144.619 145.492 146.177 147.143 147.881 148.925 
149.66 150.78 151.492 152.714 153.415 154.671 143.673 144.244 145.08 
145.731 146.675 147.402 148.481 149.266 150.448 151.228 152.437 153.211 
154.419 155.178 156.296 143.352 143.894 144.722 145.338 146.266 146.952 
147.999 148.802 149.984 150.846 152.04 152.851 153.992 154.785 155.916 
156.668 157.728 143.053 143.572 144.372 144.981 145.862 146.531 147.469 
148.25 149.314 150.246 151.401 152.333 153.45 154.298 155.416 156.24 
157.399 158.135 159.213 144.123 143.308 143.728 143.734 142.438 142.916 
142.941 143.338 143.46 141.507 142.074 142.239 142.627 142.709 143.144 
143.448 140.386 141.088 141.316 141.899 142.02 142.442 142.59 143.161 
143.54 139.046 139.814 139.988 140.787 140.941 141.59 141.658 142.236 
142.414 143.147 143.47 137.76 138.451 138.618 139.387 139.562 140.316 
140.389 141.081 141.157 141.911 142.126 142.952 143.212 136.544 137.217 
137.399 138.109 138.294 138.978 139.047 139.703 139.744 140.506 140.69 
141.556 141.827 142.657 142.896 135.234 135.928 136.018 136.817 136.949 
137.716 137.749 138.395 138.371 139.063 139.207 140.072 140.382 141.271 
141.565 142.36 142.596 133.988 134.566 134.531 135.289 135.346 136.208 
136.26 137.034 137.026 137.717 137.816 138.614 138.926 139.829 140.197 
141.044 141.333 142.09 142.328 133.36 132.589 133.211 133.804 131.983 
132.525 133.096 133.753 134.537 131.566 132.064 132.69 133.18 133.896 
134.596 135.457 131.309 131.763 132.468 132.896 133.591 134.101 134.899 
135.554 136.349 131.3 131.624 132.339 132.729 133.471 133.905 134.704 
135.187 136.007 136.513 137.289 131.6 131.769 132.487 132.734 133.528 
133.876 134.747 135.141 136.015 136.396 137.242 137.628 138.467 132.079 
132.18 132.916 133.054 133.86 134.088 134.983 135.295 136.202 136.528 
137.395 137.728 138.582 138.936 139.762 132.582 132.676 133.378 133.516 
134.27 134.476 135.303 135.583 136.443 136.75 137.594 137.913 138.745 
139.082 139.883 140.211 140.934 133.055 133.146 133.788 133.926 134.61 
134.816 135.565 135.846 136.641 136.958 137.76 138.089 138.891 139.228 
140.005 140.323 141.032 141.315 141.952 133.524 134.558 134.094 134.267 
135.85 135.258 135.423 134.897 135.102 137.303 136.671 136.858 136.201 
136.379 135.807 136.064 138.781 138.154 138.387 137.723 137.9 137.213 
137.414 136.837 137.133 140.43 139.702 139.958 139.27 139.484 138.778 
138.95 138.273 138.509 137.946 138.256 142.286 141.491 141.77 140.964 
141.209 140.417 140.609 139.848 140.048 139.385 139.66 139.094 139.401 
144.09 143.368 143.7 142.897 143.179 142.297 142.502 141.607 141.771 
140.973 141.189 140.539 140.811 140.24 140.507 145.819 145.129 145.506 
144.799 145.14 144.324 144.549 143.609 143.724 142.782 142.899 142.104 
142.3 141.657 141.883 141.305 141.511 147.643 146.892 147.266 146.57 
146.94 146.218 146.483 145.631 145.738 144.771 144.802 143.872 143.962 
143.184 143.353 142.694 142.871 142.266 142.424 143.119 143.642 143.732 
144.467 144.2 144.312 145.128 145.193 145.98 144.89 144.959 145.852 
145.909 146.763 146.768 147.589 145.807 145.805 146.8 146.778 147.736 
147.664 148.586 148.504 149.449 146.784 146.821 147.909 147.89 148.995 
148.863 149.916 149.71 150.754 150.574 151.595 147.544 147.738 148.859 
148.993 150.187 150.207 151.386 151.225 152.335 152.069 153.121 152.827 
153.751 148.038 148.377 149.535 149.825 151.057 151.286 152.564 152.643 
153.868 153.72 154.841 154.506 155.495 155.032 155.85 148.429 148.832 
150.094 150.46 151.806 152.115 153.548 153.768 155.22 155.24 156.58 
156.326 157.479 156.979 157.911 157.242 157.967 148.866 149.278 150.659 
151.074 152.587 152.954 154.593 154.879 156.573 156.694 158.271 158.134 
159.451 159.046 160.06 159.423 160.152 159.363 159.873 127.222 126.679 
126.931 127.069 126.385 126.498 126.598 126.917 127.262 126.406 126.315 
126.34 126.51 126.788 127.221 127.696 126.966 126.557 126.483 126.357 
126.516 126.777 127.176 127.663 128.135 128.024 127.388 127.253 126.756 
126.769 126.654 126.932 127.193 127.632 128.088 128.611 129.2 128.551 
128.416 127.753 127.676 127.188 127.309 127.167 127.541 127.745 128.352 
128.762 129.512 130.315 129.707 129.606 128.964 128.908 128.283 128.338 
127.853 128.132 127.963 128.576 128.762 129.622 129.962 130.829 131.424 
130.834 130.783 130.164 130.165 129.551 129.645 129.057 129.301 128.862 
129.383 129.266 130.058 130.228 131.071 131.332 132.054 132.492 131.957 
131.956 131.373 131.4 130.811 130.91 130.357 130.578 130.11 130.517 
130.229 130.823 130.769 131.43 131.562 132.18 132.41 132.968 127.679 
127.532 127.851 128.533 127.755 127.873 128.497 128.838 129.607 128.231 
128.249 128.814 128.944 129.619 129.941 130.681 128.695 128.758 129.334 
129.372 129.966 130.083 130.772 131.048 131.815 129.166 129.203 129.835 
129.904 130.522 130.547 131.192 131.3 132.072 132.31 133.119 129.997 
129.803 130.419 130.414 131.085 131.125 131.785 131.827 132.55 132.687 
133.465 133.658 134.36 131.207 130.826 131.328 131.115 131.73 131.704 
132.39 132.431 133.131 133.209 133.916 134.035 134.68 134.812 135.391 
132.382 132.039 132.443 132.113 132.595 132.424 133.057 133.048 133.753 
133.795 134.469 134.511 135.115 135.165 135.723 135.818 136.399 133.317 
133.087 133.488 133.186 133.59 133.328 133.843 133.742 134.387 134.406 
135.063 135.083 135.666 135.656 136.194 136.212 136.77 136.863 137.456 
128.107 128.979 128.725 129.235 130.042 129.719 130.188 129.959 130.514 
131.071 130.766 131.189 130.935 131.417 131.226 131.766 132.15 131.774 
132.157 131.879 132.324 132.117 132.638 132.477 133.061 133.407 132.934 
133.3 132.9 133.339 133.042 133.58 133.382 134.006 133.845 134.503 
134.611 134.198 134.568 134.143 134.586 134.181 134.707 134.401 135.038 
134.84 135.54 135.364 136.058 135.638 135.309 135.706 135.378 135.845 
135.478 135.978 135.61 136.195 135.929 136.628 136.437 137.162 136.959 
137.647 136.672 136.338 136.781 136.477 136.979 136.676 137.185 136.854 
137.398 137.106 137.758 137.547 138.26 138.065 138.745 138.53 139.169 
137.743 137.424 137.891 137.582 138.086 137.787 138.294 137.996 138.527 
138.26 138.871 138.661 139.32 139.131 139.757 139.566 140.154 139.973 
140.55 144.179 143.891 143.835 143.359 143.345 143.401 142.842 142.857 
142.327 142.602 142.705 142.066 142.147 141.554 141.72 141.263 141.798 
141.903 141.244 141.304 140.701 140.87 140.427 140.655 140.196 140.963 
141.092 140.447 140.495 139.858 140.004 139.532 139.787 139.329 139.511 
138.933 140.099 140.251 139.636 139.704 139.014 139.119 138.518 138.784 
138.268 138.558 137.985 138.178 137.601 139.279 139.4 138.815 138.899 
138.23 138.276 137.593 137.729 137.125 137.398 136.847 137.144 136.6 
136.863 136.35 138.579 138.623 138.033 138.104 137.493 137.534 136.893 
136.906 136.268 136.352 135.782 136.004 135.509 135.806 135.332 135.612 
135.112 137.984 137.961 137.34 137.367 136.78 136.834 136.258 136.275 
135.663 135.643 135.023 135.078 134.542 134.75 134.313 134.596 134.175 
134.41 133.954 
POINT_DATA 1002
SCALARS Distance double
LOOKUP_TABLE default
133.914 132.985 132.87 133.904 132.813 135.07 134.006 132.906 135.213 
136.469 134.259 133.127 135.474 136.704 137.91 134.546 133.372 135.816 
137.044 138.226 139.417 134.914 133.789 136.172 137.456 138.695 139.951 
141.203 135.558 134.495 136.72 137.994 139.291 140.593 141.883 143.058 
136.233 135.206 137.392 138.692 140.023 141.311 142.574 143.741 144.766 
136.712 135.764 137.905 139.288 140.694 142.019 143.314 144.546 145.606 
146.521 137.28 136.393 138.455 139.812 141.177 142.518 143.94 145.401 
146.669 147.647 148.429 131.986 131.832 130.908 130.731 129.827 131.744 
129.556 128.694 130.602 131.83 128.269 127.501 129.339 130.718 132.057 
127.101 126.615 128.037 129.551 131.025 132.306 126.506 126.334 127.092 
128.461 130.026 131.289 132.765 126.558 126.485 126.884 127.844 129.208 
130.392 131.764 133.557 126.99 126.883 127.315 127.979 128.936 129.866 
131.01 132.698 134.419 127.653 127.547 128.035 128.636 129.324 129.949 
130.757 132.153 133.815 135.203 128.525 128.793 129.787 130.143 131.07 
129.354 131.44 132.313 130.727 130.018 132.75 133.671 132.001 131.324 
130.55 134.243 135.177 133.393 132.642 131.855 131.123 135.857 136.747 
134.996 134.182 133.388 132.695 132.249 137.509 138.318 136.7 135.927 
135.15 134.477 134.034 133.813 139.134 139.796 138.408 137.731 137.065 
136.393 135.849 135.473 135.241 140.637 141.129 140.015 139.416 138.903 
138.371 137.803 137.283 136.836 136.51 137.945 138.347 140.224 138.851 
140.778 142.603 139.347 141.191 143.028 144.478 139.83 141.514 143.304 
144.937 146.603 140.26 141.838 143.628 145.469 147.384 149.647 140.637 
142.128 143.976 145.997 148.049 150.346 152.827 141.119 142.456 144.242 
146.358 148.428 150.611 153.089 155.41 141.714 142.928 144.492 146.517 
148.614 150.644 152.978 155.431 157.403 142.219 143.42 144.79 146.551 
148.619 150.65 152.785 155.175 157.349 158.911 139.129 141.547 140.452 
143.739 142.684 141.709 145.845 144.923 143.819 142.983 148.939 148.024 
146.76 145.44 144.558 152.604 152.021 150.85 149.106 147.513 146.392 
155.595 155.489 154.828 153.248 151.213 149.501 148.063 157.722 157.854 
157.679 156.714 154.855 152.818 151.018 149.283 159.306 159.574 159.686 
159.302 158.037 156.102 154.045 152.049 150.118 160.419 160.931 161.936 
162.728 163.553 161.35 164.404 164.82 163.124 161.395 165.246 165.222 
164.275 162.772 160.725 165.152 164.951 164.544 163.443 161.82 159.212 
164.672 164.394 164.398 163.648 162.42 160.152 157.048 163.927 163.471 
163.935 163.45 162.4 160.427 157.57 154.608 162.615 162.033 162.785 
162.432 161.467 159.733 157.298 154.658 152.239 160.767 160.278 160.956 
160.663 159.797 158.324 156.354 154.207 152.13 150.19 159.324 160.831 
159.562 161.161 159.611 162.251 161.362 159.23 162.442 163.511 160.834 
158.084 162.403 163.113 164.24 159.172 156.471 161.474 162.571 163.382 
164.435 157.189 155.123 159.515 161.402 162.659 163.649 164.287 155.797 
154.158 157.574 159.456 161.266 162.663 163.404 163.604 154.784 153.178 
156.307 157.708 159.204 160.722 161.785 162.234 162.287 153.622 152.036 
155.206 156.517 157.584 158.636 159.628 160.33 160.671 160.654 142.172 
143.454 143.272 144.743 144.475 144.85 146.069 145.719 146.326 146.438 
147.403 146.948 147.861 148.186 148.441 148.78 148.217 149.441 150.021 
150.429 150.66 150.155 149.431 150.932 151.709 152.325 152.738 152.884 
151.341 150.421 152.192 153.055 153.916 154.65 155.136 155.29 152.311 
151.249 153.236 154.159 155.296 156.451 157.247 157.603 157.609 140.728 
141.715 140.34 141.351 139.969 142.81 141.043 139.533 142.484 144.05 
140.609 139.093 142.146 143.68 145.304 140.146 138.792 141.641 143.19 
144.833 146.53 139.856 138.595 141.197 142.645 144.236 145.981 147.734 
139.651 138.396 140.92 142.278 143.736 145.332 147.046 148.753 139.393 
138.196 140.612 141.953 143.396 144.827 146.322 147.913 149.566 139.113 
138.04 140.224 141.491 142.958 144.402 145.762 147.18 148.696 150.339 