# vtk DataFile Version 4.0
vtk output
ASCII
DATASET POLYDATA
POINTS 1002 float
-83.2327 -79.9766 74.2006 -83.2205 -79.3362 72.9926 -82.6973 -79.2457 73.7552 
-82.6328 -79.9423 75.018 -82.2096 -79.0353 74.7291 -83.1444 -80.7764 75.4841 
-82.1183 -79.8647 76.0648 -81.7572 -78.763 75.9445 -82.5387 -80.8797 76.3911 
-83.0225 -81.8619 76.9302 -81.7126 -79.8004 77.3535 -81.2428 -78.7022 77.1167 
-82.1051 -80.9831 77.5979 -82.4976 -82.0934 78.0055 -82.9267 -83.1402 78.5785 
-81.3088 -79.9157 78.6799 -80.7019 -78.9784 78.2024 -81.8088 -81.0413 79.0787 
-82.1563 -82.2507 79.4038 -82.4758 -83.4073 79.8019 -82.8554 -84.4845 80.2711 
-80.9165 -80.226 80.051 -80.2931 -79.3638 79.5454 -81.4721 -81.2086 80.5761 
-81.843 -82.4053 80.9596 -82.115 -83.7023 81.2365 -82.4229 -84.9178 81.5253 
-82.7486 -86.0782 81.8403 -80.5355 -80.6254 81.4331 -79.9753 -79.7377 80.9742 
-81.0563 -81.637 81.9171 -81.3848 -82.8798 82.3434 -81.6537 -84.2813 82.6574 
-81.9798 -85.6122 82.8733 -82.277 -86.8312 83.0334 -82.4972 -88.0434 83.1925 
-80.0324 -81.136 82.5332 -79.6237 -80.2136 82.1211 -80.5173 -82.2776 82.9828 
-80.8168 -83.6851 83.4249 -81.0437 -85.1589 83.8263 -81.4247 -86.5043 84.13 
-81.7907 -87.7253 84.2602 -82.0099 -88.9481 84.2938 -82.1852 -90.1416 84.3643 
-79.483 -81.7495 83.4903 -79.3073 -80.7688 83.2125 -79.8556 -82.9839 83.8818 
-80.1725 -84.5157 84.3357 -80.396 -86.0151 84.7625 -80.8091 -87.2791 85.1342 
-81.3118 -88.469 85.3619 -81.6171 -89.7439 85.4104 -81.8145 -91.0389 85.452 
-82.0506 -92.161 85.5814 -79.1527 -82.3241 84.6427 -79.1592 -81.2635 84.4863 
-79.3357 -83.6144 84.9177 -79.5828 -85.1904 85.3101 -79.8065 -86.7176 85.6768 
-80.229 -87.9309 85.9753 -80.8732 -89.0738 86.2531 -81.3592 -90.4085 86.4382 
-81.6006 -91.8357 86.5473 -81.8322 -93.1244 86.7189 -82.1169 -94.1376 86.9367 
-82.8314 -78.6168 72.2611 -82.3576 -78.3948 73.1385 -82.4731 -77.6997 71.6163 
-82.0006 -77.3355 72.6861 -82.1815 -76.6679 71.193 -81.913 -78.0292 74.3649 
-81.6134 -76.2664 72.4794 -81.9099 -75.6965 70.9908 -81.4913 -76.9811 74.142 
-81.3811 -77.7295 75.7125 -81.2233 -75.3006 72.3648 -81.5744 -74.7252 70.8742 
-80.9493 -76.0326 73.9532 -80.8124 -76.8531 75.4553 -80.69 -77.7962 76.7433 
-80.8565 -74.2738 72.1973 -81.2637 -73.6511 70.7876 -80.4311 -74.9954 73.6656 
-80.1216 -75.969 75.1261 -79.9851 -76.9901 76.3981 -80.0441 -78.1329 77.7978 
-80.7056 -73.2166 72.2513 -81.3608 -72.6957 70.9712 -80.1028 -73.7627 73.5501 
-79.5569 -74.7309 74.9359 -79.2442 -75.9574 76.2603 -79.3277 -77.1594 77.6186 
-79.6674 -78.4584 79.2855 -81.0694 -72.4199 72.8627 -82.0193 -72.0932 71.6493 
-80.1923 -72.7268 74.0475 -79.4309 -73.4121 75.2775 -78.8493 -74.6477 76.5201 
-78.7354 -75.9688 77.7365 -79.1075 -77.3416 79.1693 -79.4949 -78.8339 80.7572 
-81.8184 -72.0154 73.7983 -82.8429 -71.8464 72.603 -80.7453 -72.2021 74.9871 
-79.8452 -72.6013 76.117 -79.1318 -73.5772 77.1721 -78.696 -74.8496 78.1364 
-78.8054 -76.1667 79.2385 -79.2079 -77.7255 80.6318 -79.3842 -79.3525 82.0398 
-82.5395 -71.96 74.5937 -83.4414 -71.8858 73.462 -81.4765 -72.1078 75.809 
-80.5418 -72.3646 76.9618 -79.8691 -73.0557 77.9328 -79.3141 -74.1492 78.7202 
-79.0155 -75.2959 79.5652 -79.1505 -76.6287 80.7401 -79.3546 -78.2703 82.1367 
-79.3089 -79.8838 83.4307 -83.378 -72.1535 74.8276 -82.4441 -72.2454 76.0557 
-83.3758 -72.5772 76.2529 -82.4782 -72.6097 77.6181 -83.5624 -72.9399 77.9586 
-81.4503 -72.3916 77.3741 -82.737 -72.9903 79.3568 -83.8185 -73.3825 79.6882 
-81.6429 -72.8097 78.9653 -80.7307 -72.8324 78.5182 -83.0697 -73.7792 80.9023 
-84.0579 -74.3178 81.0682 -81.9723 -73.4883 80.541 -81.0596 -73.5503 80.0022 
-80.2083 -73.7868 79.37 -83.4143 -75.0184 82.2627 -84.3709 -75.4614 82.4734 
-82.2983 -74.6207 81.98 -81.3182 -74.5396 81.5321 -80.5093 -74.7017 80.9102 
-79.6831 -74.9062 80.1928 -83.7815 -76.1055 83.9012 -84.6821 -76.3584 84.1502 
-82.6763 -75.8245 83.5542 -81.6201 -75.6877 83.1553 -80.7538 -75.7458 82.6991 
-80.0014 -75.8274 82.0765 -79.4275 -76.0548 81.3363 -84.0638 -77.0873 85.5269 
-84.8584 -77.3343 85.5917 -83.0513 -76.8904 85.2672 -82.0632 -76.8127 84.8538 
-81.2044 -76.8893 84.4331 -80.3874 -76.9507 84.0322 -79.7638 -77.075 83.4822 
-79.4603 -77.5464 82.7684 -84.2605 -78.3707 86.6878 -84.9646 -78.6376 86.6005 
-83.3273 -78.152 86.6423 -82.4255 -78.0429 86.4011 -81.7076 -78.1115 85.9802 
-80.929 -78.2212 85.5675 -80.1249 -78.3063 85.269 -79.6288 -78.6307 84.8484 
-79.4128 -79.2534 84.1591 -84.4585 -79.747 87.6186 -85.0778 -79.9478 87.4923 
-83.5903 -79.552 87.6841 -82.6765 -79.3918 87.6533 -82.0012 -79.361 87.4092 
-81.3887 -79.4643 86.938 -80.5894 -79.59 86.5363 -79.8774 -79.8111 86.3315 
-79.4792 -80.2648 85.9782 -79.2631 -80.8207 85.2815 -79.1682 -82.4229 85.9267 
-79.3948 -82.0143 86.7172 -79.4985 -83.8394 87.2385 -79.7359 -81.5598 87.2004 
-79.8825 -83.5125 87.8155 -80.1 -85.5862 88.224 -80.2818 -81.1917 87.4339 
-80.3264 -83.2016 88.1998 -80.5507 -85.3895 88.7144 -80.7057 -87.6475 89.1724 
-81.0318 -80.9298 87.8398 -80.8874 -82.8983 88.6611 -80.9911 -85.2361 89.3011 
-81.0533 -87.5613 89.847 -81.1518 -90.0053 90.4488 -81.6819 -80.7367 88.4194 
-81.4614 -82.581 89.2817 -81.4522 -85.0138 89.9302 -81.452 -87.4806 90.5561 
-81.3927 -89.9428 91.197 -81.489 -92.717 91.7581 -82.2784 -80.6798 88.7671 
-81.9813 -82.326 89.7696 -81.8648 -84.6647 90.4144 -81.8788 -87.2356 91.0258 
-81.8265 -89.7375 91.7503 -81.7445 -92.6111 92.3183 -81.7225 -95.7614 92.6737 
-83.1486 -80.7638 88.8245 -82.7438 -82.1953 90.0051 -82.428 -84.2682 90.8034 
-82.2871 -86.7635 91.3846 -82.2623 -89.2799 92.1145 -82.1665 -92.2072 92.7276 
-81.9828 -95.5905 93.0678 -81.7631 -98.8349 93.2722 -84.118 -80.886 88.7584 
-83.7297 -82.1447 90.0424 -83.3064 -83.9368 91.068 -82.9263 -86.2374 91.7574 
-82.7008 -88.6545 92.4593 -82.5568 -91.5203 93.0745 -82.3234 -95.0517 93.3851 
-82.0014 -98.5564 93.5832 -81.6496 -101.557 93.7245 -84.8482 -81.0078 88.6146 
-84.5433 -82.1441 89.8783 -84.1636 -83.7309 90.9879 -83.7475 -85.8651 91.8142 
-83.3681 -88.1442 92.5837 -83.0686 -90.7324 93.2579 -82.7669 -94.1373 93.5819 
-82.3896 -97.8679 93.7357 -81.9712 -101.127 93.9294 -81.5414 -103.815 94.0182 
-79.1847 -83.7784 86.1033 -79.5414 -85.5442 87.4597 -79.291 -85.4456 86.3928 
-80.1715 -87.6248 88.5313 -79.5876 -87.5347 87.7473 -79.4345 -87.2146 86.7049 
-80.8877 -90.0242 89.6944 -80.3267 -89.9236 88.93 -79.7944 -89.4682 87.9803 
-79.7942 -88.6851 86.9078 -81.4296 -92.79 91.0991 -81.1887 -92.6247 90.2829 
-80.6723 -92.1354 89.3058 -80.3736 -91.1646 88.193 -80.5239 -89.983 87.1406 
-81.6388 -96.0014 92.2374 -81.5686 -95.7437 91.5793 -81.3327 -95.134 90.7323 
-81.1167 -94.2505 89.7303 -81.1259 -92.9319 88.5983 -81.2333 -91.4952 87.4687 
-81.5859 -99.4377 92.9261 -81.4287 -99.4499 92.3815 -81.2896 -98.7603 91.7265 
-81.3008 -97.7513 91.0608 -81.4747 -96.4955 90.2094 -81.5871 -94.8239 89.03 
-81.5771 -93.1367 87.7338 -81.3945 -102.536 93.402 -81.1454 -103.169 92.8492 
-80.9584 -102.982 92.2045 -81.0226 -101.963 91.6877 -81.3425 -100.499 91.2171 
-81.6283 -98.6458 90.4277 -81.7359 -96.5249 89.255 -81.7704 -94.6106 87.9556 
-81.1677 -105.009 93.7341 -80.8441 -106.08 93.1952 -80.6326 -106.6 92.5295 
-80.6883 -106.167 91.9418 -81.0256 -104.849 91.508 -81.3957 -102.861 91.0454 
-81.657 -100.395 90.3449 -81.8707 -97.8964 89.3768 -82.0327 -95.7884 88.2011 
-81.1811 -106.724 93.9958 -80.6493 -108.039 93.5473 -80.7351 -109.712 93.6942 
-80.0559 -110.832 93.123 -80.3466 -112.367 93.162 -80.2648 -109.014 92.9044 
-79.6239 -113.238 92.3844 -80.2408 -114.515 92.2802 -79.6568 -111.325 92.4034 
-80.2104 -109.287 92.2235 -79.6179 -115.592 91.0436 -80.4619 -116.173 90.9955 
-79.2507 -113.449 91.368 -79.7784 -111.273 91.6308 -80.5509 -108.679 91.6053 
-80.0453 -117.192 89.5429 -80.9197 -116.576 89.9802 -79.354 -115.693 89.8106 
-79.5126 -113.209 90.5365 -80.3329 -110.61 90.9714 -81.0203 -107.086 91.0891 
-80.7453 -116.605 88.8937 -81.5929 -115.25 89.7065 -79.9882 -116.448 88.7367 
-79.8004 -114.665 89.4819 -80.304 -112.085 90.2654 -80.9623 -108.692 90.5825 
-81.4081 -104.465 90.6457 -81.5735 -114.503 88.9216 -82.3909 -113.216 89.5972 
-80.8377 -114.999 88.5662 -80.5313 -114.233 89.0385 -80.7609 -112.319 89.8487 
-81.1968 -109.362 90.2791 -81.5649 -105.419 90.3578 -81.8077 -101.321 90.1124 
-82.4088 -112.403 88.8383 -83.1588 -111.274 89.2175 -81.6616 -112.911 88.5815 
-81.2512 -112.463 88.8332 -81.3412 -111.046 89.4801 -81.661 -108.728 89.9656 
-81.9337 -105.462 90.0978 -82.1281 -101.737 89.8985 -82.1754 -98.4099 89.2338 
-83.2033 -110.249 88.6331 -83.8531 -109.147 88.8286 -82.4681 -110.79 88.4993 
-81.9142 -110.418 88.6014 -81.8054 -109.128 88.996 -82.029 -107.17 89.4208 
-82.2609 -104.592 89.5927 -82.4052 -101.518 89.4312 -82.4577 -98.5291 88.8739 
-82.3468 -96.0838 87.9558 -81.8727 -104.248 94.1436 -81.5967 -107.313 94.0877 
-82.438 -104.309 94.0591 -82.1782 -107.434 93.9471 -83.034 -103.765 93.8168 
-81.249 -110.329 93.7324 -82.7162 -106.794 93.6438 -83.5285 -102.586 93.5403 
-81.861 -110.12 93.5409 -80.9991 -112.601 93.1177 -83.3646 -105.267 93.3818 
-84.175 -100.802 93.2682 -82.5245 -109.005 93.2628 -81.6926 -111.592 92.8757 
-80.9951 -113.995 92.1788 -84.3477 -102.793 93.2181 -85.079 -98.6888 92.9711 
-83.4953 -107.033 93.1475 -82.5676 -109.95 92.6917 -81.7378 -112.222 92.0073 
-81.2309 -114.769 91.1349 -85.3054 -100.018 92.9625 -85.9061 -96.8767 92.6291 
-84.5405 -104.151 93.0265 -83.6701 -107.815 92.6937 -82.726 -110.272 91.9707 
-82.0434 -112.489 91.2652 -81.7534 -114.449 90.5769 -85.9785 -97.8374 92.4827 
-86.5265 -95.472 92.132 -85.2587 -101.137 92.6073 -84.5422 -104.891 92.52 
-83.7974 -107.897 92.0149 -83.0906 -110.095 91.3247 -82.6875 -111.884 90.866 
-82.5293 -112.962 90.3574 -86.6172 -96.1079 91.7848 -87.0973 -94.0075 91.3685 
-85.9257 -98.7013 91.9886 -85.2465 -101.84 92.0789 -84.6859 -104.85 91.9148 
-84.1487 -107.233 91.3699 -83.7089 -109.104 90.8401 -83.468 -110.422 90.4599 
-83.321 -111.099 89.9057 -87.3223 -94.3187 90.9267 -87.6615 -92.3558 90.4275 
[...]
CELL_DATA 2000
SCALARS Distance double
LOOKUP_TABLE default
135.547 135.618 135.911 136.612 135.81 136.043 136.771 137.047 137.848 
136.142 136.344 137.148 137.343 138.21 138.439 139.361 136.59 136.787 
137.718 137.877 138.823 138.962 139.919 140.089 141.05 137.237 137.375 
138.406 138.552 139.569 139.681 140.667 140.766 141.739 141.854 142.816 
138.043 138.14 139.18 139.308 140.35 140.466 141.496 141.585 142.603 
142.659 143.649 143.691 144.641 138.794 138.912 139.894 140.066 141.097 
141.254 142.307 142.433 143.496 143.578 144.592 144.607 145.548 145.54 
146.44 139.505 139.579 140.501 140.699 141.732 141.96 143.014 143.204 
144.243 144.408 145.411 145.513 146.443 146.463 147.362 147.348 148.252 
140.362 140.319 141.211 141.319 142.366 142.582 143.658 143.863 144.87 
145.06 146.047 146.233 147.213 147.321 148.282 148.303 149.28 149.244 
150.216 134.853 133.793 134.522 134.922 132.734 133.452 133.898 134.639 
135.102 131.8 132.438 132.891 133.633 134.139 134.867 135.372 130.963 
131.554 131.96 132.66 133.158 133.895 134.375 135.124 135.697 130.105 
130.694 131.021 131.696 132.111 132.873 133.32 134.084 134.618 135.481 
136.235 129.477 129.892 130.182 130.721 131.053 131.768 132.2 132.989 
133.531 134.394 135.163 136.142 137.046 129.541 129.587 129.921 130.1 
130.445 130.857 131.334 131.962 132.567 133.347 134.141 135.094 136.052 
137.025 137.904 130.248 130.032 130.41 130.253 130.652 130.664 131.205 
131.462 132.135 132.612 133.416 134.165 135.152 136.086 137.081 137.926 
138.742 131.131 130.878 131.243 130.991 131.395 131.213 131.759 131.739 
132.423 132.561 133.324 133.701 134.631 135.333 136.404 137.218 138.199 
138.877 139.684 131.712 132.654 132.056 131.84 133.798 133.08 132.866 
132.224 132.031 135.149 134.337 134.117 133.364 133.225 132.534 132.444 
136.609 135.77 135.583 134.742 134.632 133.868 133.838 133.105 133.104 
138.196 137.324 137.205 136.302 136.214 135.384 135.386 134.603 134.616 
133.849 133.931 139.886 139.019 138.961 138.018 137.961 137.059 137.103 
136.259 136.345 135.484 135.607 134.82 135.144 141.493 140.722 140.719 
139.824 139.805 138.885 138.968 138.087 138.254 137.355 137.565 136.676 
137.028 136.282 136.841 142.95 142.279 142.337 141.548 141.579 140.73 
140.836 139.994 140.177 139.318 139.541 138.687 139.017 138.247 138.723 
138.062 138.605 144.323 143.715 143.832 143.126 143.201 142.443 142.564 
141.806 141.977 141.191 141.364 140.572 140.823 140.122 140.51 139.88 
140.311 139.697 140.097 141.054 141.345 141.688 142.702 141.555 141.96 
143.023 143.423 144.543 141.829 142.174 143.276 143.72 144.908 145.331 
146.556 142.346 142.56 143.667 144.038 145.316 145.742 147.048 147.439 
148.799 142.951 143.146 144.216 144.523 145.796 146.219 147.584 147.988 
149.359 149.78 151.261 143.5 143.715 144.741 145.047 146.224 146.667 
147.985 148.48 149.831 150.307 151.724 152.258 153.778 144.086 144.263 
145.271 145.534 146.646 147.03 148.255 148.767 150.073 150.641 152.01 
152.618 154.077 154.706 156.167 144.681 144.86 145.84 146.075 147.15 
147.458 148.609 149.022 150.247 150.786 152.102 152.758 154.169 154.883 
156.312 156.969 158.277 145.136 145.377 146.289 146.573 147.56 147.902 
148.961 149.36 150.478 150.952 152.15 152.761 154.078 154.832 156.213 
156.981 158.28 158.92 160.033 141.194 142.88 142.005 142.066 144.803 
143.86 143.966 143.046 143.238 146.887 145.922 146.117 145.103 145.263 
144.317 144.521 149.225 148.196 148.531 147.417 147.607 146.466 146.567 
145.568 145.711 151.816 150.761 151.259 150.058 150.368 149.03 149.143 
147.82 147.89 146.781 146.926 154.43 153.464 154.058 152.907 153.295 
151.955 152.165 150.69 150.794 149.317 149.397 148.115 148.216 156.863 
156.053 156.708 155.676 156.088 154.855 155.123 153.771 153.975 152.472 
152.537 150.939 150.894 149.452 149.41 158.972 158.36 159.087 158.243 
158.747 157.62 157.949 156.681 156.959 155.602 155.724 154.161 154.029 
152.36 152.142 150.634 150.482 160.685 160.268 160.999 160.43 161.012 
160.172 160.571 159.473 159.755 158.507 158.64 157.213 157.078 155.457 
155.141 153.495 153.193 151.689 151.459 161.766 163.39 162.443 162.094 
164.786 163.946 163.566 162.661 162.15 165.857 165.152 164.666 163.92 
163.432 162.567 161.828 166.636 166.084 165.515 164.802 164.242 163.619 
163.024 162.099 161.123 166.97 166.726 166.226 165.566 164.909 164.301 
163.759 163.107 162.276 161.219 159.984 166.569 166.741 166.342 166.071 
165.434 164.934 164.342 163.777 163.003 162.157 160.916 159.802 158.324 
165.624 166.008 165.625 165.786 165.228 165.147 164.522 164.216 163.385 
162.738 161.48 160.505 158.955 157.888 156.328 164.536 164.953 164.581 
164.869 164.333 164.533 163.876 163.946 163.055 162.799 161.513 160.84 
159.262 158.349 156.743 155.787 154.3 163.34 163.829 163.475 163.81 
163.236 163.473 162.716 162.921 161.971 162.035 160.781 160.515 158.971 
158.389 156.766 156.03 154.511 153.735 152.399 161.799 162.277 162.576 
163.49 162.402 162.977 164.027 164.242 164.982 162.014 162.904 164.034 
164.583 165.377 165.561 166.069 161.21 162.308 163.469 164.306 165.049 
165.57 166.044 166.36 166.697 160.171 161.333 162.52 163.558 164.316 
164.969 165.32 165.874 166.196 166.705 166.887 159.088 160.147 161.206 
162.415 163.278 164.141 164.502 165.029 165.246 165.859 166.106 166.624 
166.536 158.112 158.979 159.736 160.901 161.71 162.877 163.368 164.131 
164.281 164.869 165.02 165.642 165.664 166.039 165.686 157.138 157.922 
158.441 159.387 160.009 161.164 161.72 162.755 162.979 163.741 163.774 
164.464 164.442 165.019 164.774 165.067 164.586 156.002 156.82 157.26 
158.097 158.592 159.556 160.091 161.097 161.448 162.294 162.375 163.093 
163.035 163.695 163.492 163.995 163.587 163.886 163.345 145.604 146.656 
146.343 146.787 147.748 147.422 147.905 147.583 148.072 148.941 148.572 
149.077 148.736 149.312 148.969 149.516 150.178 149.831 150.4 150.014 
150.667 150.305 150.987 150.541 151.104 151.325 151.069 151.722 151.399 
152.14 151.792 152.582 152.138 152.823 152.235 152.807 152.451 152.239 
152.971 152.71 153.519 153.272 154.149 153.805 154.594 154.056 154.737 
154.076 154.737 153.623 153.464 154.308 154.026 154.86 154.614 155.525 
155.307 156.202 155.832 156.638 156.081 156.849 156.165 156.889 154.649 
154.653 155.592 155.407 156.242 155.977 156.853 156.647 157.616 157.389 
158.353 157.971 158.868 158.303 159.085 158.355 158.977 155.373 155.549 
156.496 156.535 157.368 157.26 158.111 157.97 158.967 158.82 159.9 
159.66 160.677 160.266 161.102 160.485 161.086 160.308 160.723 145.061 
144.561 145.234 146.09 144.097 144.74 145.622 146.3 147.193 143.67 
144.296 145.145 145.828 146.751 147.438 148.362 143.158 143.842 144.671 
145.347 146.222 146.943 147.882 148.615 149.54 142.574 143.282 144.156 
144.861 145.713 146.397 147.279 148.043 148.986 149.75 150.644 142.126 
142.734 143.614 144.329 145.213 145.893 146.73 147.432 148.327 149.117 
150.042 150.805 151.697 141.858 142.357 143.154 143.803 144.679 145.375 
146.223 146.899 147.747 148.474 149.358 150.137 151.024 151.822 152.734 
141.614 142.079 142.783 143.359 144.173 144.843 145.704 146.388 147.248 
147.93 148.778 149.479 150.302 151.068 151.915 152.784 153.67 141.332 
141.778 142.412 142.952 143.689 144.334 145.163 145.864 146.732 147.432 
148.287 148.95 149.742 150.393 151.156 151.912 152.724 153.612 154.417 
141.369 141.793 141.842 142.437 142.356 142.316 142.93 143.003 143.715 
143.14 142.972 143.555 143.555 144.321 144.408 145.212 144.005 143.821 
144.347 144.25 144.992 145.063 145.951 146.012 146.833 144.663 144.602 
145.121 145.05 145.747 145.785 146.704 146.799 147.726 147.698 148.452 
145.187 145.163 145.738 145.757 146.525 146.585 147.559 147.64 148.658 
148.649 149.484 149.315 149.942 145.857 145.769 146.43 146.424 147.343 
147.425 148.535 148.609 149.707 149.675 150.571 150.388 151.044 150.766 
151.33 146.608 146.558 147.325 147.286 148.298 148.361 149.55 149.642 
150.762 150.753 151.64 151.489 152.16 151.897 152.483 152.194 152.832 
147.257 147.329 148.202 148.248 149.281 149.37 150.504 150.622 151.655 
151.703 152.512 152.458 153.116 152.968 153.586 153.364 154.014 153.771 
154.468 147.878 149.426 148.74 148.992 151.226 150.457 150.75 149.972 
150.215 152.979 152.268 152.534 151.785 152.031 151.239 151.44 154.603 
153.96 154.225 153.509 153.697 152.967 153.1 152.365 152.462 156.275 
155.646 156.052 155.272 155.525 154.664 154.771 153.937 153.965 153.226 
153.228 157.971 157.423 158.012 157.268 157.699 156.733 156.943 155.84 
155.876 154.835 154.813 153.946 153.888 159.559 159.116 159.763 159.205 
159.701 158.938 159.216 158.186 158.231 157.023 156.937 155.768 155.654 
154.642 154.487 161.082 160.671 161.284 160.819 161.259 160.7 160.936 
160.216 160.235 159.281 159.099 157.963 157.693 156.554 156.297 155.244 
154.992 162.481 162.133 162.699 162.262 162.647 162.11 162.296 161.681 
161.703 160.977 160.804 159.88 159.517 158.467 158.074 157.045 156.723 
155.725 155.442 147.473 147.384 147.904 148.996 147.522 147.948 149.08 
149.607 150.807 147.652 148.125 149.193 149.722 150.897 151.455 152.585 
147.402 148.068 149.037 149.689 150.755 151.435 152.548 153.141 154.177 
146.862 147.622 148.576 149.325 150.328 151.106 152.197 152.96 154.054 
154.679 155.734 146.365 147.077 148.072 148.813 149.838 150.604 151.696 
152.511 153.656 154.437 155.559 156.232 157.321 145.986 146.641 147.625 
148.344 149.377 150.131 151.205 152.004 153.129 153.966 155.12 155.933 
157.08 157.796 158.888 145.676 146.285 147.22 147.905 148.893 149.646 
150.678 151.484 152.547 153.393 154.512 155.402 156.601 157.466 158.668 
159.376 160.459 145.414 145.983 146.878 147.506 148.432 149.135 150.103 
150.894 151.905 152.753 153.818 154.731 155.927 156.907 158.199 159.098 
160.299 160.953 161.926 146.622 145.371 146.089 146.42 144.198 144.823 
145.071 145.95 146.487 143.082 143.656 143.814 144.604 145.082 146.086 
146.648 141.889 142.53 142.645 143.356 143.705 144.641 145.111 146.114 
146.452 140.486 141.262 141.401 142.143 142.371 143.222 143.538 144.491 
144.752 145.711 145.901 138.988 139.8 139.946 140.77 140.928 141.786 
141.977 142.877 143.065 143.987 144.184 145.14 145.389 137.606 138.34 
138.446 139.239 139.334 140.198 140.318 141.239 141.4 142.326 142.539 
143.475 143.761 144.719 145.04 136.374 137.028 137.099 137.784 137.822 
138.579 138.653 139.528 139.701 140.653 140.914 141.873 142.191 143.142 
143.486 144.426 144.763 135.218 135.828 135.878 136.497 136.512 137.153 
137.202 137.946 138.128 139.009 139.327 140.28 140.656 141.607 141.982 
142.91 143.271 144.184 144.529 134.578 133.726 134.524 135.215 132.864 
133.662 134.415 135.17 135.848 132.317 132.934 133.744 134.426 135.184 
135.851 136.564 132.307 132.65 133.478 133.954 134.786 135.334 136.155 
136.718 137.538 132.688 132.851 133.649 133.932 134.786 135.164 136.057 
136.5 137.407 137.882 138.79 133.183 133.283 134.033 134.235 135.067 
135.336 136.213 136.557 137.48 137.887 138.823 139.251 140.165 133.749 
133.786 134.504 134.65 135.449 135.663 136.484 136.765 137.64 138.01 
138.942 139.348 140.269 140.657 141.524 134.442 134.413 135.118 135.172 
135.934 136.065 136.845 137.049 137.885 138.195 139.121 139.498 140.437 
140.801 141.681 142.016 142.835 135.164 135.137 135.817 135.827 136.546 
136.6 137.351 137.465 138.289 138.506 139.429 139.735 140.682 141.007 
141.895 142.205 143.035 143.33 144.111 135.744 136.839 136.336 136.436 
138.082 137.508 137.658 137.088 137.188 139.574 138.886 139.071 138.416 
138.562 137.904 138.013 141.233 140.485 140.684 139.956 140.151 139.411 
139.571 138.83 138.992 142.974 142.195 142.408 141.644 141.859 141.093 
141.294 140.511 140.703 139.924 140.145 144.773 143.98 144.228 143.434 
143.681 142.87 143.079 142.27 142.457 141.673 141.869 141.12 141.35 
146.552 145.783 146.046 145.283 145.585 144.777 145.028 144.142 144.308 
143.433 143.593 142.813 143.011 142.297 142.518 148.353 147.56 147.791 
147.045 147.331 146.634 146.937 146.138 146.319 145.375 145.479 144.572 
144.739 143.958 144.176 143.45 143.656 150.312 149.441 149.649 148.792 
148.995 148.279 148.566 147.92 148.153 147.35 147.424 146.496 146.573 
145.722 145.901 145.136 145.329 144.576 144.735 145.55 146.206 146.267 
147.027 146.82 146.931 147.753 147.788 148.566 147.509 147.577 148.454 
148.519 149.372 149.383 150.219 148.368 148.377 149.304 149.313 150.27 
150.263 151.207 151.151 152.048 149.104 149.246 150.26 150.31 151.401 
151.351 152.435 152.297 153.306 153.111 154.035 149.551 149.857 151.006 
151.267 152.548 152.631 153.879 153.731 154.868 154.579 155.638 155.286 
156.266 150.092 150.363 151.685 152.023 153.528 153.792 155.251 155.254 
156.53 156.291 157.47 157.102 158.215 157.726 158.682 150.887 151.127 
152.611 152.899 154.569 154.862 156.515 156.641 158.071 157.957 159.2 
158.951 160.097 159.727 160.697 160.139 160.857 151.626 151.992 153.54 
153.919 155.624 155.988 157.709 157.946 159.472 159.473 160.717 160.559 
161.608 161.396 162.268 161.94 162.573 162.049 162.461 130.898 129.944 
130.341 130.253 129.176 129.363 129.179 129.672 129.731 129.093 128.838 
128.528 128.682 128.715 129.269 129.539 129.74 129.143 128.732 128.371 
128.264 128.453 128.77 129.301 129.761 130.647 130.014 129.621 128.935 
128.624 128.312 128.436 128.704 129.191 129.716 130.3 131.53 130.969 
130.721 130.007 129.658 128.961 128.794 128.58 128.86 129.203 129.786 
130.358 131.017 132.467 131.901 131.773 131.156 130.955 130.172 129.929 
129.248 129.285 129.111 129.582 129.915 130.629 131.159 131.873 133.518 
132.91 132.791 132.22 132.127 131.48 131.349 130.581 130.537 129.922 
130.222 130.057 130.729 130.968 131.781 132.156 132.891 134.604 133.997 
133.862 133.264 133.179 132.613 132.579 131.963 131.971 131.313 131.486 
131.01 131.498 131.382 132.13 132.29 133.087 133.314 134.007 131.355 
130.836 131.381 131.968 130.419 130.943 131.625 132.106 132.776 130.186 
130.604 131.311 131.807 132.522 133.01 133.76 130.293 130.481 131.099 
131.51 132.245 132.76 133.538 134.051 134.839 130.835 130.785 131.332 
131.459 132.171 132.546 133.384 133.862 134.697 135.162 135.957 131.61 
131.487 132.054 131.95 132.602 132.697 133.52 133.832 134.714 135.101 
135.934 136.325 137.119 132.414 132.294 132.871 132.755 133.341 133.293 
133.984 134.116 134.932 135.218 136.056 136.386 137.187 137.529 138.296 
133.301 133.106 133.638 133.524 134.087 134.02 134.63 134.642 135.342 
135.5 136.292 136.562 137.365 137.659 138.416 138.71 139.405 134.308 
134.023 134.492 134.302 134.859 134.759 135.391 135.329 135.994 135.994 
136.717 136.857 137.639 137.876 138.629 138.874 139.544 139.781 140.373 
131.841 132.422 132.321 132.79 133.228 133.012 133.514 133.393 133.975 
134.241 133.943 134.458 134.245 134.853 134.703 135.338 135.328 135.02 
135.522 135.258 135.815 135.623 136.227 136.091 136.741 136.425 136.118 
136.611 136.323 136.836 136.593 137.158 136.984 137.636 137.529 138.269 
137.568 137.241 137.742 137.418 137.932 137.638 138.228 137.991 138.679 
138.498 139.265 139.143 139.937 138.723 138.404 138.904 138.568 139.06 
138.747 139.335 139.109 139.827 139.633 140.38 140.192 140.932 140.798 
141.517 139.787 139.519 139.997 139.7 140.148 139.843 140.356 140.161 
140.84 140.731 141.45 141.292 141.943 141.769 142.409 142.292 142.939 
140.711 140.501 140.958 140.722 141.158 140.881 141.35 141.13 141.746 
141.651 142.355 142.263 142.894 142.731 143.308 143.16 143.77 143.667 
144.286 146.52 145.994 145.977 145.361 145.366 145.452 144.948 144.874 
144.259 144.719 144.81 144.346 144.399 143.829 143.764 143.129 144.151 
144.183 143.605 143.679 143.048 143.145 142.463 142.512 141.825 143.472 
143.556 142.859 142.876 142.09 142.188 141.427 141.603 140.856 141.029 
140.317 142.604 142.751 142.05 142.075 141.231 141.23 140.424 140.522 
139.795 139.953 139.252 139.444 138.8 141.801 141.88 141.222 141.245 
140.451 140.413 139.625 139.637 138.947 139.007 138.339 138.427 137.788 
137.969 137.423 141.217 141.184 140.541 140.5 139.746 139.674 138.886 
138.874 138.169 138.229 137.554 137.605 136.921 137.017 136.427 136.651 
136.181 140.787 140.683 140.033 139.925 139.191 139.055 138.255 138.159 
137.402 137.424 136.738 136.807 136.125 136.188 135.555 135.697 135.192 
135.451 135.036 
POINT_DATA 1002
SCALARS Distance double
LOOKUP_TABLE default
136.222 135.191 135.23 136.284 135.343 137.332 136.505 135.585 137.527 
138.687 136.944 135.899 138 139.107 140.293 137.521 136.354 138.692 
139.783 140.871 141.99 138.255 137.105 139.446 140.575 141.648 142.704 
143.757 139.064 137.964 140.227 141.383 142.537 143.631 144.615 145.556 
139.713 138.707 140.911 142.158 143.385 144.571 145.579 146.455 147.315 
140.32 139.491 141.476 142.816 144.076 145.273 146.395 147.359 148.278 
149.167 141.151 140.449 142.166 143.46 144.704 145.835 147.035 148.214 
149.276 150.291 151.194 134.142 134.196 133.045 133.12 132.042 134.383 
132.156 131.208 133.402 134.636 131.303 130.383 132.427 133.65 134.841 
130.403 129.534 131.364 132.547 133.766 135.251 129.745 129.158 130.404 
131.399 132.659 134.171 136.072 129.866 129.607 130.161 130.778 131.834 
133.214 135.042 137.043 130.631 130.515 130.743 131.061 131.782 132.794 
134.242 136.174 138.03 131.496 131.389 131.609 131.842 132.379 133.111 
134.069 135.586 137.455 139.114 132.256 132.42 133.289 133.534 134.575 
132.647 134.906 135.97 133.916 133.116 136.438 137.423 135.407 134.576 
133.824 138.115 139.053 137.065 136.173 135.414 134.615 139.893 140.714 
138.879 137.944 137.195 136.429 135.78 141.563 142.205 140.705 139.837 
139.126 138.446 137.824 137.485 143.072 143.578 142.381 141.653 141.022 
140.386 139.793 139.438 139.251 144.499 144.894 143.929 143.297 142.746 
142.168 141.54 141.139 140.956 140.731 141.984 142.352 143.774 142.575 
144.145 145.712 142.812 144.444 146.14 147.82 143.332 144.862 146.646 
148.363 150.221 143.943 145.379 147.153 148.959 150.761 152.807 144.46 
145.823 147.475 149.333 151.206 153.213 155.324 145.035 146.321 147.798 
149.5 151.391 153.441 155.59 157.598 145.617 146.872 148.261 149.775 
151.472 153.449 155.63 157.731 159.514 146.018 147.234 148.577 150.051 
151.615 153.369 155.429 157.596 159.526 161.068 142.885 144.924 144.092 
147.133 146.296 145.404 149.64 148.824 147.702 146.598 152.427 151.716 
150.567 149.163 147.912 155.17 154.586 153.589 152.345 150.88 149.403 
157.68 157.289 156.402 155.388 154.201 152.54 150.745 159.819 159.778 
159.192 158.273 157.232 155.753 153.804 151.885 161.485 161.709 161.564 
160.974 160.035 158.672 156.827 154.804 152.897 162.755 163.097 164.329 
164.423 165.617 163.188 165.426 166.535 164.157 162.959 166.301 167.079 
164.83 163.75 162.374 166.807 167.031 165.577 164.334 163.206 161.262 
166.388 166.294 165.831 164.901 163.802 162.016 159.49 165.35 165.234 
165.143 164.718 163.957 162.412 160.03 157.363 164.281 164.097 164.119 
163.745 163.178 162.047 160.1 157.673 155.205 163.114 162.814 163.035 
162.561 161.854 160.896 159.416 157.413 155.224 153.108 161.585 163.398 
161.861 163.686 161.676 165.011 163.366 161.021 165.065 166.065 162.558 
160.076 164.501 165.59 166.487 161.39 159.067 163.633 164.826 165.554 
166.559 160.005 158.202 162.244 163.976 164.717 165.476 166.291 158.742 
157.399 160.474 162.431 163.714 164.424 165.168 165.541 157.631 156.39 
158.96 160.607 162.137 163.099 163.812 164.357 164.434 156.445 155.177 
157.71 159.115 160.563 161.659 162.38 162.926 163.203 163.133 145.903 
147.111 146.958 148.2 148.091 148.408 149.43 149.306 149.607 149.928 
150.763 150.47 151.012 151.388 151.652 151.982 151.53 152.43 152.984 
153.38 153.445 153.215 152.616 153.727 154.41 155.059 155.352 155.425 
154.571 153.692 155.147 155.715 156.461 157.098 157.481 157.66 155.704 
154.56 156.51 157.076 157.778 158.626 159.356 159.786 159.825 144.388 
145.413 143.887 144.926 143.483 146.532 144.485 143.047 146.029 147.695 
143.999 142.433 145.532 147.111 148.847 143.418 141.875 145.057 146.555 
148.177 149.938 142.913 141.593 144.516 146.072 147.57 149.242 150.953 
142.568 141.417 143.984 145.54 147.062 148.616 150.222 151.903 142.254 
141.175 143.53 145.009 146.568 148.12 149.606 151.084 152.764 141.91 