# vtk DataFile Version 4.0
vtk output
ASCII
DATASET POLYDATA
POINTS 1002 float
-105.55 -120.158 76.6223 -106.108 -121.298 76.1676 -105.66 -120.828 75.3519 
-104.987 -119.659 75.8113 -105.189 -120.204 74.5254 -104.783 -119.035 77.1022 
-104.419 -119.031 74.9382 -104.718 -119.42 73.7341 -104.193 -118.492 76.2784 
-103.939 -117.872 77.4722 -103.953 -118.085 74.1157 -104.403 -118.382 72.9528 
-103.662 -117.659 75.3631 -103.409 -117.073 76.5928 -103.26 -116.398 77.7225 
-103.644 -116.832 73.344 -104.17 -117.189 72.1731 -103.145 -116.511 74.5708 
-102.8 -116.031 75.7204 -102.628 -115.392 76.8756 -102.635 -114.759 77.991 
-103.163 -115.753 72.4876 -103.68 -116.158 71.371 -102.581 -115.435 73.8104 
-101.996 -115.129 75.0154 -101.694 -114.625 76.1752 -101.685 -114.021 77.3578 
-101.842 -113.394 78.3322 -102.324 -115.088 71.5361 -103.008 -115.327 70.6085 
-101.829 -114.756 72.8603 -101.219 -114.479 74.1949 -100.684 -114.146 75.4304 
-100.554 -113.652 76.7807 -100.727 -113.003 77.9316 -101.047 -112.242 78.686 
-101.624 -114.396 70.7373 -102.587 -114.407 70.0756 -101.056 -114.163 71.8679 
-100.609 -113.779 73.2194 -100.04 -113.388 74.4428 -99.6773 -113 75.8256 
-99.7342 -112.485 77.3277 -100.036 -111.766 78.3774 -100.447 -111.014 79.0527 
-101.434 -113.358 70.2345 -102.472 -113.311 69.772 -100.677 -113.238 71.0787 
-100.231 -112.844 72.3343 -99.7855 -112.293 73.5669 -99.3003 -111.811 74.7515 
-99.1008 -111.396 76.2562 -99.2625 -110.867 77.7161 -99.6031 -110.252 78.7034 
-100.009 -109.735 79.4517 -101.507 -112.189 69.8924 -102.405 -112.25 69.4873 
-100.69 -112.058 70.4997 -100.123 -111.736 71.5454 -99.7496 -111.206 72.8473 
-99.3528 -110.641 74.0261 -98.9745 -110.169 75.2636 -98.8685 -109.702 76.7151 
-99.0625 -109.205 78.0034 -99.3856 -108.799 78.9801 -99.744 -108.529 79.8197 
-106.363 -122.122 75.2696 -106.059 -121.54 74.4181 -106.888 -122.702 74.3847 
-106.786 -121.953 73.5652 -107.702 -122.928 73.3767 -105.741 -120.706 73.6181 
-107.657 -122.09 72.5488 -108.526 -123.051 72.0899 -106.589 -120.935 72.7398 
-105.344 -119.76 72.7822 -108.385 -122.198 71.3165 -109.366 -123.111 70.8387 
-107.401 -121.034 71.6662 -106.117 -119.953 71.7787 -104.998 -118.72 71.9236 
-109.264 -122.072 70.2861 -110.545 -122.716 70.0502 -108.124 -121.092 70.529 
-106.84 -120.077 70.6812 -105.645 -118.961 70.9091 -104.713 -117.541 71.1757 
-110.503 -121.5 69.6076 -111.878 -121.984 69.5562 -109.111 -120.856 69.5993 
-107.681 -120.086 69.6357 -106.4 -119.045 69.9003 -105.423 -117.682 70.2729 
-104.352 -116.333 70.4915 -111.702 -120.899 68.973 -112.952 -121.438 68.941 
-110.244 -120.373 68.819 -108.693 -119.876 68.699 -107.284 -119.029 68.8894 
-106.248 -117.68 69.3214 -105.292 -116.268 69.6987 -103.993 -115.194 69.9115 
-112.631 -120.489 68.2386 -113.767 -121.072 68.1627 -111.223 -119.918 68.1119 
-109.667 -119.489 67.9193 -108.179 -118.863 67.96 -106.995 -117.694 68.3203 
-106.101 -116.242 68.8262 -105.065 -114.983 69.2685 -103.737 -114.055 69.5657 
-113.379 -120.009 67.5389 -114.463 -120.568 67.4634 -112.044 -119.445 67.5017 
-110.575 -119.003 67.366 -109.129 -118.468 67.2985 -107.813 -117.549 67.4747 
-106.758 -116.283 67.9519 -105.837 -114.949 68.5579 -104.735 -113.811 69.0283 
-103.493 -112.946 69.302 -114.401 -119.456 66.9908 -113.094 -118.904 66.9578 
-114.044 -118.182 66.565 -112.609 -117.808 66.2815 -113.495 -117.119 65.9303 
-111.662 -118.472 66.873 -112.116 -116.794 65.2986 -113.013 -116.151 65.0823 
-111.317 -117.407 66.1143 -110.287 -117.969 66.8095 -111.735 -115.547 64.4082 
-112.592 -114.95 64.6356 -111.015 -116.147 65.1929 -110.149 -116.655 66.2048 
-108.939 -117.149 66.8619 -111.351 -114.087 64.3941 -112.079 -113.618 64.9978 
-110.599 -114.681 64.7017 -109.866 -115.241 65.6832 -108.834 -115.674 66.5526 
-107.624 -116.059 67.2258 -110.914 -112.634 65.1647 -111.587 -112.174 65.7139 
-110.068 -113.18 65.0295 -109.274 -113.817 65.5931 -108.493 -114.267 66.4567 
-107.459 -114.548 67.2245 -106.474 -114.782 67.9032 -110.481 -111.016 65.9651 
-111.202 -110.5 66.2907 -109.564 -111.553 65.7274 -108.627 -112.177 65.9081 
-107.879 -112.705 66.529 -107.08 -112.991 67.2416 -106.105 -113.217 67.8787 
-105.313 -113.488 68.481 -109.998 -109.291 66.5333 -110.779 -108.883 66.7815 
-109.075 -109.768 66.3251 -108.111 -110.294 66.3524 -107.261 -110.842 66.7368 
-106.468 -111.297 67.2082 -105.531 -111.667 67.6049 -104.637 -112.048 68.1188 
-104.019 -112.463 68.7575 -109.444 -107.845 67.0676 -110.248 -107.656 67.3537 
-108.556 -108.142 66.8191 -107.668 -108.494 66.7456 -106.777 -108.942 66.9895 
-105.85 -109.519 67.3051 -104.853 -110.158 67.4128 -103.905 -110.756 67.6136 
-103.247 -111.258 68.2071 -102.833 -111.723 68.9375 -101.78 -111.174 69.3794 
-102.098 -110.652 68.6984 -101.245 -109.856 69.3329 -102.471 -110.101 67.9142 
-101.578 -109.181 68.6656 -100.88 -108.087 69.4246 -103.15 -109.345 67.4784 
-101.985 -108.321 67.9817 -101.354 -107.066 68.8298 -100.693 -106.012 69.5976 
-104.177 -108.415 67.4722 -102.644 -107.226 67.6122 -101.799 -105.882 68.1865 
-101.252 -104.82 69.0139 -100.574 -104.095 69.8907 -105.367 -107.588 67.3745 
-103.738 -106.169 67.4456 -102.461 -104.735 67.6813 -101.748 -103.682 68.4115 
-101.131 -103.016 69.3785 -100.504 -102.367 70.3833 -106.471 -107.09 67.127 
-105.117 -105.521 67.2654 -103.703 -103.95 67.3637 -102.62 -102.804 67.9451 
-101.834 -102.086 68.9391 -101.129 -101.392 69.9612 -100.604 -100.706 70.9142 
-107.387 -106.873 67.1564 -106.308 -105.373 67.3678 -105.184 -103.723 67.4563 
-104.04 -102.36 67.8191 -103.019 -101.426 68.6221 -102.11 -100.6 69.5626 
-101.385 -99.8514 70.4724 -100.919 -99.3738 71.3988 -108.259 -106.762 67.4677 
-107.209 -105.489 67.821 -106.329 -103.939 68.0279 -105.425 -102.411 68.2319 
-104.437 -101.175 68.657 -103.425 -100.117 69.2848 -102.521 -99.2365 70.0479 
-101.846 -98.7014 70.946 -101.367 -98.4568 71.9447 -109.156 -106.705 67.8166 
-108.075 -105.631 68.2807 -107.201 -104.273 68.6317 -106.451 -102.748 68.8595 
-105.646 -101.311 69.0776 -104.73 -100.028 69.3889 -103.795 -98.9577 69.884 
-103 -98.2556 70.6219 -102.374 -97.9003 71.5408 -101.848 -97.7182 72.5419 
-100.992 -110.901 69.8887 -100.509 -109.316 69.9381 -100.259 -110.561 70.6311 
-100.151 -107.379 70.109 -99.8723 -108.793 70.8226 -99.8012 -110.112 71.8648 
-100 -105.322 70.4516 -99.6884 -106.773 71.1787 -99.6858 -108.308 72.2468 
-99.5846 -109.593 73.3171 -99.9928 -103.385 70.9708 -99.7017 -104.677 71.746 
-99.7778 -106.276 72.7694 -99.7355 -107.869 73.8692 -99.304 -109.089 74.6482 
-100.101 -101.549 71.5193 -99.7805 -102.679 72.3585 -99.8011 -104.141 73.4113 
-99.9097 -105.841 74.5054 -99.5563 -107.366 75.3638 -99.0056 -108.548 76.0024 
-100.347 -99.9995 72.0313 -99.9352 -100.915 72.8854 -99.7212 -102.164 74.0083 
-99.7754 -103.689 75.1651 -99.7415 -105.302 76.0575 -99.3386 -106.734 76.7012 
-98.9868 -107.983 77.3424 -100.699 -98.9091 72.6261 -100.191 -99.5617 73.4694 
-99.7693 -100.533 74.5596 -99.5246 -101.805 75.7468 -99.5833 -103.254 76.6734 
-99.6184 -104.771 77.2868 -99.3915 -106.234 77.868 -99.2195 -107.584 78.4962 
-101.118 -98.0752 73.2811 -100.542 -98.5678 74.1566 -100.054 -99.3031 75.1692 
-99.5594 -100.35 76.2607 -99.3321 -101.603 77.1865 -99.5356 -102.994 77.8089 
-99.7142 -104.518 78.348 -99.5989 -106.038 78.9712 -99.5148 -107.394 79.519 
-101.849 -97.1658 73.6235 -101.152 -97.5764 74.5863 -101.946 -96.7022 74.8991 
-101.414 -97.2425 76.0425 -102.271 -96.5329 76.4314 -100.653 -98.1999 75.6453 
-101.932 -97.1984 77.5586 -102.752 -96.4972 78.1413 -101.048 -98.0884 77.1206 
-100.119 -99.1243 76.6943 -102.446 -97.2569 79.0451 -103.233 -96.4644 79.7445 
-101.622 -98.2049 78.4706 -100.444 -99.1937 78.0459 -99.5174 -100.296 77.6345 
-102.877 -97.4476 80.4498 -103.797 -96.7383 81.1126 -102.152 -98.3786 79.7922 
-101.034 -99.3365 79.2973 -99.8429 -100.376 78.8633 -99.3962 -101.591 78.3556 
-103.426 -97.884 81.8022 -104.486 -97.3016 82.3282 -102.668 -98.6895 81.1548 
-101.801 -99.5268 80.5683 -100.654 -100.484 80.0955 -99.8975 -101.697 79.5757 
-99.7644 -103.088 78.955 -104.075 -98.3901 83.0193 -105.142 -97.8971 83.3646 
-103.22 -99.119 82.4883 -102.51 -99.9234 81.8134 -101.654 -100.81 81.205 
-100.779 -101.94 80.7349 -100.242 -103.333 80.232 -99.9329 -104.758 79.6111 
-104.725 -99.0454 83.902 -105.729 -98.6406 84.1287 -103.797 -99.6651 83.5723 
-103.024 -100.47 83.0003 -102.357 -101.42 82.2522 -101.654 -102.462 81.6315 
-100.926 -103.679 81.233 -100.306 -105.053 80.8166 -99.8421 -106.328 80.2099 
-105.396 -99.9762 84.458 -106.312 -99.5963 84.6662 -104.48 -100.472 84.266 
-103.576 -101.142 83.9563 -102.815 -102.07 83.3725 -102.246 -103.107 82.6225 
-101.665 -104.134 82.0072 -100.966 -105.3 81.6144 -100.341 -106.551 81.1891 
-99.9458 -107.634 80.5471 -102.719 -97.1145 72.5237 -102.775 -96.5238 73.5891 
-103.778 -96.6798 72.6379 -103.984 -96.1738 73.7367 -105.078 -96.5575 72.944 
-102.956 -96.1843 74.9506 -105.508 -96.1413 74.1742 -106.56 -96.6792 73.3982 
-104.39 -95.9923 75.2757 -103.37 -96.1339 76.7529 -107.113 -96.2733 74.7651 
-107.865 -97.0297 73.9621 -106.153 -95.9583 75.8247 -105.005 -95.9451 77.2483 
-103.925 -96.0266 78.7127 -108.42 -96.7041 75.2901 -108.884 -97.6695 74.5246 
-107.773 -96.0901 76.3077 -106.84 -95.8995 77.6776 -105.653 -95.8531 79.1991 
-104.541 -96.0319 80.3825 -109.507 -97.4563 75.6561 -109.909 -98.4026 74.9217 
-109.004 -96.6595 76.6391 -108.332 -96.2104 77.9703 -107.395 -96.0828 79.4939 
-106.274 -96.1466 80.813 -105.241 -96.5336 81.7122 -110.538 -98.251 75.977 
-110.882 -99.1522 75.2522 -110.077 -97.4662 76.9634 -109.515 -96.8826 78.3042 
-108.808 -96.6202 79.7782 -107.89 -96.6569 81.0699 -106.861 -96.8447 82.0831 
-105.904 -97.2216 82.8373 -111.322 -99.1119 76.3956 -111.544 -100.059 75.6833 
-110.999 -98.285 77.3486 -110.574 -97.6439 78.6713 -110.047 -97.2294 80.1048 
-109.315 -97.1603 81.273 -108.367 -97.3291 82.2405 -107.363 -97.5261 83.1267 
-106.452 -97.904 83.779 -111.855 -100.09 76.8326 -112.012 -101.016 76.1258 
-111.674 -99.2114 77.6987 -111.419 -98.5104 78.895 -111.09 -97.9685 80.2789 
[...]
CELL_DATA 2000
SCALARS Distance double
LOOKUP_TABLE default
176.636 175.631 175.991 175.663 174.516 174.918 174.583 174.969 174.6 
173.3 173.731 173.354 173.804 173.402 173.812 173.37 172.012 172.444 
172 172.479 172.018 172.491 171.999 172.468 172.006 170.682 171.103 
170.621 171.085 170.613 171.068 170.591 171.05 170.623 171.111 170.731 
169.356 169.746 169.268 169.721 169.29 169.719 169.289 169.707 169.353 
169.811 169.524 169.956 169.64 168.151 168.456 167.977 168.399 168.001 
168.44 168.006 168.427 168.031 168.54 168.267 168.794 168.517 168.931 
168.611 167.129 167.337 166.828 167.164 166.762 167.176 166.748 167.139 
166.664 167.135 166.776 167.4 167.133 167.724 167.419 167.892 167.61 
166.23 166.386 165.845 166.08 165.637 165.983 165.595 165.946 165.526 
165.852 165.471 165.923 165.668 166.254 166.033 166.607 166.377 166.907 
166.736 177.051 177.385 176.849 176.074 177.695 177.193 176.403 175.82 
174.974 177.857 177.457 176.692 176.139 175.242 174.66 173.772 177.9 
177.55 176.805 176.347 175.444 174.892 173.956 173.417 172.513 177.979 
177.587 176.832 176.401 175.518 175.02 174.09 173.578 172.664 172.138 
171.216 178.107 177.683 176.907 176.447 175.585 175.088 174.187 173.687 
172.8 172.289 171.374 170.826 169.902 178.204 177.795 176.995 176.531 
175.67 175.184 174.3 173.8 172.919 172.418 171.535 171.002 170.099 
169.547 168.697 178.224 177.855 177.044 176.594 175.716 175.256 174.375 
173.905 173.01 172.524 171.641 171.153 170.295 169.774 168.939 168.414 
167.661 178.122 177.815 177.002 176.6 175.723 175.288 174.419 173.965 
173.083 172.599 171.72 171.249 170.422 169.956 169.156 168.66 167.884 
167.411 166.723 177.747 176.632 177.02 176.582 175.352 175.793 175.389 
175.789 175.332 174.04 174.471 174.093 174.57 174.18 174.542 174.063 
172.733 173.123 172.707 173.246 172.91 173.368 172.904 173.238 172.712 
171.553 171.832 171.351 171.836 171.528 172.063 171.667 172.05 171.517 
171.845 171.338 170.544 170.746 170.219 170.545 170.191 170.689 170.372 
170.816 170.352 170.67 170.153 170.492 170.048 169.493 169.751 169.179 
169.445 168.948 169.368 168.989 169.495 169.062 169.474 168.925 169.286 
168.769 169.192 168.765 168.339 168.628 168.013 168.306 167.688 168.065 
167.547 168.052 167.57 168.074 167.491 167.931 167.327 167.805 167.323 
167.86 167.475 167.299 167.486 166.848 167.085 166.437 166.746 166.161 
166.585 166.061 166.541 165.972 166.419 165.816 166.285 165.801 166.36 
166.027 166.604 166.326 165.589 165.218 165.06 164.373 164.89 164.642 
163.898 163.788 163.07 164.786 164.345 163.457 163.258 162.483 162.405 
161.657 164.89 164.307 163.225 162.816 161.871 161.736 160.963 160.961 
160.304 165.032 164.43 163.27 162.648 161.513 161.145 160.298 160.251 
159.661 159.716 159.23 165.216 164.611 163.553 162.813 161.671 160.993 
160.1 159.774 159.251 159.186 158.789 158.778 158.401 165.557 164.922 
164.041 163.276 162.322 161.456 160.626 159.948 159.441 159.07 158.726 
158.51 158.166 158.068 157.812 166.052 165.409 164.684 163.951 163.215 
162.35 161.65 160.791 160.26 159.588 159.193 158.701 158.342 158.023 
157.774 157.661 157.587 166.617 166.008 165.402 164.721 164.121 163.349 
162.749 161.915 161.361 160.565 160.081 159.38 158.956 158.409 158.127 
157.811 157.724 157.614 157.652 165.555 164.368 165.021 165.155 163.06 
163.773 163.913 164.642 164.888 161.659 162.398 162.547 163.349 163.659 
164.469 164.83 160.36 161.019 161.208 161.997 162.417 163.277 163.76 
164.503 164.848 159.303 159.845 160.062 160.764 161.267 162.13 162.777 
163.547 163.999 164.557 164.853 158.448 158.899 159.108 159.729 160.216 
161.051 161.759 162.622 163.205 163.813 164.138 164.621 164.983 157.856 
158.16 158.36 158.857 159.285 160.023 160.665 161.565 162.207 162.984 
163.398 163.945 164.27 164.825 165.29 157.639 157.758 157.958 158.256 
158.634 159.166 159.71 160.471 161.088 161.923 162.452 163.151 163.563 
164.136 164.576 165.175 165.688 157.684 157.698 157.885 158.026 158.366 
158.675 159.143 159.647 160.194 160.874 161.452 162.195 162.754 163.423 
163.956 164.536 165.071 165.625 166.143 157.778 158.063 157.916 158.009 
158.683 158.365 158.514 158.305 158.521 159.672 159.202 159.369 158.998 
159.214 158.946 159.26 160.759 160.276 160.434 159.997 160.169 159.757 
159.975 159.746 160.177 161.873 161.352 161.514 161.08 161.246 160.772 
160.91 160.525 160.856 160.737 161.332 163.157 162.535 162.693 162.194 
162.407 161.893 162.06 161.551 161.849 161.538 162.101 162.015 162.693 
164.483 163.859 163.981 163.436 163.656 163.125 163.353 162.801 163.112 
162.668 163.196 162.94 163.594 163.434 164.028 165.723 165.141 165.244 
164.708 164.902 164.394 164.64 164.13 164.441 163.975 164.423 164.088 
164.654 164.417 164.965 164.736 165.199 166.94 166.37 166.495 165.951 
166.14 165.626 165.875 165.397 165.712 165.267 165.644 165.266 165.714 
165.437 165.917 165.681 166.114 165.862 166.252 157.808 158.09 157.924 
158.041 158.767 158.359 158.438 158.286 158.625 159.883 159.27 159.366 
158.942 159.273 159.109 159.636 161.213 160.55 160.691 160.119 160.451 
160.03 160.484 160.254 160.774 162.547 161.916 162.07 161.508 161.829 
161.344 161.751 161.312 161.737 161.429 161.935 163.861 163.252 163.403 
162.853 163.153 162.692 163.113 162.656 163.087 162.607 163.063 162.7 
163.26 165.141 164.562 164.727 164.177 164.477 164.004 164.449 164.018 
164.506 164.032 164.487 163.999 164.464 164.088 164.609 166.353 165.817 
165.991 165.48 165.785 165.332 165.773 165.362 165.846 165.42 165.862 
165.402 165.795 165.345 165.746 165.386 165.843 167.483 166.993 167.161 
166.695 166.984 166.586 167.003 166.643 167.089 166.703 167.101 166.685 
167.049 166.618 166.977 166.555 166.945 166.592 167.043 166.765 166.705 
166.36 165.607 166.608 166.284 165.491 165.158 164.354 166.447 166.131 
165.306 164.99 164.153 163.851 163.018 166.407 166.01 165.183 164.796 
163.937 163.61 162.774 162.485 161.662 166.524 166.074 165.273 164.779 
163.91 163.454 162.603 162.249 161.43 161.133 160.348 166.66 166.223 
165.447 164.947 164.09 163.546 162.685 162.196 161.379 160.967 160.181 
159.858 159.168 166.845 166.38 165.636 165.14 164.334 163.784 162.955 
162.399 161.607 161.076 160.318 159.834 159.158 158.814 158.319 167.147 
166.64 165.943 165.404 164.67 164.095 163.336 162.745 162 161.417 
160.691 160.122 159.453 158.972 158.476 158.167 157.889 167.491 166.998 
166.35 165.802 165.129 164.536 163.846 163.221 162.531 161.9 161.212 
160.585 159.918 159.354 158.815 158.417 158.1 157.88 157.753 167.486 
168.558 167.825 167.448 169.733 168.95 168.583 167.814 167.395 171.041 
170.195 169.818 168.989 168.55 167.724 167.254 172.365 171.52 171.11 
170.254 169.799 168.923 168.443 167.599 167.19 173.576 172.778 172.339 
171.517 171.069 170.207 169.747 168.858 168.437 167.612 167.279 174.694 
173.939 173.513 172.711 172.287 171.467 171.052 170.194 169.779 168.91 
168.533 167.726 167.408 175.7 175.03 174.656 173.893 173.494 172.69 
172.29 171.473 171.069 170.234 169.834 169.001 168.648 167.861 167.579 
176.565 175.988 175.657 174.995 174.616 173.879 173.475 172.691 172.28 
171.475 171.07 170.264 169.899 169.115 168.819 168.07 167.844 177.385 
176.835 176.522 175.921 175.551 174.908 174.523 173.828 173.442 172.678 
172.284 171.48 171.103 170.328 170.015 169.29 169.041 168.344 168.14 
177.781 178.07 177.584 176.875 178.28 177.814 177.038 176.584 175.861 
178.424 177.989 177.22 176.734 175.97 175.55 174.855 178.51 178.111 
177.376 176.919 176.167 175.703 174.989 174.561 173.844 178.583 178.188 
177.454 177.042 176.298 175.879 175.14 174.715 173.947 173.505 172.708 
178.677 178.282 177.561 177.129 176.371 175.952 175.181 174.789 173.978 
173.562 172.707 172.296 171.495 178.73 178.37 177.679 177.265 176.514 
176.052 175.258 174.807 173.981 173.544 172.685 172.264 171.449 171.092 
170.387 178.755 178.399 177.703 177.343 176.61 176.195 175.4 174.926 
174.087 173.594 172.744 172.272 171.467 171.065 170.362 170.041 169.42 
178.813 178.436 177.73 177.354 176.636 176.251 175.485 175.049 174.222 
173.734 172.888 172.391 171.585 171.132 170.411 170.042 169.408 169.106 
168.524 178.594 177.799 177.993 177.507 176.815 177.148 176.716 176.88 
176.384 175.647 176.106 175.767 176.043 175.531 175.708 175.193 174.344 
174.859 174.555 175.003 174.533 174.784 174.194 174.425 173.89 173.008 
173.497 173.149 173.692 173.296 173.69 173.11 173.362 172.756 173.053 
172.539 171.703 172.155 171.768 172.272 171.899 172.38 171.884 172.221 
171.617 171.901 171.352 171.694 171.237 170.388 170.85 170.447 170.912 
170.494 170.976 170.524 170.951 170.421 170.751 170.203 170.521 170.052 
170.427 170.054 169.061 169.515 169.094 169.565 169.121 169.586 169.14 
169.596 169.148 169.546 169.058 169.385 168.907 169.256 168.877 169.3 
169.023 167.826 168.202 167.772 168.21 167.805 168.245 167.848 168.278 
167.895 168.308 167.9 168.252 167.801 168.129 167.729 168.128 167.848 
168.321 168.123 179.143 179.55 179.014 178.27 179.752 179.259 178.413 
177.96 177.155 180.059 179.446 178.536 177.995 177.122 176.735 175.935 
180.556 179.895 178.966 178.219 177.304 176.748 175.957 175.53 174.727 
180.646 180.315 179.381 178.694 177.65 177.008 176.137 175.642 174.811 
174.322 173.451 179.98 180.047 179.173 178.84 177.668 177.166 176.064 
175.678 174.703 174.331 173.353 172.961 172.065 179.076 179.194 178.442 
178.354 177.287 176.933 175.738 175.37 174.267 173.986 172.958 172.695 
171.747 171.508 170.684 178.434 178.392 177.692 177.624 176.771 176.52 
175.505 175.076 174.017 173.576 172.593 172.255 171.383 171.137 170.349 
170.135 169.385 178.001 177.862 177.125 176.998 176.236 176.076 175.268 
174.947 174.037 173.536 172.595 172.093 171.263 170.891 170.17 169.875 
169.171 168.895 168.193 179.731 180.815 180.296 180.243 181.913 181.411 
181.381 180.734 180.532 182.968 182.54 182.545 181.888 181.705 180.997 
180.829 183.83 183.575 183.683 183.079 182.878 182.16 181.966 181.343 
181.235 184.467 184.347 184.541 184.131 183.946 183.296 182.973 182.361 
182.082 181.579 181.232 184.97 184.893 185.015 184.782 184.593 184.167 
183.793 183.249 182.771 182.216 181.645 181.164 180.512 185.189 185.223 
185.214 185.083 184.816 184.56 184.199 183.86 183.389 182.845 182.168 
181.524 180.801 180.269 179.62 185.02 185.178 185.136 185.137 184.867 
184.677 184.296 184.075 183.673 183.327 182.739 182.125 181.408 180.728 
180.121 179.545 179.043 184.79 184.903 184.904 184.979 184.828 184.714 
184.365 184.136 183.704 183.462 182.946 182.569 181.925 181.378 180.758 
180.18 179.676 179.115 178.645 184.782 184.856 184.809 184.818 184.741 
184.808 184.721 184.779 184.714 184.159 184.463 184.345 184.536 184.36 
184.48 184.244 183.21 183.659 183.533 183.915 183.689 183.944 183.615 
183.796 183.484 182.09 182.586 182.42 182.919 182.706 183.094 182.739 
183.005 182.619 182.918 182.622 180.892 181.391 181.181 181.715 181.528 
182.021 181.727 182.057 181.65 181.947 181.606 181.983 181.664 179.764 
180.211 180.004 180.475 180.293 180.813 180.602 181.023 180.664 180.962 
180.577 180.925 180.627 180.989 180.631 178.736 179.158 178.974 179.372 
179.169 179.619 179.427 179.89 179.599 179.952 179.544 179.871 179.519 
179.927 179.636 179.978 179.601 177.702 178.148 177.966 178.369 178.132 
178.534 178.297 178.74 178.479 178.875 178.5 178.816 178.41 178.787 
178.478 178.919 178.619 178.959 178.564 177.049 176.084 176.825 177.297 
175.002 175.792 176.248 177.012 177.444 173.813 174.657 175.104 175.906 
176.361 177.136 177.586 172.527 173.431 173.932 174.761 175.233 176.031 
176.515 177.296 177.745 171.217 172.117 172.654 173.566 174.061 174.9 
175.366 176.184 176.622 177.403 177.762 170.006 170.809 171.276 172.221 
172.722 173.651 174.104 174.98 175.403 176.227 176.596 177.349 177.682 
168.951 169.638 170.036 170.872 171.37 172.275 172.767 173.668 174.15 
175.009 175.457 176.219 176.623 177.332 177.751 168.021 168.643 169.052 
169.759 170.268 171.044 171.575 172.394 172.946 173.802 174.35 175.146 
175.612 176.326 176.755 177.47 177.896 167.199 167.78 168.21 168.859 
169.359 170.061 170.575 171.314 171.845 172.658 173.22 174.055 174.542 
175.303 175.686 176.423 176.786 177.544 177.872 177.53 176.439 176.854 
176.589 175.337 175.727 175.425 175.872 175.646 174.204 174.616 174.264 
174.683 174.419 174.936 174.716 172.906 173.404 173.021 173.469 173.11 
173.641 173.369 173.929 173.57 171.544 172.044 171.661 172.141 171.719 
172.24 171.867 172.466 172.095 172.64 172.166 170.275 170.712 170.309 
170.758 170.335 170.816 170.398 170.928 170.538 171.106 170.718 171.234 
170.833 169.071 169.473 169.032 169.432 168.985 169.439 169.027 169.506 
169.1 169.602 169.242 169.79 169.479 170.006 169.716 167.927 168.288 
167.85 168.192 167.72 168.113 167.692 168.152 167.752 168.221 167.832 
168.35 168.036 168.616 168.347 168.92 168.669 166.907 167.206 166.803 
167.087 166.633 166.925 166.484 166.859 166.466 166.899 166.522 166.986 
166.654 167.186 166.921 167.502 167.265 167.86 167.66 178.788 178.893 
179.15 179.732 178.908 179.228 179.879 180.126 180.837 178.841 179.233 
179.987 180.313 181.125 181.402 182.251 178.7 179.138 179.95 180.406 
181.275 181.668 182.497 182.803 183.45 178.574 178.981 179.777 180.307 
181.18 181.692 182.45 182.862 183.432 183.715 184.051 178.502 178.868 
179.612 180.113 180.979 181.516 182.258 182.68 183.236 183.576 184.018 
184.211 184.484 178.352 178.759 179.44 179.927 180.743 181.294 182.058 
182.485 183.071 183.4 183.933 184.212 184.635 184.715 184.892 178.06 
178.525 179.149 179.657 180.359 180.959 181.676 182.225 182.811 183.23 
183.745 184.12 184.571 184.808 184.999 185.004 184.957 177.712 178.185 
178.764 179.262 179.84 180.429 181.035 181.682 182.239 182.819 183.295 
183.802 184.217 184.611 184.83 184.981 184.94 184.911 184.8 178.874 
179.858 179.362 179.325 180.996 180.412 180.452 179.861 179.762 182.416 
181.727 181.772 181.082 181.005 180.276 179.965 183.588 183.106 183.099 
182.455 182.313 181.553 181.185 180.326 179.759 184.122 183.923 183.866 
183.524 183.33 182.763 182.348 181.53 180.9 179.988 179.348 184.463 
184.261 184.181 183.985 183.849 183.535 183.223 182.602 182.013 181.127 
180.43 179.562 179.002 184.812 184.613 184.541 184.311 184.258 183.993 
183.843 183.387 182.949 182.196 181.519 180.638 179.99 179.222 178.742 
184.886 184.853 184.819 184.706 184.707 184.49 184.387 184.007 183.627 
183.026 182.384 181.631 180.945 180.185 179.627 178.952 178.524 184.776 
184.816 184.838 184.874 184.921 184.866 184.767 184.505 184.096 183.598 
182.922 182.309 181.605 180.994 180.416 179.809 179.342 178.732 178.325 
178.232 178.645 178.041 177.168 179.029 178.449 177.565 176.887 175.911 
179.155 178.733 177.887 177.3 176.351 175.64 174.649 178.89 178.646 
177.826 177.488 176.65 176.1 175.149 174.409 173.41 178.519 178.29 
177.483 177.262 176.499 176.224 175.397 174.871 173.883 173.162 172.206 
178.292 178.023 177.296 176.985 176.247 175.982 175.232 174.922 174.025 
173.511 172.519 171.935 171.08 178.116 177.885 177.26 176.939 176.245 
175.864 175.122 174.755 173.926 173.506 172.555 172.083 171.163 170.745 
169.951 177.916 177.718 177.126 176.898 176.247 175.915 175.175 174.764 
173.954 173.483 172.59 172.081 171.176 170.731 169.918 169.556 168.809 
177.719 177.517 176.914 176.721 176.085 175.839 175.117 174.786 173.999 
173.579 172.744 172.224 171.368 170.828 170.04 169.576 168.877 168.473 
167.814 179.521 179.463 179.85 180.581 179.411 179.787 180.512 180.918 
181.656 179.379 179.752 180.46 180.843 181.546 181.952 182.637 179.328 
179.727 180.493 180.853 181.524 181.833 182.406 182.804 183.39 179.233 
179.655 180.457 180.896 181.644 181.913 182.421 182.605 183.067 183.455 
184.015 179.108 179.518 180.221 180.737 181.508 181.977 182.58 182.755 
183.157 183.286 183.783 184.124 184.652 178.967 179.361 179.953 180.402 
181.048 181.638 182.334 182.808 183.348 183.522 183.953 184.084 184.524 
184.751 185.034 178.742 179.173 179.736 180.122 180.667 181.143 181.817 
182.418 183.144 183.599 184.144 184.322 184.653 184.723 184.886 184.969 
184.966 178.385 178.86 179.41 179.855 180.393 180.819 181.452 181.974 
182.74 183.309 183.989 184.368 184.736 184.843 184.929 184.901 184.857 
184.838 184.78 
POINT_DATA 1002
SCALARS Distance double
LOOKUP_TABLE default
176.341 177.252 176.317 175.318 175.261 175.334 174.179 174.111 174.257 
174.212 172.907 172.886 172.98 172.971 172.931 171.544 171.609 171.553 
171.524 171.504 171.587 170.161 170.278 170.161 170.129 170.123 170.245 
170.365 168.803 168.99 168.844 168.87 168.872 169.068 169.261 169.295 
167.576 167.89 167.555 167.609 167.543 167.683 168.054 168.239 168.302 
166.547 166.953 166.365 166.369 166.269 166.183 166.467 166.882 167.139 
167.393 165.659 166.079 165.331 165.218 165.203 165.109 165.126 165.417 
165.804 166.191 166.627 177.585 176.647 177.925 177.01 178.152 175.553 
177.212 178.211 175.855 174.32 177.23 178.264 175.976 174.505 173.046 
177.271 178.406 175.999 174.583 173.186 171.762 177.377 178.541 176.075 
174.685 173.295 171.921 170.441 177.469 178.606 176.143 174.795 173.424 
172.04 170.647 169.212 177.493 178.576 176.173 174.834 173.499 172.111 
170.776 169.464 168.143 177.377 178.415 176.137 174.86 173.565 172.189 
170.862 169.631 168.374 167.138 177.452 176.234 176.212 174.934 174.912 
175 173.57 173.639 173.777 173.767 172.16 172.402 172.392 172.564 
172.384 170.935 171.324 170.96 171.236 171.205 170.965 169.982 170.328 
169.744 169.873 170.01 169.845 169.653 168.948 169.208 168.613 168.492 
168.607 168.572 168.364 168.293 167.733 168.078 167.361 167.094 167.062 
167.046 166.86 166.762 166.915 166.651 167.17 166.165 165.788 165.605 
165.519 165.353 165.237 165.405 165.761 164.929 164.492 163.7 164.03 
163.176 162.338 163.772 162.572 161.706 160.931 163.8 162.109 160.937 
160.252 159.735 163.975 162.041 160.395 159.57 159.166 158.794 164.259 
162.429 160.548 159.362 158.826 158.38 158.034 164.722 163.144 161.396 
159.939 159.029 158.329 157.795 157.612 165.343 163.989 162.515 161.044 
159.802 158.752 157.951 157.581 157.572 166.033 164.833 163.546 162.189 
160.854 159.589 158.53 157.905 157.692 157.695 164.478 163.145 164.12 
161.714 162.787 164.074 160.42 161.495 162.974 164.237 159.387 160.386 
161.928 163.437 164.33 158.523 159.421 160.848 162.51 163.677 164.412 
157.928 158.635 159.807 161.346 162.773 163.753 164.652 157.739 158.212 
159.062 160.267 161.656 162.933 164.009 165.074 157.788 158.134 158.757 
159.617 160.703 162.001 163.333 164.531 165.613 157.855 158.11 158.23 
158.761 159.062 158.676 159.789 160.17 159.561 159.41 160.871 161.24 
160.645 160.306 160.215 161.948 162.436 161.728 161.369 161.06 161.296 
163.225 163.812 162.91 162.586 162.229 162.261 162.75 164.543 165.098 
164.177 163.883 163.592 163.519 163.813 164.224 165.784 166.291 165.407 
165.124 164.917 164.819 164.935 165.219 165.457 167.038 167.494 166.665 
166.351 166.153 166.069 166.048 166.162 166.371 166.518 157.878 158.044 
158.352 158.685 159.267 158.59 159.863 160.522 159.556 159.68 161.27 
161.85 160.944 160.861 160.918 162.631 163.162 162.313 162.234 162.166 
162.133 163.965 164.458 163.616 163.535 163.575 163.527 163.534 165.266 
165.7 164.952 164.866 164.95 164.998 164.939 164.921 166.488 166.875 
166.223 166.183 166.275 166.318 166.272 166.177 166.141 167.62 167.956 
167.378 167.354 167.474 167.521 167.468 167.409 167.349 167.346 167.094 
165.956 167.067 165.832 166.929 164.687 165.636 166.781 164.454 163.322 
165.616 166.827 164.301 163.059 161.946 165.782 166.964 164.424 163.007 
161.747 160.602 165.925 167.093 164.637 163.212 161.839 160.557 159.387 
166.124 167.322 164.861 163.507 162.149 160.838 159.563 158.528 166.477 
167.645 165.231 163.922 162.584 161.269 159.969 158.83 158.074 168.198 
168.188 169.291 169.374 170.537 168.191 170.678 171.913 169.405 168.057 
171.973 173.213 170.683 169.312 167.964 173.15 174.367 171.898 170.629 
169.303 168.047 174.302 175.415 173.089 171.878 170.654 169.384 168.17 
175.378 176.31 174.293 173.106 171.891 170.667 169.454 168.324 176.279 
177.111 175.318 174.242 173.08 171.872 170.675 169.569 168.566 177.12 
177.929 176.17 175.168 174.164 173.086 171.896 170.742 169.735 168.822 