# vtk DataFile Version 4.0
vtk output
ASCII
DATASET POLYDATA
POINTS 1002 float
-102.914 -119.631 76.327 -103.291 -120.981 76.137 -103.336 -120.285 75.4026 
-103.042 -118.668 75.5623 -103.414 -119.388 74.6086 -102.818 -117.658 76.5183 
-103.163 -117.493 74.7707 -103.439 -118.354 73.8078 -102.859 -116.457 75.744 
-102.613 -115.354 76.672 -103.133 -116.247 73.9473 -103.47 -117.137 73.0408 
-102.771 -115.248 74.9503 -102.3 -114.337 75.9048 -101.941 -113.493 76.8892 
-102.985 -115.033 73.0652 -103.53 -115.833 72.2809 -102.483 -114.199 74.0393 
-101.821 -113.525 75.0683 -101.27 -112.911 76.1198 -100.92 -112.25 77.1917 
-102.756 -113.967 72.1593 -103.494 -114.668 71.5271 -102.089 -113.307 73.0192 
-101.278 -112.77 74.0436 -100.519 -112.26 75.174 -100.088 -111.631 76.3225 
-99.8577 -110.924 77.4006 -102.422 -113.033 71.2794 -103.355 -113.608 70.8281 
-101.642 -112.485 72.0291 -100.825 -111.947 72.9871 -99.9658 -111.363 74.0884 
-99.3831 -110.701 75.2603 -99.1405 -109.977 76.417 -99.1538 -109.281 77.5014 
-102.114 -112.056 70.473 -103.258 -112.493 70.2525 -101.212 -111.602 71.0802 
-100.496 -111.058 72.0133 -99.8017 -110.404 73.0974 -99.2479 -109.701 74.2327 
-98.9252 -109.005 75.3831 -98.866 -108.317 76.5403 -99.0906 -107.701 77.6094 
-101.989 -110.964 69.8835 -103.237 -111.34 69.8809 -100.987 -110.56 70.2467 
-100.326 -110.023 71.0502 -99.8484 -109.386 72.1243 -99.5426 -108.72 73.2898 
-99.3469 -108.076 74.4356 -99.1648 -107.441 75.5866 -99.1635 -106.811 76.7089 
-99.3921 -106.249 77.6831 -102.026 -109.82 69.5523 -103.243 -110.223 69.677 
-101.015 -109.4 69.6807 -100.373 -108.823 70.2228 -99.9575 -108.159 71.1077 
-99.7416 -107.522 72.2267 -99.7369 -106.923 73.419 -99.677 -106.351 74.5781 
-99.5105 -105.795 75.7228 -99.4832 -105.263 76.7733 -99.6193 -104.784 77.6618 
-103.955 -121.644 75.5442 -103.959 -120.907 74.7543 -104.728 -122.254 74.9065 
-104.724 -121.438 74.0908 -105.405 -122.971 74.0801 -103.927 -120.062 73.9067 
-105.559 -122.039 73.3157 -106.174 -123.618 73.1687 -104.754 -120.534 73.2661 
-103.958 -119.073 73.1056 -106.522 -122.609 72.4845 -107.348 -123.813 72.5258 
-105.776 -121.033 72.5397 -104.912 -119.502 72.4854 -104.146 -117.82 72.3745 
-107.649 -122.892 71.7477 -108.719 -123.674 72.0236 -106.729 -121.639 71.6618 
-105.898 -119.997 71.6991 -105.081 -118.319 71.7078 -104.321 -116.499 71.6556 
-108.846 -122.928 71.0187 -109.897 -123.643 71.2514 -107.733 -122.012 70.853 
-106.74 -120.597 70.8065 -105.874 -118.903 70.8619 -105.13 -117.143 70.9831 
-104.357 -115.291 71.0031 -110.021 -122.868 70.2658 -110.907 -123.671 70.3809 
-108.975 -121.947 70.2331 -107.878 -120.806 70.1807 -106.811 -119.359 70.098 
-105.908 -117.719 70.1953 -105.212 -115.895 70.4347 -104.393 -114.04 70.4748 
-111.161 -122.63 69.6794 -111.915 -123.459 69.7547 -110.243 -121.631 69.7148 
-109.185 -120.618 69.7258 -108.074 -119.465 69.6015 -106.985 -118.042 69.5207 
-106.11 -116.358 69.7269 -105.397 -114.492 70.0313 -104.459 -112.735 70.0842 
-112.232 -122.184 69.2788 -112.884 -123.026 69.296 -111.363 -121.229 69.2631 
-110.241 -120.392 69.1621 -109.102 -119.522 69.0251 -108.079 -118.277 68.9622 
-107.125 -116.692 69.0716 -106.298 -114.95 69.391 -105.492 -113.154 69.7395 
-104.452 -111.521 69.8456 -113.412 -121.989 68.8223 -112.664 -121.005 68.8783 
-113.836 -120.895 68.3428 -112.834 -120.052 68.2562 -114.052 -119.95 67.7683 
-111.441 -120.259 68.6199 -112.753 -119.225 67.4485 -114.017 -118.842 67.0982 
-111.193 -119.585 67.6259 -109.97 -119.686 68.2256 -112.484 -117.924 66.8544 
-113.657 -117.296 66.6545 -110.952 -118.501 66.8255 -109.613 -118.811 67.2612 
-108.832 -118.622 68.1886 -111.966 -116.192 66.8084 -113.03 -115.641 66.8051 
-110.706 -116.62 66.7027 -109.534 -116.98 66.9433 -108.689 -117.103 67.7068 
-107.985 -116.922 68.4776 -111.421 -114.414 67.1258 -112.415 -114.088 67.3506 
-110.258 -114.57 66.9316 -109.331 -114.667 67.0266 -108.619 -114.931 67.5966 
-107.876 -115.158 68.2529 -107.079 -115.12 68.8049 -111.141 -112.601 67.4839 
-111.93 -112.542 67.9017 -110.01 -112.645 67.1224 -108.972 -112.676 66.9739 
-108.266 -112.896 67.3108 -107.582 -113.299 67.97 -106.828 -113.478 68.6194 
-106.151 -113.331 69.2236 -110.964 -110.913 67.9252 -111.491 -111.062 68.4341 
-110.115 -110.861 67.4621 -109.01 -110.962 67.1199 -108.011 -111.188 67.1329 
-107.214 -111.499 67.6401 -106.471 -111.698 68.4043 -105.799 -111.631 69.114 
-105.165 -111.493 69.6052 -110.678 -109.534 68.5239 -111.094 -109.705 68.9993 
-110.133 -109.423 68.0882 -109.246 -109.467 67.7613 -108.094 -109.6 67.6294 
-107.038 -109.701 67.8208 -106.22 -109.724 68.3327 -105.506 -109.688 68.9455 
-104.784 -109.699 69.4125 -104.019 -109.881 69.6305 -102.54 -108.774 69.3311 
-103.402 -108.219 69.1936 -101.981 -107.243 68.7152 -104.346 -107.817 68.9843 
-102.925 -106.653 68.3372 -101.601 -105.766 67.9234 -105.176 -107.671 68.7704 
-103.969 -106.218 68.2332 -102.611 -105.343 67.4754 -101.39 -104.15 67.4383 
-105.904 -107.74 68.6248 -104.739 -105.974 68.5522 -103.682 -104.94 67.6812 
-102.562 -103.702 67.2409 -101.481 -102.013 67.472 -106.899 -107.891 68.5365 
-105.445 -105.885 68.9663 -104.415 -104.433 68.3633 -103.778 -103.138 67.5729 
-102.893 -101.327 67.3822 -101.886 -99.7862 67.6625 -108.215 -108.011 68.5017 
-106.65 -105.984 69.0943 -105.252 -103.97 68.8825 -104.657 -102.455 68.0872 
-104.234 -100.775 67.4632 -103.359 -99.1426 67.4243 -102.38 -98.2916 67.9518 
-109.32 -108.084 68.5985 -108.06 -106.255 69.0577 -106.598 -103.931 69.0471 
-105.624 -101.989 68.5531 -105.16 -100.452 67.8787 -104.58 -98.9122 67.4873 
-103.717 -97.8502 67.7863 -102.853 -97.3712 68.5943 -109.98 -108.155 68.8867 
-109.064 -106.511 69.1869 -107.932 -104.299 69.1891 -106.882 -102.061 68.9548 
-106.105 -100.412 68.5998 -105.451 -99.0255 68.2085 -104.771 -97.7865 68.1853 
-104.04 -96.9739 68.7155 -103.305 -96.4249 69.4228 -110.467 -108.24 69.2891 
-109.746 -106.624 69.5168 -108.892 -104.682 69.518 -108.025 -102.524 69.3568 
-107.234 -100.665 69.2104 -106.446 -99.2396 69.0759 -105.695 -98.0012 69.041 
-105.043 -96.9458 69.2998 -104.386 -96.1126 69.7346 -103.691 -95.4241 70.115 
-101.405 -108.301 69.2288 -101.005 -106.589 68.7553 -100.643 -107.658 69.4905 
-100.717 -104.786 68.2041 -100.426 -105.653 69.1818 -100.178 -106.842 70.1046 
-100.583 -102.781 67.8978 -100.228 -103.625 68.7802 -100.001 -104.674 69.8712 
-99.8207 -106.068 71.0378 -100.796 -100.609 67.9649 -100.278 -101.631 68.597 
-99.9394 -102.677 69.6858 -99.6715 -103.875 70.9649 -99.7238 -105.403 72.2646 
-101.237 -98.8604 68.3213 -100.608 -99.7373 68.8451 -100.257 -100.863 69.8271 
-99.8193 -101.994 71.098 -99.664 -103.239 72.3448 -99.8103 -104.817 73.5456 
-101.721 -97.7199 68.9417 -100.92 -98.1823 69.4221 -100.582 -99.062 70.2562 
-100.302 -100.324 71.4375 -99.9452 -101.5 72.5784 -99.797 -102.749 73.6671 
-99.7513 -104.316 74.7814 -102.263 -96.6632 69.6433 -101.306 -96.9171 70.0559 
-100.716 -97.4193 70.7549 -100.527 -98.549 71.8052 -100.398 -99.9209 72.908 
-100.089 -101.081 73.9037 -99.7875 -102.355 74.9503 -99.6247 -103.874 75.9717 
-102.781 -95.5005 70.2039 -101.891 -95.7454 70.565 -101.102 -96.1447 71.2398 
-100.608 -96.9599 72.2217 -100.505 -98.2188 73.3135 -100.41 -99.4965 74.3083 
-100.045 -100.681 75.2574 -99.7181 -102.02 76.1992 -99.631 -103.471 77.0181 
-103.483 -94.4733 70.6793 -102.657 -94.5956 70.9406 -103.336 -93.8291 71.5836 
-102.659 -94.1851 72.2764 -103.36 -93.7164 73.2564 -101.938 -95.0612 71.6508 
-102.761 -94.2304 74.2924 -103.57 -93.815 75.3298 -102.114 -94.9184 73.4141 
-101.187 -95.7661 72.7232 -102.939 -94.2615 76.2642 -103.921 -93.8187 77.1991 
-102.287 -94.9876 75.4198 -101.366 -95.7315 74.6529 -100.628 -96.7206 73.9002 
-103.218 -94.3256 77.9812 -104.327 -93.9732 78.9029 -102.481 -95.0435 77.0838 
-101.596 -95.8004 76.4121 -100.717 -96.6167 75.7384 -100.45 -97.9096 74.9702 
-103.541 -94.7253 79.6686 -104.707 -94.4996 80.3839 -102.722 -95.3086 78.7341 
-101.927 -96.0685 77.9242 -100.968 -96.8301 77.3453 -100.391 -97.8296 76.7057 
-100.232 -99.2205 75.9294 -103.914 -95.382 80.9651 -105.084 -95.2455 81.4083 
-102.976 -95.7824 80.3335 -102.24 -96.4675 79.5213 -101.39 -97.3208 78.8142 
-100.568 -98.2099 78.2614 -100.102 -99.2855 77.5779 -99.8717 -100.61 76.8059 
-104.382 -96.1535 81.8233 -105.441 -96.0313 82.2328 -103.381 -96.4289 81.4342 
-102.561 -96.9404 80.8581 -101.817 -97.7759 80.1348 -101.006 -98.7126 79.5747 
-100.289 -99.6262 79.0397 -99.8757 -100.73 78.294 -99.7122 -102.072 77.5572 
-104.819 -96.9679 82.6653 -105.696 -96.8029 83.1209 -103.918 -97.2504 82.2746 
-103.057 -97.6633 81.8108 -102.295 -98.3518 81.1301 -101.554 -99.2264 80.546 
-100.751 -100.052 80.199 -100.098 -100.964 79.6766 -99.8117 -102.165 78.8972 
-99.738 -103.516 78.1905 -104.526 -95.0551 70.5942 -104.415 -94.1722 71.1978 
-105.562 -95.078 71.2223 -105.761 -94.2393 71.973 -106.688 -95.2531 71.8982 
-104.456 -93.6481 72.3186 -107.149 -94.3637 72.827 -107.671 -95.4428 72.5874 
-106.181 -93.6924 73.2719 -104.722 -93.6068 74.1763 -108.149 -94.6856 73.6161 
-108.674 -95.9377 73.2655 -107.679 -93.8282 74.1683 -106.595 -93.6753 75.0814 
-105.09 -93.7254 76.2083 -109.155 -95.471 74.3287 -109.889 -96.6525 73.8437 
-108.545 -94.4313 74.9967 -107.884 -94.0047 75.8713 -106.788 -93.9349 76.9319 
-105.452 -93.805 78.0293 -110.358 -96.2768 74.9713 -110.928 -97.2699 74.4013 
-109.548 -95.3957 75.8061 -108.712 -94.765 76.7348 -107.881 -94.4619 77.6205 
-106.911 -94.2061 78.6424 -105.78 -94.1115 79.6806 -111.245 -97.0017 75.5989 
-111.567 -98.0407 75.0684 -110.701 -96.2258 76.4664 -109.886 -95.6081 77.5298 
-108.915 -95.1687 78.3968 -107.995 -94.8835 79.185 -107.091 -94.685 80.1647 
-106.074 -94.7731 80.9912 -111.795 -98.0451 76.2285 -112.108 -99.116 75.715 
-111.451 -97.167 77.0198 -110.984 -96.4452 78.0687 -110.174 -95.8938 79.0319 
-109.126 -95.6167 79.7535 -108.169 -95.4953 80.562 -107.285 -95.4267 81.4402 
-106.336 -95.5773 82.0007 -112.37 -99.2505 76.7697 -112.746 -100.146 76.1758 
-111.97 -98.3911 77.5799 -111.629 -97.5425 78.5495 -111.119 -96.8018 79.5018 
[...]
CELL_DATA 2000
SCALARS Distance double
LOOKUP_TABLE default
174.748 173.885 174.089 173.553 172.882 173.126 172.516 172.739 172.071 
171.755 172.02 171.351 171.603 170.89 171.135 170.461 170.558 170.808 
170.093 170.37 169.661 169.929 169.282 169.569 169.025 169.38 169.577 
168.825 169.091 168.384 168.677 168.02 168.357 167.779 168.16 167.634 
168.24 168.386 167.594 167.836 167.114 167.396 166.693 167.024 166.367 
166.785 166.194 166.662 166.141 167.133 167.227 166.379 166.599 165.874 
166.147 165.468 165.733 165.102 165.406 164.871 165.241 164.809 165.24 
164.917 166.119 166.131 165.236 165.389 164.654 164.918 164.3 164.576 
164.053 164.314 163.908 164.162 163.854 164.132 163.905 164.259 164.095 
165.239 165.174 164.259 164.308 163.551 163.743 163.125 163.417 162.917 
163.277 162.905 163.275 162.979 163.304 163.038 163.361 163.139 163.518 
163.324 175.299 175.869 175.216 174.461 176.432 175.768 174.968 174.314 
173.495 176.986 176.326 175.525 174.831 174.001 173.319 172.44 177.562 
176.906 176.147 175.426 174.602 173.871 173.007 172.259 171.323 178.121 
177.497 176.757 176.063 175.233 174.493 173.62 172.866 171.951 171.156 
170.195 178.578 178.018 177.281 176.645 175.809 175.092 174.187 173.456 
172.554 171.804 170.876 170.062 169.101 178.933 178.426 177.717 177.133 
176.34 175.653 174.76 174.01 173.105 172.38 171.506 170.753 169.835 
168.997 168.042 179.213 178.755 178.067 177.535 176.78 176.169 175.336 
174.613 173.715 172.955 172.082 171.358 170.505 169.735 168.825 167.97 
167.048 179.404 179.006 178.322 177.841 177.076 176.547 175.743 175.144 
174.285 173.579 172.686 171.95 171.095 170.374 169.531 168.752 167.871 
167.022 166.157 179.263 178.632 178.706 178.163 177.918 178.003 177.392 
177.479 176.872 177.035 177.201 176.497 176.603 175.917 176.099 175.499 
175.796 176.133 175.372 175.57 174.793 175.034 174.397 174.68 174.065 
174.336 174.732 173.958 174.26 173.437 173.77 173.095 173.479 172.872 
173.175 172.502 172.982 173.28 172.466 172.748 171.877 172.262 171.56 
172.058 171.473 171.903 171.267 171.564 170.893 171.798 171.997 171.134 
171.305 170.38 170.669 169.925 170.431 169.882 170.427 169.864 170.275 
169.638 169.96 169.319 170.736 170.869 170.054 170.12 169.256 169.344 
168.599 168.891 168.346 168.832 168.334 168.821 168.232 168.638 167.985 
168.344 167.676 169.809 169.898 169.204 169.227 168.522 168.484 167.798 
167.825 167.221 167.451 166.911 167.308 166.726 167.163 166.508 166.924 
166.239 166.631 165.962 164.888 165.095 164.412 163.281 165.35 164.621 
163.416 162.758 161.667 165.622 164.901 163.723 162.966 161.853 161.212 
160.219 165.945 165.238 164.141 163.347 162.288 161.55 160.57 159.879 
158.92 166.455 165.719 164.712 163.84 162.775 162.017 161.066 160.357 
159.373 158.627 157.708 167.173 166.433 165.544 164.558 163.414 162.502 
161.479 160.801 159.86 159.141 158.187 157.499 156.832 167.903 167.241 
166.472 165.515 164.373 163.258 162.114 161.248 160.346 159.636 158.793 
158.062 157.386 156.844 156.534 168.527 167.932 167.227 166.43 165.407 
164.306 163.153 162.076 161.17 160.306 159.603 158.8 158.207 157.523 
157.181 156.735 156.589 169.097 168.509 167.821 167.135 166.25 165.319 
164.279 163.212 162.306 161.339 160.677 159.804 159.281 158.486 158.127 
157.506 157.304 156.834 156.648 164.45 162.889 163.583 163.457 161.311 
162.009 161.933 162.685 162.73 159.802 160.438 160.347 161.142 161.219 
162.054 162.256 158.395 158.937 158.769 159.543 159.608 160.489 160.722 
161.655 162.024 157.189 157.584 157.408 158.053 158.152 158.935 159.191 
160.097 160.55 161.543 162.065 156.443 156.592 156.478 156.901 157.111 
157.719 158.066 158.756 159.213 160.099 160.716 161.688 162.231 156.24 
156.16 156.037 156.206 156.392 156.875 157.317 157.901 158.381 159.003 
159.546 160.373 160.991 161.878 162.359 156.273 156.125 155.911 155.903 
155.893 156.214 156.562 157.183 157.723 158.337 158.826 159.413 159.924 
160.676 161.234 162.031 162.488 156.241 156.112 155.835 155.783 155.664 
155.784 155.97 156.429 156.938 157.612 158.168 158.768 159.216 159.785 
160.262 160.961 161.488 162.218 162.675 156.072 155.795 155.802 155.694 
156.131 155.799 155.752 155.64 155.662 157.105 156.504 156.497 156.077 
156.146 155.843 156.031 158.227 157.595 157.564 157.068 157.124 156.623 
156.746 156.457 156.905 159.346 158.676 158.589 158.109 158.151 157.663 
157.707 157.29 157.589 157.493 158.082 160.591 159.843 159.733 159.148 
159.209 158.692 158.77 158.273 158.477 158.209 158.67 158.639 159.174 
161.836 161.116 160.99 160.354 160.397 159.837 159.97 159.42 159.621 
159.174 159.531 159.294 159.775 159.685 160.205 162.99 162.327 162.201 
161.582 161.585 161.036 161.156 160.65 160.852 160.373 160.649 160.254 
160.634 160.391 160.886 160.79 161.375 164.102 163.479 163.402 162.786 
162.802 162.22 162.324 161.809 162.006 161.555 161.805 161.378 161.669 
161.318 161.723 161.533 162.071 162.009 162.579 156.424 157.155 156.494 
156.135 158.296 157.472 157.109 156.434 156.425 159.503 158.748 158.536 
157.72 157.703 157.084 157.391 160.691 159.976 159.902 159.216 159.305 
158.608 158.831 158.234 158.58 162.1 161.291 161.231 160.558 160.714 
160.146 160.401 159.783 160.025 159.419 159.735 163.559 162.8 162.777 
162.017 162.152 161.523 161.792 161.237 161.501 160.906 161.163 160.598 
160.956 164.826 164.196 164.256 163.596 163.756 163.072 163.294 162.643 
162.897 162.31 162.589 162.037 162.347 161.831 162.185 166.072 165.448 
165.548 164.986 165.201 164.63 164.85 164.198 164.384 163.734 163.981 
163.423 163.74 163.216 163.527 163.012 163.326 167.363 166.746 166.857 
166.284 166.507 165.986 166.229 165.664 165.836 165.208 165.388 164.811 
165.089 164.576 164.88 164.354 164.621 164.107 164.395 169.213 168.879 
168.665 167.862 168.428 168.232 167.335 167.179 166.254 167.975 167.737 
166.804 166.597 165.618 165.431 164.387 167.652 167.333 166.404 166.113 
165.149 164.86 163.848 163.563 162.548 167.431 167.068 166.144 165.799 
164.854 164.495 163.498 163.14 162.163 161.856 160.952 167.283 166.881 
165.965 165.59 164.671 164.28 163.293 162.87 161.891 161.542 160.671 
160.387 159.589 167.266 166.805 165.92 165.482 164.623 164.188 163.271 
162.768 161.821 161.367 160.55 160.204 159.493 159.162 158.494 167.352 
166.87 166.021 165.533 164.731 164.26 163.435 162.882 161.989 161.431 
160.64 160.213 159.554 159.18 158.542 158.187 157.618 167.49 167.01 
166.209 165.703 164.945 164.461 163.706 163.152 162.305 161.695 160.891 
160.394 159.722 159.31 158.639 158.245 157.585 157.313 156.812 170.01 
171.191 170.329 169.745 172.347 171.507 170.916 170.016 169.346 173.443 
172.621 172.037 171.173 170.519 169.592 168.912 174.544 173.708 173.116 
172.267 171.657 170.773 170.141 169.207 168.589 175.637 174.82 174.231 
173.364 172.76 171.901 171.311 170.434 169.842 168.931 168.356 176.667 
175.908 175.358 174.499 173.879 173.008 172.397 171.558 170.975 170.135 
169.574 168.707 168.183 177.592 176.915 176.4 175.602 174.986 174.122 
173.499 172.646 172.065 171.233 170.696 169.877 169.392 168.566 168.127 
178.356 177.782 177.301 176.596 176.013 175.201 174.605 173.767 173.228 
172.379 171.862 171.011 170.531 169.731 169.319 168.541 168.164 178.972 
178.479 178.059 177.455 176.949 176.211 175.657 174.862 174.352 173.555 
173.061 172.217 171.695 170.86 170.4 169.657 169.29 168.574 168.243 
179.182 179.27 178.916 178.285 179.337 178.987 178.304 177.955 177.223 
179.262 178.98 178.278 177.952 177.174 176.794 175.966 179.086 178.831 
178.126 177.855 177.051 176.697 175.825 175.474 174.655 178.927 178.63 
177.884 177.635 176.82 176.507 175.605 175.277 174.42 174.149 173.352 
178.786 178.445 177.618 177.354 176.558 176.273 175.422 175.067 174.187 
173.868 173.024 172.779 171.966 178.575 178.261 177.39 177.087 176.323 
176.058 175.338 174.987 174.178 173.734 172.858 172.468 171.635 171.378 
170.646 178.14 177.976 177.156 176.884 176.13 175.872 175.209 174.941 
174.229 173.818 172.968 172.453 171.595 171.167 170.439 170.175 169.56 
177.431 177.444 176.729 176.605 175.874 175.672 174.959 174.755 174.034 
173.777 172.975 172.577 171.731 171.263 170.498 170.102 169.451 169.174 
168.572 176.753 175.58 176.161 176.124 174.403 174.953 174.892 175.482 
175.356 173.238 173.733 173.579 174.188 174.061 174.639 174.444 172.028 
172.516 172.28 172.848 172.661 173.266 173.063 173.665 173.459 170.651 
171.205 170.929 171.515 171.293 171.871 171.632 172.22 172.005 172.642 
172.416 169.151 169.744 169.453 170.084 169.86 170.482 170.239 170.811 
170.569 171.175 170.973 171.577 171.29 167.697 168.264 168 168.597 
168.365 168.998 168.76 169.378 169.126 169.745 169.53 170.152 169.918 
170.453 170.129 166.359 166.887 166.658 167.205 166.964 167.528 167.272 
167.871 167.63 168.266 168.048 168.693 168.46 169.062 168.782 169.314 
169.033 165.132 165.609 165.386 165.907 165.668 166.179 165.904 166.433 
166.196 166.794 166.613 167.231 167.019 167.602 167.334 167.911 167.657 
168.247 168.064 176.889 176.863 176.477 175.761 177.214 176.638 175.899 
175.407 174.677 177.648 177.107 176.304 175.673 174.836 174.332 173.563 
177.559 177.333 176.419 175.933 174.899 174.434 173.532 173.166 172.352 
176.877 176.91 175.97 175.705 174.53 174.211 173.187 172.973 172.108 
171.853 170.975 176.066 176.118 175.296 175.116 174.029 173.707 172.669 
172.468 171.606 171.46 170.579 170.348 169.432 175.393 175.371 174.634 
174.507 173.617 173.319 172.372 172.044 171.148 170.912 170.017 169.831 
168.904 168.736 167.888 174.832 174.752 173.993 173.897 173.096 172.942 
172.097 171.825 170.884 170.535 169.541 169.26 168.321 168.152 167.317 
167.221 166.502 174.329 174.217 173.452 173.309 172.513 172.396 171.597 
171.451 170.542 170.246 169.212 168.855 167.893 167.64 166.85 166.695 
166.008 165.91 165.29 177.679 178.961 178.033 177.628 180.414 179.404 
178.927 178.08 177.89 181.823 180.892 180.372 179.416 179.074 178.395 
178.261 182.938 182.241 181.791 180.852 180.334 179.512 179.13 178.558 
178.17 183.614 183.2 182.86 182.148 181.601 180.726 180.095 179.322 
178.703 178.124 177.479 183.887 183.674 183.353 182.954 182.458 181.817 
181.149 180.301 179.507 178.682 177.933 177.309 176.656 183.97 183.814 
183.473 183.226 182.736 182.367 181.766 181.188 180.435 179.601 178.777 
177.935 177.248 176.593 176.025 184.062 183.883 183.583 183.33 182.866 
182.52 181.935 181.55 180.91 180.372 179.625 178.864 178.105 177.331 
176.703 176.052 175.5 184.18 183.995 183.731 183.497 183.105 182.727 
182.155 181.709 181.086 180.673 180.042 179.533 178.819 178.153 177.434 
176.758 176.131 175.525 174.969 184.128 183.757 183.872 183.659 183.206 
183.402 183.206 183.348 183.028 182.58 182.773 182.518 182.755 182.412 
182.543 182.047 181.793 182.045 181.659 181.938 181.546 181.782 181.278 
181.412 180.897 180.652 181.062 180.616 180.961 180.516 180.822 180.34 
180.56 180.052 180.256 179.814 179.304 179.787 179.394 179.813 179.377 
179.736 179.27 179.568 179.076 179.34 178.862 179.133 178.648 178.02 
178.471 178.125 178.565 178.171 178.564 178.115 178.462 177.983 178.299 
177.799 178.098 177.58 177.859 177.311 176.845 177.258 176.923 177.34 
176.973 177.364 176.941 177.299 176.848 177.185 176.707 177.005 176.485 
176.76 176.235 176.507 176.003 175.741 176.127 175.808 176.192 175.848 
176.212 175.82 176.157 175.736 176.07 175.635 175.936 175.449 175.7 
175.193 175.453 174.992 175.27 174.842 175.027 173.866 174.682 175.078 
172.423 173.404 173.853 174.711 175.098 170.817 171.841 172.328 173.359 
173.809 174.69 175.048 169.363 170.263 170.702 171.743 172.245 173.281 
173.717 174.603 174.955 168.018 168.881 169.249 170.17 170.63 171.664 
172.161 173.179 173.61 174.501 174.848 166.593 167.498 167.889 168.776 
169.183 170.115 170.58 171.592 172.065 173.066 173.464 174.356 174.657 
165.351 166.127 166.573 167.43 167.871 168.737 169.165 170.076 170.526 
171.504 171.949 172.908 173.277 174.133 174.419 164.462 165.06 165.471 
166.208 166.66 167.466 167.888 168.721 169.143 170.037 170.506 171.44 
171.902 172.779 173.161 173.945 174.258 163.656 164.217 164.525 165.18 
165.552 166.295 166.682 167.469 167.867 168.707 169.175 170.08 170.598 
171.486 171.944 172.743 173.108 173.839 174.145 173.829 172.776 173.191 
172.926 171.615 172.083 171.779 172.208 171.938 170.261 170.819 170.497 
170.99 170.655 171.174 170.95 168.79 169.359 169.009 169.589 169.206 
169.78 169.445 170.096 169.834 167.43 167.886 167.489 168.044 167.666 
168.248 167.866 168.49 168.149 168.841 168.514 166.225 166.576 166.117 
166.575 166.201 166.737 166.395 166.944 166.621 167.202 166.915 167.533 
167.269 165.106 165.391 164.867 165.242 164.82 165.321 164.988 165.527 
165.224 165.77 165.519 166.082 165.878 166.446 166.28 164.098 164.306 
163.739 164.016 163.535 163.965 163.61 164.133 163.818 164.37 164.094 
164.697 164.49 165.108 164.94 165.544 165.427 163.225 163.358 162.774 
162.947 162.433 162.745 162.385 162.82 162.531 163.006 162.732 163.268 
163.057 163.676 163.526 164.172 164.064 164.715 164.675 180.008 179.841 
180.238 180.843 179.607 180.057 180.715 181.104 181.789 179.294 179.816 
180.54 180.989 181.723 182.134 182.921 178.828 179.441 180.187 180.765 
181.499 182.008 182.747 183.248 183.97 178.25 178.893 179.615 180.296 
181.029 181.655 182.307 182.889 183.505 184.084 184.591 177.699 178.307 
179.008 179.673 180.444 181.119 181.817 182.379 182.925 183.468 183.954 
184.498 184.838 177.161 177.766 178.439 179.073 179.823 180.529 181.322 
181.935 182.532 182.961 183.371 183.821 184.18 184.654 184.869 176.553 
177.18 177.794 178.447 179.09 179.833 180.567 181.351 181.992 182.561 
182.913 183.294 183.519 183.954 184.166 184.607 184.694 175.915 176.515 
177.06 177.712 178.258 178.984 179.578 180.42 181.009 181.799 182.172 
182.717 182.873 183.293 183.434 183.871 183.999 184.381 184.395 180.247 
181.126 180.76 180.882 182.109 181.707 181.925 181.466 181.547 183.277 
182.81 183.062 182.579 182.726 182.152 182.066 184.372 184.006 184.226 
183.749 183.863 183.322 183.221 182.538 182.17 184.982 184.878 185.037 
184.751 184.785 184.374 184.244 183.632 183.223 182.444 181.874 185.156 
185.207 185.274 185.208 185.168 185.031 184.914 184.537 184.148 183.445 
182.822 182.03 181.424 185.146 185.248 185.257 185.232 185.112 185.114 
184.998 184.936 184.625 184.213 183.584 182.895 182.19 181.511 180.935 
184.957 185.146 185.178 185.187 185.035 184.985 184.795 184.806 184.544 
184.426 183.91 183.479 182.775 182.174 181.512 180.952 180.416 184.614 
184.863 184.938 185.064 184.965 184.927 184.68 184.598 184.297 184.233 
183.868 183.664 183.152 182.694 182.082 181.5 180.916 180.393 179.901 
179.787 180.359 179.776 179.178 180.913 180.308 179.657 179.109 178.479 
181.329 180.781 180.025 179.506 178.821 178.342 177.614 181.385 181.016 
180.204 179.761 178.966 178.545 177.741 177.29 176.373 181.091 180.876 
180.094 179.792 178.979 178.595 177.709 177.275 176.319 175.867 174.894 
180.704 180.527 179.796 179.58 178.845 178.548 177.712 177.257 176.297 
175.793 174.871 174.424 173.568 180.325 180.18 179.496 179.288 178.595 
178.368 177.64 177.281 176.41 175.882 174.982 174.475 173.685 173.224 
172.44 179.892 179.817 179.196 179.019 178.333 178.117 177.415 177.164 
176.39 175.996 175.139 174.654 173.85 173.388 172.64 172.152 171.377 
179.413 179.381 178.818 178.707 178.057 177.86 177.147 176.919 176.168 
175.891 175.084 174.727 173.922 173.531 172.778 172.349 171.602 171.118 
170.388 178.02 178.879 178.772 179.359 179.447 179.587 180.329 180.207 
180.819 179.663 180.01 180.831 181.009 181.672 181.604 182.129 179.716 
180.111 180.904 181.277 181.935 182.151 182.651 182.697 183.088 179.832 
180.164 180.952 181.297 181.945 182.209 182.686 182.91 183.306 183.438 
183.703 180.023 180.338 181.183 181.465 182.152 182.288 182.734 182.868 
183.269 183.483 183.828 183.916 184.041 180.077 180.482 181.327 181.714 
182.424 182.581 182.981 182.999 183.332 183.468 183.864 184.01 184.249 
184.192 184.195 179.933 180.391 181.147 181.679 182.372 182.73 183.133 
183.228 183.486 183.572 183.937 184.092 184.424 184.436 184.54 184.356 
184.31 179.767 180.164 180.821 181.347 182.024 182.517 183.032 183.291 
183.615 183.716 184.035 184.169 184.514 184.614 184.818 184.733 184.753 
184.515 184.451 
POINT_DATA 1002
SCALARS Distance double
LOOKUP_TABLE default
174.296 175.359 174.592 173.383 173.684 172.983 172.315 172.652 171.857 
171.38 171.099 171.517 170.644 170.172 169.835 169.813 170.348 169.37 
168.973 168.702 168.54 168.571 169.223 168.093 167.692 167.397 167.239 
167.127 167.367 168.132 166.846 166.407 165.985 165.721 165.624 165.674 
166.183 167.084 165.587 165.19 164.809 164.515 164.382 164.425 164.656 
165.128 166.146 164.398 163.98 163.733 163.622 163.594 163.593 163.701 
163.931 164.249 165.322 163.401 162.855 162.543 162.481 162.617 162.732 
162.796 162.925 163.119 175.949 175.108 176.553 175.646 177.101 174.151 
176.233 177.628 174.698 173.155 176.859 178.202 175.351 173.761 172.107 
177.434 178.729 175.982 174.37 172.734 171.016 177.893 179.116 176.521 
174.928 173.266 171.666 169.95 178.273 179.412 176.987 175.514 173.84 
172.21 170.646 168.911 178.584 179.646 177.348 176.008 174.489 172.819 
171.222 169.65 167.916 178.791 179.777 177.594 176.288 174.936 173.432 
171.811 170.254 168.694 167.005 179.223 178.108 178.569 177.334 177.853 
176.736 176.418 176.836 175.742 175.276 175.148 175.406 174.552 174.087 
173.83 173.644 173.962 173.084 172.677 172.525 172.265 172.237 172.751 
171.52 171.031 170.979 170.922 170.618 171.005 171.641 170.163 169.46 
169.288 169.384 169.289 169.012 169.964 170.605 169.196 168.414 167.926 
167.826 167.795 167.617 167.331 169.126 169.699 168.525 167.847 167.138 
166.604 166.307 166.082 165.828 165.56 163.782 163.897 162.166 164.141 
162.213 160.626 164.482 162.547 160.8 159.235 164.931 163.013 161.306 
159.606 157.926 165.629 163.58 161.734 160.163 158.357 156.849 166.539 
164.472 162.195 160.512 158.911 157.299 156.354 167.341 165.542 163.111 
161.042 159.489 157.982 156.883 156.369 167.934 166.411 164.272 162.08 
160.39 158.933 157.709 156.956 156.446 168.469 167.064 165.279 163.289 
161.551 160.093 158.82 157.855 157.104 156.397 162.721 161.144 161.936 
159.549 160.351 161.375 158.031 158.733 159.745 161.053 156.801 157.399 
158.332 159.501 161.102 156.131 156.509 157.432 158.442 159.702 161.351 
156.001 155.984 156.69 157.836 158.872 160.071 161.556 156.009 155.728 
155.973 157.031 158.31 159.303 160.405 161.747 155.885 155.616 155.654 
156.287 157.503 158.698 159.653 160.735 161.986 155.938 155.587 155.864 
155.951 156.584 155.722 156.983 157.754 156.564 156.158 158.053 158.879 
157.662 157.154 156.931 159.101 160.061 158.617 158.18 157.793 158.051 
160.371 161.343 159.731 159.283 158.853 158.79 159.176 161.638 162.529 
160.962 160.501 160.13 159.885 159.923 160.232 162.817 163.627 162.149 
161.648 161.322 161.107 160.958 161.024 161.408 163.995 164.685 163.395 
162.865 162.461 162.239 162.074 161.978 162.171 162.637 156.939 156.607 
157.921 157.892 159.078 156.832 159.279 160.156 158.441 157.843 160.496 
161.425 159.933 159.546 159.113 161.955 162.921 161.246 160.964 160.698 
160.27 163.526 164.233 162.853 162.362 162.054 161.756 161.467 164.831 
165.417 164.413 164.006 163.517 163.123 162.891 162.686 166.098 166.705 
165.718 165.475 165.073 164.565 164.258 164.072 163.823 167.438 167.949 
167.038 166.767 166.448 165.99 165.611 165.401 165.167 164.874 169.473 
168.056 169.112 167.532 168.643 166.422 167.039 168.246 165.842 164.595 
166.716 167.997 165.461 164.146 162.807 166.495 167.804 165.224 163.881 
162.471 161.214 166.349 167.7 165.056 163.739 162.262 160.944 159.859 
166.371 167.732 165.043 163.772 162.306 160.896 159.812 158.811 166.509 
167.819 165.188 163.966 162.57 161.094 159.934 158.92 157.898 170.863 
170.654 172.058 171.813 173.173 170.286 172.88 174.279 171.423 169.852 
173.969 175.389 172.504 171.048 169.527 175.107 176.421 173.624 172.157 
170.731 169.272 176.201 177.384 174.771 173.248 171.792 170.405 169.048 
177.165 178.232 175.839 174.353 172.902 171.505 170.181 168.952 177.952 
178.888 176.79 175.416 174.051 172.735 171.351 170.066 168.942 178.599 