# vtk DataFile Version 4.0
vtk output
ASCII
DATASET POLYDATA
POINTS 1002 float
-103.93 -119.651 76.0342 -104.623 -120.491 75.7406 -104.544 -119.731 75.1884 
-103.854 -118.772 75.4895 -104.416 -118.892 74.6087 -103.259 -118.611 76.3502 
-103.747 -117.73 74.8164 -104.221 -117.972 73.8633 -103.21 -117.502 75.7644 
-102.771 -117.077 76.7677 -103.508 -116.622 73.9617 -104.034 -116.935 73.0905 
-103.067 -116.278 75.0364 -102.511 -115.96 76.1025 -102.164 -115.455 77.2227 
-103.178 -115.525 73.1925 -103.985 -115.746 72.5479 -102.645 -115.2 74.1996 
-102.029 -114.999 75.3762 -101.427 -114.786 76.4699 -101.162 -114.384 77.6403 
-102.923 -114.389 72.6453 -104.009 -114.432 72.1646 -102.035 -114.302 73.3856 
-101.375 -114.208 74.5598 -100.7 -114.152 75.7598 -100.306 -113.913 76.8559 
-100.221 -113.481 78.0996 -102.732 -113.19 72.1601 -103.857 -113.184 71.7384 
-101.559 -113.328 72.6499 -100.792 -113.353 73.6119 -100.262 -113.223 74.9348 
-99.8821 -112.961 76.1676 -99.8017 -112.538 77.3457 -99.8224 -112.047 78.6589 
-102.479 -112.077 71.6438 -103.49 -112.159 71.2392 -101.341 -112.158 72.0776 
-100.508 -112.198 72.7838 -100.065 -112.004 73.9576 -99.8001 -111.61 75.3654 
-99.7408 -111.132 76.6775 -99.8122 -110.644 77.9707 -99.8024 -110.207 79.2952 
-102.219 -111.092 71.0773 -103.127 -111.245 70.7106 -101.278 -110.966 71.606 
-100.518 -110.809 72.2862 -100.038 -110.572 73.1779 -99.7518 -110.207 74.4517 
-99.6891 -109.722 75.9224 -99.814 -109.203 77.3127 -99.879 -108.754 78.6605 
-99.7821 -108.44 79.9171 -102.075 -110.115 70.5096 -102.922 -110.294 70.255 
-101.274 -109.86 71.0657 -100.637 -109.481 71.8705 -100.157 -109.092 72.6839 
-99.7756 -108.772 73.6742 -99.6178 -108.409 75.0853 -99.7188 -107.938 76.5967 
-99.8256 -107.471 77.9604 -99.7595 -107.145 79.243 -99.5943 -107.005 80.3689 
-105.167 -120.986 74.9725 -105.104 -120.171 74.384 -105.699 -121.558 74.0786 
-105.742 -120.639 73.5128 -106.493 -121.892 73.2953 -105.026 -119.267 73.7984 
-106.673 -120.846 72.7793 -107.649 -121.855 72.6983 -105.871 -119.528 73 
-104.947 -118.253 73.1123 -107.782 -120.807 72.0639 -108.824 -121.694 71.9902 
-106.875 -119.63 72.2216 -105.932 -118.368 72.371 -104.898 -117.129 72.4399 
-108.845 -120.677 71.1687 -109.852 -121.49 71.0828 -107.817 -119.725 71.322 
-106.811 -118.556 71.4851 -105.775 -117.286 71.6407 -104.897 -115.867 71.9093 
-109.953 -120.357 70.3641 -110.923 -121.14 70.2987 -108.831 -119.63 70.4777 
-107.648 -118.757 70.5735 -106.479 -117.55 70.6851 -105.563 -116.073 70.9969 
-104.843 -114.495 71.4711 -111.117 -119.868 69.8494 -111.997 -120.694 69.7516 
-109.991 -119.191 69.897 -108.713 -118.584 69.8549 -107.451 -117.609 69.8936 
-106.347 -116.225 70.1414 -105.489 -114.682 70.6175 -104.61 -113.244 71.0777 
-112.121 -119.371 69.3871 -112.864 -120.205 69.255 -111.059 -118.675 69.3657 
-109.743 -118.189 69.1376 -108.542 -117.431 69.1317 -107.541 -116.181 69.5193 
-106.528 -114.775 69.9983 -105.421 -113.407 70.42 -104.257 -112.19 70.6824 
-112.884 -118.906 68.8216 -113.52 -119.694 68.7075 -111.936 -118.247 68.741 
-110.588 -117.862 68.3305 -109.308 -117.319 68.1552 -108.499 -116.202 68.7186 
-107.756 -114.828 69.4965 -106.6 -113.531 69.9406 -105.21 -112.282 70.1716 
-103.948 -111.171 70.282 -113.745 -118.712 68.1782 -112.97 -117.97 68.1807 
-113.917 -117.755 67.6626 -112.896 -117.127 67.477 -113.945 -116.699 67.2464 
-111.713 -117.553 67.7569 -112.656 -116.002 66.9512 -113.785 -115.228 66.8885 
-111.353 -116.743 66.8871 -110.138 -117.217 67.2426 -112.328 -114.327 66.695 
-113.494 -113.539 66.7647 -111.018 -115.226 66.5586 -109.781 -116.017 66.7461 
-109.041 -116.291 67.6192 -112.036 -112.69 66.9426 -113.124 -112.247 67.3171 
-110.79 -113.262 66.7159 -109.634 -114.032 66.8987 -108.918 -114.67 67.6841 
-108.499 -114.849 68.7352 -111.798 -111.535 67.8275 -112.68 -111.296 68.3826 
-110.663 -111.764 67.3693 -109.582 -112.13 67.3522 -108.804 -112.721 67.9062 
-108.271 -113.234 68.7473 -107.592 -113.445 69.471 -111.531 -110.384 68.8257 
-112.2 -110.206 69.3311 -110.563 -110.592 68.3521 -109.53 -110.809 68.1586 
-108.635 -111.112 68.3416 -107.814 -111.533 68.7433 -106.982 -111.883 69.2319 
-106.08 -112.102 69.7248 -111.192 -109.003 69.5494 -111.734 -108.978 70.031 
-110.395 -109.167 69.1665 -109.438 -109.467 69.0477 -108.469 -109.769 69.151 
-107.426 -110.038 69.2572 -106.341 -110.282 69.3589 -105.384 -110.514 69.585 
-104.584 -110.817 69.9125 -110.801 -107.731 70.1926 -111.299 -107.873 70.7053 
-110.13 -107.708 69.7772 -109.282 -107.914 69.6522 -108.323 -108.266 69.8049 
-107.223 -108.615 69.9725 -106.013 -108.882 69.9973 -104.931 -109.071 69.9517 
-104.095 -109.338 69.9287 -103.437 -109.784 70.0071 -102.33 -109.109 70.0328 
-102.91 -108.48 70.0016 -101.808 -107.642 70.0015 -103.662 -108.019 70.2557 
-102.468 -106.936 70.1526 -101.366 -105.77 70.2119 -104.639 -107.727 70.4752 
-103.402 -106.412 70.5031 -102.171 -104.924 70.3315 -101.161 -103.664 70.5712 
-105.864 -107.364 70.4531 -104.588 -105.91 70.5816 -103.363 -104.253 70.4964 
-102.164 -102.81 70.5785 -101.254 -101.907 71.086 -107.142 -106.925 70.2801 
-105.899 -105.357 70.4135 -104.733 -103.664 70.4824 -103.534 -102.26 70.7228 
-102.38 -101.355 71.1842 -101.515 -100.683 71.854 -108.258 -106.6 70.1389 
-107.134 -105.08 70.3946 -106.031 -103.382 70.5605 -104.943 -101.986 70.9567 
-103.78 -101.096 71.5019 -102.698 -100.316 72.0583 -101.892 -99.5333 72.6693 
-109.185 -106.466 70.2205 -108.174 -105.155 70.6516 -107.157 -103.605 70.9485 
-106.171 -102.108 71.3204 -105.163 -101.037 71.8478 -104.11 -100.083 72.328 
-103.141 -99.078 72.7637 -102.37 -98.3818 73.3004 -109.94 -106.541 70.6019 
-109.01 -105.367 71.0958 -108.096 -104.022 71.491 -107.219 -102.505 71.7909 
-106.349 -101.183 72.1678 -105.457 -100.049 72.5783 -104.535 -98.8856 72.9363 
-103.644 -97.9723 73.3542 -102.864 -97.5778 73.9431 -110.548 -106.752 71.1342 
-109.699 -105.612 71.6135 -108.859 -104.374 72.0154 -108.094 -102.929 72.2861 
-107.345 -101.461 72.5534 -106.563 -100.198 72.8978 -105.756 -99.0554 73.2632 
-104.922 -98.0487 73.6594 -104.091 -97.4104 74.1681 -103.331 -97.1576 74.8151 
-101.481 -108.8 70.3475 -100.985 -107.077 70.4509 -100.807 -108.323 71.1483 
-100.622 -105.012 70.8042 -100.438 -106.447 71.3952 -100.334 -107.752 72.1158 
-100.509 -102.955 71.2852 -100.16 -104.41 71.757 -100.051 -105.863 72.3847 
-99.9194 -107.293 73.0301 -100.626 -101.278 71.929 -100.026 -102.415 72.2729 
-99.8056 -103.885 72.8482 -99.771 -105.396 73.5759 -99.6733 -106.948 74.3449 
-100.929 -99.9336 72.7512 -100.129 -100.673 72.9994 -99.6815 -101.936 73.5534 
-99.6988 -103.477 74.4056 -99.7852 -105.038 75.2923 -99.7228 -106.562 76.016 
-101.374 -98.7843 73.5197 -100.509 -99.3174 73.8312 -99.8632 -100.255 74.3532 
-99.6711 -101.727 75.2159 -99.7879 -103.31 76.176 -99.804 -104.764 76.9229 
-99.7652 -106.151 77.4877 -101.843 -97.9293 74.2057 -100.95 -98.3754 74.6348 
-100.254 -98.9861 75.1972 -99.8435 -100.172 75.9607 -99.6802 -101.8 76.8251 
-99.5547 -103.301 77.5507 -99.4827 -104.597 78.1658 -99.59 -105.869 78.763 
-102.319 -97.3604 75.0287 -101.355 -97.7195 75.4688 -100.588 -98.1335 76.0781 
-100.104 -98.9145 76.7927 -99.7775 -100.328 77.5282 -99.3977 -101.957 78.1454 
-99.0853 -103.358 78.6954 -99.1025 -104.588 79.3334 -99.3636 -105.793 79.9581 
-103.201 -96.864 75.9926 -102.147 -97.0638 76.3443 -103.157 -96.5255 77.3413 
-102.128 -96.8226 77.8486 -103.189 -96.4747 78.7156 -101.152 -97.4426 76.9215 
-102.295 -97.0347 79.3384 -103.201 -96.8625 80.1706 -101.197 -97.4775 78.4837 
-100.446 -98.0311 77.6326 -102.454 -97.5428 80.8478 -103.173 -97.2474 81.7493 
-101.519 -98.0503 79.9265 -100.579 -98.4617 79.1478 -100.056 -99.1098 78.3616 
-102.476 -97.9016 82.3993 -103.27 -97.6547 83.1662 -101.752 -98.5888 81.3834 
-100.889 -99.1989 80.5096 -100.168 -99.6905 79.8193 -99.6362 -100.663 78.9833 
-102.599 -98.4978 83.71 -103.579 -98.518 84.2082 -101.762 -98.9319 82.8962 
-100.962 -99.6129 81.9795 -100.298 -100.235 81.2203 -99.6499 -101.096 80.4167 
-99.1054 -102.269 79.4783 -102.96 -99.5066 84.6696 -103.928 -99.5288 85.0601 
-101.964 -99.6731 84.1253 -100.951 -100.042 83.4592 -100.247 -100.602 82.7087 
-99.775 -101.494 81.838 -99.1999 -102.66 80.8841 -98.8754 -103.716 80.0281 
-103.32 -100.413 85.5133 -104.167 -100.29 85.9065 -102.431 -100.655 85.0145 
-101.343 -100.917 84.5363 -100.383 -101.27 84.0046 -99.8821 -102.017 83.18 
-99.5001 -103.156 82.1725 -99.1019 -104.228 81.3209 -99.0518 -105.032 80.6472 
-103.538 -101.126 86.3498 -104.356 -100.978 86.689 -102.811 -101.454 85.833 
-101.945 -101.847 85.2937 -100.96 -102.228 84.8427 -100.223 -102.813 84.2438 
-99.7868 -103.781 83.3219 -99.4233 -104.825 82.3958 -99.2221 -105.617 81.7186 
-99.3275 -106.267 81.1113 -104.272 -97.0525 75.4597 -104.221 -96.6534 76.6902 
-105.297 -97.1073 76.1474 -105.382 -96.5893 77.285 -106.46 -97.1269 76.623 
-104.22 -96.3362 77.9568 -106.734 -96.6207 77.7698 -107.654 -97.2849 77.0648 
-105.485 -96.3883 78.5278 -104.201 -96.504 79.3193 -107.949 -97.0423 78.4781 
-108.554 -97.9656 77.7992 -106.985 -96.5957 79.2783 -105.585 -96.6875 80.0984 
-104.177 -96.9322 80.9356 -108.734 -97.9608 79.3212 -109.296 -98.8482 78.5563 
-108.164 -97.1792 80.171 -107.203 -96.8795 81.0615 -105.749 -97.0038 81.8395 
-104.289 -97.2433 82.5409 -109.604 -98.7791 79.8715 -110.275 -99.4412 79.0136 
-108.978 -98.073 80.7732 -108.315 -97.463 81.7427 -107.326 -97.2425 82.6055 
-105.945 -97.4535 83.2179 -104.567 -97.9038 83.7423 -110.764 -99.3333 80.2262 
-111.259 -100.024 79.3885 -110.09 -98.7863 81.1433 -109.253 -98.3417 82.0841 
-108.325 -98.0382 83.001 -107.289 -98.0747 83.6983 -106.068 -98.4604 84.1913 
-104.856 -98.9698 84.6584 -111.657 -100.086 80.6314 -111.891 -100.895 79.8508 
-111.234 -99.4464 81.5705 -110.476 -99.0846 82.5064 -109.401 -98.9526 83.3596 
-108.288 -98.9786 84.0855 -107.25 -99.192 84.6304 -106.154 -99.5119 85.0968 
-105.059 -99.8543 85.5539 -112.164 -101.062 81.0216 -112.318 -101.828 80.2753 
-111.899 -100.364 81.9599 -111.413 -99.8818 82.9457 -110.586 -99.692 83.8038 
[...]
CELL_DATA 2000
SCALARS Distance double
LOOKUP_TABLE default
175.084 174.226 174.506 174.166 173.222 173.562 173.174 173.498 173.088 
172.068 172.436 171.992 172.39 171.933 172.307 171.856 170.91 171.212 
170.702 171.114 170.659 171.08 170.632 171.034 170.644 169.829 170.051 
169.454 169.803 169.344 169.789 169.396 169.818 169.455 169.879 169.597 
168.74 168.948 168.275 168.559 168.038 168.475 168.107 168.583 168.248 
168.697 168.399 168.874 168.641 167.625 167.83 167.139 167.376 166.796 
167.175 166.77 167.265 166.938 167.444 167.137 167.643 167.392 167.914 
167.703 166.547 166.732 166.068 166.269 165.682 165.972 165.516 165.935 
165.586 166.094 165.808 166.345 166.114 166.655 166.469 166.994 166.814 
165.553 165.701 165.066 165.248 164.683 164.915 164.43 164.741 164.345 
164.771 164.494 165.024 164.845 165.399 165.25 165.78 165.626 166.135 
165.973 175.481 175.8 175.311 174.634 176.149 175.631 174.936 174.428 
173.68 176.549 176.001 175.297 174.75 173.993 173.431 172.605 176.913 
176.393 175.665 175.118 174.35 173.772 172.956 172.35 171.512 177.127 
176.682 175.94 175.444 174.658 174.112 173.279 172.701 171.863 171.28 
170.456 177.256 176.839 176.128 175.674 174.915 174.395 173.544 172.974 
172.093 171.561 170.721 170.199 169.364 177.409 176.989 176.303 175.859 
175.136 174.645 173.827 173.246 172.35 171.767 170.91 170.397 169.581 
169.069 168.24 177.506 177.142 176.442 176.024 175.267 174.823 174.025 
173.52 172.692 172.103 171.291 170.681 169.899 169.312 168.513 167.953 
167.153 177.451 177.172 176.472 176.107 175.31 174.888 174.06 173.641 
172.88 172.438 171.74 171.184 170.455 169.78 168.977 168.297 167.478 
166.894 166.14 177.166 176.414 176.598 176.183 175.6 175.792 175.289 
175.497 174.988 174.548 174.851 174.26 174.506 173.911 174.185 173.678 
173.224 173.607 172.97 173.32 172.685 173.03 172.535 172.909 172.531 
172.098 172.298 171.646 171.935 171.319 171.718 171.294 171.766 171.495 
171.885 171.539 171.458 171.432 170.8 170.814 170.217 170.432 170.045 
170.508 170.286 170.803 170.491 170.837 170.31 170.911 170.909 170.294 
170.212 169.609 169.6 169.152 169.381 169.059 169.502 169.111 169.584 
169.007 169.387 168.73 170.16 170.253 169.616 169.659 169.04 169.072 
168.551 168.64 168.172 168.362 167.832 168.139 167.519 167.914 167.272 
167.706 167.135 169.388 169.446 168.793 168.87 168.238 168.364 167.812 
167.967 167.436 167.552 166.955 167.045 166.404 166.571 165.973 166.278 
165.771 166.194 165.782 164.958 164.922 164.52 163.712 165.161 164.618 
163.786 163.282 162.399 165.646 165.001 164.182 163.51 162.538 161.932 
161.012 166.212 165.544 164.684 163.967 162.954 162.197 161.175 160.597 
159.87 166.697 166.07 165.152 164.433 163.407 162.645 161.666 160.953 
160.231 159.727 159.329 167.095 166.511 165.66 164.928 163.978 163.176 
162.339 161.591 160.996 160.35 159.962 159.446 159.184 167.546 166.956 
166.271 165.56 164.805 163.956 163.258 162.443 161.954 161.255 160.883 
160.236 159.869 159.333 159.051 168.144 167.529 166.976 166.308 165.739 
164.947 164.35 163.51 163.009 162.268 161.874 161.187 160.771 160.1 
159.722 159.209 159.023 168.812 168.221 167.735 167.104 166.616 165.918 
165.382 164.606 164.067 163.31 162.855 162.159 161.758 161.056 160.695 
160.032 159.824 159.328 159.32 164.821 163.536 164.208 164.304 162.165 
162.872 162.979 163.74 163.936 160.777 161.462 161.589 162.4 162.656 
163.432 163.693 159.657 160.149 160.275 161.031 161.33 162.145 162.464 
163.236 163.577 159.054 159.238 159.266 159.811 160.098 160.861 161.265 
162.053 162.505 163.257 163.748 158.833 158.819 158.699 158.96 159.148 
159.74 160.222 160.984 161.599 162.331 162.945 163.61 164.178 158.729 
158.661 158.501 158.553 158.642 158.976 159.444 160.098 160.816 161.555 
162.241 162.898 163.473 164.089 164.607 158.76 158.624 158.527 158.473 
158.539 158.657 159.028 159.481 160.154 160.835 161.51 162.178 162.702 
163.341 163.824 164.475 164.964 159.063 158.807 158.752 158.608 158.678 
158.663 158.938 159.184 159.732 160.249 160.877 161.458 161.962 162.54 
163.005 163.65 164.167 164.829 165.33 159.311 159.655 159.279 158.976 
160.199 159.714 159.407 159.045 158.891 161.054 160.441 160.183 159.633 
159.489 159.109 159.169 162.086 161.461 161.305 160.641 160.538 159.937 
160.012 159.625 159.941 163.09 162.51 162.42 161.84 161.792 161.154 
161.19 160.648 160.878 160.558 160.977 164.205 163.548 163.443 162.895 
162.856 162.332 162.339 161.835 161.954 161.539 161.8 161.559 161.964 
165.471 164.762 164.644 163.982 163.91 163.331 163.328 162.859 162.978 
162.577 162.799 162.437 162.764 162.531 162.996 166.631 166.016 165.924 
165.262 165.192 164.502 164.483 163.887 164.026 163.586 163.872 163.486 
163.835 163.475 163.905 163.658 164.185 167.615 167.088 167.03 166.482 
166.452 165.825 165.815 165.163 165.274 164.733 165.016 164.595 164.957 
164.582 164.969 164.652 165.094 164.873 165.356 159.735 160.643 160.119 
160.071 161.645 161.078 160.979 160.497 160.565 162.713 162.116 162.061 
161.492 161.547 161.103 161.35 163.979 163.312 163.382 162.727 162.866 
162.256 162.474 162.013 162.342 165.364 164.703 164.84 164.186 164.408 
163.743 163.974 163.316 163.552 163.04 163.364 166.659 166.08 166.211 
165.633 165.834 165.264 165.492 164.867 165.066 164.409 164.652 164.12 
164.503 167.868 167.338 167.506 166.958 167.152 166.606 166.821 166.278 
166.499 165.912 166.146 165.543 165.853 165.346 165.756 169.045 168.551 
168.777 168.263 168.517 167.954 168.197 167.61 167.855 167.287 167.554 
166.998 167.274 166.731 167.024 166.557 166.887 170.135 169.704 169.934 
169.502 169.779 169.308 169.576 169.028 169.266 168.68 168.923 168.364 
168.619 168.084 168.323 167.805 168.04 167.589 167.86 169.023 169.015 
168.679 167.983 168.948 168.637 167.912 167.593 166.857 168.869 168.538 
167.792 167.477 166.71 166.409 165.632 168.889 168.496 167.76 167.385 
166.624 166.263 165.467 165.137 164.348 169.003 168.574 167.854 167.432 
166.693 166.259 165.458 165.027 164.215 163.866 163.13 169.169 168.72 
167.999 167.561 166.827 166.38 165.579 165.09 164.255 163.811 163.049 
162.718 162.041 169.406 168.926 168.216 167.738 167.021 166.547 165.775 
165.254 164.436 163.925 163.179 162.748 162.083 161.707 161.063 169.721 
169.223 168.552 168.026 167.353 166.826 166.125 165.548 164.783 164.192 
163.478 162.976 162.37 161.908 161.312 160.843 160.267 170.087 169.597 
168.986 168.439 167.815 167.255 166.629 166.026 165.34 164.674 163.974 
163.369 162.774 162.276 161.744 161.243 160.71 160.203 159.752 169.685 
170.651 170.01 169.683 171.654 170.989 170.677 170.012 169.655 172.735 
172.036 171.734 171.041 170.709 169.989 169.612 173.809 173.131 172.829 
172.131 171.815 171.087 170.736 169.981 169.63 174.87 174.195 173.91 
173.222 172.912 172.203 171.862 171.123 170.776 170.038 169.726 175.995 
175.303 175.044 174.326 174.029 173.302 172.967 172.236 171.89 171.17 
170.858 170.152 169.879 177.029 176.426 176.185 175.495 175.202 174.454 
174.122 173.361 173.019 172.279 171.973 171.272 171.016 170.328 170.099 
177.847 177.363 177.155 176.58 176.305 175.618 175.288 174.54 174.205 
173.445 173.134 172.402 172.14 171.456 171.237 170.568 170.374 178.599 
178.141 177.989 177.487 177.271 176.664 176.365 175.677 175.356 174.632 
174.317 173.577 173.28 172.575 172.333 171.68 171.485 170.848 170.685 
179.006 179.448 178.955 178.396 179.813 179.364 178.771 178.296 177.672 
180.127 179.673 179.069 178.615 177.94 177.472 176.772 180.478 179.974 
179.314 178.862 178.178 177.71 176.976 176.506 175.779 180.713 180.265 
179.531 179.083 178.377 177.924 177.177 176.697 175.923 175.475 174.736 
180.747 180.391 179.683 179.269 178.559 178.114 177.36 176.875 176.064 
175.591 174.802 174.395 173.678 180.764 180.431 179.818 179.425 178.758 
178.306 177.569 177.067 176.272 175.753 174.962 174.482 173.757 173.36 
172.72 180.759 180.486 179.907 179.572 178.915 178.495 177.745 177.272 
176.505 176.007 175.259 174.733 174.012 173.516 172.858 172.46 171.877 
180.56 180.402 179.798 179.576 178.885 178.56 177.764 177.371 176.582 
176.19 175.467 175.036 174.32 173.823 173.119 172.651 172.02 171.645 
171.089 180.162 179.22 179.61 179.403 178.144 178.582 178.329 178.76 
178.464 176.885 177.411 177.102 177.582 177.247 177.698 177.324 175.405 
176.044 175.776 176.309 175.978 176.436 176.083 176.52 176.171 173.891 
174.538 174.353 174.952 174.688 175.181 174.848 175.292 174.979 175.421 
175.11 172.521 173.103 172.923 173.527 173.301 173.863 173.552 174.044 
173.702 174.193 173.878 174.353 173.995 171.173 171.75 171.514 172.105 
171.857 172.449 172.174 172.715 172.394 172.889 172.562 173.06 172.728 
173.189 172.81 169.788 170.352 170.094 170.679 170.424 171.011 170.765 
171.336 171.087 171.604 171.329 171.792 171.497 171.935 171.621 172.035 
171.714 168.544 169.007 168.773 169.297 169.081 169.624 169.4 169.954 
169.732 170.293 170.069 170.588 170.333 170.779 170.493 170.897 170.615 
171.017 170.768 180.429 180.472 180.152 179.495 180.406 180.156 179.526 
179.185 178.472 180.189 180.023 179.414 179.168 178.434 178.079 177.226 
179.79 179.687 179.017 178.911 178.151 177.92 176.981 176.641 175.662 
179.233 179.167 178.42 178.373 177.605 177.489 176.536 176.257 175.2 
174.944 174.04 178.601 178.56 177.828 177.753 177.008 176.907 176.011 
175.756 174.701 174.424 173.493 173.366 172.634 177.984 177.96 177.289 
177.198 176.468 176.353 175.513 175.273 174.266 173.95 172.998 172.818 
172.062 172.005 171.314 177.412 177.397 176.757 176.674 175.939 175.824 
175.014 174.818 173.89 173.579 172.635 172.37 171.566 171.438 170.722 
170.655 169.949 176.866 176.85 176.227 176.149 175.431 175.303 174.532 
174.357 173.529 173.259 172.381 172.069 171.242 171.004 170.267 170.113 
169.424 169.328 168.704 181.043 181.99 181.392 181.099 182.799 182.277 
181.915 181.335 180.959 183.391 182.952 182.505 181.99 181.548 181.097 
180.711 183.897 183.495 183.011 182.459 181.952 181.556 181.229 180.835 
180.416 184.221 183.983 183.588 183.017 182.472 181.958 181.631 181.298 
180.984 180.497 179.936 184.162 184.154 183.912 183.584 183.128 182.587 
182.171 181.728 181.372 180.961 180.424 179.886 179.225 184.058 184.028 
183.871 183.763 183.466 183.16 182.747 182.299 181.808 181.323 180.723 
180.235 179.577 179.103 178.504 184.241 184.064 183.895 183.731 183.472 
183.315 182.963 182.701 182.194 181.748 181.098 180.558 179.898 179.405 
178.834 178.406 177.902 184.437 184.291 184.058 183.839 183.505 183.302 
182.92 182.739 182.269 181.986 181.386 180.944 180.306 179.799 179.231 
178.758 178.259 177.83 177.356 184.328 183.762 184.07 183.946 183.061 
183.42 183.383 183.601 183.379 182.459 182.78 182.777 183.02 182.837 
182.979 182.723 181.699 182.14 182.111 182.426 182.214 182.382 182.048 
182.247 181.975 180.581 181.167 181.104 181.606 181.364 181.656 181.233 
181.457 181.087 181.406 181.1 179.399 179.951 179.868 180.435 180.232 
180.658 180.252 180.535 180.119 180.447 180.143 180.478 180.125 178.304 
178.802 178.691 179.205 179.035 179.494 179.175 179.507 179.111 179.441 
179.133 179.508 179.213 179.496 179.108 177.185 177.688 177.538 178.043 
177.859 178.336 178.07 178.45 178.096 178.426 178.099 178.477 178.193 
178.555 178.217 178.487 178.111 176.078 176.547 176.378 176.866 176.674 
177.162 176.927 177.358 177.059 177.417 177.102 177.454 177.169 177.53 
177.232 177.556 177.222 177.507 177.18 175.441 174.528 175.225 175.694 
173.489 174.262 174.736 175.471 175.963 172.306 173.158 173.669 174.475 
174.977 175.73 176.207 171.111 171.95 172.483 173.35 173.875 174.696 
175.18 175.937 176.359 170.066 170.815 171.317 172.145 172.66 173.522 
174.025 174.861 175.322 176.063 176.449 169.12 169.823 170.29 171.034 
171.501 172.298 172.784 173.648 174.161 175 175.456 176.164 176.532 
168.168 168.859 169.304 170.032 170.483 171.208 171.653 172.432 172.939 
173.804 174.327 175.14 175.559 176.244 176.582 167.239 167.885 168.28 
169.009 169.464 170.21 170.661 171.38 171.836 172.616 173.13 173.975 
174.454 175.225 175.598 176.269 176.585 166.377 166.964 167.302 167.973 
168.397 169.159 169.642 170.397 170.852 171.572 172.03 172.807 173.296 
174.098 174.533 175.261 175.617 176.269 176.58 176.38 175.382 175.834 
175.697 174.262 174.756 174.573 175.062 174.874 173.019 173.551 173.345 
173.874 173.664 174.175 173.96 171.77 172.27 172.046 172.59 172.372 
172.917 172.68 173.212 172.956 170.572 171.031 170.754 171.269 171.005 
171.564 171.288 171.859 171.562 172.127 171.824 169.299 169.774 169.419 
169.94 169.607 170.157 169.82 170.393 170.058 170.657 170.348 170.949 
170.681 168.021 168.441 168.035 168.539 168.177 168.724 168.368 168.915 
168.566 169.137 168.846 169.457 169.229 169.85 169.674 166.936 167.231 
166.813 167.198 166.833 167.308 166.967 167.48 167.15 167.689 167.429 
168.015 167.842 168.444 168.313 168.921 168.825 166.014 166.234 165.797 
166.081 165.694 166.062 165.71 166.14 165.807 166.303 166.053 166.639 
166.513 167.13 167.061 167.641 167.581 168.157 168.132 178.078 178.159 
178.451 179.09 178.083 178.469 179.144 179.474 180.144 177.952 178.359 
179.057 179.456 180.157 180.516 181.19 177.833 178.24 178.922 179.332 
180.038 180.464 181.182 181.55 182.187 177.595 178.069 178.71 179.155 
179.826 180.298 181.044 181.502 182.183 182.501 183.004 177.208 177.733 
178.356 178.859 179.507 180.029 180.773 181.315 182.021 182.431 182.913 
183.169 183.487 176.808 177.32 177.957 178.467 179.118 179.655 180.377 
180.973 181.665 182.17 182.62 182.954 183.23 183.507 183.771 176.452 
176.943 177.586 178.089 178.723 179.242 179.904 180.503 181.163 181.729 
182.182 182.569 182.827 183.155 183.445 183.783 184.094 176.1 176.582 
177.199 177.713 178.314 178.823 179.41 179.973 180.593 181.185 181.705 
182.136 182.449 182.753 183.043 183.407 183.766 184.114 184.368 178.184 
179.241 178.708 178.744 180.35 179.83 179.908 179.355 179.437 181.435 
180.966 181.084 180.546 180.604 180.048 180.014 182.436 182.043 182.199 
181.708 181.742 181.176 181.059 180.453 180.178 183.228 182.973 183.159 
182.778 182.816 182.27 182.089 181.444 181.113 180.453 180.074 183.705 
183.609 183.792 183.597 183.642 183.243 183.03 182.422 182.037 181.373 
180.985 180.346 180.002 184.007 183.961 184.098 184.024 184.034 183.848 
183.634 183.216 182.817 182.246 181.842 181.245 180.88 180.276 179.905 
184.311 184.237 184.303 184.21 184.163 184.06 183.89 183.651 183.33 
182.914 182.553 182.052 181.704 181.129 180.726 180.106 179.677 184.518 
184.482 184.463 184.358 184.265 184.162 184.076 183.907 183.742 183.405 
183.129 182.693 182.378 181.889 181.509 180.921 180.473 179.848 179.434 
177.615 178.148 177.543 176.911 178.836 178.158 177.489 176.846 176.158 
179.392 178.825 178.104 177.445 176.648 176.002 175.142 179.501 179.154 
178.382 177.899 176.996 176.403 175.417 174.802 173.825 179.378 179.079 
178.278 177.928 177.022 176.573 175.583 175.02 174.055 173.476 172.675 
179.353 179.001 178.233 177.808 176.965 176.53 175.682 175.184 174.344 
173.779 173.061 172.536 171.985 179.296 179.018 178.33 177.897 177.113 
176.606 175.856 175.369 174.674 174.148 173.478 172.957 172.381 171.934 
171.409 179.078 178.899 178.288 177.997 177.289 176.837 176.094 175.619 
174.953 174.495 173.845 173.354 172.708 172.257 171.666 171.265 170.674 
178.857 178.672 178.12 177.915 177.309 176.973 176.262 175.834 175.133 
174.727 174.077 173.653 172.989 172.535 171.899 171.481 170.898 170.492 
169.92 181.111 181.334 181.527 182.057 181.361 181.657 182.242 182.448 
182.904 181.411 181.691 182.264 182.519 183.006 183.184 183.518 181.441 
181.783 182.36 182.56 182.973 183.164 183.532 183.709 183.983 181.155 
181.67 182.278 182.626 183.047 183.193 183.518 183.667 183.978 184.118 
184.27 180.691 181.216 181.79 182.337 182.877 183.239 183.66 183.792 
184.083 184.12 184.254 184.263 184.222 180.34 180.765 181.287 181.788 
182.368 182.91 183.478 183.865 184.221 184.305 184.374 184.285 184.231 
184.159 184.129 179.985 180.428 180.949 181.384 181.92 182.404 182.947 
183.48 183.892 184.245 184.339 184.384 184.296 184.233 184.241 184.209 
184.315 179.527 180.014 180.545 181.038 181.553 182.001 182.446 182.908 
183.276 183.727 183.917 184.176 184.17 184.246 184.255 184.314 184.428 
184.462 184.533 
POINT_DATA 1002
SCALARS Distance double
LOOKUP_TABLE default
174.781 175.637 174.836 173.903 173.941 173.815 172.843 172.883 172.779 
172.673 171.583 171.74 171.551 171.473 171.426 170.315 170.678 170.209 
170.22 170.204 170.305 169.163 169.647 168.887 168.94 169.032 169.13 
169.358 168.036 168.539 167.628 167.602 167.781 167.933 168.138 168.43 
166.917 167.419 166.466 166.296 166.415 166.621 166.863 167.179 167.505 
165.86 166.364 165.428 165.156 165.099 165.25 165.557 165.929 166.304 
166.638 164.881 165.414 164.457 164.165 163.972 163.968 164.27 164.715 
165.111 165.468 165.818 175.971 175.128 176.303 175.464 176.682 174.218 
175.861 177.107 174.57 173.193 176.213 177.423 174.925 173.557 172.12 
176.412 177.55 175.197 173.855 172.427 171.045 176.557 177.664 175.416 
174.134 172.644 171.212 169.908 176.748 177.817 175.607 174.386 172.962 
171.446 170.075 168.763 176.863 177.84 175.719 174.477 173.214 171.905 
170.526 169.099 167.678 176.814 177.702 175.741 174.471 173.233 172.197 
171.124 169.718 168.117 166.642 176.986 175.997 176.262 175.118 175.421 
174.754 174.016 174.211 173.649 173.332 172.599 172.867 172.298 172.11 
172.164 171.431 171.998 170.912 170.751 171.028 171.299 170.871 171.51 
170.103 169.639 169.75 170.087 170.091 170.35 170.875 169.666 169.062 
168.759 168.674 168.576 168.356 169.536 170.07 168.966 168.491 168.105 
167.657 167.17 166.813 166.649 168.735 169.362 168.111 167.64 167.31 
166.899 166.313 165.734 165.375 165.291 164.169 164.102 162.866 164.378 
162.879 161.457 164.895 163.275 161.464 160.122 165.427 163.734 161.857 
160.21 159.283 165.888 164.145 162.349 160.797 159.692 159.017 166.34 
164.756 163.04 161.632 160.565 159.632 158.906 166.891 165.586 164.077 
162.661 161.573 160.515 159.466 158.786 167.59 166.452 165.182 163.795 
162.574 161.477 160.325 159.379 158.907 168.343 167.275 166.124 164.844 
163.564 162.43 161.37 160.394 159.701 159.357 163.575 162.178 163.19 
160.758 161.838 162.946 159.572 160.501 161.656 162.796 158.865 159.367 
160.432 161.715 163.012 158.582 158.655 159.429 160.813 162.276 163.556 
158.5 158.428 158.851 160.06 161.583 162.87 164.001 158.589 158.496 
158.699 159.541 160.869 162.084 163.156 164.318 158.93 158.742 158.8 
159.319 160.344 161.425 162.382 163.48 164.706 159.649 159.262 160.06 
159.827 160.714 159.137 160.786 161.666 159.942 159.394 161.935 162.66 
161.198 160.478 160.166 162.938 163.675 162.391 161.791 161.305 161.169 
164.033 164.908 163.362 162.819 162.412 162.148 162.088 165.347 166.16 
164.555 163.818 163.35 163.176 163.079 163.128 166.542 167.193 165.886 
165.136 164.497 164.236 164.209 164.221 164.369 167.532 168.121 167.019 
166.454 165.859 165.47 165.345 165.32 165.367 165.547 160.202 160.51 
161.221 161.505 162.213 160.925 162.634 163.295 162.048 161.673 164.012 
164.632 163.504 163.05 162.705 165.467 165.996 165.045 164.678 164.198 
163.759 166.779 167.203 166.389 166.073 165.73 165.273 164.929 168.033 
168.369 167.71 167.361 167.033 166.735 166.431 166.203 169.253 169.516 
169.048 168.795 168.438 168.096 167.831 167.561 167.309 170.344 170.547 
170.207 170.083 169.854 169.508 169.166 168.862 168.546 168.267 169.365 
168.333 169.348 168.233 169.266 167.174 168.119 169.223 167.026 165.931 
168.149 169.297 167.014 165.835 164.639 168.279 169.436 167.136 165.932 
164.61 163.4 168.447 169.626 167.273 166.076 164.733 163.426 162.326 
168.707 169.888 167.497 166.295 164.958 163.62 162.495 161.429 169.076 
170.201 167.875 166.689 165.395 163.999 162.817 161.802 160.709 170.329 
170.337 171.289 171.344 172.333 170.354 172.436 173.439 171.427 170.349 
173.521 174.471 172.533 171.488 170.373 174.597 175.545 173.615 172.591 
171.512 170.447 175.77 176.673 174.77 173.705 172.608 171.553 170.577 
176.84 177.578 175.949 174.892 173.773 172.68 171.691 170.785 177.675 
178.293 176.955 176.017 174.959 173.887 172.837 171.895 171.035 178.46 