# vtk DataFile Version 4.0
vtk output
ASCII
DATASET POLYDATA
POINTS 1002 float
-104.092 -118.842 77.4934 -104.843 -119.633 77.1214 -104.651 -118.988 76.3563 
-103.865 -118.085 76.658 -104.266 -118.339 75.431 -103.435 -117.766 77.7775 
-103.401 -117.329 75.7312 -103.758 -117.696 74.4977 -103.19 -116.789 76.9467 
-102.876 -116.22 78.1516 -102.875 -116.493 74.7813 -103.386 -116.799 73.6237 
-102.7 -115.836 76.109 -102.524 -115.159 77.3789 -102.109 -114.677 78.7614 
-102.474 -115.387 73.8474 -103.156 -115.538 72.8867 -102.096 -114.894 75.1807 
-101.864 -114.298 76.5656 -101.46 -113.883 77.9743 -101.01 -113.597 79.4444 
-102.088 -114.13 73.1461 -102.94 -114.207 72.4543 -101.442 -113.903 74.2308 
-101.02 -113.578 75.6091 -100.568 -113.28 77.0529 -100.135 -113.013 78.5711 
-99.9779 -112.613 79.977 -101.738 -112.93 72.7152 -102.79 -113.012 72.2179 
-100.812 -112.868 73.4841 -100.22 -112.77 74.6682 -99.7874 -112.575 76.0731 
-99.4011 -112.288 77.5652 -99.2589 -111.883 79.0729 -99.3836 -111.328 80.4025 
-101.52 -111.768 72.249 -102.623 -111.915 71.8683 -100.463 -111.705 72.8482 
-99.7353 -111.674 73.8428 -99.3568 -111.517 75.1709 -99.1208 -111.188 76.6121 
-98.9804 -110.791 78.0802 -99.0183 -110.337 79.5224 -99.1444 -109.848 80.8261 
-101.272 -110.631 71.6618 -102.255 -110.871 71.3543 -100.373 -110.428 72.2332 
-99.6713 -110.288 73.1165 -99.2397 -110.113 74.3064 -99.0723 -109.779 75.7121 
-99.0184 -109.376 77.1538 -98.9914 -109.005 78.5746 -99.0053 -108.641 79.9612 
-99.0255 -108.32 81.233 -100.936 -109.538 71.1111 -101.792 -109.828 70.8402 
-100.297 -109.193 71.7373 -99.8028 -108.861 72.6024 -99.3361 -108.591 73.5823 
-99.0345 -108.279 74.8015 -98.9856 -107.889 76.2401 -99.0085 -107.533 77.6773 
-98.9978 -107.237 79.0548 -98.9742 -106.986 80.378 -98.9458 -106.817 81.5837 
-105.442 -120.165 76.1817 -105.22 -119.445 75.3179 -105.905 -120.923 75.0701 
-105.764 -120.018 74.2433 -106.423 -121.569 73.9923 -104.855 -118.701 74.4137 
-106.453 -120.443 73.3512 -107.337 -121.701 73.2122 -105.564 -119.016 73.5298 
-104.465 -117.904 73.6031 -107.434 -120.523 72.6282 -108.574 -121.397 72.696 
-106.385 -119.265 72.6853 -105.322 -117.951 72.8174 -104.19 -116.802 72.8261 
-108.545 -120.355 71.9021 -109.736 -121.024 72.0674 -107.304 -119.438 71.7308 
-106.155 -118.105 71.8325 -105.012 -116.719 71.9942 -103.943 -115.448 72.1581 
-109.627 -120.048 71.1297 -110.743 -120.699 71.2114 -108.327 -119.36 70.9287 
-107.047 -118.314 70.8916 -105.789 -116.873 71.0413 -104.662 -115.434 71.3229 
-103.767 -114.155 71.8122 -110.729 -119.586 70.4425 -111.747 -120.273 70.4503 
-109.463 -118.91 70.3761 -108.143 -118.145 70.3494 -106.804 -116.997 70.3907 
-105.491 -115.58 70.5297 -104.53 -114.216 71.0374 -103.72 -112.992 71.6572 
-111.821 -118.953 69.9397 -112.733 -119.628 69.9388 -110.604 -118.294 69.8445 
-109.28 -117.673 69.7817 -108.014 -116.812 69.8636 -106.67 -115.609 69.9645 
-105.45 -114.311 70.2974 -104.548 -113.061 70.9686 -103.536 -111.899 71.3986 
-112.777 -118.228 69.5517 -113.578 -118.863 69.5099 -111.634 -117.71 69.3182 
-110.262 -117.3 68.9814 -109.016 -116.649 68.9902 -107.868 -115.561 69.3047 
-106.617 -114.322 69.673 -105.457 -113.131 70.2506 -104.376 -111.944 70.8502 
-103.104 -110.816 71.0041 -113.838 -117.716 69.1106 -112.876 -117.217 68.9893 
-113.963 -116.764 68.6036 -112.793 -116.528 68.2273 -113.975 -115.936 68.0489 
-111.463 -117.023 68.3955 -112.522 -115.597 67.6461 -113.734 -114.682 67.6507 
-111.1 -116.395 67.5432 -109.933 -116.68 67.9999 -111.9 -113.815 67.4459 
-113.02 -113.022 67.5998 -110.564 -114.841 67.2962 -109.478 -115.563 67.5635 
-108.739 -115.644 68.3828 -110.996 -111.949 67.5814 -112.059 -111.68 68.0439 
-109.866 -112.486 67.3629 -108.974 -113.368 67.6869 -108.37 -114.018 68.3493 
-107.645 -114.227 69.0524 -110.324 -110.79 68.2471 -111.332 -110.655 68.8933 
-109.317 -110.794 67.6885 -108.557 -111.143 67.7782 -107.979 -111.921 68.4177 
-107.284 -112.597 69.0773 -106.371 -112.95 69.6616 -110.043 -109.705 69.3017 
-110.856 -109.431 69.8052 -109.151 -109.808 68.6848 -108.352 -109.86 68.341 
-107.62 -110.215 68.585 -106.798 -110.827 69.1545 -105.888 -111.355 69.7452 
-105.044 -111.702 70.318 -109.77 -108.239 70.2272 -110.372 -108.076 70.5929 
-109.054 -108.477 69.8537 -108.209 -108.699 69.521 -107.239 -108.893 69.4308 
-106.214 -109.137 69.6502 -105.234 -109.483 69.9972 -104.353 -109.93 70.3351 
-103.633 -110.405 70.6613 -109.318 -106.805 70.8932 -109.855 -106.896 71.2705 
-108.715 -106.841 70.6093 -107.917 -107.047 70.4186 -106.834 -107.296 70.3309 
-105.629 -107.436 70.3804 -104.57 -107.548 70.4654 -103.672 -107.901 70.4525 
-102.852 -108.548 70.4217 -102.202 -109.255 70.5399 -100.907 -108.461 70.5194 
-101.374 -107.623 70.188 -100.423 -106.808 70.3977 -102.139 -106.667 70.2118 
-100.933 -105.811 69.9418 -100.235 -104.957 70.4073 -103.022 -105.942 70.479 
-101.718 -104.826 69.9509 -100.732 -104.008 69.9244 -100.028 -103.071 70.6263 
-104.013 -105.633 70.6304 -102.698 -104.107 70.1779 -101.595 -103.14 69.9249 
-100.648 -102.236 70.4384 -99.9146 -101.195 71.2731 -105.273 -105.509 70.6153 
-103.945 -103.684 70.2891 -102.885 -102.359 70.0542 -101.804 -101.421 70.5286 
-100.829 -100.417 71.3191 -100.116 -99.3859 72.0013 -106.586 -105.366 70.6894 
-105.298 -103.532 70.514 -104.328 -101.882 70.3128 -103.317 -100.679 70.6486 
-102.164 -99.7256 71.3436 -101.189 -98.7467 71.942 -100.475 -97.8831 72.5285 
-107.607 -105.303 70.9113 -106.401 -103.677 71.0088 -105.424 -102.02 70.9938 
-104.557 -100.52 71.1283 -103.506 -99.3553 71.5171 -102.433 -98.3802 71.9874 
-101.548 -97.4761 72.526 -100.849 -96.7998 73.2869 -108.357 -105.43 71.2204 
-107.28 -103.99 71.512 -106.256 -102.5 71.7586 -105.367 -100.979 71.9287 
-104.476 -99.595 72.1213 -103.556 -98.4384 72.4405 -102.714 -97.4236 72.892 
-101.944 -96.5722 73.5356 -101.259 -96.0093 74.3832 -109.013 -105.672 71.6101 
-108.118 -104.304 71.9123 -107.186 -102.86 72.2204 -106.253 -101.42 72.497 
-105.341 -100.065 72.7645 -104.49 -98.8404 73.139 -103.762 -97.7253 73.5867 
-103.096 -96.7205 74.0591 -102.389 -95.9126 74.6505 -101.702 -95.3978 75.3854 
-100.289 -108.066 71.0882 -100.027 -106.259 71.2659 -99.9499 -107.558 72.0442 
-99.7839 -104.261 71.343 -99.6955 -105.656 72.2967 -99.5506 -107.109 72.9813 
-99.44 -102.239 71.5621 -99.2852 -103.649 72.3478 -99.2057 -105.203 73.2139 
-99.0797 -106.758 73.9701 -99.3664 -100.24 72.1935 -99.0077 -101.574 72.7359 
-98.9601 -103.184 73.5852 -98.9186 -104.799 74.4724 -98.8973 -106.367 75.3667 
-99.6219 -98.4651 72.8391 -99.0582 -99.5477 73.4322 -98.9533 -101.054 74.3142 
-99.028 -102.716 75.2653 -98.9732 -104.369 76.1477 -98.9521 -105.98 76.9611 
-99.993 -97.1667 73.5388 -99.3039 -97.9385 74.0991 -98.9694 -99.136 74.9997 
-99.0307 -100.67 76.0376 -99.1078 -102.375 76.9705 -99.0277 -104.069 77.764 
-98.9845 -105.689 78.4498 -100.421 -96.2639 74.598 -99.7352 -96.8542 75.0144 
-99.1829 -97.7455 75.7351 -98.9068 -98.9687 76.7049 -98.9636 -100.546 77.6714 
-99.0521 -102.268 78.5082 -99.0175 -103.907 79.2311 -98.9739 -105.477 79.8486 
-100.873 -95.5565 75.6933 -100.262 -96.0647 76.1107 -99.7397 -96.8046 76.7125 
-99.1858 -97.7301 77.5553 -98.8697 -98.992 78.4704 -98.9291 -100.599 79.2809 
-99.04 -102.261 79.997 -99.0094 -103.824 80.6313 -98.946 -105.354 81.1586 
-101.636 -94.8967 76.4073 -100.895 -95.2448 76.8987 -101.715 -94.5959 77.5273 
-101.081 -95.2153 78.1182 -102.005 -94.6917 78.9132 -100.444 -95.9499 77.5197 
-101.398 -95.5642 79.55 -102.419 -95.189 80.5472 -100.678 -96.0932 78.9344 
-99.9292 -96.7805 78.3745 -101.751 -96.0694 81.2713 -102.78 -95.7714 82.1451 
-100.853 -96.4752 80.5059 -100.031 -96.9463 80.0417 -99.2571 -97.7565 79.38 
-102.048 -96.4468 82.9959 -103.067 -96.2444 83.5987 -101.036 -96.8546 82.2861 
-100.049 -97.2884 81.7092 -99.2881 -97.9586 81.1404 -98.9246 -99.1401 80.2572 
-102.311 -96.8492 84.5119 -103.397 -96.7742 85.0548 -101.319 -97.2165 83.9534 
-100.267 -97.7354 83.3679 -99.3904 -98.3902 82.7488 -99.0136 -99.4493 81.9559 
-98.9976 -100.853 80.9603 -102.647 -97.5206 85.8519 -103.793 -97.5021 86.3824 
-101.691 -97.8375 85.2702 -100.788 -98.3956 84.7159 -99.8588 -99.0792 84.1316 
-99.2316 -100.005 83.4408 -99.0499 -101.243 82.5692 -99.0393 -102.567 81.5818 
-103.101 -98.4132 86.8995 -104.209 -98.394 87.253 -102.15 -98.7356 86.3189 
-101.409 -99.3262 85.6554 -100.652 -100.026 85.0552 -99.8405 -100.824 84.5295 
-99.2675 -101.851 83.9048 -99.028 -103.036 83.0638 -98.9572 -104.215 82.1034 
-103.636 -99.4082 87.536 -104.642 -99.3795 87.6946 -102.708 -99.7213 87.1291 
-102.009 -100.329 86.4472 -101.422 -101.07 85.7038 -100.685 -101.806 85.1817 
-99.8663 -102.634 84.8045 -99.2652 -103.656 84.2496 -98.9819 -104.758 83.4346 
-98.9146 -105.817 82.5042 -102.652 -95.2049 75.7421 -102.706 -94.6127 76.742 
-103.736 -95.2987 76.1648 -104.032 -94.6433 77.3348 -104.806 -95.5841 76.7843 
-102.945 -94.2538 78.1125 -105.298 -94.9427 78.119 -105.909 -95.9006 77.4367 
-104.444 -94.2738 78.9544 -103.326 -94.4069 79.8013 -106.418 -95.4809 78.6772 
-107.136 -96.3394 77.9125 -105.695 -94.7427 79.5751 -104.727 -94.5679 80.5413 
-103.651 -95.0527 81.3885 -107.582 -96.2525 79.0606 -108.286 -97.0673 78.3928 
-106.756 -95.5869 79.8778 -105.838 -95.2627 80.8771 -104.865 -95.3782 81.862 
-103.916 -95.7786 82.7573 -108.772 -97.0696 79.6307 -109.216 -97.938 78.972 
-108.055 -96.418 80.4017 -107.042 -96.1312 81.3884 -106.056 -96.0708 82.3698 
-105.196 -96.1515 83.2876 -104.302 -96.3904 84.2312 -109.815 -97.8015 80.207 
-110.065 -98.7262 79.416 -109.433 -97.0191 81.0978 -108.573 -96.7162 82.1823 
-107.457 -96.7284 83.1889 -106.546 -96.7328 83.9858 -105.721 -96.8101 84.8688 
-104.757 -97.0689 85.7707 -110.66 -98.5591 80.537 -110.893 -99.4365 79.6747 
-110.464 -97.6926 81.5204 -109.947 -97.2122 82.66 -108.928 -97.2259 83.7477 
-107.845 -97.3542 84.5351 -106.982 -97.4319 85.2899 -106.102 -97.6063 86.189 
-105.118 -97.9246 86.9021 -111.351 -99.4173 80.7411 -111.631 -100.157 79.9003 
-111.122 -98.645 81.7243 -110.825 -98.0288 82.8024 -110.14 -97.8325 83.8768 
[...]
CELL_DATA 2000
SCALARS Distance double
LOOKUP_TABLE default
175.214 174.226 174.605 174.298 173.093 173.514 173.173 173.578 173.186 
171.881 172.306 171.911 172.357 171.94 172.364 171.951 170.581 171.011 
170.55 171.025 170.595 171.064 170.663 171.126 170.795 169.282 169.653 
169.136 169.604 169.167 169.683 169.299 169.809 169.487 170.009 169.746 
168.147 168.388 167.809 168.187 167.732 168.244 167.892 168.431 168.12 
168.666 168.409 168.967 168.735 167.118 167.286 166.616 166.898 166.381 
166.837 166.495 167.038 166.761 167.304 167.056 167.616 167.416 167.976 
167.785 166.023 166.201 165.467 165.714 165.139 165.524 165.14 165.655 
165.383 165.945 165.707 166.275 166.074 166.654 166.486 167.056 166.893 
164.855 165.044 164.329 164.574 164.021 164.339 163.922 164.338 164.019 
164.548 164.302 164.899 164.699 165.306 165.135 165.735 165.582 166.17 
166.028 175.59 175.866 175.362 174.609 176.157 175.622 174.816 174.306 
173.503 176.473 175.918 175.101 174.535 173.707 173.184 172.348 176.805 
176.25 175.432 174.839 173.972 173.406 172.531 171.996 171.099 177.072 
176.566 175.733 175.154 174.238 173.65 172.702 172.149 171.214 170.699 
169.811 177.207 176.771 175.953 175.421 174.517 173.913 172.931 172.308 
171.332 170.792 169.938 169.473 168.702 177.271 176.871 176.093 175.611 
174.772 174.21 173.292 172.617 171.634 170.972 170.118 169.625 168.934 
168.477 167.753 177.299 176.936 176.175 175.731 174.913 174.436 173.597 
173.015 172.09 171.384 170.491 169.886 169.191 168.731 168.063 167.541 
166.729 177.235 176.941 176.201 175.797 174.975 174.535 173.722 173.261 
172.431 171.842 170.97 170.325 169.561 169.031 168.36 167.852 167.062 
166.461 165.566 176.937 176.162 176.356 175.914 175.394 175.562 175.06 
175.217 174.682 174.427 174.704 174.125 174.312 173.71 173.922 173.402 
172.976 173.437 172.745 173.156 172.491 172.858 172.302 172.634 172.125 
171.427 171.779 170.951 171.455 170.763 171.387 170.878 171.426 170.941 
171.306 170.742 170.412 170.445 169.615 169.768 169.095 169.586 169.2 
169.869 169.528 170.052 169.574 169.897 169.362 169.751 169.719 169.038 
168.9 168.288 168.329 167.96 168.341 168.084 168.602 168.218 168.665 
168.17 168.543 168.071 168.979 169.078 168.491 168.484 167.903 167.844 
167.339 167.414 166.981 167.27 166.801 167.231 166.685 167.178 166.628 
167.148 166.648 168.118 168.238 167.62 167.774 167.148 167.284 166.622 
166.736 166.034 166.205 165.494 165.801 165.111 165.566 164.924 165.494 
164.929 165.563 165.082 164.043 163.784 163.378 162.454 163.734 163.158 
162.094 161.796 161.01 163.947 163.211 162.065 161.523 160.612 160.398 
159.717 164.411 163.554 162.379 161.625 160.643 160.172 159.463 159.222 
158.648 165.056 164.143 162.97 162.063 161.043 160.376 159.667 159.224 
158.689 158.354 157.873 165.726 164.861 163.758 162.78 161.767 160.937 
160.222 159.618 159.1 158.615 158.135 157.729 157.309 166.31 165.55 
164.596 163.669 162.759 161.836 161.136 160.352 159.826 159.179 158.712 
158.154 157.736 157.298 157.03 166.86 166.176 165.394 164.573 163.816 
162.929 162.278 161.408 160.866 160.069 159.619 158.909 158.549 157.934 
157.696 157.23 157.157 167.459 166.819 166.179 165.437 164.791 163.99 
163.378 162.552 162 161.184 160.736 159.969 159.653 158.944 158.743 
158.11 158.006 157.519 157.52 163.927 162.458 163.267 163.479 161.113 
161.902 162.209 162.977 163.275 159.782 160.565 160.884 161.738 162.08 
162.848 163.178 158.563 159.202 159.428 160.326 160.69 161.589 161.954 
162.774 163.2 157.661 158.056 158.168 158.901 159.309 160.2 160.695 
161.549 162.066 162.895 163.469 157.056 157.263 157.294 157.804 158.215 
158.988 159.623 160.439 161.09 161.863 162.508 163.285 163.918 156.792 
156.806 156.814 157.095 157.434 158.045 158.681 159.487 160.213 161.001 
161.681 162.416 163.063 163.788 164.398 156.935 156.77 156.816 156.845 
157.139 157.447 157.99 158.613 159.33 160.125 160.858 161.626 162.293 
162.994 163.616 164.295 164.878 157.289 157.066 157.139 157.054 157.357 
157.413 157.884 158.153 158.786 159.339 160.098 160.822 161.572 162.274 
162.937 163.577 164.182 164.805 165.366 157.467 157.789 157.507 157.402 
158.466 158.012 158.012 157.684 157.725 159.6 158.922 158.924 158.468 
158.581 158.166 158.27 160.975 160.21 160.129 159.521 159.593 159.109 
159.222 158.797 159.045 162.259 161.556 161.429 160.767 160.729 160.163 
160.244 159.786 160.039 159.722 160.222 163.472 162.775 162.663 162.021 
161.971 161.343 161.39 160.857 161.124 160.763 161.265 161.041 161.667 
164.779 164.021 163.914 163.253 163.28 162.641 162.745 162.123 162.382 
161.916 162.398 162.108 162.694 162.477 163.044 166.093 165.357 165.249 
164.564 164.633 164.011 164.199 163.572 163.837 163.27 163.676 163.27 
163.789 163.502 164.024 163.783 164.28 167.28 166.635 166.566 165.917 
165.995 165.397 165.61 165.034 165.306 164.736 165.066 164.573 164.993 
164.614 165.082 164.779 165.246 164.989 165.452 157.785 158.552 158.06 
158.025 159.644 158.992 158.928 158.453 158.671 160.894 160.224 160.238 
159.594 159.797 159.35 159.823 162.166 161.526 161.597 160.979 161.178 
160.64 161.024 160.654 161.196 163.53 162.858 162.944 162.324 162.513 
161.986 162.308 161.884 162.316 161.998 162.48 164.975 164.303 164.448 
163.76 163.997 163.37 163.723 163.188 163.624 163.177 163.653 163.275 
163.751 166.313 165.741 165.949 165.328 165.629 164.985 165.373 164.737 
165.179 164.601 165.093 164.592 165.1 164.637 165.116 167.469 166.998 
167.22 166.743 167.054 166.561 166.925 166.381 166.738 166.172 166.559 
166.058 166.507 166.049 166.487 166.017 166.417 168.52 168.095 168.316 
167.912 168.21 167.829 168.17 167.759 168.067 167.591 167.878 167.413 
167.759 167.353 167.728 167.319 167.654 167.221 167.543 167.635 167.566 
167.21 166.394 167.406 167.089 166.231 165.892 165.031 167.226 166.886 
166.02 165.682 164.801 164.488 163.636 167.256 166.811 165.992 165.541 
164.686 164.283 163.445 163.111 162.3 167.427 166.96 166.19 165.668 
164.847 164.315 163.493 163.025 162.248 161.857 161.108 167.573 167.136 
166.371 165.892 165.071 164.548 163.707 163.184 162.396 161.928 161.213 
160.784 160.097 167.781 167.308 166.575 166.075 165.283 164.758 163.926 
163.399 162.595 162.116 161.4 160.965 160.302 159.862 159.218 168.105 
167.604 166.947 166.39 165.681 165.073 164.313 163.691 162.928 162.36 
161.658 161.177 160.531 160.091 159.46 159.027 158.448 168.477 167.993 
167.41 166.865 166.239 165.612 164.92 164.229 163.511 162.832 162.159 
161.553 160.928 160.387 159.773 159.287 158.718 158.312 157.871 168.379 
169.462 168.74 168.351 170.552 169.835 169.465 168.704 168.236 171.68 
170.941 170.578 169.819 169.37 168.548 168.059 172.826 172.089 171.734 
170.962 170.549 169.715 169.255 168.42 168.033 173.897 173.217 172.901 
172.155 171.785 170.95 170.519 169.658 169.261 168.472 168.162 174.904 
174.269 174.006 173.317 172.99 172.203 171.784 170.935 170.516 169.704 
169.357 168.605 168.307 175.899 175.293 175.064 174.411 174.109 173.376 
172.971 172.166 171.743 170.943 170.589 169.816 169.516 168.759 168.498 
176.814 176.273 176.055 175.452 175.164 174.473 174.089 173.319 172.917 
172.145 171.816 171.06 170.781 170.011 169.748 168.993 168.777 177.596 
177.126 176.92 176.391 176.129 175.505 175.158 174.432 174.049 173.303 
172.98 172.264 171.998 171.27 171.005 170.253 170.005 169.284 169.097 
177.953 178.312 177.847 177.285 178.688 178.198 177.574 177.126 176.499 
178.997 178.525 177.84 177.379 176.684 176.253 175.536 179.222 178.774 
178.051 177.589 176.84 176.396 175.632 175.204 174.443 179.361 178.958 
178.232 177.773 177.003 176.531 175.742 175.287 174.517 174.101 173.385 
179.434 179.062 178.362 177.935 177.18 176.706 175.911 175.419 174.63 
174.182 173.456 173.075 172.404 179.568 179.165 178.481 178.05 177.311 
176.869 176.104 175.62 174.833 174.335 173.578 173.147 172.45 172.088 
171.417 179.673 179.319 178.625 178.19 177.439 176.993 176.251 175.805 
175.063 174.574 173.819 173.321 172.593 172.153 171.461 171.088 170.428 
179.45 179.284 178.59 178.285 177.543 177.133 176.389 175.955 175.236 
174.79 174.069 173.587 172.855 172.359 171.643 171.186 170.512 170.128 
169.518 178.922 177.855 178.327 178.161 176.935 177.308 177.162 177.542 
177.229 176.036 176.381 176.125 176.533 176.235 176.551 176.121 174.914 
175.32 174.938 175.399 175.054 175.483 175.074 175.397 174.946 173.681 
174.092 173.692 174.132 173.778 174.24 173.869 174.275 173.858 174.207 
173.775 172.396 172.848 172.468 172.901 172.562 172.999 172.658 173.066 
172.676 173.062 172.644 173.008 172.571 170.962 171.496 171.099 171.62 
171.245 171.754 171.378 171.844 171.426 171.849 171.408 171.817 171.376 
171.765 171.334 169.532 170.042 169.666 170.189 169.8 170.335 169.934 
170.468 170.054 170.545 170.111 170.551 170.115 170.531 170.118 170.531 
170.167 168.289 168.717 168.404 168.843 168.501 168.935 168.568 169.032 
168.689 169.177 168.843 169.286 168.921 169.31 168.94 169.331 169.006 
169.428 169.163 179.155 179.099 178.734 178.029 179.242 178.769 178.105 
177.731 177.183 179.539 179.083 178.521 178.016 177.486 177.027 176.434 
179.581 179.36 178.852 178.47 177.844 177.365 176.631 176.159 175.355 
179.175 179.171 178.622 178.524 177.759 177.462 176.516 176.165 175.238 
174.9 174.048 178.564 178.581 177.97 178.015 177.256 177.098 176.099 
175.814 174.837 174.613 173.767 173.54 172.721 177.982 177.927 177.279 
177.305 176.665 176.573 175.735 175.419 174.485 174.189 173.36 173.163 
172.349 172.134 171.275 177.477 177.374 176.708 176.668 176.08 176.051 
175.379 175.155 174.292 173.938 173.055 172.774 171.933 171.705 170.837 
170.622 169.798 177.019 176.912 176.258 176.158 175.546 175.508 174.884 
174.784 173.996 173.728 172.813 172.494 171.6 171.32 170.458 170.203 
169.386 169.196 168.501 179.905 181.059 180.335 179.95 182.091 181.546 
181.299 180.427 180.05 182.837 182.532 182.486 181.799 181.415 180.538 
180.186 183.291 183.146 183.215 182.861 182.596 181.837 181.319 180.545 
180.12 183.631 183.483 183.523 183.4 183.272 182.822 182.33 181.586 
180.982 180.289 179.754 184.027 183.803 183.746 183.614 183.487 183.268 
182.872 182.384 181.78 181.122 180.505 179.83 179.234 184.372 184.174 
184.035 183.831 183.586 183.374 182.958 182.676 182.119 181.712 181.108 
180.559 179.94 179.29 178.675 184.524 184.415 184.235 184.052 183.708 
183.446 182.944 182.667 182.11 181.844 181.283 180.954 180.365 179.9 
179.28 178.705 178.115 184.551 184.482 184.291 184.152 183.786 183.524 
182.992 182.673 182.112 181.825 181.301 181.024 180.487 180.157 179.582 
179.17 178.592 178.111 177.58 184.5 184.242 184.343 184.203 183.739 
183.964 183.762 183.9 183.622 182.909 183.284 183.04 183.293 182.943 
183.135 182.766 181.822 182.295 182.053 182.422 182.091 182.359 182.003 
182.219 181.884 180.649 181.15 180.954 181.384 181.124 181.461 181.168 
181.443 181.142 181.368 181.072 179.472 179.98 179.829 180.303 180.094 
180.485 180.211 180.556 180.261 180.573 180.254 180.528 180.22 178.305 
178.803 178.643 179.161 178.967 179.426 179.14 179.533 179.212 179.595 
179.276 179.624 179.297 179.62 179.313 177.204 177.656 177.478 177.966 
177.78 178.262 178.002 178.42 178.108 178.507 178.217 178.604 178.319 
178.664 178.368 178.694 178.385 176.197 176.609 176.445 176.862 176.689 
177.119 176.905 177.306 177.04 177.424 177.167 177.562 177.319 177.689 
177.421 177.755 177.463 177.768 177.443 175.597 174.72 175.409 175.846 
173.644 174.459 174.944 175.642 176.069 172.434 173.305 173.836 174.66 
175.131 175.842 176.249 171.294 172.108 172.641 173.498 174.018 174.828 
175.276 175.987 176.377 170.248 171.01 171.5 172.317 172.832 173.676 
174.172 174.963 175.408 176.112 176.518 169.217 169.951 170.389 171.175 
171.652 172.493 173.001 173.837 174.324 175.104 175.555 176.265 176.672 
168.254 168.928 169.335 170.061 170.518 171.323 171.841 172.679 173.187 
173.996 174.464 175.242 175.678 176.399 176.778 167.373 168.005 168.412 
169.069 169.518 170.241 170.754 171.55 172.071 172.87 173.341 174.126 
174.572 175.346 175.765 176.476 176.828 166.517 167.14 167.555 168.194 
168.637 169.304 169.778 170.505 170.996 171.766 172.237 173.012 173.462 
174.237 174.676 175.429 175.816 176.504 176.814 176.552 175.556 175.981 
175.794 174.421 174.913 174.735 175.191 175.043 173.188 173.709 173.515 
174.049 173.879 174.418 174.296 171.926 172.428 172.18 172.747 172.537 
173.135 172.94 173.562 173.362 170.685 171.145 170.834 171.368 171.115 
171.718 171.474 172.098 171.833 172.475 172.193 169.497 169.913 169.563 
170.024 169.714 170.272 170.005 170.605 170.314 170.919 170.618 171.25 
170.976 168.35 168.737 168.353 168.763 168.385 168.875 168.555 169.127 
168.827 169.414 169.1 169.699 169.409 170.054 169.816 167.23 167.583 
167.154 167.537 167.105 167.543 167.159 167.681 167.355 167.929 167.616 
168.2 167.9 168.51 168.263 168.925 168.75 166.169 166.467 166.007 
166.341 165.883 166.264 165.841 166.298 165.942 166.477 166.171 166.736 
166.447 167.027 166.788 167.414 167.27 167.945 167.886 177.862 177.96 
178.229 178.852 177.967 178.294 178.957 179.247 179.939 177.947 178.307 
179.021 179.344 180.077 180.383 181.123 177.829 178.268 179.024 179.417 
180.187 180.523 181.261 181.554 182.238 177.544 178.062 178.82 179.343 
180.153 180.604 181.335 181.656 182.279 182.568 183.159 177.218 177.735 
178.472 179.04 179.863 180.453 181.233 181.665 182.253 182.547 183.066 
183.389 183.905 176.914 177.42 178.135 178.671 179.432 180.056 180.845 
181.431 182.069 182.459 182.938 183.251 183.71 184.042 184.421 176.576 
177.088 177.75 178.292 178.95 179.555 180.239 180.904 181.551 182.129 
182.646 183.064 183.486 183.819 184.162 184.433 184.625 176.213 176.696 
177.276 177.818 178.396 178.987 179.566 180.213 180.789 181.461 181.994 
182.6 183.042 183.509 183.832 184.151 184.335 184.538 184.601 177.935 
178.971 178.422 178.357 180.119 179.545 179.537 178.897 178.822 181.334 
180.774 180.81 180.146 180.056 179.372 179.214 182.467 181.994 182.055 
181.431 181.321 180.61 180.366 179.654 179.313 183.427 183.065 183.142 
182.604 182.489 181.83 181.57 180.817 180.415 179.622 179.144 184.199 
183.952 184.033 183.585 183.437 182.878 182.635 181.986 181.622 180.804 
180.297 179.43 178.939 184.676 184.59 184.674 184.364 184.188 183.709 
183.438 182.923 182.607 181.955 181.47 180.63 180.061 179.237 178.78 
184.8 184.862 184.948 184.845 184.723 184.376 184.096 183.638 183.31 
182.794 182.345 181.672 181.072 180.3 179.726 179.03 178.602 184.72 
184.832 184.916 184.97 184.949 184.805 184.597 184.235 183.87 183.403 
182.929 182.386 181.805 181.163 180.555 179.89 179.378 178.787 178.398 
177.364 177.729 177.222 176.602 178.15 177.596 176.943 176.455 175.847 
178.538 178.023 177.31 176.783 176.098 175.651 174.921 178.631 178.296 
177.569 177.097 176.28 175.808 174.985 174.545 173.59 178.415 178.211 
177.528 177.222 176.396 175.926 175.01 174.542 173.638 173.127 172.161 
178.19 177.951 177.302 177.084 176.389 176.008 175.158 174.63 173.762 
173.239 172.437 171.87 171.103 178.092 177.8 177.157 176.897 176.283 
175.993 175.295 174.841 174.037 173.486 172.71 172.183 171.477 170.963 
170.305 178.006 177.745 177.121 176.824 176.191 175.91 175.268 174.944 
174.225 173.773 172.992 172.48 171.738 171.261 170.576 170.133 169.481 
177.866 177.657 177.077 176.8 176.164 175.852 175.198 174.897 174.23 
173.884 173.159 172.72 171.978 171.507 170.82 170.365 169.724 169.281 
168.659 180.066 180.29 180.516 181.079 180.178 180.546 181.111 181.418 
181.943 180.079 180.421 181.04 181.362 181.93 182.205 182.658 180.045 
180.392 181.081 181.387 182.062 182.283 182.815 182.916 183.24 179.892 
180.312 180.968 181.39 182.08 182.447 183.064 183.211 183.589 183.517 
183.717 179.631 180.079 180.649 181.118 181.703 182.243 182.879 183.332 
183.825 183.934 184.168 184.023 184.162 179.287 179.758 180.304 180.748 
181.276 181.762 182.378 182.955 183.595 184.011 184.408 184.455 184.587 
184.439 184.502 178.863 179.349 179.901 180.386 180.952 181.399 182.014 
182.508 183.194 183.705 184.266 184.553 184.792 184.78 184.8 184.67 
184.648 178.455 178.901 179.435 179.949 180.558 181.076 181.716 182.207 
182.84 183.333 183.889 184.311 184.653 184.848 184.935 184.9 184.86 
184.738 184.682 
POINT_DATA 1002
SCALARS Distance double
LOOKUP_TABLE default
174.965 175.782 174.899 173.953 173.83 173.977 172.762 172.689 172.806 
172.777 171.471 171.485 171.505 171.512 171.57 170.08 170.18 170.103 
170.18 170.3 170.519 168.7 168.969 168.631 168.77 168.952 169.213 
169.51 167.497 167.976 167.232 167.334 167.576 167.836 168.183 168.516 
166.387 166.993 165.966 165.946 166.208 166.503 166.834 167.234 167.609 
165.225 165.853 164.791 164.662 164.816 165.13 165.495 165.899 166.328 
166.744 164.056 164.657 163.708 163.567 163.542 163.704 164.078 164.529 
164.982 165.441 165.901 176.091 175.1 176.409 175.359 176.707 173.991 
175.69 177.024 174.258 172.873 176.039 177.355 174.571 173.091 171.632 
176.306 177.557 174.855 173.292 171.725 170.287 176.452 177.615 175.104 
173.594 171.909 170.366 169.165 176.55 177.651 175.28 173.935 172.35 
170.644 169.347 168.292 176.61 177.637 175.366 174.096 172.762 171.16 
169.671 168.557 167.342 176.578 177.494 175.417 174.144 172.929 171.607 
170.147 168.868 167.658 166.189 176.743 175.749 175.997 174.943 175.244 
174.489 173.928 174.111 173.508 173.136 172.276 172.543 172.037 171.931 
171.841 170.522 171.22 170.06 170.199 170.51 170.475 169.597 170.423 
168.727 168.503 168.902 169.175 169.074 169.14 169.696 168.379 167.76 
167.622 167.733 167.75 167.69 168.402 168.841 167.937 167.398 166.865 
166.462 166.214 166.097 166.099 167.475 168.04 166.987 166.523 165.951 
165.294 164.732 164.391 164.289 164.402 163.07 162.664 161.63 162.524 
161.097 160.308 162.721 160.952 159.792 159.054 163.213 161.204 159.776 
158.825 158.07 163.928 161.775 160.153 159.077 158.174 157.382 164.71 
162.642 160.889 159.63 158.601 157.637 156.914 165.423 163.658 161.98 
160.542 159.311 158.227 157.347 156.835 166.12 164.641 163.152 161.704 
160.356 159.192 158.232 157.513 157.127 166.864 165.554 164.181 162.803 
161.494 160.36 159.412 158.589 157.92 157.515 162.676 161.405 162.552 
159.988 161.263 162.429 158.569 159.733 161.08 162.358 157.536 158.407 
159.795 161.216 162.63 156.878 157.476 158.77 160.314 161.749 163.154 
156.633 156.937 157.896 159.385 160.949 162.353 163.689 156.848 156.972 
157.516 158.565 160.047 161.584 162.947 164.218 157.228 157.347 157.758 
158.386 159.413 160.841 162.297 163.571 164.761 157.661 157.634 158.075 
158.329 158.997 158.075 159.444 160.365 159.002 158.671 160.826 161.738 
160.121 159.66 159.342 162.108 162.935 161.358 160.714 160.363 160.419 
163.285 164.199 162.6 161.96 161.501 161.514 161.869 164.582 165.558 
163.877 163.368 162.911 162.739 162.948 163.269 165.933 166.792 165.236 
164.79 164.441 164.164 164.13 164.296 164.512 167.182 167.869 166.585 
166.168 165.874 165.607 165.43 165.422 165.533 165.698 158.18 158.341 
159.138 159.502 160.296 158.947 160.878 161.512 160.338 160.112 162.192 
162.798 161.726 161.474 161.489 163.588 164.207 163.055 162.761 162.692 
162.771 165.117 165.603 164.64 164.298 164.113 164.07 164.121 166.504 
166.834 166.228 166.021 165.805 165.622 165.589 165.593 167.659 167.917 
167.499 167.438 167.321 167.091 166.966 166.968 166.902 168.712 168.933 
168.581 168.553 168.521 168.363 168.184 168.129 168.091 167.971 168.002 
166.766 167.933 166.569 167.718 165.36 166.373 167.59 165.12 163.927 
166.472 167.711 165.133 163.806 162.606 166.7 167.874 165.401 164.009 
162.667 161.474 166.838 168.012 165.58 164.237 162.878 161.647 160.523 
167.078 168.255 165.811 164.46 163.086 161.826 160.729 159.657 167.481 
168.583 166.283 164.951 163.53 162.171 160.979 159.888 158.838 169.098 
169.122 170.169 170.218 171.272 169.059 171.337 172.435 170.182 168.871 
172.499 173.549 171.373 170.095 168.803 173.61 174.538 172.599 171.387 
170.079 168.906 174.666 175.514 173.748 172.627 171.343 170.13 169.038 
175.704 176.485 174.826 173.758 172.531 171.358 170.283 169.231 176.634 
177.328 175.831 174.839 173.673 172.55 171.543 170.522 169.494 177.419 
178.046 176.712 175.849 174.79 173.69 172.705 171.75 170.746 169.776 