# vtk DataFile Version 4.0
vtk output
ASCII
DATASET POLYDATA
POINTS 1002 float
-103.42 -120.635 74.9296 -104.161 -121.562 74.6228 -103.895 -121.09 73.7494 
-103.132 -119.997 74.0852 -103.713 -120.336 73.061 -102.814 -119.357 75.3411 
-103.027 -118.973 73.3962 -103.652 -119.304 72.4394 -102.615 -118.427 74.5432 
-102.396 -117.634 75.7861 -103.042 -117.716 72.6641 -103.574 -118.171 71.6445 
-102.566 -117.176 73.7829 -102.145 -116.562 74.992 -101.818 -115.888 76.2269 
-102.881 -116.498 71.7917 -103.38 -116.996 70.8536 -102.404 -115.955 72.9226 
-101.778 -115.497 74.0865 -101.228 -115.043 75.3733 -100.894 -114.526 76.6956 
-102.512 -115.292 71.0147 -103.253 -115.644 70.3425 -101.935 -114.891 72.0459 
-101.169 -114.618 73.1436 -100.454 -114.336 74.3367 -100.126 -113.857 75.7726 
-100.046 -113.233 77.1449 -102.183 -114.017 70.3741 -103.254 -114.212 69.9823 
-101.404 -113.778 71.2256 -100.609 -113.615 72.31 -99.8086 -113.476 73.3893 
-99.4407 -113.08 74.7049 -99.4565 -112.416 76.2052 -99.5407 -111.706 77.5058 
-101.915 -112.772 69.8032 -103.192 -112.879 69.6566 -100.967 -112.622 70.4048 
-100.299 -112.383 71.4541 -99.6434 -112.161 72.5824 -99.1853 -111.868 73.7706 
-99.0773 -111.368 75.1743 -99.1413 -110.732 76.6041 -99.2365 -110.133 77.8195 
-101.699 -111.53 69.3788 -103.032 -111.622 69.3828 -100.639 -111.43 69.744 
-100.044 -111.14 70.5931 -99.646 -110.73 71.7014 -99.2784 -110.342 72.9091 
-99.0285 -109.97 74.2126 -98.9313 -109.538 75.6027 -98.9595 -109.053 76.955 
-99.0616 -108.609 78.1314 -101.622 -110.291 69.0204 -102.877 -110.459 69.0683 
-100.55 -110.129 69.2951 -99.9003 -109.826 69.9508 -99.539 -109.387 70.842 
-99.2689 -108.911 71.966 -99.066 -108.473 73.2676 -98.937 -108.097 74.5996 
-98.8899 -107.739 75.9511 -98.923 -107.386 77.2686 -98.9944 -107.086 78.4179 
-104.804 -122.154 73.8091 -104.656 -121.575 72.9722 -105.611 -122.71 72.9877 
-105.56 -122.014 72.1779 -106.546 -123.16 72.0818 -104.554 -120.725 72.3288 
-106.495 -122.347 71.2478 -107.569 -123.363 71.1223 -105.5 -121.049 71.5111 
-104.466 -119.675 71.6371 -107.508 -122.447 70.3089 -108.713 -123.242 70.2581 
-106.417 -121.303 70.544 -105.393 -119.97 70.7401 -104.313 -118.58 70.7892 
-108.718 -122.284 69.5118 -109.959 -122.924 69.4737 -107.422 -121.406 69.5842 
-106.303 -120.24 69.7302 -105.257 -118.877 69.9286 -104.216 -117.314 70.1645 
-109.979 -121.985 68.7287 -111.125 -122.618 68.6416 -108.626 -121.255 68.7101 
-107.264 -120.37 68.7188 -106.151 -119.129 68.9376 -105.243 -117.532 69.4159 
-104.34 -115.775 69.8682 -111.091 -121.6 67.9103 -112.149 -122.255 67.7947 
-109.849 -120.86 67.9131 -108.393 -120.148 67.881 -107.008 -119.17 67.985 
-106.016 -117.727 68.3977 -105.336 -115.972 69.1171 -104.472 -114.243 69.642 
-112.13 -120.985 67.2323 -113.144 -121.607 67.084 -110.967 -120.28 67.2863 
-109.596 -119.661 67.2807 -108.098 -118.879 67.3525 -106.764 -117.705 67.5057 
-105.913 -116.205 68.0225 -105.324 -114.483 68.9019 -104.388 -112.851 69.4447 
-113.157 -120.123 66.7894 -114.111 -120.708 66.5963 -112.019 -119.536 66.8602 
-110.713 -119.1 66.7948 -109.327 -118.509 66.8705 -107.892 -117.482 67.0027 
-106.62 -116.211 67.1638 -105.805 -114.742 67.843 -105.159 -113.059 68.8171 
-104.167 -111.54 69.2559 -114.424 -119.377 66.4095 -113.313 -118.773 66.5315 
-114.465 -118.101 66.1432 -113.139 -117.696 65.852 -114.181 -117.095 65.3927 
-111.96 -118.47 66.3114 -112.768 -116.866 64.7973 -113.868 -116.217 64.6409 
-111.681 -117.641 65.3406 -110.568 -118.199 66.176 -112.527 -115.845 64.4781 
-113.671 -115.243 64.8753 -111.378 -116.595 64.6562 -110.367 -117.13 65.5411 
-109.218 -117.313 66.4715 -112.319 -114.435 65.2508 -113.306 -114.002 65.7803 
-111.134 -114.996 65.0621 -110.082 -115.528 65.5331 -109.036 -115.778 66.2481 
-107.746 -115.962 66.7165 -111.876 -112.708 66.0192 -112.671 -112.337 66.3847 
-110.812 -113.132 65.83 -109.676 -113.628 66.0025 -108.617 -113.99 66.3469 
-107.476 -114.25 66.6425 -106.422 -114.55 67.082 -111.318 -110.835 66.4409 
-112.007 -110.507 66.7924 -110.44 -111.25 66.2577 -109.327 -111.793 66.3168 
-108.153 -112.259 66.4915 -107.066 -112.502 66.7493 -106.152 -112.697 67.2682 
-105.548 -112.911 68.0482 -110.789 -109.186 67.0391 -111.421 -109.011 67.4509 
-110.062 -109.463 66.7698 -109.091 -109.94 66.7085 -107.901 -110.494 66.76 
-106.749 -110.82 66.9521 -105.838 -110.913 67.4574 -105.197 -111.019 68.1957 
-104.703 -111.234 68.8568 -110.248 -107.95 67.8274 -110.863 -107.933 68.232 
-109.575 -107.976 67.5161 -108.732 -108.149 67.3651 -107.674 -108.541 67.2951 
-106.547 -108.978 67.3165 -105.546 -109.263 67.5752 -104.758 -109.442 68.0384 
-104.13 -109.657 68.5061 -103.528 -109.991 68.8523 -101.998 -109.251 68.5361 
-102.614 -108.793 68.1857 -101.211 -107.943 67.9874 -103.289 -108.394 67.9458 
-101.677 -107.46 67.5438 -100.569 -106.206 67.7115 -104.155 -107.896 67.7987 
-102.468 -106.717 67.4734 -100.997 -105.36 67.34 -100.147 -103.916 67.6983 
-105.2 -107.323 67.6651 -103.692 -105.714 67.5432 -102.118 -104.115 67.3357 
-100.864 -102.625 67.4177 -100.059 -101.57 67.7711 -106.273 -106.845 67.6671 
-104.936 -104.987 67.5827 -103.66 -103.105 67.3651 -102.343 -101.439 67.375 
-101.149 -100.357 67.5767 -100.216 -99.7003 68.0751 -107.315 -106.589 67.8518 
-105.921 -104.825 67.8726 -104.863 -102.954 67.6099 -103.859 -101.12 67.5325 
-102.671 -99.778 67.6924 -101.488 -98.9788 68.0848 -100.495 -98.3172 68.7695 
-108.294 -106.591 68.0608 -106.864 -104.987 68.3427 -105.73 -103.286 68.3115 
-104.89 -101.499 68.1902 -103.965 -99.8951 68.185 -102.931 -98.7885 68.4365 
-101.904 -97.9601 68.9713 -100.984 -97.2515 69.6444 -109.145 -106.747 68.3037 
-107.87 -105.235 68.6765 -106.703 -103.568 68.9459 -105.81 -101.867 69.0434 
-104.988 -100.192 68.9583 -104.168 -98.8293 69.0065 -103.374 -97.8238 69.3858 
-102.504 -96.9867 69.9142 -101.656 -96.3968 70.4766 -109.879 -106.887 68.6532 
-108.801 -105.476 68.9442 -107.767 -103.78 69.2323 -106.891 -102.08 69.5045 
-106.072 -100.452 69.5566 -105.275 -98.985 69.5656 -104.603 -97.8342 69.866 
-103.923 -96.8998 70.328 -103.093 -96.1327 70.7496 -102.285 -95.6861 71.245 
-100.891 -108.895 68.7064 -100.424 -107.175 68.4995 -100.112 -108.425 69.3055 
-100.029 -105.118 68.3895 -99.872 -106.384 69.2909 -99.5879 -107.931 70.0663 
-99.6628 -102.925 68.3428 -99.5554 -104.281 69.222 -99.3141 -105.833 70.1157 
-99.1765 -107.471 71.0039 -99.4906 -100.813 68.5119 -99.2506 -102.202 69.3323 
-99.0921 -103.725 70.2999 -98.9249 -105.367 71.2887 -98.9671 -106.97 72.3157 
-99.5365 -98.9291 69.041 -99.1097 -100.064 69.7349 -99.0169 -101.557 70.7189 
-98.9496 -103.177 71.7702 -98.9261 -104.823 72.8001 -98.9547 -106.482 73.7578 
-99.8431 -97.5182 69.8063 -99.1729 -98.2031 70.3297 -98.9761 -99.4351 71.2363 
-98.9897 -101.043 72.3234 -99.0514 -102.712 73.3653 -99.0714 -104.379 74.3029 
-98.9824 -106.106 75.1678 -100.483 -96.6275 70.6433 -99.6085 -97.0612 71.1019 
-99.1214 -97.8307 71.9228 -98.9246 -99.131 72.9935 -98.9576 -100.801 74.0439 
-99.0934 -102.473 74.9544 -99.1041 -104.124 75.8026 -98.9833 -105.824 76.6032 
-101.261 -95.9787 71.5015 -100.384 -96.4487 72.0321 -99.6895 -96.9596 72.8484 
-99.1493 -97.7363 73.8696 -98.8772 -99.0874 74.873 -98.9204 -100.771 75.7189 
-99.0337 -102.397 76.5012 -99.0203 -103.991 77.2786 -98.9632 -105.609 77.9446 
-102.219 -95.2049 72.2721 -101.403 -95.7251 72.8793 -102.254 -94.8796 73.7515 
-101.612 -95.5633 74.6106 -102.397 -94.7754 75.4731 -100.671 -96.3447 73.7399 
-101.789 -95.571 76.249 -102.65 -95.0231 77.0691 -100.899 -96.2974 75.5241 
-99.8992 -96.8839 74.743 -102.008 -95.8661 77.742 -103.007 -95.5661 78.5289 
-101.027 -96.4845 77.0055 -100.058 -97.0189 76.4088 -99.2414 -97.7598 75.7214 
-102.292 -96.2885 79.3891 -103.347 -96.1648 79.9713 -101.188 -96.8437 78.6191 
-100.234 -97.4744 77.8543 -99.4785 -98.1283 77.2308 -98.9786 -99.274 76.5453 
-102.529 -96.7754 80.9697 -103.598 -96.7487 81.365 -101.38 -97.1566 80.4404 
-100.413 -97.8843 79.6404 -99.7739 -98.6701 78.7816 -99.2452 -99.6784 78.0512 
-98.9691 -101.008 77.3157 -102.776 -97.4579 82.2815 -103.849 -97.383 82.6816 
-101.668 -97.6855 81.8458 -100.668 -98.2626 81.2661 -100.016 -99.104 80.5139 
-99.4984 -100.114 79.7025 -99.0519 -101.333 78.9179 -98.9396 -102.656 78.1163 
-103.106 -98.2495 83.4299 -104.152 -98.0946 83.7586 -102.136 -98.521 82.912 
-101.222 -99.018 82.2655 -100.482 -99.7646 81.6791 -99.861 -100.68 81.128 
-99.2575 -101.769 80.443 -98.9213 -103.011 79.6411 -98.9168 -104.311 78.7966 
-103.461 -99.0412 84.2964 -104.496 -98.9056 84.4232 -102.614 -99.3563 83.8912 
-101.905 -99.9313 83.1468 -101.238 -100.74 82.3963 -100.546 -101.608 81.9286 
-99.8084 -102.493 81.5054 -99.2262 -103.528 80.8621 -99.0032 -104.718 80.0705 
-98.9979 -105.936 79.2406 -103.261 -95.2844 71.6915 -103.123 -94.7045 72.7538 
-104.245 -95.205 72.2911 -104.288 -94.6081 73.405 -105.387 -95.4005 72.998 
-103.17 -94.3503 74.3362 -105.846 -94.7548 74.1829 -106.672 -95.624 73.6598 
-104.639 -94.2462 75.0888 -103.434 -94.3865 76.1844 -107.32 -95.0011 74.9108 
-107.817 -96.0407 74.2117 -106.467 -94.3478 75.8681 -105.086 -94.3736 76.9419 
-103.804 -94.9035 77.8206 -108.309 -95.7141 75.4771 -108.85 -96.847 74.7285 
-107.77 -94.8162 76.4496 -106.803 -94.603 77.5013 -105.392 -95.0567 78.4297 
-104.181 -95.6608 79.1967 -109.294 -96.7712 75.9597 -109.972 -97.6904 75.2516 
-108.576 -95.9188 76.8693 -107.877 -95.4017 77.8776 -106.91 -95.4485 78.8533 
-105.654 -95.8669 79.7559 -104.515 -96.3142 80.5836 -110.468 -97.6472 76.4791 
-110.93 -98.4488 75.7728 -109.713 -97 77.3541 -108.844 -96.5369 78.3641 
-108.07 -96.2588 79.3622 -107.163 -96.2237 80.3491 -105.989 -96.4508 81.288 
-104.825 -96.8561 82.0614 -111.314 -98.4885 77.0298 -111.487 -99.3818 76.2732 
-110.955 -97.7419 77.9234 -110.203 -97.2888 78.9758 -109.294 -97.0482 80.0128 
-108.475 -96.8462 80.9817 -107.518 -96.7806 81.9674 -106.325 -97.0083 82.8003 
-105.143 -97.488 83.3587 -111.741 -99.54 77.5063 -111.868 -100.448 76.7016 
-111.677 -98.617 78.4134 -111.348 -97.9192 79.4514 -110.583 -97.6072 80.5 
[...]
CELL_DATA 2000
SCALARS Distance double
LOOKUP_TABLE default
175.024 174.113 174.387 174.003 173.121 173.407 172.963 173.286 172.847 
172.015 172.333 171.822 172.166 171.672 172.031 171.545 170.784 171.131 
170.574 170.946 170.395 170.778 170.262 170.671 170.218 169.509 169.829 
169.229 169.625 169.05 169.448 168.899 169.331 168.883 169.362 168.989 
168.29 168.527 167.856 168.238 167.661 168.077 167.527 167.952 167.492 
167.991 167.642 168.161 167.829 167.147 167.297 166.534 166.857 166.262 
166.684 166.162 166.59 166.127 166.604 166.251 166.79 166.494 167.014 
166.714 166.057 166.144 165.312 165.552 164.918 165.305 164.8 165.235 
164.785 165.249 164.878 165.403 165.11 165.662 165.399 165.93 165.686 
165.029 165.069 164.216 164.371 163.705 164.011 163.489 163.89 163.435 
163.895 163.508 164.026 163.714 164.273 164.019 164.592 164.377 164.939 
164.747 175.487 175.964 175.358 174.62 176.476 175.857 175.1 174.47 
173.676 176.903 176.333 175.561 174.947 174.119 173.478 172.604 177.217 
176.695 175.913 175.349 174.513 173.897 172.995 172.343 171.406 177.489 
176.99 176.218 175.663 174.836 174.251 173.378 172.74 171.818 171.137 
170.195 177.719 177.261 176.507 175.963 175.124 174.553 173.688 173.099 
172.223 171.582 170.683 169.977 169.055 177.842 177.45 176.692 176.207 
175.352 174.813 173.911 173.357 172.457 171.912 171.052 170.465 169.595 
168.891 167.977 177.829 177.502 176.742 176.325 175.493 175.005 174.12 
173.565 172.624 172.07 171.176 170.703 169.895 169.375 168.524 167.83 
166.913 177.708 177.432 176.699 176.336 175.558 175.132 174.335 173.811 
172.927 172.295 171.36 170.795 169.971 169.544 168.789 168.289 167.442 
166.76 165.864 177.395 176.53 176.783 176.364 175.482 175.811 175.379 
175.679 175.235 174.354 174.675 174.254 174.629 174.236 174.542 174.068 
173.452 173.607 173.156 173.483 173.122 173.5 173.049 173.309 172.693 
172.723 172.798 172.219 172.422 171.959 172.333 171.853 172.19 171.527 
171.768 171.067 171.683 171.922 171.197 171.419 170.768 171.105 170.509 
170.883 170.19 170.495 169.78 170.11 169.58 170.297 170.646 169.908 
170.221 169.509 169.835 169.159 169.497 168.79 169.109 168.423 168.788 
168.272 168.733 168.369 169.053 169.291 168.639 168.907 168.266 168.555 
167.909 168.188 167.508 167.772 167.113 167.444 166.916 167.378 166.965 
167.494 167.067 168.165 168.257 167.642 167.786 167.159 167.37 166.725 
166.974 166.301 166.555 165.894 166.188 165.611 166.008 165.516 166.011 
165.526 166.053 165.532 164.476 164.459 163.931 162.877 164.504 163.933 
162.804 162.277 161.216 164.64 164.025 162.869 162.218 160.989 160.513 
159.439 164.897 164.219 163.049 162.313 160.996 160.322 159.087 158.68 
157.724 165.281 164.538 163.367 162.555 161.276 160.453 159.224 158.532 
157.556 157.154 156.486 165.772 165.002 163.905 163.013 161.869 160.945 
159.883 158.986 158.115 157.377 156.775 156.287 155.889 166.332 165.59 
164.643 163.728 162.746 161.78 160.897 159.925 159.168 158.255 157.695 
156.953 156.592 156.017 155.777 166.932 166.248 165.452 164.588 163.725 
162.798 162.009 161.074 160.356 159.421 158.825 158.011 157.626 156.949 
156.699 156.102 155.949 167.537 166.92 166.231 165.447 164.648 163.79 
163.03 162.177 161.475 160.59 159.95 159.12 158.68 158 157.744 
157.12 156.914 156.341 156.227 164.172 162.616 163.365 163.369 161.027 
161.826 161.891 162.685 162.865 159.332 160.217 160.335 161.21 161.428 
162.29 162.606 157.667 158.518 158.692 159.624 159.881 160.809 161.153 
162.088 162.516 156.366 156.978 157.169 158.033 158.371 159.286 159.694 
160.632 161.133 162.081 162.613 155.601 155.878 155.964 156.643 157.027 
157.891 158.398 159.286 159.86 160.769 161.386 162.282 162.865 155.365 
155.318 155.244 155.613 155.928 156.663 157.233 158.104 158.757 159.625 
160.292 161.144 161.793 162.618 163.213 155.548 155.29 155.175 155.177 
155.408 155.791 156.338 157.046 157.759 158.599 159.327 160.152 160.839 
161.628 162.276 163.036 163.626 155.912 155.625 155.598 155.406 155.642 
155.643 156.112 156.424 157.092 157.718 158.486 159.255 159.991 160.751 
161.422 162.158 162.784 163.491 164.05 156.063 156.468 156.13 155.952 
157.201 156.772 156.727 156.244 156.127 158.14 157.634 157.628 157.15 
157.075 156.534 156.518 159.265 158.638 158.575 158.07 158.022 157.505 
157.486 157.04 157.301 160.524 159.817 159.701 159.085 159.054 158.495 
158.541 158.049 158.309 158.006 158.565 161.756 161.063 160.923 160.268 
160.236 159.637 159.739 159.202 159.48 159.079 159.583 159.371 160.029 
162.958 162.275 162.137 161.478 161.437 160.85 160.973 160.461 160.738 
160.294 160.717 160.408 160.977 160.81 161.443 164.159 163.497 163.404 
162.727 162.714 162.083 162.229 161.707 162.01 161.553 161.935 161.543 
162.018 161.761 162.341 162.189 162.794 165.266 164.678 164.632 164.02 
164.06 163.432 163.608 163.037 163.369 162.865 163.26 162.786 163.205 
162.829 163.335 163.104 163.674 163.516 164.065 156.385 157.044 156.599 
156.615 158.067 157.395 157.305 156.97 157.252 159.383 158.618 158.549 
157.907 158.113 157.792 158.248 160.717 160.024 160.069 159.359 159.55 
158.946 159.329 158.952 159.471 162.049 161.376 161.471 160.858 161.073 
160.475 160.786 160.245 160.665 160.269 160.771 163.51 162.787 162.875 
162.232 162.451 161.905 162.221 161.699 162.059 161.566 161.975 161.576 
162.022 164.957 164.293 164.424 163.727 163.957 163.324 163.674 163.117 
163.518 162.98 163.373 162.86 163.255 162.817 163.235 166.219 165.683 
165.88 165.284 165.544 164.913 165.25 164.644 165.043 164.473 164.878 
164.314 164.689 164.143 164.51 164.039 164.425 167.336 166.877 167.097 
166.636 166.908 166.412 166.71 166.179 166.495 165.965 166.305 165.788 
166.13 165.595 165.912 165.372 165.678 165.201 165.524 167.684 167.464 
167.204 166.369 167.128 166.886 165.984 165.726 164.79 166.829 166.528 
165.62 165.318 164.379 164.109 163.208 166.729 166.326 165.459 165.054 
164.149 163.776 162.874 162.575 161.696 166.758 166.319 165.476 165.02 
164.141 163.675 162.761 162.333 161.419 161.081 160.221 166.782 166.359 
165.517 165.073 164.195 163.719 162.8 162.308 161.397 160.937 160.106 
159.728 159.019 166.837 166.401 165.6 165.139 164.286 163.786 162.88 
162.369 161.495 161.013 160.232 159.785 159.104 158.715 158.121 167.014 
166.542 165.822 165.316 164.54 163.971 163.114 162.524 161.686 161.167 
160.421 159.967 159.27 158.855 158.198 157.853 157.27 167.317 166.826 
166.187 165.654 164.96 164.351 163.564 162.897 162.104 161.483 160.77 
160.227 159.533 159.031 158.329 157.913 157.3 157.002 156.532 168.397 
169.458 168.703 168.25 170.661 169.81 169.329 168.523 167.978 171.98 
171.066 170.526 169.64 169.093 168.237 167.687 173.242 172.385 171.838 
170.894 170.318 169.403 168.88 168.02 167.565 174.342 173.586 173.097 
172.207 171.629 170.685 170.157 169.268 168.835 167.992 167.595 175.368 
174.65 174.207 173.409 172.877 171.987 171.449 170.564 170.121 169.281 
168.879 168.035 167.622 176.355 175.669 175.23 174.485 174.003 173.192 
172.688 171.836 171.378 170.549 170.147 169.317 168.899 168.047 167.644 
177.207 176.609 176.182 175.49 175.036 174.294 173.851 173.056 172.621 
171.795 171.385 170.565 170.164 169.328 168.926 168.093 167.759 177.896 
177.402 177.037 176.415 175.997 175.31 174.913 174.196 173.809 173.029 
172.614 171.795 171.381 170.57 170.181 169.373 169.027 168.245 167.991 
178.162 178.402 177.983 177.352 178.65 178.217 177.518 177.072 176.339 
178.82 178.408 177.684 177.228 176.462 176.019 175.28 179.005 178.565 
177.852 177.384 176.616 176.151 175.385 174.957 174.204 179.157 178.752 
178.015 177.556 176.763 176.291 175.468 175.028 174.203 173.808 172.997 
179.062 178.785 178.009 177.646 176.807 176.384 175.498 175.054 174.15 
173.74 172.87 172.524 171.727 178.858 178.607 177.868 177.547 176.723 
176.347 175.471 175.045 174.134 173.682 172.793 172.392 171.585 171.265 
170.531 178.745 178.473 177.81 177.455 176.688 176.277 175.452 175.022 
174.176 173.714 172.859 172.39 171.581 171.177 170.439 170.112 169.416 
178.541 178.362 177.718 177.438 176.697 176.301 175.488 175.049 174.235 
173.791 172.981 172.511 171.707 171.245 170.49 170.087 169.392 169.048 
168.405 178.086 176.954 177.474 177.286 175.706 176.249 176.088 176.605 
176.296 174.484 174.968 174.73 175.307 175.044 175.517 175.104 173.218 
173.694 173.369 173.921 173.65 174.197 173.851 174.285 173.854 171.865 
172.356 171.99 172.526 172.22 172.792 172.476 172.988 172.6 173.032 
172.603 170.473 170.981 170.594 171.112 170.764 171.336 171.011 171.579 
171.207 171.716 171.298 171.753 171.327 169.017 169.575 169.215 169.726 
169.365 169.885 169.544 170.099 169.754 170.294 169.914 170.409 170.014 
170.476 170.101 167.552 168.119 167.829 168.367 168.054 168.54 168.21 
168.694 168.383 168.888 168.58 169.065 168.732 169.185 168.846 169.299 
168.993 166.255 166.734 166.479 167.008 166.746 167.254 166.955 167.424 
167.117 167.592 167.31 167.794 167.51 167.963 167.66 168.091 167.801 
168.251 168.006 178.373 178.44 178.009 177.201 178.597 178.113 177.298 
176.819 176.028 178.779 178.37 177.666 177.079 176.283 175.711 174.904 
178.758 178.554 177.944 177.465 176.579 175.984 175.024 174.517 173.619 
178.444 178.419 177.782 177.51 176.442 175.99 174.789 174.419 173.389 
173.096 172.203 177.889 177.959 177.279 177.126 175.985 175.572 174.242 
173.912 172.84 172.686 171.822 171.63 170.784 177.166 177.266 176.591 
176.534 175.536 175.139 173.918 173.434 172.401 172.138 171.33 171.168 
170.331 170.138 169.268 176.442 176.488 175.827 175.83 175.027 174.791 
173.804 173.329 172.342 171.898 171.024 170.721 169.838 169.611 168.697 
168.548 167.729 175.868 175.824 175.179 175.137 174.437 174.324 173.518 
173.234 172.313 171.894 170.917 170.491 169.503 169.154 168.215 167.986 
167.181 167.074 166.418 179.073 180.2 179.539 179.271 181.301 180.731 
180.551 179.753 179.407 182.264 181.797 181.691 181.016 180.612 179.801 
179.401 183.119 182.666 182.553 182.045 181.672 180.914 180.326 179.624 
179.206 183.91 183.437 183.212 182.781 182.467 181.865 181.273 180.492 
179.868 179.282 178.859 184.457 184.096 183.763 183.352 182.992 182.538 
182.031 181.369 180.688 179.968 179.368 178.845 178.36 184.598 184.438 
184.101 183.786 183.349 182.966 182.45 181.969 181.317 180.698 180.001 
179.391 178.783 178.275 177.704 184.508 184.446 184.16 183.975 183.54 
183.229 182.677 182.281 181.638 181.155 180.462 179.927 179.265 178.731 
178.12 177.601 177.017 184.44 184.366 184.112 183.968 183.56 183.317 
182.772 182.444 181.821 181.411 180.754 180.287 179.645 179.159 178.551 
178.047 177.468 176.956 176.426 184.362 184.042 184.163 183.987 183.409 
183.689 183.444 183.621 183.337 182.455 182.867 182.583 182.881 182.529 
182.81 182.487 181.405 181.828 181.558 181.9 181.555 181.886 181.575 
181.895 181.557 180.414 180.805 180.567 180.897 180.591 180.907 180.622 
180.959 180.655 180.932 180.538 179.413 179.821 179.575 179.93 179.61 
179.941 179.617 179.982 179.666 180.001 179.619 179.878 179.452 178.329 
178.776 178.502 178.893 178.528 178.89 178.502 178.898 178.536 178.939 
178.56 178.904 178.492 178.78 178.367 177.191 177.654 177.386 177.787 
177.424 177.774 177.384 177.75 177.396 177.786 177.434 177.805 177.429 
177.773 177.39 177.696 177.302 176.07 176.521 176.283 176.686 176.367 
176.704 176.355 176.685 176.373 176.717 176.408 176.735 176.393 176.716 
176.375 176.706 176.365 176.655 176.291 175.388 174.392 175.139 175.584 
173.246 174.072 174.515 175.279 175.66 171.952 172.836 173.276 174.129 
174.543 175.31 175.667 170.649 171.508 171.939 172.823 173.271 174.138 
174.578 175.341 175.716 169.436 170.24 170.658 171.497 171.942 172.831 
173.315 174.195 174.641 175.399 175.747 168.263 169.042 169.443 170.254 
170.683 171.531 171.995 172.889 173.357 174.229 174.625 175.385 175.705 
167.136 167.871 168.259 169.051 169.492 170.312 170.768 171.603 172.063 
172.923 173.376 174.207 174.609 175.347 175.694 166.122 166.79 167.174 
167.908 168.359 169.15 169.621 170.418 170.872 171.682 172.158 172.992 
173.477 174.263 174.683 175.376 175.717 165.194 165.823 166.193 166.876 
167.305 168.053 168.507 169.284 169.716 170.507 170.958 171.799 172.301 
173.145 173.613 174.366 174.729 175.387 175.671 175.407 174.455 174.85 
174.667 173.327 173.806 173.569 174.035 173.848 171.978 172.535 172.248 
172.803 172.546 173.125 172.907 170.584 171.101 170.755 171.344 171.033 
171.679 171.408 172.057 171.745 169.319 169.736 169.34 169.842 169.504 
170.106 169.791 170.446 170.091 170.741 170.331 168.122 168.501 168.07 
168.492 168.135 168.646 168.329 168.874 168.489 169.051 168.611 169.241 
168.839 166.924 167.288 166.816 167.219 166.808 167.302 166.967 167.484 
167.105 167.566 167.121 167.604 167.209 167.814 167.539 165.795 166.098 
165.576 165.931 165.441 165.915 165.515 166.073 165.682 166.197 165.763 
166.226 165.844 166.344 166.092 166.682 166.553 164.781 165.011 164.453 
164.716 164.168 164.538 164.082 164.584 164.181 164.72 164.303 164.83 
164.468 165.018 164.787 165.361 165.247 165.848 165.821 178.343 178.493 
178.731 179.342 178.497 178.82 179.452 179.737 180.394 178.369 178.754 
179.385 179.76 180.463 180.813 181.513 178.196 178.618 179.306 179.687 
180.416 180.818 181.573 181.918 182.544 177.984 178.464 179.251 179.67 
180.439 180.803 181.504 181.873 182.471 182.797 183.26 177.653 178.212 
179.005 179.564 180.336 180.792 181.395 181.744 182.191 182.551 182.959 
183.342 183.738 177.178 177.784 178.489 179.151 179.844 180.47 181.01 
181.48 181.845 182.209 182.564 182.955 183.378 183.778 184.162 176.639 
177.234 177.871 178.519 179.133 179.795 180.309 180.897 181.296 181.773 
182.168 182.594 183.055 183.448 183.87 184.184 184.444 176.137 176.683 
177.286 177.878 178.458 179.064 179.572 180.154 180.587 181.14 181.566 
182.116 182.582 183.094 183.51 183.893 184.145 184.383 184.478 178.416 
179.421 178.882 178.826 180.512 179.933 179.856 179.288 179.23 181.64 
181.058 180.956 180.333 180.211 179.676 179.603 182.645 182.146 181.997 
181.389 181.221 180.665 180.578 180.051 179.932 183.43 183.068 182.914 
182.342 182.134 181.621 181.591 181.103 181.059 180.414 180.18 184.047 
183.821 183.8 183.256 183.016 182.466 182.398 182.036 182.062 181.572 
181.338 180.59 180.146 184.489 184.414 184.556 184.169 183.976 183.367 
183.114 182.695 182.579 182.309 182.026 181.545 180.965 180.314 179.713 
184.669 184.735 184.913 184.808 184.724 184.279 183.929 183.373 183.003 
182.628 182.229 181.897 181.292 180.84 180.156 179.68 179.131 184.626 
184.755 184.887 184.978 184.984 184.834 184.57 184.11 183.651 183.099 
182.598 182.103 181.549 181.069 180.474 180.013 179.499 179.093 178.689 
177.837 178.249 177.725 177.031 178.689 178.17 177.484 176.869 176.04 
179.094 178.624 177.967 177.346 176.486 175.796 174.917 179.349 178.958 
178.315 177.791 176.922 176.237 175.335 174.706 173.988 179.437 179.088 
178.399 178.016 177.17 176.599 175.68 175.101 174.387 173.904 173.293 
179.363 179.063 178.31 177.995 177.19 176.749 175.859 175.362 174.607 
174.212 173.561 173.125 172.317 179.08 178.897 178.167 177.88 177.107 
176.733 175.91 175.478 174.703 174.329 173.612 173.239 172.389 171.902 
170.919 178.656 178.571 177.944 177.723 176.992 176.663 175.886 175.508 
174.754 174.38 173.631 173.236 172.388 171.912 170.976 170.469 169.609 
178.255 178.183 177.63 177.476 176.8 176.537 175.791 175.47 174.738 
174.4 173.66 173.264 172.442 171.961 171.094 170.585 169.8 169.331 
168.682 179.134 179.339 179.548 180.148 179.506 179.715 180.339 180.563 
181.185 179.774 179.967 180.643 180.806 181.468 181.623 182.206 179.86 
180.198 180.911 181.162 181.877 182.019 182.675 182.707 183.218 179.666 
180.114 180.805 181.263 182.003 182.365 183.072 183.239 183.812 183.759 
184.133 179.467 179.872 180.526 181.01 181.738 182.272 183.007 183.443 
184.045 184.246 184.614 184.554 184.691 179.255 179.66 180.242 180.702 
181.355 181.906 182.613 183.179 183.804 184.233 184.625 184.805 184.918 
184.864 184.789 178.932 179.353 179.836 180.32 180.862 181.437 182.054 
182.679 183.289 183.849 184.313 184.66 184.862 184.939 184.905 184.809 
184.68 178.645 178.997 179.446 179.865 180.379 180.891 181.466 182.054 
182.631 183.242 183.761 184.272 184.622 184.863 184.961 184.925 184.857 
184.707 184.609 
POINT_DATA 1002
SCALARS Distance double
LOOKUP_TABLE default
174.679 175.622 174.772 173.712 173.857 173.623 172.655 172.852 172.527 
172.396 171.496 171.699 171.319 171.175 171.069 170.203 170.452 170.026 
169.843 169.773 169.816 168.835 169.243 168.651 168.477 168.381 168.5 
168.654 167.505 168.125 167.23 167.105 167.002 167.097 167.334 167.505 
166.262 167.055 165.838 165.72 165.665 165.717 165.944 166.209 166.431 
165.118 166 164.557 164.361 164.323 164.371 164.553 164.837 165.156 
165.474 164.091 164.998 163.44 163.119 162.988 162.997 163.161 163.435 
163.79 164.191 164.58 176.069 175.234 176.591 175.748 177.091 174.321 
176.162 177.46 174.775 173.262 176.467 177.727 175.112 173.656 172.071 
176.778 177.964 175.411 173.987 172.496 170.891 177.043 178.153 175.702 
174.262 172.817 171.362 169.799 177.156 178.22 175.879 174.478 172.995 
171.561 170.238 168.753 177.131 178.137 175.942 174.661 173.223 171.656 
170.314 169.139 167.686 177.031 177.961 175.939 174.795 173.552 172.009 
170.417 169.186 168.047 166.596 177.197 176.125 176.271 175.038 175.139 
174.976 173.852 174.074 173.876 173.859 172.896 173.388 172.724 172.77 
172.521 172.115 172.672 171.65 171.509 171.286 170.778 170.982 171.399 
170.499 170.163 169.861 169.427 169.14 169.559 169.935 169.187 168.847 
168.471 168.043 167.802 167.879 168.381 168.846 167.979 167.635 167.251 
166.807 166.493 166.459 166.562 167.548 168.103 167 166.502 166.043 
165.613 165.267 165.076 165.015 165.002 163.428 163.362 161.843 163.422 
161.629 160.179 163.58 161.607 159.735 158.408 163.815 161.756 159.631 
157.904 156.865 164.193 162.099 159.979 158.071 156.7 155.9 164.776 
162.751 160.762 158.915 157.365 156.265 155.508 165.498 163.66 161.829 
160.102 158.49 157.233 156.282 155.544 166.251 164.611 162.907 161.295 
159.675 158.312 157.336 156.485 155.822 166.963 165.482 163.855 162.331 
160.803 159.376 158.357 157.542 156.719 156.143 162.578 161.061 162.039 
159.414 160.534 161.715 157.736 158.93 160.184 161.566 156.339 157.439 
158.75 160.153 161.686 155.401 156.158 157.491 158.961 160.475 162.005 
155.049 155.287 156.348 157.869 159.448 160.96 162.421 155.282 155.199 
155.745 156.928 158.487 160.054 161.51 162.904 155.774 155.742 155.991 
156.606 157.748 159.229 160.695 162.068 163.385 156.277 156.344 156.789 
157.19 157.631 156.653 158.087 158.706 157.612 156.965 159.125 159.967 
158.517 157.942 157.555 160.363 161.246 159.62 159.03 158.655 158.723 
161.585 162.442 160.827 160.266 159.926 159.865 160.168 162.802 163.634 
162.027 161.462 161.196 161.097 161.196 161.571 164.059 164.788 163.355 
162.763 162.466 162.372 162.34 162.522 162.934 165.19 165.82 164.648 
164.18 163.885 163.761 163.65 163.629 163.86 164.234 156.739 156.786 
157.61 157.792 158.801 157.341 159.266 160.086 158.593 158.41 160.724 
161.345 160.223 159.84 159.742 162.061 162.744 161.632 161.367 161.156 
161.102 163.56 164.228 163.007 162.719 162.579 162.445 162.382 165.094 
165.551 164.619 164.25 164.056 163.921 163.755 163.632 166.405 166.702 
166.143 165.874 165.63 165.446 165.269 165.047 164.854 167.528 167.782 
167.362 167.223 167.036 166.821 166.651 166.473 166.218 165.964 167.989 
166.663 167.741 166.258 167.388 165.035 165.942 167.159 164.664 163.441 
165.879 167.152 164.56 163.226 161.958 165.929 167.195 164.624 163.244 
161.818 160.486 165.956 167.198 164.671 163.293 161.866 160.51 159.326 
166.053 167.264 164.795 163.397 161.953 160.668 159.521 158.467 166.311 
167.469 165.103 163.724 162.225 160.883 159.714 158.578 157.553 169.101 
169.023 170.253 170.158 171.577 168.808 171.466 172.902 169.956 168.517 
172.79 174.039 171.264 169.739 168.388 173.933 175.057 172.572 171.056 
169.68 168.439 174.965 176.086 173.726 172.337 170.96 169.728 168.475 
175.96 177.025 174.769 173.518 172.215 170.964 169.752 168.473 176.847 
177.755 175.745 174.598 173.44 172.212 170.982 169.761 168.545 177.611 