# vtk DataFile Version 4.0
vtk output
ASCII
DATASET POLYDATA
POINTS 1002 float
-105.714 -120.871 76.424 -106.207 -122.139 76.1163 -106.15 -121.354 75.4414 
-105.612 -119.953 75.7896 -106.087 -120.426 74.8398 -105.199 -119.313 76.881 
-105.491 -118.905 75.2096 -105.93 -119.462 74.2485 -104.945 -118.366 76.2832 
-104.389 -117.814 77.4014 -105.262 -117.839 74.5859 -105.703 -118.423 73.6348 
-104.745 -117.282 75.6572 -104.027 -116.886 76.7497 -103.469 -116.418 77.7873 
-104.938 -116.713 73.9598 -105.596 -117.176 73.1675 -104.418 -116.168 74.9649 
-103.729 -115.784 76.0168 -103.063 -115.406 77.0104 -102.724 -114.816 78.007 
-104.713 -115.415 73.5001 -105.673 -115.758 72.9196 -103.883 -115.051 74.2998 
-103.169 -114.739 75.299 -102.468 -114.437 76.2365 -102.047 -113.912 77.1909 
-101.868 -113.294 78.3098 -104.598 -114.073 73.1818 -105.664 -114.44 72.6933 
-103.417 -113.862 73.7369 -102.495 -113.736 74.6306 -101.711 -113.631 75.5855 
-101.099 -113.348 76.4593 -100.884 -112.839 77.5471 -100.797 -112.37 78.8287 
-104.395 -112.949 72.8659 -105.44 -113.382 72.3842 -103.117 -112.701 73.2602 
-102.098 -112.595 73.9797 -101.327 -112.586 74.9576 -100.517 -112.569 75.8307 
-100.038 -112.353 76.7958 -100.006 -111.971 78.0771 -100.016 -111.581 79.4031 
-104.15 -112 72.5262 -105.224 -112.446 72.0977 -102.857 -111.67 72.8189 
-101.846 -111.429 73.3589 -101.258 -111.254 74.2816 -100.565 -111.183 75.2149 
-99.8524 -111.112 76.1011 -99.6444 -110.911 77.2557 -99.7259 -110.614 78.6187 
-99.7354 -110.274 79.8672 -104.047 -111.028 72.2284 -105.17 -111.48 71.9277 
-102.694 -110.659 72.3949 -101.592 -110.34 72.7683 -101.065 -110.009 73.5805 
-100.66 -109.711 74.5683 -100.052 -109.487 75.4845 -99.6877 -109.274 76.5157 
-99.7116 -109.05 77.778 -99.7527 -108.837 79.0697 -99.6962 -108.63 80.1981 
-106.89 -122.639 75.4587 -106.803 -121.855 74.7532 -107.806 -122.926 74.8192 
-107.641 -122.224 74.0722 -108.746 -123.215 74.1464 -106.696 -120.998 74.1027 
-108.602 -122.494 73.3429 -109.655 -123.495 73.3858 -107.591 -121.363 73.3753 
-106.582 -120.022 73.4568 -109.658 -122.543 72.503 -110.653 -123.467 72.5011 
-108.735 -121.416 72.6551 -107.664 -120.215 72.7478 -106.494 -118.831 72.868 
-110.739 -122.406 71.5424 -111.727 -123.136 71.5505 -109.831 -121.318 71.865 
-108.863 -120.125 72.1139 -107.622 -118.931 72.1974 -106.51 -117.457 72.4882 
-111.808 -122.206 70.6816 -112.796 -122.756 70.7439 -110.799 -121.275 70.9907 
-109.796 -120.083 71.3779 -108.652 -118.941 71.519 -107.469 -117.669 71.7335 
-106.547 -116.053 72.2269 -112.896 -121.759 70.1537 -113.841 -122.296 70.1787 
-111.895 -120.976 70.2936 -110.765 -119.941 70.5492 -109.571 -118.887 70.7369 
-108.377 -117.795 70.9267 -107.304 -116.393 71.3249 -106.398 -114.793 71.8984 
-113.924 -121.01 69.7815 -114.799 -121.662 69.6902 -113.07 -120.216 69.8731 
-112.004 -119.366 69.9063 -110.703 -118.546 69.9767 -109.417 -117.671 70.2084 
-108.214 -116.533 70.5349 -107.109 -115.128 70.9761 -106.161 -113.697 71.5783 
-114.79 -120.276 69.262 -115.609 -120.98 69.1313 -114.035 -119.428 69.4426 
-113.128 -118.651 69.4569 -111.871 -118.034 69.3803 -110.513 -117.371 69.5677 
-109.293 -116.432 69.9704 -108.093 -115.236 70.3236 -106.973 -113.93 70.7824 
-106.056 -112.645 71.4222 -115.824 -119.967 68.4996 -115.01 -119.155 68.7172 
-116.054 -119.033 67.8633 -115.071 -118.234 68.1734 -116.197 -117.934 67.518 
-114.113 -118.318 68.9267 -114.813 -117.054 67.7616 -116.008 -116.275 67.5097 
-113.744 -117.47 68.2701 -112.887 -117.685 68.8528 -114.264 -115.243 67.4743 
-115.424 -114.475 67.6795 -113.06 -116.127 67.5611 -112.192 -116.752 68.1058 
-111.448 -117.08 68.868 -113.733 -113.516 67.5301 -114.77 -113.234 68.0839 
-112.542 -114.202 67.2183 -111.614 -115.138 67.5469 -110.951 -115.819 68.4367 
-110.218 -116.172 69.3498 -113.438 -112.297 68.1218 -114.289 -112.217 68.7548 
-112.367 -112.595 67.712 -111.445 -113.29 67.8064 -110.749 -114.083 68.44 
-110.005 -114.639 69.2699 -109.072 -114.987 69.8879 -113.166 -111.056 68.9904 
-113.836 -110.923 69.5262 -112.238 -111.316 68.7045 -111.287 -111.795 68.7507 
-110.491 -112.379 69.0417 -109.703 -112.915 69.4782 -108.783 -113.354 69.9298 
-107.807 -113.702 70.3218 -112.666 -109.74 69.913 -113.272 -109.609 70.3245 
-111.865 -109.997 69.6969 -110.917 -110.367 69.6639 -109.954 -110.734 69.6968 
-109.053 -111.104 69.8154 -108.224 -111.552 70.1205 -107.445 -112.013 70.527 
-106.699 -112.389 70.9487 -112.026 -108.692 70.8606 -112.666 -108.584 71.1512 
-111.285 -108.866 70.6694 -110.44 -109.046 70.4886 -109.478 -109.144 70.2424 
-108.467 -109.271 70.0886 -107.592 -109.642 70.2915 -106.948 -110.193 70.781 
-106.394 -110.71 71.2532 -105.79 -111.132 71.6094 -104.496 -110.091 72.0014 
-105.211 -109.578 71.8628 -103.604 -108.517 71.958 -105.834 -109.039 71.5898 
-104.401 -107.888 71.9859 -102.692 -106.764 71.9958 -106.435 -108.407 71.0695 
-105.218 -107.273 71.82 -103.593 -105.978 72.0648 -102.149 -104.746 72.1843 
-107.232 -107.837 70.6063 -106.126 -106.637 71.4598 -104.681 -105.273 71.9667 
-103.135 -103.752 72.0646 -102.055 -102.659 72.3149 -108.229 -107.67 70.647 
-107.11 -106.261 71.3437 -105.812 -104.793 71.9448 -104.324 -103.053 71.9849 
-103.096 -101.676 72.0359 -102.191 -100.982 72.5253 -109.2 -107.841 71.0873 
-108.039 -106.364 71.6683 -106.813 -104.715 72.206 -105.488 -102.857 72.2806 
-104.309 -101.18 72.1109 -103.322 -100.192 72.3739 -102.43 -99.693 73.0662 
-110.054 -107.953 71.4849 -108.891 -106.627 72.1019 -107.748 -104.857 72.4983 
-106.589 -102.95 72.6686 -105.554 -101.199 72.6043 -104.597 -99.8558 72.633 
-103.604 -98.9938 73.0338 -102.702 -98.4904 73.6743 -110.861 -107.882 71.6955 
-109.737 -106.728 72.3894 -108.712 -104.973 72.7035 -107.71 -103.021 72.8361 
-106.772 -101.357 73.0073 -105.887 -99.9543 73.1515 -104.901 -98.7517 73.308 
-103.87 -97.9138 73.6487 -103 -97.5187 74.2003 -111.634 -107.754 71.862 
-110.57 -106.698 72.5739 -109.621 -105.092 72.9552 -108.746 -103.178 73.0553 
-107.864 -101.542 73.2591 -107.005 -100.235 73.5957 -106.136 -98.9738 73.8066 
-105.186 -97.8729 73.9548 -104.233 -97.2206 74.2926 -103.403 -97.0045 74.8805 
-103.062 -109.609 72.0473 -102.066 -107.961 71.9201 -101.653 -109.223 72.1849 
-101.424 -106.068 72.1362 -100.937 -107.514 72.2496 -100.844 -108.853 72.8059 
-101.25 -103.936 72.5119 -100.669 -105.474 72.6302 -100.398 -107.067 73.0649 
-100.502 -108.434 73.8242 -101.247 -101.932 72.8053 -100.524 -103.192 73.0003 
-100.104 -104.869 73.3867 -100.01 -106.584 74.1272 -100.094 -108.019 74.8934 
-101.366 -100.391 73.3005 -100.411 -101.201 73.4639 -99.8258 -102.496 73.7704 
-99.6795 -104.377 74.4916 -99.7455 -106.148 75.3527 -99.7774 -107.644 76.0072 
-101.692 -99.1115 73.9697 -100.673 -99.7812 74.2137 -99.8712 -100.628 74.4849 
-99.6016 -102.148 75.0864 -99.6938 -104.107 75.9538 -99.7881 -105.789 76.7158 
-99.7832 -107.333 77.2765 -102.057 -97.9961 74.5284 -101.159 -98.6749 74.9273 
-100.311 -99.4084 75.3424 -99.8052 -100.442 75.9124 -99.7469 -102.091 76.6819 
-99.8145 -103.951 77.4516 -99.8331 -105.554 78.0712 -99.8146 -107.139 78.5892 
-102.416 -97.2557 75.1527 -101.541 -97.7726 75.5727 -100.731 -98.4621 76.0904 
-100.081 -99.2629 76.727 -99.7885 -100.421 77.4727 -99.7459 -102.107 78.202 
-99.7331 -103.903 78.8125 -99.7329 -105.488 79.3255 -99.7294 -107.049 79.7926 
-103.249 -96.8503 76.0251 -102.176 -97.0516 76.3864 -103.146 -96.7086 77.5106 
-102.038 -96.8687 77.9838 -103.167 -96.5679 78.9777 -101.228 -97.5133 76.8827 
-102.155 -96.8867 79.575 -103.312 -96.7054 80.2373 -101.074 -97.3661 78.5673 
-100.413 -98.2269 77.5303 -102.415 -97.2912 80.961 -103.446 -97.0715 81.5699 
-101.284 -97.6303 80.2522 -100.303 -98.2193 79.2976 -99.873 -99.145 78.3233 
-102.62 -97.7422 82.3175 -103.652 -97.4292 83.0231 -101.612 -98.2027 81.6839 
-100.538 -98.6737 80.9985 -99.8509 -99.3399 80.1069 -99.6855 -100.525 79.11 
-102.94 -98.1997 83.5628 -104.062 -98.0398 84.142 -101.888 -98.6757 82.9268 
-100.825 -99.2741 82.3534 -100.058 -99.9321 81.6949 -99.7409 -100.966 80.774 
-99.6639 -102.418 79.7302 -103.372 -99.0221 84.4743 -104.436 -98.9918 84.8766 
-102.323 -99.3198 83.958 -101.202 -99.8717 83.4229 -100.318 -100.627 82.8857 
-99.9544 -101.667 82.1857 -99.7825 -102.974 81.2266 -99.6702 -104.287 80.2112 
-103.65 -99.9776 85.2727 -104.623 -99.8834 85.6338 -102.8 -100.283 84.7935 
-101.87 -100.764 84.2761 -100.853 -101.446 83.788 -100.217 -102.431 83.2744 
-99.9869 -103.636 82.5514 -99.7945 -104.813 81.6051 -99.6812 -105.912 80.6488 
-103.858 -100.728 86.1549 -104.821 -100.578 86.4884 -103.139 -101.155 85.6133 
-102.548 -101.753 84.9901 -101.725 -102.416 84.4723 -100.774 -103.252 84.0938 
-100.184 -104.31 83.6341 -99.9371 -105.383 82.8848 -99.7666 -106.398 81.9438 
-99.6789 -107.479 81.0294 -104.488 -96.872 75.4282 -104.432 -96.7151 76.7747 
-105.743 -96.8742 76.1981 -105.724 -96.5141 77.5466 -106.884 -96.8999 76.9397 
-104.376 -96.4724 78.2376 -106.925 -96.3335 78.1904 -107.89 -97.1108 77.5261 
-105.703 -96.1084 78.8437 -104.422 -96.327 79.4906 -108.16 -96.5738 78.7749 
-108.956 -97.5969 78.0545 -107.11 -95.9751 79.4938 -105.882 -96.095 80.0677 
-104.568 -96.5636 80.7522 -109.467 -97.1516 79.2888 -110.038 -98.1767 78.5535 
-108.57 -96.4216 80.1669 -107.459 -96.2672 80.8463 -106.129 -96.5612 81.4948 
-104.725 -96.9515 82.3157 -110.61 -97.7952 79.6883 -110.964 -98.8831 78.9836 
-109.867 -97.1093 80.6243 -108.788 -96.9223 81.4539 -107.568 -97.0009 82.1488 
-106.243 -97.1483 82.9822 -105.004 -97.4619 83.7387 -111.442 -98.7169 80.1059 
-111.715 -99.8464 79.3892 -110.904 -97.9007 81.0166 -109.906 -97.6777 81.8733 
-108.643 -97.7762 82.537 -107.445 -97.82 83.2813 -106.376 -97.946 84.0882 
-105.373 -98.365 84.6145 -112.024 -99.9351 80.5619 -112.371 -100.867 79.7846 
-111.639 -99.0382 81.4861 -110.964 -98.5395 82.3768 -109.82 -98.5363 83.0267 
-108.522 -98.6617 83.5787 -107.477 -98.7482 84.2412 -106.594 -98.9834 84.8579 
-105.621 -99.3932 85.2983 -112.558 -101.048 80.9439 -113.01 -101.7 80.1332 
-112.147 -100.317 81.8694 -111.726 -99.6565 82.7953 -110.984 -99.3453 83.544 
[...]
CELL_DATA 2000
SCALARS Distance double
LOOKUP_TABLE default
177.234 176.322 176.574 176.129 175.337 175.603 175.116 175.391 174.9 
174.263 174.552 174.025 174.323 173.801 174.103 173.595 173.122 173.404 
172.828 173.16 172.6 172.942 172.386 172.737 172.204 172.016 172.228 
171.567 171.886 171.282 171.664 171.074 171.453 170.876 171.276 170.766 
170.985 171.122 170.358 170.591 169.933 170.305 169.741 170.128 169.578 
169.947 169.475 169.895 169.556 169.998 170.092 169.268 169.397 168.677 
168.98 168.455 168.844 168.367 168.715 168.28 168.672 168.396 168.861 
168.699 169.075 169.125 168.279 168.329 167.545 167.765 167.218 167.604 
167.167 167.54 167.091 167.484 167.16 167.681 167.517 168.069 167.923 
168.258 168.247 167.376 167.359 166.505 166.642 166.023 166.379 165.939 
166.34 165.888 166.266 165.867 166.369 166.146 166.771 166.622 167.22 
167.032 177.733 178.195 177.595 176.845 178.673 178.058 177.298 176.685 
175.897 179.133 178.531 177.772 177.153 176.355 175.711 174.863 179.465 
178.941 178.183 177.615 176.826 176.185 175.32 174.641 173.76 179.622 
179.191 178.45 177.966 177.203 176.632 175.781 175.11 174.218 173.546 
172.696 179.731 179.332 178.646 178.195 177.454 176.947 176.122 175.528 
174.638 173.999 173.137 172.507 171.689 179.858 179.48 178.832 178.397 
177.653 177.161 176.335 175.804 174.936 174.365 173.49 172.902 172.062 
171.48 170.682 179.895 179.576 178.908 178.542 177.786 177.332 176.496 
175.992 175.158 174.633 173.798 173.226 172.375 171.799 170.999 170.463 
169.73 179.792 179.525 178.833 178.535 177.798 177.416 176.613 176.148 
175.345 174.859 174.092 173.555 172.752 172.144 171.341 170.772 170.066 
169.559 168.915 179.48 178.711 178.894 178.514 177.959 178.125 177.686 
177.892 177.475 176.93 177.242 176.707 176.985 176.484 176.768 176.288 
175.475 175.916 175.252 175.732 175.148 175.622 175.125 175.507 175.029 
174.135 174.382 173.637 174.067 173.483 174.084 173.68 174.246 173.862 
174.263 173.812 173.288 173.288 172.578 172.68 172.172 172.544 172.293 
172.826 172.6 173.069 172.681 173.022 172.5 172.567 172.589 171.942 
171.931 171.439 171.577 171.302 171.644 171.412 171.834 171.456 171.834 
171.307 171.632 171.081 171.732 171.838 171.233 171.315 170.769 170.904 
170.419 170.679 170.194 170.584 170.068 170.518 169.986 170.398 169.888 
170.247 169.801 170.969 171.044 170.501 170.584 170.032 170.135 169.512 
169.661 168.957 169.23 168.572 169.019 168.508 169.026 168.614 169.065 
168.677 169.055 168.674 167.873 167.881 167.456 166.481 167.777 167.432 
166.507 165.981 164.865 167.58 167.261 166.413 166.004 164.943 164.33 
163.213 167.589 167.107 166.315 165.94 165.026 164.438 163.284 162.671 
161.678 168.061 167.35 166.593 166.038 165.279 164.642 163.575 162.805 
161.72 161.205 160.491 168.798 168.051 167.35 166.602 165.895 165.126 
164.197 163.284 162.23 161.436 160.682 160.252 159.852 169.451 168.841 
168.22 167.476 166.735 165.901 165.019 164.083 163.138 162.198 161.437 
160.715 160.25 159.818 159.531 169.961 169.463 168.918 168.285 167.542 
166.737 165.834 164.95 164.088 163.211 162.513 161.679 161.141 160.434 
160.034 159.564 159.312 170.432 169.967 169.471 168.919 168.245 167.501 
166.643 165.782 164.97 164.16 163.548 162.778 162.273 161.471 161.018 
160.288 159.984 159.478 159.383 167.577 166.069 166.748 166.558 164.387 
165.09 164.875 165.664 165.628 162.791 163.43 163.268 164.01 164.084 
164.914 165.171 161.389 161.959 161.875 162.544 162.687 163.485 163.83 
164.686 165.098 160.27 160.694 160.591 161.2 161.294 162.112 162.441 
163.362 163.782 164.662 165.051 159.618 159.796 159.611 159.979 159.949 
160.654 160.96 161.929 162.43 163.362 163.831 164.639 165.079 159.291 
159.343 159.166 159.254 159.173 159.499 159.78 160.536 161.188 162.113 
162.781 163.566 164.127 164.83 165.396 159.076 159.087 158.991 159.018 
159.002 159.069 159.291 159.676 160.301 161.057 161.852 162.651 163.319 
164.009 164.598 165.281 165.88 159.134 158.992 158.947 158.935 158.995 
159.036 159.215 159.404 159.843 160.355 161.054 161.796 162.513 163.238 
163.845 164.515 165.087 165.769 166.322 159.337 159.74 159.321 159.072 
160.329 159.798 159.453 159.146 159.081 161.094 160.489 160.14 159.635 
159.495 159.249 159.342 162.043 161.405 161.165 160.506 160.341 159.836 
159.909 159.661 159.974 163.079 162.448 162.308 161.664 161.557 160.894 
160.92 160.44 160.754 160.536 161.104 164.198 163.53 163.394 162.804 
162.745 162.143 162.175 161.615 161.882 161.502 162.038 161.858 162.525 
165.39 164.699 164.561 163.923 163.876 163.288 163.354 162.842 163.125 
162.725 163.219 162.911 163.497 163.291 163.886 166.506 165.879 165.784 
165.156 165.162 164.52 164.62 164.042 164.339 163.933 164.431 164.115 
164.642 164.331 164.835 164.596 165.127 167.517 166.948 166.893 166.355 
166.437 165.872 166.03 165.42 165.675 165.172 165.602 165.265 165.759 
165.45 165.887 165.582 166.031 165.815 166.327 159.747 160.778 160.208 
160.216 161.901 161.307 161.256 160.735 160.788 162.951 162.366 162.256 
161.74 161.736 161.305 161.45 164.125 163.456 163.376 162.762 162.792 
162.281 162.438 162.037 162.319 165.447 164.757 164.779 164.069 164.19 
163.528 163.756 163.178 163.468 163.011 163.365 166.724 166.106 166.189 
165.552 165.708 165.056 165.274 164.636 164.898 164.309 164.619 164.133 
164.514 167.979 167.382 167.5 166.925 167.098 166.518 166.691 166.099 
166.284 165.721 165.972 165.46 165.788 165.328 165.702 169.24 168.665 
168.821 168.253 168.477 167.897 168.109 167.484 167.656 167.048 167.269 
166.757 167.066 166.609 166.937 166.49 166.805 170.4 169.904 170.075 
169.568 169.804 169.282 169.532 168.938 169.134 168.476 168.672 168.073 
168.357 167.863 168.188 167.72 168.006 167.539 167.809 170.561 170.414 
170.191 169.566 170.175 169.963 169.24 169.066 168.298 169.925 169.667 
168.881 168.667 167.816 167.62 166.711 169.807 169.452 168.654 168.341 
167.502 167.191 166.285 165.999 165.12 169.812 169.406 168.606 168.209 
167.392 166.998 166.133 165.731 164.875 164.55 163.787 169.841 169.439 
168.647 168.22 167.392 166.961 166.102 165.668 164.81 164.419 163.624 
163.317 162.573 169.922 169.502 168.743 168.291 167.482 167.011 166.171 
165.693 164.862 164.412 163.627 163.23 162.464 162.114 161.36 170.117 
169.658 168.943 168.448 167.691 167.177 166.401 165.867 165.097 164.569 
163.852 163.36 162.676 162.179 161.474 161.006 160.359 170.404 169.931 
169.262 168.733 168.024 167.476 166.773 166.212 165.504 164.923 164.234 
163.691 163.078 162.556 161.965 161.38 160.787 160.233 159.764 171.177 
172.167 171.469 171.076 173.221 172.492 172.075 171.357 170.906 174.284 
173.546 173.121 172.379 171.934 171.18 170.707 175.378 174.63 174.198 
173.426 172.984 172.234 171.804 171.031 170.604 176.438 175.741 175.331 
174.535 174.08 173.3 172.897 172.151 171.762 170.989 170.597 177.38 
176.763 176.425 175.69 175.266 174.451 174.038 173.263 172.896 172.141 
171.753 170.982 170.599 178.281 177.684 177.401 176.758 176.418 175.661 
175.264 174.456 174.079 173.294 172.92 172.135 171.749 170.983 170.646 
179.19 178.601 178.327 177.723 177.441 176.778 176.437 175.68 175.302 
174.508 174.131 173.329 172.949 172.155 171.812 171.069 170.803 180.008 
179.486 179.22 178.65 178.382 177.776 177.479 176.802 176.449 175.705 
175.323 174.543 174.157 173.366 173.007 172.248 171.961 171.259 171.046 
180.32 180.533 180.155 179.577 180.738 180.363 179.791 179.383 178.758 
180.94 180.543 179.94 179.562 178.919 178.522 177.849 181.204 180.738 
180.073 179.672 179.011 178.636 177.939 177.55 176.826 181.485 181.018 
180.328 179.85 179.175 178.737 178.032 177.61 176.851 176.457 175.698 
181.517 181.212 180.547 180.13 179.434 178.957 178.21 177.723 176.916 
176.466 175.656 175.282 174.521 181.269 181.098 180.46 180.213 179.492 
179.129 178.317 177.876 177.02 176.548 175.697 175.255 174.461 174.1 
173.377 181.032 180.84 180.233 180.023 179.301 179.016 178.181 177.845 
177.009 176.626 175.81 175.353 174.552 174.102 173.363 173 172.342 
180.899 180.677 180.092 179.839 179.137 178.809 177.991 177.649 176.864 
176.56 175.838 175.471 174.713 174.251 173.488 173.05 172.369 172.024 
171.429 180.618 179.732 180.083 179.78 178.492 179.029 178.747 179.145 
178.755 177.058 177.666 177.415 177.958 177.593 177.992 177.556 175.609 
176.219 175.988 176.575 176.286 176.762 176.386 176.782 176.432 174.141 
174.774 174.555 175.159 174.882 175.421 175.082 175.572 175.251 175.716 
175.425 172.657 173.293 173.073 173.703 173.4 173.975 173.6 174.168 
173.823 174.417 174.114 174.658 174.313 171.207 171.811 171.56 172.186 
171.885 172.47 172.112 172.668 172.336 172.923 172.642 173.239 172.934 
173.464 173.101 169.806 170.369 170.094 170.68 170.378 170.957 170.646 
171.217 170.951 171.514 171.287 171.828 171.583 172.093 171.807 172.286 
171.991 168.531 169.018 168.763 169.276 168.987 169.504 169.199 169.762 
169.52 170.137 169.947 170.533 170.314 170.822 170.562 171.038 170.787 
171.262 171.046 180.993 181.254 180.807 180.079 181.381 180.986 180.175 
179.716 178.83 181.258 180.998 180.189 179.762 178.822 178.35 177.403 
180.795 180.699 179.901 179.65 178.727 178.327 177.323 176.872 175.917 
180.123 180.1 179.276 179.173 178.277 178.082 177.086 176.728 175.664 
175.305 174.364 179.46 179.436 178.659 178.522 177.648 177.506 176.577 
176.352 175.309 174.979 173.957 173.702 172.843 178.838 178.845 178.185 
178.023 177.199 176.961 176.081 175.84 174.91 174.604 173.629 173.312 
172.408 172.195 171.405 178.212 178.251 177.654 177.582 176.812 176.592 
175.719 175.446 174.562 174.267 173.358 173.025 172.101 171.802 170.936 
170.752 169.991 177.63 177.633 177.029 177.01 176.288 176.162 175.328 
175.105 174.235 173.965 173.08 172.768 171.843 171.509 170.59 170.316 
169.497 169.354 168.682 181.542 182.513 181.982 181.879 183.464 182.916 
182.737 182.232 182.002 184.336 183.749 183.372 182.909 182.601 182.199 
181.838 185.174 184.571 184.056 183.445 182.986 182.606 182.262 181.896 
181.412 185.67 185.328 184.897 184.228 183.683 183.053 182.644 182.233 
181.828 181.372 180.779 185.502 185.531 185.267 184.975 184.521 183.898 
183.376 182.752 182.269 181.756 181.192 180.671 180.039 185.215 185.225 
185.044 185.057 184.766 184.522 184.018 183.495 182.883 182.28 181.637 
181.062 180.41 179.908 179.322 185.365 185.15 184.982 184.865 184.65 
184.538 184.146 183.871 183.295 182.83 182.173 181.583 180.915 180.318 
179.711 179.217 178.694 185.638 185.431 185.233 184.999 184.756 184.524 
184.164 183.899 183.406 183.078 182.518 182.078 181.477 180.905 180.298 
179.702 179.155 178.641 178.155 185.584 185.228 185.38 185.236 184.85 
184.985 184.888 184.987 184.741 184.564 184.619 184.418 184.552 184.298 
184.387 184.043 184.094 184.248 183.913 184.028 183.68 183.816 183.423 
183.56 183.189 183.18 183.556 183.198 183.401 182.941 183.106 182.647 
182.828 182.425 182.649 182.306 181.971 182.467 182.13 182.485 181.993 
182.246 181.726 181.962 181.525 181.808 181.462 181.737 181.348 180.709 
181.209 180.875 181.3 180.856 181.194 180.703 180.981 180.526 180.835 
180.476 180.821 180.457 180.709 180.232 179.479 179.953 179.643 180.065 
179.698 180.064 179.664 179.965 179.542 179.825 179.441 179.783 179.435 
179.763 179.345 179.561 179.081 178.307 178.754 178.48 178.895 178.58 
178.961 178.609 178.946 178.542 178.838 178.42 178.74 178.374 178.726 
178.363 178.653 178.235 178.447 178.036 177.584 176.493 177.287 177.737 
175.267 176.122 176.583 177.404 177.832 173.96 174.835 175.261 176.154 
176.591 177.448 177.843 172.602 173.499 173.892 174.779 175.171 176.089 
176.497 177.393 177.755 171.2 172.107 172.531 173.419 173.806 174.671 
175.069 175.976 176.4 177.282 177.652 169.979 170.751 171.193 172.066 
172.525 173.377 173.816 174.643 175.108 175.959 176.43 177.241 177.642 
169.105 169.69 170.077 170.809 171.279 172.123 172.621 173.461 173.951 
174.771 175.265 176.073 176.527 177.285 177.653 168.337 168.89 169.21 
169.812 170.207 170.942 171.42 172.254 172.749 173.605 174.082 174.921 
175.362 176.159 176.53 177.267 177.558 167.456 168.059 168.356 168.955 
169.29 169.94 170.349 171.093 171.555 172.377 172.852 173.701 174.144 
174.966 175.348 176.116 176.438 177.144 177.41 177.152 176.134 176.581 
176.454 175.015 175.478 175.279 175.807 175.659 173.808 174.296 174.057 
174.577 174.375 174.929 174.722 172.507 173.021 172.755 173.304 173.064 
173.616 173.363 173.917 173.652 171.206 171.683 171.357 171.915 171.622 
172.221 171.909 172.499 172.171 172.771 172.468 170.018 170.413 170.032 
170.499 170.135 170.699 170.353 170.963 170.6 171.218 170.861 171.512 
171.199 168.951 169.271 168.864 169.231 168.82 169.257 168.888 169.419 
169.093 169.664 169.325 169.905 169.57 170.214 169.939 167.965 168.225 
167.785 168.104 167.683 168.033 167.625 168.043 167.704 168.224 167.936 
168.466 168.159 168.683 168.41 169.023 168.854 167.027 167.239 166.755 
167.041 166.621 166.944 166.517 166.849 166.426 166.864 166.542 167.096 
166.838 167.371 167.128 167.643 167.49 168.088 168.059 180.461 180.552 
180.851 181.506 180.488 180.864 181.542 181.884 182.527 180.398 180.776 
181.484 181.874 182.589 182.899 183.492 180.361 180.738 181.477 181.845 
182.599 182.953 183.613 183.842 184.312 180.216 180.682 181.395 181.814 
182.527 182.944 183.641 183.957 184.443 184.57 184.854 179.857 180.418 
181.069 181.581 182.21 182.736 183.446 183.933 184.508 184.703 184.943 
184.967 185.111 179.391 179.974 180.622 181.156 181.761 182.301 183.011 
183.628 184.329 184.723 185.03 185.055 185.095 185.127 185.28 178.902 
179.482 180.15 180.707 181.349 181.868 182.554 183.156 183.878 184.434 
184.848 185.051 185.07 185.089 185.132 185.292 185.516 178.4 178.968 
179.599 180.202 180.837 181.427 182.061 182.669 183.293 183.899 184.325 
184.718 184.803 184.952 184.944 185.106 185.255 185.505 185.683 180.557 
181.633 181.074 180.992 182.666 182.151 182.08 181.48 181.33 183.618 
183.165 183.142 182.572 182.449 181.806 181.611 184.436 184.093 184.165 
183.667 183.642 182.994 182.824 182.084 181.781 184.988 184.829 185.009 
184.689 184.79 184.241 184.121 183.353 182.971 182.138 181.661 185.267 
185.256 185.472 185.384 185.532 185.258 185.186 184.598 184.176 183.316 
182.702 181.878 181.371 185.488 185.489 185.656 185.648 185.695 185.666 
185.59 185.384 185.05 184.43 183.805 182.935 182.325 181.584 181.186 
185.747 185.73 185.827 185.751 185.643 185.594 185.437 185.462 185.28 
185.075 184.633 183.983 183.345 182.557 182.04 181.41 181.059 185.857 
185.911 185.94 185.873 185.692 185.538 185.313 185.26 185.152 185.147 
184.938 184.629 184.1 183.466 182.839 182.201 181.723 181.21 180.841 
179.942 180.359 179.826 179.181 180.692 180.208 179.569 179.074 178.439 
180.921 180.478 179.801 179.376 178.694 178.252 177.46 181.023 180.636 
179.874 179.482 178.697 178.335 177.503 177.071 176.1 180.924 180.644 
179.873 179.49 178.627 178.227 177.352 176.991 176.139 175.682 174.809 
180.725 180.496 179.82 179.478 178.673 178.205 177.335 176.881 176.116 
175.736 175.073 174.605 173.931 180.604 180.356 179.75 179.443 178.747 
178.32 177.542 177.024 176.287 175.832 175.239 174.86 174.281 173.82 
173.156 180.51 180.279 179.67 179.388 178.727 178.393 177.707 177.282 
176.586 176.109 175.467 175.051 174.459 174.067 173.412 172.961 172.267 
180.329 180.148 179.532 179.284 178.622 178.346 177.701 177.395 176.749 
176.365 175.69 175.27 174.611 174.215 173.563 173.151 172.485 172.051 
171.441 181.46 181.632 181.839 182.452 181.91 182.082 182.779 182.943 
183.553 182.179 182.401 183.103 183.31 184.006 184.085 184.584 182.159 
182.548 183.194 183.527 184.172 184.444 185.015 185.075 185.43 181.853 
182.341 182.931 183.395 183.956 184.4 184.959 185.301 185.696 185.764 
185.851 181.515 181.962 182.517 182.998 183.552 184.046 184.613 185.083 
185.526 185.797 185.891 185.876 185.668 181.258 181.638 182.184 182.616 
183.227 183.681 184.286 184.725 185.183 185.515 185.68 185.785 185.674 
185.571 185.396 181.045 181.396 181.945 182.353 183.024 183.467 184.122 
184.488 184.908 185.165 185.332 185.515 185.553 185.609 185.618 185.508 
185.542 180.832 181.179 181.702 182.118 182.777 183.276 183.972 184.377 
184.813 184.979 185.11 185.205 185.301 185.466 185.632 185.73 185.856 
185.779 185.808 
POINT_DATA 1002
SCALARS Distance double
LOOKUP_TABLE default
176.837 177.862 177.006 175.881 176.082 175.672 174.85 175.083 174.622 
174.409 173.726 173.984 173.501 173.283 173.097 172.505 172.88 172.257 
172.044 171.833 171.685 171.301 171.87 170.898 170.694 170.486 170.313 
170.304 170.199 170.889 169.578 169.326 169.207 169.044 169.07 169.297 
169.192 169.917 168.416 168.04 168.001 167.896 167.904 168.218 168.583 
168.267 169.042 167.382 166.841 166.775 166.727 166.654 166.925 167.41 
167.779 167.434 168.299 166.429 165.707 165.524 165.521 165.42 165.533 
165.985 166.476 166.844 178.332 177.448 178.808 177.919 179.293 176.527 
178.384 179.723 177.014 175.525 178.718 179.955 177.449 176.019 174.418 
178.902 180.011 177.733 176.431 174.897 173.342 179.087 180.099 177.952 
176.679 175.259 173.761 172.313 179.256 180.221 178.156 176.854 175.476 
174.077 172.634 171.242 179.254 180.21 178.218 176.989 175.65 174.35 
172.97 171.524 170.233 179.112 180.055 178.135 177.046 175.807 174.581 
173.348 171.942 170.562 169.405 179.276 178.297 178.563 177.517 177.799 
177.247 176.413 176.582 176.194 176.014 174.756 175.091 174.592 174.66 
174.702 173.303 174.013 172.857 173.003 173.378 173.509 172.55 173.304 
171.884 171.778 172.102 172.325 172.214 171.916 172.484 171.363 171.075 
171.058 171.081 170.968 170.743 171.117 171.599 170.671 170.279 169.908 
169.619 169.509 169.486 169.44 170.421 170.891 169.969 169.46 168.8 
168.168 167.933 168.087 168.273 168.322 166.999 167.051 165.396 166.975 
165.498 163.705 166.725 165.543 163.792 162.147 166.669 165.556 163.985 
162.079 160.814 167.218 165.895 164.39 162.357 160.728 159.936 168.138 
166.697 165.097 163.109 161.228 160.096 159.528 168.929 167.598 165.915 
164.048 162.261 160.825 159.834 159.237 169.496 168.332 166.701 164.891 
163.328 161.954 160.648 159.625 159.077 169.989 168.933 167.474 165.759 
164.265 163.053 161.813 160.594 159.735 159.341 165.814 164.062 164.752 
162.527 163.218 164.285 161.211 161.893 162.956 164.253 160.065 160.502 
161.493 162.881 164.215 159.395 159.378 159.975 161.418 162.996 164.288 
159.112 158.997 159.151 160.223 161.93 163.422 164.677 158.917 158.95 
159.065 159.663 161.026 162.608 163.935 165.187 158.986 158.942 159.098 
159.488 160.382 161.76 163.177 164.43 165.65 159.687 159.293 160.244 
159.863 160.884 159.209 160.725 161.676 159.839 159.444 161.816 162.639 
160.959 160.232 160.056 162.892 163.709 162.221 161.497 161.036 161.176 
163.993 164.893 163.301 162.717 162.316 162.3 162.644 165.214 166.064 
164.479 163.85 163.498 163.565 163.797 164.057 166.363 167.095 165.777 
165.233 164.78 164.741 164.99 165.145 165.307 167.39 168.067 166.927 
166.61 166.25 165.998 166.069 166.221 166.298 166.491 160.218 160.723 
161.396 161.807 162.504 161.242 162.789 163.564 162.176 161.794 164.017 
164.799 163.326 162.879 162.646 165.458 166.086 164.866 164.382 164.012 
163.751 166.776 167.313 166.336 165.924 165.519 165.167 164.943 168.06 
168.565 167.665 167.296 166.857 166.479 166.273 166.149 169.372 169.784 
169.035 168.732 168.303 167.81 167.521 167.407 167.258 170.558 170.859 
170.298 170.083 169.782 169.319 168.89 168.663 168.497 168.266 170.806 
169.781 170.657 169.455 170.417 168.489 169.132 170.229 168.06 166.902 
168.999 170.198 167.834 166.615 165.34 169.026 170.214 167.798 166.547 
165.241 164.047 169.081 170.231 167.84 166.543 165.22 163.972 162.854 
169.196 170.342 167.956 166.654 165.32 164.048 162.865 161.677 169.44 
170.57 168.196 166.922 165.63 164.343 163.169 161.997 160.75 171.837 
171.769 172.899 172.813 173.955 171.648 173.874 175.025 172.68 171.479 
174.995 176.116 173.728 172.549 171.39 176.115 177.087 174.886 173.629 
172.518 171.382 177.092 177.965 176.072 174.843 173.648 172.527 171.354 
178.001 178.882 177.114 176.072 174.883 173.71 172.528 171.368 178.926 
179.766 178.061 177.152 176.091 174.936 173.753 172.571 171.499 179.77 