# vtk DataFile Version 4.0
vtk output
ASCII
DATASET POLYDATA
POINTS 1002 float
-103.994 -124.551 74.1842 -104.866 -125.32 73.7735 -104.432 -124.93 72.8422 
-103.506 -124.152 73.2983 -103.973 -124.454 71.8843 -103.076 -123.74 74.4726 
-103.063 -123.565 72.3388 -103.539 -123.74 71.1082 -102.591 -123.277 73.5934 
-102.285 -122.684 74.8102 -102.707 -122.607 71.51 -103.309 -122.656 70.495 
-102.204 -122.448 72.6322 -101.818 -121.992 73.9529 -101.597 -121.263 75.3301 
-102.461 -121.379 70.8235 -103.25 -121.365 69.9638 -101.834 -121.286 71.8037 
-101.383 -120.947 73.0733 -101.085 -120.384 74.5341 -100.884 -119.79 75.8826 
-102.135 -120.157 70.1901 -103.086 -120.025 69.5593 -101.396 -120.121 71.0633 
-100.863 -119.808 72.3055 -100.47 -119.356 73.7439 -100.252 -118.879 75.1266 
-100.13 -118.434 76.3654 -101.68 -118.903 69.6598 -102.743 -118.698 69.2012 
-100.865 -118.976 70.3848 -100.314 -118.721 71.5683 -99.7846 -118.369 72.9643 
-99.3944 -118.029 74.3113 -99.2996 -117.582 75.629 -99.3185 -117.125 76.8679 
-101.318 -117.656 69.2362 -102.342 -117.602 68.7324 -100.46 -117.668 69.9437 
-99.856 -117.465 71.0011 -99.2564 -117.275 72.2308 -98.614 -117.237 73.4345 
-98.3069 -116.999 74.7666 -98.3736 -116.486 76.1771 -98.5436 -116.006 77.3789 
-101.045 -116.632 68.8013 -101.919 -116.784 68.2256 -100.265 -116.417 69.6209 
-99.5859 -116.1 70.6488 -98.9291 -115.933 71.6955 -98.2143 -116.123 72.6612 
-97.6851 -116.271 73.8419 -97.583 -115.993 75.3475 -97.7595 -115.499 76.7663 
-98.0073 -115.071 77.8372 -100.708 -115.737 68.3534 -101.491 -115.978 67.8468 
-100.06 -115.373 69.1791 -99.4251 -114.916 70.2065 -98.7486 -114.612 71.1906 
-98.0776 -114.701 72.0329 -97.5506 -114.955 73.0211 -97.3281 -114.952 74.4284 
-97.3741 -114.685 75.9882 -97.5281 -114.364 77.2872 -97.7291 -114.062 78.2643 
-105.41 -125.848 72.5907 -104.992 -125.455 71.4977 -106.038 -126.295 71.2383 
-105.677 -125.863 70.248 -106.971 -126.414 70.136 -104.541 -124.891 70.6403 
-106.74 -125.808 69.4196 -108.236 -126.153 69.2857 -105.361 -125.099 69.643 
-104.174 -123.997 70.0431 -108.015 -125.417 68.5977 -109.482 -125.82 68.3399 
-106.536 -124.847 68.8626 -105.085 -124.028 69.0628 -104.065 -122.773 69.4795 
-109.12 -125.017 67.5233 -110.619 -125.4 67.4718 -107.701 -124.436 67.8341 
-106.152 -123.802 68.078 -104.928 -122.811 68.4264 -104.125 -121.361 69.0828 
-110.229 -124.36 66.7928 -111.848 -124.625 66.997 -108.719 -123.957 66.8148 
-107.143 -123.479 67.0396 -105.757 -122.713 67.4398 -104.942 -121.368 68.1927 
-104.073 -119.833 68.9285 -111.473 -123.41 66.4906 -112.976 -123.76 66.5864 
-109.887 -123.14 66.3279 -108.196 -122.929 66.2412 -106.601 -122.423 66.4791 
-105.631 -121.289 67.2312 -104.938 -119.769 68.1436 -103.773 -118.467 68.6297 
-112.488 -122.648 66.0296 -113.733 -123.154 65.9117 -111.059 -122.25 66.0146 
-109.384 -122.131 65.7325 -107.6 -121.923 65.5509 -106.324 -121.1 66.0379 
-105.631 -119.773 67.0443 -104.707 -118.472 67.8283 -103.299 -117.506 68.1138 
-113.127 -122.163 65.3417 -114.235 -122.688 65.1638 -111.888 -121.619 65.4894 
-110.413 -121.385 65.2616 -108.663 -121.328 64.8126 -107.122 -120.844 64.8723 
-106.246 -119.775 65.7485 -105.518 -118.56 66.8223 -104.299 -117.538 67.4663 
-102.796 -116.72 67.7028 -114.014 -121.812 64.689 -112.763 -121.2 64.9023 
-113.695 -120.621 64.5659 -112.277 -120.058 64.5169 -113.235 -119.273 64.4346 
-111.408 -120.754 64.8223 -111.688 -118.886 63.8809 -112.611 -118.001 63.8691 
-110.79 -119.83 64.0333 -109.796 -120.663 64.3409 -111 -117.624 63.1722 
-111.885 -116.747 63.4091 -110.13 -118.644 63.328 -109.142 -119.673 63.6614 
-108.075 -120.428 64.0854 -110.357 -116.153 63.1974 -111.253 -115.463 63.8361 
-109.503 -117.001 63.1029 -108.611 -118.027 63.5322 -107.675 -118.997 64.0397 
-106.871 -119.565 64.7065 -109.936 -114.822 64.1527 -110.775 -114.342 64.8758 
-109.058 -115.375 63.6639 -108.195 -116.081 63.8004 -107.39 -117.017 64.4046 
-106.722 -117.883 65.1133 -106.124 -118.374 65.9127 -109.503 -113.856 65.466 
-110.178 -113.433 65.9901 -108.71 -114.294 64.9099 -107.812 -114.7 64.6079 
-106.949 -115.25 64.8673 -106.309 -116.016 65.5811 -105.739 -116.762 66.3276 
-105.029 -117.275 66.9177 -108.754 -112.949 66.7342 -109.308 -112.582 67.1004 
-108.115 -113.369 66.3422 -107.288 -113.725 65.9828 -106.303 -114.029 65.8443 
-105.496 -114.429 66.134 -104.924 -115.011 66.7057 -104.245 -115.708 67.1448 
-103.447 -116.322 67.3946 -107.849 -111.864 67.783 -108.389 -111.668 68.1141 
-107.295 -112.126 67.4392 -106.606 -112.414 67.1853 -105.642 -112.694 67.0384 
-104.629 -112.978 66.9754 -103.907 -113.341 67.0773 -103.295 -113.916 67.2802 
-102.558 -114.697 67.4091 -101.895 -115.446 67.5409 -100.568 -114.756 67.8077 
-100.923 -113.918 67.463 -99.8221 -113.116 67.8666 -101.577 -112.948 67.286 
-100.216 -112.08 67.3776 -99.5304 -111.265 68.2315 -102.286 -112.131 67.2433 
-100.842 -111.046 67.0293 -99.949 -110.173 67.5668 -99.6209 -109.417 68.988 
-103.014 -111.558 67.3924 -101.537 -110.148 67.0436 -100.419 -109.061 67.026 
-99.8622 -108.226 68.1523 -99.4828 -107.539 69.6377 -104.058 -111.108 67.5901 
-102.534 -109.375 67.3728 -101.126 -107.987 67.0357 -100.158 -106.974 67.5553 
-99.6276 -106.226 68.8057 -98.9828 -105.665 69.8832 -105.226 -110.768 67.6342 
-103.898 -108.819 67.5239 -102.446 -107.188 67.3252 -101.026 -105.991 67.6047 
-100.144 -105.077 68.4124 -99.5249 -104.451 69.4118 -98.7466 -104.07 70.2404 
-106.078 -110.597 67.7695 -105.051 -108.626 67.5815 -103.964 -106.859 67.4686 
-102.541 -105.566 67.8833 -101.276 -104.506 68.5175 -100.504 -103.606 69.2374 
-99.7769 -103.026 70.1069 -98.9838 -102.802 70.9578 -106.682 -110.556 68.1898 
-105.769 -108.748 68.0375 -105 -106.938 67.8207 -103.96 -105.545 68.1778 
-102.693 -104.427 68.7913 -101.692 -103.321 69.263 -100.921 -102.341 69.905 
-100.089 -101.78 70.8012 -99.3526 -101.708 71.6965 -107.276 -110.567 68.6587 
-106.377 -108.99 68.7246 -105.668 -107.239 68.5314 -104.88 -105.73 68.6839 
-103.867 -104.514 69.177 -102.853 -103.351 69.5313 -101.998 -102.173 69.8763 
-101.149 -101.223 70.5544 -100.296 -100.771 71.4409 -99.6677 -100.832 72.3155 
-99.8858 -114.386 68.452 -99.3139 -112.643 68.7496 -99.3487 -113.879 69.4341 
-99.2607 -110.762 69.4752 -98.9271 -112.161 69.8354 -98.7567 -113.426 70.4696 
-99.308 -108.882 70.3298 -98.8988 -110.368 70.5686 -98.3962 -111.863 70.7934 
-98.1047 -113.268 71.3743 -98.7716 -106.917 70.5735 -98.6169 -108.437 71.117 
-98.235 -110.121 71.3925 -97.8038 -111.698 71.7597 -97.5943 -113.306 72.3607 
-98.1053 -105.05 70.5472 -97.9068 -106.347 71.1172 -97.8398 -108.109 71.8337 
-97.6432 -109.868 72.4506 -97.4892 -111.447 73.0454 -97.3884 -113.245 73.7286 
-98.083 -103.634 71.1038 -97.5798 -104.542 71.4166 -97.485 -105.991 72.188 
-97.4797 -107.926 73.1064 -97.4958 -109.601 73.8485 -97.5161 -111.201 74.5797 
-97.4116 -113.095 75.3499 -98.5511 -102.594 72.0341 -97.9101 -103.379 72.3828 
-97.5487 -104.291 73.0354 -97.4319 -105.93 73.9094 -97.4857 -107.879 74.6407 
-97.6019 -109.495 75.3251 -97.5805 -111.174 76.1397 -97.4624 -112.995 76.8543 
-99.0675 -101.704 72.8136 -98.5042 -102.619 73.374 -97.9308 -103.316 74.0947 
-97.4975 -104.312 74.9216 -97.4077 -106.05 75.5869 -97.5405 -107.937 76.1404 
-97.58 -109.583 76.8641 -97.4911 -111.278 77.6161 -97.4967 -112.896 78.0801 
-99.6697 -100.681 73.3392 -99.2329 -101.657 73.9732 -99.8559 -100.769 74.6773 
-99.4788 -101.787 75.3661 -100.118 -101.026 76.241 -98.6567 -102.612 74.7764 
-99.7021 -102.079 76.87 -100.398 -101.429 77.7447 -98.7593 -102.776 76.2078 
-97.8816 -103.328 75.6989 -99.9123 -102.518 78.3912 -100.757 -101.984 79.0906 
-98.9554 -103.159 77.6286 -97.9218 -103.62 77.1046 -97.4057 -104.464 76.5057 
-100.209 -103.079 79.8666 -101.218 -102.672 80.3683 -99.3018 -103.694 79.1234 
-98.3566 -104.234 78.4445 -97.6183 -104.952 77.9151 -97.4336 -106.327 77.1268 
-100.672 -103.784 81.1303 -101.68 -103.44 81.575 -99.7436 -104.301 80.5067 
-98.9712 -104.959 79.7753 -98.1673 -105.733 79.2526 -97.5833 -106.853 78.7239 
-97.4759 -108.261 77.8376 -101.184 -104.563 82.2205 -102.05 -104.164 82.6951 
-100.256 -105.018 81.6777 -99.5221 -105.642 80.984 -98.7872 -106.504 80.3792 
-97.9149 -107.534 80.0479 -97.3871 -108.725 79.5312 -97.3709 -110.014 78.5984 
-101.612 -105.256 83.2709 -102.396 -104.807 83.6759 -100.719 -105.771 82.8351 
-99.9691 -106.349 82.2474 -99.3839 -107.149 81.479 -98.5872 -108.154 80.9254 
-97.7584 -109.224 80.6201 -97.4015 -110.411 80.0116 -97.432 -111.692 79.0395 
-102.05 -105.911 84.1464 -102.839 -105.505 84.4022 -101.146 -106.474 83.8809 
-100.327 -107.083 83.51 -99.84 -107.792 82.7781 -99.3926 -108.708 81.8564 
-98.692 -109.722 81.2511 -98.0726 -110.775 80.8102 -97.8111 -111.937 80.0694 
-97.7534 -113.091 79.1256 -100.335 -100.182 72.4801 -100.348 -100.145 73.7465 
-101.348 -100.156 72.9558 -101.504 -100.186 74.4482 -102.74 -100.492 73.6709 
-100.53 -100.316 75.3688 -103.105 -100.237 75.1692 -104.045 -100.719 74.3316 
-101.773 -100.198 76.1749 -100.823 -100.601 77.0494 -104.525 -100.144 75.7541 
-104.98 -101.106 74.9261 -103.505 -99.8866 76.8063 -102.161 -100.358 77.7477 
-101.274 -101.092 78.4125 -105.522 -100.708 76.3171 -105.944 -101.873 75.492 
-104.983 -99.8699 77.308 -103.891 -100.136 78.2787 -102.685 -100.99 78.9538 
-101.851 -101.799 79.5935 -106.515 -101.786 76.7551 -107.1 -102.57 75.8563 
-106.028 -100.836 77.7164 -105.302 -100.545 78.7116 -104.201 -101.123 79.5154 
-103.142 -101.851 80.1594 -102.329 -102.564 80.8939 -107.534 -102.655 77.0106 
-108.062 -103.224 76.0926 -107.016 -102.019 77.9921 -106.436 -101.561 79.0108 
-105.553 -101.666 80.0191 -104.449 -102.077 80.8698 -103.422 -102.576 81.6036 
-102.632 -103.292 82.2449 -108.322 -103.529 77.2748 -108.707 -104.185 76.4114 
-107.91 -102.95 78.2737 -107.474 -102.5 79.3099 -106.851 -102.361 80.4069 
-105.928 -102.468 81.4835 -104.794 -102.721 82.3491 -103.712 -103.239 82.978 
-102.925 -103.988 83.4055 -108.969 -104.596 77.5889 -109.275 -105.257 76.782 
-108.638 -103.968 78.5792 -108.295 -103.433 79.6473 -107.876 -103.121 80.7512 
[...]
CELL_DATA 2000
SCALARS Distance double
LOOKUP_TABLE default
177.693 176.749 177.091 176.775 175.708 176.095 175.786 176.124 175.757 
174.565 174.978 174.624 175.044 174.66 175.035 174.62 173.373 173.764 
173.334 173.78 173.351 173.811 173.383 173.817 173.404 172.158 172.519 
172.014 172.438 171.964 172.432 171.991 172.482 172.078 172.566 172.2 
170.885 171.235 170.665 171.083 170.582 171.04 170.585 171.069 170.659 
171.177 170.816 171.351 171.026 169.649 169.942 169.352 169.725 169.217 
169.657 169.206 169.677 169.269 169.767 169.426 169.957 169.681 170.215 
169.972 168.563 168.78 168.214 168.493 167.986 168.338 167.882 168.311 
167.917 168.404 168.1 168.624 168.42 168.946 168.796 169.288 169.147 
167.566 167.756 167.19 167.431 166.909 167.186 166.692 167.037 166.616 
167.068 166.765 167.31 167.128 167.713 167.609 168.165 168.077 168.566 
168.465 178.054 178.221 177.802 177.1 178.401 177.966 177.263 176.816 
176.078 178.639 178.188 177.497 177.007 176.247 175.764 174.98 178.831 
178.416 177.717 177.249 176.457 175.944 175.122 174.64 173.833 178.903 
178.521 177.775 177.386 176.568 176.108 175.255 174.782 173.972 173.505 
172.683 178.925 178.523 177.718 177.352 176.533 176.138 175.295 174.873 
174.078 173.651 172.855 172.354 171.478 178.925 178.52 177.69 177.291 
176.474 176.082 175.253 174.861 174.07 173.711 172.954 172.526 171.679 
171.132 170.245 178.828 178.486 177.67 177.279 176.459 176.053 175.205 
174.797 173.966 173.632 172.893 172.575 171.816 171.348 170.493 169.937 
169.123 178.615 178.343 177.554 177.223 176.406 176.032 175.175 174.754 
173.884 173.505 172.756 172.479 171.829 171.484 170.755 170.232 169.427 
168.874 168.124 178.221 177.216 177.539 177.144 176.036 176.429 176.006 
176.398 175.991 174.662 175.134 174.692 175.172 174.766 175.193 174.751 
173.163 173.66 173.212 173.772 173.388 173.903 173.479 173.901 173.455 
171.834 172.184 171.696 172.227 171.857 172.457 172.111 172.618 172.251 
172.666 172.346 170.971 171.077 170.567 170.835 170.435 170.924 170.644 
171.229 171 171.514 171.286 171.703 171.463 170.419 170.443 169.995 
170.013 169.591 169.745 169.423 169.832 169.648 170.23 170.074 170.616 
170.36 170.79 170.427 169.805 169.917 169.508 169.563 169.13 169.141 
168.693 168.822 168.471 168.887 168.65 169.254 168.962 169.526 169.096 
169.568 169.09 169.02 169.197 168.714 168.913 168.399 168.562 167.982 
168.103 167.51 167.75 167.259 167.743 167.324 167.938 167.475 168.069 
167.584 168.134 167.72 166.835 166.532 166.198 165.291 166.323 165.865 
164.79 164.552 163.773 166.203 165.664 164.48 164.064 163.143 163.091 
162.593 166.267 165.629 164.419 163.808 162.706 162.457 161.779 161.968 
161.577 166.62 165.867 164.682 163.871 162.636 162.081 161.161 161.108 
160.565 160.845 160.347 167.11 166.341 165.182 164.276 163.037 162.207 
161.179 160.687 160.035 159.966 159.546 159.646 159.201 167.545 166.835 
165.726 164.842 163.696 162.797 161.85 161.062 160.398 159.864 159.469 
159.219 158.943 158.824 158.582 167.941 167.286 166.302 165.452 164.432 
163.56 162.741 161.931 161.32 160.576 160.109 159.535 159.194 158.852 
158.602 158.451 158.317 168.354 167.758 166.945 166.144 165.254 164.391 
163.638 162.86 162.286 161.556 161.042 160.338 159.865 159.295 158.922 
158.571 158.334 158.23 158.168 166.773 165.325 166.168 166.395 163.907 
164.719 165.015 165.847 166.119 162.852 163.484 163.79 164.509 164.817 
165.596 165.891 161.919 162.569 162.861 163.45 163.712 164.361 164.668 
165.42 165.8 160.578 161.419 161.656 162.447 162.661 163.337 163.59 
164.272 164.667 165.443 165.957 159.205 159.882 159.993 160.926 161.185 
162.128 162.447 163.232 163.624 164.376 164.933 165.737 166.363 158.511 
158.757 158.795 159.353 159.676 160.574 161.132 162.061 162.623 163.401 
163.991 164.769 165.468 166.257 166.917 158.355 158.418 158.535 158.665 
158.988 159.441 160.089 160.881 161.666 162.479 163.185 163.919 164.632 
165.403 166.139 166.865 167.467 158.316 158.417 158.69 158.745 159.087 
159.2 159.706 160.142 160.887 161.618 162.421 163.176 163.911 164.634 
165.359 166.094 166.76 167.407 167.915 158.414 159.004 158.751 158.926 
159.914 159.51 159.667 159.336 159.442 160.99 160.5 160.584 160.155 
160.208 159.825 159.977 162.152 161.601 161.65 161.123 161.124 160.638 
160.772 160.493 160.966 163.416 162.798 162.865 162.268 162.324 161.708 
161.866 161.417 161.904 161.733 162.457 164.756 164.104 164.167 163.546 
163.678 163.053 163.279 162.71 163.162 162.806 163.482 163.303 164.003 
166.059 165.445 165.503 164.878 165.014 164.435 164.69 164.16 164.546 
164.117 164.654 164.374 165.003 164.809 165.442 167.237 166.701 166.791 
166.207 166.344 165.775 166.02 165.515 165.857 165.418 165.842 165.507 
166.027 165.803 166.386 166.219 166.802 168.325 167.839 167.969 167.457 
167.623 167.094 167.337 166.832 167.158 166.688 167.069 166.661 167.112 
166.813 167.331 167.128 167.65 167.491 167.957 158.306 158.706 158.523 
158.883 159.818 159.254 159.487 159.3 159.824 161.176 160.545 160.667 
160.173 160.524 160.362 160.941 162.344 161.803 161.9 161.394 161.625 
161.248 161.684 161.539 162.139 163.578 162.961 163.078 162.557 162.817 
162.39 162.784 162.455 162.983 162.812 163.442 164.974 164.326 164.475 
163.845 164.139 163.632 164.071 163.65 164.145 163.807 164.37 164.177 
164.803 166.232 165.707 165.904 165.321 165.61 165.059 165.491 165.01 
165.487 165.043 165.515 165.18 165.71 165.526 166.094 167.38 166.906 
167.151 166.674 166.987 166.506 166.92 166.456 166.927 166.439 166.871 
166.391 166.819 166.473 166.957 166.762 167.262 168.568 168.083 168.355 
167.897 168.238 167.805 168.221 167.817 168.292 167.865 168.313 167.806 
168.192 167.685 168.082 167.7 168.144 167.902 168.362 168.378 168.046 
167.84 167.002 167.671 167.454 166.576 166.331 165.383 167.342 167.063 
166.186 165.916 165.003 164.716 163.833 167.248 166.84 165.998 165.622 
164.763 164.414 163.569 163.275 162.507 167.385 166.894 166.095 165.607 
164.778 164.31 163.463 163.071 162.264 161.993 161.258 167.591 167.091 
166.305 165.799 164.981 164.448 163.588 163.071 162.217 161.801 161.005 
160.732 160.043 167.824 167.311 166.538 166.032 165.253 164.708 163.889 
163.302 162.487 161.919 161.131 160.632 159.9 159.584 159.032 168.126 
167.587 166.866 166.33 165.638 165.068 164.334 163.7 162.97 162.344 
161.665 161.018 160.311 159.692 159.067 158.723 158.375 168.516 167.962 
167.311 166.754 166.149 165.569 164.92 164.255 163.563 162.911 162.31 
161.689 161.096 160.364 159.717 159.04 158.594 158.273 158.169 169.072 
170.013 169.31 168.822 171.058 170.321 169.879 169.084 168.525 172.162 
171.417 171.01 170.209 169.697 168.808 168.233 173.251 172.514 172.119 
171.359 170.904 170.043 169.505 168.584 168.102 174.365 173.606 173.203 
172.453 172.046 171.256 170.784 169.894 169.418 168.546 168.184 175.485 
174.743 174.351 173.57 173.195 172.42 172.026 171.179 170.741 169.87 
169.498 168.684 168.385 176.507 175.844 175.487 174.736 174.376 173.616 
173.276 172.46 172.062 171.19 170.811 169.991 169.693 168.901 168.621 
177.428 176.834 176.521 175.836 175.482 174.774 174.448 173.71 173.346 
172.514 172.105 171.274 170.944 170.183 169.917 169.146 168.889 178.276 
177.741 177.473 176.847 176.515 175.835 175.501 174.822 174.492 173.754 
173.365 172.548 172.167 171.394 171.111 170.396 170.164 169.428 169.219 
178.633 178.899 178.487 177.862 179.146 178.747 178.126 177.653 176.933 
179.388 178.988 178.359 177.895 177.142 176.651 175.9 179.624 179.213 
178.539 178.085 177.303 176.824 176.033 175.599 174.871 179.863 179.438 
178.736 178.249 177.447 176.956 176.162 175.719 174.958 174.544 173.776 
180.101 179.677 178.996 178.48 177.679 177.134 176.34 175.859 175.094 
174.636 173.83 173.385 172.592 180.278 179.887 179.209 178.742 177.951 
177.404 176.578 176.059 175.262 174.777 173.953 173.464 172.648 172.222 
171.515 180.326 179.99 179.284 178.893 178.114 177.639 176.799 176.285 
175.444 174.94 174.106 173.604 172.795 172.329 171.61 171.223 170.587 
180.236 179.963 179.266 178.922 178.177 177.76 176.972 176.486 175.671 
175.143 174.328 173.795 173.018 172.52 171.814 171.371 170.718 170.323 
169.691 179.934 179.185 179.378 178.983 178.368 178.591 178.16 178.358 
177.896 177.385 177.69 177.244 177.491 177.011 177.218 176.711 176.19 
176.588 176.13 176.48 176.007 176.291 175.771 175.984 175.429 174.834 
175.294 174.791 175.229 174.727 175.154 174.64 174.972 174.395 174.639 
174.066 173.358 173.867 173.346 173.81 173.272 173.751 173.24 173.702 
173.165 173.526 172.96 173.256 172.741 171.791 172.331 171.841 172.347 
171.853 172.313 171.829 172.277 171.793 172.219 171.717 172.097 171.611 
171.959 171.53 170.293 170.769 170.3 170.832 170.41 170.925 170.505 
170.948 170.491 170.887 170.409 170.813 170.352 170.77 170.346 170.758 
170.39 169.071 169.394 168.928 169.357 168.955 169.476 169.11 169.624 
169.213 169.636 169.163 169.539 169.072 169.481 169.063 169.51 169.143 
169.611 169.307 180.344 180.688 180.213 179.61 181.138 180.588 179.984 
179.481 178.833 181.717 181.117 180.466 179.884 179.177 178.63 177.86 
182.003 181.61 180.893 180.349 179.512 178.923 178.027 177.512 176.639 
181.616 181.561 180.837 180.562 179.644 179.139 178.088 177.565 176.577 
176.165 175.257 180.897 180.935 180.26 180.216 179.379 179.082 178.023 
177.534 176.451 176.017 175.05 174.702 173.77 180.33 180.274 179.624 
179.57 178.838 178.69 177.788 177.417 176.38 175.903 174.896 174.477 
173.516 173.158 172.205 179.873 179.805 179.153 179.027 178.299 178.163 
177.371 177.143 176.236 175.843 174.853 174.382 173.388 172.941 171.975 
171.598 170.707 179.344 179.338 178.712 178.595 177.857 177.687 176.91 
176.729 175.907 175.642 174.718 174.322 173.325 172.862 171.885 171.445 
170.566 170.205 169.467 180.935 182.043 181.421 181.304 183.183 182.602 
182.502 181.826 181.76 184.102 183.705 183.717 183.096 183.034 182.373 
182.352 184.848 184.533 184.636 184.217 184.199 183.637 183.524 182.898 
182.656 185.67 185.284 185.305 184.971 184.917 184.565 184.361 183.881 
183.455 182.854 182.256 186.327 186.026 185.864 185.528 185.304 185.028 
184.72 184.405 183.902 183.432 182.755 182.18 181.501 186.477 186.39 
186.127 185.902 185.547 185.286 184.898 184.607 184.123 183.732 183.122 
182.615 181.98 181.441 180.892 186.379 186.35 186.116 185.98 185.643 
185.436 185.057 184.781 184.34 183.972 183.444 182.984 182.401 181.904 
181.347 180.875 180.38 186.371 186.297 186.136 185.985 185.722 185.517 
185.175 184.924 184.498 184.191 183.688 183.308 182.738 182.291 181.693 
181.247 180.687 180.293 179.791 186.355 186.137 186.249 186.105 185.632 
185.934 185.86 185.919 185.687 184.901 185.337 185.341 185.561 185.312 
185.379 185.072 184.01 184.521 184.498 184.882 184.596 184.806 184.409 
184.609 184.287 182.9 183.478 183.382 183.89 183.588 183.909 183.46 
183.751 183.393 183.73 183.438 181.72 182.263 182.15 182.69 182.453 
182.841 182.438 182.736 182.369 182.736 182.461 182.827 182.506 180.696 
181.144 181.03 181.494 181.292 181.711 181.38 181.718 181.358 181.711 
181.409 181.793 181.476 181.824 181.458 179.74 180.174 180.014 180.423 
180.158 180.563 180.222 180.62 180.271 180.67 180.355 180.741 180.413 
180.764 180.413 180.758 180.434 178.725 179.176 178.969 179.373 179.053 
179.43 179.068 179.455 179.131 179.549 179.281 179.687 179.408 179.747 
179.428 179.742 179.448 179.794 179.546 178.092 177.134 177.849 178.274 
176.105 176.831 177.22 177.948 178.323 175.008 175.77 176.168 176.892 
177.274 177.977 178.345 173.832 174.632 175.063 175.837 176.267 176.981 
177.387 178.049 178.447 172.665 173.46 173.898 174.701 175.165 175.957 
176.419 177.136 177.568 178.217 178.632 171.527 172.318 172.783 173.569 
174.044 174.837 175.33 176.12 176.597 177.328 177.754 178.409 178.778 
170.445 171.19 171.677 172.481 172.994 173.772 174.269 175.035 175.527 
176.3 176.761 177.485 177.866 178.504 178.815 169.555 170.169 170.613 
171.377 171.906 172.72 173.233 174.004 174.475 175.233 175.699 176.455 
176.885 177.572 177.928 178.533 178.853 168.846 169.356 169.728 170.371 
170.854 171.625 172.142 172.936 173.408 174.176 174.629 175.394 175.849 
176.583 176.998 177.656 178.025 178.617 178.965 178.839 177.853 178.32 
178.199 176.771 177.257 177.079 177.554 177.33 175.588 176.095 175.875 
176.372 176.116 176.599 176.348 174.334 174.839 174.581 175.109 174.822 
175.331 175.03 175.564 175.304 173.072 173.545 173.224 173.755 173.429 
173.967 173.595 174.148 173.791 174.413 174.093 171.8 172.257 171.886 
172.38 172.011 172.529 172.112 172.639 172.195 172.793 172.399 173.077 
172.706 170.544 170.972 170.582 171.038 170.635 171.114 170.683 171.163 
170.701 171.207 170.777 171.37 170.999 171.657 171.3 169.442 169.775 
169.369 169.748 169.305 169.737 169.282 169.749 169.3 169.773 169.352 
169.85 169.487 170.044 169.731 170.33 170.036 168.552 168.775 168.339 
168.6 168.113 168.439 167.956 168.367 167.931 168.397 168.005 168.487 
168.145 168.647 168.369 168.897 168.664 169.205 168.997 179.327 179.6 
179.828 180.537 179.75 180.083 180.858 181.085 181.841 179.745 180.164 
180.965 181.326 182.109 182.398 183.17 179.654 180.093 180.863 181.315 
182.084 182.517 183.309 183.674 184.366 179.518 179.959 180.711 181.176 
181.936 182.392 183.154 183.639 184.374 184.737 185.241 179.303 179.767 
180.527 181.03 181.837 182.277 182.988 183.409 184.06 184.54 185.099 
185.438 185.764 179.064 179.514 180.235 180.784 181.593 182.142 182.844 
183.249 183.753 184.142 184.613 185.089 185.521 185.857 186.101 178.885 
179.292 179.94 180.433 181.126 181.737 182.416 182.974 183.472 183.846 
184.227 184.604 185.051 185.491 185.887 186.161 186.336 178.698 179.11 
179.701 180.124 180.686 181.195 181.783 182.393 182.967 183.489 183.953 
184.317 184.754 185.109 185.551 185.889 186.172 186.347 186.417 179.37 
180.568 179.902 179.793 181.905 181.18 181.068 180.346 180.201 183.298 
182.589 182.505 181.709 181.522 180.735 180.467 184.489 183.924 183.852 
183.141 182.921 182.098 181.742 180.897 180.449 185.309 184.927 184.837 
184.326 184.121 183.428 183.028 182.165 181.625 180.754 180.192 185.824 
185.566 185.483 185.135 185.019 184.516 184.2 183.406 182.829 181.911 
181.282 180.434 179.878 186.155 185.971 185.875 185.646 185.557 185.278 
185.06 184.486 183.93 183.067 182.362 181.496 180.885 180.114 179.619 
186.345 186.223 186.059 185.895 185.677 185.57 185.285 185.055 184.498 
183.947 183.176 182.455 181.755 181.051 180.5 179.838 179.391 186.412 
186.35 186.167 185.998 185.67 185.513 185.093 184.973 184.41 184.165 
183.447 183.01 182.293 181.76 181.161 180.605 180.111 179.559 179.147 
178.687 179.099 178.524 177.735 179.488 178.94 178.154 177.524 176.612 
179.696 179.251 178.456 177.906 176.963 176.3 175.252 179.611 179.289 
178.433 178.044 177.078 176.546 175.454 174.824 173.737 179.342 179.066 
178.16 177.849 176.874 176.49 175.453 174.948 173.91 173.33 172.406 
179.079 178.786 177.927 177.577 176.667 176.276 175.367 174.928 174.057 
173.544 172.735 172.178 171.499 178.9 178.597 177.846 177.468 176.695 
176.244 175.476 174.992 174.268 173.773 173.082 172.558 171.9 171.399 
170.847 178.756 178.484 177.819 177.483 176.814 176.403 175.715 175.239 
174.552 174.065 173.395 172.908 172.237 171.754 171.123 170.717 170.177 
178.586 178.363 177.741 177.469 176.829 176.511 175.829 175.446 174.723 
174.305 173.592 173.169 172.476 172.032 171.359 170.933 170.325 169.975 
169.426 180.881 181.016 181.298 181.974 180.93 181.332 182.024 182.384 
183.035 180.699 181.136 181.777 182.262 182.909 183.321 183.867 180.469 
180.881 181.505 181.964 182.621 183.08 183.703 184.077 184.627 180.231 
180.651 181.307 181.75 182.449 182.862 183.556 183.937 184.635 184.95 
185.557 179.937 180.369 180.996 181.514 182.203 182.695 183.333 183.781 
184.433 184.904 185.557 185.894 186.308 179.659 180.051 180.605 181.117 
181.737 182.304 182.841 183.377 183.849 184.456 184.983 185.611 186.029 
186.388 186.495 179.428 179.789 180.316 180.74 181.327 181.812 182.362 
182.824 183.283 183.772 184.24 184.844 185.301 185.858 186.111 186.39 
186.401 179.171 179.554 180.081 180.483 181.069 181.489 182.115 182.503 
183.119 183.437 184.011 184.325 184.845 185.217 185.621 185.959 186.177 
186.34 186.393 
POINT_DATA 1002
SCALARS Distance double
LOOKUP_TABLE default
177.413 178.289 177.381 176.482 176.389 176.433 175.418 175.319 175.46 
175.381 174.2 174.177 174.256 174.266 174.218 172.917 173.026 172.886 
172.915 172.971 173.027 171.616 171.833 171.512 171.498 171.564 171.704 
171.871 170.258 170.564 170.124 170.113 170.149 170.267 170.481 170.73 
169.006 169.377 168.795 168.737 168.772 168.888 169.127 169.439 169.751 
167.958 168.354 167.681 167.487 167.427 167.554 167.861 168.275 168.676 
169.016 166.957 167.388 166.657 166.392 166.199 166.225 166.52 167.007 
167.548 168.009 168.371 178.495 177.534 178.637 177.729 178.84 176.53 
177.998 179.084 176.766 175.447 178.171 179.243 176.985 175.623 174.3 
178.153 179.317 177.004 175.72 174.427 173.193 178.101 179.361 176.903 
175.695 174.474 173.337 172.039 178.102 179.316 176.871 175.652 174.416 
173.324 172.206 170.795 178.042 179.129 176.868 175.64 174.328 173.158 
172.201 171.046 169.64 177.861 178.856 176.761 175.591 174.297 173.031 
172.082 171.209 170.013 168.63 177.947 176.812 176.89 175.586 175.635 
175.622 174.182 174.171 174.311 174.37 172.629 172.692 172.826 173.03 
173.041 171.233 171.581 171.227 171.52 171.787 171.928 170.423 170.913 
170.05 170.031 170.387 170.831 171.103 169.997 170.351 169.571 169.158 
169.084 169.477 169.92 170.063 169.407 169.662 169.126 168.7 168.229 
168.107 168.37 168.599 168.63 168.528 168.875 168.212 167.866 167.388 
166.92 166.757 166.849 166.981 167.144 165.976 165.476 164.426 165.14 
163.757 163.14 165.004 163.296 162.38 162.266 165.129 163.126 161.698 
161.265 161.206 165.558 163.363 161.424 160.365 160.071 159.768 166.082 
163.912 161.841 160.279 159.469 159.104 158.735 166.562 164.537 162.644 
161.071 159.851 159.091 158.64 158.378 167.088 165.26 163.501 162.082 
160.812 159.667 158.83 158.342 158.236 167.663 166.087 164.416 163 
161.779 160.539 159.392 158.547 158.116 158.155 165.575 164.161 165.312 
163.158 164.057 165.086 162.29 163.14 163.945 164.977 160.765 161.916 
162.932 163.898 165.129 159.116 160.1 161.543 162.873 164.107 165.568 
158.425 158.848 160.086 161.773 163.23 164.642 166.204 158.458 158.728 
159.395 160.793 162.44 163.891 165.37 166.849 158.562 159.055 159.483 
160.245 161.63 163.201 164.646 166.068 167.368 158.529 159.167 159.319 
160.049 160.377 159.791 161.079 161.517 160.629 160.207 162.21 162.732 
161.666 161.083 161.03 163.456 164.063 162.932 162.378 162.141 162.546 
164.795 165.413 164.254 163.851 163.613 163.735 164.169 166.128 166.639 
165.587 165.203 165.021 165.008 165.225 165.619 167.339 167.734 166.909 
166.537 166.323 166.23 166.291 166.57 166.975 168.446 168.797 168.125 
167.838 167.64 167.514 167.466 167.582 167.844 168.134 158.239 158.804 
159.079 159.882 160.498 159.78 161.261 161.773 160.864 160.934 162.38 
162.882 162.064 161.952 162.17 163.625 164.232 163.232 163.159 163.247 
163.535 165.125 165.57 164.68 164.509 164.549 164.643 164.935 166.429 
166.699 166.162 165.991 165.975 165.941 165.965 166.233 167.593 167.851 
167.435 167.366 167.405 167.404 167.27 167.226 167.415 168.808 169.046 
168.666 168.617 168.682 168.79 168.749 168.561 168.461 168.558 168.599 
167.258 168.282 166.825 167.91 165.649 166.459 167.66 165.278 164.084 
166.404 167.684 165.133 163.882 162.744 166.598 167.876 165.286 163.918 
162.591 161.459 166.804 168.097 165.516 164.143 162.706 161.356 160.202 
167.036 168.342 165.778 164.469 163.059 161.699 160.34 159.161 167.385 
168.653 166.18 164.961 163.577 162.278 161.019 159.578 158.466 169.745 
169.589 170.711 170.668 171.799 169.385 171.789 172.902 170.577 169.132 
172.856 174 171.717 170.424 168.964 173.965 175.132 172.792 171.633 
170.299 168.995 175.136 176.192 173.957 172.84 171.609 170.32 169.184 
176.209 177.124 175.12 174.057 172.936 171.646 170.471 169.426 177.175 
177.991 176.183 175.149 174.142 172.963 171.709 170.655 169.672 178.06 
178.779 177.189 176.179 175.179 174.159 172.976 171.819 170.862 169.959 