# vtk DataFile Version 4.0
vtk output
ASCII
DATASET POLYDATA
POINTS 1002 float
-105.417 -122.175 77.3654 -105.677 -123.534 77.0093 -105.774 -122.621 76.3956 
-105.455 -121.126 76.7197 -105.839 -121.58 75.7811 -105.046 -120.618 77.7313 
-105.311 -120.08 76.0464 -105.788 -120.475 75.0702 -104.785 -119.647 77.0059 
-104.327 -119.142 78.2066 -104.945 -119.052 75.2417 -105.55 -119.334 74.2637 
-104.303 -118.771 76.2497 -103.754 -118.391 77.4223 -103.377 -117.881 78.7841 
-104.425 -118.068 74.3227 -105.147 -118.283 73.4644 -103.737 -117.853 75.4084 
-103.126 -117.602 76.6086 -102.678 -117.231 77.9492 -102.437 -116.712 79.3099 
-103.915 -117.162 73.4609 -104.778 -117.268 72.7902 -103.233 -116.905 74.5162 
-102.61 -116.612 75.7734 -102.028 -116.402 77.0232 -101.637 -116.09 78.4041 
-101.543 -115.56 79.786 -103.597 -116.066 72.8329 -104.587 -116.053 72.3373 
-102.834 -115.898 73.6952 -102.214 -115.553 74.9221 -101.553 -115.381 76.1095 
-100.993 -115.306 77.3566 -100.759 -114.969 78.8637 -100.824 -114.42 80.3036 
-103.456 -114.709 72.416 -104.438 -114.75 72.0013 -102.583 -114.645 73.0674 
-101.871 -114.421 74.0931 -101.223 -114.266 75.2282 -100.691 -114.242 76.3948 
-100.41 -114.023 77.8321 -100.397 -113.565 79.3909 -100.49 -113.118 80.7645 
-103.285 -113.446 71.9682 -104.146 -113.623 71.5448 -102.478 -113.322 72.5925 
-101.694 -113.163 73.426 -100.991 -113.026 74.3842 -100.573 -112.908 75.5122 
-100.426 -112.62 76.9294 -100.412 -112.161 78.4404 -100.463 -111.78 79.8129 
-100.466 -111.566 81.0853 -102.989 -112.414 71.386 -103.75 -112.655 70.9682 
-102.388 -112.178 72.1084 -101.73 -111.927 72.9416 -100.969 -111.711 73.7215 
-100.499 -111.465 74.6667 -100.457 -111.056 76.0511 -100.51 -110.549 77.6022 
-100.539 -110.165 78.916 -100.573 -109.998 80.0903 -100.518 -109.955 81.3422 
-106.114 -124.167 76.1835 -106.155 -123.268 75.5224 -106.8 -124.583 75.2896 
-106.777 -123.717 74.5724 -107.814 -124.744 74.5432 -106.212 -122.229 74.8193 
-107.8 -123.883 73.8006 -109.021 -124.764 73.9463 -106.802 -122.706 73.7926 
-106.256 -121.038 74.0768 -109.044 -123.827 73.1109 -110.146 -124.686 73.1506 
-107.797 -122.856 72.9724 -106.905 -121.481 73.122 -106.187 -119.748 73.4013 
-110.161 -123.674 72.1985 -111.161 -124.462 72.1628 -108.965 -122.778 72.1986 
-107.84 -121.659 72.3319 -106.962 -120.127 72.5918 -105.975 -118.517 72.7536 
-111.198 -123.489 71.2688 -112.257 -124.162 71.3453 -110.013 -122.679 71.2953 
-108.841 -121.694 71.4929 -107.811 -120.393 71.7324 -106.839 -118.806 71.9251 
-105.75 -117.287 72.1499 -112.396 -123.173 70.6114 -113.468 -123.788 70.7105 
-111.118 -122.458 70.5367 -109.851 -121.633 70.6104 -108.681 -120.543 70.7945 
-107.58 -119.13 70.9526 -106.583 -117.511 71.2964 -105.561 -115.98 71.7623 
-113.69 -122.604 70.147 -114.633 -123.245 70.1255 -112.429 -121.905 70.0847 
-111.045 -121.264 69.9615 -109.742 -120.46 69.983 -108.449 -119.313 70.1091 
-107.29 -117.859 70.4283 -106.343 -116.234 71.0314 -105.312 -114.749 71.4778 
-114.836 -121.905 69.7739 -115.613 -122.605 69.6305 -113.73 -121.163 69.8075 
-112.328 -120.625 69.592 -110.936 -120.098 69.4217 -109.604 -119.226 69.5064 
-108.29 -118.02 69.7968 -107.181 -116.577 70.356 -106.167 -115.021 70.9257 
-104.969 -113.66 71.0803 -116.016 -121.536 69.3458 -115.133 -120.685 69.5288 
-116.273 -120.464 69.0381 -115.114 -119.688 68.994 -116.218 -119.471 68.3987 
-113.788 -120.053 69.3568 -114.658 -118.795 68.0588 -115.712 -118.318 67.7079 
-113.44 -119.218 68.5481 -112.197 -119.654 68.9979 -113.993 -117.52 67.3927 
-114.969 -116.972 67.6559 -112.811 -118.139 67.6765 -111.757 -118.616 68.3238 
-110.768 -118.959 68.9676 -113.548 -116.007 67.6162 -114.436 -115.661 68.2339 
-112.361 -116.513 67.4484 -111.277 -117.063 67.8865 -110.47 -117.49 68.6252 
-109.465 -117.824 69.2838 -113.347 -114.577 68.4086 -114.142 -114.25 68.9047 
-112.237 -114.903 68.0748 -111.031 -115.323 68.0676 -110.164 -115.789 68.4974 
-109.347 -116.204 69.2018 -108.219 -116.497 69.8416 -113.006 -113.077 69.2489 
-113.71 -112.692 69.5722 -112.083 -113.431 69.0378 -110.907 -113.785 68.8619 
-109.849 -114.192 68.8897 -109.066 -114.56 69.3406 -108.127 -114.82 69.9788 
-107.022 -114.974 70.4924 -112.389 -111.596 70.0677 -113.038 -111.345 70.3839 
-111.658 -111.868 69.8721 -110.692 -112.139 69.7051 -109.551 -112.473 69.6181 
-108.587 -112.795 69.8235 -107.719 -112.999 70.217 -106.66 -113.189 70.5047 
-105.648 -113.427 70.7331 -111.742 -110.382 70.8833 -112.374 -110.338 71.2394 
-111.112 -110.41 70.5606 -110.362 -110.417 70.2731 -109.325 -110.523 70.1061 
-108.201 -110.77 70.2142 -107.205 -111.015 70.4707 -106.142 -111.278 70.5309 
-105.018 -111.698 70.4402 -104.185 -112.204 70.5534 -102.899 -111.461 70.6618 
-103.362 -110.756 70.3024 -102.427 -110.018 70.8322 -104.368 -110.003 70.3855 
-103.065 -109.185 70.6532 -102.424 -108.306 71.5042 -105.651 -109.41 70.6002 
-104.247 -108.394 70.7856 -103.285 -107.575 71.51 -102.458 -106.433 72.0706 
-106.835 -109.001 70.5191 -105.543 -107.73 70.7906 -104.474 -106.891 71.503 
-103.43 -105.798 72.131 -102.236 -104.449 72.1472 -108.015 -108.722 70.3344 
-106.711 -107.232 70.6262 -105.613 -106.212 71.2924 -104.575 -105.095 72.0197 
-103.332 -103.703 72.1869 -102.133 -102.516 72.1997 -109.203 -108.699 70.4667 
-107.93 -107.077 70.7371 -106.729 -105.82 71.297 -105.74 -104.523 71.8919 
-104.682 -103.002 72.1477 -103.481 -101.742 72.279 -102.51 -101.043 72.764 
-110.116 -108.923 70.8802 -109.072 -107.297 71.1773 -107.93 -105.883 71.6827 
-106.917 -104.481 72.1411 -106.052 -102.798 72.2865 -105.06 -101.319 72.4428 
-103.995 -100.495 72.9483 -103.156 -100.144 73.7183 -110.796 -109.168 71.3444 
-109.943 -107.641 71.675 -109.014 -106.119 72.1007 -108.025 -104.734 72.562 
-107.171 -103.143 72.7518 -106.39 -101.508 72.8765 -105.482 -100.42 73.3121 
-104.515 -99.8578 73.9785 -103.715 -99.4895 74.684 -111.46 -109.322 71.7614 
-110.669 -107.935 72.1166 -109.889 -106.352 72.4375 -109.002 -104.925 72.8738 
-108.093 -103.539 73.2535 -107.298 -102.021 73.5126 -106.566 -100.771 73.8971 
-105.75 -99.9883 74.437 -104.869 -99.379 74.9841 -104.113 -98.8298 75.547 
-102.344 -111.153 71.3673 -102.038 -109.489 71.7487 -101.912 -110.745 72.3423 
-101.83 -107.449 72.1603 -101.496 -108.849 72.6082 -101.21 -110.34 73.1638 
-101.437 -105.306 72.2231 -100.96 -106.625 72.6727 -100.703 -108.304 73.3129 
-100.537 -109.959 73.9421 -101.148 -103.296 72.2956 -100.552 -104.43 72.8078 
-100.365 -106.036 73.6183 -100.379 -107.801 74.409 -100.423 -109.462 75.2197 
-101.38 -101.677 72.8725 -100.626 -102.554 73.3552 -100.388 -103.867 74.2249 
-100.482 -105.599 75.1564 -100.541 -107.345 76.0438 -100.536 -108.94 76.9009 
-102.038 -100.598 73.8444 -101.114 -101.224 74.21 -100.599 -102.069 74.9231 
-100.568 -103.485 75.8556 -100.612 -105.384 76.7991 -100.527 -107.121 77.6584 
-100.522 -108.601 78.3519 -102.751 -99.7961 74.8472 -101.812 -100.345 75.179 
-100.954 -100.902 75.7277 -100.51 -101.715 76.5314 -100.485 -103.34 77.4619 
-100.46 -105.382 78.3049 -100.443 -107.039 78.962 -100.545 -108.45 79.5172 
-103.307 -98.9867 75.7407 -102.538 -99.5486 76.1403 -101.624 -100.192 76.7058 
-100.745 -100.702 77.4441 -100.362 -101.64 78.3093 -100.379 -103.434 79.106 
-100.432 -105.393 79.7124 -100.509 -106.949 80.2255 -100.576 -108.4 80.7754 
-104.001 -98.107 76.5496 -103.332 -98.5047 76.9498 -104.076 -97.6672 77.7929 
-103.521 -98.416 78.3807 -104.338 -97.8955 79.1109 -102.64 -99.3593 77.5982 
-103.741 -98.7746 79.7942 -104.619 -98.537 80.4523 -102.812 -99.4601 79.1833 
-101.644 -100.133 78.408 -103.824 -99.2161 81.2526 -104.812 -99.1043 82.0162 
-102.892 -99.7033 80.6199 -101.765 -100.299 80.0899 -100.737 -100.748 79.3006 
-103.892 -99.7483 82.8687 -105.009 -99.7229 83.5706 -102.91 -100.025 82.0848 
-101.937 -100.629 81.4604 -100.97 -101.183 80.9204 -100.44 -101.963 80.1027 
-104.137 -100.596 84.2607 -105.273 -100.546 84.7626 -103.126 -100.725 83.5863 
-102.266 -101.204 82.7851 -101.377 -101.921 82.1183 -100.722 -102.676 81.5451 
-100.487 -103.862 80.7054 -104.502 -101.456 85.3625 -105.577 -101.331 85.7963 
-103.504 -101.671 84.8212 -102.759 -102.063 84.0996 -101.97 -102.783 83.2726 
-101.109 -103.575 82.6753 -100.632 -104.459 82.1379 -100.526 -105.672 81.2455 
-104.92 -102.183 86.4074 -105.927 -102.099 86.775 -103.879 -102.478 85.9034 
-103.13 -102.922 85.2786 -102.561 -103.588 84.469 -101.723 -104.397 83.7354 
-100.876 -105.17 83.3439 -100.52 -106.099 82.8223 -100.521 -107.259 81.8367 
-105.398 -103.07 87.2443 -106.309 -103.042 87.4847 -104.336 -103.302 86.8638 
-103.413 -103.722 86.358 -102.882 -104.312 85.6469 -102.365 -105.068 84.7877 
-101.509 -105.856 84.2316 -100.725 -106.697 83.984 -100.417 -107.748 83.4164 
-100.442 -108.903 82.3926 -104.951 -98.5555 76.1128 -104.901 -97.7061 77.1943 
-106.002 -98.4972 76.8563 -106.143 -97.6668 77.9674 -107.165 -98.6136 77.5275 
-105.06 -97.3594 78.4207 -107.444 -97.9969 78.547 -108.293 -98.9308 77.8909 
-106.372 -97.5402 79.0059 -105.363 -97.8536 79.6253 -108.621 -98.6825 78.8877 
-109.468 -99.4898 78.1908 -107.639 -98.1527 79.4069 -106.571 -98.1977 80.0739 
-105.657 -98.6095 81.0408 -109.895 -99.479 79.4043 -110.634 -100.238 78.7649 
-108.902 -98.9654 79.9736 -107.768 -98.7678 80.6772 -106.779 -98.8371 81.7155 
-105.92 -99.1482 82.7759 -111.095 -100.213 80.1419 -111.478 -101.169 79.428 
-110.364 -99.5828 80.9024 -109.245 -99.2967 81.7032 -108.084 -99.195 82.6463 
-107.11 -99.3281 83.5634 -106.188 -99.8273 84.2512 -111.879 -101.107 80.7108 
-112.08 -102.188 79.8972 -111.535 -100.205 81.6994 -110.796 -99.7328 82.6843 
-109.708 -99.6314 83.5735 -108.54 -99.7767 84.3057 -107.426 -100.175 84.8529 
-106.424 -100.735 85.3371 -112.522 -102.131 81.0403 -112.787 -103.041 80.2314 
-112.247 -101.225 82.0863 -111.801 -100.563 83.1471 -111.056 -100.303 84.0314 
-110.029 -100.417 84.7459 -108.813 -100.777 85.3241 -107.621 -101.203 85.8464 
-106.662 -101.617 86.3632 -113.308 -102.977 81.3261 -113.588 -103.68 80.5714 
-112.959 -102.314 82.3086 -112.494 -101.751 83.335 -111.866 -101.375 84.1911 
[...]
CELL_DATA 2000
SCALARS Distance double
LOOKUP_TABLE default
178.297 177.385 177.663 177.257 176.349 176.666 176.195 176.508 176.054 
175.147 175.522 175.01 175.367 174.878 175.252 174.839 173.84 174.225 
173.692 174.103 173.613 174.031 173.614 174.048 173.695 172.582 172.908 
172.364 172.762 172.282 172.722 172.294 172.768 172.403 172.896 172.578 
171.409 171.682 171.111 171.467 170.975 171.392 170.948 171.411 171.034 
171.552 171.261 171.794 171.554 170.272 170.514 169.897 170.221 169.686 
170.084 169.62 170.067 169.69 170.194 169.924 170.472 170.278 170.827 
170.659 169.147 169.372 168.739 169.022 168.466 168.806 168.316 168.732 
168.344 168.854 168.584 169.149 168.942 169.522 169.343 169.931 169.771 
168.022 168.244 167.644 167.914 167.4 167.669 167.17 167.476 167.041 
167.493 167.197 167.778 167.56 168.159 167.948 168.551 168.368 169 
168.855 178.721 179.04 178.544 177.841 179.374 178.842 178.121 177.616 
176.843 179.807 179.206 178.434 177.88 177.095 176.563 175.695 180.215 
179.648 178.833 178.221 177.399 176.827 175.976 175.376 174.444 180.408 
179.961 179.158 178.598 177.755 177.169 176.327 175.706 174.795 174.133 
173.204 180.526 180.099 179.344 178.85 178.036 177.501 176.661 176.073 
175.167 174.51 173.562 172.917 172.023 180.746 180.283 179.556 179.043 
178.258 177.745 176.92 176.372 175.461 174.844 173.883 173.258 172.339 
171.749 170.893 180.954 180.535 179.812 179.296 178.499 177.974 177.165 
176.625 175.744 175.129 174.187 173.558 172.663 172.069 171.215 170.628 
169.782 181.034 180.696 179.998 179.533 178.731 178.214 177.409 176.886 
176.067 175.466 174.591 173.928 173.083 172.448 171.649 171.01 170.16 
169.519 168.662 180.844 180.191 180.3 179.792 179.361 179.543 178.963 
179.103 178.507 178.183 178.521 177.891 178.151 177.526 177.742 177.162 
176.759 177.146 176.481 176.887 176.265 176.643 176.077 176.38 175.809 
175.567 175.772 175.084 175.406 174.789 175.241 174.724 175.181 174.649 
174.973 174.356 174.7 174.789 174.128 174.218 173.587 173.835 173.345 
173.78 173.355 173.765 173.234 173.5 172.89 173.785 173.961 173.356 
173.435 172.797 172.859 172.301 172.537 172.121 172.502 172.057 172.377 
171.793 172.04 171.433 172.773 172.987 172.405 172.598 171.958 172.079 
171.406 171.566 170.986 171.304 170.772 171.143 170.494 170.824 170.103 
170.466 169.831 171.916 172.029 171.436 171.599 170.937 171.103 170.344 
170.526 169.768 170.067 169.369 169.755 169.006 169.374 168.555 168.955 
168.231 168.745 168.215 167.243 167.107 166.649 165.842 167.36 166.636 
165.708 165.373 164.811 167.84 167.013 166.023 165.441 164.846 164.551 
164.03 168.269 167.489 166.471 165.832 165.167 164.763 164.226 163.788 
162.99 168.726 167.925 166.903 166.228 165.48 165.058 164.465 164.038 
163.217 162.606 161.645 169.387 168.529 167.579 166.754 165.995 165.395 
164.793 164.285 163.532 162.89 161.99 161.355 160.707 170.111 169.321 
168.503 167.619 166.919 166.12 165.554 164.828 164.19 163.402 162.668 
161.896 161.346 160.792 160.607 170.748 170.085 169.398 168.606 167.947 
167.143 166.575 165.786 165.203 164.334 163.71 162.831 162.369 161.655 
161.467 160.973 160.97 171.332 170.757 170.177 169.481 168.845 168.102 
167.5 166.777 166.206 165.422 164.842 163.999 163.549 162.798 162.582 
161.965 161.874 161.374 161.319 167.162 165.872 166.597 166.857 164.823 
165.414 165.685 166.403 166.676 163.796 164.328 164.417 165.183 165.407 
166.183 166.407 162.482 163.047 162.867 163.705 163.83 164.767 165.012 
165.877 166.205 161.117 161.57 161.314 162.047 162.191 163.136 163.532 
164.471 164.953 165.821 166.362 160.339 160.458 160.324 160.727 160.981 
161.712 162.304 163.177 163.864 164.699 165.357 166.152 166.77 160.348 
160.164 160.128 160.168 160.401 160.811 161.38 162.141 162.907 163.756 
164.478 165.244 165.869 166.6 167.179 160.715 160.458 160.44 160.294 
160.421 160.488 160.826 161.308 161.948 162.785 163.549 164.393 165.052 
165.762 166.343 167.029 167.615 161.022 160.821 160.809 160.684 160.819 
160.702 160.909 160.966 161.406 161.905 162.648 163.453 164.234 164.988 
165.637 166.281 166.888 167.534 168.143 161.092 161.3 161.079 160.997 
161.988 161.551 161.558 161.224 161.171 163.053 162.461 162.465 161.998 
161.957 161.462 161.318 164.212 163.557 163.455 162.955 162.899 162.367 
162.219 161.664 161.694 165.431 164.698 164.496 163.908 163.835 163.326 
163.279 162.703 162.775 162.321 162.774 166.724 165.961 165.773 165.041 
164.984 164.367 164.443 163.865 164.05 163.537 163.958 163.65 164.304 
167.969 167.265 167.135 166.406 166.391 165.701 165.831 165.19 165.422 
164.861 165.239 164.849 165.387 165.149 165.728 169.161 168.5 168.398 
167.736 167.737 167.12 167.258 166.658 166.866 166.271 166.556 166.085 
166.518 166.209 166.727 166.484 166.999 170.357 169.717 169.646 168.989 
168.984 168.393 168.52 168.002 168.205 167.669 167.886 167.368 167.69 
167.31 167.773 167.499 168.009 167.752 168.249 161.414 162.171 161.615 
161.514 163.263 162.541 162.359 161.888 162.111 164.446 163.741 163.591 
162.931 163.066 162.718 163.186 165.669 164.989 164.933 164.24 164.335 
163.822 164.209 163.921 164.443 167.09 166.363 166.418 165.667 165.784 
165.146 165.469 165.045 165.535 165.221 165.722 168.576 167.894 168.042 
167.293 167.482 166.724 167.024 166.407 166.848 166.4 166.889 166.526 
166.998 169.891 169.324 169.504 168.905 169.152 168.478 168.777 168.081 
168.45 167.834 168.252 167.755 168.184 167.79 168.22 171.067 170.561 
170.751 170.262 170.526 170.015 170.307 169.743 170.048 169.451 169.773 
169.19 169.532 169.023 169.401 168.992 169.402 172.181 171.714 171.933 
171.476 171.76 171.299 171.584 171.103 171.375 170.884 171.167 170.653 
170.943 170.405 170.715 170.22 170.58 170.171 170.571 171.5 171.427 
171.116 170.369 171.302 170.99 170.176 169.866 169.037 171.199 170.844 
170.005 169.649 168.786 168.484 167.689 171.206 170.793 169.984 169.551 
168.71 168.3 167.483 167.173 166.414 171.278 170.848 170.058 169.607 
168.794 168.329 167.486 167.049 166.22 165.894 165.106 171.401 170.953 
170.163 169.698 168.864 168.411 167.539 167.079 166.201 165.778 164.984 
164.638 163.924 171.61 171.137 170.384 169.859 169.022 168.492 167.613 
167.113 166.26 165.808 165.066 164.664 164.033 163.639 163.048 171.868 
171.399 170.709 170.167 169.4 168.78 167.947 167.309 166.506 165.957 
165.285 164.845 164.264 163.854 163.275 162.864 162.306 172.165 171.697 
171.066 170.548 169.879 169.272 168.537 167.831 167.067 166.38 165.708 
165.162 164.579 164.12 163.508 163.073 162.457 162.101 161.614 172.164 
173.185 172.488 172.134 174.286 173.543 173.167 172.455 172.058 175.418 
174.667 174.272 173.516 173.123 172.378 171.976 176.54 175.81 175.451 
174.664 174.263 173.478 173.095 172.338 171.974 177.64 176.937 176.62 
175.862 175.47 174.657 174.251 173.473 173.111 172.368 172.03 178.687 
178.014 177.696 177.005 176.649 175.871 175.455 174.647 174.258 173.499 
173.16 172.434 172.13 179.67 179.026 178.706 178.049 177.736 177.027 
176.668 175.873 175.488 174.68 174.336 173.575 173.282 172.562 172.307 
180.589 179.995 179.703 179.057 178.763 178.099 177.795 177.073 176.731 
175.94 175.594 174.798 174.496 173.74 173.48 172.767 172.539 181.383 
180.885 180.632 180.043 179.755 179.121 178.823 178.162 177.843 177.135 
176.798 176.049 175.728 174.971 174.687 173.952 173.706 173.007 172.804 
181.698 181.973 181.563 180.996 182.33 181.854 181.251 180.803 180.151 
182.71 182.218 181.554 181.064 180.371 179.907 179.213 182.949 182.533 
181.854 181.367 180.632 180.126 179.377 178.928 178.219 183.131 182.723 
182.086 181.632 180.907 180.393 179.609 179.098 178.334 177.904 177.191 
183.438 182.976 182.345 181.862 181.151 180.649 179.878 179.352 178.556 
178.05 177.289 176.862 176.148 183.636 183.272 182.598 182.133 181.371 
180.871 180.086 179.595 178.795 178.284 177.47 176.982 176.212 175.805 
175.101 183.45 183.272 182.575 182.266 181.467 181.037 180.203 179.752 
178.94 178.475 177.646 177.152 176.333 175.881 175.139 174.766 174.106 
183.065 182.939 182.269 182.084 181.331 181.024 180.21 179.82 179.015 
178.587 177.787 177.312 176.512 176.027 175.282 174.846 174.178 173.81 
173.207 182.673 181.821 182.105 181.827 180.851 181.18 180.829 181.191 
180.881 179.662 180.093 179.712 180.12 179.771 180.17 179.806 178.291 
178.8 178.426 178.908 178.564 179.02 178.67 179.057 178.656 176.843 
177.394 177.036 177.558 177.23 177.754 177.438 177.898 177.514 177.885 
177.444 175.352 175.941 175.614 176.158 175.819 176.369 176.052 176.598 
176.251 176.708 176.28 176.647 176.19 173.884 174.457 174.157 174.726 
174.382 174.931 174.567 175.138 174.793 175.361 174.991 175.454 175.026 
175.395 174.973 172.539 173.031 172.715 173.268 172.947 173.492 173.127 
173.654 173.291 173.859 173.533 174.097 173.741 174.206 173.806 174.204 
173.845 171.335 171.74 171.385 171.867 171.557 172.084 171.779 172.278 
171.956 172.442 172.145 172.667 172.379 172.888 172.554 173.008 172.67 
173.11 172.839 183.064 183.495 182.941 182.265 183.83 183.346 182.603 
182.077 181.303 183.781 183.493 182.684 182.279 181.413 180.964 180.081 
183.395 183.255 182.449 182.166 181.258 180.911 179.977 179.596 178.668 
182.862 182.808 182.082 181.863 180.979 180.658 179.696 179.362 178.392 
178.078 177.15 182.178 182.222 181.547 181.461 180.625 180.363 179.361 
179.015 177.961 177.672 176.679 176.471 175.576 181.4 181.468 180.782 
180.818 180.032 179.925 178.947 178.645 177.532 177.193 176.144 175.92 
175.019 174.883 174.088 180.709 180.713 180.038 180.039 179.312 179.269 
178.413 178.198 177.171 176.807 175.776 175.452 174.582 174.374 173.631 
173.481 172.785 180.148 180.111 179.484 179.407 178.728 178.632 177.881 
177.704 176.828 176.509 175.572 175.203 174.357 174.06 173.335 173.115 
172.438 172.259 171.608 183.679 184.795 184.181 184.121 185.894 185.304 
185.199 184.63 184.488 186.677 186.259 186.071 185.601 185.385 184.841 
184.471 187.044 186.817 186.6 186.272 185.986 185.568 185.148 184.595 
184.046 187.23 187.077 186.927 186.676 186.393 186.032 185.579 185.114 
184.538 184.023 183.426 187.381 187.26 187.15 186.97 186.725 186.4 
185.925 185.467 184.854 184.391 183.786 183.336 182.728 187.416 187.345 
187.173 187.099 186.842 186.648 186.166 185.768 185.11 184.655 184.033 
183.626 183.05 182.602 181.985 187.366 187.301 187.069 187.012 186.725 
186.63 186.188 185.917 185.29 184.881 184.246 183.853 183.298 182.902 
182.334 181.864 181.275 187.32 187.243 187.013 186.904 186.609 186.487 
186.099 185.895 185.365 185.03 184.432 184.057 183.499 183.133 182.587 
182.183 181.617 181.178 180.648 187.226 186.904 187.043 186.907 186.335 
186.607 186.473 186.635 186.447 185.544 185.897 185.758 186.063 185.866 
186.087 185.861 184.697 185.043 184.87 185.232 185.046 185.375 185.133 
185.398 185.106 183.801 184.177 183.977 184.323 184.116 184.477 184.246 
184.573 184.278 184.546 184.207 182.727 183.199 182.985 183.386 183.14 
183.525 183.279 183.639 183.354 183.666 183.338 183.61 183.278 181.535 
182.044 181.817 182.286 182.026 182.479 182.235 182.65 182.377 182.721 
182.391 182.697 182.354 182.662 182.337 180.382 180.856 180.646 181.098 
180.862 181.322 181.108 181.568 181.335 181.729 181.416 181.735 181.377 
181.691 181.355 181.693 181.377 179.312 179.749 179.567 179.99 179.789 
180.21 180.008 180.446 180.225 180.653 180.369 180.737 180.393 180.713 
180.377 180.705 180.41 180.744 180.455 178.658 177.658 178.425 178.897 
176.504 177.358 177.896 178.668 179.137 175.301 176.163 176.717 177.595 
178.123 178.893 179.343 174.152 174.966 175.469 176.358 176.887 177.774 
178.261 179.06 179.504 173.048 173.822 174.283 175.116 175.619 176.501 
177.012 177.885 178.371 179.191 179.627 172.021 172.729 173.164 173.943 
174.438 175.28 175.818 176.668 177.196 178.026 178.512 179.294 179.691 
171.124 171.758 172.146 172.843 173.298 174.114 174.658 175.52 176.065 
176.891 177.394 178.184 178.633 179.358 179.723 170.272 170.896 171.263 
171.878 172.27 172.993 173.499 174.349 174.897 175.751 176.249 177.065 
177.534 178.311 178.741 179.427 179.786 169.389 170.034 170.419 171.024 
171.391 172.022 172.48 173.234 173.78 174.593 175.107 175.908 176.389 
177.198 177.677 178.443 178.861 179.518 179.852 179.663 178.658 179.126 
178.984 177.44 178.003 177.849 178.362 178.183 176.115 176.687 176.504 
177.103 176.914 177.481 177.274 174.835 175.363 175.144 175.713 175.502 
176.104 175.876 176.479 176.209 173.533 174.075 173.832 174.374 174.111 
174.67 174.399 175.003 174.726 175.329 175.01 172.221 172.728 172.44 
173.003 172.681 173.248 172.898 173.49 173.171 173.803 173.518 174.122 
173.838 171.079 171.451 171.073 171.554 171.168 171.732 171.343 171.941 
171.572 172.209 171.907 172.583 172.345 172.995 172.79 170.062 170.355 
169.883 170.229 169.765 170.222 169.83 170.386 170.048 170.635 170.324 
170.958 170.72 171.429 171.269 171.979 171.848 169.018 169.306 168.794 
169.079 168.568 168.907 168.492 168.958 168.673 169.206 168.956 169.486 
169.253 169.852 169.71 170.417 170.348 171.07 171.009 181.616 181.57 
181.893 182.48 181.398 181.802 182.433 182.788 183.46 181.211 181.62 
182.313 182.722 183.456 183.84 184.59 181.115 181.491 182.207 182.62 
183.416 183.844 184.633 184.996 185.687 180.927 181.38 182.058 182.509 
183.289 183.783 184.576 184.999 185.646 185.972 186.469 180.514 181.067 
181.71 182.248 182.963 183.552 184.32 184.849 185.455 185.828 186.246 
186.561 186.883 180.063 180.602 181.256 181.81 182.496 183.11 183.848 
184.469 185.086 185.544 185.938 186.267 186.566 186.867 187.107 179.697 
180.189 180.843 181.371 182.052 182.623 183.314 183.925 184.531 185.072 
185.493 185.903 186.212 186.547 186.817 187.077 187.26 179.343 179.822 
180.425 180.954 181.59 182.16 182.788 183.372 183.912 184.461 184.869 
185.361 185.69 186.132 186.424 186.775 186.983 187.209 187.313 181.779 
182.694 182.271 182.36 183.749 183.292 183.476 182.967 183.06 184.891 
184.43 184.676 184.179 184.331 183.72 183.652 185.943 185.552 185.742 
185.326 185.465 184.966 184.882 184.179 183.819 186.716 186.474 186.568 
186.225 186.239 185.894 185.816 185.302 184.936 184.156 183.597 187.141 
187.066 187.132 186.875 186.75 186.456 186.322 186.026 185.775 185.198 
184.656 183.835 183.232 187.328 187.346 187.424 187.285 187.127 186.849 
186.611 186.378 186.152 185.845 185.411 184.799 184.151 183.405 182.833 
187.422 187.46 187.542 187.488 187.393 187.17 186.918 186.637 186.344 
186.092 185.693 185.319 184.715 184.159 183.522 182.941 182.456 187.453 
187.511 187.6 187.594 187.578 187.431 187.259 186.969 186.67 186.326 
185.926 185.544 185.016 184.561 183.977 183.493 182.995 182.539 182.158 
181.311 181.845 181.289 180.712 182.44 181.832 181.211 180.647 179.945 
182.921 182.368 181.661 181.111 180.356 179.753 178.832 183.042 182.671 
181.941 181.484 180.689 180.11 179.163 178.487 177.452 182.823 182.605 
181.939 181.646 180.899 180.399 179.468 178.811 177.817 177.134 176.236 
182.491 182.32 181.705 181.541 180.872 180.522 179.629 179.076 178.11 
177.508 176.638 176.049 175.291 182.179 182.01 181.401 181.267 180.621 
180.389 179.532 179.123 178.168 177.708 176.841 176.372 175.569 175.076 
174.309 181.908 181.738 181.133 180.965 180.311 180.101 179.3 178.963 
178.065 177.679 176.848 176.47 175.69 175.258 174.467 174.011 173.273 
181.677 181.509 180.92 180.713 180.057 179.823 179.096 178.783 177.999 
177.618 176.861 176.477 175.763 175.354 174.629 174.175 173.474 173.029 
172.416 183.677 184.079 184.18 184.795 184.269 184.532 185.179 185.342 
185.932 184.043 184.509 185.173 185.579 186.199 186.388 186.77 183.724 
184.174 184.805 185.338 185.963 186.417 186.831 186.994 187.127 183.583 
183.951 184.568 184.972 185.554 186.012 186.468 186.832 187.064 187.196 
187.265 183.347 183.804 184.422 184.818 185.36 185.692 186.137 186.454 
186.811 187.055 187.281 187.359 187.446 182.885 183.409 183.957 184.512 
185.029 185.481 185.909 186.233 186.621 186.881 187.224 187.38 187.569 
187.557 187.563 182.453 182.889 183.354 183.897 184.394 184.971 185.442 
185.928 186.339 186.708 187.063 187.319 187.55 187.643 187.688 187.619 
187.538 182.164 182.51 182.96 183.368 183.886 184.369 184.915 185.411 
185.893 186.335 186.712 187.071 187.319 187.542 187.629 187.681 187.637 
187.562 187.467 
POINT_DATA 1002
SCALARS Distance double
LOOKUP_TABLE default
177.955 178.885 178.054 176.984 177.119 176.836 175.898 176.034 175.707 
175.622 174.637 174.774 174.499 174.43 174.47 173.266 173.482 173.176 
173.167 173.247 173.371 171.979 172.288 171.848 171.826 171.892 172.073 
172.295 170.78 171.161 170.576 170.504 170.518 170.695 171.017 171.355 
169.603 170.053 169.311 169.176 169.183 169.371 169.708 170.113 170.514 
168.462 168.927 168.155 167.935 167.84 168.013 168.372 168.752 169.17 
169.632 167.344 167.795 167.128 166.92 166.657 166.629 166.955 167.361 
167.737 168.201 168.737 179.226 178.353 179.543 178.634 179.946 177.378 
179.04 180.438 177.63 176.279 179.469 180.741 177.994 176.576 175.077 
179.675 180.811 178.334 176.939 175.468 173.843 179.814 180.956 178.544 
177.233 175.814 174.222 172.623 180.081 181.204 178.774 177.459 176.071 
174.499 172.931 171.466 180.322 181.339 179.036 177.691 176.346 174.819 
173.247 171.814 170.369 180.429 181.337 179.245 177.916 176.622 175.236 
173.72 172.286 170.849 169.263 180.768 179.706 180.1 178.824 179.162 
178.362 177.58 177.809 177.271 176.949 176.051 176.42 175.814 175.713 
175.571 174.849 175.434 174.356 174.2 174.263 174.115 174.086 174.583 
173.454 172.955 172.883 172.923 172.669 173.219 173.556 172.768 172.175 
171.779 171.707 171.546 171.169 172.189 172.578 171.812 171.298 170.751 
170.433 170.18 169.761 169.384 171.322 171.851 170.8 170.202 169.535 
169.022 168.657 168.185 167.722 167.589 166.347 166.012 165.17 166.175 
164.939 164.329 166.682 165.215 164.39 163.377 167.131 165.603 164.69 
163.602 161.994 167.626 165.956 164.885 163.827 162.226 160.72 168.43 
166.685 165.35 164.15 162.625 161.123 160.284 169.334 167.747 166.328 
164.988 163.438 161.945 160.974 160.568 170.124 168.739 167.357 166.045 
164.581 163.115 162.05 161.382 160.965 170.827 169.583 168.215 166.933 
165.645 164.304 163.231 162.468 161.777 161.217 166.101 164.974 165.985 
163.687 164.594 165.647 162.08 162.839 164.063 165.331 160.641 161.226 
162.513 164.026 165.507 160.017 160.319 161.405 163.001 164.572 166.001 
160.198 160.175 160.715 162.025 163.702 165.167 166.445 160.614 160.514 
160.579 161.189 162.636 164.316 165.677 166.91 160.887 160.93 161.018 
161.136 161.898 163.415 164.977 166.261 167.496 161.176 161.179 161.55 
161.929 162.489 161.57 162.969 163.704 162.502 161.807 164.001 164.934 
163.399 162.8 162.055 165.164 166.199 164.328 163.782 163.259 163.016 
166.523 167.454 165.635 164.994 164.556 164.339 164.525 167.822 168.633 
167.062 166.479 166.023 165.692 165.689 165.952 169.047 169.806 168.328 
167.823 167.476 167.101 166.878 166.991 167.245 170.3 170.968 169.595 
169.03 168.709 168.431 168.129 168.065 168.268 168.52 161.853 161.818 
162.845 162.964 163.984 162.298 164.279 165.078 163.533 163.368 165.614 
166.318 164.908 164.566 164.695 167.161 167.794 166.48 165.967 165.877 
166.037 168.728 169.21 168.24 167.73 167.381 167.29 167.344 170.037 
170.429 169.751 169.467 169.138 168.835 168.633 168.576 171.219 171.556 
171 170.831 170.626 170.382 170.104 169.862 169.767 172.369 172.619 
172.213 172.069 171.856 171.647 171.475 171.252 171.033 170.941 171.823 
170.701 171.759 170.514 171.634 169.317 170.386 171.579 169.119 167.923 
170.417 171.625 169.152 167.862 166.666 170.505 171.705 169.256 167.978 
166.622 165.374 170.652 171.85 169.337 168.002 166.641 165.343 164.239 
170.912 172.07 169.592 168.141 166.698 165.444 164.414 163.449 171.217 
172.321 169.999 168.61 167.092 165.733 164.681 163.701 162.678 172.822 
172.824 173.912 173.897 175.053 172.784 175.053 176.151 173.87 172.718 
176.232 177.241 175.071 173.85 172.721 177.343 178.34 176.288 175.053 
173.852 172.763 178.363 179.362 177.388 176.275 175.04 173.884 172.836 
179.359 180.295 178.4 177.423 176.309 175.118 174.008 173.004 180.337 
181.14 179.418 178.477 177.49 176.396 175.272 174.211 173.229 181.183 