# vtk DataFile Version 4.0
vtk output
ASCII
DATASET POLYDATA
POINTS 1002 float
-104.047 -118.887 71.198 -104.706 -119.737 71.0123 -104.641 -119.042 70.281 
-103.997 -118.028 70.4092 -104.621 -118.173 69.5196 -103.527 -117.663 71.3662 
-103.961 -116.955 69.6432 -104.609 -117.145 68.8024 -103.442 -116.554 70.5567 
-103.151 -115.854 71.6947 -103.893 -115.753 68.9057 -104.574 -116.015 68.0987 
-103.335 -115.29 69.8176 -102.952 -114.645 70.9376 -102.609 -114.009 72.1958 
-103.748 -114.545 68.0821 -104.55 -114.845 67.3509 -103.131 -114.055 69.0528 
-102.669 -113.48 70.2017 -102.139 -113.102 71.4174 -101.577 -112.857 72.6459 
-103.562 -113.36 67.2664 -104.625 -113.588 66.7923 -102.737 -112.985 68.132 
-102.204 -112.493 69.3669 -101.579 -112.246 70.5501 -100.843 -112.209 71.7186 
-100.391 -111.98 72.998 -103.465 -112.1 66.7913 -104.759 -112.198 66.5892 
-102.276 -111.979 67.2528 -101.58 -111.651 68.3775 -100.998 -111.382 69.6339 
-100.262 -111.323 70.73 -99.791 -111.117 72.0159 -99.7502 -110.622 73.4101 
-103.45 -110.785 66.556 -104.767 -110.861 66.3854 -101.997 -110.842 66.678 
-101.051 -110.705 67.4221 -100.549 -110.399 68.6694 -99.9972 -110.168 69.826 
-99.5815 -109.899 71.0512 -99.5833 -109.422 72.5133 -99.7285 -108.885 73.8633 
-103.384 -109.65 66.1474 -104.561 -109.83 65.8803 -101.958 -109.631 66.2636 
-100.827 -109.509 66.7107 -100.285 -109.186 67.7383 -99.9584 -108.811 68.9532 
-99.6725 -108.419 70.1739 -99.6558 -107.949 71.585 -99.8147 -107.48 73.023 
-99.863 -107.124 74.2163 -103.205 -108.798 65.5572 -104.217 -109.096 65.263 
-102.033 -108.553 65.8246 -100.937 -108.226 66.2404 -100.235 -107.805 67.0086 
-99.9257 -107.383 68.1002 -99.781 -106.926 69.3495 -99.7526 -106.392 70.7053 
-99.8401 -105.915 72.1008 -99.9007 -105.61 73.3679 -99.8543 -105.454 74.438 
-105.37 -120.176 70.2711 -105.289 -119.462 69.4645 -106.092 -120.681 69.406 
-106.012 -119.977 68.5178 -107.007 -121.041 68.6278 -105.273 -118.569 68.6608 
-107.021 -120.266 67.7589 -108.23 -121.029 68.0393 -106.056 -119.003 67.7438 
-105.302 -117.485 67.9842 -108.319 -120.111 67.1991 -109.518 -120.812 67.3568 
-107.172 -119.155 67.0635 -106.178 -117.805 67.1575 -105.341 -116.316 67.3324 
-109.515 -119.857 66.4251 -110.62 -120.628 66.4818 -108.427 -118.998 66.4272 
-107.316 -117.936 66.4312 -106.277 -116.614 66.4959 -105.448 -115.117 66.6465 
-110.542 -119.701 65.5001 -111.676 -120.354 65.747 -109.471 -118.863 65.5185 
-108.422 -117.915 65.6089 -107.326 -116.782 65.6311 -106.372 -115.396 65.7849 
-105.638 -113.761 66.2174 -111.659 -119.362 64.8206 -112.792 -119.869 65.2109 
-110.49 -118.655 64.6419 -109.373 -117.81 64.6507 -108.313 -116.773 64.7402 
-107.282 -115.529 64.9103 -106.451 -113.999 65.3775 -105.741 -112.283 66.0398 
-112.809 -118.724 64.3766 -113.829 -119.266 64.6631 -111.665 -118.088 64.1276 
-110.424 -117.453 63.8599 -109.279 -116.648 63.7968 -108.249 -115.541 64.0785 
-107.265 -114.188 64.5564 -106.437 -112.575 65.1737 -105.623 -110.982 65.7169 
-113.768 -117.961 64.0281 -114.669 -118.64 64.1112 -112.777 -117.257 63.9218 
-111.577 -116.782 63.473 -110.319 -116.379 62.9707 -109.255 -115.594 63.1033 
-108.27 -114.382 63.7597 -107.264 -112.92 64.3922 -106.323 -111.359 64.8862 
-105.339 -110.023 65.1989 -114.805 -117.468 63.6801 -113.909 -116.558 63.8551 
-114.851 -116.066 63.5541 -113.946 -115.174 63.7345 -114.878 -114.77 63.2673 
-112.862 -115.949 63.5909 -113.893 -114.074 63.126 -114.9 -113.697 62.4997 
-112.778 -114.9 62.9487 -111.538 -115.824 62.6503 -113.699 -113.042 62.1859 
-114.731 -112.662 61.9002 -112.519 -113.875 62.0127 -111.33 -114.941 61.707 
-110.261 -115.532 62.1161 -113.289 -111.94 61.8706 -114.213 -111.615 62.1871 
-112.132 -112.503 61.517 -110.981 -113.498 61.2456 -110.09 -114.321 61.672 
-109.241 -114.504 62.75 -112.748 -110.853 62.4494 -113.489 -110.515 63.0226 
-111.754 -111.128 61.9632 -110.633 -111.653 61.6687 -109.773 -112.417 61.9175 
-109.086 -112.926 62.7742 -108.195 -113.01 63.6968 -112.227 -109.542 63.3016 
-112.786 -109.25 63.8665 -111.479 -109.796 62.8698 -110.442 -110.057 62.6101 
-109.436 -110.479 62.6295 -108.716 -110.994 63.0703 -107.953 -111.344 63.7063 
-107.044 -111.425 64.2798 -111.749 -108 64.1092 -112.185 -107.95 64.6841 
-111.207 -108.153 63.6869 -110.326 -108.418 63.4601 -109.202 -108.743 63.3741 
-108.27 -109.119 63.5062 -107.506 -109.534 63.8487 -106.644 -109.861 64.205 
-105.856 -109.995 64.6127 -111.291 -106.624 64.9071 -111.7 -106.792 65.4759 
-110.827 -106.53 64.4182 -110.082 -106.632 64.1066 -108.99 -106.896 63.9417 
-107.904 -107.202 63.9229 -107.018 -107.586 64.0923 -106.117 -108.102 64.3004 
-105.228 -108.594 64.4643 -104.603 -108.904 64.7639 -103.244 -108.119 64.9337 
-103.633 -107.62 64.5858 -102.421 -106.635 64.8107 -104.39 -106.86 64.4659 
-102.842 -105.689 64.4871 -102.032 -104.455 64.9064 -105.479 -106.033 64.422 
-103.762 -104.594 64.3856 -102.532 -103.27 64.4473 -101.965 -102.087 65.0874 
-106.545 -105.496 64.3396 -105.014 -103.861 64.5026 -103.538 -102.433 64.4164 
-102.586 -101.138 64.6607 -101.912 -100.146 65.393 -107.584 -105.272 64.3512 
-106.159 -103.703 64.7481 -104.773 -102.307 64.9289 -103.596 -100.899 64.9494 
-102.752 -99.5635 65.2598 -101.93 -98.6416 65.9225 -108.756 -105.158 64.5291 
-107.264 -103.801 65.0181 -105.921 -102.506 65.5033 -104.771 -101.092 65.7053 
-103.84 -99.5522 65.737 -103.045 -98.2427 66.0289 -102.204 -97.4314 66.6378 
-109.792 -105.152 64.8498 -108.445 -103.932 65.3212 -107.101 -102.651 65.8234 
-105.989 -101.136 66.1761 -105.049 -99.5913 66.2954 -104.218 -98.233 66.4723 
-103.414 -97.1709 66.9042 -102.591 -96.4872 67.485 -110.488 -105.311 65.3109 
-109.446 -104.092 65.7205 -108.263 -102.789 66.1176 -107.2 -101.161 66.4117 
-106.281 -99.5355 66.5942 -105.386 -98.3092 66.9028 -104.521 -97.3145 67.422 
-103.699 -96.3955 67.9361 -102.927 -95.7234 68.3839 -111.007 -105.543 65.8376 
-110.195 -104.248 66.161 -109.216 -102.913 66.4905 -108.229 -101.375 66.7824 
-107.356 -99.7543 66.9793 -106.484 -98.4986 67.3068 -105.563 -97.6235 67.9377 
-104.702 -96.7381 68.5689 -103.94 -95.8066 68.9398 -103.256 -95.1272 69.233 
-102.303 -107.666 65.2867 -101.783 -105.876 65.3998 -101.397 -107.063 65.8183 
-101.59 -103.551 65.7049 -101.114 -104.998 66.1301 -100.544 -106.396 66.4713 
-101.318 -101.316 65.9176 -100.79 -102.771 66.3712 -100.256 -104.3 66.7403 
-99.95 -105.878 67.3209 -100.974 -99.4616 66.2079 -100.272 -100.695 66.5492 
-99.8726 -102.207 66.9639 -99.727 -103.864 67.6942 -99.7591 -105.444 68.5711 
-101.004 -97.9559 66.7921 -100.038 -98.8175 67.0695 -99.6411 -100.093 67.5086 
-99.6555 -101.791 68.3561 -99.7364 -103.437 69.3402 -99.7783 -104.882 70.0889 
-101.428 -96.826 67.5699 -100.347 -97.3948 67.9033 -99.7822 -98.2561 68.4329 
-99.744 -99.7699 69.3078 -99.7782 -101.53 70.3225 -99.7432 -102.935 71.0263 
-99.7855 -104.31 71.5336 -101.918 -95.9422 68.4003 -100.904 -96.4516 68.7732 
-100.176 -97.0715 69.4017 -99.8681 -98.1906 70.2414 -99.7236 -99.8848 71.185 
-99.5589 -101.366 71.8767 -99.5566 -102.538 72.3107 -99.7524 -103.964 72.8015 
-102.364 -95.201 69.2384 -101.469 -95.7019 69.6136 -100.695 -96.3322 70.2798 
-100.121 -97.1502 71.0643 -99.6958 -98.5209 71.8746 -99.3641 -100.059 72.547 
-99.2468 -101.222 72.9949 -99.4282 -102.366 73.4214 -99.7129 -103.856 73.9433 
-103.13 -94.6282 70.1091 -102.242 -94.9097 70.4269 -103.102 -94.4227 71.4724 
-102.26 -94.9334 72.0729 -103.13 -94.5094 73.271 -101.442 -95.5896 71.0759 
-102.307 -95.1933 73.872 -103.187 -94.7796 74.983 -101.507 -95.7044 72.7758 
-100.706 -96.3421 71.8506 -102.274 -95.5137 75.4838 -103.312 -95.2269 76.3238 
-101.446 -95.9353 74.4484 -100.659 -96.4836 73.466 -99.9863 -97.3592 72.6012 
-102.289 -95.9068 76.9849 -103.538 -95.8616 77.568 -101.236 -96.1756 76.1325 
-100.437 -96.6735 75.1384 -99.7858 -97.5662 74.1612 -99.3874 -98.8148 73.2768 
-102.521 -96.508 78.3898 -103.788 -96.5478 78.876 -101.267 -96.5717 77.7818 
-100.277 -96.9604 76.9208 -99.6321 -97.8082 75.8674 -99.2486 -98.9944 74.7781 
-99.112 -100.183 73.796 -102.846 -97.2498 79.5347 -103.971 -97.186 80.0465 
-101.671 -97.2994 79.0331 -100.575 -97.5483 78.4208 -99.7694 -98.2653 77.5028 
-99.3618 -99.3188 76.369 -99.2133 -100.373 75.2375 -99.229 -101.348 74.2365 
-103.105 -97.996 80.4545 -104.137 -97.8835 80.8902 -102.095 -98.1934 79.9495 
-101.133 -98.4622 79.4507 -100.272 -99.0171 78.7617 -99.7144 -99.91 77.7699 
-99.5172 -100.856 76.6887 -99.4753 -101.758 75.66 -99.5343 -102.749 74.7282 
-103.379 -98.8089 81.2187 -104.392 -98.7758 81.4368 -102.409 -99.0605 80.8118 
-101.562 -99.4333 80.333 -100.807 -99.9331 79.7699 -100.187 -100.678 78.9602 
-99.866 -101.559 77.9928 -99.7614 -102.424 77.0409 -99.7055 -103.353 76.0983 
-99.7391 -104.391 75.2081 -104.087 -95.1017 69.8882 -104.108 -94.5629 70.8127 
-105.105 -95.3242 70.5972 -105.327 -94.7121 71.6208 -106.229 -95.5232 71.2937 
-104.172 -94.2629 72.3332 -106.61 -94.8009 72.4315 -107.27 -95.725 72.0123 
-105.528 -94.1841 73.2263 -104.229 -94.2022 74.2167 -107.72 -95.0598 73.1633 
-108.202 -96.2535 72.7204 -106.949 -94.184 73.9451 -105.645 -94.0542 74.971 
-104.345 -94.5281 75.7608 -108.74 -95.7428 73.7656 -109.235 -96.9377 73.2851 
-108.199 -94.6792 74.4949 -107.114 -94.3798 75.4902 -105.743 -94.7252 76.297 
-104.574 -95.2762 76.8961 -109.893 -96.4297 74.2905 -110.365 -97.4596 73.7172 
-109.4 -95.5033 75.0607 -108.479 -95.176 76.0566 -107.149 -95.3844 76.8763 
-105.909 -95.6877 77.4713 -104.835 -96.0579 78.1684 -110.964 -97.0436 74.8206 
-111.256 -98.0972 74.1425 -110.59 -96.1825 75.6998 -109.82 -95.8594 76.7461 
-108.574 -95.9916 77.6255 -107.273 -96.1292 78.2551 -106.124 -96.2823 78.9289 
-105.014 -96.6591 79.6116 -111.644 -97.9807 75.318 -111.809 -99.0474 74.5827 
-111.449 -97.021 76.2724 -110.937 -96.4761 77.3381 -109.938 -96.406 78.2409 
-108.712 -96.4584 78.9542 -107.5 -96.524 79.6776 -106.284 -96.8196 80.3358 
-105.125 -97.3206 80.7244 -112.094 -99.1186 75.7107 -112.278 -100.011 74.9767 
-111.94 -98.2191 76.6701 -111.618 -97.4938 77.726 -110.922 -97.1218 78.6053 
[...]
CELL_DATA 2000
SCALARS Distance double
LOOKUP_TABLE default
172.62 171.729 172.004 171.614 170.735 171.029 170.563 170.873 170.385 
169.657 169.953 169.411 169.726 169.176 169.526 169.013 168.515 168.795 
168.185 168.505 167.92 168.276 167.764 168.151 167.715 167.389 167.596 
166.909 167.218 166.616 166.997 166.483 166.893 166.453 166.887 166.512 
166.369 166.472 165.687 165.916 165.276 165.665 165.158 165.593 165.129 
165.578 165.174 165.673 165.346 165.406 165.465 164.6 164.719 163.993 
164.321 163.807 164.254 163.802 164.241 163.824 164.308 164.005 164.543 
164.308 164.423 164.492 163.616 163.664 162.857 163.067 162.489 162.901 
162.467 162.92 162.513 162.977 162.668 163.212 163.014 163.571 163.377 
163.462 163.527 162.706 162.725 161.911 161.994 161.332 161.617 161.15 
161.588 161.21 161.681 161.356 161.879 161.644 162.236 162.04 162.623 
162.405 173.055 173.452 172.901 172.19 173.904 173.304 172.555 171.993 
171.237 174.414 173.782 173.006 172.378 171.593 171.014 170.215 174.871 
174.284 173.512 172.865 172.051 171.407 170.594 169.981 169.144 175.167 
174.663 173.905 173.341 172.54 171.897 171.06 170.401 169.574 168.929 
168.093 175.374 174.894 174.132 173.647 172.874 172.331 171.497 170.869 
170.014 169.377 168.564 167.925 167.118 175.576 175.099 174.327 173.84 
173.06 172.579 171.764 171.226 170.359 169.774 168.93 168.356 167.558 
166.959 166.151 175.701 175.28 174.506 174.03 173.219 172.736 171.921 
171.431 170.61 170.076 169.249 168.688 167.88 167.324 166.521 165.947 
165.132 175.686 175.337 174.571 174.161 173.351 172.884 172.071 171.591 
170.831 170.339 169.61 169.054 168.296 167.684 166.895 166.287 165.492 
164.91 164.136 175.376 174.473 174.716 174.26 173.53 173.785 173.331 
173.563 173.063 172.566 172.83 172.361 172.607 172.097 172.321 171.796 
171.525 171.797 171.253 171.553 171.015 171.313 170.81 171.068 170.583 
170.512 170.709 170.054 170.327 169.72 170.108 169.64 170.044 169.623 
169.904 169.423 169.62 169.745 169.068 169.18 168.509 168.775 168.29 
168.765 168.414 168.867 168.418 168.691 168.122 168.706 168.868 168.249 
168.324 167.662 167.735 167.167 167.455 167.067 167.55 167.143 167.557 
166.976 167.267 166.653 167.739 167.915 167.307 167.478 166.836 166.945 
166.279 166.429 165.863 166.213 165.741 166.188 165.637 166.011 165.381 
165.732 165.178 166.886 166.978 166.34 166.492 165.83 166.002 165.276 
165.444 164.71 164.979 164.345 164.758 164.172 164.605 163.99 164.391 
163.818 164.254 163.792 162.893 162.818 162.354 161.397 162.882 162.283 
161.14 160.718 159.726 163.045 162.37 161.11 160.479 159.296 158.966 
158.078 163.291 162.577 161.39 160.599 159.402 158.731 157.771 157.448 
156.774 163.732 162.948 161.923 161.08 160.09 159.203 158.322 157.562 
156.895 156.431 155.935 164.368 163.559 162.659 161.808 161.007 160.133 
159.405 158.481 157.805 156.981 156.451 155.869 155.496 165.026 164.29 
163.513 162.691 161.967 161.135 160.449 159.593 158.897 158.033 157.42 
156.662 156.237 155.653 155.397 165.644 164.991 164.339 163.597 162.929 
162.121 161.411 160.571 159.844 159.027 158.407 157.665 157.236 156.566 
156.282 155.697 155.506 166.263 165.659 165.079 164.411 163.782 163.042 
162.346 161.524 160.809 159.97 159.384 158.639 158.275 157.614 157.378 
156.716 156.499 155.874 155.708 162.679 161.22 161.963 161.924 159.665 
160.479 160.494 161.195 161.163 158.109 158.936 159.027 159.771 159.772 
160.462 160.548 156.712 157.417 157.491 158.275 158.299 159.053 159.168 
159.973 160.289 155.66 156.095 156.022 156.714 156.745 157.547 157.747 
158.614 159.018 159.889 160.371 155.1 155.198 154.99 155.379 155.413 
156.087 156.45 157.306 157.883 158.728 159.304 160.076 160.589 154.986 
154.847 154.618 154.663 154.701 155.062 155.526 156.239 156.984 157.771 
158.426 159.113 159.633 160.337 160.87 155.09 154.871 154.684 154.571 
154.621 154.706 155.114 155.574 156.312 157.01 157.691 158.32 158.786 
159.412 159.899 160.654 161.232 155.282 155.033 154.891 154.761 154.855 
154.827 155.145 155.348 155.919 156.424 157.057 157.628 158.085 158.614 
159.034 159.693 160.254 161.039 161.628 155.359 155.609 155.27 155.052 
156.324 155.777 155.592 155.205 155.138 157.296 156.674 156.487 155.951 
155.868 155.442 155.477 158.268 157.658 157.432 156.882 156.727 156.249 
156.236 155.89 156.13 159.291 158.618 158.333 157.756 157.545 157.065 
157 156.649 156.832 156.658 157.082 160.461 159.709 159.402 158.699 
158.476 157.898 157.849 157.432 157.603 157.354 157.7 157.602 158.035 
161.621 160.909 160.636 159.882 159.687 158.983 158.968 158.412 158.616 
158.225 158.57 158.295 158.7 158.538 159.007 162.643 162.022 161.812 
161.139 161.01 160.312 160.324 159.684 159.883 159.371 159.724 159.315 
159.736 159.396 159.883 159.657 160.244 163.622 163.034 162.894 162.293 
162.24 161.63 161.686 161.077 161.255 160.701 161.018 160.553 160.971 
160.563 161.034 160.695 161.237 161.013 161.613 155.814 156.77 156.122 
156.006 157.957 157.224 157.067 156.498 156.647 159.152 158.461 158.331 
157.671 157.725 157.271 157.57 160.356 159.672 159.589 158.94 158.969 
158.415 158.619 158.227 158.563 161.677 160.951 160.909 160.233 160.322 
159.708 159.915 159.379 159.689 159.265 159.642 163.018 162.325 162.348 
161.66 161.842 161.182 161.457 160.804 161.108 160.529 160.892 160.43 
160.83 164.266 163.655 163.755 163.141 163.39 162.779 163.089 162.427 
162.694 162.027 162.307 161.75 162.092 161.634 161.978 165.441 164.894 
165.048 164.519 164.788 164.272 164.565 163.993 164.212 163.575 163.771 
163.169 163.424 162.904 163.186 162.717 162.981 166.556 166.065 166.246 
165.776 166.043 165.584 165.848 165.344 165.542 164.981 165.162 164.588 
164.808 164.246 164.481 163.941 164.168 163.677 163.927 166.441 166.288 
166.003 165.245 166.017 165.758 164.939 164.711 163.915 165.786 165.467 
164.615 164.346 163.515 163.313 162.485 165.715 165.325 164.502 164.11 
163.293 162.967 162.152 161.872 161.019 165.725 165.325 164.547 164.114 
163.321 162.892 162.103 161.689 160.875 160.485 159.689 165.83 165.388 
164.64 164.199 163.424 162.979 162.184 161.737 160.945 160.496 159.744 
159.327 158.659 166.075 165.581 164.869 164.37 163.642 163.137 162.36 
161.853 161.065 160.603 159.882 159.472 158.819 158.424 157.805 166.344 
165.869 165.183 164.677 163.988 163.452 162.722 162.136 161.365 160.801 
160.089 159.631 158.993 158.592 157.945 157.553 156.909 166.589 166.141 
165.484 165.002 164.33 163.823 163.121 162.556 161.805 161.2 160.477 
159.93 159.289 158.81 158.169 157.705 157.039 156.635 156.058 167.162 
168.224 167.498 167.061 169.271 168.56 168.137 167.363 166.848 170.334 
169.617 169.218 168.449 167.964 167.137 166.624 171.433 170.715 170.354 
169.574 169.123 168.281 167.785 166.954 166.506 172.511 171.819 171.489 
170.742 170.323 169.483 168.988 168.131 167.665 166.871 166.48 173.566 
172.889 172.57 171.863 171.475 170.682 170.197 169.342 168.861 168.041 
167.651 166.885 166.572 174.566 173.932 173.634 172.949 172.6 171.834 
171.385 170.541 170.064 169.238 168.854 168.086 167.793 167.045 166.797 
175.428 174.878 174.612 174.001 173.704 172.988 172.59 171.754 171.286 
170.44 170.04 169.279 168.986 168.267 168.009 167.287 167.039 176.196 
175.696 175.459 174.925 174.668 174.058 173.711 172.959 172.505 171.668 
171.233 170.452 170.128 169.423 169.155 168.459 168.19 167.493 167.246 
176.56 176.911 176.429 175.827 177.203 176.747 176.085 175.648 175.022 
177.355 176.95 176.24 175.831 175.131 174.759 174.058 177.433 177.04 
176.304 175.909 175.154 174.785 174.024 173.669 172.869 177.486 177.104 
176.368 175.962 175.202 174.79 174.011 173.614 172.814 172.424 171.626 
177.547 177.171 176.481 176.06 175.328 174.877 174.108 173.654 172.872 
172.428 171.655 171.243 170.527 177.657 177.291 176.664 176.231 175.529 
175.048 174.284 173.796 173.012 172.542 171.762 171.319 170.575 170.195 
169.528 177.624 177.376 176.754 176.409 175.715 175.27 174.504 174 
173.203 172.704 171.911 171.44 170.665 170.244 169.523 169.187 168.545 
177.231 177.155 176.48 176.329 175.622 175.354 174.605 174.201 173.414 
172.921 172.129 171.619 170.845 170.362 169.625 169.206 168.532 168.207 
167.605 176.651 175.436 175.994 175.9 174.279 174.749 174.63 175.223 
175.097 173.204 173.608 173.388 173.94 173.846 174.41 174.187 171.973 
172.463 172.164 172.686 172.527 173.135 172.968 173.456 173.088 170.503 
171.108 170.802 171.369 171.116 171.753 171.565 172.172 171.862 172.29 
171.825 168.946 169.581 169.301 169.917 169.633 170.265 170.018 170.682 
170.405 170.978 170.575 170.994 170.524 167.41 168.025 167.76 168.402 
168.15 168.765 168.486 169.107 168.825 169.459 169.138 169.68 169.274 
169.699 169.283 165.945 166.514 166.257 166.888 166.674 167.294 167.032 
167.607 167.316 167.912 167.646 168.237 167.93 168.425 168.059 168.492 
168.16 164.65 165.133 164.9 165.456 165.264 165.851 165.63 166.19 
165.942 166.492 166.272 166.83 166.603 167.111 166.816 167.268 166.965 
167.424 167.196 176.87 176.83 176.469 175.691 176.828 176.495 175.809 
175.367 174.641 176.722 176.538 175.981 175.585 174.875 174.372 173.607 
176.309 176.338 175.838 175.665 174.883 174.488 173.547 173.168 172.275 
175.642 175.765 175.258 175.301 174.458 174.212 173.072 172.802 171.754 
171.607 170.699 174.997 175.033 174.496 174.597 173.842 173.659 172.506 
172.163 171.046 170.906 170.035 169.975 169.144 174.514 174.419 173.798 
173.839 173.195 173.098 172.136 171.726 170.63 170.292 169.441 169.325 
168.579 168.458 167.645 174.11 173.963 173.246 173.176 172.516 172.495 
171.721 171.459 170.458 170.038 169.103 168.845 168.078 167.93 167.136 
166.972 166.168 173.675 173.554 172.823 172.662 171.942 171.866 171.169 
171.045 170.188 169.863 168.885 168.546 167.665 167.455 166.644 166.474 
165.669 165.527 164.822 177.632 178.753 178.015 177.615 179.827 179.172 
178.784 177.965 177.513 180.66 180.192 179.874 179.121 178.56 177.771 
177.271 181.115 180.833 180.548 180.057 179.521 178.777 178.115 177.397 
176.819 181.378 181.122 180.768 180.476 180.017 179.553 178.945 178.25 
177.563 176.849 176.215 181.639 181.364 180.97 180.63 180.189 179.867 
179.408 178.949 178.354 177.662 176.982 176.25 175.64 181.756 181.59 
181.26 180.915 180.501 180.115 179.715 179.33 178.841 178.324 177.683 
177.034 176.391 175.73 175.181 181.693 181.623 181.363 181.166 180.82 
180.5 180.106 179.708 179.209 178.728 178.085 177.558 176.894 176.377 
175.797 175.263 174.743 181.667 181.566 181.344 181.212 180.916 180.721 
180.338 180.043 179.521 179.086 178.419 177.9 177.211 176.734 176.132 
175.714 175.178 174.742 174.23 181.659 181.561 181.509 181.295 181.358 
181.377 181.098 181.068 180.821 180.801 181.039 180.717 180.757 180.369 
180.463 180.174 179.8 180.273 179.963 180.169 179.658 179.818 179.391 
179.653 179.295 178.582 179.152 178.924 179.263 178.772 178.962 178.466 
178.735 178.343 178.64 178.199 177.33 177.915 177.74 178.179 177.777 
178.031 177.562 177.807 177.425 177.691 177.282 177.493 177.023 176.04 
176.627 176.414 176.941 176.562 176.958 176.496 176.844 176.441 176.776 
176.364 176.603 176.128 176.337 175.924 174.768 175.305 175.061 175.582 
175.229 175.681 175.249 175.667 175.252 175.677 175.257 175.608 175.123 
175.404 174.965 175.275 174.948 173.625 174.078 173.859 174.305 174.03 
174.432 174.101 174.466 174.114 174.483 174.114 174.463 174.038 174.347 
173.933 174.271 173.957 174.324 174.042 172.966 171.993 172.729 173.17 
170.812 171.677 172.159 172.915 173.329 169.445 170.385 170.902 171.81 
172.279 173.042 173.411 168.126 168.995 169.459 170.427 170.937 171.881 
172.321 173.089 173.428 166.956 167.743 168.152 169 169.465 170.435 
170.95 171.893 172.309 173.076 173.394 165.831 166.603 167.036 167.798 
168.222 169.042 169.536 170.474 170.989 171.881 172.261 173.008 173.302 
164.766 165.488 165.922 166.699 167.144 167.904 168.343 169.155 169.661 
170.556 171.05 171.863 172.236 172.928 173.25 163.801 164.454 164.83 
165.577 166.031 166.821 167.263 168.025 168.461 169.286 169.798 170.667 
171.161 171.916 172.318 172.96 173.329 162.843 163.486 163.827 164.517 
164.957 165.723 166.207 166.958 167.389 168.131 168.592 169.435 169.969 
170.825 171.302 172.041 172.428 173.074 173.42 173.19 172.175 172.592 
172.346 171.022 171.508 171.245 171.666 171.424 169.671 170.247 169.996 
170.509 170.257 170.75 170.571 168.296 168.841 168.602 169.182 168.936 
169.499 169.245 169.824 169.564 167.092 167.538 167.265 167.784 167.509 
168.081 167.757 168.358 167.997 168.624 168.271 165.896 166.349 166.014 
166.484 166.118 166.624 166.217 166.778 166.353 166.971 166.598 167.27 
167.003 164.612 165.067 164.671 165.165 164.723 165.207 164.723 165.228 
164.776 165.34 164.968 165.607 165.352 166.076 165.927 163.424 163.77 
163.308 163.754 163.281 163.757 163.256 163.74 163.29 163.82 163.476 
164.059 163.813 164.466 164.316 165.053 164.966 162.38 162.621 162.077 
162.418 161.917 162.334 161.858 162.305 161.883 162.384 162.074 162.635 
162.426 163.02 162.891 163.533 163.484 164.179 164.177 176.419 176.437 
176.806 177.537 176.328 176.767 177.513 177.914 178.685 176.145 176.621 
177.385 177.838 178.627 179.074 179.914 175.927 176.423 177.19 177.675 
178.441 178.941 179.772 180.299 181.121 175.599 176.15 176.887 177.429 
178.16 178.687 179.422 180.008 180.775 181.362 181.976 175.126 175.725 
176.413 177.024 177.723 178.316 178.986 179.564 180.211 180.836 181.425 
181.978 182.321 174.611 175.201 175.864 176.478 177.143 177.778 178.443 
179.057 179.68 180.254 180.808 181.353 181.762 182.177 182.322 174.131 
174.689 175.349 175.933 176.59 177.187 177.851 178.472 179.146 179.739 
180.346 180.84 181.287 181.663 181.888 182.132 182.138 173.684 174.209 
174.84 175.422 176.084 176.668 177.326 177.912 178.582 179.195 179.842 
180.401 180.886 181.278 181.511 181.744 181.775 181.925 181.86 176.593 
177.771 177.214 177.254 178.967 178.43 178.531 177.912 177.891 180.239 
179.681 179.805 179.192 179.206 178.524 178.372 181.467 180.97 181.058 
180.451 180.465 179.833 179.755 178.976 178.678 182.294 182.026 182.021 
181.55 181.462 180.984 180.955 180.357 180.153 179.253 178.785 182.567 
182.542 182.457 182.204 181.971 181.7 181.593 181.326 181.171 180.595 
180.109 179.199 178.544 182.476 182.576 182.49 182.396 182.148 181.975 
181.79 181.679 181.497 181.256 180.782 180.21 179.467 178.71 178.005 
182.224 182.372 182.325 182.343 182.207 182.105 181.974 181.831 181.643 
181.42 180.986 180.589 179.909 179.358 178.641 178.044 177.459 181.943 
182.093 182.094 182.178 182.154 182.164 182.147 182.059 181.93 181.656 
181.257 180.81 180.22 179.716 179.117 178.593 178.064 177.527 177.081 
175.932 176.528 175.826 175.026 177.119 176.414 175.541 174.855 174.047 
177.542 176.923 176.021 175.345 174.454 173.842 173.06 177.729 177.198 
176.289 175.732 174.83 174.227 173.387 172.833 172.066 177.744 177.263 
176.323 175.881 175.037 174.543 173.716 173.163 172.383 171.841 171.102 
177.593 177.207 176.273 175.87 175.07 174.68 173.919 173.45 172.669 
172.155 171.407 170.896 170.18 177.263 177.017 176.193 175.835 175.057 
174.694 173.961 173.577 172.813 172.375 171.601 171.147 170.403 169.948 
169.225 176.862 176.705 176.019 175.753 175.023 174.683 173.944 173.584 
172.836 172.45 171.689 171.279 170.54 170.119 169.405 168.967 168.271 
176.528 176.376 175.776 175.576 174.916 174.628 173.912 173.567 172.844 
172.472 171.754 171.357 170.655 170.248 169.582 169.159 168.513 168.062 
167.437 177.83 178.203 178.332 178.873 178.248 178.546 179.128 179.326 
179.861 178.229 178.564 179.239 179.505 180.104 180.262 180.696 178.247 
178.614 179.413 179.703 180.404 180.539 181.023 181.022 181.268 178.169 
178.601 179.406 179.851 180.623 180.885 181.403 181.406 181.665 181.529 
181.631 178.021 178.442 179.117 179.65 180.371 180.899 181.465 181.705 
181.954 181.91 181.988 181.845 181.867 177.82 178.233 178.788 179.25 
179.847 180.435 181.055 181.557 181.927 182.083 182.149 182.097 182.07 
181.982 181.92 177.49 177.943 178.451 178.883 179.394 179.896 180.506 
181.077 181.617 181.966 182.163 182.19 182.151 182.083 182.014 181.939 
181.845 177.104 177.552 178.066 178.512 179.034 179.484 180.072 180.592 
181.187 181.642 181.985 182.157 182.19 182.156 182.104 182.029 181.995 
181.886 181.835 
POINT_DATA 1002
SCALARS Distance double
LOOKUP_TABLE default
172.289 173.193 172.379 171.347 171.463 171.208 170.279 170.464 170.065 
169.887 169.119 169.39 168.836 168.631 168.526 167.877 168.282 167.561 
167.365 167.3 167.321 166.632 167.256 166.22 166.069 166.017 166.044 
166.173 165.531 166.323 164.899 164.71 164.697 164.674 164.806 165.062 
164.545 165.353 163.728 163.355 163.358 163.354 163.446 163.767 164.099 
163.581 164.336 162.723 162.122 161.994 162.052 162.137 162.428 162.852 
163.184 162.665 163.385 161.872 161.139 160.738 160.722 160.861 161.078 
161.434 161.839 162.195 173.594 172.731 174.034 173.149 174.532 171.787 
173.668 175.043 172.202 170.794 174.144 175.428 172.728 171.227 169.763 
174.419 175.657 173.154 171.739 170.218 168.744 174.608 175.86 173.371 
172.101 170.652 169.174 167.777 174.832 176.04 173.544 172.267 170.927 
169.499 168.121 166.78 174.971 176.095 173.718 172.398 171.101 169.803 
168.447 167.076 165.709 174.948 176.016 173.797 172.541 171.278 170.116 
168.915 167.532 166.08 164.688 175.165 174.039 174.218 173.1 173.275 
172.856 172.117 172.307 171.868 171.572 170.968 171.301 170.679 170.504 
170.358 169.86 170.376 169.338 169.146 169.272 169.242 169.001 169.485 
168.345 167.846 167.883 168.094 167.922 168.12 168.515 167.628 167.018 
166.643 166.68 166.66 166.35 167.113 167.591 166.691 166.193 165.633 
165.32 165.228 165.026 164.769 166.235 166.835 165.677 165.127 164.512 
163.99 163.728 163.564 163.382 163.306 161.989 161.768 160.436 161.703 
159.951 158.795 161.847 159.786 158.158 157.288 162.159 160.17 158.255 
156.905 156.136 162.7 160.915 159.187 157.528 156.257 155.415 163.469 
161.812 160.299 158.73 157.161 155.939 155.138 164.278 162.796 161.298 
159.753 158.213 156.892 155.885 155.17 165.023 163.72 162.273 160.666 
159.118 157.893 156.926 156.038 155.312 165.723 164.493 163.135 161.635 
160.129 158.91 158.027 157.185 156.274 155.538 161.235 159.769 160.481 
158.25 159.069 159.772 156.72 157.511 158.324 159.413 155.435 155.916 
156.813 158.109 159.538 154.751 154.791 155.539 157.004 158.545 159.837 
154.656 154.455 154.865 156.183 157.774 158.966 160.105 154.791 154.61 
154.804 155.681 157.079 158.227 159.17 160.429 154.999 154.888 155.073 
155.565 156.517 157.582 158.45 159.485 160.853 155.543 155.273 156.016 
156.048 156.913 155.46 157.068 157.913 156.351 155.8 157.999 158.897 
157.232 156.603 156.312 158.962 160.017 158.043 157.364 157.039 157.151 
160.15 161.219 159.097 158.291 157.899 157.877 158.078 161.36 162.287 
160.402 159.564 159.052 158.904 158.934 159.091 162.422 163.223 161.657 
160.973 160.438 160.162 160.111 160.166 160.397 163.46 164.186 162.802 
162.264 161.825 161.506 161.39 161.414 161.524 161.794 156.362 156.465 
157.486 157.725 158.663 157.017 158.998 159.798 158.276 157.889 160.223 
161.052 159.551 159.087 158.885 161.581 162.401 160.928 160.492 160.17 
160.017 162.995 163.661 162.473 162.128 161.755 161.403 161.259 164.314 
164.826 163.96 163.741 163.403 162.928 162.592 162.429 165.546 165.956 
165.287 165.12 164.838 164.398 163.99 163.695 163.436 166.695 167.018 
166.499 166.347 166.078 165.712 165.379 165.057 164.695 164.373 166.767 
165.522 166.577 165.179 166.298 164.12 164.928 166.134 163.742 162.687 
164.918 166.096 163.665 162.475 161.296 164.964 166.119 163.761 162.54 
161.299 160.032 165.084 166.291 163.875 162.64 161.376 160.162 159.043 
165.371 166.564 164.155 162.898 161.547 160.275 159.214 158.205 165.674 
166.796 164.507 163.304 161.965 160.585 159.409 158.361 157.271 167.888 
167.843 168.943 168.898 169.977 167.673 169.98 171.05 168.78 167.442 
171.12 172.135 169.967 168.626 167.29 172.207 173.196 171.146 169.862 
168.479 167.229 173.268 174.239 172.24 171.044 169.689 168.418 167.309 
174.295 175.168 173.344 172.221 170.895 169.613 168.533 167.539 175.177 
175.944 174.369 173.402 172.15 170.817 169.696 168.731 167.759 175.971 