# vtk DataFile Version 4.0
vtk output
ASCII
DATASET POLYDATA
POINTS 1002 float
-104.492 -121.397 74.2242 -105.241 -122.439 73.9343 -104.993 -121.894 73.0999 
-104.149 -120.768 73.3754 -104.708 -121.165 72.269 -103.723 -120.15 74.6159 
-103.812 -119.908 72.5568 -104.397 -120.277 71.4795 -103.353 -119.315 73.7701 
-103.052 -118.504 75.1362 -103.464 -118.846 71.7478 -104.079 -119.194 70.7355 
-102.99 -118.262 72.9716 -102.669 -117.461 74.3057 -102.358 -116.744 75.654 
-103.014 -117.687 70.9173 -103.726 -117.975 70.0561 -102.488 -117.167 72.1248 
-102.147 -116.416 73.5037 -101.771 -115.779 74.8369 -101.325 -115.341 76.17 
-102.486 -116.547 70.1507 -103.338 -116.78 69.4169 -101.771 -116.177 71.1882 
-101.368 -115.526 72.6107 -101.021 -114.89 73.9791 -100.564 -114.467 75.3328 
-100.194 -114.048 76.7093 -102.002 -115.407 69.5286 -102.902 -115.631 68.827 
-101.092 -115.147 70.3631 -100.51 -114.643 71.6611 -100.183 -113.995 73.0739 
-99.8858 -113.409 74.3573 -99.6195 -112.918 75.7572 -99.5073 -112.45 77.0551 
-101.516 -114.223 69.0072 -102.389 -114.456 68.3459 -100.648 -113.915 69.7891 
-99.9605 -113.454 70.8933 -99.4965 -112.909 72.2435 -99.2089 -112.294 73.4554 
-99.1058 -111.66 74.6773 -99.075 -111.155 76.0438 -99.0982 -110.8 77.2168 
-100.985 -113.062 68.4843 -101.864 -113.291 67.9323 -100.303 -112.637 69.3288 
-99.7485 -112.054 70.3609 -99.1818 -111.573 71.5509 -98.6411 -111.19 72.71 
-98.4149 -110.688 73.7838 -98.4589 -110.142 75.0335 -98.4987 -109.733 76.3718 
-98.5781 -109.437 77.47 -100.542 -111.976 67.9488 -101.443 -112.218 67.5233 
-99.9888 -111.482 68.8409 -99.6176 -110.774 69.9048 -99.1019 -110.215 70.929 
-98.3728 -109.988 71.963 -97.8468 -109.801 73.0117 -97.7719 -109.442 74.1733 
-97.8424 -109.02 75.543 -97.8833 -108.634 76.8527 -98.0674 -108.294 77.8294 
-105.85 -123.208 73.0605 -105.649 -122.554 72.1491 -106.538 -123.967 71.974 
-106.346 -123.236 71.0517 -107.367 -124.456 70.8891 -105.373 -121.747 71.2952 
-107.224 -123.641 70.101 -108.491 -124.547 70.0499 -106.104 -122.343 70.2589 
-105.08 -120.782 70.5329 -108.379 -123.681 69.3229 -109.766 -124.525 69.1802 
-107.074 -122.636 69.3645 -105.893 -121.231 69.5593 -104.803 -119.579 69.8614 
-109.494 -123.702 68.2712 -110.849 -124.463 68.0584 -108.205 -122.688 68.4658 
-106.923 -121.433 68.6497 -105.63 -119.949 68.896 -104.461 -118.294 69.1894 
-110.429 -123.607 67.0815 -111.842 -124.03 67.0977 -109.183 -122.778 67.3374 
-108.01 -121.537 67.7466 -106.608 -120.225 67.9805 -105.194 -118.767 68.1346 
-104.038 -117.096 68.4727 -111.513 -123.078 66.2954 -112.998 -123.322 66.4681 
-110.136 -122.606 66.318 -108.999 -121.572 66.7461 -107.714 -120.344 67.1761 
-106.152 -119.164 67.2616 -104.773 -117.599 67.474 -103.622 -115.839 67.9663 
-112.75 -122.402 65.7924 -114.154 -122.743 65.8568 -111.265 -122.049 65.657 
-109.963 -121.323 65.7751 -108.751 -120.258 66.2259 -107.337 -119.231 66.5589 
-105.869 -117.931 66.8182 -104.572 -116.127 67.3298 -103.25 -114.449 67.7777 
-113.802 -121.89 65.2402 -115.049 -122.329 65.1785 -112.356 -121.458 65.137 
-110.906 -120.895 65.0023 -109.588 -120.058 65.1972 -108.328 -119.095 65.6756 
-107.062 -117.94 66.2255 -105.82 -116.289 66.9246 -104.462 -114.482 67.5255 
-102.903 -113.125 67.6473 -115.006 -121.544 64.6293 -113.622 -121.016 64.6239 
-114.793 -120.404 64.1784 -113.245 -119.817 64.0043 -114.474 -118.921 63.8055 
-112.058 -120.475 64.428 -112.809 -118.323 63.5293 -114.005 -117.394 63.5261 
-111.596 -119.256 63.8175 -110.5 -119.823 64.3552 -112.304 -116.711 63.3161 
-113.311 -115.991 63.4662 -111.197 -117.672 63.5872 -110.031 -118.525 64.059 
-109.101 -118.926 64.7386 -111.645 -115.096 63.4815 -112.562 -114.509 63.7931 
-110.792 -115.814 63.7176 -109.733 -116.699 64.2515 -108.672 -117.371 64.7636 
-107.895 -117.711 65.4687 -111.001 -113.458 64.1478 -111.952 -112.86 64.5213 
-110.231 -114.049 64.2011 -109.417 -114.701 64.6808 -108.38 -115.338 65.163 
-107.531 -115.761 65.7276 -106.793 -116.044 66.4384 -110.498 -111.796 65.154 
-111.376 -111.294 65.4631 -109.669 -112.386 65.0692 -108.932 -112.955 65.3111 
-108.006 -113.442 65.6679 -107.08 -113.753 66.1167 -106.358 -113.931 66.7953 
-105.495 -114.164 67.3363 -109.973 -110.214 66.1359 -110.699 -109.952 66.3782 
-109.149 -110.622 66.0213 -108.367 -111.12 66.0721 -107.484 -111.614 66.2334 
-106.474 -111.974 66.4646 -105.593 -112.157 66.8955 -104.761 -112.327 67.3651 
-103.796 -112.664 67.5711 -109.36 -108.756 66.8847 -109.991 -108.709 67.1152 
-108.574 -108.873 66.7424 -107.745 -109.105 66.675 -106.865 -109.478 66.6873 
-105.832 -109.941 66.7467 -104.755 -110.375 66.8695 -103.787 -110.745 67.0484 
-102.873 -111.155 67.1698 -102.038 -111.673 67.2701 -100.541 -110.977 67.2934 
-101.046 -110.305 66.8955 -100.022 -109.316 67.4324 -101.808 -109.577 66.7626 
-100.445 -108.428 66.9225 -99.8689 -107.172 67.9346 -102.79 -108.833 66.7794 
-101.116 -107.41 66.6729 -100.243 -106.088 67.293 -99.7637 -104.89 68.3159 
-103.985 -108.109 66.8222 -102.155 -106.378 66.6371 -100.861 -104.932 66.8025 
-100.162 -103.742 67.5569 -99.6344 -102.839 68.4563 -105.222 -107.528 66.8578 
-103.508 -105.578 66.7081 -102 -103.913 66.6064 -100.877 -102.594 66.9505 
-100.136 -101.633 67.7086 -99.6671 -101.057 68.6789 -106.302 -107.203 66.9248 
-104.832 -105.184 66.8342 -103.504 -103.309 66.6688 -102.226 -101.692 66.7359 
-101.061 -100.488 67.164 -100.259 -99.7553 67.9471 -99.835 -99.4248 69.0211 
-107.272 -107.118 67.0727 -105.977 -105.115 67.058 -104.895 -103.117 66.879 
-103.834 -101.27 66.8228 -102.563 -99.7756 67.0138 -101.349 -98.7788 67.4914 
-100.514 -98.2297 68.3324 -100.031 -98.0375 69.4724 -108.188 -107.177 67.2729 
-107.02 -105.24 67.3752 -106.037 -103.186 67.2371 -105.164 -101.26 67.1115 
-104.099 -99.6512 67.2006 -102.857 -98.4549 67.5098 -101.733 -97.6475 68.086 
-100.893 -97.2201 69.0116 -100.329 -97.1227 70.1739 -108.962 -107.279 67.5038 
-107.937 -105.467 67.7048 -107.017 -103.461 67.6881 -106.194 -101.549 67.5916 
-105.297 -99.9407 67.6475 -104.266 -98.6681 67.9135 -103.22 -97.6706 68.3424 
-102.248 -96.9868 69.0144 -101.424 -96.6747 69.9716 -100.82 -96.6418 71.0657 
-99.8874 -110.48 68.0812 -99.6079 -108.515 68.5573 -99.5412 -109.706 69.2444 
-99.3789 -106.25 68.9837 -99.1074 -107.656 69.5914 -99.0764 -108.961 70.2407 
-99.0879 -104.082 69.1271 -98.5102 -105.521 69.6615 -98.2613 -107.086 70.277 
-98.2848 -108.615 71.1094 -99.0863 -102.282 69.3999 -98.2833 -103.587 69.9209 
-97.6828 -105.089 70.418 -97.5296 -106.832 71.2059 -97.5849 -108.532 72.18 
-99.3691 -100.709 69.8971 -98.6644 -102.041 70.6106 -97.8969 -103.271 71.1032 
-97.5164 -104.728 71.6958 -97.3914 -106.624 72.5623 -97.4015 -108.367 73.4608 
-99.5855 -99.1416 70.3589 -99.0732 -100.549 71.2381 -98.3535 -101.789 71.8804 
-97.8443 -102.818 72.4362 -97.6751 -104.325 73.2094 -97.4991 -106.378 74.1548 
-97.4573 -108.06 74.9648 -99.7399 -97.8205 70.9116 -99.2571 -98.9567 71.7343 
-98.5898 -100.245 72.4305 -97.8906 -101.262 73.0513 -97.5985 -102.305 73.8706 
-97.5469 -104.054 74.9209 -97.4089 -106.143 75.8806 -97.4466 -107.687 76.499 
-100.065 -97.0323 71.6774 -99.4807 -97.7239 72.3815 -98.8588 -98.7349 73.0373 
-98.0637 -99.8141 73.6677 -97.4315 -100.795 74.4983 -97.2887 -102.102 75.5708 
-97.3564 -104.002 76.5893 -97.3827 -105.917 77.2824 -97.5777 -107.306 77.6429 
-100.957 -96.4546 72.3615 -100.141 -96.8816 73.0218 -101.257 -96.2154 73.6679 
-100.364 -96.8136 74.3774 -101.615 -96.0424 74.953 -99.4568 -97.536 73.7139 
-100.643 -96.895 75.7703 -101.877 -96.1941 76.4016 -99.6398 -97.5911 75.1235 
-98.752 -98.4856 74.383 -100.907 -97.0572 77.3785 -102.059 -96.5485 78.1002 
-99.9762 -97.8314 76.5895 -99.0332 -98.619 75.8941 -97.9526 -99.5818 75.191 
-101.245 -97.2409 79.0789 -102.38 -96.9185 79.6919 -100.331 -98.0014 78.1794 
-99.5264 -98.9432 77.369 -98.4071 -99.8289 76.7993 -97.4352 -100.801 76.2239 
-101.819 -97.8002 80.3973 -102.957 -97.5863 80.8244 -100.761 -98.3298 79.7122 
-99.895 -99.2062 78.8663 -99.0576 -100.232 78.1452 -98.0939 -101.25 77.6266 
-97.4567 -102.443 77.1727 -102.551 -98.7801 81.3136 -103.599 -98.5426 81.7025 
-101.435 -99.1644 80.8558 -100.29 -99.7218 80.3193 -99.477 -100.595 79.5469 
-98.9185 -101.743 78.6556 -98.268 -102.98 78.0972 -97.665 -104.378 77.7969 
-103.133 -99.6202 82.2881 -104.065 -99.3579 82.6739 -102.177 -100.06 81.7915 
-100.992 -100.538 81.4335 -99.9283 -101.16 80.9921 -99.4411 -102.193 80.0022 
-99.1423 -103.469 78.9328 -98.5213 -104.746 78.4405 -97.8525 -106.057 78.1861 
-103.489 -100.175 83.4104 -104.399 -99.9833 83.6844 -102.692 -100.636 82.8504 
-101.763 -101.244 82.333 -100.691 -101.888 82.0359 -99.9383 -102.772 81.4275 
-99.6532 -103.952 80.2967 -99.3217 -105.135 79.3463 -98.7089 -106.24 78.8751 
-98.1923 -107.324 78.4566 -101.893 -96.2735 71.3773 -102.151 -95.8766 72.7176 
-103.185 -95.9007 71.7839 -103.408 -95.2262 73.1813 -104.425 -95.7396 72.2485 
-102.537 -95.3628 74.0557 -104.508 -95.0811 73.7556 -105.583 -96.0957 72.8243 
-103.671 -94.6653 74.6145 -102.894 -95.2333 75.404 -105.757 -95.6889 74.3404 
-106.805 -96.7421 73.5154 -104.685 -94.8661 75.2455 -103.938 -95.003 76.0173 
-103.102 -95.8204 76.947 -107.31 -96.4332 74.8402 -107.996 -97.3199 74.1502 
-106.208 -95.6874 75.7369 -105.147 -95.5321 76.6739 -104.294 -95.9874 77.6051 
-103.314 -96.4739 78.6954 -108.645 -97.0589 75.3107 -109.015 -97.9596 74.5864 
-107.998 -96.3719 76.1747 -107.007 -96.0821 77.2713 -105.94 -96.2219 78.4174 
-104.849 -96.5241 79.4256 -103.762 -96.9069 80.2524 -109.581 -97.8732 75.7887 
-109.954 -98.7676 74.8955 -109.222 -97.0765 76.7383 -108.689 -96.5367 77.8259 
-107.825 -96.3631 79.1169 -106.713 -96.5092 80.2651 -105.492 -96.9476 80.9496 
-104.389 -97.6688 81.3493 -110.436 -98.8202 76.1908 -110.814 -99.6102 75.2087 
-110.058 -98.0148 77.275 -109.685 -97.3055 78.3052 -109.088 -96.934 79.4221 
-108.2 -96.937 80.6523 -107.152 -97.2751 81.5248 -106.02 -97.9241 81.9081 
-104.935 -98.6815 82.234 -111.208 -99.7328 76.4716 -111.428 -100.485 75.5526 
-110.91 -98.9653 77.5803 -110.554 -98.2341 78.62 -109.973 -97.8544 79.519 
[...]
CELL_DATA 2000
SCALARS Distance double
LOOKUP_TABLE default
175.939 174.98 175.262 174.823 173.89 174.215 173.731 174.058 173.574 
172.679 173.039 172.505 172.872 172.334 172.709 172.2 171.354 171.732 
171.143 171.555 170.987 171.398 170.861 171.288 170.816 170.003 170.35 
169.703 170.119 169.536 169.992 169.449 169.907 169.42 169.903 169.48 
168.693 168.998 168.305 168.663 168.046 168.503 167.961 168.45 167.932 
168.444 167.987 168.541 168.14 167.388 167.687 166.975 167.287 166.624 
167.025 166.466 166.944 166.415 166.913 166.412 166.973 166.562 167.176 
166.825 166.083 166.37 165.671 165.976 165.318 165.654 165.081 165.492 
164.982 165.426 164.939 165.427 165.033 165.607 165.316 165.921 165.663 
164.863 165.092 164.427 164.719 164.124 164.418 163.858 164.185 163.677 
164.062 163.613 164.046 163.701 164.201 163.982 164.524 164.357 164.891 
164.716 176.463 176.957 176.325 175.52 177.404 176.791 175.955 175.316 
174.451 177.819 177.217 176.392 175.743 174.854 174.202 173.28 178.236 
177.638 176.821 176.177 175.281 174.608 173.657 172.982 172.003 178.538 
178.016 177.183 176.587 175.686 175.025 174.052 173.358 172.346 171.665 
170.669 178.607 178.196 177.375 176.884 176.015 175.413 174.458 173.759 
172.728 172.009 170.977 170.318 169.346 178.598 178.206 177.429 177.009 
176.204 175.702 174.82 174.179 173.192 172.44 171.398 170.654 169.643 
168.994 168.041 178.677 178.253 177.5 177.067 176.278 175.835 174.998 
174.486 173.583 172.93 171.953 171.173 170.164 169.379 168.391 167.702 
166.762 178.765 178.37 177.611 177.164 176.337 175.884 175.022 174.58 
173.718 173.234 172.354 171.727 170.79 170.008 169.028 168.197 167.217 
166.471 165.563 178.526 177.605 177.858 177.338 176.375 176.764 176.227 
176.549 175.994 174.965 175.403 174.865 175.301 174.763 175.135 174.616 
173.524 173.944 173.411 173.893 173.413 173.847 173.36 173.756 173.3 
172.121 172.497 171.945 172.438 172.001 172.492 172.036 172.468 172.011 
172.446 171.985 170.845 171.144 170.589 171.014 170.597 171.09 170.651 
171.105 170.615 171.089 170.609 171.069 170.503 169.744 169.971 169.442 
169.761 169.352 169.763 169.339 169.734 169.212 169.639 169.109 169.606 
169.031 169.468 168.775 168.744 168.943 168.386 168.658 168.17 168.544 
168.057 168.442 167.852 168.227 167.593 168.048 167.409 167.896 167.183 
167.626 166.899 167.749 167.942 167.295 167.541 166.89 167.247 166.595 
167.031 166.321 166.758 165.992 166.452 165.693 166.195 165.442 165.943 
165.221 165.734 165.144 164.128 164.033 163.531 162.61 164.134 163.448 
162.303 161.968 161.171 164.354 163.547 162.199 161.642 160.616 160.48 
159.754 164.662 163.781 162.323 161.547 160.288 159.915 159.035 159.009 
158.34 165.027 164.134 162.682 161.751 160.387 159.7 158.651 158.359 
157.62 157.626 157.105 165.412 164.554 163.207 162.228 160.923 160.013 
158.906 158.232 157.375 157.055 156.46 156.503 156.159 165.865 165.039 
163.849 162.875 161.688 160.716 159.664 158.765 157.86 157.145 156.447 
156.082 155.656 155.69 155.503 166.404 165.624 164.592 163.643 162.558 
161.578 160.591 159.65 158.791 157.9 157.194 156.456 155.985 155.551 
155.348 155.267 155.268 166.946 166.246 165.343 164.469 163.48 162.519 
161.589 160.642 159.857 158.947 158.324 157.462 157.022 156.283 156.064 
155.564 155.573 155.359 155.53 163.984 162.575 163.351 163.566 161.245 
162.008 162.25 163.032 163.299 159.849 160.651 160.836 161.674 161.904 
162.748 163.013 158.414 159.18 159.253 160.108 160.251 161.21 161.475 
162.435 162.772 157.268 157.864 157.958 158.581 158.7 159.515 159.829 
160.831 161.294 162.275 162.732 156.458 156.965 157.25 157.646 157.865 
158.295 158.65 159.369 159.964 160.888 161.537 162.399 162.936 155.796 
156.282 156.688 157.149 157.464 157.783 158.056 158.49 158.99 159.745 
160.472 161.341 162.033 162.766 163.313 155.43 155.72 156.088 156.57 
156.907 157.34 157.522 157.918 158.177 158.814 159.4 160.303 161.055 
161.916 162.553 163.217 163.719 155.57 155.56 155.839 156.076 156.406 
156.754 156.983 157.317 157.514 157.978 158.425 159.21 159.949 160.89 
161.629 162.431 162.993 163.617 164.08 155.898 156.495 156.102 156.052 
157.199 156.755 156.651 156.341 156.457 158.053 157.537 157.462 157.019 
157.026 156.773 156.95 159.098 158.495 158.456 157.939 157.975 157.505 
157.577 157.275 157.505 160.267 159.608 159.551 159.003 159.098 158.588 
158.708 158.168 158.347 157.986 158.442 161.559 160.843 160.791 160.158 
160.242 159.73 159.919 159.408 159.635 159.114 159.53 159.219 159.941 
162.971 162.234 162.238 161.511 161.57 160.934 161.106 160.603 160.894 
160.438 160.845 160.458 161.061 160.855 161.602 164.314 163.657 163.68 
162.999 163.052 162.351 162.472 161.863 162.147 161.681 162.114 161.734 
162.253 161.967 162.555 162.396 162.985 165.47 164.901 164.902 164.338 
164.391 163.786 163.895 163.281 163.526 163.001 163.412 162.991 163.48 
163.122 163.616 163.334 163.825 163.636 164.107 156.089 156.75 156.47 
156.673 157.537 157.142 157.243 157.053 157.32 158.558 157.963 157.948 
157.623 157.86 157.745 158.141 159.957 159.159 159.091 158.476 158.69 
158.4 158.875 158.731 159.247 161.499 160.711 160.713 159.891 160.091 
159.507 160.017 159.677 160.263 159.978 160.488 162.88 162.24 162.364 
161.623 161.866 161.156 161.627 161.073 161.645 161.176 161.674 161.271 
161.766 164.154 163.589 163.79 163.205 163.502 162.904 163.328 162.761 
163.26 162.698 163.155 162.599 163.043 162.611 163.141 165.411 164.882 
165.119 164.592 164.893 164.389 164.753 164.291 164.713 164.25 164.672 
164.139 164.536 163.995 164.431 164.008 164.495 166.571 166.118 166.372 
165.903 166.189 165.707 166.008 165.56 165.908 165.524 165.926 165.537 
165.931 165.463 165.829 165.338 165.712 165.292 165.679 166.981 166.546 
166.328 165.391 166.117 165.856 164.87 164.622 163.587 165.802 165.467 
164.492 164.157 163.134 162.811 161.775 165.659 165.252 164.327 163.902 
162.93 162.496 161.49 161.091 160.121 165.67 165.216 164.319 163.837 
162.891 162.409 161.447 160.962 160.015 159.572 158.685 165.771 165.305 
164.435 163.903 162.956 162.426 161.49 160.993 160.104 159.61 158.757 
158.275 157.473 165.92 165.456 164.657 164.103 163.223 162.608 161.728 
161.141 160.325 159.784 159.016 158.483 157.739 157.212 156.541 166.152 
165.67 164.954 164.405 163.643 163.016 162.246 161.573 160.82 160.159 
159.44 158.837 158.171 157.606 157.006 156.469 156.001 166.507 166 
165.357 164.792 164.118 163.517 162.844 162.199 161.493 160.787 160.038 
159.351 158.669 158.091 157.554 157.034 156.625 156.129 155.873 167.821 
168.975 168.102 167.478 170.209 169.321 168.746 167.776 167.105 171.487 
170.595 170.048 169.086 168.431 167.42 166.766 172.764 171.876 171.314 
170.379 169.734 168.749 168.084 167.114 166.556 173.986 173.132 172.563 
171.635 171.007 170.042 169.409 168.437 167.868 166.959 166.516 175.087 
174.311 173.789 172.895 172.31 171.35 170.769 169.792 169.252 168.299 
167.829 166.955 166.577 176.065 175.369 174.909 174.105 173.568 172.666 
172.106 171.169 170.65 169.709 169.23 168.302 167.874 167.022 166.681 
176.945 176.314 175.887 175.179 174.68 173.873 173.315 172.449 171.923 
171.061 170.6 169.709 169.267 168.359 167.97 167.144 166.864 177.714 
177.148 176.735 176.106 175.649 174.932 174.416 173.606 173.086 172.269 
171.832 171.025 170.621 169.753 169.343 168.467 168.135 167.359 167.154 
177.981 178.045 177.681 177.002 178.108 177.727 177.024 176.662 175.939 
178.197 177.795 177.084 176.694 175.949 175.556 174.75 178.32 177.901 
177.172 176.757 175.993 175.575 174.74 174.309 173.455 178.404 178.022 
177.259 176.829 176.013 175.592 174.744 174.311 173.45 173.025 172.22 
178.356 178.051 177.295 176.885 176.029 175.587 174.722 174.3 173.451 
173.034 172.208 171.818 171.027 178.304 177.986 177.28 176.894 176.075 
175.621 174.771 174.314 173.478 173.037 172.193 171.781 170.938 170.574 
169.758 178.4 178.015 177.338 176.921 176.155 175.696 174.887 174.417 
173.597 173.115 172.254 171.773 170.899 170.475 169.653 169.299 168.552 
178.482 178.134 177.449 177.039 176.281 175.814 175.002 174.534 173.716 
173.249 172.401 171.888 171.015 170.507 169.701 169.27 168.571 168.207 
167.585 178.185 177.224 177.569 177.182 176.088 176.528 176.191 176.499 
176.008 174.869 175.331 174.965 175.384 174.898 175.214 174.675 173.601 
174.06 173.64 174.083 173.592 173.988 173.46 173.831 173.34 172.262 
172.745 172.314 172.75 172.274 172.673 172.18 172.57 172.093 172.492 
172.019 170.798 171.341 170.904 171.394 170.925 171.37 170.898 171.309 
170.837 171.231 170.746 171.135 170.643 169.242 169.819 169.386 169.928 
169.46 169.967 169.478 169.965 169.477 169.939 169.456 169.869 169.392 
169.777 169.343 167.741 168.279 167.901 168.431 168.022 168.508 168.039 
168.502 168.013 168.502 168.053 168.545 168.132 168.566 168.176 168.568 
168.227 166.436 166.877 166.541 167.026 166.688 167.153 166.762 167.161 
166.719 167.108 166.699 167.155 166.813 167.297 166.975 167.42 167.103 
167.518 167.241 178.646 178.935 178.399 177.593 179.181 178.626 177.746 
177.248 176.44 179.345 178.879 178.055 177.477 176.637 176.097 175.283 
179.161 178.941 178.245 177.826 176.988 176.377 175.449 174.896 174.022 
178.62 178.552 177.879 177.793 176.988 176.602 175.535 174.993 173.943 
173.525 172.622 178.09 177.944 177.194 177.196 176.437 176.314 175.268 
174.874 173.708 173.319 172.315 172.036 171.133 177.688 177.479 176.68 
176.541 175.794 175.687 174.794 174.498 173.413 173.017 171.982 171.669 
170.73 170.475 169.563 177.221 177.084 176.307 176.112 175.34 175.16 
174.348 174.089 173.142 172.763 171.758 171.372 170.395 170.067 169.121 
168.874 168.015 176.646 176.585 175.868 175.727 174.962 174.77 173.96 
173.717 172.831 172.515 171.555 171.177 170.178 169.782 168.8 168.468 
167.595 167.39 166.675 179.29 180.373 179.851 179.742 181.287 180.934 
180.975 180.305 180.052 182.026 181.767 181.928 181.489 181.324 180.558 
180.153 182.772 182.462 182.625 182.35 182.34 181.753 181.348 180.514 
179.927 183.517 183.176 183.255 183.013 183.069 182.672 182.381 181.644 
181.02 180.136 179.438 184.126 183.812 183.779 183.562 183.531 183.281 
183.005 182.504 181.914 181.166 180.447 179.603 178.93 184.652 184.325 
184.15 183.918 183.736 183.566 183.223 182.914 182.313 181.814 181.097 
180.477 179.779 179.077 178.446 185.107 184.796 184.495 184.177 183.837 
183.627 183.254 183.02 182.478 182.08 181.394 180.908 180.219 179.709 
179.052 178.492 177.871 185.341 185.149 184.812 184.469 184.01 183.696 
183.271 183.039 182.608 182.281 181.708 181.219 180.558 180.044 179.405 
178.924 178.312 177.82 177.231 185.29 184.956 185.058 184.772 184.419 
184.597 184.269 184.342 183.923 183.66 183.923 183.557 183.726 183.311 
183.435 183.097 182.669 183.027 182.646 182.914 182.52 182.748 182.446 
182.671 182.413 181.527 181.943 181.59 181.936 181.558 181.875 181.576 
181.919 181.658 181.928 181.55 180.368 180.787 180.48 180.867 180.525 
180.871 180.535 180.923 180.627 181.02 180.632 180.892 180.39 179.241 
179.65 179.356 179.767 179.463 179.834 179.48 179.835 179.485 179.888 
179.527 179.877 179.418 179.67 179.201 178.119 178.531 178.233 178.65 
178.359 178.762 178.422 178.77 178.394 178.754 178.411 178.78 178.407 
178.694 178.26 178.514 178.107 176.999 177.414 177.133 177.541 177.261 
177.662 177.345 177.703 177.337 177.68 177.347 177.717 177.404 177.725 
177.341 177.589 177.168 177.433 177.049 176.278 175.207 175.984 176.425 
174.005 174.873 175.356 176.132 176.559 172.667 173.607 174.125 175.006 
175.461 176.239 176.623 171.294 172.232 172.755 173.707 174.2 175.073 
175.486 176.258 176.614 169.958 170.859 171.34 172.298 172.814 173.765 
174.249 175.097 175.523 176.268 176.657 168.642 169.52 169.952 170.872 
171.361 172.346 172.879 173.832 174.326 175.169 175.604 176.346 176.723 
167.353 168.205 168.638 169.507 169.968 170.902 171.426 172.419 172.937 
173.891 174.33 175.2 175.565 176.345 176.642 166.167 166.953 167.408 
168.242 168.718 169.575 170.077 170.994 171.508 172.458 172.918 173.836 
174.216 175.076 175.399 176.185 176.463 165.157 165.836 166.278 167.065 
167.563 168.383 168.879 169.715 170.214 171.089 171.588 172.467 172.92 
173.752 174.147 174.934 175.288 176.031 176.352 176.091 174.999 175.481 
175.319 173.85 174.348 174.169 174.658 174.441 172.607 173.142 172.927 
173.455 173.193 173.691 173.402 171.232 171.797 171.512 172.107 171.783 
172.341 171.977 172.54 172.211 169.825 170.344 169.964 170.567 170.189 
170.81 170.398 171.007 170.619 171.259 170.919 168.489 168.937 168.488 
168.996 168.567 169.157 168.74 169.36 168.935 169.584 169.189 169.882 
169.52 167.168 167.599 167.125 167.567 167.101 167.593 167.159 167.716 
167.288 167.887 167.46 168.113 167.728 168.442 168.118 165.877 166.269 
165.787 166.213 165.738 166.184 165.717 166.2 165.756 166.287 165.881 
166.455 166.108 166.729 166.462 167.138 166.947 164.775 165.053 164.574 
164.917 164.449 164.844 164.369 164.795 164.328 164.805 164.415 164.958 
164.684 165.26 165.076 165.658 165.537 166.151 166.085 179.453 179.406 
179.788 180.47 179.365 179.75 180.489 180.827 181.493 179.406 179.772 
180.526 180.857 181.548 181.845 182.512 179.334 179.792 180.546 180.914 
181.596 181.898 182.587 182.904 183.621 178.991 179.567 180.312 180.834 
181.549 181.943 182.645 182.987 183.728 184.045 184.644 178.556 179.13 
179.852 180.458 181.218 181.786 182.539 183.004 183.711 184.092 184.649 
184.883 185.124 178.153 178.703 179.4 179.974 180.701 181.338 182.095 
182.728 183.406 183.925 184.411 184.755 184.99 185.126 185.157 177.683 
178.266 178.913 179.497 180.124 180.754 181.397 182.102 182.72 183.392 
183.859 184.36 184.626 184.913 185.039 185.146 185.224 177.128 177.717 
178.293 178.908 179.443 180.076 180.591 181.283 181.799 182.531 182.985 
183.64 183.958 184.443 184.642 184.95 185.087 185.254 185.354 179.641 
180.647 180.153 180.121 181.66 181.172 181.139 180.583 180.457 182.715 
182.216 182.213 181.623 181.497 180.886 180.671 183.841 183.327 183.356 
182.741 182.626 181.971 181.76 181.07 180.702 184.768 184.39 184.359 
183.839 183.685 183.087 182.859 182.187 181.807 181.011 180.45 185.125 
185.008 184.871 184.6 184.374 183.979 183.713 183.191 182.788 182.076 
181.475 180.644 179.999 185.126 185.096 184.956 184.847 184.652 184.45 
184.217 183.875 183.487 182.921 182.3 181.565 180.867 180.132 179.545 
185.24 185.131 185.065 184.92 184.81 184.651 184.486 184.254 183.91 
183.484 182.878 182.259 181.539 180.881 180.249 179.649 179.142 185.43 
185.344 185.313 185.142 185.027 184.84 184.634 184.438 184.061 183.764 
183.167 182.707 181.999 181.449 180.8 180.257 179.715 179.2 178.72 
179.056 179.506 178.953 178.169 179.834 179.344 178.568 177.947 176.994 
180.001 179.592 178.829 178.294 177.354 176.675 175.618 179.905 179.604 
178.777 178.41 177.484 176.962 175.927 175.262 174.189 179.565 179.33 
178.417 178.165 177.222 176.907 175.933 175.476 174.451 173.83 172.789 
179.177 178.937 178.056 177.772 176.87 176.572 175.672 175.349 174.436 
173.996 173.015 172.43 171.463 178.857 178.62 177.857 177.533 176.748 
176.37 175.567 175.167 174.34 173.931 173.054 172.577 171.656 171.127 
170.282 178.544 178.362 177.678 177.409 176.696 176.359 175.624 175.21 
174.418 173.948 173.11 172.624 171.767 171.276 170.451 169.986 169.249 
178.165 178.047 177.394 177.206 176.509 176.267 175.541 175.235 174.455 
174.053 173.216 172.743 171.904 171.413 170.611 170.14 169.392 168.966 
168.269 179.151 179.046 179.449 180.11 178.934 179.291 179.94 180.357 
180.973 179.013 179.273 179.947 180.257 180.948 181.247 181.821 179.097 
179.402 180.117 180.402 181.187 181.424 182.128 182.227 182.742 179.02 
179.416 180.115 180.512 181.271 181.661 182.407 182.638 183.192 183.197 
183.568 178.901 179.305 179.975 180.389 181.03 181.515 182.17 182.671 
183.246 183.536 183.922 183.949 184.212 178.812 179.204 179.882 180.25 
180.852 181.219 181.805 182.271 182.894 183.367 183.907 184.172 184.545 
184.558 184.8 178.72 179.108 179.78 180.163 180.801 181.124 181.75 
182.064 182.74 183.104 183.767 184.097 184.606 184.789 185.108 185.105 
185.268 178.608 178.985 179.611 180.018 180.665 181.065 181.75 182.112 
182.82 183.135 183.778 184.047 184.525 184.755 185.05 185.22 185.368 
185.419 185.449 
POINT_DATA 1002
SCALARS Distance double
LOOKUP_TABLE default
175.537 176.576 175.707 174.545 174.692 174.391 173.412 173.57 173.241 
173.093 172.139 172.33 171.967 171.799 171.713 170.731 171.003 170.563 
170.434 170.356 170.383 169.317 169.69 169.065 168.983 168.935 168.973 
169.089 167.99 168.401 167.61 167.466 167.438 167.428 167.564 167.773 
166.674 167.092 166.264 166.002 165.935 165.877 165.933 166.194 166.51 
165.346 165.811 164.995 164.7 164.545 164.469 164.473 164.697 165.06 
165.42 164.119 164.659 163.818 163.564 163.315 163.175 163.198 163.434 
163.819 164.193 164.536 177.108 176.163 177.602 176.609 178.004 175.094 
177.04 178.414 175.529 173.943 177.462 178.836 175.963 174.354 172.677 
177.752 179.029 176.337 174.76 173.047 171.316 177.811 178.984 176.566 
175.145 173.473 171.667 169.95 177.826 178.986 176.652 175.397 173.922 
172.184 170.347 168.634 177.951 179.095 176.727 175.459 174.142 172.688 
170.991 169.159 167.384 178.066 179.136 176.817 175.469 174.141 172.873 
171.505 169.88 168.051 166.22 178.378 177.133 177.307 175.854 175.968 
175.699 174.392 174.54 174.353 174.241 172.904 173.13 172.94 172.95 
172.89 171.458 171.778 171.476 171.593 171.569 171.579 170.199 170.563 
170.114 170.208 170.159 170.125 170.129 169.157 169.518 168.976 168.972 
168.843 168.639 168.57 168.401 168.16 168.558 167.848 167.691 167.515 
167.204 166.941 166.721 166.43 167.11 167.583 166.619 166.208 165.892 
165.561 165.216 164.927 164.681 164.553 163.173 162.868 161.793 162.796 
161.248 160.477 162.92 160.885 159.723 159.068 163.212 160.841 159.145 
158.245 157.711 163.633 161.206 159.12 157.695 156.928 156.68 164.141 
161.85 159.719 157.887 156.551 155.907 155.896 164.772 162.637 160.582 
158.695 157.004 155.793 155.274 155.346 165.485 163.524 161.518 159.677 
158.006 156.577 155.59 155.185 155.279 166.147 164.401 162.519 160.734 
159.162 157.805 156.686 155.921 155.617 155.699 162.763 161.473 162.52 
160.009 161.034 162.164 158.468 159.286 160.436 161.83 157.418 157.993 
158.826 160.231 161.825 156.804 157.534 158.074 159.056 160.614 162.178 
156.152 157.116 157.749 158.349 159.574 161.239 162.691 155.67 156.449 
157.162 157.661 158.527 160.108 161.827 163.148 155.735 156.116 156.658 
157.134 157.753 159.003 160.743 162.323 163.513 156.264 156.31 156.916 
157.044 157.644 156.603 157.93 158.592 157.416 157.064 158.968 159.74 
158.475 158.038 157.635 160.121 160.944 159.57 159.254 158.837 158.576 
161.468 162.266 160.789 160.372 160.138 159.934 160.084 162.97 163.678 
162.28 161.646 161.304 161.244 161.36 161.744 164.324 164.942 163.748 
163.13 162.642 162.5 162.601 162.802 163.123 165.44 166.03 164.944 
164.484 164.075 163.864 163.877 163.967 164.081 164.275 156.307 156.845 
157.105 157.483 158.03 157.405 158.381 159.267 157.986 158.193 159.834 
160.774 159.064 159.023 159.414 161.53 162.195 160.779 160.435 160.597 
160.784 163 163.449 162.566 162.258 162.191 162.153 162.089 164.321 
164.693 164.052 163.892 163.838 163.755 163.561 163.481 165.633 165.908 
165.406 165.225 165.145 165.159 165.104 164.947 164.867 166.815 166.993 
166.672 166.491 166.311 166.272 166.35 166.341 166.202 166.069 167.215 
165.626 166.799 165.146 166.41 163.843 164.847 166.15 163.487 162.074 
164.761 166.07 163.375 161.931 160.469 164.821 166.124 163.378 161.923 
160.49 159.089 164.972 166.221 163.514 161.98 160.572 159.253 157.933 
165.178 166.365 163.825 162.335 160.873 159.532 158.268 157.022 165.472 
166.623 164.215 162.891 161.514 160.076 158.715 157.533 156.469 168.67 
168.423 169.836 169.707 171.087 168.11 170.996 172.385 169.444 167.743 
172.251 173.662 170.7 169.063 167.452 173.486 174.814 171.956 170.368 
168.8 167.357 174.638 175.813 173.249 171.729 170.214 168.746 167.388 
175.66 176.727 174.434 173.025 171.567 170.173 168.776 167.461 176.559 
177.554 175.446 174.165 172.759 171.447 170.184 168.844 167.608 177.335 
178.259 176.315 175.188 173.899 172.606 171.448 170.236 168.953 167.847 