# vtk DataFile Version 4.0
vtk output
ASCII
DATASET POLYDATA
POINTS 1002 float
-104.031 -122.308 73.7497 -104.859 -123.133 73.3214 -104.732 -122.403 72.8393 
-103.994 -121.406 73.281 -104.7 -121.415 72.3996 -103.396 -121.247 74.2069 
-103.983 -120.231 72.8084 -104.58 -120.31 71.9265 -103.415 -120.078 73.7242 
-103.001 -119.649 74.7774 -103.78 -119.009 72.2426 -104.315 -119.25 71.3301 
-103.277 -118.723 73.2022 -102.835 -118.322 74.2645 -102.53 -117.76 75.5189 
-103.422 -117.833 71.5852 -104.038 -118.098 70.7303 -102.887 -117.475 72.6036 
-102.329 -117.114 73.7052 -101.917 -116.713 74.9454 -101.624 -116.338 76.274 
-102.967 -116.585 70.9957 -103.753 -116.708 70.36 -102.346 -116.369 71.9549 
-101.67 -116.171 73.1129 -101.059 -115.932 74.3474 -100.704 -115.62 75.641 
-100.474 -115.333 76.8579 -102.393 -115.378 70.5329 -103.371 -115.365 70.1318 
-101.653 -115.324 71.3079 -100.996 -115.278 72.4633 -100.346 -115.153 73.7376 
-99.8727 -114.845 75.0054 -99.6304 -114.467 76.2415 -99.5526 -114.124 77.3196 
-101.873 -114.358 70.0687 -102.951 -114.28 69.7953 -101.014 -114.352 70.6891 
-100.376 -114.27 71.7858 -99.8672 -114.092 73.1145 -99.4027 -113.754 74.3654 
-99.0125 -113.387 75.5831 -98.8476 -113.082 76.7776 -98.9356 -112.804 77.7855 
-101.565 -113.306 69.6279 -102.6 -113.248 69.4021 -100.721 -113.298 70.1804 
-100.072 -113.134 71.193 -99.6416 -112.834 72.5548 -99.2714 -112.439 73.8413 
-98.7361 -112.117 74.9362 -98.2687 -111.975 76.1129 -98.1968 -111.867 77.306 
-98.4393 -111.698 78.27 -101.422 -112.067 69.3722 -102.368 -112.113 69.1554 
-100.69 -112.027 69.9009 -100.09 -111.855 70.7975 -99.6557 -111.542 72.0743 
-99.3575 -111.165 73.4475 -98.8199 -110.862 74.5206 -98.042 -110.773 75.4839 
-97.5807 -110.816 76.6549 -97.6661 -110.798 77.8194 -98.0456 -110.703 78.7142 
-105.638 -123.556 72.5363 -105.515 -122.749 72.0121 -106.425 -123.948 71.642 
-106.275 -123.127 71.0834 -107.177 -124.221 70.7031 -105.432 -121.696 71.5699 
-107.029 -123.39 70.1126 -108.065 -124.27 69.8234 -106.177 -122.007 70.6425 
-105.266 -120.56 71.0952 -107.974 -123.34 69.1607 -109.199 -123.996 69.0266 
-106.957 -122.208 69.6176 -106.052 -120.79 70.1655 -105.047 -119.481 70.4978 
-109.104 -122.979 68.3113 -110.299 -123.565 68.2464 -107.857 -122.166 68.5696 
-106.812 -120.982 69.092 -105.89 -119.651 69.5928 -104.895 -118.197 70.0169 
-110.143 -122.536 67.5956 -111.163 -123.2 67.4587 -108.871 -121.865 67.6976 
-107.563 -121.022 67.9996 -106.556 -119.828 68.5351 -105.767 -118.241 69.2392 
-104.738 -116.598 69.8698 -111.053 -121.996 66.9586 -111.998 -122.678 66.7584 
-109.894 -121.332 67.0497 -108.51 -120.698 67.1575 -107.234 -119.8 67.521 
-106.402 -118.3 68.2993 -105.662 -116.514 69.2536 -104.45 -115.131 69.7895 
-111.984 -121.185 66.4379 -112.927 -121.792 66.2716 -110.853 -120.595 66.5133 
-109.556 -120.062 66.5665 -108.232 -119.374 66.818 -107.147 -118.165 67.4533 
-106.384 -116.508 68.4559 -105.458 -115.016 69.2999 -104.062 -114.001 69.5266 
-112.896 -120.267 66.1154 -113.792 -120.829 66.0008 -111.727 -119.789 66.0737 
-110.422 -119.38 66.0215 -109.225 -118.805 66.2623 -108.136 -117.801 66.8423 
-107.159 -116.414 67.691 -106.267 -115.023 68.6225 -105.135 -113.893 69.1782 
-103.7 -112.962 69.2268 -113.998 -119.695 65.8994 -112.872 -119.151 65.8037 
-113.947 -118.72 65.5767 -112.456 -118.187 65.099 -113.567 -117.628 64.8647 
-111.378 -118.788 65.474 -111.839 -117.035 64.3007 -113.019 -116.311 64.397 
-110.78 -117.776 64.6909 -110.019 -118.338 65.5044 -111.475 -115.681 64.4221 
-112.627 -115.105 64.9592 -110.359 -116.444 64.4315 -109.621 -117.052 65.1863 
-109.012 -117.427 66.1525 -111.416 -114.408 65.6148 -112.366 -114.004 66.1161 
-110.315 -114.954 65.3081 -109.365 -115.48 65.5144 -108.678 -115.819 66.2281 
-107.964 -116.109 67.0236 -111.122 -113.119 66.8084 -111.84 -112.755 67.1135 
-110.194 -113.481 66.5843 -109.086 -113.816 66.4047 -108.117 -114.116 66.5253 
-107.439 -114.452 67.1336 -106.859 -114.787 67.9298 -110.428 -111.76 67.6586 
-111.058 -111.524 68.0462 -109.69 -111.955 67.4079 -108.66 -112.107 67.1637 
-107.538 -112.323 66.9617 -106.767 -112.745 67.2487 -106.296 -113.257 68.0026 
-105.779 -113.633 68.7107 -109.796 -110.488 68.5205 -110.429 -110.432 68.9983 
-109.162 -110.499 68.0754 -108.3 -110.496 67.7099 -107.226 -110.591 67.4249 
-106.358 -110.958 67.5194 -105.81 -111.55 68.1083 -105.223 -112.101 68.7194 
-104.461 -112.532 69.0448 -109.478 -109.266 69.3019 -110.102 -109.32 69.7011 
-108.889 -109.183 68.8365 -108.149 -109.118 68.3889 -107.153 -109.146 68.0362 
-106.186 -109.382 67.9797 -105.47 -109.85 68.3421 -104.759 -110.391 68.7997 
-103.877 -110.908 69.0123 -103.019 -111.47 69.0611 -101.632 -110.75 69.205 
-102.242 -109.947 69.1059 -101.077 -109.247 69.4706 -103.135 -109.286 69.0723 
-101.595 -108.353 69.2225 -100.678 -107.673 69.7407 -104.122 -108.742 68.9587 
-102.42 -107.567 69.1066 -101.143 -106.627 69.3389 -100.413 -105.892 70.0319 
-105.037 -108.263 68.7207 -103.474 -106.916 69.1132 -101.986 -105.632 69.2238 
-100.952 -104.737 69.6952 -100.293 -104.109 70.6229 -106.049 -107.923 68.6153 
-104.664 -106.473 69.129 -103.262 -104.91 69.3393 -102.035 -103.794 69.6646 
-100.992 -103.141 70.4286 -100.307 -102.667 71.3982 -107.195 -107.785 68.823 
-105.937 -106.301 69.2387 -104.678 -104.645 69.4805 -103.574 -103.329 69.7783 
-102.338 -102.532 70.3976 -101.183 -101.916 71.1847 -100.441 -101.418 71.9935 
-108.16 -107.794 69.2026 -107.1 -106.337 69.5337 -105.887 -104.784 69.7691 
-104.908 -103.385 70.0426 -103.892 -102.383 70.559 -102.631 -101.52 71.1745 
-101.511 -100.765 71.7714 -100.706 -100.346 72.5332 -108.854 -107.883 69.5955 
-107.999 -106.458 69.8846 -106.874 -105.09 70.2293 -105.849 -103.762 70.6017 
-105 -102.601 71.0506 -104.041 -101.549 71.5272 -102.967 -100.541 71.9322 
-101.964 -99.8931 72.4689 -101.119 -99.7189 73.3493 -109.484 -108.003 69.9449 
-108.735 -106.605 70.1935 -107.759 -105.373 70.6438 -106.752 -104.196 71.2086 
-105.874 -102.971 71.6995 -105.072 -101.821 72.098 -104.272 -100.753 72.4209 
-103.402 -99.8927 72.7907 -102.471 -99.4857 73.4432 -101.641 -99.4749 74.4031 
-100.863 -110.62 69.6601 -100.451 -109.014 70.1409 -100.278 -110.461 70.438 
-100.107 -107.26 70.5428 -99.8992 -108.71 71.0506 -99.772 -110.185 71.5351 
-99.9034 -105.351 71.0168 -99.5898 -106.84 71.5838 -99.4708 -108.423 72.2735 
-99.4576 -109.887 72.9565 -99.8698 -103.636 71.7587 -99.5061 -105.017 72.2496 
-99.2669 -106.706 72.9628 -99.2045 -108.324 73.7606 -99.0467 -109.658 74.2731 
-99.8801 -102.196 72.4706 -99.5089 -103.4 73.0174 -99.2169 -105.091 73.6813 
-98.9984 -106.859 74.4489 -98.6231 -108.294 74.9932 -98.1724 -109.542 75.2286 
-99.9067 -100.909 73.0517 -99.3963 -101.851 73.6949 -99.1322 -103.433 74.3734 
-98.9847 -105.368 75.0907 -98.5272 -106.941 75.6714 -97.762 -108.206 75.9932 
-97.354 -109.545 76.2737 -100.116 -100.051 73.8343 -99.3563 -100.596 74.4687 
-98.9791 -101.773 75.1179 -98.9899 -103.724 75.774 -98.8336 -105.589 76.3807 
-98.063 -106.869 76.8213 -97.2779 -108.135 77.1693 -97.1811 -109.577 77.5239 
-100.605 -99.7108 74.8822 -99.6938 -99.9884 75.4743 -99.0725 -100.627 76.0455 
-98.9499 -102.151 76.5876 -99.0498 -104.171 77.1381 -98.6709 -105.705 77.6268 
-97.8597 -106.83 78.0201 -97.3781 -108.164 78.3536 -97.5342 -109.583 78.5964 
-101.622 -99.4707 75.8214 -100.663 -99.7586 76.4231 -101.829 -99.4988 77.2461 
-100.968 -99.9276 77.8708 -102.135 -99.6575 78.5553 -99.7827 -100.085 77.0107 
-101.267 -100.271 79.1764 -102.314 -99.9858 79.9207 -100.083 -100.461 78.4282 
-99.2017 -100.94 77.5097 -101.459 -100.696 80.5471 -102.42 -100.317 81.4151 
-100.385 -100.974 79.7538 -99.4524 -101.491 78.921 -99.0921 -102.671 77.995 
-101.696 -101.129 81.9813 -102.607 -100.702 82.8509 -100.733 -101.487 81.1093 
-99.7563 -101.97 80.3009 -99.1716 -103.102 79.4019 -98.9834 -104.532 78.476 
-101.965 -101.732 83.2731 -102.872 -101.387 84.0163 -101.079 -102.128 82.4251 
-100.167 -102.515 81.6482 -99.3915 -103.42 80.7722 -98.9064 -104.753 79.7834 
-98.4593 -105.884 78.869 -102.282 -102.588 84.2528 -103.214 -102.363 84.7948 
-101.361 -102.947 83.5637 -100.489 -103.322 82.865 -99.7941 -104.009 82.0398 
-99.2339 -105.136 80.9997 -98.631 -106.24 79.996 -97.9523 -107.172 79.1612 
-102.709 -103.597 84.9417 -103.594 -103.428 85.3254 -101.798 -103.865 84.4507 
-100.85 -104.224 83.8763 -100.146 -104.829 83.124 -99.7494 -105.788 82.1097 
-99.2561 -106.838 81.0173 -98.5465 -107.752 80.1044 -97.9031 -108.65 79.3508 
-103.097 -104.621 85.563 -103.915 -104.412 85.8715 -102.325 -104.873 85.1717 
-101.449 -105.194 84.6901 -100.614 -105.716 84.0187 -100.138 -106.527 83.0957 
-99.8169 -107.491 82.033 -99.2686 -108.391 81.0278 -98.6407 -109.195 80.1776 
-98.2203 -109.972 79.4342 -102.724 -99.2786 74.8965 -102.734 -99.1506 76.2994 
-103.931 -99.1566 75.4598 -103.994 -98.9081 76.8326 -105.234 -99.1598 76.0356 
-102.939 -99.1202 77.7016 -105.457 -98.9107 77.458 -106.575 -99.2858 76.6047 
-104.243 -98.9532 78.3359 -103.213 -99.3633 79.1413 -106.926 -99.0793 78.076 
-107.738 -99.6329 77.1085 -105.798 -99.0359 79.1231 -104.534 -99.3402 79.9455 
-103.368 -99.7459 80.6878 -108.032 -99.5377 78.538 -108.63 -100.343 77.4762 
-107.216 -99.1982 79.7617 -106.015 -99.4615 80.672 -104.652 -99.8083 81.3692 
-103.47 -100.102 82.1867 -108.848 -100.453 78.8936 -109.473 -101.211 77.7804 
-108.22 -99.7802 80.1556 -107.271 -99.7316 81.1029 -105.965 -100.148 81.7239 
-104.686 -100.404 82.5816 -103.658 -100.675 83.5263 -109.736 -101.437 79.2556 
-110.404 -101.954 78.1444 -109.115 -100.824 80.4688 -108.346 -100.461 81.4356 
-107.2 -100.692 82.0414 -105.952 -101.069 82.7842 -104.885 -101.228 83.8206 
-103.971 -101.584 84.5716 -110.7 -102.194 79.5931 -111.264 -102.635 78.5449 
-110.103 -101.775 80.7214 -109.446 -101.402 81.7372 -108.486 -101.361 82.5119 
-107.302 -101.656 83.2115 -106.228 -101.904 84.059 -105.271 -102.128 84.8344 
-104.359 -102.646 85.2276 -111.534 -102.894 79.8391 -111.936 -103.384 78.8786 
-111.027 -102.516 80.8621 -110.458 -102.213 81.8817 -109.686 -102.054 82.8461 
[...]
CELL_DATA 2000
SCALARS Distance double
LOOKUP_TABLE default
176.021 175.187 175.447 175.108 174.212 174.535 174.157 174.47 174.083 
173.094 173.456 173.011 173.39 172.932 173.312 172.865 171.885 172.249 
171.736 172.136 171.621 172.039 171.562 172.009 171.614 170.603 170.961 
170.398 170.809 170.296 170.71 170.246 170.682 170.304 170.789 170.477 
169.312 169.626 169.022 169.435 168.951 169.402 168.983 169.415 169.035 
169.489 169.158 169.66 169.35 168.123 168.36 167.733 168.081 167.601 
168.058 167.682 168.156 167.772 168.219 167.831 168.315 167.984 168.516 
168.242 167.027 167.222 166.603 166.877 166.396 166.774 166.422 166.873 
166.539 166.963 166.565 166.985 166.625 167.14 166.902 167.472 167.314 
165.989 166.16 165.567 165.815 165.355 165.662 165.323 165.705 165.447 
165.829 165.515 165.825 165.456 165.835 165.579 166.131 166.014 166.626 
166.558 176.46 176.852 176.322 175.623 177.181 176.684 175.956 175.426 
174.667 177.426 176.969 176.249 175.733 174.941 174.406 173.589 177.618 
177.181 176.454 175.979 175.191 174.669 173.842 173.298 172.439 177.744 
177.335 176.582 176.137 175.35 174.878 174.071 173.558 172.711 172.136 
171.224 177.785 177.419 176.665 176.237 175.432 174.989 174.183 173.737 
172.917 172.405 171.513 170.908 169.972 177.731 177.419 176.677 176.289 
175.476 175.047 174.215 173.794 172.972 172.542 171.7 171.184 170.286 
169.679 168.782 177.574 177.314 176.57 176.244 175.443 175.061 174.241 
173.823 173.002 172.573 171.771 171.329 170.527 169.999 169.143 168.532 
167.678 177.383 177.136 176.405 176.099 175.31 174.979 174.201 173.844 
173.07 172.646 171.865 171.42 170.683 170.231 169.483 168.922 168.09 
167.457 166.635 177.091 176.304 176.494 176.054 175.229 175.538 174.993 
175.32 174.881 173.859 174.244 173.66 174.101 173.669 174.122 173.773 
172.742 172.921 172.384 172.739 172.382 172.87 172.602 173.051 172.705 
172.161 172.126 171.64 171.719 171.361 171.668 171.399 171.844 171.518 
171.93 171.514 171.555 171.634 171.111 171.151 170.623 170.754 170.256 
170.595 170.168 170.646 170.256 170.711 170.325 170.647 170.846 170.247 
170.434 169.731 169.88 169.109 169.355 168.737 169.213 168.834 169.398 
169.079 169.551 169.161 169.791 169.9 169.273 169.421 168.696 168.819 
167.997 168.137 167.443 167.798 167.415 167.976 167.708 168.246 167.844 
168.287 167.778 169.106 169.132 168.509 168.542 167.874 167.88 167.151 
167.145 166.488 166.646 166.236 166.651 166.363 166.86 166.438 166.884 
166.335 166.785 166.276 165.355 165.31 164.839 164.003 165.43 164.851 
163.844 163.466 162.731 165.508 164.996 163.931 163.356 162.396 162.148 
161.479 165.53 165.09 164.136 163.489 162.4 161.882 161.044 160.889 
160.35 165.818 165.27 164.474 163.78 162.767 162.033 161.135 160.663 
160.091 159.934 159.603 166.478 165.802 165.093 164.314 163.438 162.584 
161.772 161.055 160.504 160.012 159.654 159.404 159.154 167.228 166.561 
165.896 165.105 164.315 163.428 162.7 161.898 161.405 160.728 160.348 
159.766 159.421 159.059 158.83 167.892 167.279 166.649 165.933 165.223 
164.397 163.733 162.924 162.456 161.74 161.384 160.669 160.288 159.621 
159.333 158.903 158.84 168.51 167.919 167.314 166.657 166.034 165.317 
164.757 164 163.55 162.816 162.46 161.744 161.405 160.663 160.37 
159.706 159.609 159.173 159.313 165.204 163.947 164.633 164.825 162.772 
163.451 163.696 164.383 164.664 161.577 162.287 162.544 163.273 163.595 
164.299 164.65 160.458 161.094 161.357 162.098 162.477 163.245 163.695 
164.396 164.81 159.672 160.11 160.384 160.995 161.448 162.189 162.758 
163.496 163.98 164.593 164.915 159.133 159.451 159.685 160.179 160.647 
161.304 161.931 162.645 163.169 163.767 164.05 164.586 164.816 158.717 
158.925 159.057 159.498 159.897 160.551 161.183 161.906 162.472 163.021 
163.304 163.736 163.956 164.501 164.884 158.692 158.642 158.709 158.916 
159.225 159.765 160.401 161.165 161.877 162.46 162.868 163.162 163.407 
163.768 164.193 164.764 165.342 159.188 158.899 158.987 158.847 159.096 
159.267 159.842 160.437 161.276 161.952 162.602 162.934 163.265 163.443 
163.83 164.219 164.81 165.362 165.965 159.626 160.38 159.795 159.445 
161.289 160.662 160.32 159.687 159.478 162.262 161.64 161.358 160.665 
160.452 159.898 160.091 163.27 162.657 162.434 161.758 161.596 160.983 
161.172 160.834 161.424 164.332 163.714 163.555 162.889 162.763 162.145 
162.284 161.922 162.395 162.235 162.737 165.466 164.834 164.741 164.081 
163.999 163.348 163.421 162.975 163.303 163.085 163.447 163.258 163.454 
166.656 166.017 165.952 165.308 165.268 164.619 164.685 164.139 164.394 
164.004 164.323 163.984 164.213 163.871 164.068 167.845 167.227 167.189 
166.552 166.536 165.896 165.968 165.407 165.65 165.182 165.506 165.036 
165.314 164.829 165.103 164.683 165.037 168.979 168.411 168.425 167.82 
167.854 167.206 167.281 166.684 166.894 166.421 166.739 166.29 166.574 
166.068 166.319 165.838 166.15 165.768 166.145 159.985 160.813 160.445 
160.67 161.804 161.31 161.445 161.173 161.509 162.987 162.392 162.501 
162.047 162.342 162.076 162.477 164.235 163.653 163.833 163.275 163.562 
163.083 163.438 163.098 163.497 165.43 164.903 165.121 164.633 164.929 
164.415 164.69 164.191 164.488 164.132 164.524 166.641 166.113 166.333 
165.869 166.153 165.7 165.939 165.443 165.663 165.207 165.529 165.203 
165.643 167.898 167.376 167.642 167.127 167.425 166.914 167.181 166.658 
166.919 166.42 166.755 166.321 166.741 166.39 166.852 169.103 168.641 
168.942 168.465 168.788 168.263 168.563 167.992 168.295 167.746 168.114 
167.622 168.032 167.585 167.997 167.614 168.037 170.195 169.798 170.083 
169.689 170.001 169.578 169.883 169.393 169.683 169.157 169.474 168.98 
169.333 168.876 169.228 168.795 169.146 168.77 169.146 168.679 168.518 
168.22 167.447 168.417 168.061 167.28 166.964 166.209 168.482 168.056 
167.332 166.912 166.195 165.808 165.074 168.64 168.199 167.493 167.052 
166.329 165.893 165.14 164.708 163.941 168.795 168.357 167.608 167.184 
166.393 165.98 165.146 164.743 163.92 163.55 162.803 168.972 168.508 
167.755 167.291 166.501 166.026 165.186 164.72 163.905 163.508 162.78 
162.444 161.761 169.229 168.731 168.025 167.513 166.807 166.259 165.52 
164.922 164.192 163.641 162.997 162.532 161.916 161.48 160.831 169.603 
169.074 168.428 167.878 167.233 166.675 166.024 165.417 164.754 164.127 
163.51 162.932 162.357 161.806 161.217 160.677 160.119 170.076 169.542 
168.965 168.379 167.773 167.177 166.567 165.971 165.363 164.753 164.153 
163.537 162.953 162.351 161.796 161.213 160.723 160.17 159.8 169.392 
170.398 169.719 169.302 171.359 170.723 170.368 169.626 169.198 172.401 
171.719 171.414 170.699 170.317 169.557 169.201 173.561 172.838 172.546 
171.804 171.462 170.69 170.346 169.617 169.338 174.648 173.979 173.685 
172.975 172.64 171.871 171.527 170.774 170.493 169.786 169.525 175.657 
175.008 174.713 174.059 173.747 173.038 172.698 171.957 171.663 170.952 
170.702 169.983 169.716 176.676 176.031 175.75 175.081 174.809 174.128 
173.842 173.121 172.83 172.113 171.858 171.157 170.906 170.183 169.938 
177.579 177.028 176.777 176.145 175.889 175.222 174.976 174.277 174.012 
173.285 173.013 172.301 172.052 171.357 171.13 170.434 170.253 178.308 
177.854 177.643 177.117 176.876 176.281 176.03 175.391 175.13 174.449 
174.168 173.458 173.19 172.495 172.279 171.609 171.442 170.783 170.667 
178.641 178.996 178.541 177.997 179.389 178.919 178.33 177.864 177.27 
179.736 179.303 178.709 178.207 177.547 177.076 176.432 180.082 179.637 
179.061 178.566 177.858 177.341 176.628 176.189 175.526 180.46 179.974 
179.348 178.88 178.169 177.642 176.877 176.38 175.669 175.254 174.576 
180.756 180.287 179.582 179.129 178.432 177.94 177.19 176.654 175.907 
175.419 174.717 174.29 173.613 180.967 180.531 179.856 179.376 178.712 
178.221 177.523 176.984 176.243 175.702 174.982 174.485 173.801 173.357 
172.717 181.11 180.748 180.14 179.685 179.036 178.544 177.853 177.323 
176.581 176.04 175.306 174.789 174.094 173.603 172.947 172.505 171.901 
181.008 180.797 180.157 179.862 179.162 178.792 178.042 177.596 176.812 
176.327 175.567 175.088 174.377 173.901 173.225 172.762 172.131 171.712 
171.136 180.573 179.386 179.911 179.706 178.217 178.644 178.453 178.99 
178.74 177.381 177.584 177.254 177.695 177.469 177.977 177.649 176.526 
176.782 176.323 176.592 176.246 176.683 176.387 176.845 176.454 175.23 
175.738 175.299 175.629 175.168 175.517 175.157 175.59 175.254 175.659 
175.257 173.705 174.309 173.937 174.42 173.946 174.364 173.944 174.388 
174.041 174.474 174.111 174.49 174.089 172.279 172.825 172.479 172.987 
172.557 173.032 172.633 173.126 172.788 173.26 172.905 173.324 172.938 
173.325 172.936 170.999 171.466 171.129 171.596 171.224 171.676 171.33 
171.811 171.521 172.004 171.695 172.124 171.766 172.162 171.803 172.19 
171.848 169.856 170.239 169.905 170.329 170.002 170.43 170.112 170.56 
170.274 170.754 170.479 170.937 170.631 171.032 170.707 171.083 170.771 
171.148 170.857 180.882 180.966 180.53 179.696 181.041 180.627 179.856 
179.361 178.624 180.97 180.722 180.148 179.697 179.097 178.519 177.909 
180.556 180.554 180.153 179.995 179.516 179.069 178.37 177.788 177.005 
179.898 179.995 179.576 179.736 179.29 179.227 178.421 178.01 176.938 
176.515 175.529 179.293 179.308 178.763 178.934 178.446 178.642 177.9 
177.742 176.593 176.2 175.052 174.804 173.902 178.795 178.75 178.142 
178.139 177.572 177.708 177.099 177.095 176.158 175.814 174.694 174.324 
173.395 173.221 172.478 178.278 178.259 177.666 177.594 176.968 176.949 
176.34 176.354 175.614 175.422 174.458 174.073 173.129 172.82 172.06 
171.893 171.227 177.729 177.726 177.164 177.122 176.505 176.423 175.759 
175.696 174.989 174.893 174.082 173.839 172.966 172.64 171.855 171.584 
170.913 170.723 170.112 181.525 182.323 181.905 181.698 182.883 182.653 
182.62 182.084 181.767 183.391 183.2 183.279 182.929 182.681 182.055 
181.578 183.9 183.716 183.732 183.486 183.248 182.792 182.247 181.659 
181.054 184.17 184.102 183.994 183.808 183.458 183.144 182.576 182.135 
181.49 180.996 180.402 184.21 184.21 184.104 183.955 183.591 183.28 
182.748 182.359 181.788 181.36 180.813 180.348 179.829 184.295 184.249 
184.219 184.074 183.86 183.525 183.151 182.685 182.23 181.722 181.232 
180.751 180.256 179.799 179.308 184.432 184.375 184.344 184.234 184.089 
183.86 183.594 183.219 182.833 182.309 181.802 181.232 180.694 180.199 
179.691 179.257 178.763 184.494 184.471 184.376 184.306 184.078 183.971 
183.644 183.495 183.083 182.795 182.248 181.779 181.164 180.649 180.093 
179.63 179.132 178.699 178.217 184.501 184.374 184.408 184.306 184.055 
184.141 183.9 184.031 183.873 183.529 183.702 183.361 183.474 183.188 
183.456 183.334 182.755 183.077 182.771 182.882 182.485 182.679 182.474 
182.862 182.759 181.718 182.185 181.947 182.21 181.815 181.98 181.656 
181.958 181.796 182.209 181.987 180.546 181.054 180.815 181.241 180.912 
181.223 180.877 181.146 180.875 181.223 180.988 181.338 180.985 179.349 
179.844 179.588 180.052 179.769 180.203 179.9 180.263 179.938 180.281 
179.993 180.352 180.054 180.337 179.96 178.145 178.63 178.389 178.852 
178.607 179.06 178.791 179.197 178.859 179.236 178.909 179.322 179.048 
179.42 179.105 179.361 178.997 177.006 177.45 177.237 177.691 177.485 
177.938 177.704 178.104 177.781 178.13 177.794 178.196 177.948 178.386 
178.139 178.485 178.155 178.41 178.062 176.35 175.452 176.119 176.562 
174.461 175.193 175.638 176.341 176.81 173.3 174.125 174.579 175.361 
175.827 176.574 177.015 172.099 172.93 173.407 174.232 174.703 175.516 
175.959 176.711 177.078 170.975 171.773 172.264 173.067 173.558 174.369 
174.857 175.635 176.06 176.751 177.119 169.842 170.651 171.136 171.951 
172.441 173.245 173.753 174.554 175.061 175.789 176.239 176.878 177.305 
168.731 169.496 169.981 170.812 171.324 172.138 172.624 173.436 173.938 
174.762 175.254 176.003 176.437 177.101 177.495 167.807 168.455 168.935 
169.696 170.258 171.055 171.58 172.334 172.805 173.598 174.084 174.916 
175.364 176.136 176.506 177.202 177.514 167.069 167.632 168.092 168.748 
169.318 170.068 170.662 171.377 171.882 172.555 173.033 173.769 174.258 
175.02 175.443 176.157 176.503 177.164 177.457 177.246 176.283 176.733 
176.654 175.228 175.722 175.63 176.112 176.004 174.061 174.608 174.503 
175.031 174.886 175.376 175.214 172.861 173.4 173.285 173.841 173.666 
174.182 173.955 174.496 174.335 171.704 172.205 172.041 172.582 172.389 
172.916 172.67 173.193 172.977 173.578 173.42 170.459 170.996 170.751 
171.295 171.042 171.595 171.347 171.895 171.673 172.232 172.043 172.63 
172.419 169.107 169.653 169.376 169.937 169.645 170.206 169.92 170.508 
170.267 170.884 170.677 171.277 171.06 171.614 171.376 167.874 168.318 
168.045 168.557 168.301 168.828 168.547 169.078 168.79 169.39 169.153 
169.823 169.617 170.253 170.039 170.607 170.415 166.829 167.173 166.872 
167.3 167.059 167.549 167.315 167.787 167.495 167.967 167.683 168.269 
168.077 168.755 168.606 169.253 169.104 169.698 169.586 178.025 178.255 
178.459 179.136 178.407 178.671 179.357 179.619 180.353 178.473 178.783 
179.458 179.768 180.48 180.804 181.512 178.468 178.831 179.54 179.856 
180.557 180.87 181.569 181.888 182.508 178.321 178.762 179.487 179.901 
180.604 180.943 181.622 181.935 182.584 182.839 183.323 178.083 178.541 
179.216 179.72 180.399 180.869 181.511 181.925 182.575 182.92 183.472 
183.619 183.913 177.842 178.288 178.941 179.411 180.079 180.562 181.206 
181.686 182.34 182.814 183.434 183.745 184.123 184.144 184.262 177.519 
178.013 178.67 179.152 179.824 180.28 180.943 181.386 182.049 182.523 
183.163 183.6 184.058 184.27 184.44 184.412 184.433 177.082 177.611 
178.23 178.795 179.429 179.976 180.598 181.111 181.723 182.219 182.784 
183.255 183.678 184.045 184.25 184.434 184.471 184.5 184.495 178.1 
179.207 178.605 178.567 180.488 179.825 179.755 179.1 179.053 181.729 
181.156 181.123 180.386 180.249 179.571 179.438 182.738 182.334 182.401 
181.763 181.599 180.822 180.557 179.85 179.542 183.45 183.196 183.315 
182.924 182.853 182.166 181.85 181.017 180.596 179.826 179.401 183.887 
183.72 183.771 183.621 183.624 183.248 183.001 182.289 181.828 180.966 
180.477 179.681 179.293 184.161 184.017 184.003 183.924 183.935 183.785 
183.606 183.199 182.781 182.121 181.612 180.829 180.369 179.629 179.296 
184.366 184.244 184.256 184.16 184.223 184.077 183.967 183.647 183.297 
182.839 182.402 181.835 181.379 180.697 180.259 179.598 179.249 184.485 
184.422 184.459 184.415 184.527 184.431 184.413 184.095 183.806 183.329 
182.941 182.473 182.101 181.575 181.143 180.51 180.058 179.458 179.086 
177.537 178.005 177.48 176.844 178.468 177.953 177.317 176.733 175.886 
178.805 178.352 177.642 177.122 176.248 175.595 174.555 178.864 178.54 
177.753 177.308 176.394 175.855 174.892 174.246 173.371 178.714 178.462 
177.711 177.326 176.455 175.968 175.137 174.601 173.879 173.295 172.7 
178.637 178.338 177.694 177.319 176.598 176.119 175.416 174.922 174.304 
173.796 173.187 172.674 172.056 178.694 178.371 177.799 177.421 176.809 
176.361 175.726 175.26 174.626 174.164 173.49 173.02 172.306 171.854 
171.154 178.697 178.444 177.892 177.571 176.961 176.578 175.93 175.526 
174.845 174.41 173.671 173.213 172.474 172.036 171.361 170.93 170.315 
178.571 178.39 177.852 177.606 176.981 176.658 175.98 175.636 174.953 
174.567 173.844 173.383 172.663 172.212 171.59 171.177 170.621 170.189 
169.639 181.552 181.618 181.848 182.24 181.57 181.858 182.276 182.428 
182.742 181.478 181.856 182.418 182.55 182.892 182.932 183.265 181.116 
181.665 182.315 182.69 183.126 183.195 183.48 183.508 183.819 180.581 
181.129 181.693 182.331 182.857 183.276 183.581 183.713 183.896 183.972 
184.121 180.215 180.615 181.103 181.633 182.208 182.794 183.287 183.654 
183.901 184.01 184.1 184.135 184.184 179.932 180.325 180.852 181.23 
181.805 182.253 182.872 183.32 183.815 184.029 184.258 184.22 184.294 
184.223 184.294 179.547 180.012 180.582 181.029 181.587 181.985 182.521 
182.96 183.508 183.915 184.315 184.444 184.576 184.463 184.487 184.389 
184.446 179.14 179.591 180.138 180.663 181.217 181.694 182.147 182.576 
182.998 183.492 183.912 184.329 184.541 184.659 184.627 184.568 184.512 
184.487 184.497 
POINT_DATA 1002
SCALARS Distance double
LOOKUP_TABLE default
175.694 176.576 175.796 174.853 174.913 174.779 173.84 173.886 173.782 
173.691 172.645 172.754 172.551 172.466 172.445 171.352 171.551 171.213 
171.103 171.122 171.278 169.982 170.278 169.863 169.816 169.824 169.971 
170.184 168.621 169.039 168.464 168.529 168.608 168.676 168.829 169.04 
167.421 167.909 167.159 167.185 167.334 167.378 167.443 167.681 168.008 
166.338 166.835 166.053 165.98 166.106 166.183 166.137 166.298 166.729 
167.205 165.307 165.827 165.057 164.958 165.035 165.205 165.16 165.075 
165.368 165.946 166.523 177.009 176.163 177.387 176.504 177.653 175.205 
176.753 177.875 175.493 174.129 176.917 178.065 175.695 174.387 173.013 
177.028 178.142 175.803 174.554 173.276 171.847 177.089 178.126 175.881 
174.613 173.385 172.095 170.601 177.043 178.026 175.901 174.649 173.385 
172.151 170.861 169.399 176.877 177.823 175.793 174.637 173.439 172.186 
170.982 169.742 168.29 176.71 177.618 175.63 174.509 173.458 172.316 
171.097 169.974 168.737 167.246 176.947 175.825 176.14 174.649 174.901 
174.507 173.183 173.495 173.151 173.353 172.087 172.648 171.887 172.111 
172.346 171.65 172.189 171.189 171.013 171.079 171.133 171.068 171.413 
170.622 170.066 169.697 169.732 169.908 170.062 170.47 169.616 168.959 
168.307 168.213 168.56 168.773 169.17 169.736 168.59 167.887 167.149 
166.877 167.161 167.407 167.354 168.492 169.093 167.868 167.167 166.403 
165.917 165.918 166.016 165.895 165.758 164.481 164.28 163.249 164.382 
162.871 162.075 164.595 162.818 161.503 160.865 164.76 163.057 161.331 
160.303 159.888 165.138 163.53 161.718 160.362 159.617 159.311 165.869 
164.278 162.511 161.091 160.065 159.288 158.866 166.652 165.172 163.498 
162.096 161.032 159.951 159.029 158.6 167.32 165.977 164.524 163.181 
162.096 161.028 159.888 159.085 158.841 167.949 166.676 165.452 164.298 
163.174 162.113 161.076 160.149 159.598 159.506 164.115 162.995 163.982 
161.796 162.847 163.962 160.626 161.657 162.931 164.196 159.822 160.71 
161.984 163.366 164.384 159.225 160.013 161.225 162.592 163.554 164.217 
158.689 159.263 160.422 161.908 162.921 163.441 164.214 158.64 158.803 
159.616 161.171 162.558 163.131 163.655 164.715 159.222 159.103 159.388 
160.529 162.134 163.12 163.549 164.291 165.43 160.154 160.014 160.976 
161 161.893 159.949 162.029 162.868 161.05 160.362 163.078 163.869 
162.198 161.542 161.616 164.197 164.932 163.395 162.7 162.615 162.961 
165.375 166.095 164.654 163.953 163.617 163.685 163.7 166.584 167.29 
165.899 165.254 164.854 164.716 164.573 164.369 167.81 168.439 167.175 
166.537 166.117 165.982 165.823 165.549 165.392 168.987 169.512 168.479 
167.909 167.399 167.168 167.069 166.834 166.577 166.484 160.301 160.885 
161.259 161.791 162.366 161.662 163.025 163.573 162.692 162.675 164.366 
164.771 164.112 163.885 163.757 165.574 165.949 165.426 165.252 164.936 
164.774 166.818 167.16 166.609 166.425 166.144 165.913 165.904 168.154 
168.382 167.958 167.71 167.409 167.208 167.148 167.171 169.391 169.537 
169.285 169.123 168.858 168.623 168.513 168.437 168.384 170.468 170.58 
170.392 170.328 170.201 169.994 169.807 169.68 169.567 169.49 168.995 
167.718 168.843 167.626 168.786 166.5 167.762 168.901 166.614 165.474 
167.939 169.083 166.783 165.594 164.355 168.053 169.252 166.834 165.565 
164.283 163.125 168.224 169.443 166.99 165.682 164.315 163.121 162.097 
168.528 169.719 167.327 166.108 164.773 163.492 162.383 161.27 168.977 
170.114 167.781 166.594 165.373 164.118 162.924 161.769 160.615 170.092 
170.072 171.032 171.067 171.982 169.968 172.113 173.113 171.065 169.921 
173.294 174.28 172.237 171.088 170.033 174.367 175.302 173.397 172.29 
171.206 170.244 175.358 176.316 174.417 173.432 172.377 171.409 170.455 
176.422 177.295 175.474 174.541 173.559 172.557 171.61 170.655 177.371 
178.074 176.542 175.655 174.736 173.744 172.74 171.808 170.929 178.121 