# vtk DataFile Version 4.0
vtk output
ASCII
DATASET POLYDATA
POINTS 1002 float
-105.84 -122.355 73.4789 -106.529 -122.981 73.0462 -106.449 -122.21 72.4292 
-105.864 -121.297 72.9078 -106.374 -121.217 71.8841 -105.393 -121.199 73.9851 
-105.806 -120.037 72.4035 -106.151 -120.154 71.3219 -105.363 -119.94 73.4586 
-104.941 -119.748 74.6309 -105.456 -118.847 71.8052 -105.815 -118.961 70.6882 
-105.11 -118.653 72.9116 -104.657 -118.546 74.0853 -104.317 -118.35 75.3986 
-104.919 -117.678 71.1061 -105.498 -117.556 70.1755 -104.544 -117.591 72.228 
-104.162 -117.429 73.4733 -103.835 -117.224 74.8607 -103.673 -116.923 76.2225 
-104.362 -116.409 70.5588 -105.15 -116.139 69.9069 -103.888 -116.512 71.5781 
-103.524 -116.414 72.839 -103.209 -116.131 74.3024 -103.083 -115.741 75.7399 
-103.026 -115.43 76.9865 -103.785 -115.151 70.1799 -104.648 -114.879 69.6526 
-103.282 -115.25 71.1735 -102.905 -115.218 72.3975 -102.454 -115.072 73.7531 
-102.211 -114.738 75.2138 -102.226 -114.369 76.4928 -102.25 -114.168 77.6155 
-103.219 -113.968 69.771 -104.048 -113.749 69.2469 -102.759 -113.987 70.8496 
-102.408 -113.907 72.1546 -101.786 -113.927 73.3002 -101.243 -113.894 74.5714 
-101.171 -113.64 75.9416 -101.334 -113.35 77.1096 -101.479 -113.181 78.1845 
-102.771 -112.822 69.3699 -103.499 -112.732 68.8093 -102.38 -112.777 70.4773 
-102.093 -112.67 71.8863 -101.449 -112.72 72.9568 -100.66 -112.893 73.9087 
-100.343 -112.88 75.247 -100.484 -112.641 76.6185 -100.697 -112.399 77.7387 
-100.893 -112.249 78.7621 -102.498 -111.728 69.112 -103.08 -111.805 68.4741 
-102.179 -111.572 70.1851 -101.936 -111.438 71.5638 -101.382 -111.462 72.6618 
-100.571 -111.625 73.4146 -100.034 -111.721 74.5175 -99.9888 -111.624 76.0018 
-100.154 -111.456 77.3066 -100.308 -111.352 78.3523 -100.499 -111.3 79.3002 
-107.377 -122.944 72.1603 -107.197 -122.171 71.5489 -108.311 -122.914 71.2124 
-108.057 -122.062 70.6475 -109.171 -122.878 70.2588 -106.966 -121.287 70.9526 
-108.959 -121.873 69.7223 -110.014 -122.602 69.2334 -107.761 -121.179 70.0371 
-106.667 -120.285 70.3019 -109.878 -121.576 68.645 -111 -122.111 68.1578 
-108.683 -120.931 69.1139 -107.443 -120.157 69.3792 -106.446 -118.927 69.7364 
-110.849 -121.138 67.5861 -112.113 -121.532 67.3461 -109.587 -120.592 68.0393 
-108.304 -119.875 68.4795 -107.259 -118.73 68.9467 -106.339 -117.288 69.519 
-111.872 -120.403 66.9173 -113.171 -120.73 66.8508 -110.506 -119.994 67.0752 
-109.162 -119.405 67.4829 -108.042 -118.449 68.1017 -107.188 -117.036 68.9044 
-106.103 -115.721 69.4985 -112.816 -119.483 66.4085 -114.02 -119.835 66.2904 
-111.455 -119.149 66.4211 -110.102 -118.674 66.6519 -108.887 -117.959 67.2113 
-107.895 -116.801 68.0604 -106.926 -115.401 68.9189 -105.575 -114.371 69.2792 
-113.542 -118.783 65.6704 -114.632 -119.211 65.565 -112.282 -118.44 65.6994 
-110.997 -117.987 65.9259 -109.828 -117.36 66.4654 -108.697 -116.49 67.2029 
-107.587 -115.251 68.0471 -106.368 -114.036 68.6743 -104.892 -113.263 68.8159 
-114.066 -118.356 64.903 -115.108 -118.821 64.9533 -112.901 -117.992 64.8319 
-111.667 -117.55 65.0261 -110.576 -116.905 65.6148 -109.549 -116.149 66.3988 
-108.368 -115.182 67.2037 -107.081 -113.996 67.9009 -105.687 -113 68.2581 
-104.239 -112.359 68.3204 -114.9 -118.016 64.5067 -113.719 -117.597 64.234 
-114.629 -116.913 64.2013 -113.293 -116.494 63.8366 -114.303 -115.594 64.1019 
-112.418 -117.184 64.128 -112.886 -115.059 63.8352 -113.98 -114.278 64.2085 
-111.855 -115.926 63.7759 -111.164 -116.545 64.5074 -112.565 -113.653 64.2926 
-113.628 -113.106 64.7299 -111.358 -114.36 63.9194 -110.589 -115.142 64.2326 
-110.16 -115.751 65.3303 -112.161 -112.508 65.3221 -113.032 -112.065 65.8156 
-110.972 -112.981 64.7597 -110.066 -113.625 64.5603 -109.627 -114.382 65.2775 
-109.111 -114.926 66.3589 -111.529 -111.362 66.5879 -112.204 -110.99 67.056 
-110.569 -111.746 66.0719 -109.642 -112.196 65.6743 -109.056 -112.86 65.9198 
-108.502 -113.523 66.6324 -107.756 -113.87 67.2834 -110.866 -109.996 67.5831 
-111.468 -109.778 68.0078 -110.119 -110.253 67.1348 -109.267 -110.557 66.7882 
-108.486 -111.04 66.8646 -107.745 -111.728 67.221 -106.933 -112.356 67.4726 
-106.206 -112.729 67.7609 -110.355 -108.604 68.3096 -110.978 -108.51 68.6742 
-109.683 -108.673 67.8411 -108.895 -108.77 67.3974 -107.971 -109.014 67.3067 
-106.956 -109.554 67.4917 -105.962 -110.391 67.5357 -105.161 -111.241 67.5475 
-104.623 -111.87 67.8436 -109.97 -107.352 68.9102 -110.64 -107.282 69.1861 
-109.271 -107.345 68.4864 -108.5 -107.303 67.9376 -107.558 -107.341 67.5495 
-106.399 -107.603 67.4644 -105.186 -108.281 67.4115 -104.225 -109.352 67.3391 
-103.646 -110.425 67.5292 -103.317 -111.219 67.9829 -102.487 -110.69 68.7038 
-102.649 -109.906 68.1357 -102.299 -109.224 69.3434 -102.943 -108.805 67.6217 
-102.455 -108.256 68.7306 -102.271 -107.626 70.1432 -103.614 -107.537 67.4267 
-102.766 -107.048 68.2095 -102.472 -106.562 69.5422 -102.008 -106.101 70.8088 
-104.78 -106.61 67.5553 -103.527 -105.954 68.0508 -102.823 -105.413 69.0472 
-102.312 -104.959 70.2738 -101.66 -104.637 71.4316 -106.14 -106.216 67.7902 
-104.766 -105.335 68.2342 -103.626 -104.507 68.8588 -102.789 -103.808 69.7565 
-102.204 -103.454 70.9892 -101.667 -103.326 72.1906 -107.313 -106.103 68.1684 
-106.086 -105.03 68.5493 -104.865 -103.934 68.959 -103.692 -102.904 69.4492 
-102.893 -102.332 70.4328 -102.428 -102.257 71.7932 -101.902 -102.323 72.9669 
-108.252 -106.106 68.7057 -107.196 -104.853 68.9341 -106.162 -103.558 69.198 
-104.998 -102.332 69.4976 -103.904 -101.509 70.1115 -103.212 -101.269 71.2848 
-102.699 -101.364 72.6235 -102.085 -101.489 73.7243 -109.085 -106.135 69.1767 
-108.137 -104.819 69.3437 -107.248 -103.442 69.5219 -106.315 -102.147 69.8322 
-105.238 -101.155 70.2945 -104.242 -100.626 71.1056 -103.48 -100.498 72.3051 
-102.857 -100.565 73.5301 -102.311 -100.713 74.5823 -109.878 -106.101 69.4828 
-109.018 -104.839 69.7038 -108.159 -103.556 69.9205 -107.345 -102.35 70.3122 
-106.498 -101.298 70.8196 -105.558 -100.495 71.3987 -104.57 -100.036 72.2806 
-103.694 -99.8816 73.4228 -103.077 -99.9334 74.5195 -102.684 -100.136 75.4884 
-102.188 -110.404 69.7369 -102.077 -108.843 70.6045 -101.943 -110.137 71.0607 
-101.744 -107.295 71.2998 -101.534 -108.602 71.81 -101.438 -110.062 72.2759 
-101.194 -105.819 71.8019 -100.867 -107.105 72.2669 -100.735 -108.571 72.7431 
-100.666 -110.148 73.0867 -100.957 -104.366 72.4575 -100.427 -105.615 72.7927 
-100.147 -107.07 73.282 -100.047 -108.616 73.6906 -100.009 -110.222 74.0352 
-101.081 -103.131 73.2705 -100.418 -104.158 73.5932 -99.961 -105.593 74.1216 
-99.6178 -107.158 74.657 -99.5522 -108.649 75.0633 -99.7316 -110.197 75.5113 
-101.231 -102.211 74.0767 -100.474 -102.987 74.4742 -99.966 -104.165 75.0588 
-99.4486 -105.764 75.6821 -99.1029 -107.297 76.1336 -99.3107 -108.697 76.5487 
-99.762 -110.153 76.9896 -101.498 -101.435 74.9585 -100.633 -102.172 75.3996 
-100.023 -103.053 75.9681 -99.5417 -104.374 76.5797 -99.0443 -105.974 77.0313 
-98.9752 -107.456 77.3863 -99.415 -108.838 77.804 -99.9014 -110.192 78.1662 
-102.004 -100.776 75.9178 -101.159 -101.547 76.4051 -100.395 -102.349 76.9214 
-99.8622 -103.318 77.4457 -99.4067 -104.654 77.8971 -99.1374 -106.205 78.236 
-99.2989 -107.694 78.5788 -99.6931 -109.058 78.943 -100.078 -110.281 79.1932 
-102.806 -100.121 76.6808 -102.097 -100.812 77.2788 -102.917 -100.237 78.019 
-102.182 -100.97 78.7105 -102.939 -100.377 79.4536 -101.263 -101.668 77.8505 
-102.278 -101.182 80.0347 -103.143 -100.615 80.8046 -101.437 -101.885 79.2266 
-100.524 -102.558 78.3334 -102.648 -101.591 81.225 -103.623 -101.135 81.9657 
-101.693 -102.192 80.4629 -100.721 -102.854 79.6902 -99.9522 -103.606 78.8112 
-103.101 -102.221 82.4529 -104.014 -101.806 83.1211 -102.108 -102.701 81.715 
-100.978 -103.281 81.0312 -100.107 -104.025 80.2592 -99.573 -105.027 79.26 
-103.344 -102.797 83.738 -104.342 -102.456 84.2255 -102.45 -103.276 83.0474 
-101.413 -103.863 82.317 -100.436 -104.613 81.596 -99.8911 -105.574 80.7041 
-99.5518 -106.674 79.6016 -103.719 -103.402 84.7588 -104.93 -103.262 84.9686 
-102.724 -103.818 84.259 -101.906 -104.487 83.5034 -101.104 -105.305 82.6523 
-100.473 -106.225 81.812 -100.083 -107.242 80.8963 -99.802 -108.223 79.8804 
-104.42 -104.334 85.421 -105.641 -104.286 85.4676 -103.279 -104.613 85.1403 
-102.42 -105.224 84.5487 -101.811 -106.047 83.6757 -101.293 -106.899 82.6983 
-100.81 -107.783 81.8156 -100.388 -108.704 80.9801 -100.122 -109.546 80.0863 
-105.15 -105.425 85.9762 -106.199 -105.273 86.0484 -104.097 -105.685 85.7479 
-103.145 -106.17 85.3196 -102.424 -106.871 84.6575 -101.952 -107.616 83.7339 
-101.574 -108.342 82.7094 -101.153 -109.123 81.8138 -100.758 -109.923 81.016 
-100.531 -110.654 80.1762 -103.36 -99.6522 75.8 -103.575 -99.7077 76.9975 
-104.292 -99.3784 76.1474 -104.636 -99.3897 77.4025 -105.621 -99.1188 76.5752 
-103.766 -99.8055 78.4063 -106.054 -99.0066 78.0001 -107.1 -98.8996 77.0801 
-105.027 -99.4157 78.9665 -103.953 -99.9153 80.0151 -107.473 -98.847 78.6342 
-108.455 -99.063 77.5313 -106.496 -99.1509 79.6669 -105.408 -99.652 80.6365 
-104.334 -100.243 81.4368 -108.846 -99.1345 79.0503 -109.759 -99.5333 77.8404 
-107.822 -99.2548 80.2387 -106.834 -99.7059 81.1635 -105.762 -100.166 81.9222 
-104.77 -100.85 82.5709 -110.294 -99.5714 79.2879 -110.911 -100.047 78.1133 
-109.298 -99.5283 80.5959 -108.231 -99.8587 81.6061 -107.164 -100.261 82.3441 
-106.075 -100.772 83.0586 -105.124 -101.58 83.7122 -111.417 -100.175 79.5178 
-111.7 -100.735 78.4351 -110.779 -99.9345 80.819 -109.882 -99.9748 81.9923 
-108.814 -100.25 82.8689 -107.607 -100.792 83.6038 -106.515 -101.601 84.1982 
-105.664 -102.478 84.6193 -112.089 -101.078 79.7338 -112.3 -101.609 78.7245 
-111.698 -100.774 80.9164 -111.16 -100.563 82.1305 -110.428 -100.507 83.1966 
-109.324 -100.937 84.0519 -108.096 -101.836 84.5899 -107.143 -102.79 84.8444 
-106.385 -103.576 85.1015 -112.711 -101.986 79.8576 -112.951 -102.426 78.9015 
-112.311 -101.767 80.9142 -111.849 -101.605 82.0399 -111.397 -101.403 83.1353 
[...]
CELL_DATA 2000
SCALARS Distance double
LOOKUP_TABLE default
176.85 175.94 176.313 176.085 174.891 175.311 175.033 175.435 175.138 
173.678 174.155 173.822 174.281 173.946 174.402 174.108 172.33 172.837 
172.48 172.989 172.64 173.139 172.837 173.35 173.095 170.974 171.439 
171.068 171.603 171.277 171.805 171.501 172.034 171.765 172.313 172.061 
169.672 170.082 169.676 170.197 169.89 170.435 170.13 170.668 170.371 
170.934 170.665 171.243 171.006 168.38 168.77 168.349 168.845 168.562 
169.086 168.789 169.288 168.972 169.516 169.261 169.846 169.645 170.227 
170.071 167.144 167.496 167.107 167.571 167.347 167.843 167.594 168.016 
167.692 168.148 167.912 168.48 168.355 168.935 168.837 169.391 169.313 
166.067 166.354 166.015 166.415 166.243 166.711 166.527 166.914 166.596 
166.951 166.674 167.178 167.073 167.681 167.639 168.214 168.16 168.704 
168.665 177.113 177.23 176.858 176.223 177.353 176.963 176.284 175.916 
175.214 177.387 177.05 176.345 175.969 175.235 174.847 174.047 177.297 
177.025 176.354 176.012 175.266 174.864 174.043 173.614 172.738 177.214 
176.925 176.271 175.973 175.24 174.875 174.06 173.629 172.77 172.308 
171.435 177.153 176.851 176.132 175.841 175.084 174.78 173.982 173.627 
172.809 172.383 171.539 171.053 170.182 176.97 176.721 175.949 175.662 
174.866 174.579 173.797 173.504 172.727 172.387 171.577 171.155 170.274 
169.786 168.887 176.688 176.465 175.709 175.441 174.659 174.371 173.631 
173.345 172.629 172.305 171.533 171.146 170.29 169.841 168.927 168.461 
167.603 176.453 176.196 175.462 175.197 174.441 174.17 173.453 173.201 
172.543 172.256 171.556 171.157 170.352 169.873 169.003 168.507 167.643 
167.205 166.458 176.115 175.17 175.455 175.058 174.068 174.402 173.976 
174.347 173.994 172.939 173.234 172.737 173.145 172.781 173.259 172.988 
172.001 172.157 171.569 171.855 171.428 171.946 171.737 172.302 172.108 
171.302 171.355 170.753 170.811 170.298 170.629 170.432 171.023 170.929 
171.45 171.184 170.603 170.701 170.128 170.127 169.559 169.672 169.381 
169.811 169.72 170.247 169.996 170.412 169.979 169.746 169.914 169.312 
169.429 168.791 168.922 168.423 168.77 168.463 168.984 168.626 169.111 
168.6 169.053 168.556 168.849 168.997 168.349 168.496 167.78 167.958 
167.249 167.584 166.963 167.497 166.908 167.517 166.908 167.507 166.965 
167.561 167.145 168.026 168.126 167.481 167.556 166.825 166.902 166.117 
166.287 165.507 165.849 165.11 165.635 164.992 165.657 165.178 165.887 
165.557 166.219 165.97 165.288 164.75 164.73 164.264 164.185 164.088 
163.525 163.723 163.423 163.856 163.528 162.835 162.93 162.608 162.903 
162.636 164.015 163.403 162.633 162.394 161.99 162.11 161.854 162.084 
161.771 164.575 163.823 163.09 162.512 161.995 161.713 161.336 161.358 
161.086 161.27 161.066 165.308 164.545 163.87 163.168 162.568 161.974 
161.397 161.041 160.647 160.671 160.563 160.774 160.764 166.084 165.351 
164.684 163.965 163.319 162.625 161.953 161.319 160.766 160.449 160.269 
160.358 160.437 160.632 160.688 166.798 166.132 165.468 164.753 164.086 
163.371 162.738 162.014 161.467 160.853 160.566 160.299 160.32 160.369 
160.483 160.607 160.687 167.386 166.803 166.174 165.505 164.865 164.161 
163.608 162.9 162.476 161.767 161.486 160.9 160.815 160.502 160.576 
160.507 160.64 160.696 160.871 165.388 164.502 165.067 165.407 163.738 
164.275 164.646 165.212 165.649 162.896 163.479 163.78 164.41 164.788 
165.461 165.871 161.946 162.52 162.715 163.392 163.674 164.441 164.791 
165.548 165.885 161.217 161.596 161.752 162.298 162.573 163.273 163.647 
164.398 164.806 165.535 165.968 160.887 161.048 161.176 161.502 161.81 
162.337 162.786 163.396 163.889 164.546 165.103 165.796 166.396 160.777 
160.844 160.916 161.087 161.349 161.747 162.212 162.725 163.228 163.781 
164.343 165.008 165.674 166.369 167.003 160.801 160.81 160.907 160.946 
161.166 161.398 161.827 162.244 162.75 163.222 163.757 164.326 164.982 
165.665 166.359 167.002 167.583 161.035 160.973 161.188 161.113 161.382 
161.396 161.799 161.999 162.516 162.85 163.421 163.856 164.521 165.078 
165.812 166.41 167.072 167.603 168.14 161.344 162.052 161.64 161.547 
162.851 162.417 162.34 161.882 161.792 163.701 163.235 163.196 162.736 
162.662 162.177 162.171 164.76 164.175 164.143 163.629 163.599 163.092 
163.081 162.644 162.789 165.986 165.348 165.314 164.694 164.668 164.087 
164.112 163.613 163.768 163.381 163.677 167.155 166.558 166.525 165.918 
165.889 165.26 165.298 164.732 164.94 164.476 164.82 164.409 164.817 
168.316 167.691 167.643 167.074 167.09 166.512 166.595 166.011 166.234 
165.729 166.101 165.656 166.072 165.644 166.082 169.604 168.913 168.88 
168.235 168.311 167.734 167.915 167.353 167.602 167.066 167.394 166.934 
167.311 166.894 167.268 166.884 167.276 170.917 170.257 170.275 169.589 
169.691 169.057 169.272 168.706 168.977 168.435 168.713 168.208 168.51 
168.073 168.394 168.005 168.327 167.983 168.316 161.38 161.796 161.717 
162.092 162.516 162.265 162.596 162.503 162.896 163.488 163.108 163.418 
163.157 163.535 163.368 163.789 164.612 164.155 164.484 164.127 164.54 
164.21 164.63 164.376 164.872 165.855 165.346 165.675 165.27 165.708 
165.336 165.747 165.371 165.793 165.548 166.073 167.116 166.631 166.963 
166.516 166.935 166.532 166.931 166.519 166.88 166.531 166.975 166.763 
167.272 168.272 167.867 168.24 167.821 168.241 167.802 168.207 167.738 
168.116 167.67 168.104 167.759 168.273 167.998 168.506 169.339 168.985 
169.38 169.039 169.473 169.093 169.512 169.064 169.468 168.988 169.432 
168.994 169.499 169.124 169.643 169.3 169.802 170.356 170.028 170.402 
170.107 170.522 170.228 170.64 170.303 170.707 170.319 170.735 170.327 
170.768 170.378 170.837 170.477 170.938 170.606 171.068 167.487 167.29 
167.029 166.299 167.252 166.881 166.135 165.814 165.049 167.454 166.972 
166.251 165.785 165.047 164.631 163.895 167.779 167.267 166.578 166.045 
165.341 164.808 164.101 163.603 162.891 168.146 167.623 166.945 166.413 
165.715 165.176 164.472 163.93 163.22 162.68 161.983 168.591 168.037 
167.384 166.815 166.136 165.567 164.873 164.317 163.628 163.073 162.388 
161.839 161.257 169.085 168.531 167.925 167.332 166.711 166.082 165.437 
164.796 164.154 163.541 162.918 162.32 161.751 161.237 160.869 169.6 
169.056 168.499 167.922 167.364 166.745 166.158 165.477 164.867 164.184 
163.61 162.957 162.439 161.83 161.44 160.993 160.833 170.164 169.621 
169.124 168.546 168.048 167.443 166.916 166.25 165.674 164.971 164.418 
163.74 163.266 162.619 162.247 161.678 161.477 161.08 161.063 168.194 
169.258 168.477 168.03 170.436 169.598 169.14 168.354 167.984 171.649 
170.804 170.337 169.511 169.14 168.399 168.149 172.86 172.038 171.595 
170.739 170.363 169.59 169.335 168.635 168.453 174.065 173.289 172.909 
172.039 171.661 170.842 170.573 169.839 169.648 168.961 168.811 175.171 
174.488 174.159 173.357 172.986 172.161 171.859 171.09 170.873 170.165 
170.01 169.343 169.232 176.137 175.535 175.228 174.535 174.194 173.446 
173.147 172.384 172.14 171.398 171.217 170.538 170.421 169.783 169.697 
177.01 176.461 176.188 175.557 175.262 174.591 174.344 173.648 173.431 
172.686 172.479 171.752 171.609 170.957 170.872 170.25 170.183 177.799 
177.316 177.101 176.521 176.267 175.639 175.415 174.791 174.61 173.947 
173.754 173.032 172.853 172.157 172.051 171.417 171.357 170.745 170.705 
178.159 178.52 178.071 177.497 178.887 178.422 177.822 177.345 176.694 
179.305 178.797 178.173 177.663 176.996 176.505 175.854 179.763 179.247 
178.617 178.051 177.359 176.814 176.151 175.681 175.062 180.126 179.674 
179.075 178.534 177.846 177.237 176.542 176.001 175.367 174.898 174.253 
180.488 180.016 179.461 178.972 178.348 177.763 177.067 176.454 175.78 
175.234 174.576 174.064 173.386 181.017 180.475 179.942 179.4 178.817 
178.254 177.585 176.983 176.272 175.682 174.986 174.426 173.743 173.216 
172.576 181.478 181.025 180.489 179.948 179.336 178.747 178.059 177.46 
176.732 176.146 175.421 174.851 174.153 173.606 172.955 172.453 171.868 
181.609 181.334 180.801 180.409 179.78 179.248 178.522 177.922 177.18 
176.588 175.87 175.289 174.594 174.028 173.371 172.846 172.243 171.767 
171.217 181.396 180.792 180.955 180.635 180.083 180.298 179.937 180.111 
179.648 179.128 179.454 179.034 179.303 178.812 178.983 178.39 178.008 
178.371 177.951 178.288 177.824 178.079 177.529 177.669 177.059 176.926 
177.252 176.823 177.159 176.735 177.062 176.597 176.809 176.242 176.352 
175.756 175.753 176.144 175.651 176.004 175.52 175.915 175.459 175.813 
175.275 175.492 174.873 175.027 174.446 174.38 174.849 174.33 174.742 
174.198 174.623 174.121 174.562 174.035 174.394 173.792 174.054 173.46 
173.698 173.188 173.03 173.454 172.976 173.383 172.882 173.286 172.808 
173.218 172.74 173.117 172.6 172.916 172.391 172.672 172.193 172.471 
172.051 171.848 172.192 171.745 172.104 171.657 172.028 171.597 171.974 
171.552 171.908 171.478 171.793 171.358 171.64 171.216 171.487 171.088 
171.374 171.016 181.767 182.217 181.694 181.16 182.753 182.195 181.596 
181.085 180.501 182.997 182.646 182.005 181.514 180.815 180.314 179.571 
182.689 182.621 181.997 181.732 180.949 180.523 179.669 179.218 178.413 
182.14 182.135 181.538 181.468 180.735 180.481 179.616 179.229 178.392 
178.027 177.296 181.667 181.606 180.997 180.935 180.294 180.165 179.408 
179.112 178.261 177.928 177.133 176.867 176.106 181.173 181.151 180.536 
180.442 179.815 179.729 179.067 178.874 178.036 177.719 176.805 176.554 
175.709 175.528 174.706 180.581 180.632 180.071 179.997 179.355 179.267 
178.622 178.507 177.728 177.449 176.494 176.168 175.256 175.049 174.256 
174.094 173.344 179.982 180.059 179.574 179.535 178.912 178.807 178.147 
178.051 177.344 177.135 176.271 175.909 175.01 174.682 173.919 173.699 
173.023 172.829 172.171 182.251 183.154 182.738 182.776 183.888 183.666 
183.811 183.338 183.337 184.356 184.305 184.572 184.301 184.272 183.782 
183.549 184.884 184.75 185.021 184.896 184.875 184.523 184.171 183.687 
183.203 185.506 185.291 185.391 185.257 185.206 184.95 184.59 184.162 
183.652 183.176 182.668 185.698 185.674 185.56 185.492 185.325 185.173 
184.839 184.512 184.045 183.614 183.142 182.673 182.206 185.351 185.537 
185.387 185.434 185.192 185.15 184.826 184.667 184.245 183.951 183.464 
183.087 182.571 182.159 181.643 184.921 185.142 185.153 185.212 185.042 
184.974 184.673 184.566 184.186 184.024 183.544 183.278 182.705 182.375 
181.79 181.47 180.949 184.681 184.869 185.033 185.096 185.036 184.923 
184.641 184.459 184.077 183.911 183.469 183.264 182.731 182.438 181.857 
181.54 181.011 180.74 180.296 184.68 184.676 184.837 185.001 184.184 
184.596 184.731 184.975 184.947 183.313 183.849 183.96 184.429 184.397 
184.671 184.479 182.441 182.927 183.019 183.516 183.513 183.925 183.769 
184.049 183.829 181.599 182.075 182.151 182.609 182.588 182.995 182.851 
183.214 183.012 183.347 183.152 180.646 181.166 181.209 181.717 181.648 
182.06 181.85 182.235 182.022 182.437 182.251 182.632 182.415 179.641 
180.153 180.162 180.697 180.613 181.056 180.811 181.193 180.963 181.407 
181.272 181.701 181.517 181.849 181.585 178.678 179.152 179.137 179.634 
179.551 179.995 179.786 180.159 179.948 180.37 180.276 180.734 180.622 
180.975 180.738 181.015 180.759 177.771 178.211 178.171 178.623 178.523 
178.954 178.782 179.17 178.994 179.399 179.3 179.754 179.661 180.07 
179.872 180.186 179.941 180.236 180.044 177.26 176.51 177.147 177.618 
175.592 176.314 176.793 177.46 177.913 174.609 175.358 175.86 176.573 
177.048 177.721 178.16 173.628 174.384 174.913 175.641 176.156 176.851 
177.35 177.986 178.434 172.611 173.395 173.938 174.7 175.243 175.972 
176.509 177.193 177.701 178.305 178.767 171.572 172.359 172.915 173.71 
174.272 175.043 175.592 176.329 176.839 177.527 177.997 178.633 179.072 
170.628 171.35 171.916 172.695 173.274 174.056 174.624 175.388 175.915 
176.629 177.098 177.779 178.22 178.878 179.268 169.837 170.472 171.022 
171.744 172.324 173.076 173.65 174.416 174.983 175.717 176.236 176.903 
177.378 178.014 178.455 179.051 179.409 169.165 169.729 170.241 170.898 
171.463 172.166 172.735 173.467 174.046 174.796 175.366 176.072 176.591 
177.231 177.711 178.299 178.724 179.238 179.577 179.529 178.659 179.124 
179.093 177.623 178.146 178.067 178.548 178.407 176.465 177.017 176.891 
177.419 177.251 177.759 177.604 175.204 175.783 175.622 176.178 175.993 
176.539 176.371 176.929 176.765 173.864 174.452 174.267 174.858 174.651 
175.23 175.024 175.619 175.403 175.992 175.706 172.536 173.086 172.864 
173.457 173.218 173.821 173.56 174.183 173.925 174.549 174.256 174.825 
174.49 171.254 171.759 171.481 172.036 171.757 172.346 172.053 172.664 
172.383 173.02 172.761 173.373 173.106 173.655 173.411 170.038 170.486 
170.177 170.667 170.36 170.896 170.603 171.173 170.895 171.495 171.24 
171.868 171.637 172.264 172.054 172.653 172.485 168.965 169.326 169.021 
169.423 169.118 169.565 169.277 169.78 169.518 170.063 169.801 170.378 
170.12 170.751 170.537 171.214 171.055 171.727 171.608 177.155 177.38 
177.591 178.273 177.686 177.873 178.556 178.745 179.425 177.862 178.145 
178.863 179.086 179.799 179.948 180.616 177.86 178.206 178.909 179.283 
180.023 180.316 181.029 181.18 181.826 177.935 178.209 178.871 179.225 
179.923 180.347 181.059 181.448 182.123 182.349 182.909 178.081 178.357 
179.041 179.281 179.933 180.221 180.87 181.285 181.959 182.407 182.997 
183.271 183.643 178.044 178.435 179.127 179.458 180.092 180.327 180.896 
181.152 181.751 182.143 182.764 183.169 183.617 183.817 183.99 177.854 
178.278 178.905 179.363 179.96 180.358 180.883 181.186 181.682 181.991 
182.537 182.918 183.448 183.742 184.059 184.106 184.183 177.68 178.049 
178.608 179.04 179.599 180.061 180.595 181.02 181.503 181.862 182.324 
182.69 183.194 183.571 184.024 184.218 184.456 184.374 184.438 177.301 
178.451 177.915 177.967 179.572 179.07 179.163 178.597 178.521 180.681 
180.16 180.245 179.75 179.68 179.018 178.71 181.845 181.264 181.299 
180.801 180.797 180.171 179.885 179.086 178.686 182.959 182.419 182.404 
181.865 181.89 181.319 181.175 180.366 179.995 179.114 178.787 183.718 
183.396 183.379 182.927 182.892 182.393 182.281 181.634 181.307 180.477 
180.063 179.254 178.938 184.002 183.904 183.911 183.707 183.65 183.287 
183.092 182.585 182.203 181.573 181.065 180.385 179.906 179.269 178.894 
184.087 184.022 184.024 184.01 184.019 183.863 183.673 183.265 182.83 
182.276 181.731 181.15 180.618 180.054 179.601 179.077 178.709 184.279 
184.119 184.109 184.078 184.165 184.12 184.043 183.753 183.368 182.853 
182.328 181.76 181.265 180.704 180.268 179.728 179.355 178.86 178.54 
176.655 177.26 176.561 175.736 177.777 177.145 176.266 175.556 174.656 
177.99 177.553 176.746 176.091 175.162 174.437 173.554 177.991 177.671 
177.032 176.544 175.704 174.978 174.051 173.353 172.581 178.072 177.703 
177.134 176.783 176.087 175.495 174.572 173.854 173.005 172.43 171.796 
178.248 177.849 177.211 176.865 176.204 175.776 174.942 174.328 173.454 
172.849 172.15 171.672 171.08 178.301 177.986 177.323 176.947 176.249 
175.853 175.108 174.625 173.853 173.296 172.588 172.048 171.404 170.915 
170.27 178.193 177.969 177.367 177.035 176.366 175.956 175.262 174.812 
174.126 173.65 172.978 172.473 171.786 171.258 170.555 170.057 169.384 
178.047 177.85 177.297 177.038 176.427 176.086 175.432 175.018 174.334 
173.892 173.194 172.755 172.032 171.568 170.816 170.332 169.612 169.163 
168.527 182.131 182.003 182.379 182.917 181.555 182.087 182.605 183.058 
183.519 181.057 181.581 182.142 182.635 183.099 183.531 183.952 180.709 
181.168 181.787 182.237 182.818 183.188 183.731 184.063 184.603 180.338 
180.833 181.439 181.935 182.574 183.007 183.67 184.024 184.687 184.934 
185.43 179.869 180.387 180.948 181.506 182.086 182.658 183.283 183.862 
184.517 184.988 185.449 185.644 185.744 179.426 179.9 180.433 180.964 
181.49 182.055 182.577 183.233 183.798 184.502 184.916 185.39 185.41 
185.568 185.336 179.014 179.456 179.935 180.438 180.931 181.453 181.925 
182.485 182.987 183.644 184.084 184.651 184.747 185.032 184.813 184.96 
184.754 178.615 179.022 179.442 179.913 180.365 180.88 181.343 181.866 
182.356 182.917 183.403 183.913 184.168 184.436 184.356 184.45 184.289 
184.448 184.427 
POINT_DATA 1002
SCALARS Distance double
LOOKUP_TABLE default
176.685 177.35 176.518 175.737 175.569 175.835 174.631 174.476 174.736 
174.847 173.361 173.2 173.479 173.628 173.853 171.952 171.841 172.13 
172.314 172.572 172.865 170.526 170.557 170.73 170.974 171.219 171.507 
171.816 169.166 169.294 169.339 169.605 169.815 170.082 170.411 170.795 
167.852 167.997 168.033 168.318 168.448 168.655 169.049 169.478 169.941 
166.639 166.796 166.831 167.182 167.287 167.344 167.739 168.279 168.755 
169.244 165.63 165.777 165.778 166.125 166.278 166.226 166.455 167.03 
167.611 168.116 168.636 177.472 176.585 177.635 176.67 177.756 175.598 
176.726 177.683 175.641 174.468 176.669 177.543 175.672 174.486 173.177 
176.566 177.535 175.582 174.469 173.227 171.909 176.455 177.473 175.378 
174.294 173.187 172.017 170.696 176.239 177.201 175.155 174.067 173.035 
171.963 170.757 169.372 175.957 176.906 174.931 173.893 172.935 171.92 
170.722 169.396 168.017 175.725 176.728 174.704 173.688 172.779 171.917 
170.834 169.505 168.11 166.804 175.893 174.748 174.87 173.589 173.746 
173.592 172.369 172.706 172.257 172.498 171.399 171.9 170.943 171.086 
171.631 170.771 171.24 170.095 169.86 170.355 170.804 170.097 170.479 
169.523 169.066 169.223 169.587 169.601 169.17 169.591 168.673 168.183 
168.027 168.147 168.148 168.054 168.232 168.726 167.65 167.022 166.547 
166.323 166.258 166.321 166.522 167.424 167.93 166.79 166.038 165.294 
164.682 164.328 164.395 164.821 165.331 164.759 164.102 163.935 163.343 
163.135 163.204 162.849 162.318 162.377 162.331 163.038 162.019 161.641 
161.55 161.438 163.752 162.485 161.486 160.888 160.827 160.938 164.593 
163.27 161.955 160.754 160.306 160.562 160.797 165.426 164.037 162.655 
161.254 160.294 160.213 160.542 160.73 166.182 164.799 163.426 162.136 
161.015 160.394 160.357 160.554 160.782 166.805 165.538 164.261 163.141 
162.152 161.295 160.761 160.616 160.756 161.08 164.815 164.081 165.049 
163.158 164.107 165.214 162.075 162.915 164.005 165.156 161.28 161.908 
162.902 164.037 165.229 160.932 161.323 162.206 163.257 164.378 165.709 
160.809 161.012 161.719 162.719 163.714 164.944 166.373 160.894 161.023 
161.468 162.3 163.238 164.323 165.681 167.026 161.248 161.428 161.701 
162.233 163.019 164.011 165.232 166.525 167.669 161.707 161.97 162.482 
162.803 163.271 162.253 163.634 164.201 163.155 162.583 164.695 165.386 
164.103 163.543 163.122 165.965 166.608 165.286 164.619 164.179 164.008 
167.105 167.756 166.508 165.878 165.401 165.245 165.212 168.215 168.979 
167.612 167.152 166.758 166.546 166.516 166.492 169.546 170.29 168.88 
168.442 168.154 167.898 167.741 167.678 167.638 170.939 171.525 170.343 
169.852 169.526 169.255 168.989 168.804 168.702 168.644 161.357 162.089 
161.946 162.763 162.842 162.94 163.723 163.903 163.772 163.899 164.845 
165.094 164.889 164.963 165.031 166.105 166.371 166.079 166.16 166.123 
166.229 167.422 167.56 167.368 167.361 167.277 167.243 167.456 168.623 
168.636 168.678 168.681 168.582 168.493 168.581 168.785 169.699 169.685 
169.82 169.924 169.932 169.894 169.912 170.009 170.137 170.704 170.681 
170.806 170.943 171.056 171.134 171.179 171.218 171.287 171.392 167.728 
166.555 167.588 166.502 167.668 165.35 166.748 167.949 165.507 164.286 
167.106 168.286 165.885 164.636 163.384 167.479 168.677 166.253 165.012 
163.773 162.506 167.958 169.141 166.718 165.44 164.171 162.942 161.72 
168.496 169.622 167.324 166.093 164.781 163.514 162.303 161.234 169.054 
170.128 167.95 166.821 165.561 164.262 163.06 161.959 161.133 168.928 
168.777 170.071 169.947 171.292 168.699 171.177 172.48 169.891 168.833 
172.459 173.645 171.153 170.05 169.127 173.766 174.788 172.507 171.328 
170.345 169.474 174.914 175.816 173.802 172.651 171.601 170.678 169.881 
175.879 176.719 174.894 173.889 172.905 171.919 171.057 170.329 176.789 
177.525 175.9 174.995 174.153 173.238 172.285 171.488 170.801 177.637 