# vtk DataFile Version 4.0
vtk output
ASCII
DATASET POLYDATA
POINTS 1002 float
-104.002 -119.203 74.8245 -104.71 -120.097 74.4691 -104.59 -119.378 73.8259 
-103.939 -118.296 74.1247 -104.559 -118.465 73.299 -103.527 -117.948 75.2778 
-103.945 -117.18 73.4947 -104.598 -117.362 72.6897 -103.474 -116.827 74.5403 
-103.247 -116.207 75.791 -103.805 -116.001 72.7361 -104.452 -116.236 71.8741 
-103.188 -115.722 73.7704 -102.844 -115.206 75.0396 -102.686 -114.502 76.2211 
-103.349 -114.983 71.8402 -104.02 -115.229 71.0277 -102.578 -114.796 72.845 
-101.971 -114.533 74.1321 -101.737 -113.982 75.4557 -101.677 -113.322 76.5539 
-102.782 -114.094 71.008 -103.59 -114.222 70.2818 -101.952 -113.973 71.9374 
-101.132 -113.903 73.0893 -100.669 -113.612 74.4635 -100.608 -112.995 75.8008 
-100.667 -112.36 76.9914 -102.337 -113.085 70.2415 -103.345 -113.11 69.6829 
-101.537 -112.992 71.1502 -100.778 -112.918 72.2076 -100.186 -112.764 73.404 
-99.9452 -112.315 74.826 -99.9601 -111.694 76.2619 -100.022 -111.161 77.5777 
-102.035 -111.949 69.604 -103.227 -111.963 69.3499 -101.208 -111.812 70.3416 
-100.647 -111.598 71.4386 -100.17 -111.368 72.5685 -99.8498 -111.018 73.8305 
-99.7261 -110.537 75.3276 -99.7339 -110.068 76.8018 -99.758 -109.684 78.1139 
-101.944 -110.787 69.2331 -103.199 -110.805 69.1525 -100.999 -110.603 69.6702 
-100.492 -110.255 70.6263 -100.159 -109.868 71.8228 -99.881 -109.473 73.0215 
-99.7279 -109.061 74.3668 -99.7006 -108.676 75.859 -99.7305 -108.348 77.2605 
-99.728 -108.069 78.4941 -102.078 -109.602 68.9735 -103.218 -109.664 68.8155 
-101.067 -109.385 69.2951 -100.452 -108.987 69.9757 -100.126 -108.518 71.0429 
-99.8781 -108.053 72.2723 -99.7249 -107.609 73.5321 -99.7075 -107.224 74.9014 
-99.7583 -106.917 76.3199 -99.7834 -106.677 77.6219 -99.747 -106.491 78.7711 
-105.397 -120.577 73.7354 -105.3 -119.79 73.1812 -106.092 -121.104 73.0146 
-106.028 -120.218 72.4046 -106.836 -121.48 72.196 -105.265 -118.824 72.624 
-106.819 -120.542 71.4128 -107.784 -121.612 71.3004 -105.99 -119.194 71.644 
-105.264 -117.717 71.8677 -107.84 -120.652 70.5079 -108.931 -121.576 70.4891 
-106.817 -119.473 70.5722 -105.959 -118.081 70.8312 -105.075 -116.587 71.0341 
-109.058 -120.481 69.8206 -110.102 -121.34 69.7603 -107.899 -119.478 69.8111 
-106.852 -118.293 69.9581 -105.859 -116.878 70.2081 -104.767 -115.433 70.3082 
-110.217 -120.117 69.0488 -111.163 -120.942 68.9807 -109.09 -119.235 69.105 
-107.94 -118.276 69.2517 -106.866 -117.046 69.4621 -105.784 -115.574 69.6196 
-104.612 -114.197 69.6877 -111.184 -119.767 68.145 -112.089 -120.548 68.157 
-110.129 -118.998 68.183 -108.971 -118.197 68.3496 -107.826 -117.154 68.5532 
-106.774 -115.772 68.7672 -105.761 -114.253 69.0834 -104.577 -112.947 69.3311 
-112.073 -119.373 67.3888 -112.952 -120.094 67.4267 -111.052 -118.74 67.3692 
-109.898 -118.081 67.4436 -108.679 -117.163 67.5793 -107.534 -115.951 67.7763 
-106.597 -114.479 68.2665 -105.687 -112.943 68.9107 -104.513 -111.699 69.2191 
-112.995 -118.76 66.9133 -113.803 -119.452 66.892 -112.015 -118.216 66.8892 
-110.857 -117.708 66.8364 -109.604 -116.935 66.8531 -108.369 -115.893 66.9961 
-107.306 -114.642 67.4465 -106.44 -113.107 68.2303 -105.514 -111.577 68.8505 
-104.377 -110.447 68.9607 -114.188 -118.19 66.5767 -113.299 -117.531 66.6163 
-114.468 -116.905 66.3065 -113.405 -116.299 66.0803 -114.429 -115.781 65.6477 
-112.125 -117.072 66.4346 -113.12 -115.222 65.0827 -114.107 -114.694 64.7796 
-111.984 -115.852 65.6037 -110.763 -116.496 66.2512 -112.644 -114.16 64.4708 
-113.706 -113.529 64.6586 -111.563 -114.75 64.7734 -110.541 -115.216 65.5871 
-109.439 -115.605 66.3782 -112.28 -112.863 64.9661 -113.268 -112.394 65.4489 
-111.17 -113.469 64.8617 -110.265 -113.98 65.4081 -109.366 -114.279 66.2284 
-108.247 -114.505 66.8572 -112.009 -111.385 65.8819 -112.806 -111.234 66.3536 
-110.95 -111.712 65.6268 -110.011 -112.25 65.8184 -109.248 -112.707 66.4096 
-108.233 -112.922 67.0346 -107.159 -113.033 67.6103 -111.72 -109.981 66.6702 
-112.411 -109.942 67.1298 -110.749 -110.009 66.3626 -109.73 -110.246 66.3421 
-108.89 -110.696 66.6707 -107.954 -111.019 67.1454 -106.886 -111.138 67.6607 
-106.084 -111.295 68.2818 -111.367 -108.785 67.5834 -112.029 -108.692 68.0023 
-110.454 -108.813 67.2346 -109.411 -108.847 67.0585 -108.437 -109.06 67.1888 
-107.413 -109.352 67.4408 -106.305 -109.471 67.5974 -105.469 -109.563 67.905 
-104.942 -109.902 68.4707 -110.922 -107.749 68.5972 -111.569 -107.631 68.8889 
-110.061 -107.867 68.3174 -109.069 -107.936 68.0723 -108.091 -108.044 68.0447 
-107.024 -108.277 68.1798 -105.801 -108.447 68.0514 -104.806 -108.449 67.7465 
-104.257 -108.572 67.8412 -103.822 -109.022 68.3472 -102.619 -108.454 68.5062 
-103.18 -107.865 67.9696 -102.16 -106.967 68.4867 -103.632 -107.599 67.754 
-102.752 -106.47 68.1284 -101.804 -105.146 68.8247 -104.367 -107.571 68.2164 
-103.393 -106.239 68.2778 -102.584 -104.595 68.7278 -101.559 -103.159 69.2422 
-105.595 -107.413 68.8007 -104.38 -105.971 68.8333 -103.484 -104.116 68.8942 
-102.572 -102.457 69.2603 -101.498 -101.193 69.5518 -106.866 -107.086 68.9005 
-105.643 -105.526 69.138 -104.55 -103.591 69.0537 -103.598 -101.845 69.2628 
-102.599 -100.44 69.5607 -101.6 -99.3117 69.7974 -107.881 -106.883 68.8897 
-106.762 -105.22 69.2206 -105.693 -103.243 69.1645 -104.679 -101.503 69.3035 
-103.712 -99.9941 69.6003 -102.747 -98.6578 69.7923 -101.884 -97.7602 70.1437 
-108.852 -106.815 69.0992 -107.719 -105.203 69.4883 -106.766 -103.235 69.4981 
-105.876 -101.489 69.5959 -104.964 -99.9551 69.8522 -104.042 -98.4614 70.0236 
-103.16 -97.3498 70.2749 -102.41 -96.849 70.8783 -109.823 -106.732 69.3271 
-108.7 -105.28 69.7874 -107.78 -103.429 69.917 -107.027 -101.648 70.0211 
-106.244 -100.091 70.2412 -105.382 -98.6114 70.4561 -104.514 -97.4109 70.7369 
-103.71 -96.7346 71.2649 -103.025 -96.4576 72.0353 -110.636 -106.64 69.5008 
-109.624 -105.336 69.9611 -108.733 -103.668 70.2026 -108.008 -101.937 70.3763 
-107.301 -100.348 70.5968 -106.518 -98.8887 70.869 -105.707 -97.7148 71.2637 
-104.921 -96.9694 71.8352 -104.188 -96.513 72.5259 -103.547 -96.1784 73.2613 
-101.583 -108.145 68.9293 -101.18 -106.292 69.0994 -100.702 -107.687 69.4668 
-100.745 -104.212 69.3362 -100.31 -105.631 69.6728 -100.167 -107.165 70.2515 
-100.475 -102.137 69.5703 -99.8897 -103.429 69.8513 -99.83 -105.055 70.5243 
-99.8824 -106.655 71.4202 -100.558 -100.124 69.9276 -99.8145 -101.241 70.2509 
-99.629 -102.785 70.9461 -99.7193 -104.548 71.896 -99.7356 -106.163 72.7927 
-100.842 -98.3693 70.4053 -100.071 -99.2674 70.9133 -99.741 -100.577 71.6571 
-99.7325 -102.318 72.5651 -99.7469 -104.107 73.4385 -99.7171 -105.721 74.1961 
-101.301 -97.2218 71.085 -100.409 -97.8621 71.6412 -99.9249 -98.809 72.4289 
-99.7885 -100.257 73.3088 -99.7737 -102.032 74.1649 -99.7666 -103.762 74.9389 
-99.7687 -105.38 75.6524 -101.967 -96.6266 72.1318 -100.946 -97.0501 72.5389 
-100.194 -97.6776 73.2126 -99.8338 -98.6858 74.0184 -99.7345 -100.184 74.8664 
-99.7259 -101.891 75.691 -99.7592 -103.557 76.4301 -99.7958 -105.158 77.0677 
-102.643 -96.2104 73.3631 -101.687 -96.4951 73.6566 -100.784 -96.9744 74.1734 
-100.136 -97.6793 74.8444 -99.8321 -98.7858 75.6046 -99.7321 -100.275 76.4109 
-99.7049 -101.9 77.1719 -99.7281 -103.495 77.8056 -99.7596 -105.031 78.3227 
-103.49 -95.6849 74.4423 -102.637 -95.8424 74.7318 -103.494 -95.1261 75.6381 
-102.698 -95.5562 76.1203 -103.582 -94.9086 76.8506 -101.758 -96.2871 75.1882 
-102.807 -95.6147 77.4779 -103.731 -95.2184 78.091 -101.894 -96.2639 76.7573 
-100.896 -96.9404 75.8077 -102.947 -95.9858 78.8774 -103.933 -95.8457 79.4643 
-102.014 -96.5011 78.2767 -101.067 -97.1432 77.4998 -100.269 -97.832 76.5171 
-103.162 -96.5628 80.4156 -104.195 -96.5195 81.0014 -102.157 -96.9233 79.7861 
-101.205 -97.5221 79.0915 -100.462 -98.1947 78.2285 -99.9649 -99.0791 77.2693 
-103.448 -97.2737 81.878 -104.481 -97.1538 82.3845 -102.446 -97.5686 81.2436 
-101.443 -98.0654 80.5339 -100.665 -98.6869 79.7644 -100.15 -99.5195 78.9013 
-99.8126 -100.632 78.0136 -103.767 -98.0441 82.9825 -104.818 -97.9145 83.3718 
-102.822 -98.3407 82.4573 -101.869 -98.8133 81.7995 -101.01 -99.3742 81.097 
-100.386 -100.099 80.3478 -99.9409 -101.108 79.5244 -99.7194 -102.283 78.6634 
-104.183 -98.9429 83.7972 -105.267 -98.8982 84.101 -103.214 -99.1326 83.4184 
-102.317 -99.5865 82.8947 -101.452 -100.206 82.2836 -100.727 -100.873 81.6397 
-100.163 -101.715 80.9085 -99.7963 -102.762 80.0737 -99.7012 -103.89 79.1892 
-104.708 -99.9409 84.4977 -105.765 -99.8988 84.7601 -103.69 -100.013 84.2223 
-102.756 -100.337 83.8418 -101.865 -100.975 83.3414 -101.083 -101.703 82.7814 
-100.476 -102.443 82.1443 -100.017 -103.324 81.3838 -99.7574 -104.35 80.5225 
-99.7108 -105.43 79.6283 -104.422 -96.0269 73.9031 -104.445 -95.2433 74.9728 
-105.516 -95.8128 74.3731 -105.761 -94.8131 75.367 -106.809 -95.6424 74.6972 
-104.564 -94.5363 76.1204 -107.172 -94.7798 75.7793 -107.897 -95.9192 75.1058 
-106.034 -94.2059 76.6246 -104.738 -94.5001 77.3807 -108.163 -95.5155 76.3473 
-108.686 -96.734 75.6967 -107.426 -94.5835 77.2177 -106.22 -94.5656 78.0107 
-104.918 -95.1854 78.6688 -109.043 -96.568 76.9633 -109.624 -97.5871 76.3152 
-108.473 -95.5883 77.82 -107.594 -95.2377 78.6695 -106.361 -95.5668 79.3434 
-105.147 -96.0427 80.1066 -110.228 -97.3274 77.4757 -110.673 -98.2949 76.8249 
-109.683 -96.4562 78.3423 -108.875 -96.0542 79.2956 -107.791 -96.1537 80.0753 
-106.589 -96.3814 80.8288 -105.44 -96.6549 81.6795 -111.246 -98.079 77.8937 
-111.459 -99.1205 77.2237 -110.951 -97.1216 78.8038 -110.272 -96.6392 79.8865 
-109.199 -96.6641 80.8044 -108.024 -96.7738 81.5555 -106.862 -96.8739 82.3322 
-105.75 -97.245 82.9834 -111.893 -99.0815 78.2766 -112.12 -100.004 77.5575 
-111.732 -98.1135 79.2237 -111.36 -97.4054 80.3909 -110.507 -97.2086 81.4145 
-109.351 -97.3011 82.1375 -108.197 -97.3853 82.831 -107.112 -97.6105 83.487 
-106.114 -98.1653 83.8905 -112.544 -100.007 78.6413 -112.877 -100.703 77.8678 
-112.252 -99.2731 79.5842 -111.972 -98.5463 80.7442 -111.452 -98.0584 81.8347 
[...]
CELL_DATA 2000
SCALARS Distance double
LOOKUP_TABLE default
174.306 173.423 173.695 173.367 172.468 172.75 172.339 172.684 172.315 
171.342 171.681 171.181 171.558 171.115 171.528 171.096 170.066 170.435 
169.87 170.278 169.78 170.242 169.808 170.25 169.821 168.786 169.125 
168.552 168.928 168.418 168.862 168.45 168.934 168.565 169.01 168.667 
167.562 167.853 167.282 167.642 167.144 167.544 167.131 167.592 167.255 
167.744 167.444 167.922 167.669 166.449 166.642 166.007 166.357 165.851 
166.277 165.842 166.295 165.921 166.419 166.117 166.652 166.411 166.949 
166.752 165.502 165.58 164.865 165.1 164.551 164.953 164.519 164.981 
164.585 165.072 164.737 165.284 165.043 165.634 165.451 166.029 165.856 
164.644 164.688 163.954 164.053 163.451 163.716 163.271 163.672 163.299 
163.749 163.415 163.916 163.67 164.249 164.085 164.695 164.551 165.132 
164.972 174.743 175.19 174.61 173.901 175.608 175.05 174.311 173.743 
172.983 175.93 175.408 174.641 174.103 173.307 172.756 171.903 176.259 
175.717 174.936 174.382 173.569 173.033 172.173 171.595 170.665 176.586 
176.065 175.287 174.699 173.888 173.312 172.48 171.878 170.966 170.332 
169.394 176.761 176.331 175.559 175.036 174.231 173.671 172.862 172.247 
171.369 170.69 169.761 169.098 168.2 176.794 176.421 175.663 175.232 
174.448 173.971 173.167 172.619 171.749 171.114 170.208 169.533 168.657 
167.986 167.156 176.781 176.427 175.701 175.311 174.571 174.14 173.346 
172.85 171.97 171.418 170.524 169.949 169.111 168.494 167.685 167.018 
166.232 176.735 176.413 175.726 175.368 174.667 174.261 173.485 173.001 
172.131 171.597 170.726 170.207 169.403 168.882 168.089 167.51 166.691 
166.081 165.306 176.466 175.723 175.895 175.477 174.809 175.073 174.623 
174.854 174.402 173.63 173.993 173.475 173.841 173.341 173.671 173.16 
172.442 172.739 172.199 172.572 172.079 172.482 171.984 172.331 171.786 
171.538 171.665 171.126 171.362 170.927 171.27 170.88 171.19 170.708 
170.957 170.432 170.793 170.855 170.224 170.367 169.85 170.173 169.791 
170.154 169.697 169.941 169.378 169.62 169.111 170.028 170.089 169.376 
169.449 168.766 169.024 168.493 168.937 168.399 168.796 168.114 168.451 
167.805 168.223 167.722 169.315 169.347 168.691 168.659 167.963 167.998 
167.401 167.638 167.091 167.409 166.713 167.021 166.277 166.723 166.152 
166.733 166.282 168.69 168.716 168.152 168.095 167.479 167.379 166.81 
166.797 166.311 166.367 165.787 165.815 165.105 165.259 164.663 165.109 
164.705 165.296 164.931 164.062 163.819 163.542 162.762 163.825 163.385 
162.649 162.303 161.541 164.365 163.681 162.974 162.381 161.643 161.149 
160.34 165.164 164.451 163.721 162.928 162.089 161.397 160.55 159.986 
159.148 165.78 165.214 164.459 163.679 162.672 161.875 160.889 160.255 
159.383 158.839 158.046 166.306 165.762 165.033 164.297 163.263 162.418 
161.383 160.651 159.792 159.159 158.386 157.818 157.192 166.955 166.351 
165.671 164.898 163.968 163.071 162.147 161.304 160.557 159.777 159.112 
158.354 157.787 157.193 156.908 167.614 167.034 166.391 165.633 164.8 
163.91 163.09 162.225 161.564 160.739 160.162 159.314 158.823 158.054 
157.812 157.261 157.313 168.153 167.641 167.035 166.366 165.607 164.799 
164.034 163.215 162.57 161.783 161.227 160.43 159.976 159.217 158.986 
158.351 158.366 157.879 158.034 163.914 162.625 163.256 163.251 161.31 
161.934 161.928 162.614 162.715 159.957 160.536 160.451 161.219 161.366 
162.176 162.467 158.681 159.138 158.934 159.669 159.834 160.762 161.151 
162.046 162.476 157.599 157.924 157.681 158.235 158.398 159.262 159.769 
160.729 161.285 162.137 162.626 156.814 156.992 156.823 157.186 157.367 
158.025 158.583 159.463 160.144 161.006 161.604 162.372 162.914 156.601 
156.507 156.437 156.574 156.777 157.206 157.717 158.436 159.132 159.96 
160.637 161.418 162.034 162.761 163.353 157.044 156.685 156.663 156.509 
156.692 156.822 157.237 157.703 158.326 159.036 159.736 160.508 161.179 
161.924 162.558 163.26 163.847 157.766 157.342 157.31 156.99 157.123 
156.979 157.295 157.422 157.949 158.386 159.071 159.709 160.425 161.123 
161.794 162.485 163.097 163.757 164.3 158.08 158.366 158.044 157.697 
158.786 158.433 158.222 157.807 157.553 159.5 159.029 158.923 158.468 
158.314 157.813 157.699 160.513 159.905 159.823 159.312 159.253 158.709 
158.645 158.135 158.258 161.756 161.037 160.926 160.321 160.296 159.738 
159.747 159.197 159.325 158.895 159.27 163.055 162.333 162.212 161.525 
161.483 160.86 160.9 160.344 160.5 160.03 160.362 160.031 160.548 
164.26 163.595 163.494 162.833 162.797 162.135 162.175 161.564 161.728 
161.219 161.527 161.14 161.585 161.324 161.872 165.458 164.787 164.7 
164.072 164.063 163.45 163.512 162.9 163.056 162.495 162.77 162.31 
162.696 162.358 162.836 162.612 163.145 166.706 166.024 165.937 165.284 
165.274 164.681 164.761 164.205 164.363 163.826 164.062 163.567 163.887 
163.475 163.88 163.578 164.051 163.842 164.337 158.512 159.241 158.785 
158.675 160.073 159.519 159.332 158.943 158.987 161.099 160.452 160.301 
159.735 159.77 159.411 159.68 162.333 161.629 161.594 160.913 161.016 
160.438 160.714 160.316 160.744 163.724 163.001 163.061 162.358 162.546 
161.884 162.182 161.59 161.985 161.537 162.026 165.133 164.456 164.564 
163.892 164.123 163.48 163.801 163.165 163.519 162.931 163.327 162.87 
163.323 166.417 165.832 165.972 165.381 165.637 165.051 165.378 164.771 
165.09 164.473 164.781 164.223 164.568 164.124 164.521 167.584 167.065 
167.238 166.73 167.017 166.515 166.85 166.298 166.588 165.986 166.239 
165.651 165.936 165.411 165.763 165.316 165.726 168.689 168.216 168.415 
167.956 168.256 167.825 168.167 167.694 167.974 167.418 167.639 167.062 
167.317 166.779 167.108 166.617 167.004 166.559 166.973 168.259 168.025 
167.817 167.106 167.781 167.526 166.734 166.523 165.693 167.649 167.302 
166.488 166.175 165.331 165.06 164.209 167.672 167.247 166.452 166.04 
165.218 164.822 163.971 163.629 162.809 167.765 167.319 166.525 166.083 
165.286 164.834 163.98 163.514 162.638 162.275 161.48 167.889 167.435 
166.641 166.176 165.382 164.935 164.117 163.615 162.743 162.232 161.421 
161.032 160.325 168.089 167.617 166.88 166.357 165.583 165.072 164.295 
163.788 162.998 162.455 161.707 161.183 160.546 160.078 159.498 168.36 
167.887 167.224 166.689 165.974 165.39 164.637 164.053 163.304 162.757 
162.06 161.553 160.95 160.467 159.939 159.439 158.942 168.675 168.206 
167.588 167.08 166.427 165.857 165.147 164.512 163.766 163.142 162.433 
161.898 161.269 160.827 160.278 159.873 159.389 158.957 158.535 168.881 
169.839 169.151 168.737 170.906 170.169 169.758 169.014 168.558 171.987 
171.251 170.826 170.071 169.633 168.865 168.434 173.03 172.321 171.911 
171.152 170.728 169.964 169.57 168.808 168.448 174.054 173.371 173.016 
172.265 171.871 171.093 170.719 169.96 169.622 168.871 168.541 175.052 
174.402 174.082 173.379 173.029 172.272 171.904 171.13 170.78 170.031 
169.697 168.958 168.636 176.004 175.391 175.085 174.426 174.113 173.418 
173.088 172.333 171.971 171.192 170.836 170.089 169.767 169.052 168.778 
176.903 176.336 176.074 175.436 175.159 174.494 174.222 173.511 173.193 
172.408 172.043 171.249 170.916 170.18 169.914 169.225 169.01 177.717 
177.217 177.005 176.428 176.187 175.555 175.311 174.643 174.371 173.63 
173.285 172.481 172.123 171.35 171.066 170.365 170.151 169.484 169.303 
178.07 178.372 177.953 177.388 178.714 178.255 177.686 177.237 176.613 
179.169 178.631 178.015 177.528 176.89 176.423 175.754 179.625 179.091 
178.399 177.861 177.159 176.675 175.973 175.519 174.804 179.843 179.426 
178.689 178.196 177.424 176.925 176.162 175.695 174.923 174.487 173.707 
179.86 179.51 178.769 178.364 177.576 177.129 176.327 175.858 175.032 
174.564 173.732 173.312 172.531 179.855 179.518 178.806 178.406 177.644 
177.219 176.436 175.991 175.165 174.674 173.819 173.345 172.553 172.159 
171.467 179.719 179.493 178.828 178.478 177.746 177.311 176.552 176.102 
175.32 174.828 173.997 173.479 172.683 172.231 171.54 171.169 170.554 
179.312 179.237 178.601 178.418 177.711 177.389 176.635 176.233 175.477 
175.015 174.229 173.704 172.915 172.412 171.702 171.281 170.648 170.292 
169.707 178.797 177.72 178.213 178.092 176.572 177.045 176.885 177.439 
177.242 175.47 175.852 175.585 176.145 175.981 176.523 176.24 174.332 
174.714 174.341 174.83 174.628 175.219 175.022 175.5 175.14 172.965 
173.466 173.069 173.561 173.293 173.871 173.685 174.245 173.946 174.363 
173.915 171.489 172.033 171.693 172.227 171.945 172.519 172.298 172.886 
172.609 173.108 172.696 173.085 172.61 170.171 170.644 170.353 170.858 
170.586 171.139 170.893 171.479 171.211 171.753 171.394 171.838 171.414 
171.797 171.392 168.982 169.415 169.099 169.564 169.256 169.772 169.494 
170.061 169.807 170.37 170.073 170.555 170.184 170.599 170.221 170.631 
170.309 167.783 168.212 167.846 168.301 167.949 168.44 168.135 168.673 
168.432 168.997 168.76 169.272 168.959 169.388 169.028 169.447 169.134 
169.586 169.341 179.023 179.11 178.712 177.993 179.264 178.872 178.179 
177.699 176.953 179.214 179.007 178.382 177.947 177.202 176.689 175.925 
178.776 178.799 178.227 178.017 177.251 176.872 176.053 175.62 174.782 
178.107 178.219 177.679 177.663 176.895 176.692 175.802 175.542 174.623 
174.297 173.344 177.426 177.5 176.976 177.043 176.353 176.221 175.31 
175.094 174.123 173.913 172.93 172.687 171.763 176.837 176.817 176.25 
176.335 175.741 175.692 174.852 174.602 173.598 173.337 172.357 172.16 
171.278 171.123 170.376 176.375 176.264 175.624 175.63 175.044 175.071 
174.342 174.172 173.206 172.883 171.881 171.617 170.762 170.62 169.913 
169.823 169.186 175.984 175.849 175.183 175.069 174.427 174.397 173.726 
173.644 172.805 172.538 171.576 171.242 170.368 170.152 169.445 169.347 
168.716 168.644 168.011 179.721 180.901 180.121 179.822 182.17 181.367 
180.968 180.203 179.883 183.089 182.53 182.058 181.299 180.78 180.13 
179.717 183.341 183.144 182.752 182.225 181.63 180.944 180.346 179.77 
179.243 183.303 183.217 182.983 182.715 182.277 181.719 181.118 180.431 
179.819 179.207 178.628 183.432 183.282 183.131 182.918 182.627 182.253 
181.785 181.208 180.63 179.929 179.322 178.633 178.039 183.58 183.481 
183.347 183.147 182.861 182.554 182.115 181.719 181.195 180.683 180.102 
179.442 178.821 178.107 177.514 183.575 183.554 183.426 183.317 183.034 
182.777 182.318 181.962 181.42 181.048 180.489 180.055 179.452 178.878 
178.249 177.599 177.033 183.551 183.517 183.384 183.314 183.055 182.884 
182.469 182.161 181.623 181.239 180.659 180.282 179.694 179.298 178.683 
178.209 177.607 177.081 176.556 183.531 183.345 183.415 183.302 182.888 
183.095 182.925 183.062 182.885 182.124 182.472 182.275 182.521 182.292 
182.519 182.274 181.171 181.607 181.416 181.736 181.48 181.79 181.532 
181.79 181.448 180.114 180.619 180.47 180.831 180.556 180.886 180.603 
180.94 180.599 180.85 180.446 178.948 179.515 179.39 179.84 179.56 
179.916 179.588 179.946 179.597 179.913 179.504 179.787 179.412 177.719 
178.294 178.145 178.674 178.398 178.835 178.494 178.892 178.544 178.89 
178.492 178.789 178.397 178.736 178.404 176.504 177.045 176.88 177.405 
177.147 177.612 177.291 177.737 177.424 177.832 177.473 177.786 177.386 
177.699 177.358 177.723 177.4 175.357 175.85 175.705 176.194 175.984 
176.412 176.123 176.538 176.253 176.693 176.397 176.768 176.398 176.702 
176.346 176.688 176.398 176.744 176.427 174.695 173.8 174.518 175.035 
172.773 173.575 174.095 174.838 175.298 171.543 172.433 172.939 173.799 
174.259 175.015 175.413 170.245 171.12 171.604 172.532 173.03 173.896 
174.344 175.104 175.529 169.092 169.859 170.324 171.193 171.728 172.635 
173.163 174.005 174.48 175.244 175.672 168.123 168.801 169.249 170.005 
170.521 171.374 171.926 172.807 173.314 174.146 174.576 175.338 175.693 
167.23 167.882 168.314 169.002 169.463 170.225 170.723 171.57 172.077 
172.94 173.402 174.207 174.607 175.331 175.679 166.33 166.983 167.396 
168.075 168.502 169.202 169.643 170.402 170.884 171.712 172.219 173.046 
173.527 174.284 174.713 175.385 175.76 165.426 166.062 166.449 167.131 
167.548 168.241 168.662 169.364 169.811 170.571 171.074 171.893 172.417 
173.224 173.7 174.433 174.829 175.484 175.804 175.544 174.578 174.973 
174.746 173.441 173.922 173.677 174.106 173.9 172.138 172.685 172.419 
172.931 172.686 173.227 173.082 170.778 171.319 171.028 171.582 171.311 
171.904 171.701 172.339 172.143 169.505 169.97 169.639 170.158 169.85 
170.45 170.208 170.867 170.627 171.266 170.966 168.335 168.732 168.349 
168.791 168.422 168.963 168.667 169.313 169.057 169.712 169.431 170.045 
169.781 167.189 167.555 167.123 167.52 167.102 167.562 167.212 167.777 
167.501 168.135 167.885 168.525 168.318 168.959 168.839 166.065 166.388 
165.917 166.286 165.851 166.27 165.903 166.385 166.094 166.644 166.407 
167.013 166.832 167.496 167.402 168.104 168.078 165.038 165.289 164.797 
165.102 164.657 165.037 164.671 165.118 164.828 165.322 165.093 165.627 
165.453 166.052 165.952 166.639 166.614 167.352 167.357 177.422 177.495 
177.814 178.512 177.496 177.844 178.523 178.872 179.549 177.438 177.8 
178.438 178.813 179.5 179.887 180.604 177.262 177.683 178.321 178.713 
179.434 179.845 180.628 181.001 181.729 176.953 177.435 178.102 178.566 
179.333 179.808 180.627 181.036 181.729 182.051 182.588 176.63 177.112 
177.777 178.285 179.035 179.618 180.421 180.955 181.591 181.956 182.381 
182.693 183.039 176.293 176.793 177.43 177.932 178.6 179.195 179.925 
180.568 181.207 181.696 182.131 182.451 182.787 183.064 183.35 175.857 
176.402 177.026 177.554 178.178 178.722 179.381 179.99 180.642 181.217 
181.756 182.181 182.596 182.882 183.197 183.388 183.569 175.389 175.923 
176.546 177.103 177.735 178.283 178.92 179.474 180.101 180.66 181.225 
181.746 182.209 182.633 182.964 183.242 183.415 183.552 183.597 177.565 
178.686 178.132 178.117 179.786 179.284 179.314 178.701 178.646 180.882 
180.402 180.505 179.919 179.889 179.229 179.105 182.01 181.56 181.71 
181.135 181.144 180.485 180.356 179.635 179.357 182.907 182.65 182.851 
182.361 182.375 181.734 181.593 180.874 180.558 179.762 179.306 183.388 
183.36 183.631 183.379 183.392 182.878 182.678 182.034 181.694 180.938 
180.445 179.609 179.088 183.608 183.671 183.927 183.916 183.934 183.662 
183.397 182.928 182.546 181.957 181.487 180.732 180.181 179.372 178.894 
183.685 183.761 183.901 184.004 184.007 183.948 183.686 183.407 183.001 
182.61 182.176 181.643 181.127 180.42 179.878 179.16 178.729 183.649 
183.719 183.767 183.872 183.875 183.906 183.735 183.573 183.228 182.934 
182.539 182.172 181.722 181.21 180.671 180.046 179.531 178.932 178.535 
176.964 177.468 176.882 176.211 177.964 177.369 176.657 176.086 175.333 
178.38 177.822 177.058 176.488 175.674 175.09 174.203 178.578 178.131 
177.318 176.803 175.924 175.365 174.45 173.872 173.002 178.5 178.178 
177.369 176.956 176.081 175.563 174.667 174.113 173.303 172.771 172.083 
178.316 178.032 177.296 176.955 176.181 175.72 174.917 174.381 173.652 
173.128 172.501 171.988 171.381 178.195 177.902 177.25 176.928 176.265 
175.858 175.16 174.68 174.015 173.524 172.914 172.415 171.792 171.27 
170.62 178.111 177.842 177.24 176.941 176.328 175.973 175.319 174.912 
174.261 173.845 173.222 172.782 172.128 171.636 170.954 170.46 169.834 
177.987 177.766 177.182 176.923 176.313 176.016 175.368 175.026 174.362 
174.005 173.356 172.989 172.329 171.908 171.221 170.759 170.115 169.685 
169.139 179.882 180.351 180.438 181.057 180.555 180.824 181.556 181.701 
182.349 180.58 180.937 181.71 182.059 182.76 182.904 183.285 180.53 
180.917 181.632 182.067 182.752 183.095 183.474 183.52 183.521 180.264 
180.752 181.38 181.873 182.495 182.938 183.361 183.553 183.622 183.544 
183.451 179.755 180.316 180.889 181.466 182.04 182.576 183.05 183.391 
183.609 183.647 183.652 183.534 183.536 179.257 179.76 180.32 180.889 
181.459 182.033 182.539 183.019 183.358 183.606 183.719 183.728 183.723 
183.65 183.644 178.898 179.324 179.889 180.382 180.98 181.489 182.017 
182.494 182.897 183.281 183.514 183.705 183.754 183.763 183.723 183.677 
183.634 178.582 178.991 179.542 180.014 180.628 181.102 181.656 182.064 
182.497 182.854 183.191 183.467 183.666 183.762 183.799 183.751 183.721 
183.65 183.625 
POINT_DATA 1002
SCALARS Distance double
LOOKUP_TABLE default
173.999 174.878 174.044 173.045 173.182 173.059 172.024 172.2 171.95 
171.941 170.82 171.008 170.702 170.699 170.654 169.479 169.713 169.314 
169.328 169.4 169.413 168.185 168.461 167.994 167.949 168.077 168.221 
168.37 166.914 167.315 166.748 166.692 166.753 166.937 167.177 167.462 
165.699 166.335 165.412 165.396 165.443 165.572 165.847 166.214 166.583 
164.709 165.463 164.19 164.054 164.11 164.205 164.44 164.847 165.297 
165.691 163.894 164.577 163.26 162.907 162.855 162.935 163.109 163.465 
163.948 164.414 164.815 175.307 174.48 175.785 174.888 176.154 173.568 
175.183 176.456 173.854 172.501 175.516 176.807 174.112 172.745 171.276 
175.874 177.08 174.473 173.083 171.615 170.009 176.042 177.165 174.765 
173.46 172.047 170.448 168.826 176.059 177.161 174.892 173.691 172.353 
170.851 169.328 167.82 176.064 177.121 174.984 173.841 172.509 171.052 
169.672 168.336 166.902 176.057 177.029 175.058 173.962 172.655 171.231 
169.899 168.641 167.295 165.88 176.314 175.318 175.54 174.365 174.525 
174.19 173.092 173.274 172.971 172.865 171.852 172.201 171.654 171.614 
171.475 170.946 171.47 170.584 170.546 170.484 170.169 170.153 170.759 
169.577 169.395 169.436 169.175 168.796 169.359 169.968 168.622 168.104 
167.984 167.784 167.388 167.235 168.719 169.261 168 167.272 166.831 
166.463 165.896 165.55 165.672 168.172 168.64 167.571 166.87 166.294 
165.813 165.089 164.334 164.106 164.337 163.275 163.015 162 163.036 
161.897 160.73 163.674 162.214 160.824 159.47 164.594 162.9 161.159 
159.672 158.309 165.238 163.549 161.574 159.942 158.541 157.294 165.758 
164.109 162.138 160.442 158.998 157.623 156.663 166.43 164.83 162.971 
161.337 159.897 158.445 157.296 156.77 167.105 165.643 163.932 162.371 
160.987 159.604 158.423 157.72 157.453 167.65 166.355 164.826 163.347 
161.995 160.702 159.626 158.912 158.468 158.184 162.603 161.204 161.982 
159.677 160.476 161.644 158.271 158.859 160.172 161.643 157.198 157.581 
158.763 160.38 161.839 156.488 156.788 157.741 159.254 160.805 162.173 
156.376 156.453 157.096 158.322 159.829 161.283 162.652 156.915 156.705 
156.924 157.696 158.965 160.42 161.842 163.185 157.664 157.357 157.314 
157.651 158.503 159.749 161.112 162.434 163.675 158.397 158.076 158.628 
158.6 159.134 157.995 159.357 160.012 158.815 158.136 160.348 161.183 
159.769 159.18 158.624 161.584 162.505 160.852 160.272 159.793 159.562 
162.914 163.75 162.142 161.46 160.972 160.739 160.789 164.125 164.907 
163.446 162.806 162.264 161.951 161.896 162.076 165.331 166.138 164.647 
164.099 163.634 163.275 163.088 163.107 163.33 166.606 167.376 165.876 
165.3 164.886 164.572 164.341 164.235 164.301 164.525 158.959 159.003 
159.764 159.795 160.664 159.203 160.9 161.737 160.212 159.898 162.253 
163.013 161.632 161.207 161.04 163.74 164.423 163.194 162.816 162.527 
162.393 165.209 165.771 164.746 164.433 164.156 163.876 163.716 166.519 
166.963 166.191 165.976 165.727 165.39 165.08 164.91 167.714 168.077 
167.484 167.38 167.196 166.845 166.486 166.245 166.136 168.859 169.134 
168.674 168.614 168.511 168.216 167.858 167.608 167.472 167.406 168.487 
167.315 168.275 166.989 168.083 165.901 166.838 168.029 165.639 164.456 
166.877 168.112 165.645 164.372 163.088 166.972 168.214 165.729 164.488 
163.084 161.746 167.123 168.334 165.83 164.59 163.277 161.87 160.65 
167.396 168.539 166.123 164.798 163.5 162.222 161.031 159.961 167.728 
168.816 166.551 165.251 163.864 162.552 161.41 160.411 159.449 169.519 
169.451 170.552 170.507 171.663 169.32 171.586 172.717 170.388 169.195 
172.665 173.712 171.487 170.314 169.205 173.739 174.715 172.649 171.482 
170.365 169.3 174.755 175.69 173.755 172.688 171.547 170.431 169.363 
175.732 176.596 174.773 173.814 172.767 171.604 170.478 169.463 176.686 
177.433 175.808 174.899 173.958 172.858 171.67 170.603 169.677 177.539 