# vtk DataFile Version 4.0
vtk output
ASCII
DATASET POLYDATA
POINTS 1002 float
-103.545 -119.836 75.3887 -104.249 -120.832 75.1456 -103.909 -120.471 74.3136 
-103.167 -119.416 74.5149 -103.734 -119.878 73.3847 -103.006 -118.466 75.6332 
-103.044 -118.56 73.494 -103.614 -119.012 72.4602 -102.8 -117.698 74.6834 
-102.798 -116.446 75.7334 -103.001 -117.336 72.5288 -103.432 -117.946 71.6376 
-102.728 -116.524 73.663 -102.529 -115.481 74.7817 -102.328 -114.418 75.7332 
-102.879 -116.082 71.6952 -103.275 -116.852 70.8148 -102.552 -115.238 72.772 
-102.062 -114.511 73.9112 -101.585 -113.782 74.919 -101.306 -113.043 75.8589 
-102.679 -114.995 70.827 -103.179 -115.768 69.9401 -102.207 -114.156 71.8806 
-101.511 -113.591 73.0385 -100.792 -113.147 74.1375 -100.468 -112.508 75.1131 
-100.438 -111.732 76.0934 -102.408 -113.932 69.9497 -103.061 -114.584 69.1874 
-101.733 -113.26 70.8777 -101.01 -112.715 71.9442 -100.323 -112.235 73.1118 
-99.9492 -111.572 74.2166 -99.8964 -110.764 75.2112 -99.8959 -110.027 76.1965 
-102.125 -112.851 69.1986 -102.904 -113.403 68.5866 -101.266 -112.381 69.9588 
-100.509 -111.878 70.8419 -99.9999 -111.203 71.9149 -99.6674 -110.379 73.1202 
-99.4251 -109.587 74.2265 -99.2793 -108.949 75.2049 -99.2478 -108.453 76.1364 
-101.85 -111.936 68.5053 -102.705 -112.442 68.0203 -100.944 -111.529 69.1604 
-100.148 -111.024 69.9532 -99.6509 -110.221 70.8991 -99.3298 -109.279 72.0427 
-98.9167 -108.556 73.2312 -98.5143 -108.098 74.2931 -98.3995 -107.695 75.2317 
-98.6004 -107.268 76.0752 -101.55 -111.203 67.8408 -102.485 -111.67 67.5099 
-100.698 -110.744 68.3938 -100.013 -110.121 69.1789 -99.5108 -109.217 70.1068 
-99.0831 -108.247 71.1331 -98.5621 -107.617 72.2326 -97.9953 -107.359 73.3483 
-97.6837 -107.111 74.4181 -97.8026 -106.682 75.3511 -98.2305 -106.181 76.103 
-104.707 -121.613 74.4258 -104.611 -121.036 73.5096 -105.301 -122.368 73.6558 
-105.332 -121.697 72.6974 -106.061 -123.023 72.82 -104.573 -120.335 72.5957 
-105.961 -122.414 71.7703 -106.997 -123.456 71.8897 -105.346 -120.908 71.8088 
-104.41 -119.464 71.7672 -106.755 -122.857 70.7419 -108.075 -123.65 70.9573 
-105.968 -121.486 70.8495 -105.246 -119.86 71.0244 -104.146 -118.407 70.9488 
-107.923 -122.85 69.894 -109.194 -123.63 70.1505 -106.791 -121.785 69.8703 
-106.001 -120.245 70.0699 -105.033 -118.697 70.1266 -103.952 -117.334 69.9969 
-109.178 -122.585 69.2338 -110.194 -123.455 69.3776 -107.957 -121.739 69.1557 
-106.823 -120.62 69.1412 -105.817 -119.128 69.1354 -104.756 -117.695 69.1076 
-103.819 -116.242 69.1071 -110.201 -122.375 68.46 -111.045 -123.257 68.5276 
-109.15 -121.528 68.5089 -107.867 -120.74 68.4221 -106.616 -119.598 68.2258 
-105.514 -118.147 68.2032 -104.533 -116.655 68.3378 -103.706 -115.011 68.4774 
-111.089 -122.229 67.6555 -111.893 -123.001 67.7514 -110.178 -121.316 67.7788 
-109.005 -120.512 67.7898 -107.673 -119.629 67.5434 -106.445 -118.405 67.4294 
-105.379 -116.996 67.6075 -104.456 -115.448 67.8299 -103.616 -113.814 67.9648 
-112.009 -121.876 67.1211 -112.791 -122.532 67.2192 -111.14 -120.988 67.2115 
-110.061 -120.108 67.2502 -108.798 -119.294 67.0348 -107.55 -118.315 66.8473 
-106.421 -117.131 66.9467 -105.396 -115.799 67.175 -104.463 -114.286 67.3715 
-103.522 -112.812 67.4906 -113.209 -121.434 66.8242 -112.367 -120.592 66.8562 
-113.524 -120.049 66.5023 -112.536 -119.151 66.4437 -113.568 -118.835 65.8393 
-111.289 -119.69 66.8481 -112.331 -118.135 65.5066 -113.264 -117.943 64.9726 
-111.166 -118.508 66.0867 -109.959 -118.933 66.5932 -111.798 -117.287 64.4885 
-112.7 -116.714 64.4427 -110.728 -117.705 64.8942 -109.624 -117.988 65.6173 
-108.608 -118.142 66.306 -111.228 -115.721 63.9046 -112.164 -114.864 64.1553 
-110.217 -116.483 63.9385 -109.201 -116.987 64.5704 -108.303 -117.124 65.5192 
-107.413 -117.098 66.3182 -110.895 -113.711 63.7291 -111.865 -113.09 64.0436 
-109.889 -114.5 63.6615 -108.961 -115.259 64.0541 -108.085 -115.751 64.8892 
-107.23 -115.882 65.7826 -106.318 -115.85 66.5252 -110.735 -112.088 64.1484 
-111.641 -111.779 64.5487 -109.742 -112.615 64.0735 -108.866 -113.28 64.3456 
-108.034 -113.882 64.8964 -107.134 -114.255 65.5605 -106.201 -114.383 66.1894 
-105.276 -114.369 66.7891 -110.477 -110.821 65.1344 -111.287 -110.637 65.5157 
-109.568 -111.123 64.9862 -108.714 -111.592 65.1129 -107.884 -112.06 65.4336 
-106.985 -112.358 65.8612 -106.053 -112.539 66.2858 -105.113 -112.693 66.6574 
-104.226 -112.792 67.0444 -110.063 -109.565 66.0663 -110.854 -109.407 66.2903 
-109.238 -109.71 65.9058 -108.447 -109.965 65.8392 -107.579 -110.303 65.8891 
-106.605 -110.526 66.1242 -105.689 -110.626 66.4908 -104.821 -110.826 66.7747 
-103.899 -111.166 66.9357 -103.066 -111.477 67.1456 -101.627 -110.558 67.208 
-102.302 -110.086 66.9358 -100.835 -109.117 66.9632 -103.262 -109.488 66.8491 
-101.622 -108.422 66.707 -100.444 -107.186 66.9491 -104.188 -109.008 66.684 
-102.628 -107.728 66.5582 -101.263 -106.468 66.6147 -100.38 -105.027 67.1159 
-105.065 -108.779 66.3062 -103.524 -107.225 66.2517 -102.196 -105.85 66.3368 
-101.112 -104.344 66.68 -100.257 -103.02 67.1203 -106.188 -108.602 66.0338 
-104.592 -106.854 65.9062 -103.174 -105.302 65.9983 -102.032 -103.704 66.3264 
-101.029 -102.236 66.649 -100.133 -101.269 67.002 -107.336 -108.374 66.1245 
-105.976 -106.568 65.9708 -104.516 -104.837 65.8731 -103.226 -103.096 66.0046 
-102.155 -101.478 66.2417 -101.172 -100.363 66.5911 -100.31 -99.7173 67.1323 
-108.191 -108.239 66.365 -107.09 -106.5 66.3885 -105.891 -104.678 66.2141 
-104.633 -102.76 66.0062 -103.491 -100.936 65.9214 -102.485 -99.6022 66.1723 
-101.527 -98.7872 66.714 -100.707 -98.3217 67.3972 -108.983 -108.194 66.5177 
-107.888 -106.558 66.6855 -106.862 -104.765 66.6507 -105.845 -102.792 66.384 
-104.796 -100.812 66.0191 -103.789 -99.2546 65.993 -102.83 -98.1883 66.3655 
-101.917 -97.4855 66.9066 -101.153 -97.1768 67.5827 -109.896 -108.09 66.5944 
-108.822 -106.513 66.7343 -107.775 -104.779 66.8083 -106.852 -102.907 66.7232 
-105.972 -100.975 66.425 -105.028 -99.3307 66.2765 -104.069 -98.121 66.4596 
-103.164 -97.1943 66.7684 -102.342 -96.6041 67.2045 -101.648 -96.4654 67.9141 
-100.642 -110.03 67.5484 -100.054 -108.264 67.4844 -100.017 -109.259 68.2809 
-99.9327 -106.008 67.7333 -99.7701 -107.102 68.496 -99.6389 -108.198 69.3034 
-99.8195 -103.892 67.8728 -99.6235 -104.903 68.8144 -99.4261 -105.992 69.6303 
-99.1528 -107.14 70.3522 -99.472 -102.123 67.6512 -99.1049 -103.127 68.6971 
-98.8715 -104.215 69.7316 -98.6406 -105.343 70.5116 -98.4729 -106.527 71.3223 
-99.3714 -100.506 67.6087 -98.6355 -101.414 68.3853 -98.1133 -102.541 69.4225 
-97.9161 -103.812 70.3615 -97.8888 -105.126 71.2859 -97.8325 -106.378 72.3659 
-99.7134 -99.0556 67.9545 -98.7956 -99.7841 68.5312 -97.9257 -100.649 69.2785 
-97.4301 -101.888 70.1968 -97.4882 -103.382 71.2396 -97.5452 -104.916 72.4615 
-97.4472 -106.227 73.6143 -100.207 -97.8616 68.285 -99.3285 -98.5826 68.9866 
-98.4011 -99.1988 69.6323 -97.5734 -100.022 70.4277 -97.3171 -101.276 71.5101 
-97.458 -102.831 72.8017 -97.4375 -104.451 74.016 -97.4239 -105.788 74.8503 
-100.721 -96.9981 68.5966 -99.8683 -97.7225 69.4264 -99.0217 -98.3539 70.192 
-98.1451 -98.9217 70.9712 -97.5307 -99.7074 72.0141 -97.3863 -100.849 73.3053 
-97.432 -102.322 74.5166 -97.4952 -103.9 75.3386 -97.7478 -105.222 75.779 
-101.627 -96.3471 69.0284 -100.661 -96.8662 69.8008 -101.66 -96.3204 70.571 
-100.658 -96.663 71.3024 -101.786 -96.1256 71.9857 -99.7608 -97.51 70.6789 
-100.804 -96.3339 72.7165 -102.124 -95.9635 73.0828 -99.7382 -97.1727 72.1555 
-98.8955 -98.1407 71.5445 -101.181 -96.2615 74.1357 -102.621 -96.0893 74.4954 
-99.965 -96.891 73.6677 -98.9889 -97.9223 73.1072 -98.1447 -98.8012 72.5544 
-101.679 -96.454 75.7858 -103.083 -96.2046 76.2598 -100.436 -96.9519 75.2474 
-99.4223 -97.8213 74.6775 -98.4575 -98.7519 74.2087 -97.6698 -99.6093 73.8162 
-102.235 -96.6183 77.2392 -103.535 -96.2865 77.6819 -101.027 -97.1774 76.7375 
-100.034 -97.9056 76.1924 -99.0575 -98.7604 75.6654 -98.0387 -99.6485 75.3368 
-97.4765 -100.75 75.04 -102.876 -96.934 78.3828 -104.049 -96.7349 78.7683 
-101.731 -97.479 77.9275 -100.718 -98.1617 77.526 -99.7791 -98.9187 77.0274 
-98.7216 -99.8293 76.5065 -97.8662 -100.903 76.1789 -97.5617 -102.263 75.8573 
-103.497 -97.5078 79.5634 -104.541 -97.4755 79.827 -102.462 -97.9471 79.07 
-101.471 -98.6247 78.6271 -100.553 -99.3379 78.2316 -99.6084 -100.18 77.6684 
-98.716 -101.224 77.0771 -98.1851 -102.425 76.6538 -97.9476 -103.807 76.2647 
-104.036 -98.1366 80.6453 -104.992 -98.1744 80.7312 -103.087 -98.481 80.2174 
-102.178 -99.159 79.641 -101.32 -99.916 79.1626 -100.478 -100.682 78.7104 
-99.6811 -101.594 78.1254 -99.1067 -102.666 77.5118 -98.766 -103.846 77.0037 
-98.4753 -105.072 76.5571 -102.668 -96.1589 68.1311 -102.754 -96.1 69.5866 
-103.885 -96.2017 68.8222 -104.105 -95.9256 70.4436 -105.208 -96.2898 69.6325 
-102.876 -95.9739 71.2472 -105.576 -95.5735 71.0994 -106.492 -96.368 70.1784 
-104.365 -95.3676 71.8567 -103.148 -95.6844 72.3412 -106.967 -95.5375 71.4335 
-107.664 -96.7468 70.5828 -105.981 -94.721 72.1883 -104.8 -95.0051 72.5555 
-103.666 -95.7061 73.2329 -108.208 -96.1643 71.7576 -108.809 -97.3316 71.0455 
-107.423 -94.9691 72.5121 -106.425 -94.7422 72.9081 -105.338 -95.4554 73.5362 
-104.19 -96.0004 74.8891 -109.445 -96.861 72.1402 -109.914 -97.8943 71.5376 
-108.75 -95.8688 72.9526 -107.8 -95.4104 73.5799 -106.786 -95.6849 74.2286 
-105.722 -96.0143 75.441 -104.563 -96.084 76.8011 -110.564 -97.4897 72.563 
-110.813 -98.6133 72.0783 -110.112 -96.5818 73.3644 -109.241 -96.1782 74.2695 
-108.139 -96.2383 75.1342 -107.103 -96.2891 76.156 -106.047 -96.2176 77.2642 
-104.956 -96.3338 78.1437 -111.365 -98.3915 73.0824 -111.538 -99.4928 72.6413 
-111.155 -97.3798 73.8153 -110.64 -96.7578 74.8009 -109.66 -96.616 75.884 
-108.538 -96.6034 76.9096 -107.505 -96.5822 77.7398 -106.438 -96.7623 78.4277 
-105.389 -97.1077 79.1383 -112.006 -99.3737 73.603 -112.247 -100.26 73.1019 
-111.778 -98.4653 74.3463 -111.518 -97.6507 75.2939 -110.934 -97.1496 76.3824 
[...]
CELL_DATA 2000
SCALARS Distance double
LOOKUP_TABLE default
174.796 173.933 174.17 173.724 172.917 173.21 172.713 172.99 172.42 
171.75 172.072 171.499 171.847 171.233 171.528 170.851 170.536 170.83 
170.198 170.546 169.918 170.257 169.596 169.894 169.265 169.349 169.602 
168.927 169.229 168.585 168.926 168.302 168.633 168.045 168.378 167.869 
168.151 168.393 167.665 167.945 167.253 167.59 166.958 167.329 166.738 
167.123 166.573 166.986 166.487 166.971 167.177 166.423 166.669 165.948 
166.252 165.59 165.959 165.339 165.747 165.144 165.586 165.021 165.509 
165.012 165.9 166.034 165.292 165.475 164.769 164.996 164.318 164.609 
163.964 164.325 163.713 164.123 163.564 164.019 163.55 164.055 163.685 
164.961 165.026 164.285 164.417 163.729 163.899 163.224 163.417 162.752 
163.008 162.406 162.749 162.251 162.655 162.269 162.709 162.418 162.89 
162.66 175.295 175.801 175.183 174.447 176.353 175.704 174.947 174.308 
173.501 176.864 176.237 175.47 174.829 174.006 173.316 172.411 177.284 
176.684 175.885 175.298 174.467 173.817 172.887 172.17 171.216 177.658 
177.066 176.234 175.653 174.811 174.212 173.288 172.613 171.636 170.956 
170.022 177.945 177.411 176.596 176.01 175.176 174.558 173.654 172.982 
172.019 171.348 170.405 169.76 168.845 178.092 177.645 176.878 176.362 
175.566 174.966 174.08 173.387 172.431 171.735 170.803 170.145 169.237 
168.582 167.683 178.179 177.776 177.058 176.606 175.848 175.324 174.462 
173.819 172.865 172.17 171.242 170.572 169.692 169.015 168.134 167.456 
166.61 178.256 177.887 177.203 176.778 176.03 175.552 174.71 174.145 
173.222 172.585 171.681 171.032 170.191 169.521 168.687 167.977 167.145 
166.456 165.68 178.059 177.314 177.484 176.998 176.342 176.609 176.099 
176.317 175.774 175.238 175.535 174.982 175.28 174.706 174.983 174.397 
173.976 174.346 173.741 174.08 173.488 173.817 173.225 173.528 172.919 
172.408 172.911 172.265 172.726 172.117 172.54 171.977 172.333 171.758 
172.041 171.44 170.835 171.263 170.632 171.131 170.562 171.087 170.59 
171.056 170.546 170.892 170.319 170.584 169.983 169.752 169.912 169.352 
169.642 169.188 169.607 169.229 169.686 169.265 169.659 169.123 169.436 
168.819 169.1 168.475 169.068 169.091 168.553 168.653 168.23 168.474 
168.126 168.462 168.051 168.398 167.86 168.191 167.561 167.875 167.22 
167.538 166.918 168.363 168.438 167.842 167.934 167.399 167.596 167.105 
167.392 166.839 167.162 166.518 166.869 166.193 166.554 165.884 166.235 
165.603 165.968 165.419 164.485 164.584 164.015 163.001 164.81 164.141 
163.026 162.456 161.427 165.072 164.358 163.184 162.52 161.403 160.881 
159.93 165.38 164.609 163.371 162.659 161.499 160.906 159.863 159.409 
158.516 165.795 164.98 163.718 162.879 161.676 161.007 159.934 159.382 
158.395 157.982 157.156 166.237 165.48 164.333 163.385 162.188 161.317 
160.225 159.511 158.503 157.938 157.075 156.706 156.083 166.654 165.982 
165.011 164.119 163.022 162.039 160.935 159.992 158.944 158.168 157.288 
156.759 156.121 155.813 155.396 167.129 166.475 165.606 164.813 163.817 
162.918 161.855 160.856 159.77 158.801 157.875 157.138 156.479 155.99 
155.527 155.241 154.948 167.651 167.012 166.174 165.421 164.466 163.655 
162.658 161.757 160.731 159.743 158.822 157.924 157.263 156.556 156.099 
155.559 155.243 154.918 154.793 164.206 162.73 163.465 163.479 161.175 
161.932 161.978 162.791 162.909 159.708 160.406 160.464 161.279 161.435 
162.252 162.398 158.314 158.985 159.04 159.822 159.984 160.782 160.929 
161.727 161.888 156.945 157.569 157.576 158.377 158.518 159.343 159.483 
160.271 160.44 161.259 161.52 155.875 156.287 156.201 156.866 156.929 
157.78 157.926 158.803 159.029 159.877 160.214 161.037 161.424 155.242 
155.451 155.346 155.684 155.654 156.234 156.352 157.192 157.515 158.473 
158.951 159.842 160.343 161.102 161.542 154.857 154.995 154.987 155.129 
155.128 155.315 155.391 155.847 156.189 157.015 157.615 158.592 159.233 
160.092 160.621 161.312 161.748 154.725 154.758 154.865 154.956 155.09 
155.12 155.238 155.322 155.607 156.017 156.593 157.364 158.073 158.965 
159.594 160.391 160.893 161.559 162 154.867 155.37 155.014 154.979 
155.986 155.566 155.42 155.19 155.209 156.576 156.131 155.933 155.643 
155.611 155.408 155.407 157.421 156.805 156.623 156.196 156.199 155.905 
155.97 155.676 155.792 158.576 157.847 157.674 157.066 157.099 156.658 
156.812 156.418 156.606 156.275 156.666 159.7 159.035 158.87 158.239 
158.252 157.719 157.868 157.401 157.597 157.196 157.544 157.345 157.98 
160.798 160.142 160.037 159.43 159.469 158.921 159.062 158.542 158.717 
158.24 158.523 158.228 158.764 158.715 159.437 162.033 161.337 161.292 
160.648 160.732 160.16 160.341 159.791 159.998 159.445 159.712 159.268 
159.727 159.518 160.164 160.132 160.791 163.254 162.614 162.571 161.944 
162.011 161.443 161.619 161.089 161.318 160.777 161.047 160.536 160.928 
160.563 161.115 160.925 161.533 161.431 161.974 155.049 155.893 155.46 
155.634 157.085 156.5 156.593 156.159 156.315 158.243 157.666 157.625 
157.136 157.164 156.776 156.891 159.37 158.748 158.605 158.059 157.994 
157.588 157.713 157.404 157.704 160.655 159.944 159.823 159.106 159.051 
158.483 158.692 158.328 158.752 158.437 158.883 161.998 161.305 161.283 
160.513 160.547 159.801 160.061 159.52 160.006 159.603 160.068 159.663 
160.022 163.29 162.645 162.699 162.03 162.169 161.455 161.723 161.075 
161.49 160.962 161.379 160.887 161.212 160.75 161.085 164.568 163.94 
164.029 163.433 163.639 163.044 163.331 162.724 163.057 162.471 162.806 
162.241 162.548 162.01 162.343 161.879 162.288 165.782 165.21 165.31 
164.757 164.975 164.453 164.747 164.22 164.521 163.965 164.247 163.674 
163.953 163.391 163.702 163.192 163.551 163.112 163.497 167.684 167.144 
167.025 166.154 166.531 166.394 165.465 165.344 164.41 166.051 165.814 
164.858 164.647 163.66 163.544 162.603 165.757 165.435 164.495 164.157 
163.159 162.874 161.881 161.726 160.755 165.584 165.22 164.325 163.924 
162.965 162.54 161.548 161.175 160.195 159.93 158.985 165.543 165.125 
164.265 163.829 162.907 162.445 161.483 161.011 160.058 159.615 158.7 
158.336 157.512 165.633 165.173 164.336 163.846 162.95 162.447 161.521 
161.019 160.119 159.63 158.768 158.281 157.449 157.045 156.339 165.761 
165.308 164.499 163.987 163.138 162.591 161.734 161.167 160.346 159.8 
159.046 158.503 157.75 157.183 156.448 156.008 155.452 165.899 165.458 
164.7 164.194 163.413 162.869 162.1 161.512 160.762 160.162 159.483 
158.912 158.295 157.677 157.043 156.382 155.816 155.326 154.992 168.463 
169.45 168.663 168.002 170.482 169.664 169.026 168.152 167.43 171.647 
170.768 170.146 169.223 168.546 167.627 166.966 172.814 171.971 171.372 
170.426 169.774 168.817 168.185 167.252 166.661 173.832 173.083 172.521 
171.652 171.015 170.082 169.449 168.509 167.902 166.986 166.447 174.775 
174.068 173.563 172.764 172.168 171.288 170.659 169.753 169.14 168.229 
167.672 166.806 166.361 175.671 175.013 174.562 173.818 173.288 172.437 
171.839 170.942 170.347 169.452 168.906 168.037 167.585 166.775 166.417 
176.453 175.869 175.451 174.803 174.333 173.562 173.005 172.133 171.555 
170.667 170.131 169.266 168.799 167.987 167.603 166.843 166.513 177.147 
176.606 176.216 175.645 175.231 174.567 174.066 173.275 172.713 171.866 
171.325 170.48 169.988 169.173 168.745 167.988 167.631 166.915 166.604 
177.402 177.514 177.132 176.487 177.614 177.247 176.576 176.198 175.514 
177.615 177.296 176.605 176.252 175.497 175.137 174.353 177.527 177.227 
176.501 176.197 175.4 175.053 174.196 173.856 173.008 177.372 177.094 
176.332 176.038 175.23 174.896 174.015 173.663 172.78 172.464 171.63 
177.13 176.902 176.157 175.864 175.052 174.712 173.828 173.466 172.564 
172.23 171.372 171.088 170.291 176.894 176.672 175.992 175.705 174.914 
174.554 173.67 173.285 172.381 172.022 171.152 170.836 170.027 169.767 
169.036 176.724 176.495 175.858 175.577 174.832 174.455 173.595 173.17 
172.291 171.886 171.046 170.671 169.874 169.546 168.817 168.567 167.919 
176.499 176.32 175.683 175.451 174.736 174.397 173.575 173.15 172.305 
171.872 171.075 170.654 169.891 169.486 168.76 168.419 167.759 167.509 
166.91 176.086 175.067 175.502 175.278 173.825 174.375 174.154 174.623 
174.313 172.43 173.032 172.804 173.376 173.086 173.554 173.155 171.05 
171.628 171.42 171.994 171.744 172.264 171.923 172.345 171.921 169.693 
170.268 170.059 170.634 170.391 170.927 170.616 171.092 170.714 171.12 
170.707 168.236 168.849 168.589 169.224 168.951 169.542 169.209 169.747 
169.373 169.865 169.47 169.907 169.511 166.763 167.342 167.054 167.688 
167.412 168.039 167.715 168.293 167.931 168.473 168.104 168.61 168.239 
168.704 168.357 165.431 165.923 165.635 166.187 165.916 166.506 166.221 
166.802 166.49 167.04 166.713 167.234 166.901 167.4 167.083 167.576 
167.32 164.247 164.667 164.356 164.833 164.539 165.07 164.795 165.356 
165.087 165.64 165.356 165.878 165.57 166.071 165.769 166.283 166.042 
166.586 166.427 176.403 176.478 176.086 175.334 176.465 176.089 175.3 
174.937 174.121 176.437 176.064 175.282 174.895 174.039 173.627 172.729 
176.359 176.027 175.225 174.854 173.931 173.503 172.52 172.157 171.281 
176.073 175.839 174.953 174.671 173.654 173.286 172.224 171.886 170.959 
170.717 169.911 175.591 175.409 174.458 174.236 173.176 172.875 171.801 
171.518 170.606 170.386 169.571 169.338 168.507 175.084 174.896 173.979 
173.724 172.709 172.383 171.351 171.07 170.199 170.019 169.232 169.004 
168.141 167.876 167.026 174.596 174.435 173.613 173.345 172.417 172.036 
171.037 170.678 169.79 169.592 168.812 168.631 167.767 167.504 166.612 
166.399 165.644 174.084 173.977 173.237 173.034 172.186 171.837 170.867 
170.448 169.507 169.208 168.39 168.192 167.356 167.112 166.229 165.993 
165.218 165.082 164.45 177.095 178.359 177.615 177.316 179.684 179.032 
178.806 177.833 177.372 180.758 180.353 180.325 179.43 178.924 177.838 
177.306 181.632 181.324 181.421 180.827 180.404 179.395 178.724 177.72 
177.183 182.504 182.133 182.094 181.691 181.309 180.616 179.927 179.044 
178.371 177.514 176.924 183.117 182.815 182.563 182.212 181.749 181.249 
180.565 179.937 179.238 178.555 177.906 177.132 176.463 183.334 183.137 
182.816 182.544 182.091 181.647 180.993 180.412 179.708 179.163 178.534 
177.959 177.301 176.58 175.895 183.474 183.254 182.946 182.706 182.355 
182.013 181.509 180.934 180.252 179.607 178.95 178.422 177.818 177.273 
176.613 175.958 175.307 183.657 183.432 183.11 182.844 182.493 182.244 
181.859 181.466 180.895 180.256 179.557 178.896 178.261 177.712 177.108 
176.556 175.915 175.321 174.717 183.629 183.28 183.351 183.056 182.798 
182.891 182.572 182.668 182.37 182.284 182.349 181.937 182.067 181.758 
181.965 181.703 181.597 181.748 181.238 181.362 180.97 181.235 180.97 
181.23 180.815 180.601 180.911 180.418 180.594 180.131 180.384 180.072 
180.392 179.998 180.161 179.542 179.45 179.843 179.424 179.689 179.219 
179.486 179.112 179.445 179.059 179.291 178.72 178.807 178.188 178.255 
178.693 178.299 178.637 178.15 178.468 178.021 178.399 177.982 178.31 
177.777 177.955 177.342 177.488 176.958 177.012 177.478 177.088 177.471 
176.969 177.31 176.806 177.199 176.748 177.153 176.659 176.955 176.37 
176.579 176.012 176.245 175.755 175.817 176.249 175.896 176.268 175.812 
176.13 175.646 175.98 175.538 175.913 175.475 175.815 175.309 175.567 
175.024 175.258 174.758 175.022 174.578 175.103 174.022 174.775 175.136 
172.734 173.602 173.949 174.73 175.034 171.189 172.181 172.575 173.476 
173.813 174.591 174.884 169.608 170.575 170.998 172.006 172.427 173.332 
173.679 174.453 174.773 168.222 169.073 169.452 170.41 170.848 171.856 
172.273 173.19 173.538 174.346 174.673 166.886 167.738 168.076 168.938 
169.307 170.259 170.679 171.684 172.089 173.025 173.366 174.206 174.501 
165.458 166.354 166.71 167.58 167.923 168.788 169.167 170.106 170.54 
171.519 171.925 172.837 173.159 173.983 174.247 164.13 164.945 165.333 
166.201 166.587 167.439 167.819 168.682 169.101 170.021 170.463 171.389 
171.773 172.632 172.942 173.733 174.01 163.064 163.737 164.113 164.892 
165.3 166.127 166.53 167.37 167.776 168.645 169.071 169.969 170.388 
171.266 171.642 172.46 172.794 173.553 173.858 173.558 172.47 172.928 
172.714 171.256 171.749 171.48 171.985 171.66 169.949 170.441 170.086 
170.632 170.26 170.782 170.338 168.616 169.074 168.651 169.17 168.763 
169.307 168.881 169.389 168.977 167.303 167.716 167.232 167.708 167.268 
167.804 167.4 167.933 167.555 168.091 167.802 166.033 166.4 165.859 
166.278 165.784 166.298 165.884 166.449 166.072 166.644 166.31 166.934 
166.686 164.813 165.143 164.584 164.933 164.405 164.838 164.403 164.935 
164.569 165.14 164.796 165.394 165.105 165.774 165.561 163.658 163.95 
163.392 163.696 163.154 163.514 163.061 163.518 163.169 163.688 163.387 
163.924 163.662 164.245 164.064 164.712 164.605 162.639 162.857 162.295 
162.537 161.966 162.279 161.793 162.216 161.861 162.358 162.084 162.594 
162.358 162.888 162.718 163.311 163.231 163.878 163.858 178.896 178.879 
179.226 179.9 178.847 179.231 179.961 180.283 180.975 178.732 179.187 
179.932 180.323 181.06 181.391 182.085 178.46 178.999 179.725 180.202 
180.938 181.405 182.19 182.539 183.158 178.076 178.66 179.385 179.91 
180.62 181.17 181.983 182.535 183.242 183.516 183.832 177.619 178.232 
178.961 179.531 180.242 180.807 181.588 182.214 182.927 183.404 183.737 
183.891 183.882 177.078 177.717 178.425 179.056 179.758 180.375 181.114 
181.763 182.44 182.979 183.332 183.614 183.656 183.77 183.752 176.502 
177.13 177.811 178.467 179.134 179.794 180.463 181.167 181.799 182.423 
182.8 183.17 183.273 183.477 183.536 183.699 183.8 175.944 176.534 
177.169 177.818 178.438 179.098 179.672 180.378 180.914 181.632 182.004 
182.549 182.677 183.031 183.086 183.388 183.489 183.739 183.809 179.091 
180.1 179.622 179.668 181.182 180.69 180.8 180.256 180.264 182.272 
181.786 181.951 181.458 181.554 180.905 180.761 183.231 182.799 182.902 
182.541 182.703 182.209 182.073 181.274 180.783 183.787 183.544 183.494 
183.284 183.393 183.173 183.096 182.49 181.903 180.994 180.222 183.856 
183.821 183.736 183.652 183.686 183.637 183.615 183.294 182.792 182.007 
181.151 180.274 179.553 183.814 183.806 183.811 183.776 183.831 183.824 
183.845 183.685 183.336 182.764 182.004 181.176 180.401 179.655 179.102 
183.908 183.869 183.912 183.862 183.916 183.919 183.941 183.873 183.615 
183.238 182.602 181.939 181.18 180.47 179.831 179.21 178.693 183.937 
183.975 183.988 183.964 183.951 183.952 183.92 183.905 183.679 183.457 
182.903 182.424 181.697 181.115 180.429 179.855 179.258 178.717 178.185 
178.566 179.079 178.508 177.83 179.585 178.988 178.267 177.68 176.897 
179.981 179.446 178.699 178.116 177.325 176.692 175.841 179.954 179.666 
178.944 178.511 177.73 177.126 176.221 175.569 174.595 179.442 179.386 
178.733 178.578 177.845 177.428 176.453 175.85 174.743 174.141 173.019 
178.869 178.811 178.211 178.189 177.522 177.333 176.382 175.919 174.751 
174.179 173.026 172.468 171.429 178.481 178.35 177.742 177.66 177.004 
176.888 176.05 175.733 174.691 174.172 173.112 172.537 171.615 171.065 
170.311 178.101 177.996 177.359 177.234 176.547 176.399 175.64 175.408 
174.562 174.162 173.265 172.732 171.901 171.359 170.667 170.17 169.588 
177.624 177.564 176.934 176.832 176.155 175.994 175.272 175.068 174.334 
174.061 173.291 172.894 172.093 171.633 170.902 170.478 169.845 169.453 
168.858 177.131 177.349 177.576 178.283 177.504 177.729 178.369 178.696 
179.424 177.799 177.951 178.537 178.73 179.331 179.697 180.363 178.13 
178.329 179.008 179.065 179.64 179.713 180.35 180.633 181.336 178.277 
178.602 179.388 179.594 180.302 180.291 180.966 180.951 181.719 181.821 
182.488 178.292 178.654 179.407 179.814 180.608 180.888 181.634 181.722 
182.431 182.443 183.049 182.993 183.31 178.262 178.621 179.307 179.73 
180.493 180.964 181.742 182.132 182.792 183.004 183.455 183.489 183.697 
183.575 183.579 178.171 178.552 179.232 179.627 180.359 180.802 181.58 
182.05 182.741 183.095 183.523 183.672 183.837 183.828 183.856 183.729 
183.704 178.048 178.435 179.113 179.529 180.248 180.682 181.446 181.9 
182.63 183.001 183.496 183.664 183.861 183.885 183.942 183.922 183.954 
183.863 183.859 
POINT_DATA 1002
SCALARS Distance double
LOOKUP_TABLE default
174.402 175.395 174.593 173.517 173.691 173.255 172.424 172.639 172.2 
171.808 171.156 171.457 170.922 170.582 170.167 169.879 170.275 169.566 
169.271 168.937 168.694 168.657 169.117 168.248 167.944 167.694 167.505 
167.41 167.407 167.932 166.932 166.582 166.352 166.171 166.047 166.006 
166.193 166.791 165.67 165.245 164.946 164.722 164.542 164.475 164.557 
165.121 165.788 164.565 164.074 163.638 163.312 163.109 163.042 163.136 
163.365 164.17 164.925 163.567 163.058 162.542 162.079 161.83 161.816 
161.951 162.169 162.448 175.897 175.06 176.447 175.607 177.007 174.175 
176.099 177.488 174.708 173.137 176.468 177.898 175.09 173.607 171.918 
176.833 178.245 175.402 173.943 172.317 170.677 177.158 178.436 175.798 
174.331 172.691 171.052 169.489 177.344 178.497 176.133 174.77 173.142 
171.463 169.897 168.327 177.488 178.554 176.344 175.07 173.547 171.908 
170.358 168.824 167.253 177.62 178.595 176.504 175.244 173.819 172.303 
170.834 169.383 167.857 166.327 177.964 176.873 177.107 175.851 176.072 
175.578 174.686 174.957 174.413 174.131 173.396 173.575 173.145 172.909 
172.637 171.763 171.889 171.64 171.57 171.454 171.185 170.142 170.478 
169.994 170.056 170.147 170.039 169.735 169.121 169.66 168.797 168.778 
168.859 168.794 168.538 168.187 168.496 169.052 168.047 167.853 167.754 
167.546 167.244 166.904 166.571 167.77 168.272 167.264 166.892 166.575 
166.192 165.821 165.519 165.233 165.007 163.524 163.515 161.967 163.68 
161.887 160.431 163.878 161.996 160.329 159.036 164.13 162.106 160.397 
158.867 157.65 164.622 162.404 160.521 158.888 157.434 156.389 165.248 
163.134 161.03 159.128 157.497 156.299 155.565 165.809 163.979 161.956 
159.825 157.884 156.488 155.58 155.05 166.356 164.655 162.822 160.791 
158.699 157.047 155.905 155.099 154.701 166.915 165.255 163.492 161.663 
159.743 158.028 156.718 155.677 154.957 154.725 162.702 161.13 162.105 
159.662 160.607 161.597 158.262 159.203 160.147 161.049 156.799 157.671 
158.684 159.621 160.654 155.675 156.132 156.989 158.108 159.36 160.63 
155.117 155.25 155.586 156.485 157.956 159.54 160.862 154.824 155.025 
155.115 155.477 156.611 158.287 159.88 161.127 154.753 155.024 155.224 
155.381 155.971 157.203 158.736 160.172 161.385 155.128 155.166 155.821 
155.716 156.425 155.384 156.256 157.049 155.834 155.623 157.114 158.103 
156.505 156.265 156.029 158.328 159.303 157.585 157.211 156.965 156.83 
159.477 160.323 158.808 158.366 158.032 157.799 158.007 160.628 161.445 
160.009 159.593 159.231 158.891 158.883 159.407 161.941 162.715 161.309 
160.881 160.552 160.215 160.034 160.267 160.821 163.189 163.861 162.586 
162.143 161.836 161.567 161.362 161.39 161.691 162.091 155.298 155.959 
156.428 157.12 157.711 156.705 158.172 158.851 157.589 157.204 159.225 
160.039 158.421 157.976 157.964 160.573 161.359 159.676 159.056 159.048 
159.25 161.986 162.652 161.294 160.673 160.458 160.516 160.444 163.299 
163.922 162.814 162.401 162.098 161.919 161.707 161.488 164.602 165.182 
164.188 163.92 163.677 163.402 163.101 162.838 162.706 165.847 166.318 
165.485 165.256 165.068 164.822 164.521 164.237 164.034 163.917 167.868 
166.294 167.272 165.618 166.706 164.487 165.12 166.331 163.84 162.657 
164.855 166.088 163.514 162.127 160.862 164.719 165.947 163.404 161.981 
160.537 159.188 164.712 165.972 163.368 161.953 160.517 159.122 157.794 
164.837 166.092 163.461 162.023 160.589 159.254 157.931 156.626 164.997 
166.198 163.665 162.291 160.89 159.561 158.327 156.996 155.725 169.254 
168.87 170.229 169.895 171.326 168.316 171.085 172.533 169.461 167.863 
172.299 173.615 170.735 169.129 167.566 173.34 174.545 171.927 170.387 
168.836 167.308 174.324 175.459 173.028 171.554 170.04 168.547 167.165 
175.26 176.299 174.107 172.732 171.234 169.771 168.402 167.19 176.051 
177.014 175.046 173.85 172.438 170.999 169.627 168.371 167.251 176.759 