# vtk DataFile Version 4.0
vtk output
ASCII
DATASET POLYDATA
POINTS 1002 float
-105.092 -120.348 71.4744 -106.006 -121.131 71.0575 -105.533 -120.783 70.4797 
-104.52 -119.973 70.8754 -105.071 -120.17 69.8489 -104.176 -119.439 71.8886 
-104.151 -119.17 70.2549 -104.748 -119.252 69.1343 -103.665 -118.807 71.2553 
-103.467 -118.081 72.4353 -104.014 -117.954 69.5399 -104.556 -118.14 68.383 
-103.466 -117.649 70.6299 -103.079 -117.036 71.8204 -102.905 -116.352 73.2321 
-103.757 -116.629 68.7379 -104.24 -116.929 67.6635 -103.256 -116.278 69.8957 
-102.762 -115.775 71.1507 -102.413 -115.225 72.6363 -102.18 -114.755 74.0826 
-103.214 -115.336 67.9923 -103.81 -115.585 67.0648 -102.711 -115.019 69.1328 
-102.156 -114.652 70.3559 -101.684 -114.273 71.8521 -101.38 -113.893 73.4583 
-101.202 -113.437 74.7483 -102.714 -114.028 67.4179 -103.526 -114.17 66.6874 
-102.121 -113.814 68.5141 -101.494 -113.575 69.6857 -100.857 -113.361 70.9715 
-100.472 -113.097 72.6074 -100.313 -112.668 74.1442 -100.306 -112.142 75.2844 
-102.3 -112.796 66.9307 -103.28 -112.879 66.4378 -101.63 -112.637 67.8921 
-101.062 -112.424 69.1501 -100.373 -112.24 70.3024 -99.8514 -112.044 71.6817 
-99.6575 -111.685 73.3394 -99.6648 -111.188 74.7114 -99.7821 -110.738 75.753 
-101.81 -111.704 66.431 -102.877 -111.782 66.1179 -101.044 -111.543 67.1383 
-100.577 -111.296 68.411 -100.084 -111.041 69.7147 -99.5923 -110.791 70.9114 
-99.3128 -110.456 72.4175 -99.2528 -110.002 73.9462 -99.3529 -109.569 75.1044 
-99.5157 -109.278 76.0929 -101.417 -110.66 66.0014 -102.454 -110.79 65.7241 
-100.583 -110.446 66.5089 -100.091 -110.153 67.5926 -99.7628 -109.84 68.9969 
-99.451 -109.513 70.2556 -99.1632 -109.145 71.5885 -98.9242 -108.729 73.106 
-98.8688 -108.318 74.3644 -99.0376 -108.025 75.3296 -99.2643 -107.89 76.3076 
-106.58 -121.827 70.2193 -106.21 -121.284 69.5208 -107.163 -122.559 69.2253 
-106.932 -121.82 68.3898 -107.856 -123.035 68.1639 -105.785 -120.498 68.7489 
-107.777 -122.144 67.3409 -108.775 -123.083 67.1477 -106.6 -120.915 67.5817 
-105.426 -119.559 67.9851 -108.72 -122.169 66.3706 -109.795 -123.034 66.0337 
-107.538 -121.146 66.589 -106.248 -119.906 66.9094 -105.171 -118.475 67.3331 
-109.639 -122.123 65.2545 -110.801 -122.977 64.8367 -108.48 -121.076 65.5976 
-107.175 -119.953 65.9343 -105.933 -118.677 66.3795 -104.86 -117.162 66.7616 
-110.632 -121.788 64.3035 -111.847 -122.419 64.0129 -109.441 -120.803 64.6497 
-108.14 -119.711 64.9736 -106.775 -118.586 65.3979 -105.618 -117.225 65.875 
-104.603 -115.628 66.3139 -111.742 -120.863 63.806 -112.864 -121.359 63.6085 
-110.549 -120.127 64.0697 -109.239 -119.282 64.2818 -107.751 -118.369 64.5264 
-106.397 -117.195 64.9117 -105.44 -115.636 65.4936 -104.5 -114.067 66.0993 
-112.76 -119.79 63.3804 -113.73 -120.356 63.1556 -111.628 -119.157 63.6034 
-110.341 -118.583 63.7387 -108.876 -117.984 63.8843 -107.331 -117.078 64.1246 
-106.156 -115.665 64.6067 -105.33 -114.026 65.3462 -104.267 -112.693 65.9381 
-113.571 -119.023 62.779 -114.444 -119.634 62.5139 -112.474 -118.379 62.9539 
-111.167 -117.871 62.9893 -109.819 -117.416 63.1308 -108.409 -116.715 63.4757 
-107.035 -115.545 63.9347 -105.982 -114.022 64.5553 -105.027 -112.593 65.2179 
-103.796 -111.555 65.6135 -114.554 -118.61 62.0926 -113.485 -117.951 62.2883 
-114.464 -117.36 61.8728 -113.068 -116.778 61.719 -114.095 -115.804 61.5321 
-112.054 -117.392 62.1852 -112.523 -115.342 61.0984 -113.614 -114.194 60.909 
-111.403 -116.354 61.4148 -110.579 -116.92 62.1598 -112.134 -113.813 60.8127 
-113.146 -112.915 60.7569 -110.997 -114.98 61.1422 -110.098 -115.755 61.737 
-109.352 -116.226 62.6439 -111.776 -112.382 61.3342 -112.642 -111.765 61.5479 
-110.829 -113.341 61.5503 -109.997 -114.187 62.0304 -109.177 -114.66 62.7106 
-108.108 -115.106 63.3929 -111.341 -110.816 62.2952 -112.166 -110.275 62.528 
-110.485 -111.563 62.347 -109.794 -112.369 62.6564 -109.075 -112.906 63.1498 
-107.96 -113.273 63.6531 -106.766 -113.677 64.0631 -110.975 -109.09 63.0832 
-111.761 -108.647 63.2451 -110.06 -109.705 63.1236 -109.271 -110.437 63.3229 
-108.577 -111.096 63.6442 -107.574 -111.547 63.9703 -106.363 -111.898 64.226 
-105.501 -112.248 64.6169 -110.591 -107.594 63.814 -111.3 -107.339 64.0364 
-109.698 -108.012 63.7957 -108.768 -108.53 63.934 -107.878 -109.125 64.1449 
-106.858 -109.714 64.2968 -105.691 -110.213 64.3287 -104.752 -110.654 64.499 
-104.203 -111.099 65.0036 -110.062 -106.451 64.6828 -110.752 -106.343 64.966 
-109.237 -106.64 64.5053 -108.321 -106.844 64.4361 -107.311 -107.118 64.4638 
-106.161 -107.585 64.5062 -104.962 -108.223 64.4443 -103.984 -108.912 64.4193 
-103.345 -109.585 64.7078 -102.886 -110.218 65.2368 -101.602 -109.579 65.611 
-102.103 -108.78 65.19 -101.186 -107.947 65.8608 -102.593 -107.84 64.7355 
-101.654 -106.89 65.4709 -100.966 -105.986 66.3494 -103.253 -106.832 64.4714 
-102.081 -105.704 64.9719 -101.289 -104.794 65.8423 -100.553 -103.987 66.7142 
-104.334 -105.942 64.4323 -102.835 -104.594 64.5848 -101.822 -103.663 65.3217 
-100.992 -102.844 66.2221 -100.289 -102.134 67.1658 -105.689 -105.4 64.4968 
-104.1 -103.852 64.4746 -102.895 -102.848 65.0482 -101.917 -101.978 65.9735 
-101.093 -101.113 66.9086 -100.541 -100.535 67.9718 -106.931 -105.277 64.6979 
-105.485 -103.614 64.7311 -104.267 -102.425 65.1463 -103.198 -101.441 65.9509 
-102.158 -100.324 66.7231 -101.4 -99.5728 67.633 -100.895 -99.2739 68.7227 
-107.952 -105.36 65.0258 -106.65 -103.754 65.2702 -105.52 -102.306 65.5845 
-104.482 -101.093 66.1127 -103.352 -99.7127 66.5375 -102.333 -98.6175 67.0891 
-101.665 -98.3062 68.1032 -101.14 -98.278 69.2703 -108.874 -105.397 65.3474 
-107.673 -103.98 65.7727 -106.635 -102.4 66.0812 -105.68 -100.927 66.4277 
-104.641 -99.3837 66.6066 -103.576 -97.9617 66.7919 -102.699 -97.3345 67.5311 
-102.061 -97.3778 68.7422 -101.516 -97.4337 69.9531 -109.727 -105.36 65.6229 
-108.653 -104.101 66.0788 -107.7 -102.577 66.3857 -106.822 -100.996 66.717 
-105.897 -99.4214 66.9505 -104.97 -97.9319 67.0732 -104.084 -96.9632 67.5467 
-103.263 -96.6902 68.5519 -102.58 -96.7181 69.7412 -102.045 -96.7165 70.8217 
-100.722 -109.278 66.0678 -100.526 -107.462 66.6045 -100.071 -108.894 66.8895 
-100.324 -105.433 67.2425 -99.954 -106.978 67.67 -99.6633 -108.505 68.2045 
-99.8647 -103.438 67.6815 -99.7065 -104.954 68.3619 -99.5433 -106.546 68.9882 
-99.4081 -108.117 69.6077 -99.7609 -101.583 68.3131 -99.3478 -102.991 68.8911 
-99.3495 -104.559 69.667 -99.3096 -106.134 70.3791 -99.1646 -107.701 70.9825 
-100.082 -100.012 69.1699 -99.3436 -101.128 69.5867 -99.1319 -102.731 70.3283 
-99.1401 -104.353 71.2757 -98.8945 -105.834 72.0208 -98.7394 -107.314 72.5564 
-100.313 -98.7943 69.8609 -99.4766 -99.4776 70.3231 -99.0747 -100.928 71.0217 
-99.014 -102.83 72.1307 -98.6286 -104.392 73.1278 -98.1892 -105.66 73.6297 
-98.3487 -106.974 73.9409 -100.573 -97.8415 70.5076 -99.5975 -98.2194 71.0139 
-99.0511 -99.2191 71.6719 -99.031 -101.112 72.7433 -98.7268 -103.046 73.886 
-97.9965 -104.389 74.4898 -97.8102 -105.488 74.6537 -98.3807 -106.712 74.8928 
-101.128 -97.0828 71.3104 -100.048 -97.4067 71.8208 -99.2243 -98.0089 72.4082 
-99.0665 -99.3852 73.2655 -99.026 -101.317 74.2966 -98.4169 -103.016 75.0096 
-97.846 -104.252 75.247 -98.0628 -105.374 75.4216 -98.7297 -106.606 75.8194 
-102.147 -96.3182 72.0217 -101.178 -96.7645 72.6034 -102.373 -96.1346 73.2788 
-101.365 -96.7615 74.025 -102.624 -96.2345 74.5997 -100.044 -97.2548 73.221 
-101.567 -96.8954 75.486 -102.841 -96.4691 75.9655 -100.241 -97.3801 74.7777 
-99.3351 -98.0643 73.9242 -101.865 -97.0948 76.9067 -103.173 -96.8793 77.2936 
-100.522 -97.5337 76.3607 -99.5682 -98.2318 75.5538 -99.2174 -99.5096 74.7742 
-102.394 -97.6349 78.1604 -103.658 -97.4714 78.5556 -100.998 -97.9171 77.8223 
-99.8542 -98.5169 77.2102 -99.2969 -99.6473 76.2989 -98.9361 -101.339 75.5148 
-102.974 -98.3384 79.289 -104.13 -97.9663 79.8074 -101.62 -98.6775 78.9871 
-100.344 -99.1685 78.6346 -99.5273 -100.088 77.8538 -98.999 -101.496 76.8029 
-98.3791 -103.018 75.8995 -103.474 -98.9022 80.4157 -104.561 -98.4476 80.9121 
-102.182 -99.4132 80.0356 -100.932 -99.9446 79.6864 -100.067 -100.753 79.0825 
-99.4753 -101.973 78.1817 -98.8625 -103.297 77.1465 -98.3013 -104.415 76.1752 
-103.988 -99.5906 81.3429 -105.022 -99.2613 81.6571 -102.758 -100.086 81.045 
-101.545 -100.62 80.6517 -100.732 -101.322 79.9745 -100.218 -102.429 79.1836 
-99.6383 -103.727 78.4411 -99.0673 -104.823 77.5815 -98.7588 -105.72 76.6256 
-104.539 -100.571 81.939 -105.501 -100.347 82.1363 -103.438 -100.953 81.7542 
-102.295 -101.406 81.4832 -101.46 -101.951 80.8419 -100.993 -102.831 79.9429 
-100.479 -104.048 79.2548 -99.8247 -105.227 78.746 -99.3739 -106.185 78.0376 
-99.2421 -107.04 77.1365 -102.902 -96.1022 71.1467 -103.056 -95.638 72.328 
-103.842 -95.5881 71.5452 -104.108 -94.9527 72.6653 -105.12 -95.1544 71.9403 
-103.396 -95.4492 73.5413 -105.597 -94.4424 73.1066 -106.705 -94.9675 72.2906 
-104.631 -94.7799 73.8925 -103.774 -95.6735 74.8774 -107.135 -94.6124 73.5458 
-108.049 -95.4675 72.5841 -106.111 -94.5026 74.3931 -105.104 -95.2441 75.2595 
-104.091 -96.1615 76.2898 -108.32 -95.5815 73.817 -109.073 -96.4367 72.8724 
-107.395 -95.0459 74.8574 -106.458 -95.2538 75.7843 -105.478 -95.9909 76.717 
-104.476 -96.7623 77.7298 -109.593 -96.5109 74.0379 -110.157 -97.2402 73.2215 
-108.715 -95.9642 75.2189 -107.78 -95.8036 76.4119 -106.921 -96.0903 77.3398 
-105.923 -96.6349 78.2984 -104.913 -97.2678 79.2173 -110.915 -97.1457 74.344 
-111.162 -98.0002 73.56 -110.311 -96.5648 75.5666 -109.379 -96.3843 77.0064 
-108.458 -96.4968 78.0659 -107.479 -96.7366 78.907 -106.315 -97.1177 79.8626 
-105.298 -97.6897 80.5785 -111.745 -98.0522 74.6549 -111.877 -98.9819 73.8055 
-111.461 -97.2746 75.8694 -110.821 -96.9143 77.3503 -109.951 -96.9793 78.5488 
-108.987 -97.1726 79.3573 -107.819 -97.3817 80.2307 -106.619 -97.7662 81.0698 
-105.701 -98.4141 81.508 -112.264 -99.1817 74.9167 -112.512 -99.9309 74.0092 
-111.999 -98.4509 76.098 -111.601 -97.8938 77.4596 -111.004 -97.6811 78.6648 
[...]
CELL_DATA 2000
SCALARS Distance double
LOOKUP_TABLE default
174.393 173.54 173.805 173.416 172.509 172.862 172.458 172.748 172.319 
171.341 171.746 171.323 171.682 171.194 171.543 171.108 170.048 170.487 
170.003 170.434 169.906 170.308 169.827 170.279 169.906 168.634 169.084 
168.536 169.016 168.464 168.924 168.426 168.927 168.553 169.081 168.743 
167.255 167.63 167.078 167.534 167.017 167.467 166.973 167.472 167.102 
167.682 167.379 167.913 167.577 166.021 166.296 165.722 166.13 165.667 
166.098 165.637 166.062 165.668 166.209 165.934 166.524 166.246 166.765 
166.47 164.859 165.077 164.41 164.782 164.293 164.771 164.35 164.785 
164.37 164.828 164.519 165.084 164.84 165.412 165.145 165.684 165.442 
163.749 163.916 163.196 163.471 162.928 163.378 162.991 163.485 163.116 
163.566 163.225 163.72 163.447 164.003 163.73 164.3 164.031 164.633 
164.431 174.863 175.305 174.734 174 175.695 175.135 174.319 173.755 
172.942 175.989 175.481 174.661 174.059 173.181 172.626 171.788 176.192 
175.738 174.967 174.398 173.515 172.899 172.015 171.458 170.572 176.339 
175.913 175.136 174.645 173.762 173.201 172.278 171.708 170.776 170.197 
169.224 176.391 176.014 175.208 174.757 173.857 173.353 172.404 171.89 
170.937 170.392 169.414 168.824 167.86 176.266 175.978 175.188 174.795 
173.927 173.44 172.516 171.983 171.038 170.506 169.569 169.021 168.102 
167.53 166.651 176.013 175.784 175.02 174.712 173.889 173.497 172.634 
172.14 171.218 170.649 169.711 169.163 168.277 167.764 166.913 166.372 
165.524 175.759 175.536 174.797 174.511 173.69 173.377 172.541 172.191 
171.327 170.849 169.915 169.346 168.425 167.905 167.054 166.576 165.735 
165.224 164.392 175.417 174.518 174.805 174.407 173.305 173.742 173.265 
173.643 173.212 171.789 172.341 171.865 172.353 171.902 172.382 172.024 
170.392 170.833 170.465 170.946 170.591 171.06 170.74 171.224 170.877 
169.387 169.638 169.32 169.705 169.471 169.876 169.602 169.997 169.629 
170.024 169.54 168.484 168.714 168.294 168.648 168.374 168.812 168.532 
168.917 168.477 168.794 168.23 168.581 168.035 167.463 167.723 167.21 
167.551 167.144 167.613 167.258 167.74 167.245 167.597 166.93 167.245 
166.618 167.057 166.596 166.513 166.697 166.175 166.428 165.93 166.305 
165.834 166.317 165.762 166.208 165.482 165.852 165.122 165.573 165.04 
165.625 165.242 165.766 165.85 165.305 165.446 164.866 165.098 164.47 
164.831 164.134 164.582 163.797 164.251 163.478 163.979 163.393 164.003 
163.611 164.265 163.926 163.027 162.678 162.433 161.655 162.344 162.021 
161.169 161.049 160.35 162.232 161.683 160.646 160.455 159.66 159.674 
158.977 162.447 161.655 160.425 159.965 159.083 158.968 158.286 158.28 
157.677 162.897 161.994 160.736 159.958 159.061 158.646 158.074 157.828 
157.344 157.198 156.855 163.466 162.589 161.473 160.522 159.661 158.979 
158.468 157.979 157.513 157.125 156.737 156.613 156.441 164.073 163.301 
162.384 161.432 160.609 159.789 159.223 158.584 158.003 157.421 156.798 
156.502 156.169 156.232 156.142 164.656 164.004 163.26 162.412 161.636 
160.785 160.132 159.39 158.724 157.975 157.217 156.621 156.124 155.967 
155.889 156 156.058 165.203 164.637 164.012 163.287 162.571 161.769 
161.082 160.298 159.632 158.801 158.112 157.277 156.787 156.23 156.151 
155.967 156.136 156.116 156.284 162.923 161.598 162.272 162.377 160.396 
161.037 161.158 161.824 162.099 159.109 159.851 160.042 160.707 160.983 
161.709 162.151 157.773 158.508 158.774 159.566 159.895 160.647 161.061 
161.839 162.311 156.874 157.313 157.547 158.273 158.694 159.524 159.99 
160.775 161.24 161.998 162.462 156.475 156.665 156.773 157.216 157.625 
158.377 158.978 159.76 160.29 160.984 161.447 162.166 162.657 156.212 
156.335 156.313 156.561 156.817 157.439 158.112 158.899 159.571 160.179 
160.622 161.195 161.622 162.364 162.881 156.095 156.107 156.026 156.108 
156.202 156.663 157.28 158.108 158.921 159.598 160.084 160.5 160.804 
161.353 161.813 162.6 163.178 156.28 156.149 156.11 155.975 156.012 
156.157 156.633 157.294 158.133 158.932 159.559 160.035 160.324 160.679 
161.049 161.635 162.241 162.999 163.649 156.498 156.966 156.592 156.335 
157.709 157.197 156.919 156.432 156.244 158.595 158.034 157.788 157.184 
157.007 156.554 156.798 159.597 158.971 158.758 158.135 157.998 157.473 
157.699 157.476 158.149 160.808 160.087 159.922 159.218 159.134 158.537 
158.706 158.393 158.902 158.882 159.493 162.08 161.38 161.263 160.525 
160.485 159.797 159.942 159.448 159.824 159.592 160.049 159.971 160.327 
163.251 162.63 162.548 161.882 161.846 161.187 161.306 160.748 161.077 
160.646 161.07 160.705 161.084 160.785 161.152 164.398 163.797 163.769 
163.142 163.127 162.498 162.579 162.046 162.331 161.919 162.35 161.931 
162.355 161.873 162.288 161.866 162.37 165.585 164.986 165.01 164.394 
164.433 163.793 163.873 163.288 163.515 163.091 163.491 163.161 163.601 
163.213 163.619 163.175 163.617 163.233 163.755 156.656 157.032 156.884 
157.1 157.59 157.294 157.473 157.428 157.805 158.503 157.984 158.1 
157.885 158.298 158.264 158.727 159.753 159.085 159.183 158.717 159.1 
158.896 159.428 159.294 159.788 161.153 160.464 160.581 159.968 160.29 
159.888 160.405 160.149 160.705 160.477 161.008 162.569 161.921 162.104 
161.453 161.776 161.226 161.715 161.296 161.848 161.513 162.044 161.766 
162.266 163.913 163.34 163.595 163.006 163.388 162.809 163.3 162.755 
163.266 162.777 163.251 162.852 163.294 162.987 163.422 165.139 164.642 
164.913 164.439 164.831 164.369 164.833 164.343 164.78 164.249 164.627 
164.118 164.483 164.059 164.451 164.122 164.552 166.268 165.82 166.086 
165.675 166.038 165.668 166.077 165.704 166.086 165.653 165.981 165.487 
165.801 165.307 165.66 165.229 165.637 165.29 165.735 165.346 165.177 
164.909 164.141 164.923 164.651 163.817 163.574 162.729 164.757 164.399 
163.555 163.243 162.396 162.125 161.28 164.856 164.38 163.578 163.11 
162.264 161.861 160.996 160.686 159.823 165.078 164.59 163.81 163.273 
162.403 161.861 160.965 160.503 159.621 159.251 158.372 165.271 164.801 
164.001 163.498 162.608 162.05 161.143 160.6 159.788 159.271 158.495 
157.966 157.216 165.519 165.008 164.223 163.687 162.846 162.271 161.417 
160.848 160.105 159.588 158.955 158.379 157.75 157.117 156.609 165.852 
165.324 164.606 164.016 163.266 162.632 161.872 161.232 160.517 159.959 
159.336 158.849 158.274 157.751 157.243 156.734 156.445 166.221 165.713 
165.078 164.499 163.831 163.188 162.497 161.816 161.118 160.459 159.783 
159.218 158.605 158.149 157.652 157.27 156.945 156.63 156.489 166.005 
167.024 166.338 165.946 168.155 167.43 167.083 166.286 165.787 169.373 
168.607 168.272 167.473 167.008 166.119 165.612 170.63 169.842 169.482 
168.679 168.244 167.371 166.878 166.008 165.628 171.844 171.085 170.718 
169.904 169.485 168.628 168.177 167.299 166.905 166.104 165.819 172.959 
172.259 171.923 171.142 170.754 169.911 169.505 168.627 168.247 167.402 
167.09 166.309 166.038 173.994 173.339 173.034 172.318 171.974 171.191 
170.814 169.971 169.589 168.743 168.409 167.601 167.316 166.534 166.279 
174.977 174.36 174.078 173.406 173.085 172.368 172.003 171.231 170.841 
170.042 169.684 168.897 168.593 167.82 167.551 166.791 166.559 175.902 
175.333 175.081 174.443 174.131 173.444 173.079 172.354 171.972 171.229 
170.883 170.135 169.835 169.079 168.805 168.049 167.8 167.07 166.871 
176.331 176.678 176.192 175.512 176.9 176.471 175.761 175.287 174.544 
177.069 176.649 175.942 175.482 174.703 174.238 173.46 177.309 176.848 
176.147 175.661 174.885 174.386 173.584 173.122 172.358 177.542 177.098 
176.367 175.877 175.097 174.591 173.805 173.297 172.528 172.052 171.319 
177.647 177.272 176.551 176.09 175.311 174.808 174.029 173.531 172.766 
172.272 171.508 171.032 170.295 177.658 177.329 176.714 176.31 175.647 
175.109 174.351 173.774 172.984 172.475 171.686 171.214 170.427 169.984 
169.249 177.666 177.339 176.795 176.499 175.993 175.544 174.857 174.202 
173.354 172.713 171.889 171.371 170.589 170.117 169.356 168.931 168.237 
177.697 177.355 176.774 176.541 176.067 175.814 175.192 174.684 173.797 
173.122 172.217 171.624 170.849 170.332 169.597 169.093 168.38 167.949 
167.312 177.48 176.772 176.913 176.549 176.009 176.188 175.827 176.047 
175.797 175.093 175.37 174.927 175.206 174.848 175.219 174.867 173.813 
174.291 173.803 174.163 173.649 174.056 173.582 174.022 173.461 172.203 
172.823 172.404 172.906 172.398 172.781 172.242 172.636 172.107 172.492 
171.922 170.591 171.179 170.825 171.429 171.04 171.507 171.003 171.355 
170.84 171.199 170.723 171.062 170.582 169.14 169.644 169.265 169.858 
169.505 170.083 169.625 170.077 169.539 169.95 169.46 169.875 169.409 
169.778 169.31 167.782 168.233 167.804 168.332 167.946 168.526 168.11 
168.631 168.14 168.595 168.107 168.561 168.102 168.536 168.073 168.478 
168.052 166.526 166.908 166.465 166.909 166.513 167.022 166.663 167.172 
166.804 167.251 166.862 167.262 166.86 167.246 166.834 167.226 166.841 
167.261 166.954 178.028 178.461 177.939 177.25 178.505 178.178 177.491 
177.086 176.43 178.383 178.087 177.428 177.16 176.525 176.2 175.503 
178.436 178.06 177.422 177.086 176.453 176.16 175.438 175.107 174.219 
178.359 178.138 177.529 177.189 176.49 176.089 175.266 174.907 173.965 
173.607 172.581 177.807 177.824 177.222 177.148 176.407 176.088 175.114 
174.692 173.65 173.282 172.259 171.916 170.95 177.139 177.134 176.503 
176.574 175.88 175.786 174.825 174.471 173.358 172.959 171.922 171.591 
170.651 170.353 169.491 176.672 176.556 175.902 175.854 175.201 175.156 
174.357 174.119 173.108 172.7 171.654 171.274 170.329 170.037 169.174 
168.926 168.124 176.268 176.162 175.516 175.372 174.699 174.575 173.856 
173.682 172.83 172.494 171.51 171.077 170.105 169.736 168.865 168.595 
167.806 167.583 166.859 178.632 179.744 179.218 179.136 180.815 180.331 
180.253 179.585 179.237 181.855 181.427 181.433 180.743 180.423 179.586 
179.15 182.686 182.444 182.568 181.985 181.767 180.895 180.472 179.564 
179.173 183.066 183.058 183.208 182.96 182.788 182.178 181.744 180.91 
180.376 179.546 179.031 183.255 183.25 183.332 183.298 183.1 182.837 
182.351 181.868 181.238 180.58 179.876 179.157 178.468 183.475 183.405 
183.406 183.339 183.132 182.927 182.426 182.112 181.49 181.099 180.425 
179.861 179.14 178.467 177.81 183.47 183.495 183.398 183.379 183.164 
182.984 182.535 182.182 181.606 181.228 180.664 180.252 179.653 179.105 
178.475 177.853 177.298 183.18 183.287 183.102 183.188 182.924 182.919 
182.527 182.323 181.808 181.445 180.909 180.506 179.97 179.529 178.944 
178.438 177.846 177.328 176.808 182.976 182.651 182.794 182.813 182.286 
182.387 182.233 182.518 182.542 181.706 181.889 181.595 181.839 181.752 
182.171 182.16 180.807 181.14 180.821 181.093 180.892 181.307 181.285 
181.719 181.571 179.734 180.145 179.86 180.202 179.94 180.358 180.267 
180.778 180.683 181.042 180.743 178.648 179.075 178.83 179.204 178.934 
179.328 179.148 179.669 179.553 180.056 179.81 180.139 179.769 177.539 
177.988 177.771 178.186 177.932 178.306 178.063 178.511 178.338 178.859 
178.64 179.088 178.747 179.1 178.716 176.41 176.86 176.64 177.102 
176.863 177.278 177.003 177.414 177.185 177.662 177.453 177.909 177.609 
177.999 177.642 178.007 177.643 175.34 175.746 175.519 175.963 175.738 
176.176 175.905 176.317 176.056 176.513 176.312 176.775 176.531 176.907 
176.584 176.929 176.611 176.96 176.643 174.692 173.744 174.432 174.852 
172.705 173.461 173.907 174.61 175.052 171.58 172.4 172.898 173.649 
174.092 174.792 175.208 170.419 171.264 171.802 172.616 173.087 173.812 
174.232 174.927 175.364 169.223 170.073 170.584 171.468 171.971 172.777 
173.234 173.963 174.44 175.146 175.638 168.017 168.833 169.292 170.192 
170.705 171.601 172.11 172.937 173.45 174.224 174.729 175.438 175.867 
166.916 167.651 168.092 168.918 169.435 170.323 170.872 171.764 172.315 
173.175 173.69 174.471 174.894 175.581 175.921 165.927 166.615 167.051 
167.793 168.295 169.112 169.662 170.535 171.107 171.996 172.545 173.38 
173.842 174.575 174.95 175.609 175.954 164.974 165.662 166.092 166.794 
167.252 168.011 168.524 169.358 169.92 170.796 171.36 172.219 172.726 
173.512 173.943 174.647 175.027 175.674 176.014 175.803 174.814 175.251 
175.07 173.68 174.172 173.961 174.422 174.195 172.417 172.941 172.66 
173.188 172.924 173.47 173.255 171.048 171.599 171.269 171.805 171.478 
172.069 171.817 172.456 172.205 169.599 170.163 169.821 170.376 170.007 
170.574 170.248 170.901 170.612 171.277 170.918 168.169 168.681 168.297 
168.872 168.487 169.068 168.674 169.288 168.927 169.598 169.235 169.89 
169.509 166.892 167.296 166.86 167.348 166.932 167.496 167.071 167.668 
167.25 167.895 167.527 168.196 167.864 168.523 168.248 165.742 166.083 
165.639 166.012 165.581 166.013 165.577 166.07 165.632 166.215 165.851 
166.518 166.24 166.918 166.694 167.366 167.194 164.593 164.93 164.475 
164.843 164.428 164.793 164.372 164.723 164.281 164.696 164.33 164.901 
164.671 165.343 165.185 165.858 165.723 166.387 166.275 176.399 176.692 
176.855 177.512 176.972 177.169 177.834 178.015 178.699 177.126 177.42 
178.107 178.325 178.996 179.189 179.855 177.075 177.484 178.235 178.564 
179.274 179.488 180.171 180.344 180.997 176.9 177.356 178.141 178.61 
179.404 179.739 180.446 180.663 181.331 181.491 182.037 176.701 177.157 
177.911 178.438 179.249 179.746 180.466 180.832 181.463 181.745 182.275 
182.407 182.683 176.415 176.913 177.6 178.141 178.865 179.446 180.124 
180.648 181.241 181.691 182.206 182.508 182.797 182.84 182.876 175.974 
176.523 177.135 177.714 178.324 178.935 179.525 180.133 180.685 181.269 
181.773 182.261 182.589 182.824 182.892 182.9 182.882 175.457 175.997 
176.545 177.134 177.678 178.291 178.811 179.434 179.931 180.573 181.038 
181.655 181.989 182.437 182.551 182.771 182.77 182.873 182.936 176.436 
177.567 176.947 176.863 178.802 178.173 178.126 177.436 177.341 179.974 
179.412 179.399 178.742 178.64 177.929 177.759 181.084 180.55 180.528 
179.938 179.8 179.158 178.927 178.239 177.895 182.075 181.616 181.583 
181.029 180.888 180.249 179.977 179.298 178.903 178.188 177.682 182.641 
182.403 182.36 181.999 181.916 181.359 181.12 180.378 179.947 179.152 
178.617 177.862 177.331 182.789 182.712 182.658 182.545 182.516 182.248 
182.075 181.505 181.059 180.243 179.633 178.802 178.234 177.517 177.068 
182.882 182.814 182.833 182.754 182.788 182.663 182.548 182.228 181.816 
181.217 180.585 179.817 179.191 178.439 177.952 177.298 176.921 183.075 
183.013 183.153 183.04 183.153 182.979 182.916 182.609 182.258 181.785 
181.228 180.627 180.038 179.37 178.862 178.196 177.782 177.162 176.8 
175.835 176.201 175.684 174.98 176.598 176.031 175.258 174.724 173.826 
176.968 176.393 175.518 174.949 173.978 173.389 172.316 177.082 176.634 
175.681 175.138 174.115 173.524 172.46 171.842 170.874 176.863 176.556 
175.575 175.146 174.129 173.64 172.681 172.093 171.21 170.609 169.875 
176.577 176.289 175.371 174.963 174.007 173.601 172.778 172.347 171.592 
171.043 170.292 169.724 169.006 176.414 176.109 175.337 174.887 174.043 
173.571 172.831 172.443 171.775 171.355 170.595 170.08 169.25 168.744 
167.962 176.309 176.031 175.365 174.975 174.24 173.758 173.047 172.592 
171.925 171.496 170.753 170.272 169.433 168.926 168.12 167.663 166.979 
176.191 175.941 175.296 174.998 174.313 173.945 173.245 172.829 172.128 
171.68 170.94 170.442 169.663 169.135 168.393 167.885 167.241 166.793 
166.243 178.411 178.354 178.756 179.505 178.314 178.683 179.405 179.825 
180.549 178.304 178.642 179.291 179.685 180.377 180.821 181.515 178.193 
178.58 179.185 179.557 180.185 180.61 181.273 181.733 182.316 177.943 
178.384 179.009 179.423 180.081 180.471 181.144 181.521 182.098 182.433 
182.812 177.716 178.13 178.796 179.235 179.969 180.401 181.16 181.514 
182.164 182.372 182.807 182.912 183.172 177.557 177.953 178.618 179.048 
179.759 180.24 180.986 181.475 182.173 182.51 183.011 183.101 183.383 
183.349 183.502 177.302 177.752 178.358 178.828 179.445 179.945 180.565 
181.125 181.751 182.311 182.83 183.194 183.462 183.561 183.615 183.59 
183.537 176.897 177.382 177.906 178.433 178.975 179.516 180.072 180.62 
181.188 181.758 182.272 182.783 183.077 183.392 183.405 183.529 183.389 
183.423 183.248 
POINT_DATA 1002
SCALARS Distance double
LOOKUP_TABLE default
174.033 174.953 174.195 173.188 173.24 173.03 172.161 172.127 172.029 
171.903 170.953 170.946 170.858 170.7 170.727 169.566 169.636 169.493 
169.371 169.415 169.581 168.052 168.216 167.992 167.911 167.999 168.25 
168.402 166.624 166.928 166.561 166.501 166.511 166.802 167.09 167.241 
165.337 165.801 165.208 165.236 165.178 165.32 165.685 165.966 166.207 
164.095 164.682 163.801 163.872 163.946 163.99 164.251 164.589 164.883 
165.239 162.974 163.594 162.52 162.465 162.64 162.767 162.924 163.173 
163.433 163.78 164.277 175.442 174.566 175.909 174.931 176.248 173.461 
175.266 176.455 173.789 172.295 175.495 176.631 174.142 172.617 171.137 
175.615 176.775 174.301 172.846 171.372 169.821 175.654 176.747 174.358 
172.915 171.454 169.987 168.438 175.537 176.517 174.376 173.05 171.584 
170.081 168.643 167.228 175.3 176.225 174.228 173.068 171.787 170.287 
168.769 167.424 166.091 175.086 175.969 174.007 172.838 171.721 170.476 
168.985 167.525 166.216 164.902 175.2 174.132 174.225 172.87 172.823 
172.793 171.332 171.216 171.397 171.517 169.955 170.007 170.112 170.267 
170.437 168.958 169.199 169.052 169.253 169.292 169.163 167.991 168.268 
167.939 168.137 168.213 167.932 167.599 166.916 167.21 166.729 166.769 
166.875 166.652 166.21 166.049 165.97 166.362 165.644 165.424 165.314 
165.102 164.698 164.461 164.61 165.221 165.72 164.728 164.23 163.759 
163.334 162.958 162.782 162.94 163.285 162.204 161.813 160.954 161.313 
160.386 159.716 160.959 159.671 158.927 158.295 161.052 159.269 158.313 
157.624 157.115 161.601 159.559 158.363 157.553 156.862 156.594 162.412 
160.41 159.021 158.028 156.966 156.388 156.347 163.264 161.479 159.942 
158.71 157.277 156.158 155.965 156.119 164.023 162.497 160.937 159.522 
157.944 156.435 155.785 155.922 156.138 164.672 163.344 161.875 160.438 
158.941 157.456 156.474 156.2 156.293 156.426 161.64 160.523 161.316 
159.32 160.29 161.352 157.912 159.094 160.308 161.532 156.918 157.818 
159.176 160.493 161.701 156.491 156.919 158.144 159.619 160.765 161.881 
156.174 156.279 157.261 158.94 160.162 160.946 162.044 156.033 155.875 
156.457 158.13 159.701 160.398 161.074 162.326 156.281 156.022 156.144 
157.302 158.973 160.011 160.569 161.507 162.893 156.792 156.707 157.404 
157.485 158.242 156.571 158.383 159.167 157.502 156.952 159.37 160.26 
158.526 157.971 158.178 160.636 161.532 159.763 159.118 159.035 159.501 
161.975 162.737 161.182 160.514 160.197 160.248 160.406 163.18 163.839 
162.493 161.868 161.538 161.5 161.467 161.383 164.374 164.983 163.757 
163.136 162.735 162.724 162.83 162.771 162.712 165.604 166.172 165.056 
164.49 163.996 163.817 163.934 164.041 164.046 164.096 156.754 157.109 
157.237 157.539 157.997 157.775 158.42 159.096 158.346 158.778 159.743 
160.422 159.389 159.569 159.941 161.228 161.811 160.775 160.709 160.943 
161.235 162.727 163.17 162.359 162.198 162.239 162.367 162.534 164.126 
164.446 163.935 163.875 163.831 163.73 163.66 163.693 165.357 165.617 
165.259 165.303 165.326 165.188 164.968 164.826 164.836 166.49 166.698 
166.414 166.446 166.486 166.448 166.309 166.13 166.025 166.051 165.648 
164.408 165.476 164.072 165.222 162.971 163.906 165.145 162.689 161.531 
164.092 165.333 162.739 161.367 160.094 164.349 165.556 162.991 161.481 
160.051 158.722 164.502 165.759 163.156 161.68 160.272 159.044 157.723 
164.767 166.034 163.405 161.979 160.596 159.452 158.372 157.158 165.173 
166.35 163.881 162.514 161.125 159.834 158.729 157.727 156.849 166.65 
166.718 167.707 167.868 168.894 166.666 169.062 170.168 167.89 166.472 
170.299 171.426 169.09 167.755 166.41 171.534 172.577 170.326 169.042 
167.738 166.573 172.67 173.635 171.571 170.37 169.107 167.9 166.802 
173.718 174.633 172.719 171.636 170.439 169.228 168.105 167.045 174.733 
175.57 173.788 172.753 171.623 170.464 169.364 168.315 167.295 175.7 