# vtk DataFile Version 4.0
vtk output
ASCII
DATASET POLYDATA
POINTS 1002 float
-103.806 -122.47 75.7086 -104.524 -123.33 75.2772 -103.976 -123.162 74.5605 
-103.287 -122.078 74.9341 -103.513 -122.747 73.8202 -103.298 -121.117 76.1628 
-102.91 -121.331 74.1338 -103.322 -121.865 73.0708 -102.931 -120.348 75.3842 
-102.952 -119.259 76.6005 -102.747 -120.155 73.402 -103.291 -120.588 72.3558 
-102.546 -119.333 74.6121 -102.594 -118.256 75.9142 -102.307 -117.492 77.0441 
-102.609 -118.772 72.7435 -103.057 -119.261 71.707 -102.091 -118.229 73.8863 
-101.888 -117.394 75.1888 -101.715 -116.61 76.4253 -101.222 -116.237 77.4644 
-102.264 -117.456 72.0649 -102.604 -118.013 71.054 -101.642 -117.091 73.1371 
-100.976 -116.706 74.3373 -100.711 -116.049 75.6198 -100.525 -115.444 76.76 
-100.223 -115.061 77.7427 -101.738 -116.301 71.3353 -102.175 -116.818 70.3734 
-101.193 -115.907 72.3928 -100.314 -115.776 73.4632 -99.6614 -115.484 74.6367 
-99.5716 -114.802 75.8393 -99.5828 -114.111 76.9281 -99.5201 -113.618 77.9042 
-101.126 -115.381 70.612 -101.754 -115.786 69.7437 -100.568 -114.899 71.6788 
-99.8275 -114.615 72.7501 -98.9785 -114.511 73.7919 -98.5933 -114.099 74.8985 
-98.6828 -113.339 76.048 -98.7714 -112.678 77.1422 -98.8266 -112.256 78.1233 
-100.48 -114.669 69.9088 -101.22 -114.963 69.1677 -99.8045 -114.202 70.8922 
-99.1911 -113.695 71.9875 -98.4963 -113.434 73.062 -97.8908 -113.236 74.112 
-97.7396 -112.716 75.2251 -97.8639 -112.036 76.4103 -97.9648 -111.528 77.5206 
-98.1399 -111.18 78.4369 -99.8911 -113.979 69.233 -100.623 -114.231 68.597 
-99.1791 -113.569 70.0716 -98.5653 -113.022 71.0351 -98.035 -112.585 72.1038 
-97.4874 -112.35 73.2402 -97.1249 -112.023 74.3903 -97.1255 -111.47 75.614 
-97.2468 -110.922 76.8783 -97.3758 -110.508 77.9538 -97.6662 -110.157 78.7281 
-105.008 -124.021 74.4514 -104.516 -123.819 73.7137 -105.581 -124.803 73.6013 
-105.225 -124.415 72.7771 -106.242 -125.459 72.5739 -104.163 -123.276 72.956 
-106.028 -124.821 71.6423 -107.055 -125.768 71.3418 -104.979 -123.632 71.933 
-104.027 -122.261 72.1273 -106.916 -125.049 70.4686 -107.951 -125.969 70.0908 
-105.829 -123.854 70.8062 -104.767 -122.532 71.061 -103.837 -121.024 71.3438 
-107.756 -125.23 69.3151 -108.746 -126.151 68.8686 -106.713 -124.027 69.7524 
-105.576 -122.699 70.0855 -104.458 -121.353 70.3798 -103.44 -119.775 70.717 
-108.478 -125.091 68.1355 -109.522 -125.869 67.7843 -107.497 -124.078 68.63 
-106.418 -122.802 69.1437 -105.314 -121.439 69.5767 -104.169 -120.033 69.888 
-103.085 -118.407 70.1222 -109.328 -124.416 67.311 -110.454 -125.062 67.1371 
-108.259 -123.715 67.6188 -107.115 -122.775 68.057 -106.048 -121.463 68.6029 
-105.044 -120.052 69.0679 -103.929 -118.56 69.3341 -102.81 -117.029 69.5135 
-110.341 -123.533 66.9832 -111.414 -124.133 66.8485 -109.225 -122.971 67.1183 
-107.918 -122.39 67.2351 -106.626 -121.43 67.5146 -105.599 -120.153 67.9876 
-104.639 -118.744 68.4466 -103.556 -117.224 68.7668 -102.394 -115.892 68.9757 
-111.234 -122.733 66.6933 -112.186 -123.276 66.5389 -110.198 -122.183 66.8176 
-108.915 -121.711 66.7953 -107.468 -121.081 66.7686 -106.189 -120.167 66.9786 
-105.164 -119.016 67.443 -104.178 -117.575 67.9739 -103.06 -116.089 68.3378 
-101.817 -114.976 68.4842 -112.218 -122.129 66.0835 -111.214 -121.591 66.2023 
-112.122 -120.989 65.3879 -110.89 -120.545 65.3595 -111.854 -119.977 64.7165 
-110.016 -121.079 66.2422 -110.305 -119.603 64.5467 -111.378 -118.913 64.2258 
-109.51 -120.029 65.3634 -108.606 -120.528 66.1963 -109.61 -118.387 63.9847 
-110.661 -117.438 63.8058 -108.826 -118.96 64.585 -108.167 -119.341 65.4981 
-107.171 -119.832 66.2556 -108.968 -116.623 63.7317 -109.866 -115.744 63.749 
-108.149 -117.495 64.1233 -107.601 -118.048 64.9651 -106.898 -118.518 65.8709 
-105.905 -118.939 66.6136 -108.564 -114.846 64.1009 -109.277 -114.332 64.3756 
-107.717 -115.692 64.221 -107.002 -116.423 64.8388 -106.483 -116.885 65.7821 
-105.718 -117.335 66.5944 -104.799 -117.62 67.2573 -108.347 -113.474 64.9772 
-108.892 -113.139 65.2864 -107.589 -114.107 64.9515 -106.655 -114.759 65.3015 
-105.966 -115.062 66.0678 -105.4 -115.293 66.8712 -104.516 -115.703 67.3878 
-103.616 -116.004 67.8189 -108.012 -112.15 65.8182 -108.491 -111.828 66.0368 
-107.376 -112.664 65.8045 -106.442 -113.222 65.9995 -105.496 -113.46 66.4857 
-104.787 -113.476 67.099 -103.959 -113.753 67.4581 -102.94 -114.275 67.6425 
-102.189 -114.701 67.9747 -107.456 -110.614 66.4204 -107.989 -110.392 66.6118 
-106.809 -110.991 66.3944 -105.959 -111.47 66.4788 -104.957 -111.834 66.6989 
-103.993 -112.018 67.0302 -103.031 -112.296 67.2113 -101.992 -112.825 67.2291 
-101.167 -113.405 67.4327 -100.766 -113.872 67.9443 -99.6218 -113.252 68.3795 
-99.7019 -112.771 67.5952 -98.9562 -111.83 68.4198 -100.035 -112.22 66.978 
-99.076 -111.196 67.62 -98.7374 -109.902 68.7938 -100.836 -111.562 66.7728 
-99.3585 -110.536 66.9193 -98.9434 -109.051 68.0108 -98.4551 -107.846 68.9864 
-101.982 -110.853 66.8346 -100.083 -109.706 66.6287 -99.1657 -108.186 67.1948 
-98.6374 -106.802 68.0994 -97.7856 -106.022 68.6433 -103.188 -110.236 66.8139 
-101.259 -108.736 66.6523 -99.7965 -107.208 66.7544 -98.8576 -105.771 67.2342 
-97.9986 -104.873 67.7999 -97.3219 -104.298 68.4083 -104.315 -109.739 66.7431 
-102.556 -107.93 66.7205 -100.997 -106.313 66.6815 -99.6753 -104.828 66.7801 
-98.553 -103.755 67.1436 -97.8122 -103.14 67.8487 -97.4524 -102.575 68.761 
-105.332 -109.332 66.7485 -103.721 -107.487 66.8357 -102.363 -105.837 66.8021 
-101.142 -104.287 66.7524 -99.865 -102.9 66.8338 -98.8324 -102.054 67.3609 
-98.2414 -101.595 68.2902 -97.8172 -101.169 69.3011 -106.24 -109.055 66.8044 
-104.797 -107.34 67.009 -103.542 -105.788 67.067 -102.565 -104.294 67.0664 
-101.515 -102.667 67.0014 -100.364 -101.368 67.124 -99.4425 -100.748 67.7565 
-98.7892 -100.492 68.7468 -98.2408 -100.288 69.7914 -107.019 -108.945 66.9612 
-105.812 -107.378 67.2292 -104.593 -105.944 67.3999 -103.61 -104.594 67.5555 
-102.768 -103.006 67.5933 -101.826 -101.387 67.4628 -100.834 -100.344 67.5869 
-99.9817 -99.9397 68.2791 -99.3183 -99.8097 69.3167 -98.8312 -99.7409 70.3943 
-98.979 -112.819 69.1678 -98.4669 -111.144 69.3235 -98.3294 -112.269 70.0029 
-98.1307 -109.169 69.559 -97.7958 -110.583 70.0132 -97.7508 -111.754 70.8957 
-97.5326 -107.282 69.4376 -97.2762 -108.727 70.0733 -97.1824 -110.176 70.8708 
-97.2652 -111.393 72.0674 -97.0105 -105.443 69.1555 -96.8037 -106.806 70.1003 
-96.7691 -108.275 71.1233 -96.8053 -109.733 72.2513 -96.8659 -111.037 73.4271 
-97.0051 -103.47 69.357 -96.7473 -104.717 70.3051 -96.6776 -106.189 71.534 
-96.6915 -107.658 72.7035 -96.6827 -109.152 73.784 -96.7586 -110.516 74.8057 
-97.1796 -101.696 69.9323 -96.8129 -102.625 70.7904 -96.7396 -104.061 71.9811 
-96.775 -105.589 73.191 -96.7706 -107.034 74.2596 -96.7523 -108.568 75.3262 
-96.8588 -109.963 76.2642 -97.4129 -100.564 70.4932 -96.8093 -101.068 71.3446 
-96.6474 -102.147 72.4463 -96.7611 -103.652 73.6369 -96.8019 -105.111 74.7482 
-96.7519 -106.552 75.8733 -96.7584 -108.118 76.921 -96.9372 -109.516 77.6139 
-97.9939 -99.9801 71.0783 -97.2164 -100.271 71.9075 -96.7957 -100.885 72.9296 
-96.7998 -102.01 74.0672 -96.8403 -103.394 75.1957 -96.7076 -104.761 76.3376 
-96.6395 -106.21 77.4194 -96.7929 -107.76 78.1769 -97.1453 -109.133 78.5468 
-99.1437 -99.4221 71.586 -98.3993 -99.763 72.3675 -99.6615 -99.0746 72.9059 
-99.0908 -99.5944 73.7935 -100.098 -98.6777 74.2677 -97.7039 -100.176 73.3139 
-99.6175 -99.3903 75.2123 -100.441 -98.3821 75.7612 -98.4615 -100.204 74.7603 
-97.3256 -100.862 74.3967 -99.9788 -99.2333 76.6729 -101.003 -98.4409 77.2408 
-98.9825 -100.202 76.1408 -97.9814 -100.987 75.7949 -97.1932 -101.954 75.5408 
-100.504 -99.2737 78.1368 -101.682 -98.8268 78.4374 -99.39 -100.108 77.6385 
-98.4731 -101.081 77.151 -97.6332 -102.04 76.913 -96.9516 -103.265 76.7205 
-101.085 -99.5041 79.5039 -102.248 -99.2669 79.5979 -99.9167 -100.044 79.2401 
-98.9865 -101.023 78.6878 -98.2113 -102.14 78.2017 -97.3462 -103.286 78.0089 
-96.7383 -104.652 77.8302 -101.699 -99.8937 80.7542 -102.873 -99.7211 80.851 
-100.505 -100.245 80.6324 -99.5116 -101.045 80.2399 -98.8605 -102.211 79.5943 
-98.1823 -103.412 79.0644 -97.3833 -104.684 78.8159 -96.8874 -106.188 78.6025 
-102.495 -100.495 81.7235 -103.616 -100.321 81.8233 -101.314 -100.808 81.6148 
-100.177 -101.435 81.3917 -99.4014 -102.449 80.9097 -98.9507 -103.647 80.2152 
-98.4195 -104.877 79.6057 -97.7792 -106.26 79.2586 -97.3161 -107.772 78.986 
-103.309 -101.247 82.3686 -104.297 -101.033 82.416 -102.278 -101.59 82.2789 
-101.172 -102.127 82.1179 -100.19 -102.936 81.8252 -99.5708 -104.006 81.3074 
-99.1914 -105.204 80.6061 -98.7607 -106.476 79.9833 -98.2463 -107.833 79.5731 
-97.8329 -109.125 79.2111 -99.8025 -99.254 70.5269 -100.136 -98.7974 71.816 
-100.895 -98.7901 70.8694 -101.164 -98.219 72.0712 -102.232 -98.5632 71.3387 
-100.471 -98.2621 73.0753 -102.606 -97.9687 72.3366 -103.743 -98.631 71.7963 
-101.465 -97.6342 73.207 -100.784 -97.7866 74.5235 -104.352 -98.0273 72.6871 
-105.066 -98.9161 72.1802 -103.244 -97.4058 73.4762 -102.081 -97.2736 74.8973 
-101.395 -97.6702 76.297 -105.786 -98.3503 73.0839 -106.186 -99.4109 72.5101 
-105.219 -97.504 73.9163 -104.164 -97.1843 75.3885 -103.021 -97.4007 76.8802 
-102.258 -98.0503 77.7466 -106.881 -99.0259 73.4843 -107.294 -100.138 72.9 
-106.495 -98.0534 74.3442 -105.893 -97.5393 75.7554 -104.873 -97.5209 77.2699 
-103.8 -97.9238 78.1614 -102.954 -98.62 78.7578 -107.873 -99.9883 73.9923 
-108.205 -101.063 73.4211 -107.393 -99.0306 74.7855 -106.883 -98.4147 75.9857 
-106.224 -98.1425 77.3964 -105.348 -98.128 78.4576 -104.42 -98.5031 79.1925 
-103.576 -99.1323 80.0045 -108.656 -101.038 74.5504 -108.825 -102.032 73.9385 
-108.322 -100.094 75.2809 -107.879 -99.4061 76.2592 -107.384 -99.0205 77.4883 
-106.788 -98.7565 78.6778 -106.048 -98.7221 79.6683 -105.183 -99.1098 80.5513 
-104.319 -99.7122 81.2978 -109.278 -101.98 74.9558 -109.418 -102.838 74.2887 
-109.151 -101.056 75.6587 -108.993 -100.221 76.491 -108.709 -99.6874 77.5816 
[...]
CELL_DATA 2000
SCALARS Distance double
LOOKUP_TABLE default
176.808 175.97 176.229 175.854 174.976 175.28 174.834 175.15 174.679 
173.825 174.17 173.652 174.013 173.504 173.853 173.325 172.548 172.928 
172.365 172.745 172.201 172.598 172.081 172.458 171.962 171.176 171.586 
171.01 171.409 170.843 171.255 170.741 171.17 170.694 171.11 170.667 
169.787 170.185 169.612 170.027 169.457 169.875 169.337 169.791 169.305 
169.78 169.318 169.789 169.357 168.496 168.83 168.255 168.639 168.077 
168.481 167.929 168.368 167.861 168.344 167.879 168.378 167.942 168.45 
168.071 167.326 167.602 167.012 167.331 166.758 167.121 166.578 166.983 
166.489 166.928 166.493 166.96 166.581 167.064 166.745 167.244 166.988 
166.219 166.471 165.871 166.136 165.54 165.843 165.299 165.671 165.214 
165.627 165.236 165.663 165.341 165.793 165.547 166.016 165.819 166.292 
166.119 177.224 177.679 177.117 176.442 178.147 177.583 176.862 176.283 
175.508 178.458 177.974 177.214 176.666 175.842 175.262 174.386 178.662 
178.216 177.456 176.938 176.079 175.531 174.621 174.056 173.115 178.828 
178.412 177.668 177.158 176.295 175.734 174.824 174.26 173.313 172.733 
171.756 178.789 178.478 177.714 177.319 176.464 175.949 175.046 174.482 
173.558 172.953 171.966 171.348 170.371 178.575 178.306 177.528 177.246 
176.422 176.035 175.133 174.66 173.738 173.201 172.227 171.597 170.585 
169.976 169.058 178.406 178.101 177.363 177.06 176.294 175.938 175.064 
174.647 173.725 173.29 172.359 171.833 170.844 170.226 169.258 168.699 
167.861 178.243 177.975 177.272 176.965 176.229 175.861 175.021 174.58 
173.682 173.244 172.382 171.931 171.049 170.487 169.546 168.935 168.032 
167.517 166.73 177.856 176.853 177.227 176.91 175.708 176.124 175.81 
176.222 175.847 174.5 174.907 174.507 174.994 174.619 175.061 174.602 
173.07 173.576 173.094 173.618 173.23 173.744 173.327 173.743 173.264 
171.408 171.98 171.503 172.11 171.734 172.33 171.991 172.473 172.057 
172.432 171.987 170.047 170.416 170.008 170.522 170.202 170.807 170.53 
171.117 170.772 171.229 170.772 171.154 170.667 169.209 169.37 169.034 
169.303 169.033 169.418 169.144 169.652 169.325 169.857 169.392 169.849 
169.277 169.712 169.153 168.442 168.639 168.278 168.512 168.185 168.437 
168.051 168.374 167.931 168.374 167.847 168.332 167.698 168.187 167.563 
168.093 167.584 167.438 167.725 167.229 167.585 167.085 167.451 166.875 
167.223 166.578 166.964 166.288 166.728 166.023 166.509 165.856 166.422 
165.93 166.562 166.223 165.374 164.936 164.719 163.955 164.708 164.281 
163.382 163.274 162.595 164.795 164.134 163.038 162.713 161.917 161.908 
161.222 165.084 164.296 163.028 162.432 161.388 161.199 160.381 160.412 
159.592 165.421 164.601 163.251 162.465 161.189 160.71 159.665 159.524 
158.636 158.671 157.893 165.752 164.942 163.577 162.704 161.36 160.631 
159.456 158.969 158.005 157.812 157.105 157.151 156.673 166.041 165.284 
163.982 163.085 161.825 160.973 159.883 159.095 158.133 157.53 156.832 
156.6 156.23 156.258 156.043 166.301 165.612 164.467 163.593 162.483 
161.612 160.704 159.827 158.988 158.083 157.34 156.692 156.271 156.04 
155.896 155.871 155.81 166.613 165.973 165.024 164.207 163.261 162.41 
161.638 160.804 160.113 159.175 158.45 157.521 156.962 156.361 156.141 
155.907 155.908 155.837 155.93 165.4 164.039 164.828 165.047 162.699 
163.46 163.656 164.454 164.682 161.303 162.093 162.23 163.033 163.252 
164.103 164.418 159.665 160.566 160.681 161.555 161.781 162.675 163.05 
163.941 164.365 158.011 158.862 159.048 159.964 160.277 161.218 161.668 
162.604 163.111 163.98 164.438 156.798 157.393 157.644 158.447 158.893 
159.806 160.357 161.277 161.851 162.748 163.296 164.116 164.593 156.085 
156.424 156.603 157.227 157.692 158.555 159.183 160.072 160.688 161.546 
162.156 163.009 163.602 164.364 164.867 155.797 155.9 155.975 156.339 
156.706 157.434 158.078 158.964 159.627 160.462 161.08 161.916 162.563 
163.395 163.995 164.704 165.187 155.951 155.845 155.947 155.975 156.286 
156.653 157.271 157.967 158.699 159.473 160.122 160.894 161.518 162.35 
162.984 163.796 164.35 165.033 165.491 156.225 156.874 156.438 156.266 
157.659 157.237 157.124 156.589 156.582 158.412 158.074 158.128 157.6 
157.597 157.115 157.436 159.297 158.881 159.015 158.601 158.689 158.213 
158.446 158.152 158.719 160.428 159.873 159.944 159.502 159.653 159.254 
159.487 159.156 159.577 159.434 160.064 161.626 161.027 161.04 160.512 
160.651 160.233 160.508 160.161 160.536 160.284 160.807 160.73 161.413 
162.859 162.223 162.231 161.646 161.76 161.292 161.584 161.217 161.617 
161.282 161.754 161.532 162.158 162.116 162.855 164.168 163.508 163.532 
162.891 162.999 162.453 162.729 162.328 162.753 162.409 162.884 162.564 
163.122 162.938 163.618 163.576 164.259 165.414 164.817 164.873 164.248 
164.375 163.767 164.011 163.519 163.917 163.552 164.039 163.715 164.24 
163.967 164.562 164.396 165.021 164.925 165.474 156.369 156.789 156.659 
156.952 157.42 157.094 157.229 157.217 157.56 158.434 157.837 157.765 
157.483 157.691 157.781 158.218 159.685 158.983 158.879 158.257 158.397 
158.112 158.588 158.604 159.214 160.918 160.264 160.273 159.589 159.792 
159.221 159.704 159.355 160.002 159.845 160.483 162.195 161.531 161.599 
160.995 161.263 160.743 161.194 160.725 161.235 160.86 161.393 161.173 
161.716 163.595 162.902 162.982 162.344 162.602 162.126 162.557 162.144 
162.571 162.129 162.536 162.174 162.666 162.429 162.974 164.936 164.321 
164.429 163.783 164.011 163.468 163.881 163.446 163.915 163.452 163.891 
163.416 163.914 163.526 164.089 163.775 164.32 166.079 165.585 165.715 
165.174 165.376 164.859 165.215 164.779 165.255 164.826 165.318 164.846 
165.351 164.894 165.417 165 165.486 165.12 165.565 166.561 166.154 
165.925 165.028 165.876 165.562 164.638 164.333 163.383 165.663 165.32 
164.397 164.029 163.086 162.746 161.852 165.489 165.129 164.217 163.828 
162.88 162.506 161.583 161.269 160.364 165.406 165.004 164.111 163.685 
162.722 162.307 161.329 160.979 160.007 159.706 158.73 165.444 164.995 
164.125 163.643 162.689 162.195 161.216 160.766 159.804 159.397 158.45 
158.084 157.245 165.59 165.113 164.289 163.75 162.855 162.276 161.382 
160.815 159.98 159.419 158.608 158.047 157.312 156.876 156.373 165.816 
165.335 164.591 164.023 163.208 162.579 161.779 161.161 160.454 159.839 
159.17 158.5 157.854 157.227 156.749 156.331 156.1 166.097 165.631 
164.964 164.406 163.652 163.023 162.259 161.645 160.968 160.396 159.767 
159.156 158.524 157.893 157.385 156.869 156.598 156.248 156.148 167.381 
168.478 167.613 167.022 169.631 168.751 168.172 167.308 166.753 170.784 
169.913 169.34 168.479 167.947 167.085 166.551 171.944 171.083 170.548 
169.675 169.176 168.309 167.793 166.897 166.37 173.107 172.285 171.798 
170.922 170.433 169.56 169.056 168.156 167.622 166.731 166.252 174.154 
173.43 172.972 172.162 171.658 170.805 170.276 169.4 168.869 167.99 
167.507 166.661 166.262 175.067 174.416 173.984 173.264 172.781 171.984 
171.452 170.597 170.07 169.218 168.754 167.922 167.518 166.705 166.364 
175.934 175.312 174.908 174.231 173.795 173.064 172.594 171.778 171.283 
170.43 169.975 169.152 168.75 167.948 167.582 166.811 166.518 176.728 
176.167 175.782 175.145 174.729 174.056 173.642 172.911 172.472 171.66 
171.204 170.373 169.951 169.152 168.771 168.004 167.68 166.966 166.73 
177.009 177.114 176.749 176.084 177.232 176.839 176.148 175.758 175.041 
177.366 176.952 176.22 175.809 175.069 174.69 173.966 177.45 177.052 
176.286 175.869 175.093 174.704 173.952 173.592 172.829 177.476 177.091 
176.317 175.911 175.114 174.713 173.921 173.549 172.751 172.39 171.577 
177.481 177.104 176.333 175.931 175.14 174.729 173.922 173.515 172.688 
172.296 171.46 171.101 170.306 177.485 177.118 176.369 175.961 175.178 
174.759 173.958 173.532 172.71 172.273 171.434 171.014 170.204 169.855 
169.12 177.505 177.151 176.444 176.029 175.256 174.813 174.006 173.571 
172.755 172.32 171.49 171.042 170.22 169.804 169.045 168.711 168.039 
177.507 177.192 176.526 176.132 175.382 174.921 174.109 173.638 172.81 
172.363 171.533 171.095 170.266 169.841 169.061 168.683 167.997 167.688 
167.094 177.261 176.478 176.705 176.286 175.483 175.823 175.4 175.636 
175.126 174.296 174.726 174.312 174.646 174.131 174.375 173.819 173.033 
173.491 173.105 173.496 173.004 173.305 172.732 173.003 172.466 171.726 
172.206 171.808 172.249 171.76 172.124 171.533 171.841 171.248 171.602 
171.117 170.3 170.83 170.389 170.886 170.383 170.816 170.225 170.579 
169.947 170.308 169.77 170.225 169.812 168.827 169.356 168.941 169.444 
168.986 169.428 168.903 169.268 168.684 169.009 168.465 168.864 168.452 
168.946 168.621 167.473 167.936 167.578 168.053 167.66 168.09 167.632 
168.004 167.494 167.81 167.297 167.626 167.212 167.639 167.346 167.834 
167.588 166.301 166.679 166.308 166.745 166.34 166.78 166.316 166.738 
166.245 166.63 166.131 166.483 166.042 166.442 166.132 166.609 166.394 
166.885 166.7 177.71 178.077 177.57 176.894 178.367 177.857 177.114 
176.658 175.901 178.625 178.1 177.316 176.84 176.037 175.554 174.706 
178.847 178.347 177.544 177.038 176.166 175.641 174.701 174.249 173.381 
178.874 178.495 177.649 177.198 176.213 175.686 174.607 174.148 173.193 
172.879 172.05 178.592 178.359 177.463 177.132 176.067 175.598 174.411 
173.948 172.906 172.611 171.755 171.508 170.654 178.125 177.958 177.076 
176.814 175.792 175.376 174.215 173.719 172.638 172.288 171.409 171.171 
170.312 170.042 169.159 177.636 177.484 176.666 176.425 175.512 175.142 
174.103 173.592 172.518 172.059 171.13 170.83 169.982 169.703 168.832 
168.558 167.763 177.168 177.033 176.272 176.057 175.221 174.918 173.989 
173.545 172.513 171.996 171.002 170.594 169.733 169.422 168.609 168.298 
167.524 167.262 166.595 178.27 179.356 178.819 178.766 180.491 180.013 
180.089 179.379 179.2 181.552 181.155 181.405 180.818 180.743 179.836 
179.528 182.653 182.197 182.47 182.074 182.168 181.424 181.11 180.12 
179.719 183.765 183.285 183.392 183.032 183.136 182.667 182.426 181.612 
181.093 180.188 179.696 184.396 184.164 184.12 183.828 183.772 183.441 
183.194 182.649 182.112 181.371 180.747 179.977 179.388 184.404 184.422 
184.328 184.258 184.097 183.903 183.585 183.207 182.67 182.121 181.468 
180.835 180.182 179.504 178.875 184.264 184.292 184.218 184.235 184.086 
184.017 183.699 183.461 182.942 182.53 181.897 181.384 180.733 180.163 
179.527 178.916 178.317 184.263 184.24 184.23 184.18 184.076 183.964 
183.677 183.48 183.013 182.714 182.139 181.734 181.121 180.632 180.016 
179.48 178.887 178.335 177.789 184.294 184.368 184.347 184.306 184.187 
184.342 184.285 184.27 184.09 183.533 183.905 183.813 184.038 183.766 
183.833 183.532 182.601 183.02 182.893 183.315 183.059 183.285 182.902 
183.082 182.761 181.686 182.032 181.875 182.318 182.143 182.462 182.123 
182.336 181.979 182.224 181.903 180.767 181.111 180.914 181.332 181.171 
181.54 181.244 181.508 181.142 181.4 181.054 181.312 180.935 179.749 
180.148 179.926 180.349 180.123 180.529 180.207 180.554 180.175 180.499 
180.131 180.428 180.035 180.285 179.855 178.701 179.116 178.902 179.313 
179.038 179.426 179.071 179.446 179.081 179.463 179.118 179.462 179.08 
179.357 178.929 179.177 178.745 177.717 178.109 177.91 178.288 178.004 
178.343 177.984 178.324 177.989 178.37 178.075 178.441 178.097 178.392 
177.98 178.241 177.822 178.079 177.674 177.125 176.203 176.895 177.289 
175.039 175.858 176.245 176.982 177.319 173.695 174.583 174.982 175.824 
176.183 176.941 177.267 172.353 173.218 173.645 174.52 174.952 175.774 
176.183 176.918 177.3 171.087 171.921 172.359 173.218 173.687 174.546 
175.012 175.828 176.266 177.003 177.397 169.812 170.664 171.1 171.961 
172.412 173.278 173.718 174.593 175.016 175.873 176.261 177.048 177.382 
168.543 169.377 169.82 170.691 171.136 171.996 172.415 173.27 173.671 
174.541 174.93 175.792 176.149 176.952 177.255 167.437 168.165 168.601 
169.423 169.879 170.721 171.153 171.987 172.404 173.233 173.639 174.466 
174.858 175.679 176.039 176.813 177.12 166.521 167.143 167.536 168.267 
168.702 169.493 169.924 170.743 171.174 172.002 172.421 173.23 173.62 
174.421 174.796 175.595 175.945 176.697 176.995 176.676 175.595 176.028 
175.759 174.414 174.862 174.551 175.015 174.692 173.225 173.644 173.277 
173.736 173.374 173.866 173.466 172.021 172.436 172.029 172.451 172.03 
172.494 172.044 172.524 172.016 170.746 171.174 170.733 171.172 170.712 
171.148 170.641 171.074 170.533 170.994 170.497 169.475 169.866 169.369 
169.807 169.308 169.773 169.243 169.675 169.117 169.542 169.056 169.55 
169.194 168.271 168.612 168.074 168.44 167.886 168.316 167.761 168.223 
167.675 168.137 167.66 168.154 167.798 168.344 168.072 167.134 167.433 
166.882 167.182 166.592 166.931 166.348 166.748 166.198 166.663 166.192 
166.728 166.37 166.946 166.665 167.244 167.008 166.131 166.351 165.789 
166.021 165.417 165.689 165.106 165.426 164.884 165.254 164.774 165.247 
164.881 165.468 165.205 165.826 165.621 166.223 166.073 178.915 179.152 
179.394 180.063 179.375 179.647 180.404 180.578 181.183 179.539 179.856 
180.616 180.892 181.556 181.673 182.219 179.481 179.882 180.553 180.969 
181.652 181.963 182.593 182.733 183.303 179.315 179.718 180.366 180.799 
181.513 181.949 182.684 183.017 183.655 183.802 184.231 179.165 179.576 
180.304 180.691 181.479 181.868 182.664 183.044 183.701 183.98 184.345 
184.45 184.534 178.83 179.364 180.086 180.615 181.377 181.855 182.554 
182.976 183.512 183.859 184.14 184.349 184.375 184.456 184.377 178.291 
178.878 179.488 180.163 180.783 181.469 181.979 182.587 182.934 183.439 
183.655 184.01 184.1 184.256 184.247 184.287 184.269 177.785 178.29 
178.815 179.426 179.945 180.628 181.052 181.718 182.008 182.617 182.864 
183.398 183.649 183.995 184.162 184.257 184.308 184.28 184.287 178.938 
180.069 179.422 179.229 181.154 180.555 180.397 179.718 179.515 182.199 
181.623 181.54 180.913 180.778 180.059 179.845 183.295 182.704 182.658 
182.07 182.017 181.353 181.139 180.35 179.946 184.187 183.75 183.615 
183.114 182.992 182.483 182.251 181.571 181.062 180.226 179.558 184.5 
184.372 184.161 183.841 183.536 183.188 182.856 182.428 181.901 181.214 
180.467 179.647 178.922 184.413 184.458 184.35 184.182 183.865 183.54 
183.139 182.803 182.335 181.86 181.196 180.489 179.748 179.001 178.402 
184.318 184.372 184.41 184.343 184.186 183.877 183.524 183.111 182.696 
182.256 181.722 181.138 180.459 179.777 179.14 178.513 178.024 184.29 
184.332 184.402 184.427 184.378 184.203 183.911 183.541 183.112 182.68 
182.179 181.662 181.029 180.412 179.747 179.158 178.609 178.102 177.659 
178.257 178.495 178.007 177.233 178.773 178.242 177.471 176.95 176.154 
179.082 178.555 177.799 177.246 176.467 175.895 175.043 179.133 178.774 
177.973 177.525 176.675 176.169 175.232 174.677 173.628 178.735 178.59 
177.744 177.485 176.521 176.158 175.103 174.682 173.561 173.061 171.931 
178.159 178.061 177.272 177.1 176.175 175.855 174.818 174.43 173.411 
172.963 171.964 171.432 170.54 177.73 177.567 176.875 176.679 175.915 
175.584 174.711 174.266 173.427 172.96 172.189 171.64 170.874 170.305 
169.652 177.436 177.252 176.608 176.394 175.725 175.442 174.703 174.304 
173.542 173.11 172.405 171.951 171.232 170.704 169.97 169.487 168.847 
177.129 176.984 176.35 176.157 175.496 175.278 174.586 174.295 173.54 
173.187 172.413 172.063 171.295 170.918 170.125 169.705 168.939 168.564 
167.871 178.135 178.163 178.477 179.149 178.193 178.516 179.2 179.518 
180.203 178.237 178.581 179.32 179.616 180.322 180.592 181.277 178.23 
178.612 179.383 179.747 180.526 180.806 181.57 181.771 182.502 178.172 
178.567 179.287 179.72 180.479 180.921 181.722 182.091 182.87 183.08 
183.711 178.053 178.461 179.132 179.563 180.247 180.73 181.455 182.006 
182.754 183.251 183.844 184.095 184.381 177.876 178.284 178.938 179.379 
180.072 180.51 181.203 181.665 182.364 182.902 183.519 183.965 184.279 
184.445 184.442 177.718 178.087 178.711 179.154 179.875 180.352 181.098 
181.511 182.196 182.586 183.215 183.61 184.053 184.276 184.394 184.394 
184.328 177.585 177.93 178.511 178.923 179.61 180.12 180.875 181.376 
182.047 182.455 183.018 183.388 183.852 184.122 184.355 184.403 184.401 
184.326 184.285 
POINT_DATA 1002
SCALARS Distance double
LOOKUP_TABLE default
176.501 177.332 176.593 175.597 175.724 175.467 174.521 174.687 174.389 
174.185 173.305 173.488 173.135 172.992 172.802 171.994 172.164 171.8 
171.673 171.583 171.505 170.602 170.765 170.437 170.297 170.256 170.245 
170.253 169.192 169.407 169.045 168.894 168.823 168.84 168.871 168.949 
167.894 168.188 167.682 167.508 167.389 167.372 167.426 167.532 167.735 
166.727 167.066 166.418 166.176 166.054 166.026 166.083 166.237 166.467 
166.764 165.621 165.971 165.266 164.937 164.787 164.803 164.881 165.062 
165.346 165.646 165.947 177.748 177.013 178.277 177.46 178.706 176.114 
177.759 178.911 176.426 174.988 177.981 179.096 176.632 175.182 173.697 
178.161 179.23 176.865 175.39 173.904 172.34 178.047 179.091 176.936 
175.596 174.155 172.619 170.941 177.782 178.856 176.758 175.576 174.231 
172.831 171.235 169.581 177.668 178.697 176.643 175.483 174.136 172.811 
171.437 169.863 168.331 177.562 178.472 176.587 175.459 174.123 172.789 
171.548 170.165 168.612 167.155 177.537 176.583 176.441 175.351 175.335 
175.499 174.038 174.13 174.134 174.227 172.563 172.519 172.683 172.875 
172.883 170.863 170.847 171.085 171.435 171.664 171.626 169.542 169.756 
169.622 169.903 170.255 170.402 170.292 168.816 169.059 168.748 168.733 
168.803 168.922 168.859 168.684 168.045 168.224 167.976 167.834 167.591 
167.403 167.22 167.021 166.987 166.91 167.182 166.736 166.548 166.247 
165.9 165.563 165.288 165.261 165.544 164.609 164.006 163.255 163.579 
162.564 161.973 163.538 161.999 161.196 160.503 163.79 161.762 160.41 
159.542 158.733 164.118 161.848 159.963 158.627 157.742 157.207 164.466 
162.151 160.088 158.323 157.07 156.508 156.311 164.842 162.642 160.686 
158.88 157.204 156.227 155.96 155.863 165.261 163.3 161.512 159.919 
158.17 156.652 155.94 155.793 155.779 165.751 164.064 162.422 160.984 
159.438 157.743 156.495 155.992 155.943 156.071 164.255 162.873 163.844 
161.438 162.385 163.531 159.76 160.847 162.113 163.508 158.097 159.289 
160.699 162.196 163.633 156.881 157.961 159.436 160.943 162.42 163.84 
156.088 156.848 158.275 159.846 161.282 162.775 164.196 155.754 156.089 
157.187 158.778 160.265 161.699 163.221 164.573 156.006 156.086 156.689 
157.941 159.383 160.724 162.137 163.599 164.882 156.603 156.709 157.315 
157.693 157.974 156.975 158.559 158.71 158.137 157.683 159.38 159.805 
159.111 158.824 158.836 160.437 161.045 160.021 159.831 159.811 160.088 
161.605 162.231 161.084 160.852 160.845 160.956 161.382 162.838 163.512 
162.255 161.946 161.96 162.049 162.261 162.834 164.177 164.818 163.584 
163.162 163.082 163.221 163.386 163.724 164.3 165.459 165.967 164.986 
164.557 164.316 164.356 164.542 164.796 165.169 165.595 156.436 156.942 
156.993 157.352 157.919 157.398 158.243 159.142 157.704 157.976 159.568 
160.349 158.831 158.663 159.13 160.879 161.529 160.375 160.178 160.279 
160.602 162.186 162.872 161.735 161.684 161.725 161.705 161.875 163.649 
164.266 163.114 162.961 163.03 162.96 162.945 163.183 165.05 165.495 
164.589 164.333 164.351 164.369 164.346 164.453 164.633 166.213 166.532 
165.885 165.657 165.656 165.762 165.826 165.885 165.917 165.91 166.754 
165.272 166.438 164.98 166.213 163.665 164.77 166.01 163.443 162.153 
164.61 165.851 163.273 161.926 160.672 164.553 165.816 163.174 161.723 
160.342 159.01 164.62 165.898 163.206 161.692 160.235 158.84 157.502 
164.822 166.051 163.428 161.934 160.522 159.185 157.804 156.635 165.134 
166.266 163.82 162.378 161.029 159.814 158.516 157.247 156.371 168.21 
167.879 169.348 169.029 170.519 167.612 170.195 171.641 168.799 167.434 
171.418 172.778 170.037 168.696 167.251 172.663 173.886 171.316 169.951 
168.524 167.093 173.745 174.835 172.511 171.151 169.729 168.356 167.075 
174.671 175.699 173.541 172.294 170.914 169.571 168.338 167.145 175.571 
176.536 174.485 173.362 172.131 170.808 169.551 168.365 167.239 176.397 