# vtk DataFile Version 4.0
vtk output
ASCII
DATASET POLYDATA
POINTS 1002 float
-105.57 -120.533 77.5289 -106.009 -121.779 77.1254 -105.88 -121.013 76.4988 
-105.215 -119.879 76.8873 -105.722 -120.144 75.8806 -104.804 -119.419 77.9897 
-104.778 -119.146 76.1856 -105.4 -119.265 75.157 -104.258 -118.806 77.2827 
-103.876 -118.251 78.4861 -104.29 -118.219 75.3658 -104.906 -118.352 74.3883 
-103.74 -117.937 76.4853 -103.376 -117.386 77.6954 -103.111 -116.788 79.0294 
-103.836 -117.102 74.5732 -104.436 -117.335 73.6717 -103.315 -116.812 75.6973 
-102.864 -116.362 76.8751 -102.541 -115.847 78.2331 -102.255 -115.387 79.6146 
-103.374 -116.029 73.8082 -104.074 -116.269 72.9932 -102.874 -115.732 74.9682 
-102.281 -115.444 76.16 -101.738 -115.135 77.4184 -101.357 -114.793 78.8858 
-101.114 -114.33 80.1241 -102.802 -115.112 73.0608 -103.746 -115.212 72.4791 
-102.237 -114.87 74.1211 -101.632 -114.64 75.4067 -100.914 -114.486 76.6071 
-100.471 -114.272 77.9941 -100.235 -113.882 79.4254 -100.204 -113.29 80.4967 
-102.296 -114.131 72.5588 -103.475 -114.093 72.2191 -101.562 -113.987 73.3188 
-101.079 -113.69 74.5426 -100.427 -113.457 75.7657 -99.9714 -113.268 76.992 
-99.8296 -112.981 78.4384 -99.7425 -112.541 79.7773 -99.8243 -112.001 80.8383 
-102.065 -112.962 72.2815 -103.286 -112.939 72.006 -101.181 -112.849 72.8189 
-100.776 -112.494 73.8401 -100.352 -112.098 75.0361 -99.9107 -111.803 76.1225 
-99.7958 -111.523 77.3654 -99.7608 -111.207 78.7826 -99.6815 -110.868 80.068 
-99.7351 -110.526 81.192 -102.031 -111.802 71.9939 -103.111 -111.914 71.68 
-101.121 -111.592 72.4806 -100.663 -111.185 73.3366 -100.372 -110.723 74.448 
-99.9819 -110.359 75.4812 -99.7829 -110.022 76.5065 -99.8061 -109.668 77.7599 
-99.7752 -109.384 79.0923 -99.7159 -109.19 80.3255 -99.7232 -109.039 81.4767 
-106.373 -122.563 76.3245 -106.345 -121.654 75.6632 -107.003 -123.135 75.4255 
-106.902 -122.248 74.6814 -107.838 -123.394 74.3797 -106.304 -120.58 74.9951 
-107.572 -122.601 73.6417 -108.811 -123.339 73.4567 -106.811 -121.109 73.997 
-106.04 -119.566 74.2942 -108.568 -122.417 72.8638 -110.011 -122.944 72.9338 
-107.385 -121.429 72.9519 -106.581 -119.995 73.3241 -105.587 -118.624 73.5997 
-109.904 -121.798 72.3243 -111.239 -122.39 72.4137 -108.332 -121.241 72.0445 
-107.137 -120.302 72.1195 -106.246 -118.976 72.5807 -105.225 -117.559 72.8985 
-111.073 -121.323 71.5547 -112.093 -122.047 71.4694 -109.533 -120.853 71.3188 
-107.928 -120.345 71.03 -106.802 -119.287 71.2639 -105.993 -117.789 71.8622 
-105.023 -116.334 72.2967 -111.833 -121.097 70.5618 -112.688 -121.836 70.4493 
-110.565 -120.555 70.5789 -108.977 -120.153 70.3744 -107.536 -119.353 70.2922 
-106.567 -117.969 70.7282 -105.841 -116.4 71.4489 -104.84 -115.067 71.9889 
-112.491 -120.685 69.7825 -113.357 -121.385 69.7503 -111.363 -120.119 69.8149 
-110.015 -119.687 69.8006 -108.623 -119.002 69.7561 -107.38 -117.864 69.9553 
-106.448 -116.466 70.576 -105.656 -115.038 71.3368 -104.599 -113.827 71.8349 
-113.213 -120.008 69.2956 -114.086 -120.704 69.2754 -112.092 -119.467 69.1943 
-110.841 -119.075 69.1009 -109.638 -118.469 69.1264 -108.456 -117.498 69.3258 
-107.281 -116.37 69.8113 -106.276 -115.119 70.5489 -105.365 -113.798 71.221 
-104.294 -112.7 71.5723 -114.22 -119.546 68.8618 -113.124 -118.909 68.7554 
-114.095 -118.526 68.3172 -112.791 -118.059 67.9888 -113.73 -117.537 67.6398 
-111.782 -118.55 68.4629 -112.405 -117.012 67.1986 -113.303 -116.147 67.0299 
-111.371 -117.711 67.6782 -110.481 -118.103 68.3435 -112.201 -115.313 66.7968 
-112.943 -114.642 66.9045 -111.118 -116.305 67.2671 -110.09 -116.961 67.8475 
-109.348 -117.2 68.5614 -112.03 -113.736 67.178 -112.636 -113.562 67.5768 
-111.056 -114.398 67.471 -109.832 -115.318 67.9301 -108.942 -115.853 68.3652 
-108.183 -116.102 69.0536 -111.631 -112.668 68.2407 -112.291 -112.395 68.6396 
-110.781 -112.968 68.2151 -109.622 -113.582 68.4264 -108.57 -114.266 68.6145 
-107.761 -114.7 69.0428 -106.953 -114.953 69.7892 -111.058 -111.273 69.2475 
-111.801 -110.762 69.4633 -110.189 -111.71 69.0696 -109.179 -112.113 69.0106 
-108.214 -112.569 69.0577 -107.367 -113.023 69.2989 -106.521 -113.382 69.8435 
-105.824 -113.614 70.5558 -110.449 -109.561 69.8718 -111.161 -109.272 70.071 
-109.583 -109.953 69.6391 -108.605 -110.369 69.4597 -107.718 -110.768 69.471 
-106.939 -111.195 69.6761 -106.068 -111.659 70.01 -105.256 -112.057 70.4697 
-104.725 -112.362 71.0351 -109.859 -108.269 70.4496 -110.513 -108.307 70.7411 
-109.075 -108.305 70.1271 -108.119 -108.481 69.8771 -107.164 -108.818 69.8542 
-106.354 -109.31 70.0316 -105.517 -109.937 70.2342 -104.64 -110.575 70.4317 
-103.996 -111.072 70.7539 -103.57 -111.47 71.2194 -102.31 -110.862 71.5129 
-102.712 -110.375 71.0381 -101.667 -109.518 71.5413 -103.157 -109.779 70.6498 
-102.03 -108.81 71.0781 -101.292 -107.657 71.8425 -103.872 -108.942 70.464 
-102.508 -107.806 70.6405 -101.712 -106.549 71.3041 -101.079 -105.58 72.1787 
-104.79 -108.038 70.4417 -103.264 -106.692 70.4494 -102.289 -105.291 70.6657 
-101.629 -104.359 71.5267 -100.791 -103.839 72.3995 -105.719 -107.381 70.4344 
-104.22 -105.967 70.6741 -103.149 -104.482 70.5053 -102.443 -103.451 70.8684 
-101.549 -102.927 71.8711 -100.527 -102.298 72.7062 -106.75 -107.084 70.4329 
-105.294 -105.806 71.0481 -104.192 -104.429 71.0643 -103.552 -103.232 70.9134 
-102.74 -102.469 71.5078 -101.587 -101.636 72.4692 -100.661 -100.678 73.1601 
-107.847 -107.095 70.5995 -106.482 -105.988 71.3143 -105.306 -104.747 71.7197 
-104.653 -103.407 71.5879 -104.061 -102.308 71.6904 -103.02 -101.235 72.3499 
-101.907 -100.083 73.0345 -101.204 -99.3419 73.6009 -108.781 -107.275 70.9471 
-107.615 -106.255 71.5773 -106.467 -105.021 72.0824 -105.659 -103.541 72.1851 
-105.108 -102.154 72.203 -104.297 -100.909 72.5328 -103.24 -99.6711 72.9946 
-102.377 -98.7861 73.4436 -101.835 -98.5221 74.0732 -109.536 -107.455 71.3128 
-108.568 -106.436 71.8803 -107.591 -105.143 72.3069 -106.717 -103.589 72.4988 
-106.028 -102.054 72.6384 -105.286 -100.731 72.9369 -104.351 -99.506 73.2618 
-103.471 -98.5 73.5238 -102.827 -98.0062 73.9585 -102.35 -97.966 74.7301 
-101.389 -110.492 71.9945 -100.954 -108.821 72.2149 -100.722 -109.96 72.724 
-100.617 -106.885 72.5508 -100.312 -108.118 73.0061 -100.305 -109.407 73.7263 
-100.235 -105.022 72.7768 -99.7707 -106.299 73.1905 -99.6662 -107.637 73.9419 
-99.8759 -109.012 74.81 -99.8635 -103.239 72.9795 -99.3451 -104.498 73.4042 
-99.0361 -105.881 74.1667 -99.1858 -107.293 75.0944 -99.5676 -108.655 75.8683 
-99.8447 -101.384 73.3755 -99.3176 -102.564 73.8485 -98.9229 -104.01 74.7093 
-98.8187 -105.45 75.6524 -99.1489 -106.824 76.4064 -99.5945 -108.198 77.0585 
-100.322 -99.8863 73.9205 -99.7077 -100.824 74.4662 -99.2719 -102.166 75.3941 
-98.9774 -103.628 76.3944 -99.0392 -104.999 77.105 -99.4086 -106.35 77.686 
-99.7177 -107.815 78.3626 -101.006 -99.0447 74.5452 -100.291 -99.7402 75.1796 
-99.7484 -100.705 76.041 -99.3395 -101.985 76.9889 -99.1978 -103.39 77.7026 
-99.4064 -104.756 78.2414 -99.6827 -106.142 78.8882 -99.7693 -107.649 79.6425 
-101.615 -98.4792 75.2885 -100.876 -99.0902 75.9917 -100.229 -99.7418 76.7679 
-99.7164 -100.619 77.5719 -99.4327 -101.873 78.268 -99.5017 -103.337 78.8228 
-99.745 -104.763 79.4253 -99.8425 -106.155 80.165 -99.7731 -107.61 80.9042 
-102.351 -97.6601 75.9732 -101.637 -98.2346 76.71 -102.391 -97.2893 77.4553 
-101.794 -97.9746 78.2376 -102.608 -97.2179 78.9064 -100.929 -98.8946 77.5014 
-102.172 -98.1464 79.6699 -102.966 -97.5861 80.3628 -101.174 -98.8241 79.0231 
-100.28 -99.5613 78.2749 -102.54 -98.5861 81.1277 -103.284 -97.9033 81.9067 
-101.555 -99.1664 80.4911 -100.486 -99.6066 79.8591 -99.7852 -100.483 79.0317 
-102.778 -98.8146 82.6178 -103.596 -98.1771 83.2717 -101.83 -99.5115 81.9486 
-100.71 -99.9268 81.4538 -99.9318 -100.578 80.761 -99.6286 -101.893 79.7246 
-103.094 -99.2302 83.9044 -104.027 -98.9052 84.277 -102.136 -99.7848 83.3347 
-100.971 -100.291 82.8407 -100.047 -100.902 82.4292 -99.7519 -102.084 81.571 
-99.7776 -103.54 80.3698 -103.537 -100.077 84.9023 -104.529 -99.8627 85.0831 
-102.603 -100.434 84.5711 -101.518 -100.888 84.0442 -100.424 -101.479 83.6308 
-99.8159 -102.475 83.1705 -99.7798 -103.819 82.2176 -99.8776 -105.082 81.062 
-104.016 -100.897 85.7162 -105.034 -100.604 85.8515 -103.061 -101.253 85.5884 
-102.124 -101.686 85.1903 -101.162 -102.271 84.6193 -100.296 -103.11 84.1967 
-99.8041 -104.226 83.6804 -99.7366 -105.432 82.7913 -99.7904 -106.555 81.7774 
-104.548 -101.544 86.4498 -105.529 -101.195 86.5973 -103.533 -101.938 86.3816 
-102.56 -102.371 86.1689 -101.769 -102.971 85.6358 -101.087 -103.797 85.0475 
-100.364 -104.782 84.6063 -99.8273 -105.863 84.0754 -99.6802 -106.969 83.2869 
-99.718 -108.034 82.3628 -103.088 -97.4657 75.0424 -103.101 -97.0626 76.3924 
-103.977 -97.2782 75.6292 -104.121 -96.8844 76.9716 -105.184 -97.4095 76.3388 
-103.183 -96.7676 77.8948 -105.606 -96.959 77.5599 -106.573 -97.5783 76.9202 
-104.421 -96.7259 78.4061 -103.466 -96.9061 79.4113 -107.212 -97.0191 78.0326 
-107.777 -97.866 77.3529 -106.245 -96.7589 78.9099 -104.948 -96.9031 79.999 
-103.893 -97.2426 81.0605 -108.419 -97.4267 78.4057 -108.833 -98.5204 77.7102 
-107.91 -96.8606 79.3334 -106.902 -96.9048 80.5282 -105.504 -97.0929 81.7141 
-104.327 -97.4475 82.6297 -109.448 -98.2577 78.7197 -109.942 -99.2972 78.021 
-108.935 -97.5171 79.6717 -108.303 -97.2768 80.8976 -107.273 -97.2559 82.1148 
-105.949 -97.4192 83.0806 -104.8 -98.0024 83.7714 -110.541 -99.1002 79.0601 
-110.883 -100.057 78.3871 -109.935 -98.4237 80.0042 -109.199 -98.1253 81.2027 
-108.44 -97.9454 82.3493 -107.506 -97.9084 83.2858 -106.383 -98.3026 84.0662 
-105.329 -99.0377 84.6487 -111.405 -99.9901 79.435 -111.538 -100.931 78.7934 
-111.035 -99.2748 80.3523 -110.335 -98.9348 81.5312 -109.505 -98.7633 82.6349 
-108.712 -98.6681 83.4894 -107.848 -98.8837 84.295 -106.837 -99.3821 85.0229 
-105.84 -99.9637 85.5063 -112.043 -100.965 79.7076 -112.184 -101.782 79.0798 
-111.839 -100.238 80.5974 -111.428 -99.7463 81.7643 -110.756 -99.4687 82.9177 
[...]
CELL_DATA 2000
SCALARS Distance double
LOOKUP_TABLE default
177.331 176.415 176.71 176.353 175.379 175.729 175.34 175.669 175.273 
174.175 174.585 174.147 174.551 174.099 174.491 174.072 172.879 173.291 
172.815 173.261 172.78 173.215 172.769 173.234 172.857 171.602 171.967 
171.48 171.916 171.466 171.884 171.451 171.901 171.556 172.047 171.719 
170.39 170.687 170.166 170.594 170.167 170.602 170.176 170.607 170.263 
170.763 170.495 170.961 170.652 169.278 169.49 168.896 169.274 168.825 
169.29 168.856 169.307 168.909 169.435 169.165 169.725 169.474 169.936 
169.662 168.262 168.406 167.751 168.029 167.542 167.961 167.549 167.979 
167.562 168.041 167.728 168.326 168.104 168.691 168.451 168.961 168.742 
167.319 167.426 166.755 166.936 166.41 166.739 166.343 166.734 166.346 
166.744 166.394 166.9 166.659 167.266 167.061 167.66 167.454 168.027 
167.863 177.777 178.161 177.607 176.866 178.478 177.963 177.182 176.638 
175.837 178.685 178.222 177.443 176.918 176.082 175.545 174.676 178.876 
178.402 177.61 177.114 176.279 175.772 174.908 174.349 173.436 179.071 
178.594 177.746 177.236 176.365 175.903 175.065 174.577 173.694 173.111 
172.19 179.13 178.737 177.893 177.379 176.472 175.968 175.108 174.667 
173.83 173.346 172.463 171.89 171.005 179.021 178.716 177.946 177.516 
176.663 176.134 175.248 174.727 173.87 173.415 172.592 172.126 171.297 
170.749 169.922 178.854 178.576 177.831 177.505 176.71 176.298 175.437 
174.917 174.015 173.49 172.653 172.211 171.45 171.003 170.227 169.695 
168.906 178.678 178.404 177.636 177.341 176.545 176.241 175.42 175.029 
174.15 173.657 172.794 172.316 171.553 171.129 170.399 169.945 169.178 
168.672 167.921 178.335 177.396 177.664 177.24 176.331 176.649 176.182 
176.504 176.106 175.055 175.491 175.033 175.406 174.973 175.351 174.971 
173.683 174.127 173.725 174.194 173.776 174.182 173.757 174.167 173.738 
172.708 172.897 172.511 172.893 172.536 172.949 172.532 172.933 172.5 
172.894 172.444 172.122 172.167 171.721 171.875 171.489 171.767 171.361 
171.713 171.288 171.674 171.248 171.625 171.212 171.293 171.505 170.961 
171.133 170.589 170.791 170.27 170.562 170.08 170.454 169.995 170.403 
169.965 170.397 170.008 170.156 170.451 169.822 170.121 169.428 169.725 
169.048 169.391 168.806 169.203 168.682 169.099 168.606 169.063 168.63 
169.143 168.767 169.204 169.337 168.688 168.878 168.146 168.398 167.665 
168.019 167.39 167.835 167.295 167.745 167.233 167.677 167.221 167.718 
167.345 167.882 167.542 166.72 166.492 166.206 165.431 166.31 165.953 
165.096 164.859 164.086 166.243 165.775 164.756 164.433 163.521 163.411 
162.672 166.262 165.722 164.575 164.076 162.981 162.75 161.95 161.982 
161.368 166.367 165.778 164.697 164.033 162.931 162.378 161.57 161.373 
160.889 160.852 160.358 166.697 166.027 165.151 164.41 163.545 162.73 
162.04 161.433 161.065 160.718 160.39 160.068 159.6 167.294 166.577 
165.897 165.141 164.52 163.666 163.099 162.288 161.903 161.287 160.965 
160.415 159.967 159.475 159.087 167.99 167.328 166.782 166.067 165.544 
164.752 164.186 163.386 162.87 162.197 161.738 161.122 160.592 159.987 
159.508 159.1 158.922 168.638 168.074 167.608 166.978 166.466 165.745 
165.125 164.357 163.724 163.036 162.482 161.857 161.305 160.656 160.133 
159.59 159.308 159.047 159.072 166.589 165.323 165.968 166.028 164.032 
164.697 164.774 165.459 165.661 162.702 163.388 163.459 164.18 164.4 
165.195 165.547 161.407 162.051 162.088 162.811 162.988 163.856 164.233 
165.129 165.536 160.24 160.773 160.767 161.439 161.589 162.416 162.801 
163.75 164.245 165.134 165.594 159.32 159.669 159.648 160.213 160.449 
161.152 161.594 162.415 162.986 163.865 164.446 165.285 165.844 158.848 
158.955 158.988 159.332 159.69 160.241 160.792 161.441 162.05 162.772 
163.402 164.196 164.829 165.638 166.249 158.854 158.794 158.929 159.016 
159.397 159.728 160.291 160.804 161.412 162.008 162.627 163.298 163.953 
164.69 165.35 166.1 166.707 159.117 159.025 159.239 159.203 159.534 
159.642 160.084 160.403 160.937 161.432 162.042 162.641 163.317 163.959 
164.651 165.306 165.96 166.612 167.195 159.347 159.828 159.562 159.546 
160.488 160.135 160.161 159.837 159.861 161.488 160.973 161.015 160.556 
160.569 160.198 160.313 162.664 162.112 162.155 161.574 161.551 161.005 
161.06 160.739 161.043 163.74 163.244 163.271 162.735 162.681 162.078 
162.077 161.603 161.876 161.637 162.141 164.857 164.3 164.328 163.796 
163.758 163.179 163.177 162.677 162.944 162.617 163.136 162.899 163.477 
166.12 165.497 165.557 164.945 164.978 164.324 164.368 163.8 164.068 
163.712 164.226 163.977 164.545 164.282 164.814 167.333 166.757 166.818 
166.241 166.323 165.673 165.76 165.109 165.342 164.869 165.319 165.032 
165.569 165.331 165.837 165.583 166.074 168.424 167.903 167.951 167.441 
167.517 166.976 167.07 166.504 166.701 166.19 166.545 166.148 166.607 
166.315 166.802 166.561 167.039 166.806 167.275 159.416 159.87 159.654 
159.851 160.787 160.278 160.365 160.154 160.484 162.038 161.378 161.406 
160.901 161.158 160.952 161.47 163.284 162.666 162.748 162.147 162.386 
161.902 162.324 162.099 162.67 164.489 163.89 164.035 163.511 163.821 
163.298 163.661 163.172 163.581 163.305 163.795 165.786 165.145 165.28 
164.768 165.112 164.689 165.079 164.574 164.891 164.387 164.76 164.445 
164.947 167.102 166.485 166.624 166.059 166.374 165.939 166.348 165.911 
166.254 165.738 166.077 165.602 166.052 165.711 166.243 168.317 167.779 
167.966 167.428 167.742 167.253 167.65 167.179 167.553 167.064 167.441 
166.969 167.405 166.962 167.416 167.038 167.49 169.426 168.956 169.167 
168.716 169.041 168.607 168.995 168.526 168.889 168.386 168.756 168.3 
168.727 168.304 168.709 168.264 168.612 168.217 168.58 168.84 168.827 
168.514 167.847 168.641 168.398 167.656 167.417 166.666 168.385 168.121 
167.33 167.107 166.297 166.094 165.274 168.347 167.953 167.19 166.83 
166.023 165.712 164.877 164.642 163.86 168.504 168.048 167.301 166.835 
166.032 165.578 164.749 164.358 163.565 163.302 162.612 168.664 168.222 
167.451 166.985 166.151 165.662 164.82 164.36 163.556 163.151 162.385 
162.109 161.427 168.845 168.381 167.636 167.148 166.346 165.814 164.992 
164.485 163.724 163.255 162.492 162.027 161.256 160.932 160.287 169.109 
168.619 167.935 167.415 166.695 166.114 165.351 164.759 164.045 163.516 
162.838 162.284 161.548 160.986 160.321 159.947 159.51 169.423 168.943 
168.307 167.788 167.121 166.548 165.83 165.214 164.514 163.936 163.306 
162.737 162.087 161.452 160.812 160.243 159.81 159.452 159.274 169.47 
170.474 169.818 169.501 171.563 170.866 170.56 169.852 169.42 172.709 
171.969 171.656 170.945 170.531 169.715 169.199 173.914 173.122 172.762 
172.037 171.647 170.853 170.361 169.523 169.102 175.111 174.326 173.922 
173.15 172.756 171.979 171.547 170.722 170.317 169.536 169.236 176.163 
175.463 175.066 174.309 173.907 173.126 172.728 171.925 171.558 170.775 
170.467 169.71 169.42 177.105 176.458 176.098 175.406 175.042 174.3 
173.917 173.126 172.752 171.987 171.677 170.94 170.649 169.886 169.594 
178.05 177.414 177.085 176.416 176.089 175.407 175.065 174.316 173.929 
173.155 172.807 172.094 171.813 171.105 170.825 170.077 169.817 178.947 
178.369 178.058 177.409 177.073 176.422 176.105 175.43 175.083 174.33 
173.96 173.21 172.901 172.217 171.955 171.271 171.009 170.302 170.074 
179.302 179.512 179.107 178.441 179.7 179.286 178.607 178.166 177.447 
179.932 179.483 178.776 178.314 177.587 177.161 176.47 180.106 179.694 
178.971 178.503 177.775 177.321 176.624 176.199 175.488 180.208 179.824 
179.134 178.693 177.971 177.521 176.806 176.363 175.612 175.161 174.386 
180.417 179.997 179.372 178.893 178.175 177.694 176.935 176.496 175.701 
175.258 174.44 174.018 173.283 180.6 180.256 179.659 179.195 178.462 
177.922 177.107 176.601 175.775 175.314 174.489 174.058 173.301 172.948 
172.304 180.527 180.327 179.715 179.392 178.636 178.17 177.323 176.801 
175.969 175.449 174.643 174.145 173.381 172.967 172.291 171.981 171.369 
180.334 180.166 179.569 179.317 178.575 178.216 177.394 176.967 176.172 
175.697 174.925 174.392 173.619 173.106 172.389 171.987 171.351 171.044 
170.455 180.1 179.459 179.631 179.267 178.554 178.858 178.402 178.639 
178.198 177.336 177.8 177.383 177.681 177.187 177.467 177.022 175.979 
176.512 176.19 176.597 176.157 176.449 175.999 176.293 175.87 174.595 
175.147 174.839 175.35 174.971 175.37 174.924 175.262 174.818 175.133 
174.663 173.156 173.725 173.387 173.949 173.579 174.088 173.657 174.092 
173.62 174.008 173.511 173.852 173.34 171.726 172.269 171.942 172.491 
172.132 172.658 172.261 172.75 172.318 172.752 172.279 172.65 172.159 
172.508 172.07 170.419 170.892 170.593 171.101 170.774 171.257 170.874 
171.353 170.967 171.443 171.044 171.446 171.004 171.347 170.931 171.305 
170.988 169.275 169.661 169.362 169.821 169.517 169.962 169.577 170.007 
169.614 170.095 169.741 170.214 169.831 170.219 169.817 170.187 169.862 
170.289 170.064 180.442 180.791 180.388 179.874 181.065 180.684 180.098 
179.691 178.972 181.193 180.837 180.129 179.77 178.949 178.557 177.676 
181.127 180.826 180.052 179.71 178.852 178.449 177.528 177.147 176.275 
180.785 180.6 179.834 179.586 178.78 178.388 177.464 177.008 176.084 
175.732 174.885 180.214 180.118 179.362 179.263 178.519 178.284 177.339 
176.912 175.845 175.473 174.513 174.276 173.416 179.612 179.521 178.775 
178.713 178.001 177.906 176.996 176.664 175.503 175.112 174.04 173.813 
172.933 172.773 171.969 179.073 178.983 178.273 178.157 177.451 177.358 
176.547 176.281 175.22 174.774 173.717 173.374 172.544 172.33 171.592 
171.392 170.676 178.551 178.497 177.843 177.71 177 176.858 176.106 
175.889 174.998 174.596 173.637 173.203 172.394 172.077 171.39 171.119 
170.433 170.19 169.547 180.876 181.8 181.272 181.242 183.038 182.346 
182.252 181.675 181.605 184.257 183.652 183.509 182.801 182.655 182.036 
181.852 184.972 184.679 184.547 183.983 183.713 183.093 182.84 182.218 
181.859 185.196 185.113 184.998 184.725 184.377 183.929 183.539 183.071 
182.676 182.087 181.539 185.211 185.171 185.037 184.947 184.64 184.343 
183.868 183.512 183.053 182.686 182.165 181.608 180.951 185.144 185.089 
184.925 184.913 184.723 184.541 184.138 183.761 183.241 182.889 182.38 
182.024 181.437 180.922 180.277 185.14 185.015 184.835 184.8 184.673 
184.608 184.336 184.048 183.546 183.116 182.544 182.16 181.605 181.239 
180.659 180.212 179.638 185.263 185.09 184.91 184.781 184.618 184.544 
184.296 184.153 183.713 183.395 182.807 182.386 181.791 181.393 180.844 
180.476 179.945 179.554 179.043 185.256 185.061 185.107 184.934 184.723 
184.867 184.728 184.749 184.561 184.316 184.492 184.337 184.428 184.16 
184.272 184.08 183.777 184.034 183.853 183.98 183.65 183.738 183.432 
183.662 183.439 182.887 183.328 183.183 183.452 183.146 183.217 182.822 
182.948 182.641 182.902 182.589 181.749 182.281 182.186 182.646 182.405 
182.637 182.199 182.312 181.885 182.088 181.733 181.973 181.596 180.635 
181.141 181.049 181.562 181.343 181.726 181.282 181.523 181.023 181.272 
180.868 181.127 180.752 180.981 180.627 179.537 180.039 179.914 180.419 
180.185 180.597 180.16 180.462 179.968 180.288 179.903 180.234 179.887 
180.146 179.787 180.038 179.724 178.405 178.902 178.742 179.252 179.015 
179.442 179.041 179.347 178.886 179.205 178.856 179.234 178.936 179.258 
178.907 179.176 178.835 179.132 178.842 177.724 176.75 177.498 178.021 
175.678 176.47 176.96 177.762 178.245 174.526 175.35 175.812 176.63 
177.068 177.882 178.25 173.342 174.173 174.636 175.451 175.869 176.668 
177.049 177.817 178.146 172.144 172.957 173.392 174.24 174.663 175.476 
175.884 176.657 177.064 177.785 178.177 171.005 171.739 172.112 172.953 
173.388 174.25 174.688 175.509 175.938 176.721 177.142 177.877 178.259 
170.032 170.658 171.012 171.732 172.181 172.996 173.488 174.319 174.779 
175.577 175.991 176.773 177.153 177.904 178.23 169.184 169.773 170.154 
170.766 171.201 171.896 172.39 173.167 173.673 174.454 174.907 175.645 
176.049 176.775 177.156 177.86 178.196 168.349 168.956 169.35 169.959 
170.355 170.985 171.403 172.113 172.59 173.373 173.867 174.621 175.067 
175.758 176.172 176.845 177.241 177.889 178.238 178.05 177.045 177.505 
177.352 175.964 176.44 176.26 176.712 176.494 174.825 175.307 175.069 
175.545 175.28 175.777 175.531 173.575 174.086 173.79 174.29 173.967 
174.48 174.181 174.735 174.419 172.266 172.757 172.433 172.955 172.611 
173.123 172.764 173.308 172.967 173.523 173.143 171.082 171.469 171.118 
171.592 171.264 171.761 171.361 171.852 171.437 172.007 171.665 172.244 
171.929 170.037 170.346 169.931 170.316 169.951 170.424 170.026 170.465 
169.981 170.462 170.081 170.713 170.473 171.11 170.888 169.015 169.305 
168.827 169.144 168.686 169.108 168.697 169.141 168.689 169.09 168.687 
169.198 168.979 169.622 169.474 170.104 169.92 167.998 168.269 167.78 
168.047 167.547 167.869 167.415 167.821 167.41 167.834 167.48 167.932 
167.72 168.256 168.146 168.721 168.601 169.17 169.041 179.356 179.53 
179.758 180.379 179.705 179.936 180.588 180.802 181.474 179.867 180.136 
180.84 181.059 181.794 181.994 182.727 179.83 180.233 180.991 181.328 
182.131 182.377 183.132 183.282 183.895 179.585 180.062 180.812 181.338 
182.203 182.658 183.425 183.652 184.161 184.254 184.605 179.367 179.792 
180.495 181.037 181.913 182.552 183.378 183.796 184.226 184.365 184.556 
184.703 184.935 179.174 179.599 180.262 180.732 181.522 182.161 183.003 
183.581 184.067 184.295 184.403 184.525 184.675 184.937 185.208 178.851 
179.349 179.973 180.459 181.111 181.704 182.427 183.088 183.645 184.047 
184.242 184.37 184.481 184.663 184.916 185.198 185.43 178.438 178.958 
179.561 180.078 180.651 181.197 181.79 182.428 182.992 183.549 183.893 
184.184 184.35 184.519 184.715 184.93 185.132 185.35 185.428 179.433 
180.461 179.917 179.823 181.577 180.988 180.905 180.283 180.124 182.827 
182.198 182.144 181.44 181.261 180.567 180.346 183.948 183.435 183.374 
182.712 182.509 181.761 181.49 180.768 180.47 184.667 184.368 184.268 
183.786 183.545 182.929 182.617 181.926 181.597 180.863 180.493 185.102 
184.931 184.836 184.471 184.209 183.764 183.51 182.979 182.705 182.015 
181.651 180.863 180.45 185.44 185.336 185.288 184.959 184.685 184.301 
184.128 183.783 183.692 183.146 182.86 182.055 181.594 180.776 180.33 
185.625 185.625 185.614 185.38 185.115 184.749 184.546 184.31 184.307 
184.035 183.853 183.224 182.7 181.874 181.297 180.57 180.117 185.564 
185.681 185.711 185.644 185.472 185.176 184.932 184.668 184.56 184.435 
184.258 183.948 183.403 182.785 182.073 181.41 180.84 180.274 179.853 
178.81 179.198 178.669 177.926 179.499 179.033 178.321 177.742 176.894 
179.685 179.281 178.585 178.09 177.22 176.602 175.603 179.723 179.361 
178.596 178.224 177.365 176.855 175.846 175.211 174.218 179.678 179.301 
178.429 178.087 177.239 176.89 176.045 175.512 174.641 173.983 173.257 
179.653 179.252 178.386 177.939 177.115 176.757 176.097 175.735 175.102 
174.542 173.866 173.24 172.645 179.612 179.261 178.509 178.034 177.286 
176.814 176.204 175.845 175.308 174.927 174.259 173.758 172.989 172.504 
171.769 179.483 179.218 178.544 178.186 177.507 177.083 176.44 176.035 
175.405 175.037 174.311 173.914 173.066 172.643 171.795 171.407 170.636 
179.285 179.072 178.414 178.152 177.479 177.193 176.524 176.196 175.482 
175.097 174.314 173.895 173.082 172.65 171.871 171.44 170.741 170.326 
169.712 180.827 181.069 181.202 181.777 181.165 181.433 182.075 182.287 
183.001 181.008 181.411 182.078 182.474 183.196 183.511 184.155 180.854 
181.234 181.904 182.345 183.037 183.492 184.096 184.443 184.84 180.769 
181.134 181.776 182.166 182.815 183.244 183.853 184.25 184.715 184.957 
185.172 180.548 180.972 181.539 181.977 182.561 183.008 183.619 184.035 
184.61 184.893 185.26 185.297 185.361 180.269 180.667 181.191 181.638 
182.218 182.702 183.323 183.792 184.394 184.796 185.258 185.44 185.598 
185.482 185.387 180.07 180.413 180.962 181.341 182.011 182.441 183.153 
183.551 184.132 184.506 184.934 185.285 185.523 185.654 185.645 185.494 
185.377 179.859 180.224 180.783 181.179 181.898 182.351 183.145 183.517 
184.086 184.304 184.6 184.857 185.081 185.396 185.543 185.661 185.657 
185.524 185.461 
POINT_DATA 1002
SCALARS Distance double
LOOKUP_TABLE default
177 177.931 177.064 176.067 176.115 175.995 175.007 175.017 174.947 
174.88 173.735 173.775 173.703 173.65 173.691 172.367 172.499 172.347 
172.294 172.366 172.519 171.037 171.273 171.038 171.015 171.047 171.261 
171.381 169.754 170.144 169.709 169.756 169.761 169.984 170.244 170.334 
168.574 169.118 168.362 168.408 168.406 168.563 168.951 169.231 169.423 
167.53 168.139 167.152 167.116 167.128 167.157 167.47 167.896 168.231 
168.574 166.61 167.21 166.128 165.953 165.963 165.952 166.077 166.437 
166.856 167.28 167.739 178.339 177.421 178.725 177.746 178.966 176.382 
177.958 179.134 176.628 175.239 178.115 179.38 176.76 175.451 174.035 
178.289 179.547 176.836 175.5 174.247 172.801 178.378 179.467 177.015 
175.569 174.256 172.992 171.599 178.305 179.293 177.156 175.82 174.357 
172.999 171.79 170.506 178.133 179.137 177.057 175.919 174.575 173.116 
171.848 170.715 169.464 177.944 178.956 176.834 175.747 174.596 173.283 
171.988 170.826 169.659 168.414 178.107 176.943 177.139 175.868 175.988 
175.738 174.62 174.558 174.612 174.571 173.207 173.285 173.353 173.364 
173.337 172.204 172.637 172.126 172.135 172.101 172.065 171.663 172.07 
171.301 171.047 170.907 170.859 170.825 170.787 171.026 170.439 170.032 
169.737 169.6 169.53 169.543 169.543 169.901 169.141 168.709 168.408 
168.278 168.173 168.12 168.23 168.571 169.141 167.953 167.347 166.944 
166.823 166.788 166.741 166.805 167.002 165.949 165.67 164.676 165.386 
164.233 163.352 165.202 163.682 162.653 162.015 165.179 163.347 161.92 
161.282 160.812 165.338 163.578 161.872 160.923 160.468 159.801 165.804 
164.317 162.743 161.507 160.768 159.94 159.066 166.585 165.306 163.94 
162.616 161.589 160.543 159.424 158.776 167.448 166.315 165.014 163.606 
162.39 161.239 160 159.106 158.887 168.205 167.174 165.911 164.455 
163.114 161.947 160.734 159.669 159.152 159.18 165.347 164.072 164.906 
162.743 163.566 164.73 161.399 162.128 163.276 164.697 160.112 160.795 
161.849 163.283 164.758 159.099 159.739 160.819 162.12 163.56 165.024 
158.706 159.163 160.174 161.393 162.642 164.008 165.459 158.903 159.182 
159.852 160.854 161.995 163.247 164.609 165.989 159.288 159.529 159.896 
160.508 161.453 162.683 164.024 165.325 166.572 159.578 159.825 160.086 
160.5 160.883 160.162 161.54 162.044 161.01 160.541 162.754 163.199 
162.176 161.47 161.173 163.783 164.243 163.279 162.593 162.171 162.292 
164.877 165.453 164.329 163.67 163.272 163.394 163.729 166.164 166.744 
165.634 164.976 164.461 164.474 164.814 165.099 167.366 167.89 166.926 
166.412 165.894 165.674 165.812 166.086 166.331 168.455 168.929 168.034 
167.593 167.207 167.005 166.96 167.051 167.271 167.519 159.494 159.894 
160.227 160.717 161.419 160.488 162.001 162.695 161.503 161.488 163.306 
163.855 162.942 162.72 162.77 164.512 165.102 164.289 164.237 164.031 
163.948 165.824 166.435 165.506 165.544 165.46 165.187 165.148 167.199 
167.674 166.85 166.77 166.732 166.571 166.475 166.535 168.467 168.812 
168.236 168.143 168.039 167.891 167.863 167.878 167.838 169.59 169.876 
169.446 169.444 169.4 169.231 169.148 169.172 169.078 168.924 169.177 
168.164 169.144 167.889 168.894 166.917 167.584 168.681 166.518 165.459 
167.597 168.765 166.391 165.161 164.015 167.787 168.964 166.522 165.186 
163.902 162.78 167.919 169.113 166.651 165.283 163.994 162.775 161.602 
168.115 169.31 166.878 165.512 164.183 162.999 161.706 160.462 168.437 
169.583 167.255 165.956 164.586 163.37 162.149 160.791 159.712 170.095 
170.187 171.145 171.269 172.279 170.228 172.362 173.488 171.342 170.027 
173.518 174.738 172.409 171.195 169.864 174.725 175.873 173.526 172.338 
171.111 169.981 175.796 176.824 174.682 173.519 172.33 171.235 170.187 
176.758 177.737 175.745 174.703 173.532 172.398 171.401 170.363 177.75 
178.665 176.749 175.778 174.718 173.539 172.488 171.553 170.56 178.695 