# vtk DataFile Version 4.0
vtk output
ASCII
DATASET POLYDATA
POINTS 1002 float
-105.608 -121.552 75.7735 -106.053 -122.841 75.4982 -105.981 -122.118 74.7943 
-105.439 -120.677 75.0644 -105.821 -121.229 74.1022 -105.075 -120.007 76.0909 
-105.117 -119.729 74.3042 -105.604 -120.268 73.346 -104.733 -119.076 75.3444 
-104.28 -118.416 76.4601 -104.766 -118.781 73.4954 -105.411 -119.236 72.5794 
-104.327 -118.105 74.5447 -103.832 -117.447 75.6985 -103.293 -116.87 76.8854 
-104.499 -117.656 72.7598 -105.282 -117.969 71.9864 -103.895 -117.128 73.7203 
-103.414 -116.437 74.9011 -102.803 -115.902 76.1892 -102.323 -115.402 77.3975 
-104.282 -116.287 72.1801 -105.17 -116.575 71.5393 -103.383 -116.02 72.934 
-102.788 -115.507 74.009 -102.265 -114.969 75.3614 -101.693 -114.558 76.7505 
-101.378 -114.024 77.9195 -103.979 -115.059 71.5956 -104.95 -115.382 71.0405 
-102.891 -114.882 72.2077 -102.026 -114.612 73.1225 -101.499 -114.163 74.3646 
-101.02 -113.717 75.7917 -100.589 -113.222 77.1813 -100.42 -112.626 78.3035 
-103.53 -114.097 70.941 -104.618 -114.34 70.5333 -102.467 -113.896 71.467 
-101.555 -113.658 72.3436 -100.895 -113.304 73.4964 -100.436 -112.852 74.7426 
-100.03 -112.304 76.1172 -99.733 -111.701 77.4601 -99.659 -111.203 78.5596 
-103.128 -113.099 70.42 -104.34 -113.261 70.1744 -102.08 -112.9 70.8014 
-101.32 -112.571 71.606 -100.695 -112.18 72.7708 -100.173 -111.774 73.921 
-99.8084 -111.279 75.1149 -99.5285 -110.696 76.4721 -99.3498 -110.196 77.7259 
-99.3315 -109.882 78.7603 -102.951 -112.003 70.1035 -104.18 -112.207 69.9318 
-101.857 -111.778 70.3621 -101.127 -111.393 70.977 -100.606 -110.912 72.0311 
-100.114 -110.469 73.167 -99.7887 -110.035 74.2688 -99.6304 -109.57 75.5696 
-99.4912 -109.155 76.8939 -99.3962 -108.863 77.9697 -99.3973 -108.657 78.8963 
-106.558 -123.518 74.7147 -106.48 -122.817 74.0015 -107.204 -124.123 73.8505 
-107.172 -123.359 73.1553 -108.015 -124.579 73.0253 -106.434 -121.852 73.3046 
-108.032 -123.664 72.2436 -108.986 -124.792 72.1768 -107.25 -122.294 72.4148 
-106.371 -120.78 72.5188 -108.971 -123.86 71.2207 -110.049 -124.877 71.168 
-108.079 -122.631 71.4036 -107.197 -121.219 71.6185 -106.187 -119.66 71.7701 
-110.045 -123.963 70.3056 -111.189 -124.8 70.2593 -108.967 -122.885 70.4423 
-107.976 -121.568 70.7086 -106.902 -120.07 70.9408 -105.981 -118.336 71.2217 
-111.31 -123.634 69.7477 -112.395 -124.288 69.6952 -110.187 -122.731 69.8213 
-109.087 -121.522 70.0039 -107.861 -120.171 70.2076 -106.718 -118.669 70.4221 
-105.89 -116.934 70.7736 -112.518 -122.947 69.2298 -113.506 -123.522 69.1592 
-111.503 -122.15 69.3449 -110.485 -121.07 69.4906 -109.285 -119.864 69.648 
-107.895 -118.678 69.7654 -106.753 -117.25 69.9987 -105.802 -115.647 70.3451 
-113.454 -122.409 68.423 -114.421 -122.937 68.411 -112.491 -121.649 68.5821 
-111.55 -120.685 68.804 -110.517 -119.62 69.0249 -109.204 -118.603 69.1868 
-107.853 -117.436 69.3731 -106.749 -115.914 69.7034 -105.642 -114.401 70.0306 
-114.248 -122.072 67.6015 -115.238 -122.521 67.6806 -113.243 -121.37 67.6892 
-112.239 -120.507 67.9018 -111.207 -119.589 68.1691 -110.053 -118.674 68.4217 
-108.811 -117.632 68.6969 -107.682 -116.221 69.1005 -106.639 -114.602 69.5453 
-105.466 -113.215 69.834 -115.477 -121.725 67.1106 -114.373 -121.126 67.0869 
-115.776 -120.436 66.9398 -114.55 -119.747 66.8769 -115.965 -118.895 66.8898 
-113.21 -120.337 67.1227 -114.545 -118.288 66.6009 -115.727 -117.563 66.5232 
-113.157 -119.021 66.6974 -111.962 -119.497 67.2544 -114.085 -116.953 66.1222 
-115.037 -116.202 66.0489 -112.885 -117.625 66.2839 -111.604 -118.228 66.6845 
-110.666 -118.628 67.4799 -113.399 -115.241 65.8867 -114.283 -114.434 65.9969 
-112.305 -116.041 66.0613 -111.18 -116.656 66.3512 -110.193 -117.224 66.9002 
-109.457 -117.605 67.8061 -112.923 -113.178 66.1171 -113.742 -112.723 66.4406 
-111.774 -113.999 66.1646 -110.714 -114.805 66.396 -109.932 -115.423 66.7499 
-109.167 -115.96 67.4562 -108.4 -116.234 68.3717 -112.594 -111.556 66.7179 
-113.286 -111.517 67.2091 -111.518 -111.987 66.5018 -110.389 -112.812 66.6526 
-109.678 -113.579 67.0563 -109.058 -114.126 67.6467 -108.204 -114.468 68.3846 
-107.364 -114.57 69.0592 -112.092 -110.57 67.6549 -112.709 -110.62 68.1721 
-111.235 -110.609 67.2071 -110.198 -111.053 67.1199 -109.375 -111.764 67.5255 
-108.728 -112.365 68.1476 -107.875 -112.746 68.6878 -106.949 -112.915 69.1293 
-106.173 -113.006 69.5118 -111.411 -109.775 68.7504 -112.028 -109.733 69.1483 
-110.712 -109.697 68.2878 -109.882 -109.74 67.9754 -109.045 -110.065 68.0966 
-108.243 -110.528 68.5546 -107.289 -110.968 68.9299 -106.287 -111.315 69.1259 
-105.499 -111.549 69.3537 -104.844 -111.808 69.6549 -103.294 -111.003 69.772 
-103.888 -110.488 69.4126 -102.428 -109.603 69.5643 -104.5 -110.005 69.0853 
-102.917 -108.88 69.1354 -101.697 -107.867 69.4379 -105.407 -109.463 68.9816 
-103.616 -108.069 68.8677 -102.205 -106.895 69.1254 -101.221 -105.737 69.5369 
-106.622 -108.967 68.994 -104.779 -107.339 68.9109 -103.184 -105.967 69.0894 
-101.919 -104.723 69.4585 -101.054 -103.462 69.8311 -107.744 -108.668 68.9082 
-106.113 -107.002 69.1326 -104.543 -105.423 69.2554 -103.184 -103.977 69.5797 
-102.009 -102.626 69.7757 -101.194 -101.533 70.2056 -108.655 -108.551 68.8911 
-107.229 -106.996 69.4277 -105.787 -105.336 69.5517 -104.57 -103.633 69.6971 
-103.422 -101.976 69.7552 -102.353 -100.764 69.9254 -101.603 -100.111 70.6541 
-109.485 -108.61 69.1408 -108.203 -107.094 69.7806 -106.881 -105.361 69.952 
-105.738 -103.565 69.9257 -104.78 -101.652 69.8178 -103.752 -100.049 69.7334 
-102.782 -99.2277 70.1906 -102.085 -98.9502 71.146 -110.239 -108.746 69.5191 
-109.101 -107.259 70.1085 -107.967 -105.417 70.2963 -106.847 -103.571 70.2618 
-105.907 -101.739 70.1845 -105.024 -99.9192 69.9973 -104.039 -98.6211 70.0581 
-103.145 -98.0954 70.7093 -102.47 -97.9671 71.6411 -110.931 -108.761 69.8455 
-109.884 -107.403 70.3779 -108.915 -105.619 70.5675 -107.887 -103.737 70.5754 
-106.885 -102.047 70.6679 -106.047 -100.407 70.6933 -105.209 -98.8531 70.5885 
-104.298 -97.8123 70.7712 -103.478 -97.3949 71.4066 -102.809 -97.2924 72.2312 
-102.096 -110.673 69.9871 -101.417 -109.072 69.9172 -101.167 -110.25 70.4044 
-100.932 -107.09 69.9577 -100.698 -108.455 70.579 -100.569 -109.702 71.25 
-100.642 -104.662 70.2029 -100.426 -106.252 70.9032 -100.19 -107.788 71.6217 
-100.09 -109.129 72.3632 -100.529 -102.308 70.6496 -100.238 -103.671 71.376 
-100.035 -105.442 72.1067 -99.8545 -107.055 72.7236 -99.7922 -108.564 73.4746 
-100.694 -100.688 71.2169 -100.075 -101.532 71.8704 -99.8156 -102.979 72.5812 
-99.7956 -104.642 73.214 -99.8151 -106.313 73.948 -99.7574 -108.054 74.817 
-101.147 -99.5826 71.7778 -100.215 -100.222 72.3339 -99.5594 -101.207 72.9348 
-99.4591 -102.513 73.6704 -99.7033 -104.018 74.5411 -99.8483 -105.875 75.4977 
-99.7322 -107.735 76.3055 -101.618 -98.5311 72.2378 -100.666 -99.1601 72.7881 
-99.7277 -100.01 73.3484 -99.2022 -101.083 74.109 -99.2718 -102.259 75.0459 
-99.607 -103.85 76.0121 -99.7822 -105.835 76.8493 -99.6512 -107.584 77.4726 
-101.97 -97.631 72.72 -101.098 -98.1232 73.2912 -100.206 -98.8969 73.9354 
-99.4775 -99.9578 74.7221 -99.1499 -101.041 75.5921 -99.2637 -102.273 76.4127 
-99.5878 -103.996 77.15 -99.7562 -105.887 77.8066 -99.6199 -107.447 78.3868 
-102.663 -97.0003 73.3193 -101.71 -97.246 73.8642 -102.591 -96.8229 74.7831 
-101.588 -97.0794 75.4696 -102.7 -96.7202 76.4423 -100.825 -97.7723 74.5898 
-101.78 -97.1009 77.2006 -103.005 -96.6573 77.9309 -100.799 -97.733 76.3193 
-100.091 -98.7459 75.4579 -102.177 -97.2267 78.6767 -103.378 -96.7975 79.2787 
-101.063 -97.8773 77.97 -100.212 -98.7975 77.1659 -99.5529 -99.9273 76.3252 
-102.566 -97.586 80.0304 -103.754 -97.2719 80.6272 -101.407 -98.0977 79.4137 
-100.397 -98.8865 78.7313 -99.7069 -99.9359 77.9175 -99.2962 -101.083 77.0601 
-102.988 -98.2033 81.2966 -104.157 -97.9245 81.816 -101.852 -98.5531 80.7645 
-100.689 -99.1029 80.2548 -99.8197 -100.019 79.5894 -99.4578 -101.204 78.6299 
-99.429 -102.556 77.7056 -103.483 -98.8753 82.3867 -104.581 -98.6172 82.845 
-102.495 -99.228 81.8528 -101.406 -99.6862 81.4139 -100.279 -100.454 81.0482 
-99.6618 -101.534 80.3768 -99.6174 -102.878 79.3004 -99.7221 -104.415 78.3521 
-103.987 -99.5778 83.3768 -105.047 -99.3914 83.7856 -103.104 -99.9629 82.8039 
-102.304 -100.514 82.1864 -101.291 -101.298 81.7513 -100.316 -102.254 81.46 
-99.8755 -103.353 80.8626 -99.8265 -104.721 79.8877 -99.7694 -106.194 78.9984 
-104.542 -100.417 84.1648 -105.583 -100.269 84.5013 -103.602 -100.776 83.6968 
-102.903 -101.362 83.0638 -102.237 -102.198 82.3504 -101.374 -103.149 81.8482 
-100.554 -104.063 81.5861 -100.068 -105.117 81.1503 -99.8042 -106.414 80.3894 
-99.5816 -107.668 79.578 -103.693 -96.9671 72.5551 -103.719 -96.763 73.9013 
-104.872 -96.8904 73.1742 -105.075 -96.6014 74.6602 -106.198 -96.9149 73.8517 
-103.83 -96.5894 75.5195 -106.515 -96.4758 75.3057 -107.441 -97.0976 74.4115 
-105.307 -96.2854 76.1877 -104.034 -96.3874 77.0469 -107.826 -96.7068 75.7985 
-108.478 -97.6912 74.966 -106.849 -96.1128 76.6484 -105.553 -96.0873 77.4904 
-104.328 -96.3331 78.4123 -108.879 -97.4885 76.2751 -109.378 -98.5914 75.5387 
-108.228 -96.506 77.0712 -107.15 -96.1757 77.9208 -105.854 -96.3394 78.9211 
-104.708 -96.6586 79.8925 -109.782 -98.4912 76.702 -110.299 -99.4755 76.0234 
-109.248 -97.4576 77.5403 -108.483 -96.8428 78.4652 -107.389 -96.8395 79.5069 
-106.223 -96.9741 80.5222 -105.126 -97.2695 81.2861 -110.723 -99.4333 77.1052 
-111.22 -100.321 76.4901 -110.131 -98.5689 78.0011 -109.477 -97.8516 79.0523 
-108.63 -97.6201 80.088 -107.618 -97.6506 81.0097 -106.56 -97.6915 81.765 
-105.505 -97.998 82.3739 -111.63 -100.34 77.5875 -112.012 -101.19 76.9993 
-111.076 -99.6206 78.4707 -110.46 -98.9313 79.5995 -109.765 -98.4425 80.6752 
-108.875 -98.3207 81.4771 -107.853 -98.3658 82.1124 -106.829 -98.4955 82.7649 
-105.871 -98.835 83.3795 -112.393 -101.202 78.0858 -112.674 -102.002 77.4625 
-111.957 -100.56 78.9238 -111.434 -99.9657 80.0185 -110.886 -99.3476 81.1637 
[...]
CELL_DATA 2000
SCALARS Distance double
LOOKUP_TABLE default
177.367 176.425 176.691 176.215 175.339 175.64 175.11 175.419 174.877 
174.193 174.487 173.91 174.232 173.66 173.996 173.438 173.006 173.297 
172.675 172.994 172.395 172.739 172.178 172.541 172.034 171.778 172.056 
171.366 171.695 171.045 171.426 170.853 171.261 170.77 171.18 170.738 
170.578 170.804 170.055 170.34 169.642 170.019 169.431 169.883 169.391 
169.87 169.42 169.878 169.434 169.426 169.604 168.826 169.051 168.353 
168.66 168.091 168.484 168.009 168.463 168.017 168.494 168.044 168.525 
168.107 168.329 168.456 167.654 167.845 167.149 167.432 166.877 167.228 
166.759 167.146 166.717 167.133 166.734 167.168 166.814 167.272 166.995 
167.355 167.405 166.593 166.713 166.004 166.248 165.681 166.027 165.542 
165.922 165.484 165.892 165.542 165.968 165.707 166.119 165.922 166.339 
166.196 177.856 178.298 177.727 176.971 178.747 178.169 177.42 176.794 
175.946 179.149 178.588 177.828 177.237 176.399 175.735 174.834 179.478 
178.935 178.153 177.607 176.794 176.178 175.275 174.595 173.664 179.797 
179.255 178.483 177.924 177.129 176.546 175.661 175.007 174.051 173.389 
172.452 180.062 179.585 178.849 178.289 177.495 176.895 176.019 175.368 
174.414 173.751 172.812 172.176 171.275 180.135 179.781 179.065 178.61 
177.823 177.268 176.408 175.759 174.837 174.143 173.227 172.558 171.678 
171.031 170.156 180.058 179.767 179.057 178.709 177.941 177.509 176.691 
176.145 175.282 174.624 173.744 173.041 172.174 171.48 170.617 169.939 
169.082 179.998 179.69 178.997 178.656 177.906 177.538 176.752 176.336 
175.521 175.013 174.167 173.557 172.694 172.014 171.151 170.447 169.597 
168.909 168.105 179.786 179.09 179.215 178.734 178.238 178.42 177.874 
178.064 177.576 177.179 177.454 176.856 177.095 176.537 176.829 176.372 
175.825 176.248 175.62 175.953 175.323 175.668 175.153 175.565 175.129 
174.203 174.73 174.105 174.572 173.913 174.33 173.747 174.224 173.776 
174.269 173.815 172.685 173.09 172.471 172.96 172.351 172.837 172.281 
172.774 172.335 172.86 172.453 172.915 172.405 171.643 171.783 171.147 
171.43 170.871 171.303 170.877 171.369 171.029 171.501 171.137 171.564 
171.088 171.466 170.891 170.989 170.975 170.332 170.363 169.787 170.011 
169.634 170.068 169.811 170.279 169.929 170.314 169.8 170.147 169.55 
169.916 169.325 170.414 170.409 169.792 169.728 169.112 169.139 168.666 
168.937 168.594 169.035 168.605 169.031 168.417 168.801 168.129 168.531 
167.919 168.347 167.815 166.866 166.873 166.353 165.352 166.969 166.325 
165.169 164.717 163.688 167.216 166.44 165.132 164.505 163.349 162.985 
162.002 167.531 166.756 165.432 164.584 163.37 162.763 161.763 161.366 
160.483 167.758 167.124 165.986 165.068 163.898 163.047 162.08 161.403 
160.536 160.013 159.286 168.029 167.465 166.596 165.751 164.707 163.772 
162.802 161.961 161.059 160.311 159.503 159.002 158.513 168.561 167.952 
167.268 166.477 165.561 164.635 163.656 162.757 161.8 160.943 160.019 
159.327 158.678 158.365 158.109 169.248 168.634 168.012 167.256 166.409 
165.506 164.535 163.611 162.672 161.76 160.854 159.97 159.215 158.615 
158.222 158.03 157.918 169.855 169.306 168.691 168.011 167.207 166.361 
165.421 164.499 163.612 162.709 161.94 160.997 160.307 159.41 158.932 
158.345 158.172 157.937 157.928 166.581 165.104 165.819 165.78 163.531 
164.31 164.313 165.067 165.17 161.898 162.724 162.81 163.62 163.776 
164.572 164.839 160.31 161.09 161.234 162.129 162.37 163.208 163.491 
164.326 164.683 159.034 159.588 159.689 160.554 160.877 161.798 162.123 
162.979 163.341 164.211 164.632 158.335 158.572 158.584 159.146 159.429 
160.293 160.685 161.594 162.013 162.905 163.416 164.274 164.777 158.07 
158.149 158.13 158.328 158.459 158.997 159.35 160.174 160.67 161.6 
162.223 163.148 163.799 164.57 165.074 157.909 157.981 157.971 158.041 
158.071 158.29 158.532 159.054 159.542 160.334 161.01 161.969 162.731 
163.636 164.271 164.938 165.374 157.85 157.85 157.84 157.888 157.925 
158.037 158.253 158.528 158.973 159.465 160.088 160.841 161.603 162.534 
163.279 164.111 164.666 165.261 165.666 157.949 158.24 157.954 157.844 
158.87 158.361 158.148 157.919 157.95 159.745 159.137 158.919 158.44 
158.464 158.204 158.394 160.709 160.095 159.937 159.37 159.38 158.953 
159.146 158.847 159.151 161.804 161.143 161.01 160.418 160.391 159.92 
160.051 159.704 159.971 159.717 160.162 163.03 162.333 162.213 161.551 
161.503 160.934 161.026 160.613 160.881 160.586 161.041 160.872 161.559 
164.256 163.583 163.502 162.828 162.817 162.153 162.262 161.703 162.011 
161.602 162.107 161.842 162.525 162.412 163.201 165.472 164.809 164.763 
164.129 164.18 163.542 163.697 163.08 163.391 162.88 163.368 163.003 
163.624 163.411 164.095 163.998 164.631 166.701 166.043 166.003 165.387 
165.469 164.896 165.096 164.534 164.827 164.3 164.695 164.273 164.77 
164.485 165.04 164.862 165.392 165.258 165.698 158.16 158.938 158.504 
158.58 160.049 159.486 159.562 159.089 159.259 161.23 160.651 160.693 
160.165 160.272 159.838 160.058 162.465 161.845 161.866 161.292 161.349 
160.856 161.008 160.645 160.945 163.819 163.144 163.181 162.522 162.602 
162.002 162.191 161.69 162.008 161.627 162.051 165.198 164.53 164.586 
163.911 164.04 163.389 163.657 163.059 163.433 162.883 163.295 162.845 
163.294 166.547 165.9 165.988 165.342 165.515 164.888 165.188 164.607 
164.985 164.409 164.764 164.2 164.553 164.097 164.506 167.867 167.251 
167.384 166.769 166.999 166.393 166.71 166.132 166.481 165.914 166.22 
165.646 165.93 165.4 165.745 165.307 165.721 169.084 168.543 168.701 
168.158 168.418 167.875 168.204 167.645 167.974 167.387 167.671 167.07 
167.344 166.777 167.107 166.605 166.995 166.549 166.96 169.964 169.671 
169.486 168.763 169.338 169.12 168.304 168.131 167.255 169.036 168.767 
167.876 167.632 166.674 166.47 165.482 168.767 168.467 167.572 167.251 
166.272 165.94 164.93 164.677 163.729 168.591 168.237 167.377 167.012 
166.073 165.655 164.666 164.274 163.345 163.053 162.167 168.593 168.157 
167.31 166.885 165.971 165.525 164.551 164.111 163.186 162.812 161.926 
161.573 160.656 168.736 168.253 167.414 166.908 166.004 165.493 164.538 
164.042 163.124 162.707 161.856 161.449 160.567 160.127 159.301 168.924 
168.444 167.644 167.098 166.246 165.659 164.78 164.171 163.315 162.762 
161.992 161.502 160.753 160.225 159.482 158.998 158.455 169.142 168.671 
167.937 167.391 166.618 166.019 165.247 164.595 163.835 163.164 162.468 
161.849 161.231 160.625 160.021 159.407 158.886 158.418 158.126 170.617 
171.576 170.873 170.404 172.627 171.888 171.455 170.674 170.159 173.732 
172.974 172.568 171.788 171.314 170.467 169.916 174.863 174.086 173.669 
172.909 172.473 171.658 171.124 170.23 169.65 176 175.221 174.787 
174.011 173.575 172.796 172.296 171.44 170.863 169.968 169.439 177.056 
176.337 175.919 175.148 174.704 173.907 173.419 172.588 172.046 171.177 
170.658 169.815 169.403 177.958 177.332 176.943 176.249 175.829 175.055 
174.579 173.74 173.22 172.357 171.861 171.03 170.623 169.84 169.513 
178.751 178.192 177.844 177.222 176.835 176.137 175.695 174.911 174.425 
173.573 173.09 172.24 171.825 171.039 170.701 169.958 169.662 179.481 
178.975 178.674 178.103 177.74 177.094 176.672 175.971 175.53 174.768 
174.321 173.494 173.065 172.245 171.877 171.12 170.812 170.097 169.831 
179.777 179.95 179.589 178.993 180.053 179.723 179.099 178.731 178.049 
180.096 179.782 179.122 178.77 178.038 177.685 176.954 180.09 179.787 
179.112 178.762 178.022 177.649 176.904 176.561 175.838 180.1 179.76 
179.099 178.753 178.053 177.671 176.943 176.548 175.812 175.446 174.691 
180.272 179.834 179.165 178.769 178.096 177.724 177.012 176.612 175.839 
175.434 174.629 174.253 173.453 180.481 180.062 179.358 178.9 178.182 
177.773 177.041 176.651 175.849 175.436 174.582 174.179 173.346 172.995 
172.239 180.366 180.148 179.436 179.067 178.289 177.863 177.08 176.668 
175.868 175.439 174.59 174.146 173.306 172.908 172.143 171.825 171.154 
179.872 179.833 179.158 178.98 178.213 177.892 177.089 176.705 175.914 
175.49 174.677 174.207 173.383 172.926 172.159 171.774 171.093 170.791 
170.182 179.326 178.293 178.752 178.623 177.279 177.673 177.473 177.964 
177.732 176.259 176.609 176.293 176.763 176.518 176.995 176.674 175.036 
175.47 175.05 175.522 175.216 175.741 175.451 175.906 175.531 173.51 
174.082 173.649 174.182 173.822 174.383 174.075 174.619 174.26 174.717 
174.287 171.904 172.504 172.15 172.723 172.391 172.956 172.639 173.197 
172.845 173.365 172.954 173.419 172.984 170.437 170.983 170.677 171.245 
170.951 171.524 171.229 171.779 171.454 171.962 171.595 172.067 171.678 
172.131 171.763 169.082 169.586 169.248 169.793 169.461 170.052 169.745 
170.35 170.051 170.605 170.274 170.756 170.4 170.85 170.512 170.971 
170.686 167.783 168.244 167.867 168.366 167.997 168.547 168.223 168.832 
168.553 169.167 168.872 169.425 169.085 169.578 169.24 169.723 169.444 
169.948 169.746 179.543 179.71 179.252 178.576 180.135 179.564 178.872 
178.342 177.666 180.49 180.041 179.337 178.739 178.002 177.458 176.722 
180.355 180.232 179.549 179.104 178.234 177.732 176.87 176.405 175.507 
179.758 179.88 179.273 179.065 178.086 177.701 176.653 176.325 175.304 
174.952 173.909 179.035 179.191 178.659 178.619 177.668 177.342 176.174 
175.869 174.776 174.539 173.478 173.2 172.202 178.415 178.468 177.919 
177.954 177.137 176.89 175.775 175.384 174.285 173.981 172.982 172.716 
171.761 171.524 170.681 177.947 177.868 177.229 177.228 176.508 176.381 
175.441 175.082 174.035 173.628 172.652 172.31 171.392 171.109 170.259 
170.068 169.32 177.567 177.415 176.703 176.597 175.888 175.8 175.007 
174.774 173.823 173.443 172.446 172.061 171.117 170.789 169.91 169.663 
168.877 168.725 168.026 180.242 181.459 180.66 180.42 182.866 181.992 
181.701 180.928 180.79 184.127 183.387 183.007 182.195 181.872 181.239 
181.033 184.815 184.413 184.01 183.343 182.825 182.165 181.699 181.199 
180.779 184.947 184.817 184.522 184.117 183.633 183.009 182.419 181.769 
181.163 180.672 180.127 184.979 184.885 184.737 184.505 184.215 183.748 
183.287 182.582 181.959 181.19 180.56 179.987 179.463 185.201 185.041 
184.975 184.766 184.562 184.243 183.886 183.396 182.862 182.13 181.468 
180.667 180.076 179.443 178.963 185.492 185.331 185.246 185.05 184.803 
184.525 184.114 183.793 183.285 182.843 182.21 181.568 180.899 180.208 
179.655 179.042 178.573 185.657 185.54 185.37 185.237 184.938 184.7 
184.244 183.937 183.428 183.096 182.531 182.087 181.43 180.885 180.259 
179.72 179.199 178.665 178.192 185.621 185.324 185.408 185.274 185.041 
185.066 184.866 184.991 184.787 184.8 184.783 184.466 184.524 184.249 
184.388 184.083 184.295 184.422 183.983 184.044 183.666 183.813 183.495 
183.626 183.278 183.351 183.693 183.187 183.35 182.838 183.094 182.747 
183.001 182.627 182.773 182.358 182.133 182.612 182.157 182.39 181.801 
182.085 181.687 182.094 181.732 182.011 181.517 181.718 181.235 180.826 
181.364 181.017 181.331 180.788 181.025 180.594 180.972 180.652 181.004 
180.544 180.777 180.267 180.523 180.093 179.556 180.074 179.777 180.181 
179.719 180.013 179.579 179.924 179.606 179.955 179.557 179.793 179.312 
179.553 179.16 179.444 179.089 178.402 178.85 178.551 178.96 178.545 
178.9 178.476 178.862 178.519 178.918 178.538 178.828 178.362 178.609 
178.208 178.517 178.198 178.486 178.123 177.699 176.565 177.372 177.776 
175.261 176.152 176.556 177.373 177.733 173.848 174.79 175.232 176.107 
176.494 177.303 177.691 172.438 173.356 173.823 174.757 175.2 176.062 
176.49 177.31 177.752 171.123 171.97 172.394 173.329 173.803 174.74 
175.186 176.074 176.504 177.362 177.75 169.835 170.664 171.032 171.914 
172.36 173.313 173.788 174.724 175.151 176.043 176.431 177.28 177.602 
168.545 169.364 169.746 170.584 171.001 171.895 172.375 173.314 173.79 
174.69 175.119 175.967 176.373 177.159 177.517 167.427 168.143 168.569 
169.353 169.797 170.607 171.071 171.945 172.442 173.348 173.827 174.698 
175.15 175.977 176.411 177.165 177.536 166.58 167.156 167.57 168.267 
168.729 169.475 169.928 170.713 171.181 172.036 172.526 173.411 173.882 
174.75 175.186 176.02 176.404 177.166 177.464 177.121 176.045 176.464 
176.199 174.831 175.307 175.033 175.506 175.301 173.515 174.028 173.732 
174.261 174.015 174.582 174.375 172.139 172.657 172.308 172.869 172.546 
173.163 172.866 173.512 173.193 170.8 171.268 170.872 171.394 170.999 
171.589 171.2 171.86 171.487 172.175 171.809 169.555 169.959 169.523 
169.969 169.536 170.044 169.625 170.19 169.791 170.428 170.078 170.771 
170.464 168.362 168.735 168.259 168.643 168.166 168.614 168.192 168.695 
168.309 168.839 168.483 169.084 168.795 169.481 169.255 167.235 167.566 
167.092 167.412 166.908 167.278 166.83 167.297 166.922 167.431 167.075 
167.597 167.279 167.876 167.655 168.348 168.217 166.279 166.52 166.073 
166.314 165.81 166.083 165.598 165.974 165.569 166.05 165.704 166.22 
165.905 166.443 166.206 166.821 166.701 167.403 167.365 180.628 180.721 
180.983 181.626 180.814 181.108 181.806 182.062 182.752 180.754 181.151 
181.872 182.232 183.007 183.272 183.967 180.533 181.012 181.721 182.183 
182.957 183.421 184.205 184.487 185.08 180.251 180.765 181.469 181.946 
182.633 183.182 183.947 184.506 185.175 185.467 185.875 179.88 180.439 
181.127 181.643 182.268 182.781 183.455 184.072 184.761 185.305 185.766 
186.045 186.267 179.409 179.981 180.626 181.213 181.858 182.396 183.064 
183.61 184.294 184.828 185.326 185.721 185.943 186.211 186.288 178.939 
179.472 180.098 180.68 181.374 181.965 182.705 183.265 183.971 184.453 
184.948 185.287 185.484 185.745 185.791 186.066 186.07 178.494 179.005 
179.619 180.179 180.867 181.48 182.207 182.84 183.505 184.076 184.524 
184.914 185.063 185.294 185.289 185.524 185.534 185.805 185.809 180.803 
181.779 181.311 181.354 182.856 182.319 182.357 181.861 181.806 184.002 
183.411 183.407 182.891 182.881 182.292 182.067 185.068 184.51 184.437 
183.924 183.932 183.404 183.262 182.513 182.106 185.881 185.461 185.339 
184.872 184.841 184.412 184.334 183.71 183.338 182.482 181.967 186.347 
186.131 186 185.628 185.486 185.167 185.074 184.67 184.36 183.652 
183.091 182.262 181.719 186.448 186.451 186.348 186.112 185.824 185.571 
185.337 185.161 184.914 184.518 184.023 183.303 182.665 181.91 181.35 
186.263 186.419 186.372 186.298 185.964 185.726 185.323 185.187 184.918 
184.821 184.478 184.075 183.476 182.786 182.114 181.433 180.87 185.966 
186.156 186.145 186.205 185.962 185.796 185.39 185.155 184.817 184.715 
184.449 184.308 183.848 183.419 182.744 182.13 181.482 180.903 180.4 
180.294 180.824 180.271 179.638 181.192 180.716 180.059 179.534 178.804 
181.299 180.91 180.19 179.814 179.085 178.6 177.76 181.218 180.857 
180.053 179.774 179.063 178.749 177.932 177.428 176.424 181.114 180.742 
179.914 179.586 178.877 178.632 177.888 177.502 176.505 175.931 174.806 
180.991 180.68 179.927 179.532 178.801 178.474 177.768 177.427 176.529 
175.993 174.909 174.296 173.288 180.703 180.536 179.869 179.569 178.838 
178.465 177.718 177.351 176.536 176.056 175.101 174.491 173.568 172.978 
172.235 180.269 180.185 179.559 179.409 178.715 178.442 177.671 177.322 
176.518 176.102 175.252 174.732 173.893 173.339 172.628 172.113 171.535 
179.856 179.757 179.159 179.044 178.403 178.223 177.502 177.223 176.44 
176.085 175.286 174.87 174.093 173.635 172.928 172.475 171.861 171.436 
170.895 180.438 180.996 181.027 181.63 181.164 181.46 182.156 182.294 
182.998 180.944 181.416 182.14 182.585 183.342 183.616 184.224 180.725 
181.13 181.776 182.315 183.042 183.625 184.274 184.599 184.903 180.684 
180.979 181.544 181.935 182.582 183.151 183.849 184.39 184.82 185.008 
185.05 180.668 180.953 181.494 181.789 182.393 182.794 183.513 183.999 
184.601 184.882 185.096 185.076 185.067 180.611 180.912 181.479 181.776 
182.397 182.718 183.4 183.793 184.44 184.763 185.136 185.19 185.286 
185.184 185.255 180.512 180.844 181.462 181.797 182.482 182.786 183.427 
183.72 184.26 184.587 184.994 185.221 185.439 185.451 185.564 185.47 
185.577 180.339 180.714 181.354 181.77 182.513 182.89 183.55 183.784 
184.222 184.405 184.732 184.995 185.314 185.531 185.774 185.795 185.923 
185.799 185.832 
POINT_DATA 1002
SCALARS Distance double
LOOKUP_TABLE default
176.96 177.99 177.155 175.961 176.16 175.727 174.801 175.058 174.571 
174.337 173.604 173.919 173.327 173.084 172.895 172.37 172.733 172.055 
171.807 171.646 171.563 171.068 171.535 170.663 170.42 170.334 170.335 
170.32 169.81 170.389 169.289 168.977 168.898 168.944 168.983 169.001 
168.615 169.275 168.054 167.717 167.581 167.551 167.559 167.594 167.73 
167.481 168.232 166.868 166.528 166.39 166.309 166.293 166.354 166.496 
166.762 166.506 167.328 165.793 165.352 165.167 165.071 165.076 165.261 
165.511 165.763 166.065 178.426 177.601 178.87 178.039 179.333 176.623 
178.396 179.722 177.052 175.527 178.69 180.025 177.376 175.959 174.343 
179.055 180.313 177.708 176.306 174.72 173.092 179.389 180.487 178.107 
176.674 175.08 173.443 171.902 179.469 180.451 178.339 177.028 175.526 
173.909 172.331 170.805 179.382 180.345 178.322 177.164 175.883 174.44 
172.886 171.308 169.74 179.345 180.306 178.267 177.13 175.962 174.718 
173.346 171.852 170.295 168.757 179.709 178.592 178.972 177.7 178.048 
177.334 176.618 176.874 176.254 176.026 175.254 175.349 174.989 174.728 
174.708 173.588 173.675 173.477 173.276 173.24 173.384 172.01 172.373 
171.821 171.761 171.81 171.959 172.019 170.97 171.589 170.464 170.333 
170.541 170.74 170.719 170.53 170.37 171.011 169.659 169.24 169.335 
169.563 169.49 169.196 168.926 169.85 170.386 169.159 168.522 168.241 
168.212 168.045 167.72 167.473 167.36 165.912 165.789 164.359 165.716 
164.004 162.705 165.887 163.797 162.251 161.054 166.339 164.073 162.246 
160.799 159.601 166.827 164.797 162.828 161.171 159.645 158.619 167.331 
165.633 163.694 161.888 160.124 158.747 158.178 168.008 166.471 164.583 
162.694 160.823 159.116 158.176 157.979 168.739 167.294 165.467 163.56 
161.767 159.977 158.557 157.939 157.84 169.332 168.006 166.325 164.475 
162.805 161.25 159.698 158.543 158.036 157.912 165.043 163.531 164.368 
161.941 162.963 164.001 160.281 161.488 162.664 163.814 158.889 159.904 
161.248 162.464 163.752 158.215 158.654 159.736 161.079 162.505 163.999 
158.058 158.122 158.607 159.712 161.225 162.949 164.457 157.912 157.948 
158.147 158.847 160.071 161.74 163.51 164.851 157.802 157.81 158.023 
158.596 159.481 160.716 162.356 163.977 165.173 158.137 157.927 158.663 
158.5 159.454 158.024 159.461 160.326 158.802 158.571 160.503 161.302 
159.851 159.493 159.38 161.628 162.486 160.905 160.421 160.245 160.294 
162.889 163.718 162.124 161.483 161.18 161.225 161.61 164.145 164.91 
163.473 162.856 162.45 162.408 162.695 163.275 165.376 166.134 164.77 
164.299 163.938 163.788 163.912 164.27 164.747 166.62 167.352 166.016 
165.622 165.369 165.18 165.122 165.279 165.576 165.858 158.434 158.944 
159.438 160.08 160.632 159.666 161.247 161.815 160.756 160.4 162.475 
163.107 161.879 161.416 161.213 163.854 164.499 163.216 162.715 162.447 
162.369 165.241 165.856 164.668 164.239 164.02 163.837 163.682 166.606 
167.182 166.12 165.762 165.566 165.373 165.085 164.893 167.966 168.455 
167.582 167.3 167.071 166.807 166.483 166.224 166.121 169.21 169.588 
168.929 168.746 168.568 168.286 167.923 167.627 167.472 167.394 170.177 
168.952 169.886 168.523 169.609 167.438 168.171 169.333 166.938 165.649 
167.902 169.071 166.647 165.236 163.909 167.742 168.963 166.491 165.086 
163.68 162.448 167.767 169.052 166.424 165.001 163.57 162.31 161.023 
167.942 169.216 166.536 165.056 163.559 162.244 161.016 159.664 168.176 
169.383 166.817 165.387 163.901 162.486 161.249 159.997 158.788 171.292 
171.153 172.286 172.229 173.369 170.986 173.327 174.505 172.152 170.809 
174.43 175.657 173.254 172.017 170.55 175.581 176.767 174.355 173.121 
171.755 170.286 176.668 177.737 175.513 174.25 172.891 171.494 170.198 
177.596 178.546 176.572 175.408 174.083 172.691 171.401 170.273 178.437 
179.274 177.504 176.435 175.245 173.949 172.633 171.445 170.389 179.218 
179.958 178.373 177.348 176.237 175.114 173.904 172.66 171.529 170.521 