# vtk DataFile Version 4.0
vtk output
ASCII
DATASET POLYDATA
POINTS 1002 float
-105.735 -121.706 75.7721 -106.558 -122.6 75.4068 -106.093 -122.322 74.5731 
-105.247 -121.307 74.9243 -105.826 -121.671 73.771 -104.844 -120.743 76.1574 
-104.982 -120.518 74.1117 -105.685 -120.705 73.1302 -104.418 -120.13 75.3118 
-103.946 -119.59 76.5776 -104.728 -119.477 73.4541 -105.461 -119.649 72.5601 
-104.131 -119.13 74.5068 -103.617 -118.646 75.776 -103.103 -118.089 77.0345 
-104.335 -118.364 72.7988 -105.068 -118.586 71.8818 -103.693 -118.013 73.7709 
-103.259 -117.476 75.0114 -102.743 -116.987 76.3029 -102.221 -116.558 77.4671 
-103.911 -117.196 72.0456 -104.594 -117.493 71.1369 -103.168 -116.914 72.9722 
-102.67 -116.422 74.2031 -102.221 -115.917 75.5673 -101.636 -115.612 76.7301 
-101.219 -115.301 77.8256 -103.461 -116.072 71.3149 -104.146 -116.414 70.5124 
-102.681 -115.836 72.1839 -101.991 -115.503 73.3335 -101.493 -115.024 74.7309 
-100.933 -114.702 75.945 -100.447 -114.448 77.0204 -100.247 -114.066 78.1796 
-102.905 -115.072 70.7021 -103.769 -115.324 70.1202 -102.077 -114.879 71.4735 
-101.268 -114.645 72.5322 -100.66 -114.22 73.8439 -100.152 -113.84 75.0742 
-99.6988 -113.581 76.18 -99.4669 -113.223 77.3862 -99.4252 -112.803 78.5942 
-102.349 -114.079 70.2365 -103.449 -114.189 69.909 -101.403 -113.982 70.8234 
-100.575 -113.787 71.7839 -99.9078 -113.397 72.9833 -99.3817 -113.002 74.1371 
-98.964 -112.763 75.2531 -98.7505 -112.499 76.5438 -98.6928 -112.127 77.8907 
-98.7044 -111.779 79.0095 -101.924 -113.053 69.8897 -103.159 -113.111 69.7313 
-100.893 -113.006 70.304 -100.122 -112.804 71.139 -99.5079 -112.425 72.2191 
-98.9153 -112.079 73.2434 -98.3675 -111.908 74.261 -98.0825 -111.769 75.5503 
-98.0464 -111.522 77.0412 -98.0448 -111.222 78.3683 -98.0837 -110.935 79.3499 
-107.124 -123.29 74.5047 -106.805 -122.858 73.6439 -107.95 -123.721 73.5638 
-107.756 -123.106 72.7358 -108.988 -123.83 72.5953 -106.636 -121.995 72.902 
-108.842 -123.091 71.7771 -110.101 -123.803 71.5 -107.573 -122.122 72.0061 
-106.485 -120.916 72.2691 -109.993 -122.959 70.7884 -111.272 -123.678 70.4649 
-108.598 -122.105 71.0522 -107.288 -121.073 71.2831 -106.178 -119.874 71.5895 
-111.226 -122.6 70.0421 -112.526 -123.194 69.8111 -109.799 -121.875 70.2198 
-108.258 -121.071 70.3561 -106.906 -120.054 70.5525 -105.703 -118.837 70.8365 
-112.462 -121.943 69.4719 -113.73 -122.422 69.2954 -111.111 -121.32 69.5689 
-109.535 -120.721 69.6296 -107.977 -119.925 69.7715 -106.552 -118.902 69.9313 
-105.256 -117.711 70.1765 -113.55 -121.304 68.7001 -114.741 -121.757 68.533 
-112.306 -120.665 68.8494 -110.815 -120.153 68.9088 -109.245 -119.529 69.089 
-107.779 -118.61 69.317 -106.339 -117.617 69.4819 -104.995 -116.503 69.776 
-114.47 -120.818 67.8113 -115.585 -121.235 67.6764 -113.31 -120.151 68.0528 
-111.878 -119.618 68.1661 -110.271 -119.141 68.2769 -108.832 -118.3 68.5895 
-107.533 -117.289 68.9129 -106.2 -116.308 69.241 -104.833 -115.223 69.6435 
-115.31 -120.255 67.1481 -116.348 -120.614 67.0214 -114.201 -119.659 67.4288 
-112.804 -119.116 67.5955 -111.136 -118.725 67.578 -109.565 -118.078 67.7292 
-108.297 -117.083 68.1391 -107.177 -116.067 68.6281 -105.989 -115.037 69.1694 
-104.624 -113.979 69.5993 -116.485 -119.561 66.6566 -115.405 -119.095 66.9428 
-116.657 -118.259 66.5137 -115.292 -117.868 66.7667 -116.586 -117.057 66.3397 
-113.984 -118.584 67.1664 -114.701 -116.784 66.3101 -116.014 -115.933 66.0827 
-113.381 -117.516 66.678 -112.207 -118.18 67.0995 -113.737 -115.545 65.8741 
-115.027 -114.517 65.9707 -112.505 -116.347 66.058 -111.484 -117.008 66.5153 
-110.431 -117.658 67.0369 -112.731 -113.88 65.8528 -113.859 -112.901 66.1133 
-111.623 -114.819 65.8834 -110.849 -115.485 66.2755 -109.894 -116.161 66.7576 
-108.909 -116.766 67.3495 -111.814 -112.097 66.1288 -112.689 -111.489 66.5046 
-110.743 -112.996 66.0792 -110.035 -113.746 66.3871 -109.327 -114.423 66.8041 
-108.351 -115.186 67.2476 -107.657 -115.729 67.9062 -111.045 -110.575 66.6001 
-111.711 -110.322 67.1075 -109.952 -111.204 66.3465 -108.957 -111.978 66.4079 
-108.315 -112.715 66.7282 -107.641 -113.539 67.1936 -107.012 -114.247 67.842 
-106.569 -114.669 68.5919 -110.421 -109.379 67.2846 -110.969 -109.246 67.7945 
-109.415 -109.726 66.8822 -108.178 -110.331 66.6252 -107.286 -111.077 66.6775 
-106.776 -111.937 67.1235 -106.338 -112.731 67.8306 -105.897 -113.215 68.6083 
-105.345 -113.552 69.2329 -109.785 -108.394 68.0679 -110.307 -108.222 68.4741 
-108.939 -108.617 67.7159 -107.794 -108.986 67.372 -106.762 -109.56 67.1949 
-106.13 -110.355 67.4444 -105.684 -111.214 68.0258 -105.173 -111.829 68.6427 
-104.55 -112.196 69.1513 -103.84 -112.589 69.5036 -102.033 -112.058 69.534 
-102.668 -111.466 69.282 -100.959 -110.895 69.3664 -103.433 -110.956 69.0712 
-101.485 -110.144 69.0753 -100.192 -109.278 69.5284 -104.239 -110.363 68.8691 
-102.221 -109.311 69.0125 -100.595 -108.219 69.1604 -99.6945 -107.213 69.9092 
-104.999 -109.541 68.5368 -103.173 -108.377 69.053 -101.252 -107.027 69.0263 
-100.073 -105.92 69.4329 -99.2177 -105.245 70.1339 -105.69 -108.703 68.1904 
-104.211 -107.525 68.9666 -102.262 -106.024 69.0136 -100.72 -104.705 69.0991 
-99.705 -103.97 69.6865 -98.7648 -103.607 70.2968 -106.496 -108.125 68.1792 
-105.134 -106.979 68.9416 -103.457 -105.479 69.1287 -101.776 -103.96 69.0347 
-100.493 -102.918 69.3458 -99.4752 -102.394 70.0056 -98.65 -102.043 70.6887 
-107.503 -107.791 68.4314 -106.005 -106.688 69.1324 -104.541 -105.234 69.4493 
-103.072 -103.654 69.3864 -101.692 -102.285 69.3813 -100.529 -101.36 69.744 
-99.6304 -100.858 70.4299 -98.9886 -100.579 71.2107 -108.473 -107.554 68.6843 
-106.952 -106.478 69.3325 -105.55 -105.038 69.7353 -104.325 -103.449 69.8361 
-103.083 -101.967 69.7936 -101.865 -100.708 69.8092 -100.862 -99.8643 70.1617 
-100.099 -99.5104 70.8933 -99.5022 -99.4587 71.7182 -109.211 -107.334 68.9615 
-107.856 -106.292 69.5276 -106.547 -104.905 69.9256 -105.46 -103.312 70.0908 
-104.377 -101.823 70.168 -103.203 -100.488 70.1745 -102.147 -99.3651 70.2309 
-101.284 -98.7059 70.6581 -100.538 -98.5504 71.4398 -99.9105 -98.6749 72.2762 
-100.826 -111.955 69.7902 -100.034 -110.493 69.9959 -100.005 -111.693 70.5135 
-99.5167 -108.561 70.4731 -99.4784 -109.891 71.029 -99.4606 -111.238 71.5537 
-98.9183 -106.581 70.6994 -98.8699 -107.979 71.3778 -98.926 -109.457 71.9627 
-98.8584 -110.901 72.5158 -98.2561 -104.842 70.6502 -98.0411 -106.289 71.2975 
-98.12 -107.872 72.1185 -98.1407 -109.437 72.7806 -98.0995 -110.825 73.4328 
-97.9411 -103.106 70.9164 -97.5354 -104.482 71.3873 -97.499 -106.178 72.3112 
-97.5372 -107.879 73.2329 -97.4593 -109.421 73.9172 -97.5862 -110.76 74.6834 
-98.1346 -101.414 71.5317 -97.5428 -102.494 71.9577 -97.3929 -104.065 72.8202 
-97.4852 -105.876 73.8812 -97.4213 -107.566 74.6913 -97.3111 -109.176 75.429 
-97.5247 -110.573 76.2865 -98.6245 -100.129 72.1331 -97.8409 -100.876 72.6175 
-97.4346 -102.044 73.4226 -97.5211 -103.729 74.4775 -97.6879 -105.501 75.3966 
-97.5603 -107.216 76.1862 -97.3972 -108.941 77.0551 -97.5651 -110.342 77.8487 
-99.1329 -99.2861 72.7024 -98.3069 -99.8699 73.2176 -97.5976 -100.628 74.0019 
-97.3526 -101.92 75.0248 -97.5623 -103.619 75.9973 -97.6933 -105.332 76.8488 
-97.497 -107.068 77.7248 -97.3412 -108.775 78.5306 -97.5565 -110.094 79.0651 
-99.7866 -98.4161 73.274 -99.0748 -99.0573 73.7991 -99.8126 -98.2394 74.5616 
-99.1763 -98.9412 75.3142 -100.063 -98.2194 76.0348 -98.2388 -99.6427 74.5714 
-99.4207 -99 76.9713 -100.402 -98.386 77.4553 -98.3265 -99.5698 76.3546 
-97.4988 -100.468 75.6284 -99.7049 -99.2166 78.3971 -100.768 -98.6322 78.8495 
-98.5816 -99.7161 78.0105 -97.6 -100.499 77.4539 -97.2854 -101.901 76.6969 
-100.055 -99.4634 79.8092 -101.189 -98.9622 80.3236 -98.9749 -100.033 79.2994 
-98.0013 -100.786 78.9061 -97.4048 -102.05 78.404 -97.4595 -103.679 77.6364 
-100.437 -99.7597 81.3441 -101.589 -99.453 81.6481 -99.4211 -100.325 80.7401 
-98.6116 -101.215 80.1034 -97.9016 -102.391 79.742 -97.4826 -103.835 79.3195 
-97.4632 -105.443 78.5577 -100.846 -100.199 82.6322 -102.007 -99.9936 82.7332 
-99.8252 -100.621 82.2782 -99.1468 -101.557 81.5446 -98.6165 -102.815 80.8648 
-97.9952 -104.104 80.5418 -97.4906 -105.574 80.1108 -97.3048 -107.237 79.3511 
-101.42 -100.755 83.5865 -102.549 -100.5 83.7001 -100.343 -101.109 83.4249 
-99.5879 -101.921 82.9544 -99.179 -103.21 82.1154 -98.7623 -104.511 81.4248 
-98.1531 -105.792 81.0442 -97.6096 -107.33 80.5378 -97.415 -108.888 79.8184 
-102.137 -101.401 84.3183 -103.169 -101.085 84.452 -101.069 -101.798 84.1813 
-100.176 -102.502 83.9549 -99.6416 -103.67 83.3425 -99.3407 -105 82.4414 
-98.9812 -106.199 81.7484 -98.4745 -107.478 81.2654 -98.0364 -108.889 80.6919 
-97.9091 -110.092 80.0288 -100.606 -97.8945 72.4489 -100.457 -97.5894 73.6468 
-101.473 -97.2624 72.7487 -101.421 -96.9354 74.0719 -102.686 -96.9771 73.1804 
-100.552 -97.4196 75.0491 -102.856 -96.6961 74.5397 -104.123 -97.0354 73.761 
-101.62 -96.8698 75.5505 -100.902 -97.502 76.4955 -104.515 -96.7447 75.131 
-105.464 -97.3389 74.4647 -103.144 -96.744 76.1238 -102 -97.1005 77.0877 
-101.344 -97.7665 77.9461 -106.021 -96.9771 75.7999 -106.592 -97.904 75.1755 
-104.93 -96.7372 76.7664 -103.525 -97.0095 77.8355 -102.496 -97.4336 78.6962 
-101.858 -98.1192 79.468 -107.213 -97.5938 76.3906 -107.589 -98.6723 75.8079 
-106.591 -96.9165 77.3057 -105.396 -96.9429 78.5013 -104.057 -97.3276 79.5116 
-103.116 -97.879 80.1727 -102.389 -98.6664 80.8388 -108.189 -98.4969 76.8726 
-108.574 -99.4174 76.3215 -107.813 -97.6283 77.7093 -107.095 -97.1766 78.921 
-105.9 -97.323 80.1027 -104.674 -97.8406 80.7957 -103.707 -98.549 81.2738 
-102.84 -99.3234 81.9583 -109.178 -99.2964 77.2732 -109.596 -100.03 76.6929 
-108.773 -98.5753 78.089 -108.3 -97.9086 79.2233 -107.497 -97.6567 80.4388 
-106.372 -97.9893 81.263 -105.23 -98.5983 81.7266 -104.213 -99.2341 82.3106 
-103.31 -99.8703 83.0687 -110.199 -99.9105 77.5945 -110.543 -100.602 76.9719 
-109.782 -99.3257 78.4398 -109.328 -98.7321 79.5023 -108.731 -98.3015 80.6261 
[...]
CELL_DATA 2000
SCALARS Distance double
LOOKUP_TABLE default
177.497 176.604 176.874 176.491 175.606 175.907 175.493 175.806 175.396 
174.525 174.843 174.368 174.717 174.258 174.623 174.151 173.323 173.676 
173.12 173.494 172.969 173.384 172.884 173.286 172.789 172.008 172.383 
171.775 172.159 171.586 172.022 171.515 171.962 171.474 171.898 171.447 
170.694 171.035 170.421 170.785 170.2 170.617 170.11 170.572 170.096 
170.551 170.088 170.56 170.16 169.473 169.745 169.114 169.449 168.858 
169.245 168.715 169.163 168.677 169.148 168.686 169.17 168.768 169.287 
168.96 168.345 168.543 167.86 168.158 167.552 167.917 167.365 167.776 
167.264 167.718 167.265 167.761 167.405 167.929 167.668 168.181 167.963 
167.304 167.427 166.697 166.932 166.323 166.645 166.113 166.469 165.966 
166.35 165.899 166.359 166.038 166.588 166.402 166.959 166.818 167.308 
167.154 177.957 178.371 177.82 177.09 178.731 178.213 177.465 176.893 
176.106 178.993 178.525 177.769 177.227 176.407 175.858 175.041 179.214 
178.757 178.004 177.484 176.643 176.108 175.257 174.739 173.87 179.427 
178.979 178.234 177.716 176.874 176.321 175.443 174.914 174.023 173.498 
172.575 179.535 179.15 178.401 177.932 177.103 176.563 175.687 175.12 
174.222 173.654 172.735 172.182 171.272 179.497 179.179 178.428 178.034 
177.213 176.751 175.897 175.372 174.491 173.907 173.01 172.405 171.523 
170.944 170.093 179.391 179.104 178.38 178.021 177.222 176.809 175.966 
175.516 174.644 174.144 173.261 172.71 171.855 171.272 170.445 169.846 
169.027 179.259 179.002 178.324 177.989 177.227 176.82 175.98 175.54 
174.653 174.207 173.314 172.868 172.027 171.565 170.773 170.237 169.438 
168.827 168.023 178.953 178.171 178.402 178.03 177.283 177.552 177.13 
177.377 176.908 176.155 176.509 175.959 176.311 175.762 176.112 175.592 
174.677 175.145 174.473 174.934 174.319 174.795 174.246 174.692 174.193 
172.962 173.483 172.801 173.322 172.739 173.276 172.767 173.261 172.77 
173.256 172.823 171.309 171.755 171.095 171.62 171.078 171.676 171.216 
171.77 171.3 171.806 171.389 171.92 171.569 169.974 170.254 169.577 
169.972 169.366 169.948 169.451 170.122 169.672 170.297 169.906 170.492 
170.182 170.728 170.395 168.981 169.127 168.47 168.64 167.972 168.303 
167.747 168.314 167.936 168.624 168.356 169.014 168.765 169.347 169.032 
169.534 169.113 168.162 168.276 167.689 167.738 167.097 167.16 166.596 
166.852 166.531 167.047 166.919 167.54 167.384 167.951 167.638 168.137 
167.694 168.169 167.689 166.719 166.684 166.188 165.201 166.688 166.177 
165.078 164.598 163.638 166.561 166.178 165.059 164.47 163.29 162.939 
162.041 166.207 166.006 164.997 164.433 163.1 162.547 161.416 161.262 
160.465 165.875 165.679 164.864 164.382 163.107 162.388 161.082 160.663 
159.771 159.726 159.078 165.965 165.565 164.897 164.391 163.35 162.547 
161.273 160.526 159.532 159.195 158.568 158.496 158.008 166.475 165.907 
165.268 164.658 163.795 162.993 161.904 160.986 159.965 159.256 158.54 
158.188 157.726 157.618 157.308 167.063 166.49 165.824 165.171 164.344 
163.579 162.628 161.755 160.799 159.926 159.105 158.427 157.853 157.503 
157.192 157.104 156.975 167.528 167.016 166.35 165.731 164.924 164.191 
163.306 162.508 161.639 160.803 159.988 159.164 158.481 157.849 157.431 
157.124 156.971 156.91 156.905 166.485 165.006 165.759 165.849 163.55 
164.314 164.461 165.243 165.483 162.083 162.893 163.099 163.902 164.176 
164.975 165.284 160.556 161.396 161.609 162.503 162.799 163.668 163.985 
164.803 165.128 159.11 159.85 160.008 160.929 161.26 162.236 162.619 
163.499 163.855 164.668 165.053 157.979 158.498 158.597 159.368 159.753 
160.724 161.261 162.179 162.658 163.455 163.924 164.709 165.234 157.28 
157.56 157.619 158.136 158.518 159.363 160.032 160.958 161.607 162.388 
162.962 163.701 164.329 165.076 165.694 156.984 157.084 157.123 157.377 
157.655 158.279 158.925 159.833 160.599 161.446 162.108 162.843 163.504 
164.252 164.933 165.629 166.196 156.954 156.968 157.034 157.088 157.269 
157.582 158.077 158.797 159.56 160.454 161.204 162.01 162.676 163.435 
164.1 164.85 165.45 166.1 166.567 157.034 157.386 157.173 157.159 
158.07 157.686 157.651 157.338 157.393 159.009 158.527 158.497 158.005 
158.028 157.73 158.1 160.027 159.519 159.506 158.966 158.982 158.535 
158.867 158.73 159.47 161.127 160.558 160.549 160.005 160.064 159.581 
159.893 159.626 160.299 160.28 161.119 162.317 161.699 161.683 161.102 
161.217 160.723 161.069 160.723 161.327 161.17 161.928 161.896 162.646 
163.482 162.88 162.862 162.282 162.421 161.937 162.311 161.938 162.491 
162.227 162.879 162.738 163.437 163.378 164.072 164.624 164.035 164.038 
163.466 163.617 163.152 163.529 163.173 163.693 163.385 163.951 163.71 
164.322 164.191 164.845 164.785 165.413 165.772 165.202 165.244 164.669 
164.836 164.356 164.728 164.367 164.873 164.556 165.085 164.788 165.336 
165.111 165.697 165.562 166.139 166.049 166.554 157.017 157.157 157.118 
157.349 157.662 157.384 157.578 157.582 158.003 158.673 158.12 158.239 
157.975 158.363 158.387 158.936 160.003 159.322 159.42 158.89 159.191 
158.928 159.434 159.418 159.999 161.409 160.719 160.841 160.224 160.491 
159.988 160.401 160.11 160.67 160.575 161.173 162.819 162.138 162.273 
161.666 161.95 161.392 161.762 161.274 161.74 161.428 162.003 161.843 
162.416 164.197 163.547 163.684 163.091 163.381 162.847 163.225 162.698 
163.094 162.624 163.082 162.773 163.299 163.101 163.604 165.479 164.894 
165.044 164.484 164.761 164.251 164.623 164.131 164.514 164.004 164.378 
163.926 164.356 164.037 164.516 164.281 164.748 166.641 166.128 166.299 
165.8 166.07 165.591 165.93 165.472 165.845 165.379 165.751 165.261 
165.637 165.184 165.603 165.253 165.705 165.435 165.882 167.551 167.178 
167.04 166.351 166.846 166.644 165.876 165.722 164.914 166.588 166.325 
165.496 165.249 164.357 164.177 163.301 166.33 166.05 165.179 164.888 
163.944 163.66 162.713 162.535 161.671 166.107 165.778 164.894 164.574 
163.636 163.297 162.321 162.021 161.094 160.921 160.075 166.08 165.644 
164.789 164.367 163.476 163.065 162.131 161.726 160.784 160.451 159.568 
159.365 158.596 166.248 165.751 164.946 164.419 163.573 163.051 162.177 
161.668 160.773 160.294 159.424 159.032 158.283 158.05 157.518 166.469 
165.989 165.231 164.686 163.876 163.29 162.45 161.858 161.012 160.436 
159.61 159.077 158.35 157.948 157.444 157.247 157.007 166.691 166.235 
165.535 165.012 164.259 163.668 162.878 162.246 161.457 160.816 160.052 
159.423 158.725 158.185 157.675 157.336 157.097 156.965 156.923 168.219 
169.215 168.43 167.899 170.351 169.492 168.931 168.124 167.605 171.493 
170.646 170.073 169.217 168.687 167.882 167.386 172.579 171.768 171.226 
170.379 169.86 169.024 168.531 167.697 167.18 173.66 172.867 172.365 
171.535 171.046 170.218 169.734 168.883 168.362 167.492 166.971 174.7 
173.962 173.493 172.69 172.215 171.401 170.915 170.076 169.553 168.691 
168.179 167.33 166.902 175.62 174.97 174.547 173.808 173.355 172.565 
172.082 171.246 170.726 169.872 169.385 168.554 168.15 167.347 167.022 
176.446 175.861 175.492 174.828 174.416 173.682 173.227 172.416 171.922 
171.068 170.607 169.778 169.399 168.602 168.274 167.498 167.204 177.21 
176.676 176.349 175.75 175.379 174.71 174.29 173.541 173.077 172.27 
171.826 171.017 170.64 169.851 169.512 168.732 168.407 167.656 167.377 
177.518 177.718 177.308 176.673 177.93 177.504 176.837 176.416 175.721 
178.099 177.689 176.971 176.546 175.786 175.383 174.621 178.19 177.805 
177.05 176.626 175.8 175.385 174.559 174.198 173.403 178.282 177.883 
177.142 176.694 175.857 175.386 174.528 174.116 173.312 172.961 172.191 
178.431 178.001 177.268 176.807 175.988 175.486 174.622 174.135 173.312 
172.901 172.134 171.775 171.032 178.595 178.159 177.383 176.921 176.076 
175.604 174.731 174.252 173.387 172.934 172.111 171.722 170.946 170.615 
169.883 178.631 178.267 177.456 177.007 176.126 175.657 174.776 174.322 
173.459 173.004 172.151 171.711 170.891 170.515 169.753 169.452 168.756 
178.389 178.17 177.371 177.021 176.158 175.713 174.852 174.384 173.56 
173.09 172.278 171.795 170.99 170.526 169.763 169.367 168.669 168.36 
167.732 177.876 176.72 177.192 176.905 175.556 175.998 175.726 176.162 
175.766 174.456 174.822 174.49 174.952 174.609 174.987 174.519 173.321 
173.677 173.234 173.681 173.327 173.793 173.381 173.73 173.239 171.994 
172.441 171.947 172.385 171.959 172.454 172.061 172.523 172.066 172.433 
171.943 170.482 171.017 170.578 171.062 170.621 171.081 170.651 171.137 
170.71 171.177 170.715 171.113 170.643 168.991 169.502 169.119 169.661 
169.276 169.753 169.304 169.743 169.294 169.775 169.357 169.829 169.394 
169.81 169.394 167.695 168.1 167.698 168.206 167.84 168.369 167.951 
168.409 167.945 168.39 167.973 168.457 168.072 168.537 168.149 168.591 
168.262 166.595 166.904 166.461 166.849 166.444 166.926 166.539 167.034 
166.624 167.076 166.67 167.121 166.754 167.221 166.876 167.339 167.033 
167.514 167.293 178.21 178.301 177.854 177.049 178.541 178.013 177.243 
176.726 175.956 179.016 178.43 177.727 177.068 176.305 175.709 174.945 
179.455 178.994 178.293 177.613 176.723 176.075 175.21 174.675 173.831 
179.419 179.261 178.512 178.005 176.89 176.288 175.2 174.769 173.819 
173.415 172.459 178.855 178.918 178.188 177.941 176.783 176.239 175.003 
174.566 173.556 173.239 172.268 171.891 170.892 178.208 178.22 177.552 
177.457 176.512 176.085 174.953 174.416 173.412 172.99 172.07 171.665 
170.688 170.291 169.37 177.83 177.668 177.008 176.88 176.125 175.852 
174.935 174.463 173.487 172.974 172.018 171.538 170.569 170.125 169.203 
168.845 168.06 177.629 177.393 176.698 176.475 175.753 175.531 174.735 
174.412 173.487 173.034 172.016 171.514 170.494 170.03 169.092 168.71 
167.908 167.615 166.942 178.98 180.215 179.453 179.13 181.46 180.771 
180.495 179.615 179.315 182.531 182.04 181.91 181.054 180.678 179.818 
179.631 183.349 183.031 183.07 182.44 182.103 181.196 180.793 180.087 
179.933 184.144 183.786 183.82 183.422 183.216 182.527 182.051 181.224 
180.786 180.202 179.882 184.986 184.57 184.422 184.029 183.805 183.391 
183.033 182.383 181.845 181.076 180.526 179.916 179.391 185.475 185.239 
184.975 184.574 184.202 183.826 183.502 183.123 182.716 182.089 181.488 
180.694 180.066 179.372 178.825 185.467 185.441 185.222 184.992 184.617 
184.228 183.838 183.487 183.143 182.751 182.264 181.629 180.987 180.219 
179.636 178.936 178.482 185.362 185.336 185.206 185.118 184.886 184.614 
184.255 183.867 183.468 183.094 182.643 182.205 181.623 181.041 180.429 
179.793 179.287 178.675 178.26 185.358 185.346 185.283 185.157 185.203 
185.224 185.048 185.044 184.86 184.722 184.917 184.702 184.811 184.556 
184.608 184.275 183.911 184.24 183.95 184.217 183.883 184.113 183.744 
183.853 183.434 182.882 183.293 182.953 183.281 182.89 183.226 182.844 
183.133 182.711 182.903 182.486 181.737 182.198 181.901 182.245 181.864 
182.181 181.812 182.139 181.745 182.029 181.601 181.866 181.442 180.599 
181.059 180.816 181.197 180.851 181.175 180.809 181.129 180.75 181.038 
180.617 180.896 180.487 180.768 180.337 179.522 179.956 179.709 180.108 
179.762 180.124 179.744 180.105 179.728 180.053 179.641 179.916 179.513 
179.805 179.443 179.695 179.281 178.482 178.892 178.63 179.012 178.668 
179.018 178.64 179.004 178.657 179.019 178.66 178.957 178.568 178.848 
178.5 178.803 178.468 178.693 178.284 177.826 176.84 177.552 177.946 
175.767 176.526 176.91 177.618 177.958 174.547 175.39 175.792 176.552 
176.898 177.596 177.928 173.199 174.092 174.521 175.377 175.778 176.538 
176.906 177.599 177.963 171.882 172.744 173.173 174.057 174.499 175.364 
175.791 176.573 176.956 177.653 177.987 170.638 171.473 171.907 172.746 
173.173 174.043 174.489 175.373 175.791 176.591 176.927 177.625 177.909 
169.436 170.241 170.68 171.511 171.924 172.746 173.16 174.033 174.477 
175.35 175.741 176.517 176.842 177.535 177.846 168.382 169.077 169.486 
170.285 170.703 171.511 171.907 172.734 173.17 174.04 174.484 175.311 
175.695 176.449 176.799 177.503 177.822 167.52 168.094 168.447 169.144 
169.553 170.314 170.715 171.501 171.921 172.764 173.219 174.07 174.484 
175.282 175.637 176.4 176.716 177.433 177.67 177.28 176.329 176.657 
176.311 175.247 175.624 175.26 175.619 175.284 174.084 174.492 174.095 
174.486 174.1 174.539 174.212 172.81 173.262 172.831 173.256 172.802 
173.255 172.836 173.354 172.952 171.502 171.936 171.484 171.928 171.446 
171.895 171.395 171.883 171.386 171.937 171.454 170.292 170.658 170.19 
170.583 170.099 170.519 170.015 170.442 169.897 170.352 169.818 170.369 
169.91 169.148 169.485 169.001 169.34 168.829 169.196 168.681 169.081 
168.542 168.931 168.368 168.8 168.321 168.881 168.527 168.067 168.359 
167.862 168.167 167.623 167.946 167.388 167.756 167.207 167.593 167.028 
167.413 166.899 167.375 167.018 167.61 167.373 167.155 167.349 166.838 
167.059 166.495 166.755 166.182 166.492 165.944 166.29 165.748 166.1 
165.585 165.998 165.622 166.165 165.954 166.57 166.431 179.877 180.046 
180.275 180.912 180.183 180.445 181.126 181.363 182.059 180.24 180.571 
181.305 181.598 182.371 182.594 183.324 180.132 180.561 181.337 181.751 
182.573 182.901 183.658 183.857 184.46 179.903 180.373 181.142 181.677 
182.501 182.984 183.684 184.03 184.559 184.79 185.177 179.655 180.108 
180.817 181.381 182.171 182.755 183.411 183.857 184.304 184.66 185.035 
185.32 185.611 179.368 179.824 180.451 180.99 181.714 182.331 183.01 
183.505 183.98 184.333 184.726 185.072 185.435 185.688 185.87 178.999 
179.479 180.047 180.562 181.198 181.81 182.492 183.074 183.635 184.045 
184.471 184.798 185.165 185.456 185.658 185.82 185.798 178.57 179.062 
179.603 180.108 180.67 181.243 181.851 182.486 183.057 183.624 184.067 
184.504 184.831 185.164 185.341 185.545 185.528 185.621 185.513 179.938 
181.003 180.427 180.294 182.149 181.545 181.439 180.764 180.479 183.363 
182.725 182.579 181.898 181.574 180.83 180.347 184.481 183.917 183.705 
183.005 182.58 181.83 181.246 180.507 179.879 185.247 184.88 184.673 
184.061 183.581 182.8 182.127 181.322 180.613 179.908 179.282 185.7 
185.48 185.311 184.871 184.428 183.752 183.094 182.251 181.52 180.687 
180.045 179.345 178.838 185.915 185.822 185.666 185.375 184.984 184.478 
183.89 183.183 182.491 181.671 181.02 180.227 179.707 179.018 178.611 
185.814 185.88 185.756 185.635 185.317 184.957 184.435 183.874 183.222 
182.545 181.887 181.181 180.608 179.927 179.451 178.824 178.419 185.556 
185.68 185.642 185.652 185.462 185.248 184.824 184.371 183.757 183.169 
182.506 181.901 181.292 180.705 180.165 179.592 179.108 178.562 178.131 
179.357 179.625 179.176 178.54 179.714 179.329 178.637 178.297 177.659 
179.548 179.266 178.478 178.234 177.589 177.354 176.625 179.144 178.973 
178.109 177.896 177.129 177.066 176.391 176.186 175.247 178.637 178.529 
177.713 177.463 176.559 176.437 175.699 175.717 174.919 174.655 173.564 
178.229 178.091 177.412 177.142 176.283 175.949 175.129 175.001 174.309 
174.209 173.346 172.964 171.917 178.004 177.802 177.21 176.958 176.264 
175.859 175.083 174.688 174.013 173.763 173.101 172.784 171.945 171.459 
170.571 177.832 177.629 177.043 176.825 176.215 175.906 175.21 174.794 
174.087 173.703 173.053 172.702 171.986 171.545 170.741 170.252 169.509 
177.58 177.424 176.824 176.645 176.026 175.814 175.137 174.844 174.104 
173.765 173.033 172.706 171.977 171.608 170.83 170.403 169.647 169.242 
168.601 179.081 179.354 179.585 180.245 179.305 179.7 180.377 180.691 
181.35 179.115 179.553 180.225 180.654 181.299 181.68 182.282 178.968 
179.372 180.065 180.48 181.147 181.537 182.157 182.52 183.088 178.893 
179.273 179.996 180.386 181.103 181.45 182.121 182.438 183.109 183.396 
184.014 178.779 179.187 179.895 180.324 181.052 181.441 182.14 182.473 
183.189 183.508 184.232 184.451 184.997 178.563 179.001 179.655 180.14 
180.828 181.311 181.997 182.437 183.14 183.559 184.266 184.62 185.161 
185.318 185.544 178.322 178.741 179.353 179.829 180.473 180.988 181.648 
182.174 182.859 183.385 184.064 184.526 185.042 185.322 185.533 185.597 
185.555 178.096 178.491 179.072 179.514 180.123 180.607 181.236 181.762 
182.424 182.994 183.664 184.208 184.754 185.125 185.41 185.537 185.579 
185.533 185.472 
POINT_DATA 1002
SCALARS Distance double
LOOKUP_TABLE default
177.14 178.086 177.269 176.218 176.328 176.119 175.177 175.315 175.086 
174.985 174.038 174.223 173.89 173.801 173.67 172.769 172.98 172.556 
172.464 172.39 172.309 171.404 171.641 171.156 171.05 171.036 170.999 
171.036 170.064 170.379 169.798 169.649 169.634 169.621 169.646 169.8 
168.794 169.248 168.486 168.292 168.209 168.193 168.245 168.416 168.667 
167.59 168.199 167.198 166.976 166.83 166.757 166.846 167.127 167.463 
167.759 166.494 167.221 166.011 165.763 165.604 165.465 165.476 165.794 
166.289 166.705 166.999 178.519 177.675 178.922 178.045 179.229 176.676 
178.304 179.449 176.962 175.586 178.523 179.674 177.19 175.779 174.41 
178.744 179.866 177.438 175.997 174.555 173.107 178.845 179.897 177.617 
176.256 174.81 173.303 171.799 178.8 179.796 177.642 176.384 175.054 
173.612 172.117 170.655 178.719 179.66 177.625 176.403 175.114 173.768 
172.404 171.047 169.636 178.63 179.49 177.625 176.434 175.107 173.74 
172.435 171.245 170.031 168.651 178.741 177.839 177.936 176.885 177.033 
176.668 175.613 175.824 175.384 175.237 174.004 174.207 173.808 173.768 
173.735 172.244 172.44 172.159 172.254 172.282 172.296 170.584 170.906 
170.461 170.62 170.779 170.843 171.031 169.275 169.745 168.876 168.767 
168.969 169.273 169.606 169.912 168.363 168.838 167.774 167.269 167.209 
167.632 168.166 168.526 168.661 167.628 168.022 167.08 166.441 166.083 
166.304 166.825 167.164 167.228 167.196 165.742 165.63 164.234 165.675 
163.932 162.751 165.7 163.806 162.138 161.238 165.497 163.799 161.701 
160.415 159.747 165.243 163.857 161.67 159.88 159.022 158.47 165.376 
164.078 162.119 160.034 158.687 157.999 157.561 165.909 164.525 162.787 
160.81 159.054 157.884 157.3 157.069 166.487 165.082 163.429 161.673 
159.918 158.349 157.331 156.95 156.912 166.939 165.628 164.066 162.426 
160.821 159.229 157.871 157.095 156.873 156.933 165.044 163.667 164.676 
162.266 163.369 164.488 160.688 161.879 163.152 164.32 159.118 160.223 
161.681 163.028 164.221 157.91 158.768 160.273 161.833 163.119 164.434 
157.215 157.737 159.055 160.776 162.218 163.555 165.004 156.974 157.184 
158.051 159.677 161.352 162.761 164.203 165.598 157.021 157.111 157.517 
158.668 160.341 161.925 163.349 164.754 166.001 157.153 157.349 157.66 
158.052 158.503 157.557 159.032 159.498 158.413 158.121 160.032 160.554 
159.46 159.078 159.408 161.091 161.741 160.528 160.209 160.398 161.096 
162.268 162.944 161.692 161.436 161.565 162.022 162.673 163.432 164.073 
162.889 162.687 162.815 163.097 163.524 164.12 164.603 165.2 164.081 
163.885 164.021 164.247 164.512 164.933 165.486 165.805 166.315 165.326 
165.104 165.198 165.404 165.608 165.892 166.27 166.664 156.968 157.238 
157.27 157.649 158.074 157.851 158.643 159.307 158.431 158.811 160.021 
160.687 159.602 159.546 159.949 161.452 162.09 161.054 160.823 160.839 
161.227 162.874 163.495 162.495 162.306 162.164 162.22 162.565 164.275 
164.823 163.905 163.746 163.63 163.491 163.537 163.798 165.586 166.03 
165.273 165.107 165.021 164.893 164.753 164.779 164.974 166.77 167.123 
166.543 166.396 166.291 166.226 166.138 166.023 166.009 166.134 167.694 
166.489 167.353 166.092 167.097 165.052 165.79 166.881 164.608 163.415 
165.48 166.631 164.268 162.96 161.768 165.227 166.467 163.977 162.666 
161.338 160.177 165.241 166.534 163.901 162.554 161.177 159.84 158.691 
165.481 166.733 164.118 162.702 161.277 159.868 158.568 157.592 165.754 
166.921 164.46 163.053 161.598 160.165 158.799 157.686 157.058 168.944 
168.654 170.051 169.775 171.23 168.368 170.937 172.318 169.512 168.185 
172.055 173.369 170.692 169.381 168.03 173.182 174.435 171.864 170.586 
169.241 167.819 174.274 175.395 173.028 171.758 170.407 169.016 167.706 
175.245 176.225 174.125 172.914 171.577 170.198 168.944 167.803 176.118 
176.999 175.117 174.01 172.761 171.433 170.194 169.062 167.96 176.915 
177.719 176.018 175.008 173.854 172.619 171.428 170.3 169.175 168.088 