# vtk DataFile Version 4.0
vtk output
ASCII
DATASET POLYDATA
POINTS 1002 float
-102.939 -121.991 76.2247 -103.303 -123.161 75.9214 -103.235 -122.46 75.3284 
-102.892 -121.069 75.5907 -103.171 -121.525 74.6325 -102.663 -120.472 76.5815 
-102.699 -120.059 74.8394 -102.928 -120.572 73.8604 -102.46 -119.492 75.9283 
-102.038 -119.047 76.9742 -102.306 -119.166 74.0221 -102.652 -119.628 73.1109 
-102.051 -118.591 75.1617 -101.569 -118.219 76.3008 -101.053 -117.981 77.372 
-102.023 -118.177 73.2834 -102.619 -118.449 72.5027 -101.542 -117.771 74.3044 
-101.006 -117.439 75.4955 -100.487 -117.227 76.6329 -100.265 -116.862 77.7709 
-101.928 -116.873 72.7411 -102.678 -117.038 72.0783 -101.129 -116.733 73.5375 
-100.43 -116.579 74.589 -99.8846 -116.414 75.778 -99.6923 -116.043 77.0119 
-99.7853 -115.418 78.214 -101.713 -115.576 72.2888 -102.506 -115.763 71.6911 
-100.758 -115.513 72.9572 -99.9439 -115.496 73.8087 -99.3966 -115.418 74.8776 
-99.1146 -115.134 76.1742 -99.1694 -114.582 77.5322 -99.3547 -113.953 78.6965 
-101.319 -114.572 71.7236 -102.11 -114.805 71.1659 -100.426 -114.39 72.3784 
-99.6611 -114.25 73.1708 -99.2477 -114.089 74.1027 -98.9882 -113.836 75.2703 
-98.8389 -113.451 76.677 -98.9079 -112.991 78.0249 -99.0483 -112.565 79.1353 
-100.93 -113.717 71.0714 -101.688 -114.01 70.5685 -100.232 -113.364 71.7203 
-99.6096 -112.948 72.5088 -99.2792 -112.515 73.4067 -99.1749 -112.122 74.4341 
-99.0421 -111.804 75.6785 -98.9352 -111.547 77.0413 -98.926 -111.316 78.3337 
-98.9395 -111.092 79.4876 -100.638 -112.816 70.5138 -101.379 -113.18 70.0977 
-100.104 -112.341 71.1242 -99.6157 -111.712 71.874 -99.1832 -111.021 72.7299 
-98.9876 -110.439 73.6927 -99.0135 -110.074 74.7808 -99.0875 -109.899 75.9702 
-99.0975 -109.802 77.2319 -99.0131 -109.706 78.5397 -98.9057 -109.595 79.7725 
-103.842 -123.681 75.2739 -103.8 -122.932 74.6268 -104.6 -124.029 74.5418 
-104.614 -123.178 73.88 -105.419 -124.243 73.7562 -103.735 -121.975 73.9065 
-105.457 -123.279 73.0903 -106.274 -124.292 73.0218 -104.576 -122.181 73.1572 
-103.512 -120.986 73.1185 -106.283 -123.33 72.2728 -107.286 -124.163 72.2876 
-105.411 -122.302 72.3191 -104.351 -121.213 72.2969 -103.299 -119.955 72.3223 
-107.264 -123.332 71.3873 -108.34 -123.975 71.3882 -106.232 -122.424 71.4462 
-105.162 -121.418 71.3922 -104.065 -120.239 71.3925 -103.277 -118.683 71.6904 
-108.296 -123.191 70.467 -109.236 -123.759 70.459 -107.251 -122.376 70.5807 
-106.052 -121.501 70.5738 -104.858 -120.489 70.5187 -103.951 -118.988 70.7999 
-103.303 -117.213 71.3311 -109.192 -122.836 69.7095 -110.086 -123.384 69.7589 
-108.289 -122.067 69.7513 -107.108 -121.311 69.7597 -105.814 -120.522 69.7836 
-104.798 -119.226 70.07 -104.036 -117.462 70.6027 -103.179 -115.888 71.0195 
-110.073 -122.337 69.1468 -111.044 -122.829 69.2368 -109.184 -121.639 69.0725 
-108.08 -120.984 68.9283 -106.776 -120.387 68.9225 -105.741 -119.348 69.3273 
-105.005 -117.718 69.9682 -104.105 -116.092 70.4191 -102.899 -114.897 70.5536 
-111.024 -121.84 68.6041 -112.003 -122.233 68.7228 -110.073 -121.234 68.5206 
-108.968 -120.639 68.3033 -107.637 -120.159 68.0989 -106.526 -119.378 68.3815 
-105.879 -117.987 69.1667 -105.179 -116.396 69.8559 -104.001 -115.09 70.0961 
-102.587 -114.078 70.0809 -112.27 -121.502 68.0259 -111.281 -121.001 67.9341 
-112.445 -120.697 67.3001 -111.403 -120.009 67.3196 -112.457 -119.557 66.7996 
-110.162 -120.342 67.8741 -111.277 -118.697 66.9919 -112.259 -118.062 66.6838 
-110.077 -119.249 67.391 -108.749 -119.786 67.642 -110.889 -117.177 66.874 
-111.894 -116.497 66.8264 -109.773 -117.816 67.1114 -108.497 -118.536 67.2456 
-107.349 -119.146 67.5723 -110.471 -115.523 66.8029 -111.537 -114.97 67.076 
-109.32 -116.12 66.8253 -108.223 -116.802 66.9979 -107.249 -117.543 67.3781 
-106.519 -117.976 68.1994 -110.274 -113.856 67.0052 -111.266 -113.591 67.514 
-109.023 -114.305 66.755 -107.939 -114.879 66.8769 -107.171 -115.587 67.3942 
-106.573 -116.231 68.2572 -105.962 -116.467 69.1724 -110.155 -112.591 67.7184 
-110.948 -112.496 68.2119 -108.998 -112.835 67.369 -107.837 -113.241 67.3056 
-107.039 -113.782 67.7063 -106.462 -114.436 68.4998 -105.799 -114.932 69.2548 
-104.935 -115.088 69.7341 -109.859 -111.628 68.6629 -110.508 -111.47 68.9862 
-108.938 -111.819 68.441 -107.866 -112.086 68.3092 -106.949 -112.407 68.4157 
-106.232 -112.805 68.9071 -105.451 -113.276 69.4598 -104.462 -113.662 69.7061 
-103.42 -113.899 69.815 -109.418 -110.491 69.4117 -110.034 -110.296 69.6206 
-108.658 -110.686 69.313 -107.75 -110.9 69.2469 -106.806 -111.13 69.2005 
-105.931 -111.337 69.3514 -105.04 -111.583 69.6698 -103.99 -111.949 69.8102 
-102.866 -112.389 69.7429 -101.943 -112.814 69.7891 -100.671 -111.914 69.9937 
-101.212 -111.309 69.7383 -100.111 -110.318 70.0041 -102.168 -110.655 69.7608 
-100.625 -109.509 69.7275 -99.7 -108.465 70.0498 -103.338 -110.126 69.8631 
-101.563 -108.703 69.7103 -100.27 -107.464 69.6969 -99.555 -106.425 70.1835 
-104.463 -109.822 69.7974 -102.724 -108.126 69.8006 -101.266 -106.57 69.6215 
-100.302 -105.289 69.7939 -99.722 -104.53 70.5354 -105.526 -109.613 69.6896 
-103.921 -107.784 69.8526 -102.491 -106.047 69.7798 -101.453 -104.519 69.7241 
-100.614 -103.519 70.1783 -99.9639 -103.126 71.0686 -106.582 -109.381 69.7077 
-105.123 -107.531 69.9076 -103.715 -105.893 70.0569 -102.71 -104.391 70.0745 
-101.852 -103.107 70.2164 -100.949 -102.402 70.8337 -100.199 -101.969 71.6609 
-107.57 -109.21 69.7616 -106.277 -107.402 69.9872 -104.888 -105.951 70.3239 
-103.793 -104.76 70.673 -103.017 -103.379 70.7975 -102.204 -102.229 71.0611 
-101.345 -101.499 71.6267 -100.598 -100.815 72.2598 -108.431 -109.126 69.83 
-107.312 -107.476 70.1173 -106.036 -106.137 70.5556 -104.824 -105.202 71.1798 
-103.96 -103.985 71.55 -103.295 -102.536 71.696 -102.591 -101.444 71.9907 
-101.861 -100.629 72.4034 -101.149 -99.8966 72.8625 -109.172 -109.059 69.9895 
-108.205 -107.653 70.342 -107.105 -106.422 70.8352 -105.928 -105.515 71.5278 
-104.937 -104.465 72.0666 -104.236 -103.041 72.2854 -103.635 -101.724 72.5036 
-103.02 -100.757 72.8165 -102.377 -99.9765 73.1114 -101.696 -99.3846 73.4959 
-100.055 -111.395 70.4907 -99.5572 -109.651 70.5863 -99.6071 -110.691 71.2055 
-99.1454 -107.742 70.7478 -98.9696 -108.857 71.3921 -99.0148 -109.852 72.0387 
-99.0978 -105.864 71.0522 -98.4666 -107.154 71.6569 -98.0858 -108.139 72.3049 
-98.398 -109.113 72.9876 -99.3632 -104.245 71.527 -98.6643 -105.629 72.0403 
-97.7199 -106.812 72.6579 -97.4648 -107.68 73.3691 -98.2613 -108.662 74.0772 
-99.53 -102.747 72.0536 -99.125 -104.008 72.5343 -98.4088 -105.41 73.1114 
-97.6211 -106.541 73.8275 -97.7963 -107.434 74.5425 -98.66 -108.476 75.216 
-99.6691 -101.177 72.5715 -99.2045 -102.125 73.0902 -99.0109 -103.537 73.7065 
-98.6116 -104.976 74.3926 -98.3261 -106.204 75.0729 -98.6424 -107.255 75.6964 
-99.0728 -108.391 76.4007 -100.063 -99.9019 73.116 -99.2618 -100.441 73.6758 
-99.0151 -101.601 74.3935 -99.0565 -103.043 75.1097 -99.0056 -104.496 75.7622 
-98.9847 -105.863 76.3558 -99.1042 -107.064 76.996 -99.1342 -108.297 77.7667 
-100.636 -99.2469 73.7373 -99.6698 -99.4828 74.3064 -99.1218 -100.258 75.077 
-99.0291 -101.408 75.8574 -99.0907 -102.716 76.5621 -99.104 -104.174 77.2007 
-99.0921 -105.614 77.8314 -99.0529 -106.896 78.5197 -98.9678 -108.204 79.2164 
-101.6 -99.0493 74.4 -100.534 -99.0875 74.928 -101.567 -98.9853 75.7963 
-100.574 -99.1508 76.5687 -101.654 -98.9625 77.5952 -99.7169 -99.4734 75.708 
-100.711 -99.1025 78.4162 -101.878 -98.917 79.391 -99.9141 -99.5173 77.3945 
-99.2839 -100.227 76.55 -100.919 -99.1527 80.1573 -102.264 -99.0966 80.9151 
-100.016 -99.4712 79.2132 -99.4127 -100.152 78.2391 -99.0649 -101.241 77.3731 
-101.352 -99.5779 81.6466 -102.735 -99.4917 82.2363 -100.149 -99.7746 80.9568 
-99.3703 -100.236 80.0869 -98.9705 -101.188 79.1256 -98.9542 -102.578 78.1598 
-101.957 -100.123 82.8285 -103.124 -99.9711 83.3553 -100.675 -100.399 82.321 
-99.5885 -100.75 81.7079 -99.0097 -101.477 80.8601 -98.8581 -102.713 79.8999 
-98.9564 -104.189 78.8786 -102.491 -100.773 83.7173 -103.458 -100.692 84.1956 
-101.394 -101.051 83.2638 -100.212 -101.414 82.8378 -99.4283 -102.013 82.1931 
-99.1253 -103.081 81.3543 -98.9794 -104.418 80.5073 -98.9514 -105.722 79.5551 
-102.948 -101.669 84.4751 -103.841 -101.631 84.896 -102.005 -101.861 84.0375 
-100.871 -102.164 83.706 -99.9328 -102.647 83.2635 -99.5286 -103.543 82.5062 
-99.2936 -104.767 81.7263 -99.0021 -105.997 81.0339 -98.8849 -107.134 80.1838 
-103.389 -102.577 85.2445 -104.214 -102.494 85.6209 -102.554 -102.773 84.7944 
-101.511 -103.063 84.459 -100.449 -103.466 84.1914 -99.8397 -104.164 83.6207 
-99.5962 -105.224 82.7787 -99.287 -106.402 82.0759 -98.9623 -107.521 81.4588 
-98.8552 -108.589 80.6646 -102.672 -99.3859 73.9584 -102.722 -99.0416 74.9443 
-103.702 -99.5071 74.625 -103.992 -99.1286 75.6825 -104.752 -99.8154 75.4018 
-102.86 -98.9261 76.4656 -105.224 -99.4262 76.4738 -105.798 -100.239 76.0854 
-104.345 -99.0101 77.2254 -103.089 -98.9028 78.3434 -106.354 -99.7953 77.1504 
-106.873 -100.612 76.5881 -105.686 -99.2433 77.96 -104.673 -99.0111 79.0373 
-103.417 -98.9546 80.0857 -107.461 -100.181 77.7534 -107.832 -101.151 77.1069 
-106.924 -99.4238 78.6229 -106.106 -99.0791 79.6624 -105.03 -99.0701 80.686 
-103.82 -99.1939 81.5564 -108.312 -100.934 78.3856 -108.514 -102.029 77.7231 
-108.066 -99.856 79.2271 -107.492 -99.1598 80.2223 -106.559 -99.0897 81.2326 
-105.384 -99.3241 82.1625 -104.137 -99.5737 82.9025 -108.899 -101.935 78.8897 
-109.16 -102.885 78.2064 -108.783 -100.86 79.6895 -108.558 -99.8583 80.6488 
-107.926 -99.3866 81.6855 -106.896 -99.5002 82.6813 -105.617 -99.7958 83.4895 
-104.369 -100.151 83.9809 -109.602 -102.732 79.1455 -109.949 -103.532 78.4574 
-109.332 -101.913 79.9525 -109.136 -101.054 80.9261 -108.77 -100.345 82.0014 
-108.06 -100.061 83.0434 -107.041 -100.186 83.8927 -105.825 -100.537 84.4396 
-104.678 -101.032 84.7327 -110.405 -103.408 79.3029 -110.678 -104.196 78.6286 
-110.075 -102.679 80.1449 -109.735 -102.042 81.1751 -109.324 -101.486 82.2686 
[...]
CELL_DATA 2000
SCALARS Distance double
LOOKUP_TABLE default
176.219 175.322 175.61 175.223 174.243 174.596 174.176 174.515 174.087 
173.093 173.446 173.006 173.384 172.955 173.32 172.915 171.969 172.285 
171.812 172.18 171.744 172.141 171.741 172.15 171.807 170.845 171.144 
170.605 170.956 170.466 170.886 170.468 170.926 170.579 171.051 170.744 
169.696 169.981 169.377 169.702 169.151 169.563 169.12 169.604 169.254 
169.77 169.48 169.982 169.703 168.563 168.816 168.187 168.464 167.884 
168.245 167.791 168.252 167.904 168.421 168.137 168.68 168.44 168.961 
168.735 167.482 167.697 167.074 167.311 166.716 167.011 166.51 166.928 
166.538 167.053 166.734 167.301 167.047 167.642 167.439 168.01 167.824 
166.478 166.645 166.029 166.242 165.642 165.879 165.289 165.625 165.113 
165.608 165.215 165.826 165.547 166.2 166.006 166.649 166.492 167.095 
166.94 176.649 177.028 176.51 175.791 177.367 176.868 176.135 175.577 
174.755 177.628 177.161 176.437 175.91 175.082 174.485 173.621 177.844 
177.386 176.66 176.177 175.373 174.805 173.925 173.338 172.493 178.041 
177.599 176.875 176.394 175.611 175.073 174.204 173.625 172.747 172.203 
171.378 178.151 177.778 177.083 176.622 175.849 175.318 174.473 173.897 
173.016 172.446 171.593 171.07 170.252 178.157 177.841 177.168 176.783 
176.018 175.544 174.723 174.182 173.34 172.751 171.904 171.316 170.486 
169.944 169.135 178.149 177.832 177.159 176.811 176.058 175.649 174.848 
174.394 173.61 173.097 172.316 171.713 170.908 170.268 169.45 168.86 
168.072 178.161 177.84 177.184 176.82 176.096 175.682 174.9 174.474 
173.718 173.307 172.608 172.132 171.417 170.796 170.015 169.309 168.5 
167.853 167.095 177.96 177.301 177.429 176.975 176.47 176.692 176.208 
176.362 175.848 175.397 175.734 175.239 175.49 174.928 175.131 174.597 
174.159 174.541 174.015 174.376 173.791 174.092 173.526 173.829 173.375 
172.902 173.228 172.598 173.003 172.374 172.8 172.248 172.672 172.261 
172.661 172.305 171.83 171.994 171.27 171.547 170.878 171.3 170.804 
171.325 171.018 171.529 171.257 171.633 171.222 171.099 171.094 170.424 
170.435 169.821 169.986 169.576 169.972 169.778 170.303 170.119 170.562 
170.167 170.45 169.864 170.52 170.52 169.972 169.881 169.361 169.29 
168.901 169.022 168.802 169.163 168.955 169.387 168.964 169.301 168.657 
168.937 168.279 169.796 169.917 169.395 169.45 168.921 168.923 168.423 
168.473 168.042 168.251 167.84 168.185 167.653 168.001 167.31 167.63 
166.936 167.306 166.769 165.881 165.895 165.377 164.476 166.176 165.454 
164.352 163.891 162.994 166.573 165.787 164.554 163.84 162.736 162.35 
161.515 166.936 166.2 164.976 164.117 162.872 162.205 161.208 160.904 
160.271 167.303 166.607 165.478 164.583 163.345 162.494 161.434 160.815 
160.098 159.858 159.507 167.751 167.061 166.021 165.133 163.997 163.104 
162.149 161.33 160.626 160.014 159.616 159.35 159.15 168.242 167.572 
166.603 165.742 164.73 163.872 163.105 162.274 161.696 160.867 160.443 
159.805 159.564 159.176 158.979 168.706 168.083 167.214 166.405 165.529 
164.716 164.106 163.353 162.913 162.088 161.659 160.844 160.521 159.88 
159.67 159.157 158.966 169.125 168.558 167.816 167.096 166.374 165.616 
165.103 164.406 164.035 163.295 162.875 162.065 161.66 160.932 160.668 
160.048 159.865 159.296 159.168 165.72 164.367 165.106 165.248 162.931 
163.719 163.872 164.662 164.843 161.497 162.269 162.402 163.217 163.362 
164.199 164.409 160.331 160.947 161.1 161.783 161.885 162.649 162.826 
163.748 164.117 159.603 160.014 160.258 160.729 160.894 161.369 161.538 
162.231 162.646 163.609 164.212 159.11 159.404 159.639 160.08 160.375 
160.718 160.975 161.321 161.758 162.39 163.083 163.943 164.666 158.702 
158.858 158.9 159.386 159.698 160.244 160.63 161.017 161.471 161.866 
162.512 163.097 163.845 164.554 165.241 158.543 158.457 158.315 158.602 
158.835 159.445 159.92 160.558 161.079 161.605 162.174 162.687 163.327 
163.9 164.545 165.177 165.784 158.744 158.449 158.274 158.227 158.409 
158.731 159.226 159.805 160.395 161.03 161.608 162.226 162.806 163.395 
163.97 164.547 165.116 165.72 166.273 158.899 159.277 158.814 158.484 
160.052 159.422 159.121 158.646 158.619 160.994 160.315 160.034 159.472 
159.424 159.046 159.332 162.025 161.295 160.993 160.41 160.329 159.906 
160.085 159.889 160.373 163.209 162.42 162.128 161.43 161.322 160.803 
160.929 160.635 161.035 160.969 161.568 164.4 163.67 163.444 162.69 
162.579 161.908 162.01 161.55 161.93 161.709 162.296 162.221 162.841 
165.509 164.856 164.703 164.021 163.929 163.24 163.297 162.738 163.068 
162.721 163.272 163.068 163.667 163.515 164.056 166.651 166.002 165.914 
165.268 165.219 164.562 164.593 164.018 164.264 163.875 164.345 164.09 
164.628 164.409 164.916 164.715 165.198 167.812 167.193 167.144 166.514 
166.503 165.854 165.894 165.29 165.482 165.031 165.42 165.123 165.606 
165.365 165.841 165.61 166.077 165.866 166.336 159.393 160.339 159.763 
159.731 161.495 160.833 160.821 160.295 160.471 162.765 162.09 162.123 
161.516 161.698 161.179 161.439 163.987 163.375 163.442 162.865 163.069 
162.509 162.759 162.209 162.494 165.176 164.591 164.681 164.143 164.343 
163.845 164.108 163.581 163.848 163.31 163.629 166.425 165.83 165.951 
165.387 165.58 165.074 165.347 164.879 165.181 164.676 164.953 164.444 
164.754 167.638 167.089 167.219 166.676 166.872 166.34 166.611 166.124 
166.463 165.988 166.299 165.77 166.024 165.517 165.816 168.716 168.234 
168.347 167.88 168.076 167.61 167.874 167.406 167.727 167.271 167.602 
167.106 167.377 166.825 167.083 166.581 166.922 169.708 169.259 169.376 
168.946 169.155 168.751 169.033 168.621 168.918 168.491 168.788 168.354 
168.639 168.157 168.42 167.898 168.186 167.712 168.059 169.139 168.861 
168.629 167.874 168.779 168.437 167.704 167.373 166.593 168.841 168.447 
167.741 167.341 166.612 166.195 165.462 168.919 168.529 167.796 167.403 
166.644 166.254 165.492 165.117 164.386 168.985 168.597 167.84 167.431 
166.618 166.225 165.399 165.057 164.256 163.96 163.188 169.086 168.683 
167.956 167.502 166.706 166.232 165.424 164.984 164.202 163.817 163.065 
162.732 162.014 169.263 168.84 168.162 167.681 166.931 166.41 165.658 
165.145 164.436 163.933 163.237 162.755 162.08 161.672 161.054 169.499 
169.073 168.445 167.956 167.252 166.708 165.984 165.455 164.782 164.275 
163.611 163.076 162.389 161.875 161.228 160.815 160.245 169.745 169.336 
168.755 168.289 167.654 167.105 166.425 165.848 165.194 164.658 164.036 
163.496 162.837 162.265 161.598 161.075 160.477 160.061 159.552 169.851 
170.86 170.095 169.614 171.948 171.176 170.72 169.924 169.512 173.007 
172.285 171.868 171.075 170.657 169.891 169.551 174.02 173.331 172.942 
172.202 171.797 171.046 170.683 169.955 169.635 175.07 174.37 173.998 
173.26 172.87 172.148 171.796 171.083 170.744 170.024 169.697 176.107 
175.439 175.095 174.353 173.975 173.23 172.893 172.181 171.86 171.137 
170.795 170.075 169.766 177.063 176.448 176.138 175.453 175.104 174.368 
174.026 173.296 172.981 172.256 171.927 171.189 170.865 170.163 169.905 
177.962 177.384 177.102 176.472 176.164 175.481 175.15 174.431 174.099 
173.378 173.053 172.326 172.008 171.285 171.009 170.332 170.115 178.777 
178.262 178.01 177.429 177.156 176.521 176.221 175.533 175.202 174.487 
174.159 173.446 173.14 172.429 172.15 171.453 171.211 170.55 170.344 
179.11 179.369 178.964 178.38 179.612 179.209 178.621 178.196 177.554 
179.819 179.421 178.803 178.405 177.75 177.323 176.625 179.99 179.595 
178.931 178.538 177.861 177.471 176.756 176.337 175.602 180.156 179.758 
179.084 178.652 177.954 177.556 176.857 176.446 175.706 175.282 174.553 
180.312 179.929 179.271 178.823 178.122 177.684 176.999 176.57 175.85 
175.397 174.649 174.23 173.529 180.358 180.037 179.364 178.981 178.273 
177.862 177.153 176.729 175.988 175.538 174.762 174.325 173.583 173.206 
172.537 180.221 179.979 179.278 178.984 178.265 177.937 177.203 176.831 
176.05 175.632 174.82 174.4 173.625 173.245 172.543 172.212 171.582 
179.973 179.77 179.082 178.833 178.132 177.857 177.143 176.817 176.05 
175.655 174.856 174.44 173.674 173.28 172.572 172.216 171.565 171.263 
170.685 179.613 178.762 179.038 178.71 177.801 178.135 177.798 178.097 
177.768 176.639 177.088 176.763 177.138 176.796 177.126 176.777 175.276 
175.821 175.509 176.002 175.666 176.086 175.71 176.071 175.67 173.851 
174.419 174.113 174.658 174.347 174.862 174.523 174.95 174.548 174.907 
174.487 172.482 173.032 172.75 173.264 172.951 173.488 173.197 173.716 
173.382 173.786 173.379 173.721 173.324 171.192 171.722 171.477 171.956 
171.629 172.11 171.804 172.354 172.072 172.581 172.215 172.608 172.19 
172.564 172.205 169.966 170.466 170.232 170.714 170.404 170.841 170.511 
170.992 170.71 171.239 170.922 171.388 170.985 171.394 171.016 171.453 
171.169 168.798 169.244 168.98 169.469 169.197 169.651 169.356 169.779 
169.495 169.945 169.664 170.111 169.777 170.186 169.845 170.266 170.006 
170.472 170.291 180.002 180.349 179.853 179.188 180.718 180.214 179.502 
178.972 178.211 180.918 180.523 179.726 179.21 178.328 177.858 176.999 
180.646 180.513 179.65 179.259 178.245 177.83 176.86 176.498 175.592 
179.921 180.009 179.197 178.97 177.905 177.57 176.529 176.233 175.273 
174.993 174.11 179.123 179.242 178.573 178.438 177.448 177.14 176.102 
175.826 174.859 174.602 173.676 173.464 172.655 178.469 178.535 177.959 
177.876 177.02 176.726 175.746 175.43 174.498 174.204 173.276 173.005 
172.146 172.008 171.306 177.913 177.927 177.356 177.321 176.576 176.358 
175.463 175.144 174.252 173.922 173.025 172.674 171.792 171.535 170.796 
170.705 170.092 177.437 177.387 176.802 176.756 176.088 175.943 175.148 
174.886 174.037 173.721 172.855 172.489 171.612 171.266 170.491 170.278 
169.647 169.553 168.981 180.581 181.498 180.985 180.901 182.381 181.851 
181.734 181.297 181.249 183.252 182.691 182.469 182.041 181.96 181.604 
181.469 183.922 183.472 183.155 182.712 182.51 182.186 181.978 181.616 
181.199 184.2 183.959 183.676 183.322 183.057 182.688 182.353 181.967 
181.442 181.035 180.394 184.361 184.172 184.01 183.756 183.546 183.201 
182.834 182.354 181.758 181.231 180.559 180.128 179.535 184.644 184.441 
184.342 184.1 183.912 183.613 183.253 182.819 182.258 181.677 181.036 
180.445 179.883 179.403 178.925 184.785 184.703 184.569 184.411 184.16 
183.903 183.478 183.127 182.586 182.151 181.591 181.058 180.524 179.941 
179.444 178.908 178.438 184.613 184.659 184.471 184.463 184.173 184.028 
183.571 183.277 182.722 182.382 181.859 181.504 181.01 180.563 180.04 
179.505 178.98 178.45 177.974 184.406 184.064 184.222 184.242 183.746 
183.854 183.762 183.992 183.932 183.225 183.42 183.207 183.441 183.293 
183.554 183.339 182.378 182.705 182.462 182.77 182.581 182.871 182.638 
182.845 182.521 181.409 181.768 181.539 181.906 181.732 182.1 181.893 
182.141 181.822 181.996 181.674 180.413 180.8 180.56 180.939 180.745 
181.171 180.969 181.323 180.992 181.243 180.884 181.142 180.833 179.31 
179.756 179.509 179.926 179.702 180.141 179.928 180.329 180.003 180.311 
179.918 180.24 179.91 180.244 179.898 178.183 178.625 178.398 178.835 
178.627 179.078 178.888 179.299 179.022 179.325 178.958 179.243 178.916 
179.261 178.959 179.262 178.88 177.156 177.549 177.341 177.747 177.557 
178 177.829 178.267 178.029 178.373 178.035 178.317 177.989 178.303 
178.031 178.342 178.03 178.265 177.89 176.535 175.584 176.288 176.701 
174.488 175.276 175.737 176.458 176.908 173.342 174.147 174.64 175.441 
175.94 176.685 177.163 172.264 173.033 173.532 174.333 174.836 175.641 
176.123 176.9 177.328 171.198 171.962 172.442 173.243 173.719 174.51 
174.938 175.746 176.162 176.967 177.329 170.12 170.853 171.274 172.099 
172.562 173.381 173.784 174.549 174.936 175.741 176.174 176.958 177.336 
169.151 169.795 170.158 170.904 171.359 172.192 172.66 173.432 173.844 
174.582 175.044 175.832 176.319 177.039 177.42 168.279 168.882 169.239 
169.871 170.306 171.048 171.57 172.349 172.841 173.564 174.03 174.772 
175.269 176.028 176.455 177.126 177.425 167.412 168.023 168.392 169.006 
169.416 170.085 170.577 171.32 171.834 172.576 173.044 173.774 174.228 
174.98 175.4 176.115 176.43 177.069 177.299 177.022 176.134 176.495 
176.324 175.11 175.529 175.304 175.737 175.546 173.953 174.416 174.149 
174.618 174.36 174.855 174.602 172.75 173.206 172.884 173.364 173.043 
173.57 173.271 173.807 173.504 171.529 171.977 171.596 172.047 171.655 
172.171 171.814 172.387 172.052 172.634 172.3 170.285 170.723 170.31 
170.735 170.285 170.754 170.336 170.88 170.507 171.106 170.768 171.38 
171.058 169.106 169.482 169.042 169.432 168.943 169.371 168.901 169.397 
168.986 169.552 169.221 169.837 169.576 170.184 169.963 168.035 168.339 
167.862 168.189 167.68 168.044 167.542 167.971 167.524 168.044 167.706 
168.317 168.102 168.745 168.602 169.212 169.109 167.037 167.291 166.802 
167.069 166.575 166.859 166.365 166.684 166.222 166.633 166.282 166.835 
166.64 167.296 167.199 167.863 167.797 168.434 168.4 178.791 178.807 
179.128 179.814 178.797 179.13 179.833 180.196 180.921 178.795 179.125 
179.796 180.17 180.907 181.295 181.997 178.75 179.131 179.826 180.162 
180.857 181.227 181.946 182.327 182.967 178.587 179.051 179.811 180.205 
180.896 181.212 181.874 182.238 182.918 183.267 183.799 178.335 178.836 
179.592 180.103 180.81 181.209 181.828 182.177 182.814 183.191 183.767 
184.026 184.348 178.03 178.531 179.227 179.787 180.479 180.991 181.603 
182.042 182.642 183.066 183.618 183.942 184.263 184.409 184.5 177.656 
178.159 178.788 179.355 180.005 180.569 181.154 181.676 182.227 182.755 
183.268 183.708 184.005 184.236 184.296 184.415 184.433 177.233 177.722 
178.28 178.843 179.431 180.026 180.562 181.126 181.586 182.166 182.598 
183.173 183.473 183.865 183.943 184.144 184.156 184.327 184.418 178.951 
179.975 179.45 179.416 181.101 180.537 180.465 179.869 179.759 182.203 
181.681 181.626 180.975 180.835 180.214 180.108 183.163 182.729 182.707 
182.126 182.024 181.384 181.3 180.645 180.51 183.916 183.579 183.5 
183.062 182.948 182.491 182.439 181.889 181.743 181.018 180.681 184.371 
184.166 183.984 183.654 183.411 183.142 183.038 182.792 182.637 182.139 
181.727 180.994 180.468 184.528 184.461 184.292 184.02 183.712 183.433 
183.248 183.122 183.004 182.766 182.399 181.859 181.292 180.634 180.12 
184.558 184.568 184.546 184.338 184.134 183.779 183.607 183.355 183.321 
183.096 182.906 182.447 181.973 181.358 180.838 180.258 179.839 184.619 
184.653 184.764 184.648 184.58 184.275 184.146 183.832 183.833 183.573 
183.535 183.092 182.753 182.093 181.586 180.946 180.497 179.97 179.601 
178.431 178.866 178.38 177.781 179.213 178.773 178.177 177.67 176.968 
179.536 179.095 178.509 178.029 177.292 176.737 175.902 179.812 179.375 
178.728 178.301 177.541 177.011 176.122 175.567 174.68 179.873 179.512 
178.745 178.398 177.597 177.166 176.264 175.749 174.856 174.342 173.494 
179.702 179.42 178.614 178.301 177.485 177.128 176.265 175.832 174.983 
174.522 173.742 173.229 172.473 179.477 179.224 178.497 178.17 177.411 
177.039 176.259 175.842 175.078 174.652 173.954 173.506 172.837 172.317 
171.678 179.28 179.057 178.415 178.107 177.422 177.052 176.347 175.925 
175.226 174.795 174.148 173.733 173.114 172.666 172.04 171.572 170.993 
179.081 178.892 178.289 178.035 177.388 177.082 176.417 176.051 175.372 
174.969 174.316 173.926 173.307 172.909 172.273 171.851 171.211 170.82 
170.226 180.571 180.856 181.001 181.525 180.983 181.239 181.832 181.973 
182.475 180.889 181.24 181.844 182.18 182.813 182.967 183.433 180.724 
181.074 181.625 182.044 182.716 183.149 183.758 183.888 184.157 180.603 
180.939 181.503 181.84 182.466 182.924 183.578 183.979 184.341 184.388 
184.395 180.446 180.835 181.495 181.828 182.49 182.792 183.404 183.732 
184.158 184.366 184.493 184.474 184.468 180.196 180.632 181.323 181.797 
182.555 182.915 183.528 183.715 184.098 184.214 184.436 184.506 184.634 
184.614 184.71 179.904 180.328 180.939 181.497 182.239 182.822 183.457 
183.803 184.112 184.221 184.36 184.458 184.619 184.724 184.851 184.857 
184.873 179.616 180.005 180.516 181.026 181.647 182.3 182.899 183.472 
183.769 184.063 184.089 184.277 184.335 184.578 184.695 184.863 184.864 
184.868 184.734 
POINT_DATA 1002
SCALARS Distance double
LOOKUP_TABLE default
175.886 176.776 175.998 174.95 175.019 174.835 173.821 173.892 173.762 
173.668 172.627 172.763 172.573 172.534 172.545 171.468 171.678 171.343 
171.319 171.373 171.506 170.289 170.57 170.06 169.998 170.089 170.276 
170.452 169.086 169.436 168.759 168.635 168.728 168.947 169.22 169.44 
167.928 168.326 167.55 167.343 167.397 167.591 167.878 168.227 168.54 
166.838 167.282 166.457 166.143 166.047 166.175 166.442 166.828 167.267 
167.668 165.817 166.336 165.433 165.038 164.688 164.608 164.868 165.336 
165.858 166.355 166.801 177.175 176.358 177.552 176.694 177.856 175.355 
176.936 178.095 175.682 174.211 177.129 178.311 175.917 174.524 173.042 
177.361 178.454 176.137 174.779 173.31 171.892 177.521 178.481 176.371 
175.041 173.602 172.138 170.752 177.525 178.468 176.46 175.224 173.906 
172.515 171.063 169.646 177.504 178.476 176.449 175.266 174.056 172.872 
171.567 170.097 168.61 177.544 178.467 176.507 175.332 174.104 172.997 
171.961 170.728 169.222 167.67 177.871 176.876 177.16 176.044 176.208 
175.705 174.953 175.033 174.724 174.358 173.64 173.808 173.455 173.196 
173.028 172.24 172.66 171.917 171.753 171.796 171.962 171.085 171.746 
170.488 170.233 170.429 170.833 170.981 170.455 171.098 169.737 169.242 
169.258 169.652 169.878 169.645 170.01 170.455 169.456 168.896 168.571 
168.583 168.635 168.383 167.947 169.29 169.645 168.889 168.423 167.956 
167.603 167.339 166.988 166.562 166.302 165.008 164.823 163.599 164.981 
163.255 162.131 165.395 163.29 161.666 160.751 165.869 163.668 161.663 
160.3 159.768 166.354 164.216 162.155 160.488 159.513 159.246 166.878 
164.834 162.946 161.349 160.045 159.295 158.915 167.419 165.518 163.841 
162.531 161.21 160.078 159.323 158.703 167.944 166.282 164.792 163.688 
162.524 161.247 160.241 159.45 158.748 168.443 167.064 165.778 164.742 
163.677 162.426 161.311 160.454 159.691 159.066 164.496 163.065 164.059 
161.614 162.529 163.502 160.481 161.211 161.92 163.058 159.799 160.499 
160.979 161.719 163.165 159.172 159.95 160.681 161.27 162.287 163.798 
158.491 159.042 160.108 161.107 162.044 163.207 164.533 158.182 158.278 
159.191 160.467 161.67 162.815 163.963 165.143 158.42 158.224 158.729 
159.763 160.961 162.199 163.412 164.541 165.668 159.215 158.811 159.808 
159.651 160.704 158.907 160.596 161.686 159.862 159.507 161.607 162.785 
160.779 160.353 160.401 162.873 163.972 161.908 161.283 161.158 161.552 
164.168 165.063 163.293 162.538 162.214 162.423 162.92 165.338 166.127 
164.605 163.892 163.464 163.53 163.868 164.22 166.544 167.283 165.863 
165.191 164.698 164.634 164.875 165.143 165.39 167.754 168.401 167.136 
166.511 165.984 165.765 165.865 166.081 166.302 166.544 159.901 160.176 
160.941 161.385 162.162 160.906 162.726 163.409 162.263 161.932 163.993 
164.561 163.611 163.337 163.015 165.223 165.748 164.83 164.594 164.398 
164.135 166.522 167.007 166.113 165.802 165.65 165.499 165.23 167.741 
168.168 167.396 167.11 166.924 166.819 166.585 166.26 168.796 169.186 
168.506 168.327 168.187 168.072 167.917 167.632 167.359 169.797 170.141 
169.537 169.423 169.351 169.217 169.076 168.925 168.707 168.496 169.33 
168.117 169.139 168.058 169.143 166.941 168.143 169.24 167.026 165.871 
168.207 169.315 167.042 165.867 164.742 168.272 169.372 167.046 165.77 
164.564 163.465 168.409 169.481 167.19 165.884 164.621 163.426 162.308 
168.634 169.677 167.447 166.158 164.935 163.755 162.534 161.4 168.912 
169.911 167.79 166.521 165.276 164.14 162.943 161.694 160.592 170.58 
170.377 171.626 171.527 172.694 170.258 172.637 173.694 171.442 170.275 
173.665 174.706 172.529 171.424 170.354 174.744 175.762 173.589 172.495 
171.474 170.407 175.815 176.748 174.731 173.609 172.578 171.532 170.449 
176.785 177.661 175.818 174.768 173.704 172.663 171.588 170.562 177.709 
178.519 176.817 175.862 174.825 173.77 172.73 171.709 170.76 178.561 
179.254 177.765 176.89 175.915 174.87 173.841 172.851 171.893 170.981 