# vtk DataFile Version 4.0
vtk output
ASCII
DATASET POLYDATA
POINTS 1002 float
-102.472 -119.857 74.8981 -102.965 -120.971 74.6234 -102.834 -120.331 73.9131 
-102.361 -119.089 74.1032 -102.8 -119.513 73.1294 -102.165 -118.385 75.1216 
-102.319 -118.169 73.2536 -102.724 -118.639 72.1962 -102.012 -117.487 74.293 
-101.859 -116.678 75.3577 -102.179 -117.146 72.3052 -102.55 -117.61 71.2241 
-101.756 -116.573 73.4238 -101.387 -115.907 74.5539 -101.14 -115.246 75.7293 
-101.901 -116.034 71.3534 -102.411 -116.402 70.4365 -101.355 -115.65 72.4605 
-100.704 -115.283 73.6518 -100.271 -114.823 74.9182 -100.099 -114.24 76.1371 
-101.611 -114.95 70.571 -102.373 -115.172 69.8556 -100.933 -114.716 71.5104 
-100.14 -114.555 72.6294 -99.4931 -114.321 73.931 -99.3076 -113.786 75.2617 
-99.3842 -113.015 76.4304 -101.39 -113.86 69.9282 -102.307 -113.979 69.3266 
-100.576 -113.733 70.7098 -99.8432 -113.577 71.6648 -99.2093 -113.345 72.8641 
-98.9492 -112.865 74.2401 -99.0222 -112.097 75.5536 -99.1387 -111.272 76.6982 
-101.187 -112.741 69.2463 -102.093 -112.919 68.727 -100.323 -112.586 69.9579 
-99.6679 -112.37 70.8261 -99.2101 -112.007 71.8955 -98.9785 -111.464 73.1977 
-98.9905 -110.775 74.5659 -99.0195 -110.07 75.8545 -98.9834 -109.47 77.0095 
-100.924 -111.798 68.4799 -101.761 -112.103 68.0558 -100.158 -111.447 69.1519 
-99.5844 -111.07 70.0068 -99.2327 -110.612 71.0135 -99.0291 -110.002 72.221 
-98.9994 -109.311 73.5366 -99.0426 -108.694 74.8362 -98.9598 -108.221 76.1079 
-98.8388 -107.849 77.2642 -100.639 -111.021 67.7595 -101.435 -111.38 67.433 
-100.012 -110.504 68.3834 -99.5613 -109.906 69.2188 -99.2731 -109.317 70.17 
-99.0581 -108.686 71.2896 -98.9339 -107.983 72.5544 -98.988 -107.338 73.7986 
-99.0513 -106.858 75.0185 -98.9565 -106.529 76.2614 -98.8423 -106.283 77.3938 
-103.514 -121.552 73.9389 -103.486 -120.75 73.2345 -104.29 -121.893 73.3235 
-104.334 -120.989 72.537 -105.221 -122.026 72.592 -103.424 -119.92 72.3424 
-105.238 -121.2 71.6789 -106.184 -122.124 71.615 -104.197 -120.234 71.5023 
-103.239 -119.111 71.2877 -106.144 -121.356 70.7218 -107.155 -122.131 70.6925 
-105.084 -120.439 70.6442 -104.011 -119.39 70.4928 -103.119 -118.006 70.3985 
-107.16 -121.216 69.8599 -108.254 -121.777 69.9816 -106.072 -120.408 69.7809 
-105.023 -119.376 69.793 -104.073 -118.122 69.7996 -103.214 -116.623 69.7889 
-108.328 -120.854 69.0054 -109.443 -121.254 69.1775 -107.144 -120.247 68.8491 
-106.02 -119.314 68.8874 -105.083 -118.136 69.077 -104.216 -116.738 69.2014 
-103.298 -115.252 69.2661 -109.452 -120.632 68.0728 -110.485 -121.012 68.205 
-108.248 -120.121 67.9328 -106.949 -119.382 67.8475 -105.855 -118.354 67.9981 
-104.994 -116.999 68.3151 -104.14 -115.425 68.6015 -103.171 -113.994 68.7458 
-110.376 -120.537 67.2117 -111.307 -120.971 67.3145 -109.266 -119.918 67.1892 
-107.938 -119.234 67.0883 -106.66 -118.437 67.0508 -105.677 -117.282 67.3034 
-104.859 -115.72 67.7685 -103.969 -114.15 68.1399 -102.901 -112.961 68.2017 
-111.153 -120.234 66.5558 -112.021 -120.701 66.6744 -110.143 -119.507 66.5942 
-108.918 -118.742 66.5823 -107.631 -118.044 66.4996 -106.562 -117.169 66.5903 
-105.728 -115.868 66.9931 -104.891 -114.361 67.4983 -103.845 -113.083 67.7445 
-102.609 -112.153 67.6376 -112.193 -119.704 66.174 -111.219 -119.038 66.1029 
-112.29 -118.238 65.9363 -111.17 -117.717 65.6634 -112.248 -116.926 65.6766 
-110.046 -118.266 66.0652 -110.997 -116.735 65.0304 -112.139 -115.852 65.0984 
-109.841 -117.219 65.3436 -108.732 -117.551 65.9816 -110.753 -115.528 64.3706 
-111.938 -114.537 64.5089 -109.559 -116.265 64.4898 -108.515 -116.504 65.1962 
-107.555 -116.767 66.0018 -110.388 -113.782 64.2141 -111.499 -113.167 64.5708 
-109.24 -114.598 63.9697 -108.229 -115.177 64.4042 -107.466 -115.418 65.412 
-106.659 -115.657 66.3181 -109.965 -112.291 64.7413 -110.983 -112.06 65.2227 
-108.946 -112.658 64.1781 -107.954 -113.314 64.0923 -107.214 -113.914 64.8686 
-106.646 -114.188 65.9966 -105.834 -114.298 66.8696 -109.707 -111.153 65.4744 
-110.651 -110.837 65.827 -108.777 -111.311 64.9244 -107.836 -111.656 64.5244 
-106.96 -112.327 64.841 -106.344 -112.844 65.7766 -105.697 -112.976 66.6832 
-104.761 -113.004 67.2886 -109.555 -109.784 66.0171 -110.411 -109.334 66.1924 
-108.654 -110.121 65.7049 -107.752 -110.373 65.3569 -106.805 -110.798 65.3989 
-105.953 -111.303 65.9618 -105.214 -111.572 66.6047 -104.328 -111.711 67.0071 
-103.358 -111.924 67.2916 -109.273 -108.255 66.4466 -110.045 -107.923 66.5652 
-108.392 -108.642 66.3054 -107.486 -108.951 66.1186 -106.551 -109.21 66.0833 
-105.587 -109.494 66.353 -104.656 -109.737 66.6996 -103.708 -110.008 66.8433 
-102.734 -110.466 66.8802 -101.935 -110.995 67.054 -100.675 -110.221 67.0683 
-101.165 -109.501 66.7032 -100.193 -108.561 66.9225 -101.978 -108.635 66.6251 
-100.699 -107.598 66.5377 -99.9837 -106.554 66.9189 -103.011 -108.001 66.728 
-101.493 -106.689 66.4369 -100.501 -105.655 66.4865 -99.7919 -104.406 66.9261 
-104.113 -107.705 66.7554 -102.555 -106.098 66.5481 -101.302 -104.94 66.357 
-100.388 -103.595 66.562 -99.6479 -102.091 67.0399 -105.196 -107.546 66.6572 
-103.764 -105.747 66.7118 -102.472 -104.326 66.508 -101.388 -102.9 66.5378 
-100.493 -101.216 66.8188 -99.7959 -99.8611 67.2861 -106.218 -107.413 66.6255 
-104.909 -105.582 66.8719 -103.779 -103.855 66.7993 -102.739 -102.285 66.7609 
-101.747 -100.66 66.9043 -100.878 -99.2185 67.1584 -100.14 -98.2646 67.6146 
-107.204 -107.245 66.727 -105.942 -105.595 67.0565 -104.904 -103.808 67.1368 
-104.001 -102.071 67.1166 -103.051 -100.506 67.2054 -102.137 -99.1853 67.3969 
-101.307 -98.1419 67.7004 -100.547 -97.3496 68.2385 -108.162 -107.022 66.8683 
-106.924 -105.658 67.2823 -105.865 -104.09 67.5155 -104.997 -102.381 67.596 
-104.106 -100.79 67.6867 -103.219 -99.5113 67.8787 -102.442 -98.4726 68.1837 
-101.727 -97.5537 68.6233 -101.083 -96.7954 69.2459 -109.022 -106.848 67.0146 
-107.825 -105.739 67.5356 -106.739 -104.432 67.9235 -105.871 -102.878 68.1435 
-105.035 -101.304 68.2988 -104.176 -99.9631 68.4725 -103.427 -98.8583 68.7523 
-102.788 -97.8867 69.1821 -102.2 -97.0566 69.7243 -101.692 -96.4332 70.3609 
-100.019 -109.694 67.5592 -99.6863 -107.837 67.568 -99.5849 -108.944 68.3573 
-99.4352 -105.615 67.58 -99.2881 -106.922 68.4038 -99.295 -108.139 69.2764 
-99.1642 -103.262 67.5856 -98.972 -104.636 68.3947 -99.025 -106.028 69.3387 
-99.0881 -107.39 70.3311 -99.1344 -100.932 67.7838 -98.8719 -102.328 68.5497 
-98.8907 -103.747 69.5046 -98.9451 -105.19 70.5882 -98.9201 -106.637 71.638 
-99.3223 -98.9158 68.0875 -99.0049 -100.132 68.9256 -99.048 -101.495 69.9331 
-99.0568 -102.896 71.0488 -98.9452 -104.417 72.1183 -98.9103 -105.924 72.9993 
-99.5687 -97.4764 68.5294 -99.0422 -98.2336 69.3354 -99.0618 -99.4064 70.431 
-99.1561 -100.749 71.6088 -99.0694 -102.25 72.7028 -99.0229 -103.814 73.5302 
-99.0632 -105.359 74.2382 -100.061 -96.6074 69.3685 -99.2412 -96.8978 69.9687 
-98.9409 -97.7297 70.9732 -98.9504 -98.9312 72.1288 -98.9123 -100.358 73.2401 
-98.9522 -101.849 74.1019 -99.1097 -103.359 74.7585 -99.1129 -104.962 75.4808 
-100.815 -96.156 70.4898 -99.9204 -96.1725 70.9473 -99.2768 -96.672 71.7671 
-98.9438 -97.613 72.7583 -98.7005 -98.8469 73.7493 -98.6162 -100.191 74.6156 
-98.8531 -101.543 75.3049 -99.0788 -103.047 75.9824 -99.0094 -104.719 76.7329 
-101.817 -95.9962 71.5359 -101.031 -95.7856 71.9362 -101.938 -95.5277 72.864 
-101.215 -95.3712 73.5163 -101.994 -94.8151 74.3002 -100.222 -95.9556 72.6408 
-101.226 -94.8447 75.043 -102.144 -94.2533 75.7379 -100.448 -95.7546 74.3409 
-99.5525 -96.6256 73.5256 -101.307 -94.7903 76.4201 -102.507 -94.5751 77.0435 
-100.471 -95.5937 75.809 -99.7307 -96.6108 75.1456 -98.9798 -97.6502 74.3939 
-101.645 -95.5136 77.7259 -102.889 -95.5071 78.2742 -100.609 -95.8834 77.1702 
-99.8228 -96.6392 76.5754 -99.0362 -97.6641 75.8855 -98.5265 -98.8592 75.2002 
-102.056 -96.3229 79.0502 -103.212 -96.2835 79.5248 -100.978 -96.5121 78.6101 
-100.077 -96.9378 78.0956 -99.2584 -97.7546 77.3881 -98.6239 -98.8781 76.6214 
-98.5384 -100.151 75.937 -102.498 -96.9612 80.2513 -103.63 -96.9717 80.6318 
-101.412 -97.1363 79.9282 -100.45 -97.467 79.5932 -99.6491 -98.1336 78.9848 
-99.0284 -99.1591 78.1453 -98.7649 -100.328 77.3569 -98.8832 -101.615 76.6611 
-103.023 -97.8001 81.1887 -104.095 -97.8466 81.484 -101.948 -97.9667 80.8942 
-100.917 -98.2683 80.6561 -100.062 -98.8055 80.2812 -99.4893 -99.7298 79.5937 
-99.1788 -100.858 78.7898 -99.0557 -102.042 78.0803 -99.0231 -103.351 77.4149 
-103.495 -98.7618 81.9888 -104.445 -98.7328 82.2338 -102.563 -98.9939 81.6564 
-101.592 -99.3287 81.3399 -100.632 -99.7383 81.0731 -99.9103 -100.438 80.6747 
-99.5414 -101.479 80.0349 -99.3442 -102.643 79.3244 -99.1319 -103.855 78.6822 
-98.9309 -105.106 78.0564 -102.532 -96.4796 70.9873 -102.599 -96.0432 72.125 
-103.363 -96.5545 71.5342 -103.409 -96.1384 72.7048 -104.314 -96.7604 72.0765 
-102.666 -95.4629 73.4344 -104.454 -96.3606 73.3062 -105.384 -97.1694 72.6714 
-103.573 -95.5827 74.0605 -102.881 -94.6708 74.9021 -105.68 -96.766 73.8016 
-106.469 -97.6769 73.159 -104.757 -95.9729 74.6071 -104.034 -95.053 75.4981 
-103.364 -94.3576 76.3398 -106.917 -97.2782 74.1604 -107.516 -98.239 73.5488 
-106.083 -96.5192 74.9891 -105.31 -95.7878 75.9468 -104.693 -95.0734 76.8483 
-103.872 -94.9461 77.6201 -108.042 -97.9036 74.6178 -108.45 -98.9685 74.0368 
-107.425 -97.0733 75.4177 -106.694 -96.4415 76.3943 -106.032 -95.8568 77.3238 
-105.23 -95.5717 78.1549 -104.189 -95.8018 78.9058 -108.983 -98.7296 75.138 
-109.287 -99.8036 74.525 -108.571 -97.7954 75.9133 -108.046 -97.0644 76.8845 
-107.448 -96.4631 77.8564 -106.652 -96.1341 78.7056 -105.589 -96.2311 79.5051 
-104.51 -96.56 80.1715 -109.839 -99.614 75.4786 -110.133 -100.546 74.8373 
-109.462 -98.7495 76.2372 -109.046 -97.991 77.1825 -108.594 -97.2912 78.2215 
-107.946 -96.8187 79.1495 -106.995 -96.8137 79.9654 -105.921 -97.106 80.6681 
-104.937 -97.4373 81.1607 -110.671 -100.378 75.6894 -110.926 -101.188 75.0572 
[...]
CELL_DATA 2000
SCALARS Distance double
LOOKUP_TABLE default
173.926 173.037 173.302 172.898 172.048 172.348 171.895 172.181 171.715 
170.902 171.268 170.779 171.106 170.594 170.918 170.449 169.643 170.027 
169.516 169.902 169.379 169.744 169.272 169.653 169.258 168.45 168.759 
168.23 168.604 168.099 168.488 168.031 168.45 168.073 168.5 168.146 
167.346 167.598 167.029 167.353 166.843 167.215 166.757 167.183 166.801 
167.272 166.921 167.367 166.99 166.236 166.472 165.844 166.15 165.594 
165.963 165.47 165.891 165.465 165.949 165.581 166.081 165.715 166.176 
165.81 165.156 165.347 164.681 164.943 164.349 164.694 164.181 164.587 
164.129 164.586 164.183 164.694 164.337 164.857 164.523 165.013 164.708 
164.166 164.3 163.628 163.819 163.221 163.489 162.976 163.323 162.869 
163.269 162.849 163.307 162.945 163.464 163.16 163.698 163.428 163.946 
163.702 174.383 174.803 174.24 173.517 175.188 174.64 173.879 173.319 
172.54 175.494 174.99 174.226 173.662 172.842 172.279 171.421 175.737 
175.271 174.532 173.991 173.169 172.583 171.706 171.107 170.205 175.915 
175.49 174.755 174.263 173.459 172.906 172.058 171.444 170.555 169.916 
169.045 176.024 175.639 174.914 174.455 173.66 173.155 172.341 171.797 
170.951 170.324 169.442 168.803 167.956 176.138 175.76 175.095 174.634 
173.864 173.349 172.542 172.038 171.225 170.683 169.811 169.197 168.301 
167.7 166.854 176.281 175.915 175.284 174.841 174.083 173.568 172.743 
172.232 171.421 170.918 170.084 169.52 168.641 168.037 167.173 166.592 
165.783 176.348 176.035 175.368 174.983 174.192 173.734 172.881 172.404 
171.586 171.113 170.329 169.804 169.006 168.408 167.601 166.971 166.174 
165.568 164.808 176.104 175.201 175.488 175.065 174.165 174.473 174.021 
174.326 173.837 173.159 173.439 172.952 173.225 172.714 173.021 172.522 
172.012 172.364 171.83 172.137 171.581 171.884 171.386 171.716 171.256 
170.728 171.065 170.433 170.845 170.233 170.662 170.147 170.567 170.131 
170.49 170.035 169.712 169.835 169.123 169.382 168.742 169.181 168.711 
169.248 168.896 169.358 168.954 169.272 168.768 168.967 168.998 168.319 
168.321 167.696 167.858 167.445 167.86 167.631 168.13 167.837 168.199 
167.71 167.962 167.393 168.115 168.264 167.66 167.684 167.077 167.087 
166.613 166.809 166.517 166.924 166.618 167.032 166.52 166.836 166.195 
166.501 165.913 167.115 167.337 166.764 166.938 166.323 166.439 165.838 
166.003 165.479 165.797 165.28 165.695 165.053 165.464 164.737 165.152 
164.502 164.957 164.458 163.549 163.427 162.973 162.052 163.511 162.851 
161.744 161.398 160.528 163.817 163.002 161.75 161.152 160.166 159.888 
159.05 164.204 163.383 162.12 161.302 160.22 159.683 158.791 158.436 
157.558 164.59 163.832 162.675 161.784 160.667 159.921 158.977 158.385 
157.472 157 156.174 165.031 164.307 163.273 162.399 161.317 160.475 
159.517 158.765 157.879 157.178 156.371 155.839 155.251 165.522 164.83 
163.898 163.065 162.076 161.203 160.29 159.447 158.634 157.819 157.123 
156.376 155.865 155.273 154.965 165.979 165.35 164.521 163.761 162.903 
162.051 161.237 160.349 159.614 158.742 158.142 157.337 156.919 156.193 
155.941 155.306 155.203 166.387 165.824 165.116 164.442 163.725 162.946 
162.246 161.388 160.729 159.843 159.281 158.452 158.053 157.325 157.081 
156.423 156.303 155.718 155.736 163.386 161.977 162.735 162.844 160.514 
161.31 161.469 162.246 162.432 158.972 159.796 159.942 160.82 161.048 
161.883 162.159 157.373 158.173 158.261 159.205 159.462 160.426 160.764 
161.662 162.025 155.963 156.605 156.709 157.565 157.89 158.842 159.274 
160.232 160.679 161.574 161.998 154.989 155.366 155.494 156.196 156.611 
157.449 157.976 158.849 159.391 160.263 160.773 161.614 162.103 154.573 
154.618 154.63 155.128 155.523 156.304 156.865 157.7 158.28 159.098 
159.661 160.465 161.013 161.81 162.347 154.757 154.468 154.35 154.467 
154.752 155.308 155.856 156.632 157.228 158.041 158.612 159.414 159.974 
160.768 161.332 162.114 162.656 155.365 154.902 154.778 154.516 154.724 
154.843 155.354 155.81 156.419 157.061 157.64 158.378 158.936 159.73 
160.302 161.11 161.686 162.451 162.978 155.703 156.142 155.667 155.206 
156.568 156.19 155.874 155.365 155.147 156.944 156.618 156.482 156.117 
156.019 155.559 155.647 157.67 157.129 157.051 156.731 156.787 156.442 
156.528 156.195 156.51 158.913 158.134 158.011 157.469 157.552 157.19 
157.322 157.005 157.225 157.064 157.552 160.269 159.49 159.34 158.641 
158.657 158.11 158.242 157.816 158.033 157.759 158.18 158.135 158.781 
161.52 160.798 160.655 159.976 159.958 159.338 159.45 158.901 159.145 
158.703 159.127 158.878 159.509 159.456 160.184 162.771 162.055 161.943 
161.264 161.263 160.636 160.75 160.185 160.447 159.957 160.389 160.001 
160.596 160.352 161.049 160.933 161.628 163.98 163.322 163.259 162.595 
162.629 161.975 162.09 161.493 161.731 161.25 161.652 161.281 161.812 
161.514 162.115 161.893 162.513 162.363 162.949 156.215 157.046 156.598 
156.562 157.938 157.427 157.345 156.928 156.886 159.037 158.404 158.309 
157.761 157.693 157.235 157.243 160.281 159.598 159.517 158.862 158.849 
158.229 158.3 157.771 158.013 161.523 160.864 160.827 160.163 160.22 
159.562 159.722 159.08 159.362 158.824 159.26 162.791 162.134 162.166 
161.518 161.648 161.013 161.237 160.603 160.894 160.295 160.661 160.164 
160.596 164.091 163.451 163.529 162.9 163.084 162.479 162.745 162.137 
162.433 161.824 162.152 161.587 161.954 161.459 161.854 165.314 164.743 
164.83 164.256 164.437 163.894 164.159 163.614 163.902 163.329 163.637 
163.068 163.419 162.869 163.237 162.717 163.099 166.4 165.909 166.004 
165.497 165.662 165.177 165.422 164.947 165.217 164.716 164.991 164.484 
164.803 164.305 164.648 164.129 164.453 163.943 164.273 166.403 166.182 
165.926 165.202 166.079 165.762 165.003 164.699 163.895 165.984 165.661 
164.867 164.526 163.678 163.352 162.481 165.911 165.56 164.745 164.375 
163.496 163.14 162.248 161.915 161.02 165.931 165.533 164.718 164.282 
163.392 162.977 162.092 161.719 160.847 160.481 159.628 165.995 165.593 
164.796 164.319 163.434 162.944 162.074 161.638 160.81 160.391 159.578 
159.18 158.434 166.074 165.675 164.92 164.442 163.597 163.066 162.227 
161.726 160.94 160.459 159.683 159.22 158.498 158.109 157.485 166.225 
165.806 165.108 164.62 163.842 163.296 162.511 161.972 161.236 160.704 
159.972 159.43 158.727 158.257 157.664 157.28 156.756 166.449 166.022 
165.378 164.884 164.168 163.613 162.876 162.319 161.622 161.078 160.396 
159.821 159.145 158.592 158.018 157.559 157.099 156.679 156.244 167.122 
168.164 167.369 166.906 169.331 168.479 168 167.222 166.813 170.513 
169.681 169.193 168.363 167.919 167.147 166.735 171.6 170.836 170.365 
169.555 169.09 168.284 167.844 167.067 166.666 172.647 171.904 171.444 
170.67 170.214 169.444 169.019 168.224 167.817 167.037 166.68 173.696 
172.974 172.526 171.738 171.279 170.528 170.144 169.404 169.029 168.237 
167.85 167.074 166.727 174.635 174.001 173.606 172.853 172.407 171.621 
171.232 170.505 170.166 169.43 169.046 168.259 167.861 167.106 166.772 
175.439 174.88 174.546 173.907 173.529 172.783 172.382 171.617 171.25 
170.525 170.16 169.417 169.018 168.25 167.886 167.164 166.885 176.204 
175.669 175.371 174.807 174.499 173.861 173.498 172.766 172.366 171.615 
171.234 170.504 170.138 169.395 169.04 168.298 167.997 167.306 167.074 
176.539 176.807 176.353 175.72 177.09 176.629 175.966 175.512 174.854 
177.316 176.881 176.183 175.73 175.01 174.589 173.871 177.446 177.046 
176.316 175.889 175.118 174.693 173.916 173.515 172.742 177.498 177.122 
176.386 175.98 175.199 174.765 173.963 173.539 172.744 172.348 171.591 
177.511 177.152 176.435 176.044 175.281 174.842 174.04 173.595 172.796 
172.369 171.593 171.211 170.488 177.464 177.147 176.443 176.09 175.339 
174.921 174.105 173.664 172.842 172.42 171.62 171.22 170.455 170.105 
169.399 177.263 177.031 176.322 176.051 175.309 174.949 174.122 173.696 
172.839 172.427 171.601 171.216 170.425 170.064 169.328 169.013 168.353 
176.881 176.736 176.034 175.853 175.138 174.865 174.065 173.682 172.828 
172.412 171.588 171.19 170.409 170.03 169.291 168.951 168.283 167.999 
167.412 176.38 175.37 175.774 175.574 174.323 174.75 174.529 174.949 
174.695 173.113 173.614 173.338 173.827 173.533 173.981 173.623 171.763 
172.299 172 172.538 172.23 172.736 172.379 172.819 172.406 170.422 
170.937 170.636 171.164 170.879 171.407 171.105 171.57 171.201 171.597 
171.195 169.062 169.602 169.281 169.801 169.497 170.048 169.777 170.305 
169.984 170.415 170.017 170.402 170.013 167.642 168.216 167.905 168.43 
168.085 168.631 168.323 168.917 168.607 169.145 168.753 169.195 168.78 
169.214 168.872 166.274 166.819 166.557 167.07 166.741 167.23 166.892 
167.438 167.129 167.704 167.358 167.869 167.483 167.951 167.618 168.104 
167.856 165.031 165.512 165.264 165.765 165.473 165.936 165.609 166.075 
165.776 166.284 166 166.499 166.19 166.662 166.379 166.866 166.656 
167.16 167 176.703 176.804 176.386 175.66 176.853 176.464 175.739 
175.353 174.638 176.83 176.49 175.788 175.427 174.681 174.278 173.463 
176.672 176.398 175.665 175.396 174.61 174.257 173.366 172.975 172.089 
176.323 176.112 175.273 175.1 174.251 174.031 173.092 172.78 171.837 
171.538 170.696 175.833 175.655 174.737 174.565 173.661 173.52 172.592 
172.385 171.426 171.191 170.295 170.101 169.286 175.313 175.15 174.255 
174.02 173.11 172.923 172.045 171.856 170.932 170.71 169.769 169.589 
168.707 168.598 167.8 174.81 174.678 173.866 173.605 172.721 172.462 
171.617 171.388 170.513 170.247 169.302 169.046 168.131 167.971 167.16 
167.098 166.395 174.327 174.231 173.506 173.272 172.427 172.137 171.288 
171.027 170.184 169.899 168.999 168.669 167.777 167.495 166.711 166.536 
165.863 165.784 165.182 177.462 178.747 177.954 177.613 179.945 179.259 
178.919 178.066 177.647 180.799 180.344 180.088 179.349 178.898 178.049 
177.595 181.33 181.053 180.872 180.363 179.97 179.245 178.751 177.951 
177.46 181.694 181.488 181.278 180.939 180.536 180.076 179.582 178.982 
178.445 177.723 177.145 181.942 181.763 181.466 181.187 180.695 180.383 
179.847 179.506 178.953 178.491 177.887 177.263 176.618 182.062 181.898 
181.554 181.3 180.837 180.51 180.018 179.666 179.152 178.779 178.209 
177.779 177.16 176.625 176.001 182.089 181.931 181.599 181.387 181.079 
180.783 180.492 180.054 179.667 179.116 178.602 178.067 177.496 177.021 
176.445 175.962 175.404 182.093 181.933 181.642 181.467 181.272 181.096 
180.969 180.661 180.395 179.839 179.343 178.656 178.06 177.435 176.863 
176.349 175.817 175.356 174.858 182.02 181.829 181.802 181.585 181.605 
181.606 181.402 181.407 181.27 181.101 181.247 180.984 181.138 181.013 
181.14 181.014 180.213 180.521 180.15 180.467 180.237 180.63 180.498 
180.755 180.443 179.101 179.495 179.136 179.482 179.17 179.609 179.414 
179.91 179.637 179.912 179.368 177.976 178.385 178.132 178.488 178.222 
178.557 178.314 178.732 178.487 178.895 178.464 178.661 178.041 176.934 
177.328 177.119 177.514 177.289 177.641 177.367 177.704 177.415 177.78 
177.422 177.698 177.182 177.328 176.775 175.935 176.329 176.113 176.509 
176.265 176.65 176.348 176.713 176.386 176.752 176.404 176.71 176.263 
176.458 175.947 176.118 175.674 174.923 175.329 175.116 175.506 175.251 
175.613 175.301 175.651 175.33 175.701 175.388 175.726 175.34 175.571 
175.105 175.286 174.851 175.069 174.715 174.269 173.273 174.02 174.461 
172.109 172.95 173.421 174.185 174.585 170.855 171.718 172.198 173.06 
173.497 174.257 174.612 169.659 170.461 170.906 171.78 172.244 173.1 
173.518 174.27 174.639 168.532 169.288 169.675 170.491 170.919 171.799 
172.259 173.123 173.557 174.321 174.699 167.368 168.132 168.493 169.279 
169.66 170.484 170.9 171.796 172.245 173.142 173.541 174.334 174.636 
166.193 166.938 167.299 168.089 168.482 169.266 169.647 170.456 170.864 
171.757 172.177 173.064 173.401 174.18 174.418 165.102 165.79 166.137 
166.9 167.309 168.101 168.504 169.266 169.65 170.438 170.858 171.705 
172.119 172.928 173.257 173.967 174.219 164.108 164.746 165.069 165.772 
166.152 166.926 167.338 168.124 168.52 169.283 169.683 170.47 170.899 
171.702 172.104 172.85 173.182 173.841 174.118 173.863 172.88 173.284 
173.024 171.759 172.203 171.879 172.295 171.932 170.539 170.996 170.621 
171.06 170.656 171.111 170.757 169.312 169.739 169.332 169.757 169.319 
169.778 169.398 169.921 169.609 168.103 168.496 168.041 168.451 167.982 
168.424 168.008 168.522 168.177 168.741 168.416 166.883 167.251 166.731 
167.128 166.608 167.052 166.592 167.106 166.74 167.298 166.976 167.53 
167.221 165.707 166.025 165.483 165.821 165.265 165.656 165.145 165.638 
165.245 165.835 165.543 166.127 165.86 166.4 166.172 164.636 164.893 
164.358 164.63 164.075 164.373 163.83 164.211 163.763 164.304 164.007 
164.657 164.436 165.056 164.853 165.429 165.296 163.66 163.865 163.304 
163.54 162.97 163.233 162.677 162.975 162.482 162.889 162.54 163.117 
162.905 163.575 163.414 164.073 163.951 164.598 164.563 176.927 176.854 
177.186 177.752 176.764 177.114 177.775 178.081 178.732 176.721 177.083 
177.84 178.181 178.959 179.204 179.922 176.611 177.031 177.786 178.232 
179.034 179.42 180.176 180.434 181.093 176.397 176.846 177.526 178.045 
178.778 179.321 180.032 180.502 181.138 181.472 181.954 176.169 176.606 
177.254 177.725 178.424 178.958 179.671 180.202 180.849 181.315 181.831 
182.136 182.409 175.879 176.357 176.997 177.457 178.132 178.628 179.364 
179.872 180.568 181.014 181.563 181.914 182.247 182.438 182.537 175.463 
175.992 176.583 177.11 177.693 178.255 178.895 179.508 180.164 180.717 
181.233 181.635 181.933 182.196 182.301 182.452 182.45 174.998 175.515 
176.047 176.586 177.08 177.66 178.162 178.835 179.366 180.082 180.535 
181.135 181.393 181.791 181.857 182.106 182.076 182.27 182.24 177.079 
177.945 177.531 177.528 178.883 178.425 178.477 177.995 177.945 180.014 
179.446 179.488 178.977 178.993 178.444 178.361 181.201 180.633 180.649 
180.07 180.108 179.542 179.5 178.869 178.676 182.07 181.695 181.672 
181.192 181.188 180.682 180.64 180.025 179.797 179.08 178.691 182.447 
182.29 182.175 181.931 181.827 181.563 181.48 181.063 180.793 180.143 
179.67 178.935 178.407 182.534 182.472 182.309 182.169 182.009 181.912 
181.821 181.653 181.397 180.954 180.434 179.8 179.202 178.543 177.996 
182.518 182.516 182.428 182.282 182.166 182.033 181.999 181.884 181.719 
181.4 180.912 180.389 179.763 179.209 178.635 178.081 177.57 182.407 
182.504 182.53 182.455 182.397 182.253 182.235 182.113 182.026 181.747 
181.337 180.821 180.195 179.659 179.087 178.617 178.124 177.631 177.165 
176.552 176.935 176.411 175.676 177.305 176.762 175.996 175.434 174.651 
177.693 177.137 176.356 175.759 174.95 174.403 173.637 177.968 177.492 
176.703 176.124 175.266 174.689 173.859 173.353 172.523 177.941 177.622 
176.816 176.372 175.473 174.945 174.051 173.542 172.701 172.189 171.339 
177.67 177.448 176.645 176.332 175.442 175.027 174.132 173.684 172.881 
172.408 171.656 171.101 170.366 177.327 177.137 176.388 176.117 175.302 
174.94 174.111 173.718 172.975 172.586 171.907 171.451 170.755 170.225 
169.541 176.966 176.807 176.13 175.901 175.186 174.858 174.11 173.725 
173.014 172.657 171.995 171.633 170.926 170.502 169.744 169.311 168.588 
176.599 176.461 175.836 175.663 175.021 174.773 174.083 173.747 173.033 
172.686 171.996 171.663 170.945 170.569 169.787 169.385 168.613 168.249 
167.552 177.568 177.985 178.144 178.831 178.186 178.475 179.188 179.385 
179.987 178.245 178.603 179.337 179.634 180.233 180.389 180.802 178.254 
178.643 179.424 179.761 180.378 180.553 180.932 181.024 181.299 178.174 
178.607 179.399 179.827 180.494 180.709 181.051 181.099 181.315 181.423 
181.66 177.965 178.423 179.12 179.663 180.362 180.766 181.175 181.246 
181.402 181.423 181.651 181.78 181.993 177.681 178.12 178.686 179.227 
179.879 180.47 181.048 181.349 181.626 181.607 181.798 181.821 182.093 
182.136 182.249 177.391 177.804 178.315 178.758 179.328 179.907 180.58 
181.129 181.639 181.835 182.064 182.046 182.243 182.267 182.436 182.375 
182.347 177.126 177.525 178.056 178.434 178.973 179.424 180.074 180.651 
181.287 181.727 182.056 182.198 182.291 182.353 182.441 182.5 182.531 
182.438 182.34 
POINT_DATA 1002
SCALARS Distance double
LOOKUP_TABLE default
173.574 174.512 173.693 172.642 172.779 172.482 171.625 171.742 171.422 
171.244 170.441 170.527 170.274 170.091 170.015 169.115 169.291 168.995 
168.871 168.857 168.905 167.875 168.188 167.704 167.6 167.624 167.741 
167.794 166.732 167.12 166.483 166.345 166.329 166.455 166.57 166.609 
165.567 166.024 165.236 165.064 165.004 165.069 165.224 165.356 165.469 
164.451 164.994 164.028 163.786 163.697 163.691 163.795 163.998 164.219 
164.44 163.455 164.051 162.981 162.655 162.491 162.424 162.439 162.604 
162.883 163.185 163.486 174.946 174.081 175.382 174.458 175.724 173.1 
174.791 175.969 173.43 171.996 175.055 176.188 173.754 172.325 170.799 
175.23 176.33 173.982 172.642 171.209 169.659 175.359 176.387 174.156 
172.844 171.541 170.107 168.562 175.539 176.49 174.39 173.051 171.733 
170.405 168.925 167.419 175.719 176.636 174.596 173.265 171.915 170.618 
169.233 167.769 166.333 175.751 176.66 174.637 173.345 172.035 170.809 
169.564 168.224 166.812 165.379 175.905 174.811 174.889 173.722 173.885 
173.533 172.714 172.881 172.422 172.189 171.501 171.656 171.278 171.044 
170.927 170.042 170.488 169.758 169.667 169.731 169.736 168.98 169.671 
168.352 168.121 168.35 168.611 168.519 168.345 168.888 167.635 167.105 
167.114 167.433 167.471 167.145 167.562 167.897 167.076 166.524 166.214 
166.229 166.197 165.895 165.548 166.556 166.894 166.178 165.72 165.274 
164.953 164.663 164.304 164.015 163.945 162.653 162.322 161.181 162.218 
160.694 159.713 162.488 160.547 159.262 158.18 163.001 160.874 159.243 
157.872 156.628 163.547 161.481 159.648 158.045 156.507 155.393 164.103 
162.173 160.302 158.608 156.991 155.624 154.742 164.671 162.923 161.137 
159.435 157.863 156.518 155.455 154.702 165.206 163.692 162.097 160.479 
158.932 157.632 156.608 155.762 155.148 165.714 164.433 163.052 161.592 
160.12 158.793 157.736 156.903 156.246 155.816 162.098 160.653 161.661 
159.028 160.151 161.335 157.318 158.443 159.797 161.165 155.874 156.942 
158.291 159.741 161.138 154.837 155.777 157.122 158.524 159.917 161.272 
154.28 154.777 156.021 157.462 158.861 160.213 161.559 154.426 154.35 
155.134 156.421 157.807 159.175 160.539 161.904 155.136 154.778 155.051 
155.883 156.961 158.157 159.48 160.891 162.27 156.16 155.707 156.563 
156.305 156.839 155.616 156.714 157.283 156.434 156.014 157.394 158.336 
157.05 156.882 156.693 158.675 159.732 157.969 157.643 157.446 157.543 
160.067 161.011 159.283 158.723 158.365 158.294 158.708 161.32 162.231 
160.581 160.013 159.62 159.455 159.637 160.185 162.616 163.467 161.895 
161.315 160.926 160.8 160.916 161.238 161.727 163.886 164.588 163.276 
162.717 162.24 162.028 162.132 162.393 162.719 163.096 156.672 156.965 
157.505 157.814 158.496 157.26 158.906 159.713 158.212 157.611 160.179 
160.953 159.471 158.869 158.422 161.463 162.156 160.842 160.349 159.952 
159.715 162.786 163.431 162.252 161.852 161.513 161.221 161.048 164.138 
164.706 163.665 163.337 163.049 162.741 162.495 162.321 165.387 165.851 
164.968 164.682 164.46 164.2 163.971 163.792 163.6 166.489 166.861 
166.137 165.882 165.703 165.491 165.285 165.156 164.997 164.765 166.605 
165.463 166.48 165.347 166.413 164.203 165.228 166.314 164.03 162.803 
165.14 166.281 163.87 162.591 161.352 165.18 166.336 163.838 162.472 
161.217 159.974 165.268 166.383 163.944 162.524 161.23 159.985 158.776 
165.378 166.463 164.117 162.733 161.426 160.165 158.901 157.819 165.579 
166.637 164.369 163.042 161.76 160.525 159.228 158.055 157.122 167.869 
167.638 168.989 168.814 170.191 167.55 170.041 171.311 168.728 167.483 
171.158 172.336 169.9 168.646 167.407 172.221 173.387 170.955 169.79 
168.623 167.425 173.319 174.386 172.043 170.844 169.802 168.666 167.463 
174.301 175.22 173.202 171.982 170.874 169.826 168.65 167.474 175.121 
175.978 174.22 173.169 172 170.88 169.778 168.63 167.557 175.911 
176.725 175.084 174.196 173.133 171.969 170.858 169.781 168.711 167.726 