# vtk DataFile Version 4.0
vtk output
ASCII
DATASET POLYDATA
POINTS 1002 float
-105.329 -122.452 76.0407 -105.944 -123.508 75.6343 -105.821 -122.744 74.9103 
-105.253 -121.514 75.3476 -105.728 -121.755 74.2607 -104.746 -121.144 76.4981 
-105.165 -120.417 74.7092 -105.586 -120.678 73.7396 -104.562 -120.181 75.8504 
-104.08 -119.744 76.9399 -104.93 -119.296 74.0817 -105.403 -119.569 73.2062 
-104.374 -119.067 75.1775 -103.739 -118.773 76.3259 -103.417 -118.26 77.3682 
-104.575 -118.173 73.3665 -105.269 -118.372 72.6028 -104.025 -117.917 74.38 
-103.454 -117.598 75.6012 -103.019 -117.171 76.7244 -102.816 -116.652 77.8936 
-104.247 -116.991 72.6913 -105.122 -117.126 72.0533 -103.515 -116.806 73.5417 
-103.006 -116.435 74.751 -102.566 -116.028 75.9478 -102.231 -115.627 77.1541 
-101.979 -115.241 78.5443 -103.93 -115.822 72.1317 -104.829 -116.002 71.5365 
-103.043 -115.688 72.8778 -102.424 -115.353 73.9729 -101.953 -114.981 75.1495 
-101.487 -114.743 76.3109 -101.142 -114.511 77.7153 -100.983 -114.227 79.1414 
-103.531 -114.77 71.5481 -104.425 -115.02 71.0042 -102.704 -114.549 72.3231 
-102.017 -114.203 73.3546 -101.443 -113.853 74.4457 -100.884 -113.715 75.5303 
-100.479 -113.621 76.8265 -100.361 -113.403 78.2566 -100.43 -113.112 79.521 
-103.122 -113.76 70.992 -104.071 -114.025 70.5968 -102.422 -113.425 71.7774 
-101.847 -112.981 72.8171 -101.232 -112.579 73.8076 -100.606 -112.419 74.8076 
-100.195 -112.34 76.057 -100.154 -112.088 77.398 -100.325 -111.764 78.6049 
-100.445 -111.53 79.7375 -102.868 -112.666 70.6499 -103.889 -112.929 70.4204 
-102.205 -112.286 71.3435 -101.75 -111.784 72.3661 -101.176 -111.33 73.2645 
-100.498 -111.105 74.0869 -100.051 -111.001 75.2949 -100.029 -110.715 76.7085 
-100.309 -110.248 77.8539 -100.569 -109.907 78.8398 -100.601 -109.828 79.9476 
-106.548 -123.984 74.7869 -106.354 -123.227 74.026 -107.24 -124.367 73.8979 
-107.089 -123.565 73.2085 -108.158 -124.52 73.1042 -106.223 -122.235 73.4244 
-108.188 -123.577 72.5389 -109.326 -124.419 72.4807 -107.071 -122.527 72.6364 
-106.148 -121.118 72.9181 -109.365 -123.459 71.8535 -110.45 -124.334 71.7715 
-108.236 -122.498 71.8775 -107.102 -121.363 72.0015 -106.127 -119.91 72.3329 
-110.314 -123.527 70.876 -111.406 -124.294 70.821 -109.258 -122.454 71.0242 
-108.148 -121.369 71.1314 -107.026 -120.163 71.3325 -106.067 -118.627 71.7382 
-111.3 -123.417 69.8775 -112.415 -123.941 69.9489 -110.213 -122.453 70.0497 
-109.123 -121.312 70.3708 -107.914 -120.255 70.5482 -106.804 -118.962 70.7937 
-105.874 -117.375 71.2432 -112.465 -122.752 69.2858 -113.481 -123.287 69.2824 
-111.404 -122.009 69.336 -110.307 -121.082 69.5973 -109.045 -120.133 69.8919 
-107.725 -119.102 70.05 -106.642 -117.728 70.3807 -105.62 -116.23 70.8141 
-113.517 -121.912 68.89 -114.392 -122.671 68.6041 -112.565 -121.149 69.0388 
-111.516 -120.536 69.0015 -110.311 -119.859 69.0674 -108.973 -118.966 69.2862 
-107.736 -117.835 69.6402 -106.629 -116.467 70.148 -105.394 -115.122 70.5079 
-114.313 -121.288 68.3835 -115.097 -122.181 67.9213 -113.457 -120.376 68.7909 
-112.438 -119.88 68.6947 -111.25 -119.535 68.3552 -110.014 -118.807 68.3859 
-108.863 -117.747 68.8717 -107.79 -116.532 69.5557 -106.605 -115.2 70.1402 
-105.225 -113.955 70.3901 -115.253 -121.102 67.6594 -114.445 -120.033 68.2462 
-115.465 -119.739 67.6325 -114.559 -118.849 67.9826 -115.656 -118.345 67.5103 
-113.444 -119.327 68.449 -114.44 -117.794 67.4127 -115.475 -117.127 67.1614 
-113.223 -118.495 67.7237 -112.118 -119.121 67.9874 -113.866 -116.59 66.8864 
-114.839 -115.952 67.0199 -112.722 -117.327 66.9452 -111.547 -118.118 67.2117 
-110.713 -118.618 67.6471 -113.171 -115.152 66.9717 -114.168 -114.71 67.4814 
-112.113 -115.609 66.6941 -111.022 -116.333 66.9068 -110.138 -117.11 67.4107 
-109.561 -117.54 68.09 -112.752 -113.814 67.7586 -113.637 -113.533 68.3985 
-111.755 -113.991 67.216 -110.757 -114.368 67.1897 -109.829 -115.152 67.6569 
-109.152 -115.903 68.317 -108.589 -116.303 68.989 -112.422 -112.63 68.8306 
-113.064 -112.409 69.3846 -111.598 -112.763 68.2751 -110.633 -112.918 67.9992 
-109.645 -113.394 68.141 -108.809 -114.101 68.6363 -108.19 -114.624 69.2944 
-107.502 -114.935 69.8225 -111.975 -111.337 69.7427 -112.458 -111.198 70.1895 
-111.358 -111.475 69.3204 -110.434 -111.64 69.0512 -109.341 -111.907 68.9439 
-108.39 -112.319 69.0567 -107.696 -112.739 69.5017 -107.025 -113.104 70.0288 
-106.153 -113.515 70.298 -111.506 -109.939 70.3941 -111.966 -109.943 70.7984 
-110.993 -109.969 70.0316 -110.148 -110.125 69.8385 -108.989 -110.376 69.7582 
-107.922 -110.637 69.6975 -107.175 -110.896 69.8185 -106.516 -111.222 70.1581 
-105.666 -111.705 70.398 -104.696 -112.324 70.4105 -103.155 -111.524 70.4627 
-103.968 -110.748 70.4689 -102.599 -109.849 70.6515 -104.969 -110.015 70.4897 
-103.293 -108.979 70.5409 -102.173 -107.908 70.8693 -105.877 -109.476 70.3486 
-104.227 -108.189 70.4801 -102.696 -106.913 70.5536 -101.869 -105.866 71.0752 
-106.654 -109.144 70.1969 -105.288 -107.58 70.3641 -103.669 -106.024 70.3399 
-102.448 -104.757 70.6575 -101.804 -104.087 71.4542 -107.595 -108.9 70.1998 
-106.385 -107.212 70.3285 -105.095 -105.414 70.2757 -103.689 -103.933 70.4378 
-102.668 -103.135 71.0996 -101.921 -102.714 71.9949 -108.818 -108.638 70.2507 
-107.516 -107.032 70.4599 -106.473 -105.257 70.5274 -105.333 -103.63 70.644 
-104.05 -102.65 71.0442 -102.982 -102.076 71.7585 -102.123 -101.522 72.5314 
-109.951 -108.45 70.3661 -108.665 -106.954 70.6837 -107.517 -105.443 70.9869 
-106.615 -103.87 71.2473 -105.532 -102.628 71.4835 -104.278 -101.804 71.8602 
-103.233 -101.078 72.4616 -102.471 -100.508 73.1698 -110.706 -108.474 70.6764 
-109.669 -107.03 71.0171 -108.484 -105.715 71.4238 -107.518 -104.323 71.8027 
-106.703 -102.885 72.0646 -105.665 -101.696 72.2656 -104.515 -100.805 72.6275 
-103.578 -100.179 73.248 -102.911 -99.8835 74.016 -111.25 -108.63 71.1019 
-110.453 -107.26 71.4478 -109.477 -105.988 71.8304 -108.5 -104.695 72.1549 
-107.729 -103.22 72.4061 -106.984 -101.75 72.6239 -106.023 -100.611 72.8896 
-104.945 -99.9389 73.3733 -103.999 -99.6533 74.1047 -103.298 -99.5894 74.941 
-102.27 -111.131 70.8854 -101.901 -109.276 71.2944 -101.761 -110.61 71.8171 
-101.581 -107.291 71.61 -101.337 -108.773 72.2214 -101.205 -110.124 72.7587 
-101.276 -105.406 71.8929 -100.815 -106.951 72.383 -100.489 -108.47 72.8829 
-100.426 -109.837 73.429 -101.078 -103.714 72.3496 -100.388 -105.088 72.6589 
-99.9228 -106.658 73.0334 -99.7582 -108.261 73.657 -99.8634 -109.701 74.4979 
-101.071 -102.183 72.8415 -100.191 -103.242 73.1712 -99.7716 -104.609 73.565 
-99.625 -106.333 74.2545 -99.5935 -108.09 75.2373 -99.7915 -109.468 76.1253 
-101.398 -100.943 73.3858 -100.33 -101.759 73.7577 -99.8227 -102.821 74.3063 
-99.8154 -104.303 75.079 -99.7129 -106.241 76.07 -99.726 -107.856 76.9629 
-100.074 -108.978 77.4921 -101.979 -100.186 74.2142 -100.882 -100.84 74.5723 
-100.056 -101.695 75.1839 -99.8891 -102.744 75.9734 -99.8491 -104.401 76.8478 
-99.7085 -106.252 77.6532 -99.9745 -107.476 78.1546 -100.446 -108.483 78.4514 
-102.511 -99.8027 75.2388 -101.588 -100.295 75.6458 -100.591 -101.02 76.2666 
-100.002 -101.78 77.008 -99.8432 -102.899 77.7278 -99.7044 -104.628 78.4067 
-99.7837 -106.197 78.9194 -100.254 -107.21 79.2086 -100.621 -108.319 79.5057 
-103.152 -99.4549 76.1401 -102.39 -99.731 76.6375 -103.105 -99.2675 77.507 
-102.344 -99.6477 78.2005 -103.275 -99.262 78.9412 -101.473 -100.314 77.309 
-102.48 -99.8442 79.7277 -103.567 -99.6381 80.401 -101.461 -100.355 79.028 
-100.532 -101.038 78.0857 -102.767 -100.361 81.1269 -103.835 -100.069 81.8372 
-101.68 -100.695 80.4927 -100.62 -101.141 79.7576 -99.9792 -101.83 78.7671 
-103.126 -100.86 82.3936 -104.147 -100.463 83.1315 -102.066 -101.239 81.7467 
-100.894 -101.568 81.1642 -100.041 -102.136 80.4027 -99.7365 -103.213 79.3966 
-103.516 -101.397 83.5994 -104.511 -101.103 84.3032 -102.493 -101.781 82.945 
-101.246 -102.161 82.485 -100.178 -102.766 81.9525 -99.738 -103.788 81.1044 
-99.7011 -105.033 79.9824 -103.854 -102.022 84.8613 -104.838 -101.822 85.4422 
-102.913 -102.393 84.1408 -101.759 -102.807 83.6559 -100.547 -103.458 83.2251 
-99.8887 -104.49 82.5575 -99.8435 -105.578 81.5729 -100.038 -106.436 80.3352 
-104.18 -102.571 86.042 -105.195 -102.442 86.406 -103.289 -102.993 85.304 
-102.402 -103.53 84.6269 -101.391 -104.165 84.064 -100.528 -105.108 83.382 
-100.143 -106.173 82.6518 -100.189 -106.96 81.7515 -100.436 -107.558 80.5843 
-104.619 -103.206 86.8495 -105.65 -103.164 87.0086 -103.683 -103.594 86.2589 
-102.922 -104.254 85.51 -102.275 -104.949 84.797 -101.604 -105.725 83.9582 
-100.915 -106.684 83.1925 -100.438 -107.575 82.6851 -100.357 -108.257 81.9904 
-100.515 -108.95 80.9499 -104.147 -99.3809 75.3125 -104.025 -99.1729 76.6068 
-105.408 -99.1615 75.7107 -105.429 -98.8921 77.1677 -106.937 -99.0503 76.265 
-104.153 -98.9839 78.053 -107.122 -98.7767 77.8489 -108.318 -99.196 76.9221 
-105.737 -98.854 78.7528 -104.535 -99.1623 79.5459 -108.615 -98.9835 78.4613 
-109.508 -99.5256 77.4817 -107.429 -98.9379 79.4839 -106.135 -99.2319 80.2998 
-104.869 -99.5655 81.0891 -109.885 -99.4436 78.9554 -110.607 -100.031 78.0008 
-108.879 -99.2213 80.0859 -107.675 -99.3397 81.0574 -106.364 -99.5301 81.8718 
-105.095 -99.8267 82.6094 -110.963 -100.135 79.4849 -111.456 -100.836 78.587 
-110.216 -99.6618 80.6261 -109.15 -99.4889 81.7475 -107.874 -99.5759 82.6429 
-106.566 -99.8208 83.3359 -105.401 -100.341 83.8786 -111.81 -100.989 79.9625 
-112.194 -101.695 79.0757 -111.342 -100.334 81.0857 -110.61 -99.8521 82.2813 
-109.461 -99.8209 83.2792 -108.105 -100.176 83.9277 -106.832 -100.678 84.3816 
-105.736 -101.246 84.9018 -112.689 -101.707 80.2491 -113.101 -102.288 79.3741 
-112.218 -101.146 81.3496 -111.72 -100.574 82.5431 -110.925 -100.35 83.6128 
-109.678 -100.697 84.3513 -108.302 -101.259 84.7495 -107.092 -101.716 85.1669 
-106.06 -102.073 85.8156 -113.639 -102.232 80.446 -113.988 -102.762 79.6138 
-113.074 -101.87 81.5015 -112.496 -101.495 82.6508 -111.934 -101.195 83.7054 
[...]
CELL_DATA 2000
SCALARS Distance double
LOOKUP_TABLE default
177.834 176.87 177.201 176.848 175.83 176.18 175.815 176.152 175.747 
174.73 175.086 174.682 175.061 174.637 174.986 174.547 173.559 173.907 
173.422 173.841 173.381 173.797 173.326 173.726 173.298 172.361 172.671 
172.097 172.5 171.991 172.453 171.965 172.421 171.965 172.442 172.077 
171.183 171.45 170.822 171.159 170.607 171.036 170.546 171.013 170.561 
171.057 170.7 171.243 170.987 170.024 170.261 169.614 169.91 169.335 
169.695 169.189 169.611 169.166 169.649 169.302 169.858 169.631 170.217 
170.044 168.908 169.097 168.442 168.721 168.16 168.478 167.956 168.306 
167.838 168.275 167.929 168.473 168.248 168.85 168.681 169.288 169.121 
167.905 168.014 167.35 167.587 167.063 167.356 166.851 167.133 166.63 
166.984 166.618 167.125 166.919 167.498 167.333 167.914 167.741 168.34 
168.182 178.249 178.556 178.042 177.295 178.88 178.35 177.593 177.052 
176.277 179.249 178.703 177.965 177.385 176.596 176.029 175.226 179.609 
179.081 178.34 177.77 176.972 176.378 175.55 174.965 174.121 179.864 
179.393 178.622 178.098 177.277 176.722 175.871 175.293 174.425 173.838 
172.966 179.986 179.58 178.815 178.327 177.512 176.986 176.148 175.588 
174.722 174.138 173.26 172.676 171.804 180.001 179.655 178.928 178.493 
177.721 177.227 176.439 175.886 175.055 174.451 173.596 172.989 172.133 
171.533 170.675 179.934 179.635 178.929 178.568 177.832 177.42 176.671 
176.184 175.389 174.813 173.991 173.377 172.571 171.934 171.11 170.451 
169.61 179.815 179.544 178.854 178.539 177.83 177.486 176.759 176.357 
175.575 175.093 174.29 173.764 173.007 172.427 171.67 170.989 170.171 
169.45 168.639 179.526 178.752 178.947 178.547 177.934 178.143 177.723 
177.933 177.531 176.969 177.256 176.794 177.054 176.597 176.865 176.437 
175.748 176.117 175.541 175.932 175.362 175.767 175.254 175.656 175.196 
174.52 174.791 174.087 174.467 173.804 174.308 173.771 174.312 173.878 
174.359 173.936 173.627 173.695 172.982 173.102 172.439 172.76 172.296 
172.803 172.495 173.028 172.729 173.155 172.753 172.949 172.972 172.348 
172.29 171.669 171.699 171.237 171.513 171.231 171.706 171.46 171.95 
171.59 171.968 171.464 172.175 172.293 171.714 171.746 171.132 171.114 
170.533 170.626 170.158 170.486 170.113 170.611 170.204 170.693 170.159 
170.552 169.94 171.287 171.444 170.842 170.994 170.352 170.459 169.772 
169.864 169.198 169.399 168.838 169.223 168.738 169.221 168.691 169.141 
168.537 168.943 168.363 167.407 167.496 166.946 166 167.647 167.055 
165.983 165.478 164.54 167.759 167.196 166.1 165.478 164.337 163.904 
163.007 167.935 167.34 166.298 165.62 164.407 163.745 162.656 162.351 
161.687 168.346 167.643 166.665 165.914 164.792 163.963 162.853 162.208 
161.489 161.272 160.922 168.942 168.182 167.246 166.431 165.458 164.57 
163.628 162.74 162.042 161.436 161.086 160.789 160.545 169.542 168.819 
167.939 167.126 166.271 165.418 164.667 163.766 163.149 162.313 161.881 
161.26 160.966 160.549 160.324 170.083 169.425 168.65 167.888 167.14 
166.336 165.694 164.878 164.322 163.493 162.983 162.207 161.778 161.157 
160.877 160.461 160.38 170.603 170.001 169.351 168.658 168.029 167.274 
166.692 165.916 165.373 164.594 164.064 163.281 162.786 162.058 161.706 
161.145 161.02 160.671 160.748 167.141 165.794 166.474 166.574 164.426 
165.158 165.321 166.057 166.307 163.011 163.793 164.006 164.801 165.058 
165.828 166.079 161.762 162.43 162.639 163.433 163.653 164.483 164.709 
165.535 165.805 160.896 161.322 161.421 162.07 162.232 163.022 163.282 
164.139 164.523 165.363 165.822 160.327 160.544 160.472 160.923 161.027 
161.687 162.04 162.844 163.421 164.242 164.886 165.625 166.216 160.046 
160.053 159.913 160.114 160.213 160.675 161.115 161.819 162.541 163.338 
164.104 164.83 165.465 166.111 166.65 160.189 159.993 159.942 159.855 
160.009 160.166 160.625 161.112 161.846 162.571 163.367 164.102 164.746 
165.383 165.894 166.516 167.026 160.637 160.368 160.426 160.195 160.396 
160.297 160.693 160.863 161.473 161.969 162.713 163.386 164.083 164.707 
165.267 165.817 166.341 166.927 167.484 160.929 161.402 161.03 160.795 
162.054 161.597 161.437 161.007 160.839 163.007 162.397 162.254 161.752 
161.643 161.159 161.112 164.151 163.478 163.315 162.701 162.587 162.031 
161.988 161.553 161.743 165.271 164.633 164.488 163.844 163.71 163.067 
163.014 162.491 162.683 162.371 162.845 166.418 165.764 165.658 165.02 
164.915 164.25 164.213 163.619 163.836 163.422 163.892 163.627 164.192 
167.626 166.959 166.864 166.216 166.153 165.489 165.485 164.873 165.094 
164.65 165.109 164.765 165.26 164.952 165.403 168.766 168.146 168.041 
167.426 167.397 166.772 166.814 166.19 166.373 165.889 166.281 165.945 
166.394 166.052 166.432 166.09 166.477 169.822 169.237 169.135 168.56 
168.556 168.009 168.119 167.55 167.731 167.178 167.464 167.051 167.439 
167.117 167.494 167.15 167.511 167.18 167.6 161.201 161.885 161.53 
161.629 162.896 162.349 162.412 162.047 162.278 164.169 163.522 163.614 
163.052 163.295 162.885 163.271 165.473 164.862 165.02 164.42 164.689 
164.126 164.461 164.016 164.424 166.751 166.18 166.391 165.842 166.123 
165.57 165.846 165.299 165.575 165.144 165.509 168.062 167.501 167.754 
167.215 167.509 166.966 167.233 166.665 166.897 166.352 166.642 166.229 
166.644 169.334 168.82 169.087 168.583 168.895 168.359 168.655 168.071 
168.339 167.732 168.015 167.47 167.839 167.426 167.867 170.483 170.034 
170.286 169.853 170.161 169.706 170.025 169.509 169.811 169.225 169.502 
168.901 169.197 168.681 169.037 168.636 169.016 171.513 171.118 171.36 
170.977 171.272 170.889 171.213 170.804 171.132 170.655 170.936 170.37 
170.6 170.029 170.283 169.807 170.121 169.731 170.066 170.701 170.553 
170.257 169.509 170.444 170.133 169.386 169.059 168.272 170.334 170.016 
169.263 168.945 168.148 167.803 166.978 170.298 169.927 169.152 168.806 
167.989 167.649 166.789 166.463 165.634 170.385 169.963 169.196 168.756 
167.928 167.507 166.638 166.259 165.401 165.101 164.309 170.55 170.118 
169.4 168.9 168.094 167.563 166.726 166.223 165.397 164.954 164.158 
163.813 163.072 170.776 170.335 169.66 169.157 168.387 167.824 167.024 
166.457 165.694 165.138 164.387 163.85 163.119 162.685 162.047 171.078 
170.617 169.984 169.467 168.752 168.174 167.42 166.833 166.12 165.548 
164.857 164.253 163.551 162.954 162.328 161.854 161.389 171.446 170.978 
170.41 169.877 169.249 168.641 167.968 167.325 166.669 166.05 165.425 
164.803 164.158 163.511 162.896 162.311 161.847 161.399 161.108 171.435 
172.496 171.737 171.299 173.59 172.827 172.393 171.625 171.19 174.701 
173.929 173.506 172.734 172.301 171.526 171.098 175.825 175.052 174.626 
173.851 173.449 172.671 172.262 171.464 171.071 176.879 176.169 175.77 
175 174.624 173.848 173.475 172.667 172.262 171.464 171.112 177.825 
177.188 176.867 176.16 175.821 175.055 174.693 173.889 173.479 172.66 
172.262 171.512 171.217 178.77 178.141 177.873 177.237 176.952 176.243 
175.887 175.102 174.693 173.874 173.472 172.678 172.355 171.643 171.417 
179.715 179.106 178.838 178.235 177.98 177.333 177 176.262 175.868 
175.084 174.709 173.915 173.595 172.828 172.58 171.881 171.7 180.528 
180.004 179.742 179.185 178.939 178.337 178.03 177.34 176.967 176.233 
175.885 175.145 174.842 174.084 173.809 173.071 172.85 172.178 172.024 
180.838 181.12 180.688 180.117 181.452 181.005 180.417 179.961 179.341 
181.682 181.295 180.663 180.232 179.545 179.11 178.402 181.797 181.446 
180.788 180.393 179.654 179.237 178.471 178.07 177.326 181.975 181.579 
180.952 180.512 179.796 179.334 178.584 178.137 177.402 176.991 176.284 
182.181 181.801 181.209 180.757 180.096 179.576 178.866 178.336 177.61 
177.123 176.403 175.976 175.273 182.218 181.932 181.333 180.991 180.346 
179.905 179.19 178.671 177.899 177.367 176.575 176.099 175.338 174.939 
174.231 182.136 181.881 181.282 181.02 180.393 180.061 179.345 178.915 
178.111 177.613 176.771 176.264 175.454 175.004 174.276 173.903 173.259 
182.077 181.803 181.234 180.968 180.4 180.087 179.43 179.019 178.25 
177.771 176.96 176.457 175.67 175.174 174.454 174.007 173.372 172.997 
172.433 181.85 181.143 181.353 181.012 180.201 180.58 180.314 180.536 
180.191 178.969 179.515 179.323 179.744 179.417 179.642 179.194 177.554 
178.164 177.954 178.568 178.279 178.707 178.225 178.487 177.952 176.117 
176.707 176.45 177.087 176.815 177.394 176.976 177.378 176.844 177.156 
176.642 174.699 175.272 175.011 175.6 175.335 175.913 175.578 176.062 
175.623 176.002 175.522 175.851 175.382 173.293 173.845 173.567 174.159 
173.902 174.489 174.198 174.709 174.337 174.766 174.341 174.718 174.274 
174.61 174.179 171.964 172.452 172.133 172.695 172.436 173.051 172.808 
173.369 173.047 173.504 173.109 173.517 173.107 173.488 173.086 173.441 
173.081 170.78 171.185 170.861 171.321 171.057 171.611 171.408 171.991 
171.749 172.244 171.909 172.317 171.949 172.332 171.979 172.352 172.028 
172.401 172.129 182.31 182.735 182.222 181.551 182.932 182.547 181.793 
181.31 180.523 182.766 182.583 181.86 181.455 180.579 180.13 179.263 
182.344 182.291 181.654 181.406 180.57 180.148 179.21 178.774 177.871 
181.844 181.839 181.235 181.103 180.316 180.031 179.07 178.671 177.663 
177.298 176.392 181.25 181.313 180.704 180.632 179.833 179.649 178.671 
178.377 177.297 176.982 175.981 175.755 174.908 180.533 180.656 180.072 
180.058 179.273 179.12 178.17 177.905 176.854 176.539 175.531 175.287 
174.427 174.274 173.512 179.831 179.928 179.386 179.407 178.7 178.58 
177.724 177.467 176.522 176.174 175.23 174.9 174.052 173.822 173.068 
172.911 172.204 179.254 179.278 178.747 178.758 178.129 178.05 177.298 
177.092 176.246 175.933 175.048 174.693 173.831 173.519 172.721 172.501 
171.776 171.637 170.992 182.841 183.822 183.338 183.321 184.815 184.31 
184.229 183.724 183.523 185.733 185.26 185.074 184.548 184.239 183.72 
183.312 186.305 186.031 185.809 185.324 184.902 184.343 183.843 183.331 
182.838 186.395 186.337 186.134 185.88 185.437 184.944 184.347 183.805 
183.244 182.788 182.299 186.334 186.281 186.058 185.969 185.587 185.308 
184.729 184.26 183.622 183.147 182.582 182.19 181.672 186.349 186.257 
186.023 185.878 185.547 185.345 184.909 184.571 184.022 183.541 182.935 
182.451 181.87 181.484 180.939 186.273 186.272 186.102 185.946 185.645 
185.391 185.044 184.765 184.403 183.997 183.502 182.92 182.311 181.745 
181.171 180.751 180.248 186.069 186.149 186.064 186.018 185.764 185.547 
185.182 184.933 184.613 184.362 183.992 183.537 182.962 182.318 181.685 
181.104 180.582 180.146 179.705 185.962 185.836 185.925 185.946 185.59 
185.715 185.633 185.776 185.639 185.117 185.322 185.126 185.313 185.089 
185.273 185.032 184.392 184.706 184.465 184.681 184.384 184.605 184.382 
184.624 184.454 183.398 183.847 183.641 183.946 183.634 183.857 183.587 
183.891 183.744 184.065 183.853 182.211 182.738 182.567 183.02 182.752 
183.061 182.713 183.016 182.744 183.169 182.917 183.281 182.845 181.029 
181.528 181.355 181.867 181.656 182.087 181.753 182.07 181.683 182.054 
181.73 182.167 181.787 182.1 181.584 179.935 180.387 180.205 180.674 
180.483 180.953 180.692 181.06 180.693 180.999 180.649 181.009 180.709 
181.048 180.68 180.902 180.481 178.879 179.318 179.129 179.564 179.357 
179.807 179.566 179.981 179.658 180.002 179.658 180 179.719 180.068 
179.787 180.059 179.717 179.917 179.577 178.223 177.248 177.989 178.456 
176.139 176.943 177.421 178.193 178.659 174.947 175.777 176.239 177.078 
177.556 178.365 178.821 173.751 174.579 175.039 175.868 176.326 177.174 
177.637 178.474 178.896 172.582 173.4 173.89 174.7 175.164 175.961 
176.416 177.243 177.714 178.53 178.948 171.492 172.253 172.726 173.544 
174.031 174.84 175.309 176.087 176.565 177.364 177.863 178.631 179.06 
170.537 171.215 171.619 172.368 172.815 173.66 174.157 174.997 175.471 
176.261 176.732 177.535 178.005 178.763 179.141 169.63 170.29 170.665 
171.315 171.694 172.445 172.929 173.796 174.317 175.153 175.603 176.393 
176.824 177.634 178.043 178.793 179.097 168.708 169.376 169.778 170.407 
170.776 171.414 171.853 172.618 173.167 173.999 174.519 175.287 175.723 
176.47 176.893 177.657 178.04 178.731 179.011 178.799 177.802 178.281 
178.206 176.662 177.188 177.098 177.637 177.549 175.495 176.01 175.891 
176.453 176.334 176.891 176.718 174.263 174.803 174.61 175.182 174.987 
175.577 175.351 175.936 175.669 172.895 173.471 173.215 173.813 173.538 
174.14 173.842 174.463 174.168 174.789 174.481 171.578 172.071 171.78 
172.349 172.054 172.646 172.33 172.925 172.602 173.224 172.917 173.553 
173.258 170.47 170.832 170.482 170.937 170.606 171.155 170.856 171.44 
171.131 171.698 171.367 171.964 171.671 172.329 172.104 169.434 169.757 
169.343 169.705 169.306 169.751 169.414 169.971 169.689 170.266 169.952 
170.487 170.176 170.763 170.559 171.242 171.135 168.354 168.677 168.255 
168.597 168.197 168.544 168.162 168.588 168.277 168.822 168.562 169.116 
168.855 169.381 169.192 169.784 169.724 170.392 170.388 180.44 180.577 
180.812 181.416 180.657 180.934 181.579 181.827 182.506 180.673 180.997 
181.669 181.974 182.712 182.996 183.732 180.581 180.985 181.689 182.049 
182.796 183.154 183.926 184.219 184.846 180.316 180.817 181.549 182.018 
182.768 183.186 183.923 184.304 184.959 185.208 185.635 179.938 180.476 
181.204 181.776 182.547 183.071 183.779 184.213 184.825 185.189 185.66 
185.857 186.082 179.577 180.089 180.79 181.367 182.126 182.733 183.449 
183.971 184.548 184.967 185.408 185.736 185.984 186.132 186.148 179.248 
179.739 180.397 180.937 181.625 182.236 182.924 183.529 184.112 184.609 
185.033 185.412 185.665 185.909 185.964 186.055 185.987 178.901 179.385 
179.981 180.502 181.098 181.681 182.296 182.927 183.502 184.082 184.523 
184.978 185.258 185.567 185.694 185.848 185.865 185.914 185.922 180.54 
181.515 181.011 180.988 182.615 182.035 182.006 181.464 181.428 183.851 
183.225 183.197 182.559 182.52 181.932 181.855 184.926 184.417 184.393 
183.798 183.778 183.138 183.065 182.37 182.151 185.638 185.29 185.214 
184.825 184.828 184.374 184.333 183.663 183.392 182.575 182.169 186.036 
185.814 185.657 185.406 185.376 185.187 185.217 184.816 184.545 183.791 
183.269 182.465 182.014 186.112 186.05 185.887 185.716 185.629 185.54 
185.614 185.48 185.335 184.802 184.258 183.48 182.908 182.247 181.865 
185.994 186.026 185.962 185.885 185.827 185.742 185.805 185.767 185.768 
185.471 185.077 184.397 183.775 183.064 182.574 182.037 181.677 185.973 
185.972 186.037 185.996 186.048 185.956 186.012 185.947 185.983 185.843 
185.633 185.164 184.628 183.919 183.337 182.704 182.259 181.77 181.389 
179.983 180.431 179.895 179.244 180.871 180.349 179.692 179.122 178.422 
181.237 180.756 180.077 179.535 178.77 178.227 177.453 181.411 181.012 
180.275 179.821 178.994 178.485 177.634 177.144 176.291 181.383 181.049 
180.272 179.898 179.062 178.612 177.731 177.262 176.425 175.945 175.13 
181.325 180.991 180.252 179.868 179.1 178.669 177.864 177.376 176.585 
176.103 175.381 174.888 174.21 181.295 180.988 180.307 179.905 179.195 
178.774 178.082 177.603 176.89 176.359 175.669 175.171 174.533 174.065 
173.459 181.156 180.945 180.285 179.954 179.235 178.878 178.216 177.842 
177.185 176.713 176.012 175.499 174.82 174.352 173.711 173.286 172.657 
180.881 180.74 180.099 179.854 179.136 178.847 178.166 177.892 177.242 
176.909 176.202 175.777 175.049 174.605 173.918 173.492 172.833 172.424 
171.785 182.681 182.764 183.034 183.677 182.843 183.134 183.816 184.089 
184.739 182.772 183.147 183.821 184.199 184.895 185.162 185.71 182.546 
182.963 183.588 184.071 184.752 185.197 185.76 186.006 186.302 182.38 
182.733 183.321 183.76 184.399 184.908 185.488 185.895 186.234 186.395 
186.456 182.27 182.616 183.214 183.566 184.184 184.578 185.168 185.57 
186.014 186.271 186.464 186.487 186.479 182.017 182.447 183.062 183.483 
184.132 184.482 185.063 185.356 185.822 186.079 186.375 186.502 186.58 
186.534 186.481 181.655 182.105 182.691 183.217 183.894 184.389 185 
185.325 185.74 185.944 186.192 186.365 186.449 186.537 186.459 186.449 
186.318 181.357 181.743 182.264 182.762 183.39 183.996 184.652 185.162 
185.607 185.861 186.028 186.154 186.175 186.297 186.227 186.301 186.164 
186.191 186.065 
POINT_DATA 1002
SCALARS Distance double
LOOKUP_TABLE default
177.524 178.441 177.538 176.542 176.532 176.481 175.469 175.492 175.437 
175.326 174.3 174.402 174.279 174.198 174.118 173.022 173.255 172.948 
172.918 172.864 172.914 171.738 172.092 171.532 171.497 171.483 171.55 
171.77 170.521 170.939 170.21 170.082 170.063 170.14 170.412 170.781 
169.323 169.809 169.001 168.796 168.692 168.745 169.024 169.46 169.892 
168.161 168.754 167.842 167.641 167.433 167.392 167.654 168.071 168.514 
168.96 167.128 167.834 166.762 166.588 166.328 166.132 166.334 166.773 
167.16 167.551 168.04 178.771 177.819 179.079 178.153 179.41 176.809 
178.549 179.792 177.194 175.788 178.905 180.133 177.57 176.156 174.708 
179.143 180.317 177.82 176.443 175.017 173.554 179.284 180.36 178.021 
176.698 175.306 173.845 172.384 179.325 180.322 178.177 176.967 175.657 
174.206 172.741 171.278 179.262 180.219 178.205 177.118 175.932 174.581 
173.189 171.786 170.267 179.152 180.077 178.151 177.136 176.024 174.769 
173.525 172.31 170.917 169.332 179.352 178.341 178.566 177.524 177.717 
177.308 176.529 176.663 176.333 176.151 175.161 175.422 174.937 174.818 
174.795 173.794 174.347 173.307 173.172 173.326 173.515 172.948 173.59 
172.209 171.805 171.916 172.248 172.429 172.384 172.878 171.717 171.087 
170.824 170.958 171.179 171.168 171.622 172.027 171.141 170.544 169.973 
169.683 169.702 169.737 169.576 170.684 171.152 170.222 169.697 169.081 
168.545 168.29 168.228 168.113 167.925 166.463 166.453 165.088 166.603 
164.898 163.639 166.761 164.939 163.179 162.208 166.974 165.163 163.122 
161.672 161.185 167.416 165.608 163.608 161.835 160.966 160.621 168.053 
166.273 164.498 162.783 161.514 160.784 160.235 168.712 167.058 165.485 
164.021 162.645 161.487 160.631 160.109 169.346 167.897 166.469 165.13 
163.816 162.492 161.357 160.647 160.387 169.975 168.733 167.459 166.152 
164.839 163.539 162.329 161.435 160.982 160.879 165.836 164.554 165.576 
163.19 164.278 165.324 161.899 162.834 163.851 164.956 160.888 161.483 
162.384 163.614 165.003 160.129 160.404 161.201 162.541 164.115 165.544 
159.8 159.814 160.425 161.724 163.367 164.836 166.021 160.074 159.956 
160.263 161.192 162.631 164.11 165.296 166.37 160.648 160.56 160.679 
161.141 162.091 163.425 164.719 165.79 166.866 161.262 161.183 161.764 
161.848 162.556 161.285 162.792 163.676 162.129 161.52 163.97 164.81 
163.188 162.448 162.002 165.122 165.884 164.377 163.571 163.027 163.025 
166.29 167.082 165.566 164.806 164.266 164.22 164.437 167.51 168.29 
166.795 166.101 165.553 165.468 165.642 165.704 168.639 169.371 167.976 
167.423 166.921 166.649 166.728 166.814 166.78 169.703 170.392 169.066 
168.629 168.308 167.968 167.779 167.811 167.86 167.898 161.466 161.865 
162.328 162.859 163.508 162.517 164.204 164.8 163.786 163.585 165.587 
166.035 165.275 165.011 164.79 166.922 167.298 166.67 166.429 166.101 
165.838 168.286 168.606 168.058 167.803 167.47 167.123 166.968 169.57 
169.828 169.408 169.221 168.945 168.605 168.321 168.231 170.706 170.916 
170.584 170.493 170.364 170.127 169.779 169.494 169.388 171.733 171.892 
171.643 171.591 171.558 171.476 171.209 170.816 170.54 170.437 170.977 
169.82 170.865 169.716 170.753 168.625 169.581 170.672 168.496 167.326 
169.531 170.693 168.346 167.128 165.914 169.668 170.796 168.393 167.05 
165.739 164.552 169.893 170.964 168.642 167.25 165.882 164.574 163.35 
170.15 171.216 168.94 167.582 166.243 164.961 163.629 162.38 170.488 
171.533 169.315 168.003 166.677 165.442 164.171 162.857 161.753 172.178 
172.059 173.254 173.171 174.349 171.955 174.271 175.485 173.079 171.872 
175.403 176.59 174.207 173.066 171.851 176.517 177.533 175.395 174.275 
173.087 171.851 177.517 178.429 176.572 175.5 174.308 173.046 171.893 
178.481 179.406 177.627 176.662 175.501 174.274 173.1 172.075 179.436 
180.308 178.604 177.715 176.627 175.48 174.376 173.313 172.354 180.274 