# vtk DataFile Version 4.0
vtk output
ASCII
DATASET POLYDATA
POINTS 1002 float
-107.525 -120.44 74.6853 -108.443 -121.193 74.1285 -108.037 -120.627 73.4637 
-107.008 -119.829 73.9671 -107.627 -119.903 72.7132 -106.691 -119.402 75.3257 
-106.611 -118.899 73.1653 -107.173 -119.002 71.8965 -106.212 -118.567 74.5591 
-106.131 -117.877 75.8999 -106.178 -117.787 72.3515 -106.649 -117.971 71.1256 
-105.774 -117.489 73.7486 -105.595 -116.905 75.1335 -105.541 -116.21 76.3938 
-105.559 -116.699 71.5731 -106.08 -116.889 70.4432 -105.135 -116.451 72.9175 
-104.833 -116.025 74.3368 -104.692 -115.425 75.7081 -104.524 -114.944 77.0043 
-104.872 -115.613 70.8356 -105.554 -115.723 69.8214 -104.362 -115.435 72.0744 
-103.976 -115.143 73.444 -103.713 -114.687 74.9265 -103.548 -114.216 76.4247 
-103.379 -113.86 77.8046 -104.322 -114.407 70.1917 -105.172 -114.404 69.3787 
-103.679 -114.29 71.3071 -103.293 -114.01 72.6085 -102.973 -113.633 74.0485 
-102.686 -113.263 75.6666 -102.502 -112.943 77.2482 -102.404 -112.645 78.5845 
-103.903 -113.12 69.7355 -104.873 -113.014 69.1917 -103.074 -113.116 70.6218 
-102.625 -112.855 71.905 -102.332 -112.481 73.3456 -101.926 -112.218 74.8722 
-101.576 -112.041 76.4815 -101.43 -111.822 77.977 -101.448 -111.548 79.191 
-103.485 -111.859 69.436 -104.488 -111.731 69.0486 -102.505 -111.984 70.0438 
-101.848 -111.878 71.1548 -101.507 -111.581 72.6529 -101.112 -111.373 74.1877 
-100.659 -111.304 75.6707 -100.436 -111.18 77.16 -100.441 -110.93 78.5523 
-100.6 -110.613 79.6747 -103.048 -110.706 69.1413 -103.994 -110.667 68.7461 
-102.071 -110.84 69.6445 -101.252 -110.877 70.4978 -100.763 -110.72 71.8156 
-100.433 -110.521 73.3711 -100.061 -110.419 74.861 -99.8219 -110.327 76.2694 
-99.8086 -110.143 77.6964 -99.9024 -109.883 79.0346 -100.117 -109.584 80.0869 
-109.188 -121.489 73.2737 -108.886 -120.792 72.5632 -110.106 -121.629 72.4183 
-109.778 -120.894 71.6347 -111.082 -121.637 71.4378 -108.42 -120.056 71.7351 
-110.654 -120.881 70.5741 -112.066 -121.491 70.3551 -109.221 -120.129 70.716 
-107.835 -119.187 70.8668 -111.607 -120.7 69.4642 -113.08 -121.2 69.3179 
-110.12 -119.991 69.6324 -108.66 -119.162 69.8662 -107.296 -118.128 70.1322 
-112.65 -120.395 68.423 -114.127 -120.752 68.3171 -111.145 -119.717 68.5848 
-109.683 -118.873 68.8687 -108.199 -118.022 69.1922 -106.796 -116.955 69.486 
-113.717 -119.85 67.4828 -115.152 -120.099 67.39 -112.208 -119.326 67.6561 
-110.717 -118.522 67.9112 -109.167 -117.739 68.2023 -107.632 -116.85 68.5179 
-106.322 -115.646 68.924 -114.716 -119.032 66.7255 -116.061 -119.325 66.6745 
-113.283 -118.615 66.8855 -111.772 -117.99 67.114 -110.123 -117.343 67.2994 
-108.449 -116.617 67.5328 -107.079 -115.5 68.0238 -105.99 -114.155 68.6803 
-115.555 -118.211 66.1086 -116.822 -118.586 66.0807 -114.235 -117.765 66.2232 
-112.834 -117.208 66.4519 -111.229 -116.675 66.6551 -109.456 -116.136 66.8121 
-107.907 -115.234 67.214 -106.764 -113.932 67.9562 -105.701 -112.662 68.6641 
-116.265 -117.548 65.4935 -117.485 -117.93 65.4518 -114.966 -117.106 65.5632 
-113.633 -116.546 65.7445 -112.22 -115.962 66.0331 -110.628 -115.434 66.3201 
-109.006 -114.737 66.6713 -107.654 -113.672 67.2774 -106.497 -112.45 68.0041 
-105.268 -111.414 68.5131 -117.371 -117.048 64.8356 -115.992 -116.659 64.8947 
-117.153 -116.071 64.3686 -115.51 -115.666 64.3506 -116.732 -114.872 64.0921 
-114.459 -116.174 64.9408 -114.805 -114.368 63.8965 -116.094 -113.368 63.8486 
-113.647 -115.133 64.2695 -112.948 -115.533 65.1444 -114.034 -112.728 63.677 
-115.291 -111.759 63.8034 -112.76 -113.731 63.7798 -112.037 -114.389 64.531 
-111.531 -114.825 65.5935 -113.297 -111.053 63.9907 -114.381 -110.337 64.2703 
-112.084 -112.017 63.8752 -111.249 -112.901 64.2744 -110.783 -113.485 65.2527 
-110.063 -114.059 66.155 -112.632 -109.554 64.7182 -113.537 -109.086 65.0559 
-111.597 -110.331 64.5782 -110.71 -111.233 64.6734 -110.107 -111.944 65.2444 
-109.472 -112.511 66.0965 -108.57 -113.109 66.7716 -112.099 -108.183 65.5397 
-112.881 -107.894 65.9152 -111.194 -108.783 65.4349 -110.271 -109.618 65.4686 
-109.468 -110.385 65.6825 -108.743 -110.988 66.1931 -107.95 -111.525 66.8201 
-107.148 -112.01 67.426 -111.589 -106.987 66.4841 -112.3 -106.827 66.8816 
-110.766 -107.376 66.3019 -109.818 -108.033 66.265 -108.846 -108.749 66.3138 
-107.943 -109.403 66.5381 -107.084 -110.028 66.8921 -106.298 -110.559 67.3398 
-105.696 -110.979 67.9266 -110.969 -106.025 67.5207 -111.679 -105.908 67.8636 
-110.179 -106.222 67.2588 -109.258 -106.579 67.0435 -108.239 -107.027 66.8769 
-107.221 -107.558 66.9207 -106.236 -108.279 67.1168 -105.331 -109.063 67.3009 
-104.656 -109.673 67.6319 -104.255 -110.149 68.1902 -102.912 -109.647 68.5924 
-103.125 -109 67.9848 -102.022 -108.417 68.593 -103.556 -108.261 67.5681 
-102.227 -107.527 67.9996 -101.434 -106.843 68.8781 -104.373 -107.25 67.451 
-102.708 -106.422 67.7177 -101.639 -105.71 68.3095 -100.99 -105.011 69.3652 
-105.466 -106.208 67.3163 -103.679 -105.137 67.6266 -102.234 -104.476 68.091 
-101.315 -103.85 68.9339 -100.699 -103.188 70.0905 -106.596 -105.607 67.2133 
-104.937 -104.215 67.4872 -103.405 -103.386 68.0145 -102.174 -102.839 68.8655 
-101.33 -102.183 69.9151 -100.716 -101.562 71.0139 -107.684 -105.415 67.4964 
-106.124 -103.985 67.7007 -104.756 -102.818 68.0933 -103.471 -102.055 68.9002 
-102.367 -101.309 69.8641 -101.574 -100.6 70.8186 -100.926 -100.13 71.7465 
-108.717 -105.3 67.9448 -107.198 -104.055 68.3109 -105.934 -102.68 68.5819 
-104.767 -101.512 69.1018 -103.533 -100.486 69.7698 -102.526 -99.5838 70.4675 
-101.822 -99.0549 71.2957 -101.171 -98.8608 72.2348 -109.661 -105.171 68.2644 
-108.248 -104.045 68.7718 -107.034 -102.612 69.0862 -105.978 -101.155 69.4558 
-104.754 -99.8601 69.8481 -103.529 -98.7438 70.2228 -102.683 -98.015 70.8406 
-102.085 -97.7801 71.7863 -101.485 -97.8124 72.8642 -110.519 -105.048 68.5322 
-109.255 -103.955 69.0187 -108.116 -102.542 69.3329 -107.153 -101.002 69.6963 
-106.075 -99.6019 70.0861 -104.793 -98.4019 70.368 -103.7 -97.4807 70.7895 
-102.989 -97.0035 71.6018 -102.433 -96.9251 72.6654 -101.89 -97.0302 73.7454 
-102.022 -109.616 69.1764 -101.312 -108.23 69.4983 -101.153 -109.645 69.9627 
-100.859 -106.48 70.0442 -100.619 -108.08 70.5884 -100.47 -109.576 71.0394 
-100.438 -104.514 70.6418 -100.298 -106.152 71.3119 -100.136 -107.83 71.7947 
-100.108 -109.348 72.4525 -100.148 -102.601 71.3714 -99.921 -104.067 71.9975 
-99.9346 -105.736 72.6359 -99.9371 -107.411 73.2412 -99.8788 -109.077 74.0386 
-100.128 -100.963 72.1558 -99.5914 -102.118 72.6868 -99.4775 -103.673 73.4348 
-99.6834 -105.276 74.1758 -99.8051 -106.985 74.8504 -99.708 -108.857 75.5646 
-100.287 -99.6414 72.7878 -99.5369 -100.54 73.3389 -99.0996 -101.906 74.0891 
-99.0948 -103.523 75.0015 -99.4796 -105.014 75.7718 -99.7475 -106.747 76.397 
-99.6962 -108.69 77.0506 -100.594 -98.5536 73.4367 -99.7972 -99.3486 74.0323 
-99.2514 -100.485 74.7279 -98.9266 -102.079 75.6245 -98.9975 -103.603 76.5314 
-99.465 -104.979 77.2546 -99.7564 -106.714 77.9046 -99.7373 -108.558 78.5372 
-101.063 -97.6561 74.2736 -100.298 -98.4043 74.8806 -99.7882 -99.3748 75.5349 
-99.4366 -100.748 76.2956 -99.1402 -102.298 77.1561 -99.181 -103.651 77.9695 
-99.5363 -105.055 78.6889 -99.7494 -106.774 79.3349 -99.8201 -108.415 79.8205 
-101.913 -96.7288 75.0312 -101.148 -97.3871 75.661 -102.148 -96.5116 76.3271 
-101.496 -97.295 77.0675 -102.6 -96.4974 77.5554 -100.545 -98.2781 76.3543 
-101.972 -97.4619 78.3298 -103.117 -96.7295 78.8078 -100.966 -98.3809 77.7879 
-100.185 -99.4581 77.0586 -102.477 -97.8085 79.5806 -103.55 -97.0754 80.1927 
-101.382 -98.695 79.023 -100.567 -99.6365 78.4985 -99.83 -100.876 77.8358 
-102.973 -98.1718 81.0054 -103.907 -97.4795 81.6032 -101.898 -99.0741 80.3316 
-100.914 -99.9011 79.8222 -100.139 -100.917 79.3391 -99.4619 -102.316 78.6841 
-103.406 -98.6222 82.4301 -104.354 -98.1107 82.824 -102.463 -99.3987 81.8671 
-101.476 -100.223 81.2743 -100.567 -101.118 80.7759 -99.8263 -102.367 80.2069 
-99.4526 -103.779 79.4848 -103.909 -99.312 83.6178 -104.993 -98.9592 83.8323 
-102.924 -99.8438 83.3132 -102.055 -100.586 82.7956 -101.25 -101.545 82.1487 
-100.493 -102.747 81.5145 -99.9247 -104.112 80.8745 -99.722 -105.464 80.1572 
-104.615 -100.081 84.5994 -105.699 -99.7409 84.7524 -103.527 -100.537 84.4213 
-102.597 -101.17 84.0526 -101.896 -102.121 83.384 -101.325 -103.343 82.5934 
-100.763 -104.634 81.9 -100.264 -105.915 81.2925 -99.953 -107.194 80.621 
-105.381 -100.718 85.4663 -106.328 -100.33 85.6304 -104.384 -101.281 85.2381 
-103.425 -101.962 84.8989 -102.628 -102.846 84.3464 -102.048 -103.988 83.5974 
-101.604 -105.185 82.8139 -101.132 -106.316 82.1222 -100.624 -107.46 81.4984 
-100.249 -108.594 80.8342 -102.701 -96.3582 74.1069 -102.83 -96.0256 75.3747 
-103.689 -95.8266 74.5284 -103.969 -95.3292 75.6836 -104.99 -95.3426 74.8752 
-103.185 -95.7803 76.5642 -105.438 -94.6373 76.0377 -106.474 -95.0899 75.192 
-104.482 -94.994 76.8504 -103.733 -95.828 77.8048 -106.942 -94.4765 76.5441 
-107.793 -95.4545 75.5798 -106.024 -94.3289 77.373 -105.063 -95.2121 78.2085 
-104.224 -96.2063 79.2208 -108.179 -95.1837 77.0264 -108.951 -96.2236 75.9631 
-107.442 -94.4399 78.0125 -106.514 -94.8946 78.8227 -105.45 -95.918 79.7059 
-104.553 -96.6738 80.7312 -109.391 -96.1622 77.3189 -110.094 -96.9694 76.3105 
-108.705 -95.3459 78.4309 -107.907 -95.252 79.4279 -106.858 -95.927 80.2876 
-105.782 -96.5748 81.2292 -104.953 -97.1953 82.1373 -110.64 -97.0104 77.5755 
-111.127 -97.7473 76.6742 -110.075 -96.3456 78.6625 -109.36 -96.0385 79.8365 
-108.405 -96.2555 80.8738 -107.318 -96.6604 81.7866 -106.345 -97.1728 82.6354 
-105.594 -97.9922 83.3011 -111.705 -97.869 77.8698 -112.056 -98.5789 76.9984 
-111.332 -97.2437 78.9105 -110.821 -96.8405 80.1199 -110.023 -96.7632 81.3173 
-108.992 -96.9204 82.3091 -107.953 -97.327 83.1132 -107.059 -98.0723 83.755 
-106.322 -98.951 84.2696 -112.638 -98.6966 78.1062 -112.994 -99.2869 77.2323 
-112.307 -98.1315 79.1375 -111.974 -97.6481 80.324 -111.444 -97.376 81.5719 
[...]
CELL_DATA 2000
SCALARS Distance double
LOOKUP_TABLE default
177.145 176.15 176.524 176.237 174.991 175.43 175.1 175.532 175.191 
173.687 174.169 173.802 174.293 173.918 174.383 173.985 172.311 172.795 
172.393 172.918 172.529 173.039 172.64 173.121 172.743 170.917 171.378 
170.926 171.457 171.05 171.597 171.203 171.737 171.38 171.905 171.605 
169.556 169.965 169.465 169.965 169.534 170.087 169.684 170.253 169.898 
170.491 170.206 170.795 170.546 168.287 168.622 168.075 168.509 168.056 
168.58 168.193 168.745 168.398 168.983 168.709 169.339 169.118 169.735 
169.516 167.096 167.379 166.78 167.141 166.642 167.123 166.751 167.297 
166.993 167.543 167.289 167.871 167.688 168.305 168.152 168.746 168.58 
165.944 166.198 165.584 165.883 165.355 165.754 165.369 165.886 165.618 
166.179 165.956 166.516 166.339 166.929 166.813 167.419 167.319 167.886 
167.77 177.523 177.813 177.308 176.556 178.068 177.578 176.785 176.269 
175.424 178.204 177.766 176.946 176.456 175.568 175.054 174.139 178.256 
177.843 177.006 176.547 175.654 175.166 174.24 173.728 172.792 178.276 
177.882 177.049 176.586 175.696 175.222 174.322 173.828 172.896 172.372 
171.431 178.208 177.874 177.065 176.633 175.741 175.266 174.358 173.888 
172.96 172.462 171.503 170.996 170.073 178.033 177.749 176.956 176.605 
175.729 175.296 174.367 173.903 172.951 172.478 171.517 171.04 170.116 
169.658 168.805 177.817 177.541 176.745 176.444 175.6 175.237 174.338 
173.9 172.957 172.472 171.523 171.04 170.142 169.695 168.86 168.429 
167.628 177.6 177.323 176.529 176.228 175.399 175.073 174.216 173.845 
172.962 172.513 171.611 171.107 170.238 169.756 168.944 168.496 167.699 
167.262 166.476 177.229 176.288 176.555 176.132 175.191 175.518 175.02 
175.368 174.936 173.811 174.245 173.647 174.096 173.607 174.099 173.705 
172.227 172.697 172.035 172.55 172.03 172.637 172.277 172.853 172.481 
170.757 171.123 170.481 170.921 170.425 171.018 170.72 171.371 171.079 
171.613 171.193 169.572 169.807 169.23 169.537 169.095 169.543 169.27 
169.854 169.617 170.191 169.83 170.298 169.847 168.621 168.767 168.233 
168.461 168.053 168.38 168.07 168.513 168.231 168.751 168.401 168.907 
168.476 168.948 168.528 167.86 167.928 167.401 167.56 167.121 167.386 
166.981 167.338 166.928 167.377 166.946 167.45 166.986 167.507 167.058 
167.606 167.226 167.229 167.253 166.707 166.787 166.262 166.437 165.887 
166.166 165.588 165.993 165.437 165.941 165.412 165.954 165.462 166.045 
165.64 166.273 165.96 165.089 164.673 164.435 163.643 164.41 164.026 
163.095 162.951 162.249 164.304 163.794 162.72 162.405 161.548 161.536 
160.921 164.317 163.714 162.558 162.074 161.108 160.897 160.218 160.253 
159.766 164.546 163.831 162.698 162.028 161.078 160.642 160.003 159.79 
159.368 159.309 158.997 165.028 164.265 163.269 162.417 161.548 160.878 
160.303 159.864 159.465 159.184 158.866 158.739 158.492 165.593 164.908 
164.097 163.22 162.412 161.59 160.971 160.353 159.838 159.389 158.896 
158.654 158.278 158.242 158.005 166.138 165.548 164.872 164.105 163.331 
162.513 161.801 161.08 160.416 159.792 159.11 158.662 158.124 157.981 
157.709 157.77 157.678 166.683 166.138 165.531 164.855 164.114 163.357 
162.613 161.875 161.184 160.445 159.751 159.04 158.459 157.992 157.723 
157.584 157.582 157.616 157.72 165.092 163.716 164.511 164.748 162.424 
163.199 163.483 164.238 164.547 161.173 161.963 162.31 163.056 163.401 
164.137 164.561 159.973 160.713 161.099 161.906 162.307 163.055 163.501 
164.271 164.811 159.053 159.572 159.879 160.667 161.122 161.954 162.439 
163.238 163.791 164.596 165.179 158.463 158.766 158.9 159.494 159.894 
160.734 161.273 162.146 162.724 163.57 164.189 164.995 165.595 158.027 
158.236 158.272 158.633 158.913 159.581 160.132 160.985 161.631 162.496 
163.167 164.013 164.699 165.475 166.103 157.772 157.886 157.974 158.151 
158.411 158.812 159.364 160.017 160.737 161.497 162.234 163.038 163.791 
164.605 165.328 166.05 166.66 157.825 157.814 157.997 158.043 158.371 
158.561 159.133 159.535 160.275 160.824 161.579 162.229 162.988 163.746 
164.516 165.283 165.965 166.62 167.161 158.031 158.567 158.245 158.222 
159.347 158.916 158.94 158.568 158.671 160.333 159.822 159.895 159.444 
159.61 159.21 159.48 161.457 160.897 160.962 160.471 160.647 160.237 
160.522 160.166 160.558 162.642 162.074 162.15 161.598 161.736 161.276 
161.525 161.181 161.539 161.272 161.744 163.869 163.29 163.414 162.843 
162.99 162.435 162.65 162.201 162.549 162.232 162.713 162.492 163.085 
165.203 164.569 164.698 164.122 164.298 163.736 163.969 163.438 163.795 
163.356 163.864 163.538 164.16 163.929 164.6 166.595 165.946 166.053 
165.439 165.614 165.048 165.309 164.792 165.174 164.708 165.208 164.803 
165.384 165.066 165.684 165.449 166.046 167.879 167.299 167.414 166.817 
166.999 166.41 166.679 166.145 166.533 166.079 166.558 166.153 166.657 
166.293 166.797 166.505 166.999 166.775 167.237 158.091 158.465 158.344 
158.605 159.033 158.78 158.982 158.929 159.322 159.837 159.414 159.546 
159.367 159.753 159.76 160.296 160.962 160.356 160.452 160.064 160.441 
160.309 160.874 160.854 161.45 162.336 161.643 161.751 161.166 161.517 
161.18 161.741 161.568 162.156 162.058 162.634 163.759 163.098 163.26 
162.606 162.942 162.437 162.965 162.606 163.167 162.891 163.435 163.276 
163.864 165.131 164.536 164.778 164.162 164.53 163.964 164.466 163.972 
164.501 164.054 164.572 164.229 164.81 164.604 165.243 166.436 165.904 
166.199 165.666 166.074 165.553 166.046 165.526 166.016 165.485 165.962 
165.495 166.04 165.698 166.314 166.064 166.674 167.643 167.177 167.476 
167.029 167.431 167.008 167.481 167.04 167.504 167 167.436 166.928 
167.414 166.993 167.545 167.207 167.752 167.468 167.969 166.826 166.61 
166.38 165.631 166.336 166.088 165.267 165.039 164.198 166.194 165.849 
165.02 164.685 163.811 163.553 162.725 166.274 165.829 165.028 164.564 
163.701 163.283 162.432 162.132 161.329 166.443 165.973 165.15 164.651 
163.774 163.287 162.415 161.977 161.105 160.757 159.916 166.602 166.126 
165.261 164.756 163.836 163.353 162.472 162.02 161.164 160.687 159.814 
159.392 158.646 166.815 166.301 165.466 164.903 164.021 163.458 162.617 
162.113 161.349 160.852 160.101 159.541 158.84 158.368 157.912 167.14 
166.592 165.844 165.233 164.46 163.811 163.054 162.423 161.717 161.148 
160.503 159.954 159.367 158.814 158.371 157.942 157.75 167.563 167.01 
166.348 165.73 165.044 164.385 163.694 163.012 162.315 161.652 160.993 
160.414 159.864 159.366 158.958 158.516 158.276 157.94 157.876 167.492 
168.5 167.787 167.351 169.606 168.835 168.384 167.614 167.12 170.813 
169.99 169.538 168.703 168.217 167.404 166.965 172.058 171.238 170.82 
169.943 169.479 168.587 168.151 167.341 167.016 173.236 172.469 172.079 
171.251 170.828 169.932 169.495 168.605 168.249 167.47 167.199 174.344 
173.622 173.248 172.473 172.087 171.27 170.867 169.987 169.599 168.751 
168.444 167.671 167.392 175.402 174.735 174.413 173.649 173.287 172.5 
172.148 171.332 170.973 170.12 169.784 168.957 168.665 167.874 167.598 
176.354 175.778 175.522 174.824 174.483 173.709 173.358 172.584 172.26 
171.465 171.139 170.311 169.996 169.177 168.897 168.109 167.874 177.185 
176.685 176.47 175.883 175.572 174.87 174.499 173.762 173.425 172.699 
172.392 171.627 171.309 170.506 170.206 169.416 169.17 168.416 168.235 
177.571 177.936 177.459 176.858 178.297 177.807 177.138 176.667 175.969 
178.61 178.132 177.417 176.914 176.146 175.672 174.905 178.916 178.426 
177.723 177.191 176.406 175.864 175.073 174.587 173.846 179.284 178.76 
178.07 177.522 176.767 176.183 175.385 174.817 174.043 173.558 172.831 
179.644 179.134 178.413 177.873 177.101 176.543 175.726 175.152 174.317 
173.777 172.976 172.516 171.759 179.881 179.434 178.687 178.175 177.351 
176.817 175.959 175.425 174.558 174.024 173.17 172.662 171.852 171.41 
170.661 179.948 179.584 178.839 178.389 177.566 177.04 176.179 175.631 
174.785 174.245 173.415 172.874 172.057 171.543 170.774 170.334 169.634 
179.825 179.553 178.822 178.472 177.704 177.249 176.445 175.901 175.096 
174.527 173.738 173.166 172.373 171.805 171.027 170.51 169.794 169.358 
168.713 179.443 178.508 178.812 178.463 177.595 177.866 177.516 177.81 
177.4 176.66 176.925 176.511 176.831 176.429 176.705 176.205 175.596 
175.905 175.411 175.752 175.312 175.669 175.19 175.45 174.885 174.385 
174.764 174.256 174.594 174.1 174.477 173.994 174.351 173.808 174.082 
173.505 172.974 173.474 172.993 173.395 172.875 173.242 172.718 173.094 
172.547 172.905 172.328 172.654 172.095 171.405 171.973 171.507 172.027 
171.503 171.95 171.392 171.793 171.224 171.601 171.027 171.395 170.843 
171.216 170.716 169.934 170.421 169.961 170.479 169.964 170.469 169.92 
170.398 169.855 170.28 169.738 170.108 169.582 169.948 169.473 169.869 
169.463 168.721 169.07 168.602 169.005 168.493 168.933 168.406 168.889 
168.404 168.893 168.428 168.848 168.365 168.728 168.267 168.646 168.256 
168.678 168.363 179.867 180.142 179.646 178.918 180.407 179.918 179.23 
178.726 178.045 180.778 180.254 179.639 179.104 178.451 177.896 177.181 
181.189 180.7 180.087 179.55 178.844 178.281 177.482 176.937 176.108 
181.248 180.988 180.316 179.904 179.047 178.525 177.548 177.068 176.12 
175.704 174.812 180.773 180.75 180.061 179.886 178.972 178.545 177.431 
176.955 175.894 175.538 174.582 174.272 173.345 180.11 180.107 179.443 
179.419 178.627 178.354 177.314 176.817 175.723 175.275 174.283 173.947 
172.986 172.694 171.755 179.574 179.481 178.816 178.781 178.113 177.982 
177.141 176.745 175.719 175.193 174.164 173.702 172.724 172.344 171.409 
171.112 170.275 179.141 179.013 178.337 178.233 177.592 177.507 176.802 
176.566 175.662 175.211 174.182 173.661 172.663 172.188 171.271 170.872 
170.063 169.764 169.074 180.544 181.664 181.053 180.871 182.747 182.2 
182.08 181.362 181.122 183.801 183.312 183.304 182.619 182.411 181.633 
181.441 184.728 184.348 184.395 183.841 183.729 182.984 182.765 182.001 
181.826 185.306 185.114 185.099 184.761 184.648 184.171 183.958 183.297 
182.974 182.267 181.889 185.573 185.504 185.422 185.209 184.973 184.749 
184.493 184.179 183.796 183.251 182.694 182.039 181.421 185.729 185.708 
185.652 185.435 185.141 184.891 184.568 184.394 184.043 183.759 183.227 
182.708 182.045 181.413 180.768 185.761 185.822 185.806 185.658 185.406 
185.106 184.774 184.487 184.157 183.887 183.462 183.086 182.522 182.001 
181.394 180.792 180.227 185.609 185.751 185.723 185.716 185.495 185.333 
185.025 184.766 184.427 184.105 183.686 183.312 182.8 182.386 181.829 
181.359 180.802 180.271 179.746 185.508 185.297 185.47 185.543 185.001 
185.146 185.113 185.337 185.295 184.607 184.759 184.603 184.813 184.742 
185.001 184.893 183.912 184.202 183.94 184.188 184.008 184.353 184.266 
184.547 184.339 182.874 183.309 183.004 183.345 183.052 183.467 183.31 
183.764 183.576 183.869 183.538 181.705 182.189 181.927 182.308 182.018 
182.422 182.237 182.71 182.532 182.944 182.642 182.942 182.578 180.522 
181.03 180.832 181.246 181.018 181.411 181.26 181.683 181.529 181.907 
181.629 181.953 181.614 181.938 181.604 179.331 179.854 179.686 180.155 
179.943 180.393 180.222 180.696 180.529 180.939 180.645 180.958 180.592 
180.924 180.601 180.956 180.625 178.202 178.693 178.545 179.015 178.808 
179.267 179.046 179.552 179.344 179.846 179.559 179.947 179.567 179.898 
179.552 179.922 179.623 179.97 179.622 177.564 176.685 177.391 177.883 
175.671 176.461 176.952 177.668 178.123 174.488 175.366 175.885 176.681 
177.138 177.863 178.328 173.254 174.135 174.695 175.567 176.079 176.853 
177.324 178.073 178.584 172.125 172.935 173.494 174.372 174.956 175.79 
176.307 177.066 177.554 178.322 178.794 171.078 171.847 172.369 173.206 
173.788 174.659 175.226 176.039 176.531 177.287 177.728 178.467 178.851 
170.041 170.792 171.287 172.096 172.634 173.489 174.041 174.906 175.427 
176.24 176.697 177.43 177.831 178.513 178.882 169.064 169.755 170.219 
171 171.514 172.339 172.852 173.699 174.211 175.074 175.573 176.383 
176.821 177.536 177.925 178.588 178.96 168.215 168.815 169.229 169.942 
170.432 171.222 171.723 172.529 173.016 173.851 174.356 175.215 175.698 
176.494 176.899 177.615 177.965 178.646 178.962 178.676 177.686 178.081 
177.871 176.61 177.047 176.826 177.254 177.08 175.383 175.89 175.635 
176.133 175.915 176.433 176.24 174.018 174.562 174.263 174.829 174.541 
175.129 174.845 175.438 175.096 172.666 173.163 172.821 173.378 173.042 
173.64 173.283 173.901 173.499 174.101 173.638 171.365 171.821 171.431 
171.934 171.563 172.114 171.734 172.305 171.892 172.468 172.023 172.59 
172.136 170.076 170.508 170.086 170.553 170.147 170.653 170.25 170.779 
170.363 170.904 170.482 171.025 170.607 171.15 170.761 168.89 169.248 
168.822 169.228 168.812 169.263 168.836 169.317 168.868 169.385 168.948 
169.505 169.108 169.667 169.309 169.86 169.563 167.892 168.154 167.722 
168.033 167.602 167.974 167.533 167.944 167.473 167.916 167.456 167.971 
167.582 168.163 167.85 168.437 168.183 168.758 168.569 178.344 178.58 
178.831 179.56 178.784 179.055 179.804 180.058 180.759 178.949 179.242 
180.001 180.291 181.043 181.255 181.929 179.035 179.374 180.153 180.487 
181.307 181.571 182.313 182.458 183.099 179.028 179.412 180.198 180.6 
181.456 181.828 182.639 182.86 183.485 183.58 184.038 178.96 179.369 
180.131 180.576 181.407 181.885 182.718 183.1 183.749 183.914 184.294 
184.323 184.511 178.797 179.25 179.978 180.449 181.227 181.74 182.547 
183.047 183.74 184.06 184.485 184.554 184.729 184.657 184.718 178.516 
179.01 179.707 180.221 180.95 181.485 182.236 182.785 183.484 183.94 
184.433 184.658 184.894 184.897 184.993 184.887 184.968 178.186 178.673 
179.328 179.868 180.538 181.106 181.765 182.36 182.986 183.561 184.052 
184.468 184.733 184.934 185.05 185.107 185.21 185.178 185.303 178.425 
179.654 179.004 178.908 180.854 180.247 180.173 179.484 179.314 182.014 
181.436 181.394 180.737 180.567 179.833 179.526 183.203 182.649 182.663 
181.986 181.807 181.044 180.686 179.902 179.414 184.153 183.8 183.896 
183.314 183.13 182.3 181.826 180.975 180.413 179.635 179.059 184.547 
184.474 184.592 184.366 184.221 183.566 182.982 182.071 181.369 180.561 
179.982 179.258 178.746 184.644 184.62 184.679 184.723 184.679 184.401 
183.903 183.137 182.359 181.501 180.874 180.163 179.689 178.996 178.541 
184.861 184.706 184.693 184.69 184.731 184.675 184.447 183.952 183.328 
182.501 181.843 181.075 180.584 179.911 179.451 178.774 178.316 185.234 
185.002 184.931 184.777 184.784 184.74 184.689 184.453 184.073 183.443 
182.821 182.047 181.474 180.779 180.278 179.623 179.127 178.496 178.06 
177.732 178.174 177.577 176.808 178.531 177.966 177.158 176.596 175.751 
178.687 178.21 177.308 176.821 175.922 175.413 174.42 178.549 178.198 
177.195 176.782 175.761 175.388 174.388 173.929 172.849 178.231 177.942 
176.944 176.548 175.469 175.094 174.097 173.765 172.81 172.354 171.365 
177.972 177.656 176.772 176.35 175.391 174.905 173.99 173.557 172.753 
172.339 171.532 171.014 170.172 177.815 177.496 176.73 176.322 175.54 
175.032 174.257 173.701 172.981 172.467 171.783 171.262 170.521 169.948 
169.204 177.654 177.387 176.7 176.361 175.677 175.264 174.572 174.074 
173.363 172.827 172.123 171.592 170.88 170.328 169.605 169.052 168.402 
177.475 177.249 176.629 176.347 175.696 175.365 174.68 174.301 173.579 
173.14 172.387 171.906 171.152 170.656 169.932 169.432 168.771 168.294 
167.728 180.509 180.634 180.923 181.57 180.563 180.952 181.608 181.937 
182.578 180.33 180.802 181.477 181.894 182.57 182.925 183.584 179.947 
180.482 181.159 181.682 182.373 182.843 183.528 183.914 184.512 179.544 
180.05 180.675 181.25 181.906 182.506 183.157 183.708 184.283 184.701 
185.109 179.231 179.675 180.26 180.754 181.382 181.96 182.616 183.213 
183.782 184.302 184.718 185.108 185.374 178.912 179.368 179.96 180.408 
181.057 181.536 182.268 182.77 183.444 183.861 184.328 184.667 184.979 
185.296 185.517 178.518 179.004 179.601 180.101 180.757 181.264 182.011 
182.535 183.292 183.701 184.233 184.446 184.726 184.921 185.125 185.404 
185.555 178.114 178.584 179.161 179.692 180.313 180.878 181.537 182.164 
182.873 183.479 184.056 184.402 184.657 184.769 184.846 185.007 185.099 
185.369 185.433 
POINT_DATA 1002
SCALARS Distance double
LOOKUP_TABLE default
176.892 177.725 176.82 175.864 175.77 175.957 174.659 174.547 174.779 
174.84 173.305 173.213 173.444 173.534 173.585 171.87 171.853 172.007 
172.141 172.249 172.399 170.413 170.489 170.498 170.648 170.824 171.071 
171.351 168.997 169.185 168.989 169.117 169.291 169.583 169.968 170.321 
167.686 167.991 167.544 167.638 167.83 168.079 168.471 168.92 169.311 
166.461 166.837 166.194 166.191 166.429 166.724 167.068 167.529 168.01 
168.422 165.299 165.697 164.995 164.879 165.041 165.388 165.76 166.193 
166.72 167.23 167.66 178.027 177.08 178.336 177.32 178.55 175.958 
177.43 178.635 176.09 174.659 177.466 178.671 176.124 174.75 173.314 
177.513 178.648 176.171 174.796 173.424 171.952 177.465 178.514 176.22 
174.835 173.447 172.013 170.549 177.272 178.316 176.134 174.838 173.43 
171.978 170.562 169.242 177.037 178.1 175.929 174.742 173.436 172.009 
170.583 169.286 168.057 176.833 177.869 175.719 174.55 173.359 172.096 
170.733 169.403 168.149 166.894 176.988 175.847 176.033 174.676 174.869 
174.541 173.192 173.375 173.074 173.21 171.529 171.78 171.387 171.631 
171.993 170.067 170.429 169.853 170.039 170.493 170.756 168.931 169.361 
168.698 168.742 169.035 169.328 169.41 168.013 168.494 167.759 167.707 
167.767 167.894 167.985 168.036 167.281 167.809 166.913 166.697 166.545 
166.476 166.475 166.503 166.637 166.674 167.209 166.172 165.707 165.262 
164.962 164.877 164.888 164.997 165.288 164.283 163.735 162.914 163.346 
162.207 161.63 163.152 161.666 160.775 160.363 163.118 161.408 160.256 
159.628 159.315 163.418 161.564 160.268 159.493 158.992 158.692 164.118 
162.275 160.809 159.838 159.074 158.54 158.248 164.904 163.272 161.692 
160.418 159.264 158.356 157.943 157.83 165.573 164.144 162.58 161.135 
159.699 158.374 157.648 157.542 157.669 166.171 164.852 163.35 161.913 
160.507 159.051 157.957 157.566 157.642 157.855 163.953 162.731 163.769 
161.532 162.671 163.766 160.249 161.522 162.735 164.009 159.158 160.238 
161.613 162.978 164.394 158.454 159.094 160.359 161.855 163.345 164.836 
158.01 158.357 159.296 160.747 162.296 163.867 165.402 157.824 158.093 
158.789 160.015 161.454 162.958 164.555 166.034 157.956 158.218 158.808 
159.807 161.009 162.278 163.73 165.267 166.599 158.287 158.498 158.92 
159.335 159.79 158.993 160.347 160.865 160.009 159.832 161.484 162.025 
161.061 160.874 160.866 162.717 163.189 162.255 161.897 161.809 161.949 
163.967 164.455 163.563 163.157 162.9 162.943 163.252 165.289 165.866 
164.841 164.493 164.262 164.228 164.424 164.808 166.683 167.237 166.19 
165.812 165.627 165.638 165.761 165.971 166.275 167.979 168.424 167.581 
167.229 167 166.976 167.064 167.151 167.27 167.454 158.136 158.613 
158.652 159.079 159.373 159.259 159.796 160.347 159.768 160.236 160.93 
161.614 160.634 160.927 161.463 162.388 163.011 161.938 161.983 162.319 
162.691 163.899 164.37 163.496 163.395 163.52 163.666 163.951 165.344 
165.682 165.093 165.003 165.004 164.981 165.074 165.408 166.69 166.938 
166.565 166.567 166.573 166.475 166.434 166.615 166.92 167.905 168.087 
167.835 167.894 167.985 167.957 167.879 167.931 168.09 168.248 167.102 
165.872 166.861 165.537 166.614 164.396 165.401 166.572 164.125 162.916 
165.517 166.738 164.169 162.812 161.571 165.667 166.929 164.272 162.885 
161.551 160.195 165.786 167.095 164.335 162.906 161.628 160.318 158.933 
166.024 167.328 164.593 163.138 161.81 160.614 159.376 158.217 166.427 
167.667 165.085 163.704 162.323 161.023 159.878 158.854 158.047 168.169 
168.096 169.241 169.173 170.407 167.889 170.395 171.64 169.051 167.714 
171.681 172.858 170.388 169.002 167.742 172.872 173.984 171.688 170.412 
169.075 167.934 174.014 175.038 172.864 171.714 170.48 169.248 168.155 
175.156 176.016 174.074 172.927 171.807 170.637 169.471 168.373 176.165 
176.883 175.249 174.131 173.022 171.956 170.828 169.691 168.629 177.01 