# vtk DataFile Version 4.0
vtk output
ASCII
DATASET POLYDATA
POINTS 1002 float
-103.979 -117.65 74.1378 -104.669 -118.537 73.9054 -104.508 -118.021 73.0779 
-103.773 -117.047 73.3217 -104.382 -117.295 72.2364 -103.382 -116.495 74.4935 
-103.667 -116.116 72.4393 -104.191 -116.403 71.4076 -103.261 -115.571 73.6825 
-103.014 -114.834 74.8695 -103.529 -114.993 71.5684 -103.967 -115.384 70.6254 
-103.175 -114.363 72.7939 -102.861 -113.666 74.0528 -102.581 -113.019 75.1908 
-103.332 -113.786 70.7946 -103.782 -114.224 69.8938 -102.915 -113.179 71.9407 
-102.441 -112.633 73.1699 -102.009 -112.162 74.3636 -101.662 -111.68 75.5568 
-103.053 -112.564 70.0337 -103.587 -112.973 69.1573 -102.466 -112.109 71.1215 
-101.74 -111.846 72.286 -101.103 -111.643 73.4529 -100.697 -111.22 74.7376 
-100.526 -110.65 76.0009 -102.635 -111.48 69.2543 -103.297 -111.792 68.4929 
-101.905 -111.175 70.2267 -101.057 -111.049 71.3534 -100.32 -110.982 72.527 
-99.8539 -110.616 73.8281 -99.6607 -109.996 75.192 -99.7647 -109.416 76.3363 
-102.16 -110.515 68.606 -102.934 -110.718 67.9898 -101.377 -110.32 69.4047 
-100.603 -110.147 70.4107 -99.9967 -109.921 71.6114 -99.5684 -109.48 72.9469 
-99.2727 -108.89 74.3002 -99.2387 -108.391 75.4887 -99.4904 -108.02 76.4715 
-101.762 -109.525 68.0325 -102.595 -109.696 67.528 -101.02 -109.33 68.7543 
-100.391 -109.068 69.6399 -99.9797 -108.662 70.753 -99.682 -108.098 72.0924 
-99.3557 -107.544 73.4197 -99.1647 -107.165 74.5458 -99.2539 -106.908 75.542 
-99.5068 -106.642 76.5285 -101.49 -108.566 67.3834 -102.34 -108.774 67.0137 
-100.813 -108.257 68.0842 -100.298 -107.85 68.964 -99.9804 -107.366 69.9702 
-99.7587 -106.813 71.2055 -99.4868 -106.324 72.5169 -99.2949 -106.036 73.6084 
-99.3243 -105.847 74.5425 -99.4785 -105.594 75.5472 -99.636 -105.29 76.6225 
-105.286 -119.093 73.2069 -105.248 -118.415 72.2997 -105.992 -119.584 72.3651 
-105.96 -118.871 71.4277 -106.643 -120.053 71.3026 -105.119 -117.595 71.4731 
-106.541 -119.402 70.353 -107.31 -120.433 70.1251 -105.853 -117.943 70.6189 
-104.894 -116.637 70.6797 -107.209 -119.742 69.165 -108.229 -120.543 69.024 
-106.518 -118.348 69.4942 -105.738 -116.826 69.8067 -104.665 -115.588 69.8828 
-108.199 -119.677 68.0925 -109.395 -120.325 68.0508 -107.231 -118.613 68.2981 
-106.485 -117.14 68.6819 -105.544 -115.723 68.9895 -104.46 -114.422 69.0863 
-109.429 -119.26 67.2923 -110.603 -119.869 67.2767 -108.229 -118.489 67.3973 
-107.157 -117.401 67.6448 -106.254 -115.987 67.9831 -105.278 -114.552 68.2061 
-104.261 -113.137 68.3341 -110.68 -118.624 66.8172 -111.754 -119.237 66.7775 
-109.52 -117.921 66.885 -108.187 -117.171 66.9395 -106.972 -116.091 67.1037 
-106.031 -114.695 67.3411 -105.1 -113.248 67.5627 -104.039 -111.875 67.7882 
-111.815 -117.914 66.4839 -112.796 -118.508 66.3828 -110.774 -117.181 66.5678 
-109.493 -116.522 66.4624 -108.065 -115.779 66.3709 -106.899 -114.676 66.539 
-106.015 -113.326 66.8806 -105.015 -111.935 67.2293 -103.794 -110.68 67.4536 
-112.775 -117.287 66.0257 -113.654 -117.831 65.8957 -111.772 -116.569 66.1525 
-110.563 -115.927 66.0138 -109.18 -115.359 65.7355 -107.894 -114.523 65.7574 
-106.947 -113.325 66.1814 -106.085 -111.962 66.7344 -104.929 -110.642 67.1034 
-103.565 -109.566 67.1451 -113.865 -116.962 65.3469 -112.887 -116.283 65.4855 
-113.936 -116.043 64.7597 -112.671 -115.294 64.734 -113.7 -114.9 64.2151 
-111.601 -115.594 65.4518 -112.199 -114.17 63.9747 -113.183 -113.469 63.7374 
-111.1 -114.727 64.5277 -110.144 -115.08 65.1568 -111.79 -112.777 63.437 
-112.674 -111.91 63.3881 -110.683 -113.576 63.8151 -109.613 -114.144 64.3776 
-108.775 -114.386 65.023 -111.551 -111.127 63.2306 -112.37 -110.33 63.3916 
-110.528 -111.9 63.4914 -109.356 -112.546 63.9891 -108.431 -112.97 64.6278 
-107.727 -113.182 65.4118 -111.327 -109.369 63.4677 -112.128 -108.84 63.8942 
-110.318 -109.995 63.5128 -109.172 -110.534 63.8819 -108.21 -110.991 64.4805 
-107.578 -111.384 65.3222 -106.927 -111.71 66.1546 -111.023 -107.841 64.1551 
-111.757 -107.625 64.7087 -109.997 -108.266 63.9569 -108.855 -108.784 64.0921 
-107.916 -109.243 64.5146 -107.319 -109.6 65.3012 -106.743 -109.931 66.1964 
-105.89 -110.295 66.7898 -110.642 -106.672 65.0165 -111.289 -106.571 65.496 
-109.701 -106.886 64.7353 -108.611 -107.323 64.6937 -107.648 -107.889 64.8816 
-106.941 -108.309 65.4101 -106.292 -108.522 66.1554 -105.429 -108.766 66.693 
-104.424 -109.147 66.9331 -110.223 -105.576 65.7365 -110.83 -105.435 66.0853 
-109.371 -105.708 65.5156 -108.379 -105.955 65.4369 -107.441 -106.416 65.4596 
-106.59 -106.942 65.6679 -105.721 -107.295 66.088 -104.759 -107.549 66.4341 
-103.766 -107.901 66.5491 -102.922 -108.341 66.673 -101.568 -107.789 66.5856 
-102.062 -107.307 66.1915 -100.909 -106.567 66.309 -102.85 -106.702 66.1343 
-101.342 -105.854 65.9398 -100.415 -104.788 66.3937 -103.915 -106.072 66.1478 
-102.125 -104.836 65.8795 -100.907 -103.641 66.0557 -100.063 -102.496 66.6432 
-105.098 -105.53 66.0388 -103.272 -103.851 65.9122 -101.804 -102.366 65.8652 
-100.72 -101.164 66.2528 -99.8438 -100.284 66.8265 -106.167 -105.064 65.991 
-104.509 -103.28 66.0799 -102.991 -101.565 65.9234 -101.805 -100.206 65.9951 
-100.698 -99.2282 66.4413 -99.8625 -98.6039 67.1847 -107.112 -104.708 66.0579 
-105.572 -103.088 66.4017 -104.135 -101.394 66.3802 -103.061 -99.8747 66.2239 
-101.99 -98.6482 66.3427 -100.925 -97.8399 66.9511 -100.221 -97.3566 67.8908 
-108.134 -104.505 66.0883 -106.652 -103.005 66.5649 -105.244 -101.415 66.8125 
-104.251 -99.8659 66.7849 -103.373 -98.4171 66.7329 -102.328 -97.3242 67.0532 
-101.411 -96.6916 67.7821 -100.785 -96.323 68.6552 -109.178 -104.366 66.1409 
-107.892 -102.894 66.5397 -106.564 -101.339 66.8846 -105.522 -99.8392 67.0987 
-104.681 -98.3863 67.2163 -103.724 -97.1348 67.4645 -102.744 -96.2744 67.9568 
-101.961 -95.7491 68.5841 -101.342 -95.4325 69.283 -109.997 -104.224 66.3523 
-108.98 -102.808 66.6339 -107.858 -101.314 66.9301 -106.838 -99.8692 67.221 
-105.948 -98.5008 67.5107 -105.01 -97.2827 67.8751 -104.031 -96.31 68.3256 
-103.175 -95.5561 68.7798 -102.462 -95.0032 69.2632 -101.838 -94.6973 69.901 
-100.815 -107.382 67.1128 -100.27 -105.864 67.0284 -100.272 -106.781 68.0145 
-99.8022 -103.936 67.1355 -99.793 -105.084 67.9772 -99.9032 -106.163 69.0279 
-99.439 -101.75 67.2736 -99.3324 -103.273 67.9622 -99.4296 -104.513 69.0264 
-99.6376 -105.636 70.1955 -99.2972 -99.6789 67.5885 -99.0748 -101.237 68.1745 
-99.0161 -102.825 69.1557 -99.1355 -104.093 70.4033 -99.3787 -105.202 71.5699 
-99.4581 -98.0263 68.2796 -99.0729 -99.1358 68.8137 -98.9086 -100.734 69.6714 
-98.8844 -102.369 70.8094 -99.0685 -103.751 71.8894 -99.2824 -104.942 72.7983 
-99.8834 -96.8005 69.0776 -99.2557 -97.4525 69.626 -98.9536 -98.6099 70.3934 
-98.8887 -100.283 71.4216 -99.0571 -102.017 72.3865 -99.3382 -103.525 73.107 
-99.4401 -104.77 73.7903 -100.418 -95.8367 69.7287 -99.6279 -96.3128 70.329 
-99.1332 -97.0428 71.0591 -98.9208 -98.3646 72.0135 -98.9632 -100.112 73.028 
-99.2719 -101.802 73.7556 -99.5835 -103.24 74.2691 -99.6175 -104.473 74.8603 
-100.953 -95.0378 70.3554 -100.142 -95.5071 71.0084 -99.5586 -96.0598 71.7479 
-99.1906 -96.9762 72.6068 -98.9189 -98.4329 73.6304 -98.8966 -100.077 74.5447 
-99.2409 -101.542 75.1172 -99.604 -102.844 75.5471 -99.6925 -104.092 76.0631 
-101.811 -94.2548 70.9831 -100.948 -94.7097 71.667 -101.923 -94.0118 72.4889 
-101.132 -94.5761 73.3461 -102.197 -93.912 74.1376 -100.256 -95.2854 72.4874 
-101.424 -94.5558 74.9992 -102.517 -93.8556 75.6502 -100.55 -95.2674 74.1862 
-99.8034 -95.9739 73.3094 -101.721 -94.653 76.4527 -102.827 -94.064 77.0747 
-100.836 -95.4052 75.7209 -100.102 -96.1047 74.9488 -99.3455 -97.0718 74.2358 
-102.102 -95.0534 77.8375 -103.182 -94.7314 78.368 -101.12 -95.6843 77.1261 
-100.319 -96.3779 76.418 -99.4736 -97.2933 75.8361 -98.8463 -98.5927 75.2633 
-102.563 -95.7005 79.0816 -103.6 -95.5196 79.4305 -101.501 -96.1141 78.5668 
-100.554 -96.6952 77.9155 -99.7115 -97.5496 77.2814 -98.9628 -98.752 76.732 
-98.8165 -100.116 76.0428 -103.004 -96.3216 80.1782 -104.057 -96.1389 80.4379 
-101.906 -96.6597 79.8826 -100.829 -97.0912 79.482 -100.043 -97.8198 78.8131 
-99.475 -98.9596 78.0248 -99.1428 -100.213 77.3169 -99.2908 -101.482 76.5007 
-103.419 -96.9098 81.248 -104.503 -96.7628 81.4342 -102.333 -97.2813 80.9976 
-101.219 -97.6961 80.7709 -100.366 -98.2562 80.3242 -99.9815 -99.2725 79.4344 
-99.7724 -100.514 78.4868 -99.6409 -101.656 77.7313 -99.6777 -102.838 76.9274 
-103.809 -97.5928 82.1967 -104.884 -97.5342 82.2382 -102.794 -97.9524 81.9649 
-101.805 -98.4524 81.6916 -100.899 -98.9602 81.4208 -100.364 -99.765 80.8085 
-100.188 -100.946 79.8233 -100.039 -102.097 78.9303 -99.8757 -103.125 78.2056 
-99.7689 -104.211 77.4189 -102.758 -94.2496 70.221 -102.818 -93.7817 71.4448 
-103.859 -94.0343 70.7588 -104.002 -93.5776 72.0754 -105.092 -94.0047 71.4007 
-103.021 -93.569 73.0235 -105.311 -93.5618 72.7069 -106.321 -94.1244 71.9933 
-104.262 -93.4033 73.6157 -103.367 -93.4712 74.6236 -106.697 -93.6569 73.2021 
-107.476 -94.4984 72.4943 -105.661 -93.3683 74.1786 -104.675 -93.3252 75.1657 
-103.737 -93.47 76.1442 -108.03 -94.0341 73.5929 -108.56 -95.1174 72.9612 
-107.179 -93.4534 74.6605 -106.169 -93.3256 75.7949 -105.128 -93.4607 76.7312 
-104.06 -93.9379 77.6071 -109.128 -94.7883 73.9991 -109.511 -95.8685 73.4549 
-108.485 -94.002 75.0625 -107.651 -93.5826 76.3905 -106.675 -93.6203 77.4062 
-105.51 -94.1208 78.1345 -104.4 -94.8292 78.8201 -110.001 -95.7394 74.4701 
-110.299 -96.7336 73.9528 -109.454 -94.9898 75.4313 -108.789 -94.3798 76.7825 
-108.055 -94.0723 77.9609 -107.063 -94.3653 78.6898 -105.877 -95.0269 79.2602 
-104.845 -95.6273 79.856 -110.779 -96.6954 74.9325 -110.999 -97.6415 74.3786 
-110.336 -95.992 75.8018 -109.764 -95.4083 77.0043 -109.164 -94.9363 78.2341 
-108.401 -94.8641 79.1505 -107.385 -95.262 79.7786 -106.312 -95.8118 80.3254 
-105.354 -96.293 80.8849 -111.511 -97.5742 75.3111 -111.674 -98.4524 74.7135 
-111.207 -96.8523 76.1454 -110.782 -96.2777 77.2002 -110.258 -95.8543 78.3445 
[...]
CELL_DATA 2000
SCALARS Distance double
LOOKUP_TABLE default
172.981 172.115 172.383 172.014 171.097 171.426 171.016 171.337 170.91 
169.956 170.312 169.843 170.218 169.737 170.109 169.622 168.753 169.107 
168.582 168.962 168.442 168.842 168.344 168.753 168.293 167.496 167.852 
167.282 167.659 167.113 167.518 167.027 167.453 167.019 167.45 167.062 
166.224 166.559 165.961 166.328 165.769 166.178 165.694 166.139 165.711 
166.165 165.769 166.236 165.894 165.023 165.306 164.709 165.03 164.48 
164.853 164.384 164.816 164.399 164.849 164.437 164.904 164.541 165.063 
164.791 163.898 164.138 163.541 163.829 163.289 163.619 163.157 163.548 
163.15 163.568 163.18 163.599 163.249 163.723 163.475 164.021 163.854 
162.851 163.037 162.426 162.689 162.146 162.458 161.982 162.351 161.949 
162.357 162.002 162.407 162.103 162.526 162.32 162.795 162.671 163.185 
163.08 173.439 173.856 173.303 172.578 174.214 173.696 172.946 172.382 
171.59 174.464 174.01 173.278 172.732 171.907 171.33 170.48 174.651 
174.223 173.502 173.011 172.19 171.632 170.757 170.183 169.305 174.831 
174.394 173.654 173.191 172.388 171.877 171.016 170.455 169.553 168.978 
168.071 175 174.562 173.82 173.348 172.558 172.06 171.223 170.689 
169.793 169.219 168.286 167.712 166.803 175.142 174.725 174.008 173.54 
172.764 172.253 171.411 170.879 169.995 169.443 168.533 167.949 167.037 
166.464 165.603 175.224 174.857 174.161 173.73 172.962 172.464 171.611 
171.069 170.186 169.645 168.795 168.235 167.391 166.776 165.917 165.317 
164.497 175.21 174.91 174.23 173.848 173.079 172.624 171.773 171.258 
170.382 169.853 169.043 168.527 167.776 167.2 166.405 165.737 164.897 
164.257 163.472 174.966 174.223 174.406 173.97 173.233 173.52 173.002 
173.27 172.76 171.931 172.345 171.783 172.153 171.616 171.955 171.423 
170.487 170.952 170.442 170.859 170.346 170.733 170.222 170.573 170.048 
169.142 169.555 169.096 169.518 169.009 169.42 168.904 169.32 168.836 
169.212 168.738 168.018 168.303 167.795 168.175 167.609 168.02 167.444 
167.917 167.45 167.952 167.55 167.958 167.513 167.158 167.28 166.695 
166.924 166.335 166.639 166.081 166.474 166.053 166.555 166.231 166.724 
166.318 166.698 166.167 166.47 166.509 165.9 165.964 165.392 165.533 
165.059 165.302 164.956 165.313 165.021 165.437 165.036 165.424 164.859 
165.221 164.619 165.748 165.829 165.224 165.257 164.661 164.732 164.232 
164.417 164.024 164.32 163.935 164.28 163.784 164.124 163.504 163.851 
163.226 163.632 163.124 162.237 162.224 161.743 160.881 162.43 161.775 
160.732 160.318 159.447 162.741 162.007 160.781 160.16 159.07 158.77 
157.866 163.02 162.322 161.027 160.22 158.929 158.399 157.359 157.125 
156.285 163.241 162.621 161.439 160.543 159.223 158.416 157.332 156.805 
155.979 155.693 155.097 163.525 162.926 161.935 161.068 159.899 158.95 
157.933 157.123 156.348 155.731 155.178 154.83 154.542 163.988 163.352 
162.498 161.68 160.678 159.764 158.85 157.968 157.226 156.416 155.841 
155.219 154.891 154.562 154.464 164.56 163.919 163.136 162.35 161.447 
160.593 159.755 158.927 158.228 157.409 156.823 156.064 155.659 155.107 
154.924 154.61 154.557 165.079 164.496 163.758 163.038 162.214 161.408 
160.639 159.84 159.203 158.42 157.889 157.111 156.7 156.007 155.753 
155.222 155.093 154.741 154.695 162.086 160.763 161.474 161.628 159.375 
160.129 160.28 161.068 161.324 157.849 158.681 158.838 159.683 159.955 
160.807 161.153 156.284 157.108 157.31 158.208 158.525 159.427 159.833 
160.707 161.134 155.059 155.652 155.887 156.721 157.136 158.041 158.531 
159.422 159.932 160.77 161.23 154.459 154.707 154.889 155.474 155.921 
156.748 157.337 158.215 158.829 159.655 160.225 160.961 161.43 154.347 
154.362 154.431 154.709 155.038 155.664 156.256 157.102 157.813 158.661 
159.348 160.084 160.666 161.275 161.743 154.41 154.346 154.345 154.415 
154.603 154.948 155.428 156.111 156.828 157.684 158.441 159.256 159.912 
160.585 161.113 161.661 162.115 154.537 154.436 154.451 154.424 154.591 
154.7 155.092 155.475 156.114 156.785 157.529 158.329 159.011 159.779 
160.345 161.005 161.486 162.047 162.499 154.655 155.06 154.731 154.629 
155.835 155.341 155.239 154.855 154.845 156.747 156.229 156.154 155.658 
155.651 155.222 155.361 157.696 157.16 157.12 156.633 156.655 156.17 
156.291 155.91 156.28 158.834 158.196 158.162 157.622 157.665 157.186 
157.299 156.889 157.186 156.957 157.536 160.099 159.427 159.376 158.749 
158.763 158.219 158.325 157.885 158.137 157.849 158.329 158.244 158.92 
161.298 160.671 160.612 159.989 159.967 159.368 159.447 158.947 159.201 
158.831 159.268 159.054 159.653 159.603 160.261 162.445 161.833 161.787 
161.193 161.191 160.588 160.661 160.118 160.377 159.96 160.403 160.081 
160.627 160.412 161.01 160.907 161.472 163.568 162.971 162.934 162.363 
162.407 161.828 161.938 161.373 161.622 161.168 161.598 161.251 161.764 
161.462 161.983 161.745 162.26 162.089 162.554 154.869 155.502 155.131 
155.246 156.461 155.922 155.991 155.686 155.993 157.593 156.984 157.02 
156.567 156.801 156.533 156.893 158.787 158.154 158.193 157.669 157.864 
157.45 157.746 157.457 157.848 160.059 159.393 159.454 158.887 159.108 
158.609 158.912 158.462 158.837 158.511 158.998 161.382 160.713 160.799 
160.206 160.467 159.936 160.289 159.764 160.146 159.67 160.115 159.769 
160.277 162.689 162.054 162.17 161.584 161.859 161.335 161.708 161.193 
161.58 161.059 161.456 160.988 161.418 161.053 161.501 163.939 163.357 
163.501 162.949 163.222 162.717 163.081 162.595 162.979 162.479 162.853 
162.351 162.733 162.267 162.667 162.266 162.675 165.092 164.58 164.739 
164.243 164.51 164.041 164.392 163.936 164.319 163.847 164.216 163.722 
164.079 163.592 163.96 163.501 163.875 163.451 163.818 165.11 164.718 
164.551 163.783 164.471 164.185 163.391 163.156 162.307 164.44 164.049 
163.244 162.872 162.024 161.693 160.831 164.429 164.048 163.231 162.819 
161.96 161.537 160.661 160.287 159.457 164.394 164.005 163.183 162.789 
161.923 161.505 160.62 160.199 159.348 158.981 158.196 164.512 164.038 
163.244 162.778 161.948 161.487 160.635 160.186 159.367 158.95 158.186 
157.799 157.081 164.747 164.247 163.485 162.956 162.17 161.628 160.82 
160.288 159.506 159.035 158.313 157.881 157.185 156.773 156.138 164.952 
164.493 163.75 163.241 162.472 161.931 161.143 160.574 159.793 159.257 
158.535 158.063 157.378 156.933 156.283 155.901 155.387 165.149 164.706 
164.008 163.511 162.774 162.244 161.487 160.928 160.168 159.601 158.886 
158.355 157.695 157.19 156.565 156.103 155.579 155.244 154.904 165.831 
166.836 166.045 165.49 167.94 167.105 166.566 165.742 165.255 169.087 
168.25 167.734 166.886 166.422 165.616 165.223 170.221 169.412 168.933 
168.093 167.644 166.822 166.415 165.622 165.22 171.322 170.56 170.136 
169.318 168.885 168.052 167.62 166.805 166.38 165.587 165.184 172.343 
171.651 171.277 170.524 170.123 169.302 168.854 168.006 167.564 166.754 
166.374 165.597 165.28 173.272 172.637 172.282 171.614 171.246 170.508 
170.077 169.245 168.787 167.955 167.578 166.807 166.51 165.76 165.491 
174.151 173.548 173.213 172.583 172.244 171.575 171.198 170.439 170.009 
169.19 168.795 168.014 167.699 166.965 166.677 165.952 165.667 174.959 
174.41 174.11 173.516 173.217 172.574 172.254 171.546 171.184 170.406 
170.025 169.233 168.883 168.129 167.811 167.092 166.789 166.088 165.817 
175.267 175.489 175.08 174.473 175.732 175.323 174.723 174.282 173.62 
175.908 175.528 174.911 174.516 173.844 173.39 172.666 176.043 175.648 
175.002 174.646 173.982 173.576 172.834 172.377 171.603 176.263 175.799 
175.127 174.725 174.046 173.66 172.911 172.491 171.681 171.249 170.449 
176.502 176.043 175.341 174.888 174.152 173.712 172.905 172.489 171.641 
171.252 170.417 170.045 169.271 176.587 176.215 175.498 175.083 174.322 
173.844 172.983 172.484 171.591 171.163 170.32 169.961 169.177 168.859 
168.152 176.544 176.228 175.531 175.174 174.444 174.007 173.182 172.637 
171.748 171.202 170.362 169.909 169.143 168.77 168.059 167.759 167.114 
176.465 176.179 175.501 175.17 174.455 174.087 173.315 172.848 172.001 
171.447 170.605 170.067 169.296 168.827 168.114 167.72 167.06 166.755 
166.158 176.177 175.267 175.582 175.192 174.069 174.526 174.159 174.511 
174.106 172.777 173.26 172.909 173.352 172.964 173.365 172.944 171.502 
171.99 171.627 172.064 171.654 172.111 171.7 172.131 171.656 170.075 
170.662 170.293 170.769 170.324 170.773 170.341 170.811 170.378 170.792 
170.296 168.511 169.142 168.793 169.357 168.945 169.437 169.012 169.469 
169.053 169.493 169.056 169.445 168.983 167.058 167.613 167.29 167.84 
167.489 168.031 167.673 168.164 167.769 168.202 167.777 168.191 167.763 
168.165 167.766 165.766 166.251 165.939 166.423 166.086 166.603 166.277 
166.806 166.444 166.917 166.494 166.921 166.496 166.923 166.543 166.983 
166.672 164.564 165.003 164.681 165.132 164.786 165.256 164.918 165.422 
165.078 165.571 165.182 165.633 165.226 165.662 165.297 165.751 165.46 
165.941 165.732 176.589 176.819 176.401 175.674 176.879 176.512 175.732 
175.312 174.449 176.853 176.491 175.661 175.268 174.37 173.971 173.108 
176.765 176.432 175.579 175.17 174.233 173.826 172.915 172.597 171.777 
176.524 176.286 175.426 175.053 174.052 173.641 172.616 172.297 171.372 
171.17 170.308 176.085 175.956 175.076 174.783 173.714 173.356 172.228 
171.9 170.839 170.631 169.696 169.574 168.711 175.482 175.442 174.568 
174.331 173.245 172.92 171.793 171.459 170.367 170.076 169.083 168.911 
168.056 167.978 167.223 174.786 174.801 174.004 173.812 172.799 172.47 
171.421 171.069 170.064 169.696 168.719 168.396 167.52 167.352 166.621 
166.57 165.919 174.111 174.133 173.446 173.303 172.42 172.109 171.148 
170.79 169.873 169.499 168.594 168.181 167.298 166.959 166.2 166.03 
165.395 165.334 164.742 177.144 178.097 177.57 177.434 179.171 178.591 
178.472 177.843 177.595 180.203 179.712 179.653 178.993 178.774 178.005 
177.652 180.824 180.594 180.609 180.159 179.962 179.238 178.82 178.003 
177.538 181.038 180.952 180.937 180.825 180.635 180.222 179.705 179.028 
178.398 177.725 177.191 181.181 181.046 180.929 180.906 180.731 180.572 
180.057 179.603 178.853 178.326 177.672 177.21 176.672 181.276 181.15 
180.976 180.89 180.738 180.601 180.207 179.822 179.124 178.61 177.908 
177.498 176.941 176.577 176.031 181.185 181.162 180.988 180.928 180.753 
180.65 180.337 180.032 179.456 178.934 178.254 177.742 177.155 176.763 
176.232 175.863 175.299 181.01 181.033 180.893 180.87 180.654 180.598 
180.267 180.111 179.605 179.256 178.621 178.141 177.52 177.045 176.481 
176.058 175.51 175.119 174.585 180.921 180.803 180.845 180.794 180.598 
180.673 180.528 180.607 180.49 180.158 180.352 180.137 180.238 179.982 
180.155 179.989 179.376 179.726 179.493 179.709 179.353 179.525 179.22 
179.511 179.284 178.357 178.768 178.5 178.875 178.521 178.783 178.393 
178.659 178.361 178.694 178.381 177.318 177.689 177.365 177.766 177.447 
177.828 177.473 177.777 177.432 177.75 177.44 177.737 177.357 176.258 
176.638 176.295 176.652 176.342 176.736 176.453 176.809 176.485 176.804 
176.471 176.789 176.428 176.698 176.296 175.108 175.539 175.225 175.601 
175.297 175.682 175.417 175.794 175.493 175.828 175.481 175.805 175.438 
175.743 175.354 175.637 175.273 173.975 174.397 174.129 174.527 174.251 
174.645 174.382 174.769 174.473 174.821 174.476 174.802 174.444 174.757 
174.396 174.688 174.341 174.642 174.345 173.302 172.353 173.042 173.448 
171.289 172.055 172.471 173.173 173.58 170.047 170.913 171.363 172.155 
172.58 173.302 173.71 168.733 169.617 170.1 170.98 171.446 172.254 
172.674 173.408 173.784 167.496 168.323 168.792 169.685 170.189 171.069 
171.527 172.325 172.715 173.44 173.785 166.356 167.132 167.567 168.401 
168.885 169.781 170.274 171.14 171.571 172.348 172.719 173.43 173.764 
165.299 166.033 166.47 167.228 167.673 168.497 168.976 169.858 170.331 
171.178 171.598 172.362 172.73 173.421 173.74 164.354 165.028 165.472 
166.18 166.611 167.347 167.792 168.597 169.078 169.93 170.408 171.229 
171.659 172.396 172.758 173.412 173.721 163.523 164.128 164.54 165.21 
165.634 166.328 166.758 167.487 167.949 168.735 169.225 170.046 170.525 
171.317 171.742 172.447 172.806 173.427 173.749 173.585 172.589 173.046 
172.885 171.466 171.953 171.707 172.182 171.86 170.206 170.721 170.406 
170.905 170.531 171.011 170.61 168.902 169.404 169.057 169.544 169.143 
169.631 169.233 169.732 169.353 167.637 168.102 167.751 168.205 167.799 
168.25 167.847 168.342 167.969 168.483 168.097 166.43 166.848 166.473 
166.912 166.499 166.933 166.509 166.972 166.58 167.083 166.694 167.195 
166.809 165.283 165.649 165.228 165.634 165.194 165.621 165.163 165.617 
165.189 165.688 165.301 165.804 165.445 165.949 165.679 164.191 164.51 
164.054 164.406 163.941 164.323 163.835 164.248 163.776 164.262 163.872 
164.412 164.094 164.624 164.385 164.936 164.822 163.195 163.451 162.98 
163.264 162.782 163.107 162.611 162.956 162.457 162.864 162.458 162.98 
162.708 163.282 163.09 163.663 163.55 164.159 164.14 175.831 175.902 
176.209 176.911 175.851 176.243 176.994 177.355 178.122 175.722 176.156 
176.905 177.35 178.124 178.534 179.253 175.532 175.986 176.708 177.194 
177.946 178.431 179.166 179.578 180.209 175.299 175.743 176.417 176.928 
177.665 178.197 178.936 179.42 180.081 180.458 180.952 175.099 175.505 
176.15 176.617 177.348 177.884 178.632 179.153 179.799 180.243 180.712 
181.044 181.283 174.89 175.321 175.989 176.411 177.131 177.599 178.331 
178.828 179.458 179.909 180.35 180.71 180.936 181.177 181.195 174.543 
175.06 175.735 176.233 176.908 177.383 178.024 178.504 179.078 179.536 
179.979 180.343 180.607 180.84 180.923 181.037 181.006 174.071 174.622 
175.237 175.833 176.423 177 177.514 178.064 178.536 179.071 179.5 
179.951 180.258 180.549 180.696 180.836 180.868 180.924 180.935 175.936 
177.035 176.437 176.373 178.308 177.665 177.603 176.909 176.816 179.485 
178.952 178.927 178.221 178.077 177.366 177.206 180.428 180.028 180.002 
179.432 179.231 178.58 178.321 177.658 177.324 181.154 180.879 180.841 
180.364 180.12 179.557 179.26 178.674 178.325 177.637 177.161 181.46 
181.424 181.419 181.112 180.897 180.384 180.125 179.566 179.324 178.668 
178.297 177.477 176.985 181.298 181.457 181.478 181.476 181.345 181.075 
180.863 180.429 180.243 179.698 179.418 178.672 178.197 177.329 176.805 
181.055 181.189 181.234 181.363 181.34 181.324 181.173 180.983 180.753 
180.448 180.116 179.631 179.097 178.409 177.758 177.022 176.438 181.004 
181.041 181.152 181.21 181.308 181.309 181.257 181.137 180.887 180.692 
180.288 180.016 179.442 179.008 178.302 177.74 177.062 176.496 175.948 
175.393 175.787 175.308 174.698 176.189 175.695 175.098 174.58 173.818 
176.538 176.069 175.428 174.95 174.171 173.557 172.558 176.604 176.269 
175.533 175.159 174.319 173.809 172.752 172.115 171.023 176.358 176.115 
175.312 175.064 174.194 173.822 172.794 172.235 171.131 170.557 169.608 
176.122 175.812 175.006 174.749 173.952 173.645 172.773 172.293 171.34 
170.738 169.842 169.287 168.536 175.988 175.65 174.877 174.542 173.832 
173.499 172.787 172.368 171.606 171.056 170.276 169.664 168.942 168.368 
167.729 175.746 175.513 174.784 174.485 173.795 173.476 172.803 172.447 
171.751 171.328 170.602 170.099 169.366 168.821 168.135 167.615 167.006 
175.372 175.228 174.556 174.345 173.664 173.413 172.727 172.437 171.724 
171.394 170.653 170.284 169.527 169.113 168.363 167.931 167.238 166.833 
166.216 177.066 177.21 177.447 178.051 177.31 177.618 178.31 178.507 
179.133 177.233 177.669 178.4 178.734 179.38 179.582 180.11 176.975 
177.486 178.204 178.683 179.319 179.683 180.181 180.406 180.73 176.737 
177.205 177.905 178.393 179.018 179.465 180.01 180.361 180.77 180.912 
181.092 176.547 176.98 177.645 178.102 178.711 179.14 179.726 180.148 
180.724 180.994 181.357 181.312 181.393 176.301 176.736 177.34 177.816 
178.409 178.849 179.418 179.867 180.483 180.918 181.411 181.581 181.727 
181.583 181.497 176.053 176.456 177.056 177.505 178.147 178.575 179.18 
179.583 180.158 180.609 181.097 181.465 181.648 181.741 181.614 181.514 
181.316 175.864 176.242 176.891 177.303 178.035 178.431 179.132 179.453 
180.034 180.337 180.784 181.094 181.316 181.503 181.443 181.461 181.268 
181.223 181.069 
POINT_DATA 1002
SCALARS Distance double
LOOKUP_TABLE default
172.636 173.553 172.757 171.757 171.835 171.651 170.69 170.769 170.606 
170.477 169.481 169.619 169.362 169.248 169.147 168.224 168.42 168.046 
167.921 167.867 167.868 166.915 167.155 166.709 166.589 166.575 166.617 
166.705 165.608 165.911 165.363 165.24 165.257 165.305 165.389 165.59 
164.4 164.761 164.121 163.958 163.955 163.988 164.023 164.213 164.573 
163.255 163.679 162.968 162.781 162.736 162.765 162.792 162.936 163.278 
163.714 162.179 162.696 161.845 161.627 161.541 161.576 161.669 161.854 
162.173 162.565 162.965 174.008 173.145 174.418 173.528 174.698 172.168 
173.807 174.89 172.501 171.055 173.974 175.092 172.729 171.343 169.878 
174.118 175.285 172.874 171.563 170.146 168.639 174.288 175.431 173.056 
171.747 170.361 168.876 167.345 174.46 175.538 173.28 171.958 170.532 
169.095 167.629 166.139 174.575 175.561 173.452 172.157 170.72 169.31 
167.982 166.563 165.052 174.596 175.476 173.521 172.266 170.899 169.531 
168.293 167.057 165.597 164.042 174.828 173.796 174.047 172.718 172.935 
172.496 171.384 171.477 171.248 171.106 169.997 169.99 169.946 169.846 
169.717 168.679 168.76 168.615 168.47 168.4 168.393 167.474 167.824 
167.235 166.98 166.887 167.067 167.193 166.546 167.107 166.067 165.707 
165.56 165.715 165.916 165.849 165.877 166.429 165.282 164.831 164.644 
164.668 164.685 164.509 164.22 165.183 165.635 164.616 164.089 163.781 
163.652 163.49 163.179 162.826 162.634 161.383 161.212 160.047 161.288 
159.697 158.599 161.558 159.5 158.019 156.986 161.921 159.607 157.686 
156.379 155.498 162.293 160.107 157.961 156.356 155.208 154.593 162.708 
160.808 158.785 157.057 155.636 154.695 154.344 163.262 161.529 159.702 
158.065 156.56 155.331 154.653 154.401 163.884 162.265 160.552 159.016 
157.607 156.306 155.343 154.781 154.492 164.423 162.97 161.412 159.956 
158.641 157.424 156.374 155.546 154.954 154.643 160.861 159.481 160.502 
157.967 159.07 160.295 156.375 157.591 158.919 160.289 155.09 156.203 
157.618 159.062 160.449 154.446 155.137 156.431 157.97 159.459 160.77 
154.302 154.552 155.432 156.914 158.561 160.028 161.204 154.34 154.397 
154.866 155.993 157.585 159.183 160.528 161.611 154.479 154.539 154.843 
155.572 156.783 158.226 159.631 160.88 161.971 154.847 154.874 155.465 
155.691 156.354 155.157 156.647 157.246 156.13 155.672 157.592 158.255 
157.126 156.715 156.491 158.746 159.506 158.152 157.721 157.468 157.605 
160.033 160.76 159.353 158.787 158.47 158.479 158.908 161.223 161.914 
160.584 159.968 159.589 159.55 159.779 160.275 162.365 163.059 161.777 
161.216 160.802 160.744 160.919 161.187 161.571 163.49 164.157 162.95 
162.496 162.105 161.961 162.094 162.284 162.481 162.73 155.119 155.432 
155.959 156.379 157.049 156.166 157.527 158.207 157.159 157.084 158.733 
159.426 158.325 158.112 158.047 160.025 160.728 159.609 159.395 159.233 
159.236 161.387 162.031 160.987 160.809 160.667 160.543 160.569 162.744 
163.294 162.381 162.212 162.106 161.971 161.857 161.831 164.036 164.49 
163.726 163.562 163.47 163.362 163.229 163.117 163.055 165.215 165.572 
164.969 164.837 164.78 164.711 164.577 164.434 164.332 164.24 165.273 
163.96 164.924 163.675 164.816 162.541 163.657 164.85 162.404 161.129 
163.638 164.8 162.399 161.08 159.778 163.581 164.803 162.334 161.041 
159.742 158.527 163.732 165.003 162.423 161.09 159.778 158.585 157.449 
164.011 165.229 162.715 161.374 160 158.745 157.613 156.497 164.243 
165.387 162.999 161.705 160.352 159.029 157.833 156.691 155.664 166.588 
166.277 167.645 167.396 168.782 166.029 168.574 169.909 167.236 166.006 
169.757 170.999 168.471 167.228 166.013 170.927 172.044 169.727 168.459 
167.177 165.952 171.987 173.001 170.921 169.723 168.385 167.135 166.037 
172.925 173.893 171.938 170.882 169.63 168.35 167.252 166.243 173.829 
174.735 172.888 171.909 170.807 169.594 168.444 167.403 166.386 174.67 