# vtk DataFile Version 4.0
vtk output
ASCII
DATASET POLYDATA
POINTS 1002 float
-105 -122.606 74.8883 -105.825 -123.342 74.4788 -105.467 -122.836 73.784 
-104.661 -122.016 74.1937 -105.14 -122.176 73.0978 -104.337 -121.636 75.3151 
-104.335 -121.217 73.5394 -104.869 -121.37 72.5065 -104.013 -120.821 74.6671 
-103.665 -120.334 75.779 -103.989 -120.259 72.9113 -104.614 -120.375 71.9643 
-103.622 -119.84 74.0428 -103.363 -119.253 75.2033 -102.904 -118.883 76.3299 
-103.618 -119.136 72.2926 -104.269 -119.238 71.4434 -103.116 -118.831 73.3477 
-102.84 -118.275 74.5874 -102.446 -117.879 75.7979 -102.008 -117.674 76.91 
-103.21 -117.94 71.8114 -103.848 -118.111 70.9991 -102.569 -117.77 72.7092 
-102.054 -117.488 73.8534 -101.548 -117.203 75.1458 -101.067 -117.016 76.3466 
-100.877 -116.684 77.3933 -102.73 -116.858 71.3926 -103.443 -117.019 70.6183 
-102.018 -116.731 72.2387 -101.277 -116.673 73.2104 -100.565 -116.585 74.4118 
-100.01 -116.415 75.6501 -99.7942 -116.079 76.7649 -99.8534 -115.628 77.7979 
-102.204 -115.888 70.8947 -103.062 -115.917 70.2874 -101.452 -115.835 71.7067 
-100.708 -115.788 72.6521 -99.9755 -115.699 73.7701 -99.45 -115.496 74.9666 
-99.2543 -115.159 76.0803 -99.2634 -114.763 77.1459 -99.3042 -114.493 78.2242 
-101.755 -114.912 70.4593 -102.702 -114.876 70.031 -100.979 -114.948 71.1414 
-100.343 -114.875 72.0637 -99.7447 -114.623 73.1681 -99.2833 -114.263 74.3285 
-99.0942 -113.924 75.4354 -99.061 -113.626 76.52 -99.0184 -113.415 77.608 
-98.9891 -113.367 78.6598 -101.458 -113.928 70.1721 -102.383 -113.966 69.8119 
-100.714 -113.937 70.75 -100.166 -113.853 71.5887 -99.6566 -113.535 72.6298 
-99.1461 -113.045 73.6987 -98.7814 -112.653 74.7274 -98.6002 -112.459 75.8543 
-98.51 -112.334 77.0492 -98.4997 -112.257 78.1149 -98.6151 -112.279 79.0195 
-106.643 -123.659 73.663 -106.239 -123.09 72.919 -107.587 -123.843 72.8627 
-107.069 -123.343 72.0635 -108.445 -123.966 72.0519 -105.824 -122.446 72.2078 
-107.856 -123.528 71.1428 -109.244 -124.013 71.1518 -106.504 -122.784 71.2724 
-105.528 -121.615 71.6311 -108.801 -123.37 70.2111 -110.117 -123.836 70.2635 
-107.308 -122.874 70.2932 -106.161 -121.849 70.6886 -105.258 -120.514 71.1203 
-109.893 -122.886 69.4537 -110.99 -123.409 69.4363 -108.494 -122.422 69.5417 
-107.051 -121.727 69.827 -105.895 -120.594 70.2268 -104.864 -119.336 70.6006 
-110.836 -122.419 68.7104 -111.825 -122.941 68.5164 -109.718 -121.803 69.0047 
-108.279 -121.243 69.2372 -106.817 -120.454 69.4534 -105.581 -119.369 69.7719 
-104.501 -118.172 70.1929 -111.656 -122.049 67.8663 -112.711 -122.507 67.6342 
-110.616 -121.357 68.2813 -109.326 -120.777 68.578 -107.861 -120.207 68.7276 
-106.529 -119.292 69.0373 -105.383 -118.102 69.5353 -104.257 -116.91 69.9829 
-112.536 -121.564 67.2448 -113.623 -121.941 67.1027 -111.403 -120.92 67.5 
-110.074 -120.346 67.6914 -108.646 -119.92 67.8232 -107.385 -119.186 68.2052 
-106.309 -118.003 68.8967 -105.217 -116.732 69.5199 -103.983 -115.669 69.8543 
-113.438 -120.884 66.9751 -114.448 -121.188 66.8796 -112.268 -120.348 67.0272 
-110.835 -119.825 66.9849 -109.315 -119.485 66.9961 -108.046 -118.968 67.3402 
-107.041 -117.943 68.0879 -106.049 -116.67 68.915 -104.91 -115.53 69.453 
-103.629 -114.645 69.6815 -114.588 -120.185 66.7363 -113.49 -119.778 66.7867 
-114.606 -119.125 66.3742 -113.287 -118.69 66.3591 -114.377 -118.078 65.8932 
-112.014 -119.284 66.6275 -112.79 -117.627 65.9783 -113.885 -116.955 65.7875 
-111.496 -118.295 66.1984 -110.278 -118.929 66.4822 -112.078 -116.363 65.9931 
-113.146 -115.675 66.1313 -110.838 -117.14 66.0298 -109.718 -117.891 66.3003 
-108.776 -118.53 66.7013 -111.265 -114.823 66.2564 -112.257 -114.263 66.5332 
-110.127 -115.566 66.1219 -109.211 -116.397 66.3454 -108.431 -117.144 66.777 
-107.673 -117.671 67.3426 -110.557 -113.306 66.7014 -111.419 -112.952 67.0604 
-109.493 -113.846 66.4646 -108.656 -114.587 66.5423 -108.057 -115.392 66.9278 
-107.352 -116.067 67.474 -106.641 -116.462 68.193 -110.002 -112.152 67.5584 
-110.671 -111.966 67.9761 -109.083 -112.439 67.2212 -108.164 -112.96 67.1386 
-107.524 -113.668 67.3784 -106.894 -114.413 67.7674 -106.137 -114.985 68.2851 
-105.478 -115.293 68.9265 -109.416 -111.251 68.641 -109.949 -111.123 68.9999 
-108.71 -111.35 68.2363 -107.796 -111.636 67.986 -106.975 -112.156 68.0954 
-106.302 -112.808 68.3808 -105.545 -113.478 68.6072 -104.789 -113.989 68.9091 
-104.173 -114.317 69.3239 -108.779 -110.237 69.4658 -109.31 -110.118 69.7082 
-108.177 -110.258 69.1035 -107.355 -110.37 68.7371 -106.452 -110.702 68.6486 
-105.664 -111.196 68.85 -104.878 -111.816 68.9843 -104.05 -112.501 68.997 
-103.355 -113.075 69.1566 -102.826 -113.521 69.4804 -101.503 -112.978 69.7681 
-101.836 -112.371 69.334 -100.752 -111.734 69.743 -102.331 -111.647 69.0213 
-100.922 -110.894 69.202 -100.261 -110.196 69.8172 -103.131 -110.768 68.9962 
-101.397 -109.828 68.8876 -100.361 -109.078 69.2874 -100.024 -108.421 70.1246 
-104.111 -109.976 69.0783 -102.36 -108.71 68.8991 -100.934 -107.741 68.9797 
-100.197 -107.062 69.6552 -99.8209 -106.557 70.5857 -105.022 -109.452 69.0434 
-103.482 -107.978 69.0869 -102.036 -106.646 68.9734 -100.897 -105.741 69.2645 
-100.102 -105.207 70.084 -99.564 -104.864 71.0464 -105.939 -109.12 69.0963 
-104.454 -107.683 69.3415 -103.162 -106.228 69.3305 -102.024 -105.002 69.2502 
-100.932 -104.236 69.7171 -100.038 -103.795 70.6653 -99.5006 -103.473 71.6203 
-106.904 -108.965 69.3874 -105.452 -107.569 69.6207 -104.148 -106.244 69.8078 
-103.134 -104.936 69.7556 -102.141 -103.849 69.8929 -101.08 -103.167 70.6161 
-100.221 -102.678 71.5189 -99.6853 -102.292 72.3369 -107.731 -108.953 69.7252 
-106.515 -107.531 69.8578 -105.249 -106.295 70.0844 -104.193 -105.104 70.2861 
-103.329 -103.855 70.4622 -102.398 -102.878 70.9396 -101.399 -102.217 71.628 
-100.541 -101.672 72.2914 -99.9277 -101.321 73.0403 -108.401 -108.929 69.9704 
-107.445 -107.537 70.0723 -106.38 -106.319 70.2611 -105.308 -105.257 70.5971 
-104.397 -104.044 70.9512 -103.583 -102.86 71.3546 -102.698 -102.006 71.8098 
-101.747 -101.366 72.2624 -100.871 -100.876 72.868 -100.223 -100.686 73.7313 
-100.74 -112.832 70.2859 -100.286 -111.421 70.4624 -100.213 -112.68 71.0672 
-100.015 -109.783 70.7134 -99.8868 -111.118 71.4523 -99.7149 -112.407 72.0865 
-99.7554 -108.033 71.121 -99.5464 -109.511 71.8362 -99.2143 -110.83 72.5648 
-99.0599 -111.954 73.1356 -99.4312 -106.24 71.6141 -99.2591 -107.899 72.3095 
-98.8219 -109.426 72.987 -98.3756 -110.552 73.5032 -98.3868 -111.527 74.0586 
-99.2048 -104.563 72.1096 -99.0992 -106.197 72.849 -98.8789 -108.009 73.5549 
-98.2702 -109.428 73.9903 -97.6986 -110.411 74.4561 -97.9042 -111.365 75.1745 
-99.2234 -103.102 72.7185 -99.0116 -104.519 73.4067 -99.0181 -106.406 74.2141 
-98.8227 -108.205 74.7814 -97.9796 -109.489 75.2477 -97.2958 -110.423 75.9326 
-97.6688 -111.335 76.6183 -99.3773 -101.908 73.472 -99.0169 -103.034 74.0868 
-98.9208 -104.734 74.8561 -99.097 -106.694 75.5568 -98.8377 -108.364 76.1601 
-97.8265 -109.51 76.8631 -97.2283 -110.375 77.5291 -97.7066 -111.256 77.9124 
-99.614 -101.118 74.2775 -99.1916 -101.947 74.8851 -98.902 -103.26 75.5459 
-98.9388 -105.013 76.1967 -99.164 -106.868 76.8166 -98.7815 -108.362 77.5067 
-97.8642 -109.39 78.1807 -97.519 -110.244 78.6063 -97.9958 -111.2 78.8207 
-100.264 -100.607 74.9405 -99.7358 -101.186 75.5708 -100.651 -100.917 76.2598 
-100.194 -101.561 76.807 -101.242 -101.333 77.3748 -99.3241 -102.065 76.1974 
-100.654 -101.932 77.9794 -101.618 -101.54 78.5514 -99.6297 -102.317 77.4729 
-98.9762 -103.338 76.8302 -100.755 -102.159 79.4494 -101.717 -101.701 80.046 
-99.7454 -102.558 78.9472 -99.0635 -103.409 78.2415 -98.9948 -105.047 77.4398 
-100.869 -102.449 80.9421 -101.911 -102.102 81.4114 -99.7714 -102.851 80.5514 
-99.0343 -103.55 79.9163 -98.9567 -105.007 78.908 -99.1201 -106.858 78.0567 
-101.354 -102.902 82.0694 -102.271 -102.61 82.5512 -100.298 -103.341 81.6597 
-99.3489 -103.95 81.3069 -98.9631 -105.114 80.5256 -98.984 -106.79 79.4317 
-98.6638 -108.308 78.6805 -101.887 -103.452 83.2054 -102.656 -103.139 83.7066 
-101.117 -104.005 82.4946 -100.24 -104.651 82.0125 -99.4736 -105.56 81.683 
-99.065 -106.92 80.8858 -98.7111 -108.314 79.8462 -98.0738 -109.388 79.1452 
-102.351 -104.208 84.2821 -103.165 -103.919 84.5445 -101.701 -104.788 83.568 
-101.102 -105.489 82.6786 -100.388 -106.26 82.2143 -99.6467 -107.314 81.9087 
-99.0787 -108.532 81.1221 -98.5794 -109.576 80.153 -98.1275 -110.433 79.4378 
-103.006 -105.233 84.7871 -103.885 -104.975 84.8186 -102.232 -105.709 84.4618 
-101.669 -106.335 83.6293 -101.194 -107.016 82.7564 -100.534 -107.851 82.3466 
-99.7902 -108.874 81.9975 -99.2297 -109.896 81.2728 -98.8345 -110.807 80.436 
-98.5999 -111.606 79.7149 -101.1 -100.341 73.9036 -101.275 -100.329 75.3168 
-102.348 -100.181 74.2974 -102.588 -100.128 75.8827 -103.647 -100.203 74.9963 
-101.706 -100.628 76.7454 -103.834 -100.043 76.4824 -104.679 -100.464 75.7126 
-102.844 -100.235 77.3262 -102.158 -100.851 77.9365 -104.935 -100.295 76.9034 
-105.569 -101.029 76.1912 -104.001 -99.9864 77.8345 -103.081 -100.23 78.6869 
-102.427 -100.907 79.3163 -106.052 -100.953 77.3104 -106.528 -101.765 76.6071 
-105.366 -100.27 78.2862 -104.347 -99.9918 79.4211 -103.414 -100.386 80.2514 
-102.649 -101.263 80.8171 -107.112 -101.694 77.8088 -107.603 -102.382 77.0196 
-106.663 -101.027 78.7726 -105.885 -100.493 79.9427 -104.83 -100.47 80.9234 
-103.83 -101.141 81.4914 -102.957 -101.974 81.9834 -108.193 -102.231 78.133 
-108.795 -102.792 77.241 -107.658 -101.783 79.1007 -107.072 -101.412 80.1558 
-106.234 -101.201 81.1453 -105.24 -101.466 81.8404 -104.225 -102.082 82.4151 
-103.312 -102.612 83.0892 -109.358 -102.699 78.2567 -109.914 -103.199 77.3347 
-108.716 -102.351 79.2335 -108.083 -102.159 80.2118 -107.366 -102.05 81.1924 
-106.547 -102.078 82.0523 -105.649 -102.37 82.7822 -104.661 -102.79 83.5054 
-103.772 -103.252 84.1443 -110.316 -103.336 78.4086 -110.728 -103.773 77.5032 
-109.793 -102.975 79.3955 -109.258 -102.697 80.3798 -108.614 -102.577 81.3965 
[...]
CELL_DATA 2000
SCALARS Distance double
LOOKUP_TABLE default
177.213 176.319 176.639 176.356 175.349 175.69 175.375 175.721 175.364 
174.299 174.654 174.271 174.65 174.245 174.613 174.192 173.128 173.509 
173.05 173.457 173.013 173.422 172.995 173.398 173.022 171.903 172.27 
171.772 172.171 171.705 172.14 171.718 172.165 171.787 172.242 171.9 
170.718 171.046 170.538 170.898 170.422 170.831 170.409 170.861 170.477 
170.956 170.598 171.087 170.754 169.567 169.868 169.351 169.694 169.226 
169.595 169.175 169.581 169.209 169.653 169.32 169.786 169.491 169.971 
169.74 168.479 168.728 168.209 168.532 168.096 168.447 168.041 168.401 
168.017 168.42 168.09 168.546 168.281 168.759 168.552 169.053 168.918 
167.512 167.689 167.177 167.447 167.049 167.373 167.002 167.32 166.905 
167.244 166.839 167.283 166.971 167.513 167.286 167.847 167.676 168.247 
168.134 177.61 177.946 177.419 176.703 178.266 177.741 176.979 176.468 
175.743 178.487 178.017 177.252 176.739 175.975 175.491 174.741 178.592 
178.179 177.413 176.956 176.168 175.7 174.908 174.433 173.61 178.599 
178.244 177.495 177.076 176.294 175.842 175.024 174.558 173.709 173.237 
172.388 178.513 178.222 177.538 177.166 176.431 175.978 175.174 174.672 
173.827 173.33 172.49 172.02 171.208 178.413 178.14 177.499 177.187 
176.484 176.101 175.319 174.847 174.017 173.5 172.682 172.17 171.37 
170.878 170.088 178.38 178.088 177.438 177.122 176.383 176.057 175.264 
174.909 174.099 173.68 172.882 172.402 171.617 171.097 170.304 169.786 
169.017 178.357 178.083 177.428 177.075 176.292 175.916 175.091 174.765 
173.986 173.675 172.928 172.555 171.803 171.345 170.574 170.052 169.279 
168.761 168.046 178.12 177.368 177.589 177.17 176.408 176.709 176.225 
176.465 175.94 175.307 175.636 175.107 175.395 174.827 175.132 174.659 
174.107 174.444 173.864 174.198 173.647 173.988 173.534 173.899 173.553 
172.774 173.131 172.459 172.855 172.299 172.756 172.346 172.782 172.439 
172.845 172.531 171.493 171.768 171.075 171.409 170.838 171.331 170.959 
171.516 171.198 171.685 171.344 171.784 171.429 170.577 170.679 170.086 
170.207 169.678 169.974 169.637 170.128 169.88 170.393 170.08 170.544 
170.175 170.62 170.223 169.941 169.984 169.465 169.464 168.938 169.03 
168.637 168.947 168.687 169.128 168.836 169.275 168.896 169.332 168.918 
169.363 168.941 169.236 169.36 168.808 168.869 168.25 168.32 167.754 
167.98 167.55 167.947 167.553 168.001 167.549 168.005 167.538 168.015 
167.585 168.066 167.69 166.894 166.672 166.358 165.571 166.524 166.087 
165.108 164.906 164.166 166.499 165.941 164.784 164.387 163.448 163.429 
162.826 166.565 165.963 164.742 164.121 162.995 162.719 161.969 162.095 
161.614 166.674 166.082 164.952 164.213 163.035 162.438 161.534 161.341 
160.772 160.919 160.51 166.962 166.31 165.326 164.558 163.506 162.721 
161.791 161.202 160.555 160.318 159.921 159.967 159.693 167.504 166.78 
165.89 165.087 164.185 163.371 162.558 161.763 161.116 160.497 160.101 
159.762 159.543 159.428 159.282 168.097 167.411 166.572 165.774 164.944 
164.158 163.456 162.669 162.078 161.319 160.895 160.296 160.046 159.632 
159.45 159.214 159.094 168.563 167.977 167.194 166.475 165.696 164.963 
164.324 163.603 163.065 162.327 161.875 161.202 160.874 160.317 160.056 
159.604 159.396 159.123 159.068 166.805 165.586 166.283 166.478 164.333 
165.087 165.378 166.072 166.372 163.115 163.885 164.248 164.987 165.326 
166.017 166.323 161.949 162.719 163.11 163.87 164.21 164.927 165.194 
165.899 166.164 160.821 161.564 161.996 162.772 163.165 163.843 164.086 
164.719 164.931 165.671 166.008 159.901 160.485 160.946 161.715 162.278 
162.953 163.342 163.797 164.011 164.513 164.851 165.606 166.125 159.346 
159.7 160.092 160.755 161.433 162.187 162.861 163.341 163.743 163.959 
164.281 164.672 165.2 165.898 166.517 159.081 159.265 159.551 160.024 
160.638 161.384 162.199 162.922 163.609 163.951 164.358 164.473 164.872 
165.208 165.779 166.39 166.987 159.072 159.114 159.378 159.631 160.14 
160.675 161.408 162.187 162.999 163.699 164.3 164.617 164.963 165.104 
165.477 165.816 166.35 166.909 167.485 159.285 160.056 159.574 159.624 
161.16 160.533 160.49 160.063 160.326 162.211 161.644 161.533 161.005 
161.133 160.881 161.429 163.116 162.613 162.504 161.99 162.017 161.688 
162.132 162.125 162.917 164.082 163.537 163.461 162.931 162.948 162.548 
162.899 162.812 163.53 163.641 164.324 165.17 164.586 164.555 163.974 
164.04 163.543 163.852 163.608 164.208 164.217 164.832 164.828 165.15 
166.323 165.739 165.783 165.183 165.312 164.75 165.053 164.652 165.156 
164.956 165.482 165.349 165.687 165.492 165.679 167.533 166.955 167.078 
166.491 166.669 166.09 166.37 165.896 166.323 165.984 166.449 166.146 
166.507 166.18 166.463 166.157 166.489 168.773 168.214 168.381 167.824 
168.02 167.453 167.684 167.18 167.511 167.128 167.531 167.191 167.562 
167.18 167.516 167.126 167.505 167.174 167.61 159.374 160.014 159.765 
160.158 161.014 160.589 160.928 160.745 161.27 162.125 161.639 161.839 
161.552 161.935 161.835 162.292 163.239 162.713 162.803 162.415 162.643 
162.449 162.817 162.759 163.182 164.473 163.879 164.008 163.458 163.67 
163.243 163.588 163.356 163.82 163.704 164.183 165.767 165.189 165.404 
164.818 165.105 164.507 164.857 164.365 164.824 164.513 165.024 164.811 
165.293 166.95 166.453 166.666 166.195 166.499 165.995 166.317 165.776 
166.143 165.683 166.126 165.779 166.233 165.961 166.423 168.027 167.582 
167.784 167.365 167.652 167.257 167.581 167.145 167.472 167.011 167.39 
166.965 167.386 167.001 167.432 167.125 167.604 169.042 168.644 168.889 
168.474 168.783 168.38 168.745 168.341 168.72 168.288 168.679 168.242 
168.661 168.229 168.65 168.237 168.671 168.345 168.832 168.551 168.132 
167.971 167.2 167.89 167.602 166.829 166.589 165.804 167.907 167.504 
166.76 166.373 165.618 165.288 164.541 168.013 167.602 166.868 166.429 
165.661 165.236 164.459 164.093 163.338 168.078 167.691 166.934 166.522 
165.723 165.301 164.473 164.055 163.243 162.891 162.167 168.177 167.769 
167.027 166.58 165.79 165.345 164.539 164.089 163.27 162.842 162.092 
161.768 161.148 168.357 167.937 167.272 166.77 166.034 165.501 164.756 
164.238 163.493 162.975 162.23 161.775 161.112 160.809 160.274 168.607 
168.186 167.604 167.11 166.446 165.871 165.164 164.582 163.902 163.33 
162.658 162.076 161.406 160.896 160.314 159.994 159.569 168.953 168.507 
167.979 167.497 166.913 166.356 165.706 165.09 164.434 163.829 163.228 
162.628 162.051 161.411 160.86 160.273 159.852 159.467 159.239 169.251 
170.168 169.446 168.907 171.15 170.42 169.937 169.146 168.659 172.188 
171.451 171.001 170.216 169.752 168.986 168.619 173.249 172.521 172.105 
171.322 170.879 170.094 169.715 169.006 168.704 174.289 173.598 173.246 
172.481 172.077 171.258 170.867 170.108 169.786 169.091 168.787 175.277 
174.632 174.328 173.634 173.274 172.482 172.085 171.289 170.946 170.202 
169.89 169.17 168.87 176.231 175.61 175.321 174.684 174.349 173.633 
173.242 172.485 172.14 171.397 171.086 170.323 169.999 169.266 168.993 
177.131 176.548 176.263 175.657 175.35 174.678 174.313 173.593 173.262 
172.566 172.289 171.552 171.231 170.44 170.122 169.408 169.193 177.907 
177.396 177.119 176.57 176.295 175.681 175.359 174.663 174.327 173.647 
173.375 172.712 172.427 171.681 171.351 170.582 170.325 169.65 169.51 
178.207 178.427 178.025 177.448 178.681 178.252 177.657 177.256 176.652 
178.923 178.493 177.86 177.453 176.82 176.421 175.742 179.132 178.717 
178.058 177.63 176.944 176.541 175.828 175.427 174.71 179.284 178.914 
178.266 177.825 177.098 176.644 175.889 175.475 174.753 174.388 173.733 
179.356 179.033 178.406 178.009 177.292 176.823 176.055 175.575 174.838 
174.429 173.762 173.43 172.786 179.49 179.131 178.524 178.121 177.434 
177.001 176.281 175.804 175.074 174.587 173.883 173.466 172.787 172.438 
171.748 179.72 179.349 178.776 178.31 177.639 177.166 176.498 176.046 
175.368 174.873 174.151 173.648 172.935 172.49 171.805 171.411 170.757 
179.783 179.538 178.975 178.584 177.92 177.441 176.783 176.312 175.674 
175.181 174.48 173.945 173.219 172.712 172.035 171.573 170.944 170.522 
169.949 179.489 178.566 178.963 178.694 177.495 177.921 177.709 178.085 
177.702 176.526 176.843 176.602 177.042 176.788 177.073 176.633 175.617 
175.883 175.528 175.931 175.699 176.117 175.773 176.005 175.516 174.579 
174.902 174.448 174.809 174.462 174.95 174.63 175.035 174.56 174.81 
174.266 173.402 173.789 173.319 173.655 173.203 173.651 173.311 173.802 
173.396 173.749 173.224 173.492 172.979 172.14 172.569 172.126 172.488 
172.018 172.398 172.024 172.49 172.146 172.561 172.113 172.423 171.939 
172.227 171.791 170.837 171.267 170.828 171.257 170.807 171.206 170.783 
171.222 170.843 171.3 170.878 171.276 170.809 171.163 170.728 171.068 
170.684 169.616 169.969 169.511 169.941 169.514 169.951 169.519 169.953 
169.532 169.983 169.562 170 169.562 169.973 169.559 169.96 169.6 
169.983 169.671 179.772 179.93 179.528 178.848 180.242 179.758 179.093 
178.584 177.876 180.594 180.192 179.67 179.054 178.387 177.718 177.02 
180.632 180.488 180.112 179.695 179.039 178.347 177.515 176.858 176.098 
180.3 180.309 179.9 179.846 179.157 178.766 177.743 177.183 176.185 
175.757 174.953 179.864 179.815 179.232 179.308 178.621 178.524 177.519 
177.129 176.016 175.633 174.728 174.475 173.714 179.474 179.333 178.643 
178.592 177.937 177.891 177.104 176.83 175.872 175.449 174.556 174.218 
173.46 173.209 172.467 179.094 178.953 178.294 178.124 177.481 177.346 
176.674 176.48 175.696 175.363 174.533 174.149 173.374 173.023 172.273 
171.968 171.211 178.673 178.59 178.003 177.846 177.21 177.014 176.313 
176.109 175.341 175.123 174.327 174.07 173.286 172.974 172.203 171.853 
171.088 170.751 170.025 180.289 181.15 180.683 180.567 182.107 181.676 
181.676 181.035 180.881 182.938 182.666 182.769 182.21 181.994 181.305 
181.068 183.442 183.334 183.463 183.17 182.927 182.31 181.842 181.288 
180.958 183.889 183.718 183.785 183.637 183.424 183.007 182.476 181.928 
181.464 181.048 180.712 184.481 184.193 184.155 183.918 183.723 183.376 
182.932 182.449 182.02 181.583 181.298 180.842 180.479 184.945 184.715 
184.563 184.291 184.055 183.723 183.37 182.925 182.558 182.136 181.88 
181.478 181.163 180.619 180.145 185.116 184.995 184.763 184.561 184.271 
184.036 183.74 183.406 183.065 182.662 182.326 181.965 181.604 181.204 
180.718 180.203 179.672 185.104 185.038 184.791 184.637 184.335 184.171 
183.911 183.715 183.411 183.096 182.672 182.305 181.831 181.491 180.992 
180.619 180.089 179.658 179.162 184.984 184.639 184.788 184.661 184.327 
184.44 184.338 184.41 184.238 184.027 184.137 184 184.089 183.919 
183.997 183.834 183.432 183.684 183.408 183.614 183.35 183.567 183.351 
183.541 183.314 182.46 182.862 182.538 182.832 182.471 182.783 182.481 
182.834 182.552 182.843 182.517 181.386 181.823 181.605 181.918 181.6 
181.858 181.541 181.851 181.566 181.915 181.613 181.923 181.605 180.341 
180.785 180.611 180.995 180.739 181.032 180.734 180.984 180.709 180.98 
180.727 181.01 180.743 181.028 180.754 179.266 179.723 179.503 179.947 
179.681 180.09 179.788 180.139 179.836 180.155 179.89 180.191 179.935 
180.204 179.927 180.193 179.901 178.202 178.633 178.417 178.83 178.58 
178.987 178.71 179.102 178.803 179.185 178.899 179.285 179.016 179.365 
179.071 179.364 179.05 179.323 179.015 177.576 176.729 177.375 177.785 
175.766 176.496 176.917 177.561 177.943 174.623 175.446 175.922 176.664 
177.065 177.7 178.062 173.462 174.269 174.766 175.597 176.064 176.791 
177.154 177.79 178.139 172.345 173.126 173.578 174.411 174.902 175.725 
176.15 176.853 177.2 177.851 178.229 171.207 171.984 172.404 173.216 
173.686 174.539 175.034 175.822 176.232 176.908 177.283 177.953 178.354 
170.206 170.89 171.332 172.07 172.549 173.353 173.897 174.724 175.228 
175.947 176.336 176.996 177.372 178.06 178.426 169.417 170.018 170.489 
171.119 171.607 172.299 172.835 173.629 174.18 174.952 175.382 176.047 
176.391 177.057 177.418 178.1 178.431 168.667 169.279 169.755 170.365 
170.82 171.432 171.88 172.591 173.094 173.889 174.357 175.078 175.442 
176.091 176.446 177.108 177.476 178.117 178.429 178.222 177.282 177.717 
177.58 176.237 176.705 176.568 177.008 176.794 175.181 175.621 175.429 
175.907 175.662 176.109 175.823 174.046 174.507 174.252 174.735 174.457 
174.906 174.569 175.04 174.762 172.768 173.252 172.945 173.485 173.219 
173.709 173.37 173.781 173.448 173.958 173.742 171.583 171.968 171.604 
172.097 171.812 172.395 172.099 172.585 172.215 172.666 172.382 172.947 
172.749 170.566 170.88 170.487 170.826 170.464 170.957 170.656 171.216 
170.864 171.377 171.026 171.579 171.329 171.933 171.7 169.5 169.855 
169.449 169.767 169.355 169.714 169.355 169.804 169.458 169.958 169.613 
170.167 169.886 170.495 170.252 170.853 170.592 168.366 168.722 168.298 
168.669 168.267 168.635 168.266 168.627 168.263 168.645 168.296 168.764 
168.484 169.052 168.819 169.411 169.17 169.75 169.52 178.918 178.984 
179.249 179.886 179.031 179.31 179.98 180.291 181.017 179.173 179.418 
180.079 180.362 181.054 181.397 182.061 179.328 179.611 180.308 180.53 
181.156 181.396 181.977 182.299 182.837 179.326 179.707 180.441 180.759 
181.423 181.597 182.105 182.245 182.718 182.988 183.481 179.18 179.606 
180.283 180.738 181.464 181.831 182.433 182.533 182.928 182.973 183.392 
183.63 184.087 178.958 179.401 180.009 180.464 181.141 181.685 182.422 
182.803 183.297 183.322 183.597 183.622 183.98 184.207 184.566 178.638 
179.124 179.724 180.165 180.754 181.273 181.974 182.579 183.217 183.555 
183.859 183.876 184.054 184.132 184.422 184.629 184.879 178.245 178.746 
179.336 179.828 180.376 180.861 181.426 182.019 182.616 183.209 183.623 
183.935 184.087 184.189 184.319 184.474 184.681 184.879 185.032 178.997 
179.999 179.44 179.316 181.193 180.58 180.478 179.773 179.546 182.296 
181.808 181.749 181.032 180.793 180.011 179.692 183.098 182.795 182.788 
182.23 182.001 181.28 180.94 180.133 179.707 183.74 183.508 183.539 
183.122 182.966 182.402 182.14 181.399 180.97 180.085 179.575 184.316 
184.118 184.145 183.799 183.704 183.288 183.178 182.593 182.273 181.391 
180.829 179.898 179.393 184.722 184.592 184.546 184.297 184.166 183.919 
183.868 183.543 183.322 182.636 182.046 181.121 180.467 179.67 179.227 
184.967 184.873 184.745 184.549 184.323 184.189 184.073 183.999 183.79 
183.438 182.832 182.125 181.341 180.607 180.009 179.426 179.028 185.119 
185.054 184.921 184.706 184.434 184.248 184.043 184.002 183.77 183.632 
183.078 182.631 181.846 181.263 180.593 180.073 179.604 179.142 178.758 
178.493 178.717 178.336 177.743 178.831 178.458 177.816 177.481 176.805 
178.89 178.495 177.747 177.44 176.759 176.459 175.733 178.87 178.494 
177.676 177.324 176.587 176.33 175.674 175.378 174.614 178.762 178.435 
177.678 177.295 176.56 176.205 175.563 175.29 174.628 174.248 173.384 
178.67 178.362 177.726 177.369 176.737 176.312 175.668 175.275 174.623 
174.248 173.465 172.98 172.095 178.617 178.335 177.745 177.443 176.852 
176.503 175.852 175.444 174.734 174.306 173.537 173.069 172.263 171.773 
171.069 178.492 178.279 177.67 177.416 176.766 176.504 175.815 175.513 
174.772 174.402 173.628 173.191 172.43 171.969 171.3 170.89 170.354 
178.253 178.101 177.49 177.271 176.596 176.344 175.646 175.38 174.668 
174.362 173.634 173.271 172.552 172.149 171.483 171.096 170.511 170.18 
169.643 180.257 180.198 180.489 180.989 180.018 180.355 180.893 181.235 
181.827 179.94 180.244 180.857 181.168 181.789 182.107 182.658 179.89 
180.222 180.886 181.217 181.903 182.164 182.717 182.893 183.281 179.747 
180.133 180.762 181.181 181.865 182.257 182.853 183.052 183.459 183.511 
183.842 179.536 179.944 180.507 180.937 181.509 182.017 182.609 183.053 
183.527 183.733 184.093 184.149 184.484 179.264 179.69 180.211 180.62 
181.103 181.562 182.103 182.642 183.176 183.617 184.013 184.283 184.593 
184.737 184.964 178.973 179.381 179.883 180.288 180.782 181.189 181.759 
182.214 182.812 183.235 183.672 184.01 184.299 184.613 184.842 185.05 
185.152 178.729 179.093 179.584 179.966 180.506 180.918 181.588 182.022 
182.728 183.063 183.551 183.738 183.997 184.221 184.453 184.761 184.957 
185.14 185.17 
POINT_DATA 1002
SCALARS Distance double
LOOKUP_TABLE default
176.948 177.772 176.922 176.05 175.988 176.071 175.033 175.027 175.045 
174.981 173.906 173.966 173.876 173.817 173.782 172.656 172.764 172.591 
172.576 172.597 172.69 171.392 171.556 171.27 171.258 171.324 171.442 
171.572 170.191 170.409 170.033 169.966 170.005 170.107 170.249 170.444 
169.005 169.291 168.86 168.786 168.775 168.852 169.004 169.222 169.555 
167.889 168.259 167.734 167.696 167.645 167.636 167.787 168.054 168.383 
168.819 166.921 167.358 166.722 166.693 166.621 166.454 166.43 166.699 
167.107 167.54 168.043 178.139 177.2 178.502 177.523 178.776 176.217 
177.755 178.933 176.479 175.231 177.85 178.995 176.635 175.392 174.103 
177.889 178.917 176.747 175.503 174.181 172.845 177.864 178.761 176.864 
175.686 174.336 172.967 171.662 177.799 178.684 176.836 175.755 174.52 
173.199 171.884 170.567 177.785 178.674 176.732 175.583 174.456 173.324 
172.127 170.843 169.504 177.793 178.605 176.709 175.436 174.257 173.247 
172.218 171.069 169.813 168.523 177.966 177.01 177.132 175.989 176.106 
175.678 174.815 175.001 174.521 174.286 173.52 173.803 173.261 173.161 
173.157 172.073 172.449 171.788 171.85 172.03 172.133 170.786 171.249 
170.369 170.36 170.671 170.898 171.006 170.005 170.48 169.472 169.197 
169.358 169.614 169.732 169.789 169.471 169.875 168.921 168.425 168.292 
168.416 168.482 168.478 168.488 168.737 169.1 168.217 167.617 167.225 
167.137 167.111 167.058 167.08 167.19 166.136 165.749 164.83 165.435 
164.142 163.53 165.331 163.588 162.619 162.333 165.451 163.447 161.954 
161.338 161.176 165.663 163.745 161.917 160.737 160.248 160.112 166.047 
164.271 162.504 160.957 159.975 159.545 159.426 166.68 164.947 163.34 
161.831 160.562 159.771 159.319 159.105 167.34 165.699 164.19 162.839 
161.566 160.56 159.813 159.224 158.958 167.856 166.388 165.003 163.781 
162.579 161.484 160.582 159.778 159.19 159.059 165.793 164.641 165.704 
163.487 164.621 165.659 162.342 163.508 164.507 165.42 161.179 162.473 
163.521 164.234 165.142 160.167 161.498 162.87 163.639 164.165 165.249 
159.51 160.605 162.201 163.519 164.076 164.607 165.749 159.185 159.964 
161.351 163.051 164.263 164.742 165.273 166.317 159.203 159.748 160.714 
162.164 163.788 164.854 165.3 165.861 166.873 159.596 159.925 160.65 
161.028 161.805 160.52 162.102 162.729 161.472 161.413 163.013 163.611 
162.402 162.183 162.804 163.991 164.646 163.382 163.065 163.455 164.337 
165.124 165.742 164.552 164.187 164.309 164.866 165.3 166.352 166.878 
165.875 165.512 165.464 165.699 165.887 165.878 167.638 168.086 167.248 
166.885 166.715 166.794 166.859 166.778 166.735 168.921 169.312 168.587 
168.227 167.942 167.879 167.924 167.905 167.868 167.915 159.473 160.231 
160.343 161.198 161.505 161.358 162.217 162.656 162.105 162.344 163.27 
163.794 162.926 162.901 163.209 164.576 165.052 164.181 163.907 163.961 
164.295 165.94 166.31 165.699 165.437 165.229 165.286 165.494 167.112 
167.431 166.949 166.851 166.666 166.537 166.559 166.65 168.206 168.446 
168.035 167.974 167.92 167.834 167.802 167.798 167.849 169.282 169.401 
169.183 169.132 169.131 169.112 169.093 169.09 169.065 169.101 168.7 
167.359 168.34 167.109 168.222 166.022 167.183 168.318 165.992 164.843 
167.309 168.414 166.115 164.878 163.659 167.351 168.471 166.144 164.913 
163.632 162.44 167.487 168.576 166.246 164.982 163.725 162.456 161.381 
167.751 168.746 166.58 165.277 164.011 162.747 161.49 160.465 168.063 
169.013 167.001 165.759 164.46 163.236 161.994 160.736 159.743 169.956 
169.683 170.868 170.712 171.873 169.418 171.772 172.921 170.522 169.321 
172.872 173.956 171.675 170.443 169.383 173.97 174.946 172.9 171.661 
170.501 169.478 174.984 175.905 174.036 172.889 171.708 170.632 169.564 
175.946 176.847 175.037 173.978 172.863 171.853 170.775 169.66 176.855 
177.694 175.994 175.023 173.942 172.986 172.03 170.888 169.82 177.643 
178.388 176.864 176.03 175.027 174.017 173.124 172.127 171.039 170.117 