# vtk DataFile Version 4.0
vtk output
ASCII
DATASET POLYDATA
POINTS 1002 float
-105.45 -121.358 77.9379 -106.059 -122.509 77.6004 -105.649 -122.066 76.8301 
-105.03 -120.774 77.2148 -105.303 -121.387 75.9624 -104.837 -120.039 78.2309 
-104.545 -120.054 76.3972 -104.845 -120.553 75.0605 -104.263 -119.471 77.5209 
-104.053 -118.778 78.4944 -103.878 -119.303 75.4297 -104.152 -119.773 74.1018 
-103.537 -118.867 76.7102 -103.236 -118.296 77.7744 -103.073 -117.597 78.8746 
-103.131 -118.59 74.3727 -103.43 -119.074 73.191 -102.779 -118.165 75.712 
-102.362 -117.75 76.9635 -102.137 -117.114 78.1583 -102.114 -116.452 79.3925 
-102.564 -117.751 73.5385 -103.023 -118.092 72.5262 -102.142 -117.321 74.7406 
-101.624 -117.017 76.029 -101.255 -116.572 77.338 -101.195 -115.93 78.6569 
-101.273 -115.354 79.8704 -102.218 -116.628 72.9399 -102.858 -116.79 72.0127 
-101.617 -116.337 74.0183 -100.966 -116.154 75.1673 -100.468 -115.941 76.4366 
-100.328 -115.4 77.8007 -100.376 -114.765 79.1117 -100.48 -114.217 80.2686 
-101.81 -115.54 72.2383 -102.553 -115.665 71.4287 -101.113 -115.339 73.2733 
-100.36 -115.232 74.3439 -99.7459 -115.173 75.5198 -99.5833 -114.763 76.8889 
-99.6641 -114.079 78.2534 -99.726 -113.489 79.5071 -99.8785 -112.988 80.6458 
-101.236 -114.743 71.4213 -102.056 -114.862 70.8023 -100.595 -114.494 72.3698 
-99.9537 -114.27 73.415 -99.2964 -114.161 74.5295 -99.0486 -113.838 75.907 
-99.2167 -113.178 77.3716 -99.3255 -112.549 78.6678 -99.3807 -112.105 79.861 
-99.6179 -111.707 80.9576 -100.751 -113.979 70.7438 -101.619 -114.07 70.2782 
-100.195 -113.68 71.5902 -99.8019 -113.28 72.6005 -99.2738 -112.968 73.6216 
-98.8639 -112.624 74.8725 -98.9539 -112.058 76.3983 -99.1568 -111.453 77.8311 
-99.1545 -111.02 79.0448 -99.2412 -110.695 80.1641 -99.5611 -110.383 81.1637 
-106.5 -123.222 76.7348 -106.096 -122.786 75.7701 -107.135 -123.742 75.7169 
-106.738 -123.263 74.6895 -107.94 -124.089 74.6827 -105.763 -122.046 74.8023 
-107.614 -123.401 73.7794 -108.888 -124.284 73.7265 -106.429 -122.422 73.7918 
-105.301 -121.102 73.9152 -108.672 -123.355 72.9432 -109.947 -124.275 72.8657 
-107.366 -122.448 72.9828 -106.012 -121.415 72.9653 -104.602 -120.244 73.0208 
-109.699 -123.369 72.0043 -110.972 -124.056 72.0646 -108.404 -122.452 72.1138 
-106.987 -121.516 72.1089 -105.398 -120.503 72.0656 -103.972 -119.365 72.1971 
-110.581 -123.321 71.0143 -111.875 -123.68 71.2627 -109.316 -122.53 71.114 
-107.974 -121.562 71.24 -106.431 -120.592 71.1912 -104.887 -119.44 71.2861 
-103.725 -118.087 71.623 -111.478 -122.916 70.2272 -112.775 -123.144 70.5405 
-110.193 -122.318 70.205 -108.883 -121.39 70.4122 -107.448 -120.482 70.4645 
-105.957 -119.464 70.5113 -104.678 -118.077 70.8371 -103.629 -116.676 71.2111 
-112.457 -122.147 69.8126 -113.706 -122.423 70.0254 -111.17 -121.712 69.6195 
-109.838 -120.968 69.6457 -108.419 -120.148 69.7613 -106.992 -119.359 69.8593 
-105.707 -118.2 70.1739 -104.563 -116.732 70.605 -103.354 -115.568 70.7964 
-113.339 -121.249 69.6083 -114.514 -121.616 69.6557 -112.096 -120.927 69.3258 
-110.786 -120.495 69.0017 -109.366 -119.866 68.9273 -107.958 -119.149 69.1067 
-106.725 -118.205 69.5107 -105.595 -116.86 70.0682 -104.357 -115.529 70.4073 
-102.954 -114.648 70.374 -114.417 -120.555 69.3112 -113.158 -120.176 69.1504 
-114.132 -119.609 68.7131 -112.807 -119.306 68.2368 -113.827 -118.797 67.8482 
-111.839 -119.98 68.5773 -112.43 -118.472 67.2128 -113.547 -117.8 67.1793 
-111.387 -119.216 67.4859 -110.388 -119.689 68.0816 -111.996 -117.272 66.7453 
-113.066 -116.445 66.9562 -110.84 -118.146 66.7981 -109.81 -118.791 67.2726 
-108.88 -119.015 68.1601 -111.372 -115.643 66.7829 -112.314 -114.892 67.0314 
-110.232 -116.483 66.8392 -109.236 -117.244 67.1979 -108.437 -117.697 67.8748 
-107.62 -117.972 68.7375 -110.685 -113.832 67.0254 -111.551 -113.331 67.3996 
-109.631 -114.541 67.0959 -108.769 -115.296 67.5547 -108.153 -115.833 68.19 
-107.453 -116.208 68.8743 -106.536 -116.595 69.5273 -110.14 -112.159 67.5617 
-110.975 -111.87 68.0358 -109.157 -112.698 67.4536 -108.387 -113.452 67.8465 
-107.845 -114.071 68.5461 -107.185 -114.376 69.2118 -106.255 -114.692 69.7141 
-105.237 -115.151 70.0923 -109.698 -110.76 68.3282 -110.517 -110.52 68.698 
-108.753 -111.144 68.1189 -107.984 -111.758 68.2254 -107.346 -112.467 68.6919 
-106.536 -112.899 69.2739 -105.55 -113.088 69.6938 -104.563 -113.473 69.9365 
-103.666 -114.093 70.124 -109.224 -109.506 69.0371 -110.031 -109.253 69.2388 
-108.286 -109.811 68.893 -107.464 -110.178 68.7899 -106.704 -110.718 68.834 
-105.71 -111.328 69.0805 -104.579 -111.727 69.3671 -103.627 -112.048 69.5545 
-102.84 -112.638 69.6982 -102.138 -113.417 69.9146 -100.785 -112.971 70.0931 
-101.3 -112.088 69.6397 -100.335 -111.337 70.1831 -101.934 -111.231 69.348 
-100.792 -110.35 69.6227 -100.174 -109.363 70.4273 -102.659 -110.619 69.1685 
-101.374 -109.527 69.2631 -100.538 -108.405 69.8011 -99.9566 -107.392 70.5601 
-103.709 -110.027 69.0061 -102.174 -108.754 69.0457 -101.212 -107.565 69.473 
-100.354 -106.416 69.9879 -99.734 -105.439 70.6612 -104.996 -109.309 68.933 
-103.31 -107.823 68.8911 -102.206 -106.576 69.2442 -101.244 -105.44 69.7398 
-100.304 -104.362 70.1951 -99.7977 -103.531 70.9759 -106.076 -108.808 69.1089 
-104.506 -107.151 69.0178 -103.295 -105.659 69.0672 -102.372 -104.419 69.4737 
-101.306 -103.312 69.907 -100.438 -102.466 70.5054 -100.063 -101.979 71.4732 
-106.975 -108.603 69.3948 -105.544 -107.031 69.4748 -104.311 -105.366 69.293 
-103.426 -103.826 69.3209 -102.49 -102.462 69.6029 -101.421 -101.51 70.1179 
-100.674 -101.047 70.9972 -100.323 -100.844 72.122 -107.957 -108.399 69.5522 
-106.572 -107.052 69.879 -105.34 -105.517 69.8475 -104.437 -103.884 69.6669 
-103.66 -102.218 69.6198 -102.699 -100.918 69.901 -101.709 -100.297 70.6707 
-101.006 -100.083 71.7891 -100.583 -99.9108 72.9584 -108.928 -108.147 69.6351 
-107.618 -106.961 70.0641 -106.391 -105.662 70.3163 -105.454 -104.21 70.3058 
-104.73 -102.544 70.1553 -103.961 -100.966 70.1483 -103.054 -100.001 70.6346 
-102.157 -99.6135 71.6305 -101.424 -99.3706 72.7788 -100.894 -99.0935 73.8217 
-100.126 -112.689 70.8163 -99.9857 -110.818 71.173 -99.8611 -112.198 71.8649 
-99.9073 -108.746 71.4652 -99.8385 -110.268 72.3026 -99.5676 -111.693 72.904 
-99.5841 -106.712 71.5296 -99.5823 -108.226 72.5397 -99.3901 -109.764 73.2808 
-99.0402 -111.241 73.9622 -99.4107 -104.66 71.726 -99.1937 -106.094 72.6704 
-99.063 -107.669 73.53 -98.9299 -109.224 74.3744 -98.8643 -110.711 75.3889 
-99.6093 -102.868 72.206 -99.1539 -104.028 73.0664 -98.9153 -105.457 73.8913 
-98.9357 -107.072 74.8073 -98.9988 -108.691 75.9509 -99.0627 -110.157 77.0349 
-99.889 -101.545 72.816 -99.3597 -102.43 73.6744 -98.979 -103.526 74.5375 
-99.0152 -104.935 75.4487 -99.097 -106.626 76.5866 -99.0292 -108.277 77.6992 
-99.0384 -109.727 78.4824 -100.115 -100.434 73.5625 -99.5999 -101.164 74.3665 
-99.0901 -102.053 75.2764 -98.9824 -103.157 76.2044 -99.0793 -104.628 77.2653 
-98.9291 -106.314 78.3599 -98.8102 -107.918 79.1616 -98.9782 -109.385 79.6914 
-100.357 -99.4046 74.3762 -99.9031 -99.9743 75.1086 -99.3813 -100.765 75.9804 
-99.0365 -101.736 76.8683 -99.0376 -102.97 77.7999 -98.9883 -104.468 78.823 
-98.8232 -106.038 79.7036 -98.9242 -107.588 80.2908 -99.2582 -109.084 80.7401 
-100.87 -98.4531 74.8994 -100.384 -98.8048 75.608 -101.014 -98.0077 75.9695 
-100.667 -98.5394 76.8576 -101.456 -97.9888 77.2679 -99.989 -99.4619 76.4806 
-101.217 -98.7156 78.2453 -102.1 -98.2009 78.9435 -100.353 -99.3075 77.8259 
-99.5119 -100.371 77.3874 -101.822 -98.9917 79.8145 -102.706 -98.3701 80.6098 
-100.833 -99.5045 79.2531 -99.8627 -100.307 78.7613 -99.2282 -101.548 78.255 
-102.346 -99.2359 81.2902 -103.214 -98.6653 81.9548 -101.276 -99.7752 80.7886 
-100.245 -100.504 80.2885 -99.5956 -101.641 79.6719 -99.2182 -102.988 79.1934 
-102.809 -99.7013 82.6312 -103.67 -99.2438 83.2557 -101.78 -100.193 82.1551 
-100.692 -100.842 81.7979 -100.021 -101.897 81.2277 -99.6458 -103.167 80.5845 
-99.1827 -104.519 80.1412 -103.192 -100.343 84.0122 -104.075 -99.9472 84.5395 
-102.33 -100.854 83.4004 -101.362 -101.442 82.9661 -100.538 -102.317 82.5742 
-100.091 -103.465 81.9813 -99.7092 -104.702 81.3726 -99.2309 -106.088 80.8621 
-103.551 -100.977 85.2191 -104.504 -100.697 85.4704 -102.766 -101.495 84.6756 
-102.055 -102.153 84.0504 -101.262 -102.941 83.6041 -100.54 -103.922 83.1808 
-100.099 -105.064 82.5813 -99.8084 -106.34 81.9542 -99.5047 -107.733 81.37 
-104.032 -101.656 86.0547 -105.027 -101.515 86.0609 -103.174 -102.051 85.7928 
-102.54 -102.727 85.2201 -101.964 -103.568 84.6228 -101.23 -104.487 84.2019 
-100.518 -105.535 83.7161 -100.143 -106.741 83.0484 -99.9944 -108.025 82.3934 
-99.8021 -109.272 81.7955 -101.694 -98.6171 74.0239 -101.75 -97.9534 75.0059 
-102.855 -98.4088 74.2588 -103.128 -97.7225 75.1909 -104.126 -98.4997 74.6314 
-102.042 -97.5255 76.0956 -104.641 -97.8569 75.6414 -105.265 -98.8271 75.171 
-103.665 -97.2772 76.481 -102.61 -97.4763 77.7578 -105.81 -98.3737 76.3057 
-106.357 -99.3073 75.7197 -105.285 -97.5229 77.1344 -104.251 -97.1936 78.4991 
-103.206 -97.5793 79.8073 -106.759 -99.0918 76.9598 -107.491 -99.9219 76.2131 
-106.329 -98.2596 77.8177 -105.72 -97.5788 79.1198 -104.606 -97.3662 80.5523 
-103.682 -97.8075 81.4498 -107.875 -99.8185 77.5288 -108.577 -100.594 76.701 
-107.246 -99.071 78.4193 -106.754 -98.423 79.5231 -105.953 -97.9587 80.8632 
-104.931 -97.8836 81.9838 -104.189 -98.3749 82.6974 -109.123 -100.455 77.9682 
-109.586 -101.18 77.1144 -108.55 -99.7118 78.8963 -107.947 -99.1326 79.8894 
-107.232 -98.8275 81.0383 -106.331 -98.6584 82.2205 -105.464 -98.7033 83.2077 
-104.738 -99.1733 83.9675 -110.237 -101.007 78.2331 -110.515 -101.709 77.4053 
-109.921 -100.25 79.1548 -109.434 -99.6162 80.1451 -108.686 -99.3964 81.2513 
-107.763 -99.4369 82.4211 -106.864 -99.4331 83.4922 -106.045 -99.5601 84.3674 
-105.245 -100.027 85.0158 -111.124 -101.591 78.4073 -111.314 -102.308 77.6452 
-110.97 -100.834 79.2628 -110.705 -100.141 80.2301 -110.113 -99.8135 81.3666 
[...]
CELL_DATA 2000
SCALARS Distance double
LOOKUP_TABLE default
178.038 177.08 177.386 176.971 175.947 176.343 175.929 176.25 175.795 
174.647 175.116 174.713 175.13 174.676 175.02 174.566 173.306 173.764 
173.357 173.837 173.411 173.832 173.376 173.766 173.375 172.055 172.451 
172.018 172.466 172.052 172.517 172.097 172.535 172.151 172.602 172.3 
170.847 171.223 170.757 171.156 170.714 171.161 170.769 171.24 170.887 
171.36 171.052 171.542 171.269 169.621 169.986 169.488 169.884 169.402 
169.832 169.42 169.909 169.581 170.087 169.786 170.279 169.997 170.498 
170.246 168.444 168.75 168.227 168.601 168.114 168.519 168.077 168.549 
168.208 168.751 168.478 169.007 168.735 169.232 168.988 169.502 169.316 
167.369 167.605 167.076 167.392 166.944 167.292 166.867 167.247 166.875 
167.365 167.106 167.675 167.458 167.987 167.756 168.26 168.07 168.612 
168.477 178.496 178.824 178.306 177.542 179.105 178.593 177.806 177.272 
176.415 179.385 178.854 178.049 177.512 176.625 176.061 175.125 179.671 
179.126 178.299 177.753 176.866 176.275 175.307 174.72 173.784 179.902 
179.393 178.564 178.015 177.142 176.54 175.576 174.933 173.952 173.389 
172.515 179.985 179.567 178.756 178.261 177.397 176.827 175.879 175.23 
174.222 173.586 172.638 172.13 171.295 179.938 179.588 178.794 178.38 
177.513 177.025 176.091 175.515 174.53 173.886 172.911 172.299 171.407 
170.911 170.1 179.847 179.522 178.746 178.367 177.511 177.071 176.155 
175.663 174.742 174.184 173.272 172.643 171.752 171.128 170.286 169.753 
168.969 179.709 179.417 178.653 178.307 177.481 177.063 176.181 175.713 
174.843 174.363 173.541 173.008 172.184 171.558 170.711 170.063 169.235 
168.673 167.913 179.348 178.36 178.674 178.271 177.27 177.603 177.184 
177.539 177.095 176.151 176.464 175.995 176.382 175.941 176.298 175.803 
174.934 175.281 174.735 175.136 174.663 175.081 174.598 174.963 174.471 
173.517 173.94 173.329 173.777 173.245 173.731 173.265 173.715 173.266 
173.656 173.207 172.048 172.439 171.796 172.264 171.735 172.268 171.861 
172.372 171.987 172.43 172.007 172.392 171.903 170.816 171.05 170.406 
170.76 170.295 170.802 170.511 171.037 170.72 171.159 170.713 171.118 
170.588 170.988 170.421 169.856 169.98 169.356 169.547 169.088 169.481 
169.211 169.736 169.416 169.875 169.333 169.733 169.088 169.538 168.928 
169.412 168.873 168.972 169.102 168.496 168.626 168.084 168.355 167.923 
168.387 167.929 168.434 167.784 168.224 167.471 167.934 167.276 167.82 
167.309 167.878 167.479 166.624 166.31 166.023 165.228 166.155 165.7 
164.76 164.575 163.849 166.252 165.594 164.53 164.151 163.3 163.183 
162.491 166.523 165.745 164.544 163.987 163.056 162.749 161.956 161.815 
161.123 166.774 166.018 164.72 164.024 162.987 162.577 161.757 161.443 
160.661 160.481 159.884 166.995 166.303 165.087 164.259 163.126 162.55 
161.697 161.315 160.516 160.175 159.477 159.366 158.993 167.327 166.669 
165.674 164.784 163.692 162.862 161.961 161.372 160.593 160.119 159.39 
159.09 158.635 158.649 158.522 167.779 167.152 166.327 165.507 164.559 
163.634 162.752 161.908 161.146 160.419 159.732 159.177 158.71 158.468 
158.328 158.367 158.404 168.247 167.66 166.911 166.205 165.391 164.566 
163.781 162.893 162.176 161.272 160.624 159.81 159.363 158.817 158.683 
158.436 158.498 158.427 158.507 166.587 165.292 166.051 166.304 164.01 
164.8 165.138 165.884 166.207 162.677 163.53 163.934 164.752 165.114 
165.825 166.136 161.254 162.132 162.528 163.477 163.863 164.683 164.984 
165.726 166.086 159.988 160.716 161.045 161.978 162.378 163.315 163.676 
164.526 164.946 165.763 166.293 159.158 159.636 159.922 160.603 160.999 
161.841 162.323 163.222 163.799 164.673 165.309 166.112 166.707 158.735 
159.029 159.311 159.727 160.092 160.684 161.214 162.012 162.715 163.603 
164.33 165.162 165.789 166.53 167.05 158.56 158.736 158.995 159.277 
159.598 159.997 160.466 161.092 161.772 162.598 163.332 164.175 164.802 
165.583 166.127 166.853 167.369 158.535 158.61 158.814 159.022 159.315 
159.609 160.006 160.463 161.044 161.728 162.422 163.201 163.839 164.596 
165.177 165.927 166.52 167.236 167.801 158.593 158.806 158.705 158.85 
159.412 159.09 159.255 159.115 159.372 160.53 159.963 160.091 159.706 
159.928 159.735 160.074 161.848 161.222 161.273 160.709 160.838 160.443 
160.744 160.569 161.082 163.07 162.493 162.509 161.915 161.975 161.462 
161.716 161.394 161.891 161.754 162.411 164.297 163.693 163.736 163.129 
163.198 162.638 162.889 162.48 162.959 162.692 163.287 163.144 163.793 
165.603 164.972 165.042 164.411 164.522 163.917 164.167 163.699 164.149 
163.817 164.363 164.101 164.679 164.514 165.141 166.843 166.256 166.319 
165.738 165.877 165.293 165.535 165.014 165.394 164.997 165.481 165.179 
165.722 165.484 166.086 165.908 166.536 167.987 167.433 167.485 166.96 
167.107 166.606 166.856 166.37 166.708 166.253 166.661 166.286 166.775 
166.513 167.088 166.899 167.499 167.314 167.864 158.658 159.101 158.788 
158.824 159.965 159.404 159.339 159.071 159.374 161.13 160.45 160.393 
159.841 160.087 159.888 160.493 162.401 161.726 161.774 161.12 161.355 
160.874 161.371 161.19 161.853 163.714 163.054 163.164 162.56 162.827 
162.277 162.65 162.226 162.709 162.518 163.09 165.08 164.425 164.545 
163.945 164.215 163.702 164.05 163.548 163.907 163.492 163.958 163.748 
164.331 166.393 165.812 165.971 165.359 165.61 165.066 165.434 164.931 
165.325 164.803 165.232 164.803 165.347 165.087 165.684 167.539 167.072 
167.275 166.754 166.997 166.464 166.806 166.319 166.749 166.257 166.7 
166.197 166.67 166.251 166.769 166.463 166.971 168.56 168.155 168.367 
167.954 168.196 167.76 168.066 167.645 168.039 167.63 168.048 167.61 
168.01 167.573 167.987 167.603 168.034 167.707 168.135 168.274 167.91 
167.707 166.93 167.7 167.382 166.564 166.316 165.484 167.636 167.254 
166.414 166.043 165.19 164.879 164.003 167.555 167.196 166.348 165.949 
165.055 164.668 163.758 163.403 162.465 167.508 167.115 166.283 165.875 
164.968 164.548 163.601 163.198 162.233 161.854 160.917 167.643 167.167 
166.382 165.891 165.047 164.532 163.639 163.128 162.238 161.746 160.892 
160.442 159.701 167.895 167.399 166.676 166.136 165.386 164.788 163.998 
163.365 162.592 161.976 161.274 160.681 160.061 159.531 159.059 168.179 
167.7 167.046 166.518 165.843 165.25 164.531 163.877 163.154 162.503 
161.851 161.238 160.664 160.079 159.592 159.102 158.789 168.518 168.046 
167.472 166.952 166.34 165.758 165.079 164.444 163.734 163.098 162.425 
161.829 161.209 160.657 160.092 159.613 159.181 158.848 158.637 169.04 
170.129 169.285 168.723 171.326 170.434 169.885 169.019 168.524 172.611 
171.694 171.163 170.248 169.753 168.896 168.454 173.868 172.998 172.495 
171.578 171.079 170.17 169.687 168.828 168.369 174.985 174.198 173.719 
172.886 172.411 171.522 171.023 170.097 169.602 168.733 168.311 176.014 
175.267 174.799 174.038 173.601 172.808 172.347 171.452 170.953 170.029 
169.598 168.749 168.422 177 176.296 175.856 175.106 174.688 173.944 
173.531 172.727 172.261 171.382 170.938 170.077 169.723 168.917 168.634 
177.868 177.26 176.875 176.174 175.773 175.036 174.637 173.875 173.439 
172.629 172.183 171.37 170.988 170.201 169.881 169.119 168.86 178.599 
178.083 177.755 177.154 176.789 176.109 175.715 174.979 174.553 173.774 
173.331 172.55 172.158 171.409 171.083 170.341 170.061 169.341 169.133 
178.879 179.061 178.673 178.065 179.259 178.848 178.207 177.812 177.137 
179.414 179.013 178.323 177.928 177.217 176.821 176.08 179.468 179.102 
178.38 178.001 177.255 176.866 176.085 175.695 174.904 179.554 179.142 
178.434 178.037 177.29 176.885 176.081 175.67 174.841 174.464 173.671 
179.81 179.317 178.615 178.145 177.402 176.944 176.132 175.674 174.829 
174.407 173.602 173.243 172.511 179.99 179.574 178.829 178.364 177.586 
177.095 176.258 175.754 174.897 174.431 173.633 173.226 172.497 172.141 
171.463 179.855 179.595 178.845 178.496 177.711 177.266 176.418 175.901 
175.031 174.532 173.732 173.298 172.571 172.176 171.481 171.123 170.462 
179.592 179.382 178.72 178.443 177.744 177.361 176.576 176.078 175.235 
174.705 173.902 173.428 172.695 172.271 171.569 171.174 170.502 170.149 
169.54 179.288 178.679 178.807 178.449 177.931 178.162 177.753 177.913 
177.484 176.762 177.203 176.77 177.09 176.59 176.825 176.3 175.353 
175.849 175.404 175.885 175.402 175.788 175.245 175.523 174.956 174.055 
174.464 174.009 174.454 174.026 174.492 174.037 174.404 173.871 174.146 
173.622 172.821 173.223 172.751 173.129 172.68 173.132 172.731 173.169 
172.695 173.03 172.506 172.823 172.37 171.487 171.945 171.457 171.861 
171.364 171.805 171.382 171.857 171.412 171.813 171.294 171.653 171.177 
171.577 171.199 170.124 170.574 170.106 170.531 170.055 170.483 170.062 
170.519 170.107 170.525 170.056 170.424 169.971 170.364 169.998 170.433 
170.131 168.889 169.265 168.836 169.227 168.809 169.212 168.827 169.249 
168.87 169.271 168.859 169.225 168.827 169.203 168.879 169.28 169.01 
169.427 169.188 179.7 180.129 179.627 179.087 180.487 179.996 179.362 
178.955 178.317 180.665 180.204 179.442 179.091 178.372 178.005 177.178 
180.748 180.286 179.507 179.123 178.421 178.021 177.204 176.728 175.816 
180.795 180.387 179.73 179.312 178.719 178.212 177.415 176.808 175.858 
175.342 174.471 180.632 180.401 179.809 179.547 178.971 178.561 177.684 
177.046 175.909 175.329 174.314 173.972 173.155 180.197 180.114 179.467 
179.393 178.685 178.525 177.523 177.092 175.788 175.243 174.043 173.694 
172.793 172.596 171.804 179.665 179.61 178.926 178.864 178.073 177.967 
176.963 176.679 175.452 174.993 173.803 173.398 172.462 172.206 171.421 
171.217 170.449 179.167 179.096 178.441 178.324 177.577 177.387 176.508 
176.189 175.183 174.731 173.714 173.246 172.351 171.973 171.186 170.891 
170.14 169.902 169.201 180.253 181.351 180.752 180.702 182.528 181.899 
181.854 181.255 181.174 183.76 183.109 183.08 182.454 182.432 181.751 
181.525 185.015 184.403 184.347 183.675 183.642 183.025 182.888 182.069 
181.671 185.874 185.546 185.452 184.865 184.677 184.125 183.982 183.361 
183.001 182.13 181.615 186.104 186.069 185.972 185.684 185.379 184.96 
184.675 184.248 183.903 183.276 182.706 181.916 181.328 186.165 186.12 
186.016 185.903 185.628 185.393 185.042 184.744 184.359 183.945 183.399 
182.787 182.112 181.443 180.83 186.36 186.227 186.092 185.925 185.675 
185.491 185.166 184.953 184.557 184.263 183.746 183.297 182.648 182.075 
181.412 180.835 180.256 186.463 186.4 186.237 186.061 185.771 185.552 
185.191 184.989 184.576 184.358 183.861 183.543 182.945 182.498 181.857 
181.342 180.743 180.234 179.713 186.38 186.107 186.251 186.171 185.761 
185.901 185.775 185.9 185.676 185.299 185.459 185.209 185.383 185.109 
185.276 185.01 184.514 184.81 184.46 184.698 184.347 184.583 184.282 
184.541 184.31 183.396 183.819 183.479 183.824 183.478 183.762 183.442 
183.726 183.47 183.794 183.563 182.227 182.65 182.363 182.769 182.495 
182.858 182.571 182.871 182.58 182.895 182.629 182.973 182.672 181.167 
181.555 181.287 181.672 181.411 181.829 181.567 181.947 181.635 181.968 
181.647 181.993 181.674 182.009 181.64 180.138 180.536 180.263 180.626 
180.324 180.724 180.443 180.869 180.568 180.954 180.621 180.98 180.651 
180.999 180.655 180.961 180.579 179.077 179.493 179.22 179.592 179.278 
179.647 179.359 179.755 179.489 179.876 179.588 179.946 179.643 179.988 
179.676 179.995 179.657 179.935 179.579 178.39 177.326 178.093 178.508 
176.17 176.981 177.426 178.186 178.585 174.98 175.81 176.3 177.106 
177.574 178.292 178.698 173.825 174.63 175.131 175.971 176.484 177.281 
177.739 178.437 178.832 172.765 173.517 173.978 174.789 175.271 176.126 
176.603 177.419 177.843 178.557 178.926 171.725 172.463 172.882 173.646 
174.076 174.89 175.355 176.213 176.685 177.499 177.917 178.629 178.987 
170.689 171.398 171.787 172.534 172.955 173.733 174.202 175.01 175.51 
176.327 176.8 177.575 177.979 178.679 179.022 169.767 170.397 170.761 
171.444 171.852 172.616 173.094 173.903 174.395 175.193 175.649 176.438 
176.855 177.619 177.988 178.691 179.007 168.946 169.532 169.879 170.479 
170.842 171.532 171.978 172.776 173.25 174.06 174.479 175.27 175.664 
176.459 176.851 177.616 177.969 178.658 178.952 178.697 177.696 178.131 
177.944 176.547 177.038 176.835 177.306 177.055 175.309 175.801 175.569 
176.112 175.858 176.33 175.973 174.094 174.53 174.221 174.768 174.513 
175.06 174.699 175.14 174.669 172.874 173.298 172.92 173.406 173.083 
173.643 173.283 173.793 173.316 173.752 173.249 171.616 172.038 171.634 
172.092 171.703 172.209 171.791 172.306 171.819 172.319 171.823 172.316 
171.887 170.483 170.812 170.37 170.771 170.331 170.806 170.352 170.831 
170.321 170.793 170.293 170.822 170.408 170.979 170.656 169.526 169.767 
169.268 169.543 169.018 169.405 168.916 169.388 168.908 169.361 168.878 
169.337 168.932 169.473 169.173 169.784 169.563 168.587 168.82 168.281 
168.488 167.895 168.149 167.605 167.984 167.53 167.982 167.567 168.01 
167.638 168.1 167.819 168.351 168.164 168.764 168.64 180.416 180.573 
180.851 181.547 180.684 180.994 181.733 182.008 182.719 180.758 181.107 
181.875 182.191 182.967 183.22 183.935 180.709 181.148 181.926 182.303 
183.094 183.442 184.241 184.482 185.144 180.492 181.022 181.813 182.277 
183.031 183.469 184.262 184.686 185.401 185.618 186.03 180.172 180.735 
181.528 182.075 182.825 183.315 184.055 184.563 185.263 185.677 186.081 
186.217 186.268 179.838 180.375 181.117 181.708 182.454 183.024 183.746 
184.287 184.948 185.416 185.83 186.081 186.149 186.2 186.126 179.513 
180.015 180.673 181.239 181.904 182.529 183.196 183.845 184.468 185.031 
185.454 185.785 185.92 186.033 186.037 186.08 186.137 179.144 179.642 
180.221 180.75 181.298 181.886 182.428 183.113 183.659 184.365 184.799 
185.325 185.529 185.794 185.864 185.995 186.097 186.196 186.335 180.503 
181.657 181.048 180.944 182.833 182.233 182.154 181.475 181.273 184.02 
183.419 183.38 182.716 182.53 181.766 181.444 185.166 184.588 184.542 
183.935 183.81 183.069 182.743 181.882 181.434 185.992 185.602 185.504 
185.022 184.905 184.301 184.002 183.185 182.668 181.778 181.229 186.221 
186.132 186.028 185.789 185.665 185.262 184.977 184.32 183.763 182.927 
182.261 181.451 180.862 186.128 186.155 186.115 186.078 185.999 185.824 
185.576 185.131 184.585 183.874 183.149 182.37 181.68 180.981 180.412 
186.192 186.136 186.153 186.106 186.054 185.985 185.764 185.53 185.022 
184.523 183.795 183.133 182.391 181.717 181.075 180.47 179.945 186.402 
186.318 186.317 186.207 186.099 185.992 185.732 185.573 185.085 184.769 
184.079 183.605 182.867 182.315 181.644 181.078 180.507 179.979 179.508 
179.829 180.231 179.66 178.864 180.553 180.041 179.278 178.672 177.835 
180.692 180.294 179.609 179.105 178.319 177.656 176.778 180.613 180.309 
179.616 179.315 178.582 178.09 177.176 176.527 175.553 180.405 180.134 
179.353 179.14 178.37 178.114 177.188 176.742 175.683 175.143 174.101 
180.13 179.895 179.103 178.833 178.015 177.766 176.878 176.557 175.552 
175.125 174.107 173.624 172.649 179.778 179.614 178.904 178.627 177.848 
177.507 176.694 176.314 175.452 175.01 174.119 173.642 172.775 172.264 
171.429 179.376 179.266 178.629 178.429 177.717 177.412 176.652 176.276 
175.497 175.052 174.239 173.746 172.932 172.437 171.651 171.154 170.417 
178.985 178.886 178.285 178.137 177.46 177.239 176.496 176.215 175.451 
175.11 174.313 173.888 173.056 172.593 171.781 171.335 170.575 170.155 
169.464 180.212 180.559 180.706 181.346 180.715 181.024 181.692 181.867 
182.501 180.499 180.986 181.649 182.046 182.69 182.969 183.647 180.24 
180.691 181.349 181.82 182.467 182.94 183.653 184.082 184.807 180.176 
180.536 181.219 181.581 182.234 182.649 183.344 183.875 184.603 185.105 
185.642 180.089 180.486 181.15 181.523 182.158 182.507 183.138 183.56 
184.214 184.725 185.27 185.685 185.953 179.878 180.308 180.919 181.364 
181.966 182.386 182.981 183.383 183.979 184.388 184.934 185.306 185.702 
185.934 186.13 179.647 180.053 180.65 181.086 181.705 182.14 182.775 
183.195 183.834 184.215 184.794 185.105 185.568 185.793 186.112 186.217 
186.384 179.441 179.821 180.416 180.84 181.496 181.926 182.626 183.041 
183.756 184.129 184.769 185.054 185.529 185.733 186.042 186.197 186.362 
186.445 186.484 
POINT_DATA 1002
SCALARS Distance double
LOOKUP_TABLE default
177.667 178.664 177.787 176.707 176.747 176.54 175.577 175.522 175.504 
175.343 174.253 174.17 174.311 174.216 174.141 172.871 172.878 172.951 
172.973 172.944 173.045 171.606 171.684 171.579 171.629 171.693 171.821 
172.038 170.38 170.481 170.287 170.278 170.402 170.569 170.77 171.002 
169.098 169.287 168.989 168.934 169.051 169.292 169.501 169.723 170.014 
167.867 168.18 167.718 167.637 167.663 167.913 168.232 168.474 168.77 
169.166 166.77 167.159 166.594 166.523 166.443 166.524 166.886 167.26 
167.538 167.904 168.365 179.04 178.093 179.342 178.347 179.629 176.979 
178.589 179.939 177.213 175.685 178.852 180.224 177.459 175.93 174.307 
179.107 180.378 177.736 176.235 174.566 172.985 179.22 180.359 177.944 
176.513 174.893 173.21 171.724 179.188 180.269 177.977 176.62 175.143 
173.558 171.967 170.533 179.112 180.163 177.94 176.618 175.23 173.855 
172.406 170.886 169.441 178.979 179.986 177.871 176.634 175.295 174.006 
172.765 171.384 169.864 168.4 179.08 177.966 178.036 176.808 176.968 
176.781 175.618 175.87 175.561 175.483 174.359 174.575 174.231 174.2 
174.115 172.888 173.091 172.744 172.765 172.834 172.851 171.341 171.714 
171.164 171.301 171.523 171.61 171.564 170.1 170.637 169.781 169.945 
170.293 170.35 170.186 170.019 169.206 169.728 168.766 168.721 168.972 
168.986 168.667 168.413 168.356 168.374 168.815 167.91 167.582 167.471 
167.347 167.023 166.724 166.694 166.88 165.833 165.359 164.496 165.049 
163.875 163.181 165.012 163.531 162.499 161.798 165.203 163.422 162.22 
161.154 160.423 165.507 163.453 162.094 160.962 159.872 159.362 165.935 
163.823 162.108 160.895 159.696 158.869 158.752 166.493 164.596 162.66 
161.118 159.771 158.709 158.331 158.486 167.056 165.436 163.649 161.95 
160.372 159.056 158.369 158.288 158.443 167.553 166.127 164.614 163.083 
161.498 160.006 159.03 158.656 158.556 158.527 165.551 164.359 165.509 
163.057 164.392 165.446 161.545 162.987 164.217 165.295 160.186 161.408 
162.746 164.071 165.477 159.367 160.221 161.374 162.856 164.478 165.98 
158.973 159.599 160.463 161.813 163.484 165.036 166.356 158.754 159.264 
159.935 161.006 162.505 164.015 165.362 166.668 158.639 159.053 159.634 
160.454 161.678 163.09 164.417 165.757 167.139 158.618 158.862 158.94 
159.471 159.828 159.436 160.593 161.173 160.213 160.139 161.904 162.472 
161.326 160.98 161.118 163.106 163.635 162.52 162.085 162.089 162.47 
164.342 164.917 163.765 163.314 163.272 163.52 163.876 165.66 166.236 
165.129 164.675 164.515 164.664 164.91 165.254 166.874 167.423 166.428 
166.078 165.855 165.815 165.967 166.292 166.716 168.003 168.536 167.582 
167.315 167.179 167.093 167.078 167.284 167.692 168.09 158.833 158.918 
159.555 159.745 160.599 159.357 161.01 161.783 160.427 160.484 162.388 
163.034 161.928 161.718 161.919 163.741 164.37 163.367 163.19 163.047 
163.166 165.167 165.707 164.73 164.552 164.411 164.267 164.444 166.565 
166.908 166.183 165.92 165.832 165.733 165.699 165.901 167.746 167.967 
167.518 167.293 167.209 167.208 167.16 167.154 167.255 168.756 168.96 
168.601 168.472 168.435 168.476 168.463 168.409 168.401 168.446 168.457 
167.112 168.164 166.87 168.068 165.712 166.827 168.017 165.549 164.313 
166.747 167.904 165.474 164.146 162.816 166.699 167.924 165.406 164.027 
162.634 161.251 166.88 168.129 165.571 164.167 162.727 161.356 160.072 
167.191 168.368 165.96 164.629 163.203 161.849 160.62 159.495 167.544 
168.629 166.406 165.164 163.802 162.46 161.248 160.127 159.16 169.85 
169.551 170.989 170.765 172.229 169.343 172.091 173.518 170.638 169.28 
173.389 174.703 172.007 170.595 169.19 174.507 175.749 173.264 171.967 
170.51 169.109 175.549 176.749 174.346 173.198 171.882 170.471 169.216 
176.595 177.659 175.427 174.293 173.107 171.798 170.547 169.408 177.53 
178.419 176.503 175.392 174.228 172.985 171.769 170.652 169.584 178.305 