# vtk DataFile Version 4.0
vtk output
ASCII
DATASET POLYDATA
POINTS 1002 float
-107.852 -124.763 78.0278 -108.656 -125.639 77.6521 -108 -125.452 77.0469 
-107.131 -124.486 77.4625 -107.245 -125.215 76.3771 -106.999 -123.763 78.5963 
-106.343 -124.094 76.8716 -106.423 -124.869 75.6642 -106.178 -123.342 78.0847 
-106.065 -122.658 79.2824 -105.527 -123.517 76.1877 -105.698 -124.184 74.9089 
-105.353 -122.766 77.5237 -105.125 -122.157 78.7946 -105.065 -121.546 79.9505 
-104.743 -122.659 75.3885 -105.096 -123.108 74.1698 -104.529 -122.052 76.792 
-104.249 -121.512 78.1839 -104.017 -121.041 79.4771 -104.061 -120.407 80.5776 
-104.017 -121.609 74.6108 -104.501 -121.923 73.5105 -103.647 -121.231 75.9492 
-103.345 -120.774 77.3872 -103.061 -120.302 78.7891 -102.949 -119.784 80.0601 
-103.145 -119.118 81.0798 -103.368 -120.571 73.9272 -103.893 -120.842 72.9284 
-102.8 -120.342 75.1623 -102.315 -120.017 76.5889 -102.072 -119.486 77.9771 
-101.995 -118.902 79.2794 -102.109 -118.33 80.4303 -102.431 -117.744 81.3707 
-102.714 -119.647 73.2798 -103.27 -119.853 72.3985 -102.084 -119.457 74.3896 
-101.395 -119.229 75.8138 -101.023 -118.798 77.2452 -101.052 -118.175 78.503 
-101.212 -117.545 79.6873 -101.503 -116.962 80.7176 -101.89 -116.448 81.5951 
-101.979 -118.8 72.6541 -102.617 -118.908 71.8993 -101.387 -118.639 73.5925 
-100.74 -118.394 74.9014 -100.228 -118.071 76.3975 -100.133 -117.62 77.7519 
-100.271 -117.031 79.0324 -100.503 -116.38 80.2151 -100.921 -115.767 81.1273 
-101.391 -115.272 81.8916 -101.304 -117.95 72.0867 -102.008 -118.003 71.4216 
-100.732 -117.824 72.8874 -100.249 -117.533 73.9848 -99.8142 -117.16 75.36 
-99.5659 -116.806 76.7615 -99.5031 -116.386 78.1873 -99.5308 -115.825 79.6414 
-99.8062 -115.208 80.7977 -100.35 -114.652 81.567 -100.914 -114.213 82.2114 
-109.105 -126.403 76.9524 -108.398 -126.2 76.2045 -109.665 -127.208 76.0116 
-108.909 -126.935 75.1287 -110.328 -127.948 74.7645 -107.531 -125.964 75.3908 
-109.616 -127.496 73.841 -111.078 -128.383 73.4579 -108.023 -126.519 74.2822 
-106.727 -125.504 74.5955 -110.463 -127.754 72.5664 -111.922 -128.418 72.3427 
-108.834 -126.767 73.0844 -107.399 -125.724 73.563 -106.205 -124.56 73.8514 
-111.315 -127.725 71.4885 -112.849 -128.187 71.4132 -109.712 -126.862 71.8512 
-108.286 -125.697 72.4617 -107.021 -124.568 72.8743 -105.708 -123.315 73.14 
-112.195 -127.331 70.6683 -113.739 -127.694 70.6122 -110.528 -126.778 70.7731 
-109.036 -125.765 71.2375 -107.753 -124.564 71.7846 -106.394 -123.387 72.1181 
-105.028 -122.104 72.4686 -113.094 -126.56 70.0315 -114.44 -126.956 69.8842 
-111.466 -126.222 70.0434 -109.824 -125.655 70.205 -108.376 -124.657 70.6581 
-106.988 -123.456 71.0957 -105.601 -122.211 71.4467 -104.364 -120.947 71.9108 
-113.827 -125.762 69.3952 -114.943 -126.214 69.1597 -112.401 -125.389 69.5009 
-110.776 -125.067 69.5292 -109.216 -124.441 69.7654 -107.752 -123.387 70.2349 
-106.325 -122.167 70.6471 -105.003 -120.939 71.0184 -103.785 -119.8 71.473 
-114.324 -125.171 68.7112 -115.341 -125.596 68.4856 -113.065 -124.725 68.8816 
-111.556 -124.36 68.9479 -110.059 -123.886 69.069 -108.698 -123.039 69.4953 
-107.313 -121.931 70.0624 -105.876 -120.79 70.4537 -104.496 -119.68 70.7439 
-103.192 -118.717 71.0784 -115.05 -124.715 68.0342 -113.842 -124.29 68.129 
-114.574 -123.615 67.5391 -113.154 -123.283 67.405 -113.947 -122.417 66.9076 
-112.351 -123.853 68.2068 -112.446 -122.149 66.7284 -113.258 -121.295 66.3351 
-111.496 -122.838 67.4684 -110.77 -123.35 68.3211 -111.75 -120.771 66.4362 
-112.463 -119.896 66.1593 -110.781 -121.541 67.0114 -110.012 -122.108 67.8021 
-109.465 -122.566 68.6874 -110.855 -118.946 66.5237 -111.571 -118.032 66.4241 
-110.075 -119.879 66.9591 -109.427 -120.624 67.6392 -108.951 -121.089 68.5232 
-108.261 -121.499 69.4124 -109.916 -117.065 66.8933 -110.797 -116.385 67.057 
-109.172 -118 67.1736 -108.732 -118.923 67.8159 -108.369 -119.536 68.647 
-107.701 -119.944 69.4774 -106.76 -120.369 70.0653 -109.258 -115.631 67.6716 
-110.207 -115.261 67.9853 -108.362 -116.275 67.7541 -107.859 -117.089 68.2747 
-107.516 -117.774 68.9818 -106.82 -118.288 69.6106 -105.877 -118.778 70.04 
-105.077 -119.256 70.3465 -108.752 -114.41 68.687 -109.633 -114.155 68.9257 
-107.767 -114.774 68.6669 -107.025 -115.308 68.9378 -106.515 -115.896 69.3376 
-105.75 -116.479 69.6551 -104.738 -117.107 69.8638 -103.963 -117.713 70.0959 
-103.507 -118.242 70.4974 -108.155 -113.036 69.4846 -108.996 -112.781 69.5837 
-107.148 -113.298 69.4731 -106.223 -113.663 69.535 -105.523 -114.163 69.5581 
-104.735 -114.79 69.4979 -103.703 -115.532 69.4852 -102.85 -116.271 69.6721 
-102.409 -116.901 70.1118 -102.171 -117.468 70.7401 -101.031 -117.04 71.3374 
-101.169 -116.394 70.5661 -100.285 -115.841 71.327 -101.379 -115.743 69.7964 
-100.382 -115.086 70.4706 -99.7851 -114.238 71.4259 -101.871 -114.988 69.216 
-100.571 -114.305 69.5851 -99.7743 -113.309 70.4965 -99.3499 -112.386 71.5211 
-102.811 -114.061 69.0344 -101.179 -113.328 68.9312 -100.026 -112.257 69.6051 
-99.3568 -111.252 70.5999 -99.0842 -110.614 71.6464 -103.809 -113.146 69.2935 
-102.165 -112.203 68.8387 -100.833 -111.027 69.0322 -99.8446 -109.97 69.8434 
-99.35 -109.381 70.9058 -99.199 -108.877 72.0783 -104.612 -112.432 69.6827 
-103.051 -111.233 69.2708 -101.824 -109.911 69.0148 -100.767 -108.716 69.3568 
-99.9777 -108.099 70.2895 -99.6377 -107.689 71.5375 -99.4521 -107.088 72.7675 
-105.549 -111.942 69.8685 -103.936 -110.544 69.709 -102.728 -109.118 69.3408 
-101.761 -107.786 69.2349 -100.802 -106.948 69.737 -100.152 -106.493 70.8922 
-99.8464 -106.007 72.2052 -99.5753 -105.541 73.3491 -106.704 -111.626 69.883 
-105.138 -110.106 69.8782 -103.87 -108.587 69.6005 -102.93 -107.167 69.3671 
-101.916 -106.107 69.4858 -100.921 -105.434 70.2466 -100.322 -104.913 71.4652 
-100.002 -104.544 72.6753 -99.7254 -104.408 73.7997 -107.786 -111.383 69.8997 
-106.438 -109.868 69.9536 -105.232 -108.325 69.7856 -104.318 -106.833 69.6122 
-103.387 -105.614 69.6241 -102.234 -104.755 70.0256 -101.235 -104.095 70.8997 
-100.671 -103.649 72.0096 -100.36 -103.513 73.162 -100.115 -103.568 74.3675 
-100.39 -116.909 72.0964 -99.8313 -115.456 72.261 -99.9482 -116.605 73.0575 
-99.4866 -113.651 72.5034 -99.55 -114.942 73.3972 -99.6355 -116.124 74.2804 
-99.131 -111.867 72.6737 -99.277 -113.165 73.7816 -99.3612 -114.405 74.6771 
-99.3887 -115.655 75.6338 -98.9591 -110.075 72.9487 -98.9936 -111.459 74.1851 
-99.1861 -112.715 75.2506 -99.2311 -113.892 76.0773 -99.1946 -115.236 77.1223 
-99.0714 -108.055 73.5165 -98.8719 -109.449 74.7098 -99.0322 -110.959 75.9865 
-99.2188 -112.141 76.8528 -99.0595 -113.355 77.7312 -99.0011 -114.759 78.8339 
-99.2084 -106.264 74.1383 -98.9192 -107.359 75.2493 -98.9353 -108.929 76.5955 
-99.2132 -110.409 77.6181 -99.2162 -111.589 78.3947 -98.9054 -112.915 79.4221 
-99.0295 -114.259 80.3698 -99.3358 -105.062 74.6621 -99.0752 -105.878 75.7141 
-99.0024 -107.123 76.9553 -99.1758 -108.663 78.044 -99.3877 -110.042 78.8254 
-99.2535 -111.314 79.7175 -99.0812 -112.652 80.7413 -99.4841 -113.808 81.3828 
-99.6415 -104.16 75.2538 -99.3745 -104.867 76.2536 -99.3013 -105.822 77.328 
-99.3227 -107.106 78.3462 -99.4571 -108.503 79.1776 -99.5618 -109.844 79.9869 
-99.4813 -111.188 80.9288 -99.574 -112.43 81.7132 -100.135 -113.414 82.0842 
-100.388 -103.13 75.7432 -99.9137 -103.668 76.7432 -100.785 -102.61 77.3164 
-100.321 -103.084 78.3034 -101.24 -102.262 78.6884 -99.7432 -104.454 77.7595 
-100.762 -102.783 79.6597 -101.869 -102.276 79.8595 -100.144 -103.979 79.2829 
-99.6994 -105.557 78.7493 -101.416 -102.858 80.979 -102.755 -102.366 81.1376 
-100.481 -103.742 80.7826 -99.9832 -105.182 80.3338 -99.6373 -106.864 79.6993 
-102.345 -102.995 82.3695 -103.596 -102.459 82.483 -101.09 -103.768 82.2516 
-100.263 -104.897 81.985 -99.8651 -106.447 81.4055 -99.6955 -108.239 80.6087 
-103.197 -103.222 83.678 -104.213 -102.765 83.7941 -102.058 -103.954 83.516 
-101.002 -104.893 83.2691 -100.307 -106.15 82.9306 -99.9733 -107.888 82.3147 
-99.7837 -109.725 81.5046 -103.866 -103.57 84.932 -104.863 -103.13 85.0967 
-102.979 -104.29 84.6645 -102.103 -105.203 84.2466 -101.267 -106.291 83.8479 
-100.598 -107.778 83.5252 -100.182 -109.581 82.9685 -99.888 -111.195 82.2505 
-104.588 -103.89 86.0736 -105.688 -103.443 86.1943 -103.712 -104.629 85.8047 
-103.018 -105.601 85.3514 -102.35 -106.714 84.7506 -101.633 -108.028 84.2744 
-100.983 -109.583 83.9019 -100.554 -111.121 83.3389 -100.303 -112.384 82.6619 
-105.432 -104.306 86.9058 -106.543 -103.905 86.9109 -104.451 -105.006 86.7311 
-103.686 -105.972 86.4302 -103.091 -107.103 85.9168 -102.571 -108.349 85.2302 
-102.044 -109.696 84.6265 -101.535 -111.057 84.1155 -101.172 -112.281 83.513 
-100.989 -113.314 82.8391 -100.933 -102.859 74.3511 -101.405 -102.49 75.9007 
-102.013 -102.453 74.5299 -102.643 -102.159 76.1244 -103.201 -102.291 74.8562 
-101.932 -102.119 77.4732 -103.893 -101.815 76.3487 -104.478 -102.122 75.2027 
-103.315 -101.735 77.5842 -102.525 -101.916 78.7655 -105.156 -101.439 76.5709 
-105.863 -102.115 75.5356 -104.675 -101.019 77.7162 -104.047 -101.246 78.8941 
-103.303 -101.834 80.0177 -106.462 -101.617 76.8145 -107.211 -102.47 75.8397 
-105.936 -100.662 77.9238 -105.459 -100.335 79.1146 -104.776 -100.974 80.2935 
-104.113 -101.816 81.3926 -107.79 -102.198 77.0064 -108.457 -102.917 76.0829 
-107.166 -101.323 78.1331 -106.694 -100.47 79.3304 -106.103 -100.491 80.5226 
-105.38 -101.311 81.6561 -104.747 -102.12 82.7418 -109.142 -102.663 77.1453 
-109.597 -103.423 76.3409 -108.521 -102.144 78.2463 -107.966 -101.522 79.4769 
-107.45 -101.089 80.6565 -106.79 -101.375 81.8138 -106.079 -102.04 82.9891 
-105.43 -102.61 84.1276 -110.341 -103.235 77.3229 -110.544 -104.176 76.6489 
-109.928 -102.665 78.2994 -109.418 -102.283 79.5345 -108.95 -101.891 80.778 
-108.426 -101.793 81.9554 -107.768 -102.124 83.1639 -107.045 -102.565 84.3779 
-106.325 -102.966 85.4337 -111.251 -104.061 77.5144 -111.32 -105.007 76.9074 
-111.083 -103.306 78.3512 -110.79 -102.785 79.4987 -110.437 -102.365 80.8043 
[...]
CELL_DATA 2000
SCALARS Distance double
LOOKUP_TABLE default
181.797 180.957 181.206 180.845 179.99 180.295 179.9 180.2 179.837 
178.855 179.236 178.808 179.167 178.764 179.134 178.782 177.516 177.978 
177.526 177.974 177.553 177.985 177.618 178.045 177.707 176.073 176.552 
176.088 176.6 176.182 176.688 176.295 176.794 176.429 176.915 176.554 
174.68 175.115 174.651 175.144 174.73 175.256 174.848 175.381 174.975 
175.524 175.142 175.686 175.328 173.375 173.772 173.304 173.747 173.323 
173.814 173.418 173.926 173.546 174.061 173.714 174.245 173.933 174.472 
174.189 172.109 172.49 172.008 172.425 171.983 172.438 172.052 172.542 
172.218 172.714 172.437 172.921 172.672 173.153 172.921 173.418 173.204 
170.891 171.24 170.759 171.146 170.705 171.126 170.736 171.206 170.89 
171.411 171.157 171.686 171.452 171.954 171.728 172.214 172.011 172.503 
172.328 182.268 182.731 182.143 181.423 183.151 182.563 181.769 181.217 
180.447 183.455 182.913 182.06 181.504 180.67 180.164 179.326 183.621 
183.144 182.272 181.73 180.843 180.339 179.468 178.961 178.028 183.69 
183.259 182.39 181.881 180.955 180.46 179.562 179.075 178.126 177.586 
176.594 183.651 183.278 182.4 181.943 180.998 180.519 179.587 179.126 
178.169 177.657 176.637 176.115 175.158 183.425 183.15 182.274 181.897 
180.969 180.526 179.587 179.126 178.162 177.667 176.649 176.131 175.137 
174.686 173.81 183.038 182.845 182.017 181.72 180.838 180.464 179.56 
179.125 178.187 177.685 176.697 176.156 175.169 174.667 173.754 173.348 
172.532 182.622 182.459 181.694 181.445 180.598 180.288 179.408 179.053 
178.159 177.727 176.802 176.274 175.328 174.763 173.838 173.33 172.467 
172.074 171.301 182.163 181.06 181.507 181.202 179.703 180.258 179.932 
180.427 180.073 178.26 178.822 178.475 179.029 178.665 179.213 178.858 
176.788 177.366 176.987 177.534 177.154 177.731 177.405 177.984 177.639 
175.117 175.774 175.369 176.004 175.639 176.241 175.952 176.538 176.247 
176.769 176.364 173.516 174.035 173.618 174.295 174.012 174.72 174.506 
175.135 174.864 175.39 174.98 175.433 174.925 172.451 172.651 172.203 
172.652 172.407 173.089 172.93 173.638 173.336 173.932 173.435 173.957 
173.383 173.899 173.376 171.711 171.793 171.261 171.472 171.1 171.586 
171.327 171.989 171.6 172.24 171.638 172.237 171.592 172.216 171.677 
172.322 171.921 170.798 170.985 170.346 170.54 169.959 170.308 169.826 
170.359 169.846 170.426 169.788 170.361 169.728 170.359 169.876 170.571 
170.244 170.949 170.723 169.945 169.364 169.291 168.626 168.867 168.681 
167.912 167.93 167.284 168.578 168.2 167.282 167.18 166.403 166.489 
165.82 168.557 167.981 166.895 166.574 165.636 165.568 164.777 164.942 
164.362 168.666 168.015 166.818 166.273 165.187 164.871 163.973 163.946 
163.351 163.6 163.252 168.786 168.139 166.936 166.266 165.097 164.563 
163.572 163.297 162.649 162.729 162.425 162.699 162.487 169.031 168.34 
167.199 166.441 165.27 164.597 163.563 163.072 162.309 162.161 161.766 
161.95 161.744 162.007 161.795 169.464 168.729 167.661 166.822 165.697 
164.903 163.905 163.239 162.431 161.993 161.45 161.371 161.079 161.269 
161.079 161.342 161.211 169.931 169.235 168.244 167.405 166.361 165.493 
164.571 163.777 163.034 162.354 161.779 161.313 160.94 160.786 160.608 
160.711 160.672 160.908 160.979 170.071 168.804 169.595 169.934 167.512 
168.336 168.69 169.497 169.882 166.126 167.023 167.42 168.262 168.666 
169.479 169.913 164.754 165.641 166.13 167.011 167.474 168.287 168.745 
169.558 170.066 163.626 164.366 164.909 165.785 166.367 167.173 167.668 
168.426 168.946 169.771 170.342 162.745 163.331 163.782 164.62 165.285 
166.154 166.752 167.459 167.952 168.68 169.249 170.085 170.666 162.01 
162.481 162.806 163.522 164.153 165.079 165.802 166.606 167.151 167.79 
168.296 169.027 169.63 170.434 170.995 161.487 161.833 162.165 162.667 
163.244 164.015 164.782 165.644 166.323 167.026 167.56 168.191 168.766 
169.476 170.093 170.809 171.339 161.288 161.494 161.897 162.222 162.791 
163.311 164.036 164.736 165.474 166.199 166.838 167.495 168.096 168.735 
169.359 170.007 170.592 171.208 171.706 161.45 162.026 161.798 162.039 
162.69 162.405 162.651 162.514 162.94 163.495 163.096 163.326 163.166 
163.634 163.546 164.121 164.586 164.024 164.195 163.896 164.35 164.248 
164.825 164.787 165.439 165.853 165.241 165.373 164.889 165.245 165.005 
165.552 165.474 166.113 166.116 166.79 167.108 166.536 166.699 166.147 
166.417 165.998 166.451 166.245 166.874 166.82 167.522 167.489 168.137 
168.354 167.795 167.999 167.474 167.755 167.249 167.631 167.251 167.819 
167.648 168.36 168.287 168.973 168.856 169.437 169.599 169.04 169.228 
168.747 169.061 168.594 168.984 168.526 169.028 168.7 169.349 169.18 
169.857 169.721 170.302 170.135 170.642 170.802 170.257 170.412 169.942 
170.244 169.845 170.249 169.854 170.317 169.948 170.495 170.223 170.823 
170.626 171.18 170.992 171.473 171.29 171.737 161.301 161.583 161.575 
161.953 162.238 162.065 162.436 162.331 162.689 163.017 162.78 163.111 
162.94 163.281 163.134 163.535 163.872 163.517 163.721 163.552 163.867 
163.767 164.172 164.086 164.608 164.977 164.438 164.526 164.164 164.404 
164.275 164.698 164.694 165.226 165.227 165.816 166.213 165.631 165.741 
165.174 165.385 164.977 165.391 165.24 165.829 165.819 166.443 166.441 
167.048 167.405 166.867 167.055 166.511 166.796 166.237 166.649 166.212 
166.812 166.58 167.286 167.16 167.838 167.729 168.348 168.601 168.065 
168.281 167.809 168.16 167.691 168.13 167.646 168.194 167.796 168.476 
168.197 168.909 168.675 169.317 169.097 169.663 169.777 169.266 169.465 
169.015 169.356 168.973 169.413 169.038 169.536 169.175 169.749 169.447 
170.072 169.812 170.404 170.142 170.663 170.404 170.885 169.861 169.216 
169.107 168.186 168.739 168.504 167.581 167.372 166.387 168.547 168.172 
167.254 166.899 165.927 165.623 164.676 168.487 168.069 167.142 166.702 
165.74 165.32 164.38 164.039 163.191 168.496 168.049 167.155 166.667 
165.738 165.251 164.351 163.899 163.044 162.676 161.944 168.702 168.174 
167.378 166.806 165.964 165.384 164.557 164.01 163.204 162.69 161.924 
161.547 161.009 169.086 168.518 167.796 167.183 166.432 165.785 165.029 
164.381 163.647 163.016 162.304 161.726 161.149 160.809 160.562 169.476 
168.939 168.229 167.654 166.948 166.338 165.638 164.976 164.294 163.612 
162.999 162.321 161.815 161.22 160.931 160.613 160.618 169.802 169.307 
168.616 168.075 167.4 166.848 166.199 165.599 164.958 164.315 163.768 
163.133 162.737 162.097 161.835 161.263 161.184 160.857 160.981 170.735 
171.829 170.903 170.138 172.982 172.053 171.321 170.332 169.645 174.172 
173.27 172.616 171.596 170.931 169.968 169.437 175.365 174.497 173.924 
172.944 172.321 171.327 170.778 169.851 169.379 176.576 175.725 175.196 
174.262 173.685 172.723 172.166 171.215 170.694 169.785 169.341 177.753 
176.956 176.476 175.566 175.016 174.069 173.521 172.58 172.043 171.109 
170.64 169.781 169.464 178.8 178.094 177.676 176.854 176.334 175.405 
174.848 173.911 173.382 172.456 171.99 171.109 170.784 169.998 169.805 
179.737 179.084 178.689 177.988 177.515 176.682 176.122 175.217 174.682 
173.785 173.33 172.461 172.118 171.321 171.096 170.365 170.183 180.598 
179.978 179.574 178.938 178.498 177.776 177.255 176.434 175.912 175.065 
174.624 173.786 173.421 172.621 172.334 171.605 171.378 170.687 170.474 
180.913 181.039 180.616 179.896 181.118 180.714 179.948 179.553 178.792 
181.123 180.742 179.942 179.553 178.74 178.374 177.56 181.124 180.735 
179.949 179.537 178.731 178.322 177.507 177.11 176.283 181.156 180.771 
180.016 179.584 178.798 178.357 177.564 177.122 176.313 175.871 175.059 
181.176 180.814 180.065 179.653 178.84 178.417 177.602 177.19 176.372 
175.937 175.101 174.665 173.865 181.221 180.845 180.096 179.679 178.842 
178.416 177.571 177.18 176.35 175.954 175.096 174.678 173.845 173.468 
172.737 181.318 180.924 180.192 179.742 178.931 178.449 177.624 177.173 
176.371 175.939 175.108 174.661 173.825 173.426 172.686 172.374 171.743 
181.382 181.023 180.317 179.881 179.115 178.615 177.829 177.32 176.549 
176.052 175.264 174.753 173.944 173.462 172.718 172.341 171.705 171.419 
170.841 181.152 180.395 180.566 180.091 179.547 179.753 179.272 179.438 
178.898 178.626 178.861 178.358 178.562 178.016 178.185 177.616 177.597 
177.887 177.366 177.602 177.029 177.239 176.653 176.861 176.303 176.403 
176.772 176.252 176.557 175.966 176.202 175.578 175.82 175.229 175.505 
174.963 175.093 175.49 174.961 175.354 174.784 175.091 174.455 174.705 
174.081 174.363 173.798 174.122 173.613 173.838 174.182 173.646 174.029 
173.495 173.858 173.27 173.56 172.94 173.211 172.64 172.945 172.446 
172.79 172.377 172.698 172.995 172.486 172.794 172.288 172.608 172.07 
172.37 171.794 172.075 171.518 171.812 171.319 171.648 171.243 171.629 
171.334 171.625 171.908 171.428 171.709 171.207 171.479 170.937 171.208 
170.647 170.933 170.397 170.701 170.215 170.538 170.119 170.495 170.181 
170.635 170.429 181.656 182.131 181.567 180.891 182.571 182.001 181.301 
180.755 180.052 183.022 182.414 181.694 181.151 180.439 179.885 179.145 
183.515 182.854 182.097 181.545 180.83 180.267 179.483 178.915 178.106 
183.969 183.318 182.511 181.951 181.222 180.652 179.82 179.213 178.313 
177.774 176.896 184.189 183.664 182.817 182.316 181.544 181.01 180.112 
179.491 178.491 177.92 176.968 176.484 175.593 184.086 183.722 182.842 
182.463 181.62 181.202 180.229 179.673 178.57 178.009 176.988 176.518 
175.608 175.167 174.323 183.779 183.517 182.633 182.323 181.416 181.093 
180.086 179.641 178.504 177.99 176.926 176.485 175.571 175.164 174.309 
173.909 173.127 183.404 183.202 182.368 182.061 181.149 180.814 179.839 
179.434 178.374 177.89 176.864 176.415 175.521 175.118 174.279 173.877 
173.068 172.717 172.005 182.219 183.25 182.763 182.764 184.268 183.839 
183.929 183.341 183.278 185.238 184.871 185.091 184.579 184.636 183.924 
183.825 186.251 185.866 186.167 185.76 185.992 185.381 185.411 184.567 
184.425 187.343 186.925 187.197 186.823 187.108 186.685 186.844 186.182 
186.101 185.188 184.93 188.232 187.934 188.103 187.782 187.949 187.647 
187.757 187.377 187.318 186.703 186.409 185.548 185.113 188.665 188.56 
188.626 188.467 188.512 188.313 188.29 188.036 187.888 187.55 187.24 
186.714 186.227 185.488 184.928 188.83 188.784 188.805 188.753 188.77 
188.687 188.639 188.441 188.23 187.931 187.577 187.225 186.757 186.286 
185.717 185.099 184.519 188.991 188.915 188.936 188.872 188.903 188.853 
188.836 188.705 188.512 188.234 187.856 187.498 187.021 186.631 186.094 
185.651 185.086 184.573 184.034 189.073 189.061 189.081 189.021 188.857 
189.035 189.09 189.056 189.002 188.434 188.759 188.887 189.04 188.988 
188.984 188.868 187.754 188.176 188.196 188.583 188.455 188.707 188.496 
188.661 188.436 186.844 187.289 187.132 187.618 187.389 187.839 187.585 
187.991 187.751 188.031 187.729 185.851 186.253 186.017 186.452 186.205 
186.656 186.454 186.933 186.776 187.189 186.942 187.202 186.852 184.847 
185.225 184.965 185.355 185.128 185.544 185.401 185.86 185.764 186.201 
185.996 186.324 185.975 186.242 185.874 183.802 184.195 183.92 184.312 
184.079 184.506 184.361 184.84 184.727 185.191 184.963 185.331 184.964 
185.28 184.9 185.227 184.882 182.755 183.143 182.89 183.275 183.052 
183.465 183.305 183.774 183.635 184.108 183.873 184.264 183.903 184.236 
183.869 184.218 183.905 184.243 183.909 182.101 181.187 181.853 182.253 
180.237 180.942 181.384 182.03 182.445 179.211 179.963 180.44 181.156 
181.614 182.257 182.704 178.127 178.893 179.348 180.143 180.628 181.383 
181.851 182.531 182.992 176.995 177.775 178.186 178.992 179.468 180.309 
180.806 181.594 182.042 182.761 183.167 175.816 176.615 177.035 177.826 
178.282 179.119 179.63 180.477 180.948 181.725 182.113 182.836 183.181 
174.675 175.446 175.895 176.685 177.141 177.948 178.425 179.271 179.744 
180.574 180.99 181.752 182.126 182.831 183.186 173.65 174.351 174.785 
175.558 176.013 176.806 177.24 178.052 178.475 179.32 179.744 180.583 
181.004 181.785 182.19 182.887 183.257 172.747 173.368 173.757 174.474 
174.906 175.672 176.088 176.863 177.256 178.055 178.465 179.308 179.748 
180.604 181.037 181.842 182.222 182.939 183.254 182.935 181.873 182.271 
181.906 180.671 181.128 180.737 181.118 180.667 179.377 179.867 179.494 
179.907 179.426 179.805 179.312 178.079 178.551 178.192 178.644 178.179 
178.548 177.992 178.378 177.845 176.841 177.255 176.84 177.304 176.833 
177.256 176.687 177.055 176.477 176.882 176.385 175.661 176.022 175.532 
175.937 175.414 175.846 175.275 175.694 175.116 175.531 175.02 175.47 
175.055 174.495 174.834 174.324 174.661 174.118 174.467 173.907 174.283 
173.736 174.149 173.639 174.094 173.643 174.155 173.782 173.376 173.682 
173.188 173.491 172.969 173.259 172.72 173.019 172.496 172.836 172.343 
172.731 172.266 172.723 172.322 172.87 172.558 172.389 172.629 172.161 
172.414 171.915 172.168 171.63 171.893 171.357 171.661 171.168 171.51 
171.053 171.421 171.016 171.46 171.159 171.709 171.507 183.253 183.749 
183.8 184.4 184.217 184.348 185.035 185.035 185.637 184.46 184.751 
185.512 185.664 186.299 186.271 186.759 184.472 184.868 185.663 186.016 
186.733 186.864 187.334 187.256 187.565 184.4 184.819 185.621 186.069 
186.889 187.201 187.754 187.756 188.015 187.902 188.12 184.237 184.705 
185.468 185.965 186.779 187.255 187.869 188.057 188.28 188.236 188.363 
188.36 188.578 183.897 184.441 185.119 185.678 186.352 186.955 187.512 
187.95 188.15 188.292 188.303 188.418 188.576 188.74 188.94 183.411 
183.988 184.588 185.175 185.717 186.335 186.809 187.383 187.66 187.988 
188.057 188.229 188.361 188.593 188.831 189.015 189.129 182.874 183.428 
183.968 184.55 185.036 185.616 186.053 186.628 187.018 187.476 187.768 
188.02 188.264 188.432 188.7 188.867 189.049 189.128 189.131 183.19 
184.297 183.633 183.452 185.498 184.793 184.601 183.924 183.705 186.625 
185.999 185.794 185.103 184.832 184.111 183.72 187.454 187.012 186.837 
186.246 185.91 185.187 184.678 183.931 183.371 188.044 187.715 187.575 
187.139 186.815 186.176 185.608 184.832 184.215 183.501 183.019 188.561 
188.266 188.13 187.767 187.519 187.003 186.523 185.767 185.16 184.385 
183.928 183.277 182.948 188.942 188.725 188.556 188.256 188.06 187.685 
187.382 186.736 186.191 185.371 184.832 184.165 183.791 183.225 182.825 
189.086 188.974 188.752 188.552 188.326 188.134 187.941 187.564 187.108 
186.38 185.683 184.954 184.372 183.875 183.402 182.918 182.366 189.053 
189.007 188.772 188.63 188.346 188.242 188.019 187.91 187.519 187.094 
186.339 185.654 184.85 184.296 183.707 183.31 182.785 182.326 181.754 
182.523 182.746 182.261 181.453 182.943 182.457 181.563 181.045 180.096 
182.948 182.578 181.638 181.11 180.073 179.578 178.622 182.668 182.456 
181.597 181.15 180.087 179.54 178.504 178.083 177.143 182.364 182.143 
181.401 181.067 180.096 179.564 178.458 177.946 176.913 176.531 175.52 
182.265 181.939 181.189 180.873 179.997 179.554 178.48 177.915 176.813 
176.323 175.332 174.91 173.989 182.119 181.836 180.999 180.678 179.803 
179.439 178.467 177.951 176.907 176.334 175.407 174.896 174.123 173.638 
172.966 181.691 181.537 180.683 180.428 179.552 179.247 178.368 177.951 
177.034 176.505 175.648 175.123 174.408 173.92 173.291 172.822 172.224 
181.131 181.028 180.253 180.062 179.263 179.007 178.204 177.869 177.037 
176.618 175.797 175.355 174.598 174.176 173.463 173.065 172.361 171.989 
171.289 182.043 181.994 182.36 183.023 181.9 182.278 182.952 183.331 
183.988 181.866 182.213 182.905 183.265 183.95 184.294 184.942 181.879 
182.227 182.956 183.287 184.008 184.312 185.001 185.288 185.968 181.886 
182.255 183.006 183.36 184.078 184.396 185.076 185.378 186.079 186.382 
187.081 181.884 182.258 182.98 183.359 184.032 184.397 185.026 185.387 
186.044 186.433 187.122 187.466 188.025 181.834 182.219 182.87 183.258 
183.887 184.282 184.931 185.309 185.969 186.342 186.991 187.381 187.925 
188.225 188.537 181.72 182.112 182.712 183.086 183.688 184.101 184.834 
185.269 186.055 186.377 187.025 187.267 187.76 188.029 188.375 188.584 
188.757 181.599 181.984 182.598 182.934 183.52 183.899 184.64 185.162 
186.056 186.514 187.222 187.412 187.818 187.925 188.23 188.412 188.669 
188.807 188.955 
POINT_DATA 1002
SCALARS Distance double
LOOKUP_TABLE default
181.445 182.361 181.588 180.588 180.697 180.503 179.603 179.674 179.511 
179.501 178.435 178.458 178.39 178.394 178.455 177.044 177.05 177.101 
177.173 177.29 177.38 175.565 175.605 175.658 175.792 175.924 176.078 
176.206 174.179 174.257 174.212 174.324 174.431 174.573 174.777 175.003 
172.884 172.986 172.853 172.909 173.027 173.183 173.387 173.638 173.927 
171.603 171.739 171.541 171.557 171.694 171.935 172.196 172.435 172.692 
172.995 170.38 170.556 170.295 170.282 170.372 170.608 170.93 171.234 
171.518 171.825 172.168 182.857 181.986 183.353 182.352 183.751 180.972 
182.64 183.978 181.192 179.849 182.818 184.071 181.363 179.977 178.579 
182.89 184.113 181.465 180.043 178.67 177.13 182.834 184.01 181.477 
180.054 178.667 177.172 175.613 182.609 183.657 181.381 180.051 178.659 
177.164 175.612 174.189 182.272 183.188 181.173 179.963 178.669 177.236 
175.694 174.202 172.873 181.919 182.762 180.893 179.732 178.531 177.279 
175.896 174.396 172.918 171.611 181.809 180.796 180.575 179.406 179.13 
179.595 177.934 177.719 178.089 178.313 176.448 176.201 176.582 176.793 
177.11 174.677 174.476 174.986 175.351 175.716 175.92 172.956 173.121 
173.227 173.827 174.343 174.537 174.487 171.88 172.357 171.78 172.219 
172.75 172.92 172.85 172.816 171.147 171.631 170.762 170.764 171.003 
171.053 170.945 170.983 171.235 170.181 170.586 169.715 169.405 169.313 
169.224 169.089 169.151 169.497 170.002 169.278 168.595 168.008 167.955 
167.189 166.658 167.496 166.399 165.624 165.182 167.362 165.829 164.686 
164.025 163.883 167.463 165.631 164.105 163.136 162.897 162.982 167.643 
165.706 163.959 162.657 162.161 162.225 162.26 167.977 165.979 164.13 
162.605 161.672 161.471 161.544 161.587 168.499 166.512 164.603 162.985 
161.708 160.975 160.798 160.9 161.15 169.029 167.207 165.368 163.747 
162.373 161.262 160.589 160.441 160.678 161.111 169.129 167.873 169.07 
166.544 167.846 169.087 165.201 166.648 167.932 169.22 164.018 165.512 
166.944 168.133 169.49 163 164.337 166.013 167.305 168.424 169.838 
162.19 163.237 164.894 166.506 167.647 168.824 170.235 161.727 162.581 
163.921 165.537 166.931 168.107 169.372 170.676 161.607 162.362 163.435 
164.756 166.134 167.453 168.732 169.975 171.127 161.637 162.155 162.292 
162.774 163.009 163.03 163.508 163.971 163.7 164.178 164.598 165.195 
164.483 164.872 165.432 165.935 166.432 165.59 165.666 166.125 166.788 
167.245 167.649 166.92 166.743 166.949 167.553 168.232 168.495 168.922 
168.261 168.086 168.066 168.448 169.083 169.608 169.706 170.172 169.487 
169.438 169.429 169.592 170.013 170.477 170.825 170.896 171.34 170.635 
170.613 170.699 170.827 171.069 171.39 171.677 171.92 161.159 161.936 
161.659 162.606 162.454 162.77 163.284 163.317 163.449 163.628 163.957 
164.348 163.929 164.23 164.664 165.014 165.571 164.613 164.674 165.195 
165.826 166.312 166.76 165.901 165.647 165.854 166.441 167.067 167.532 
167.925 167.323 167.167 167.137 167.447 167.974 168.475 168.74 169.14 
168.573 168.588 168.638 168.808 169.175 169.581 169.897 169.921 170.27 
169.735 169.761 169.893 170.081 170.361 170.685 170.95 171.145 169.971 
168.325 169.355 167.834 169.03 166.588 167.653 168.959 166.278 164.917 
167.598 168.908 166.179 164.766 163.457 167.644 168.94 166.227 164.812 
163.477 162.202 167.941 169.227 166.551 165.118 163.746 162.394 161.182 
168.388 169.646 167.061 165.688 164.284 162.914 161.609 160.662 168.786 
169.998 167.517 166.269 164.959 163.643 162.444 161.396 160.74 171.651 
171.092 172.748 172.322 173.881 170.553 173.611 175.028 171.917 170.325 
174.857 176.214 173.307 171.741 170.271 176.11 177.409 174.626 173.125 
171.635 170.179 177.355 178.498 175.968 174.459 172.982 171.517 170.228 
178.432 179.475 177.245 175.794 174.295 172.872 171.584 170.543 179.348 
180.392 178.292 177.011 175.566 174.19 172.931 171.84 170.908 180.2 