# vtk DataFile Version 4.0
vtk output
ASCII
DATASET POLYDATA
POINTS 1002 float
-115.113 -103.673 72.637 -114.257 -102.836 72.5706 -113.993 -103.479 72.075 
-114.885 -104.475 72.1696 -113.814 -104.313 71.5126 -115.953 -104.73 72.7704 
-114.711 -105.517 71.6593 -113.678 -105.3 70.9807 -115.686 -105.779 72.4244 
-116.796 -106.055 72.9632 -114.578 -106.655 71.2082 -113.539 -106.359 70.6959 
-115.447 -107.024 72.032 -116.48 -107.351 72.7524 -117.719 -107.509 73.0805 
-114.487 -107.809 70.8884 -113.396 -107.581 70.4538 -115.359 -108.237 71.4754 
-116.277 -108.697 72.301 -117.475 -108.932 72.8156 -118.655 -108.952 73.0776 
-114.424 -109.171 70.4065 -113.279 -109.061 69.9425 -115.443 -109.43 70.7989 
-116.416 -109.825 71.3651 -117.531 -110.148 72.0549 -118.706 -110.245 72.5156 
-119.715 -110.22 72.9633 -114.415 -110.728 69.6571 -113.299 -110.592 69.454 
-115.548 -110.785 70.0501 -116.722 -110.844 70.3796 -117.937 -110.966 70.8517 
-119.08 -111.117 71.4638 -120.13 -111.176 72.0465 -121.03 -111.163 72.6694 
-114.494 -112.144 68.9744 -113.464 -111.934 69.2747 -115.615 -112.157 69.2202 
-116.902 -111.983 69.6113 -118.321 -111.766 69.873 -119.58 -111.756 70.2841 
-120.614 -111.882 70.9233 -121.572 -111.926 71.5983 -122.331 -111.927 72.287 
-114.533 -113.28 68.5816 -113.581 -113.086 69.2392 -115.611 -113.321 68.4612 
-116.914 -113.198 68.854 -118.464 -112.915 69.2009 -119.936 -112.712 69.4302 
-121.048 -112.739 69.9223 -121.988 -112.774 70.6168 -122.864 -112.711 71.3028 
-123.443 -112.695 72.0119 -114.447 -114.222 68.5067 -113.554 -114.104 69.2192 
-115.486 -114.271 68.1015 -116.773 -114.312 68.2816 -118.354 -114.251 68.7068 
-119.988 -114.071 68.9735 -121.303 -113.932 69.3075 -122.312 -113.828 69.8964 
-123.268 -113.641 70.5402 -124.082 -113.456 71.1764 -124.482 -113.421 71.886 
-113.222 -102.385 72.1592 -112.913 -103.073 71.6036 -112.176 -101.878 71.6234 
-111.79 -102.555 71.0259 -110.96 -101.354 71.0347 -112.679 -103.907 71.0051 
-110.443 -102 70.4566 -109.261 -100.986 70.6176 -111.42 -103.38 70.494 
-112.464 -104.888 70.5398 -108.613 -101.748 70.1319 -107.342 -101.056 70.604 
-109.882 -102.952 70.0481 -111.074 -104.481 70.1143 -112.279 -106.068 70.272 
-106.755 -102.064 70.2118 -105.912 -101.697 71.0817 -107.961 -102.956 69.8145 
-109.445 -104.331 69.7748 -110.883 -105.92 69.8356 -112.141 -107.51 69.9385 
-105.491 -102.811 70.7354 -104.851 -102.599 71.8066 -106.252 -103.384 69.93 
-107.604 -104.54 69.6635 -109.311 -106.01 69.6873 -110.806 -107.518 69.7172 
-112.08 -109.065 69.6715 -104.489 -103.678 71.4864 -103.561 -103.37 72.2927 
-105.209 -104.072 70.5429 -106.118 -105.02 69.863 -107.602 -106.401 69.7225 
-109.312 -107.709 69.8913 -110.847 -109.011 69.9889 -112.232 -110.511 69.7858 
-103.349 -104.501 72.0491 -102.203 -104.009 72.4099 -104.443 -104.899 71.4461 
-105.291 -105.684 70.53 -106.247 -107.038 69.8201 -107.706 -108.288 69.829 
-109.482 -109.2 70.2589 -111.152 -110.36 70.4124 -112.521 -111.83 69.9973 
-102.367 -105.252 72.3371 -101.319 -104.687 72.5057 -103.673 -105.692 72.1553 
-104.787 -106.343 71.4514 -105.526 -107.611 70.3114 -106.444 -108.993 69.6676 
-108.056 -109.786 69.9925 -109.977 -110.462 70.5544 -111.565 -111.672 70.558 
-112.693 -113.076 69.9778 -101.512 -105.818 72.6987 -102.69 -106.288 72.6102 
-102.091 -106.835 73.1457 -103.329 -107.257 72.9421 -102.847 -107.78 73.6451 
-104.085 -106.788 72.3446 -104.007 -108.49 73.2274 -103.7 -109.068 74.0881 
-104.566 -108.046 72.3524 -105.084 -107.834 71.32 -104.643 -110.193 73.4914 
-104.592 -110.65 74.4172 -104.899 -109.72 72.3742 -105.298 -109.462 71.1686 
-105.719 -109.377 70.0925 -105.401 -111.799 73.6611 -105.484 -112.059 74.6172 
-105.348 -111.517 72.5094 -105.648 -111.092 71.442 -106.198 -110.798 70.4569 
-106.971 -110.44 69.878 -106.445 -113.112 73.8327 -106.551 -113.361 74.8347 
-106.297 -112.952 72.6493 -106.55 -112.524 71.8557 -107.244 -111.929 71.3834 
-108.081 -111.449 70.7876 -109.007 -110.956 70.4742 -107.597 -114.603 74.1532 
-107.736 -114.779 75.0882 -107.514 -114.375 72.994 -107.816 -113.945 72.1636 
-108.554 -113.266 71.9704 -109.362 -112.659 71.6714 -110.101 -112.26 71.0465 
-110.85 -111.934 70.7082 -108.426 -116.223 74.409 -108.604 -116.191 75.2311 
-108.41 -116.025 73.4891 -108.795 -115.595 72.6493 -109.528 -115.002 72.2045 
-110.225 -114.444 71.892 -110.779 -114.056 71.2426 -111.382 -113.746 70.5973 
-112.057 -113.412 70.279 -108.808 -117.634 74.4764 -108.986 -117.489 75.2761 
-108.848 -117.523 73.7804 -109.31 -117.157 73.1723 -110.07 -116.687 72.5991 
-110.715 -116.278 71.9924 -111.146 -115.948 71.2397 -111.635 -115.591 70.478 
-112.28 -115.132 69.9745 -112.95 -114.608 69.6288 -114.041 -115.103 68.9264 
-113.462 -115.766 69.4639 -114.761 -116.036 69.1249 -112.815 -116.451 69.9718 
-114.305 -116.777 69.8109 -115.677 -117.186 69.7219 -112.18 -117.025 70.6237 
-113.729 -117.492 70.4752 -115.233 -117.966 70.4003 -116.457 -118.663 70.2251 
-111.723 -117.42 71.5242 -113.137 -118.068 71.2865 -114.663 -118.595 71.1836 
-115.874 -119.422 70.8652 -117.071 -120.095 70.5908 -111.276 -117.733 72.4486 
-112.693 -118.558 72.2414 -114.123 -119.204 72.097 -115.28 -120.002 71.7619 
-116.422 -120.78 71.3447 -117.773 -121.18 71.2026 -110.49 -118.122 73.1149 
-112.078 -119.062 73.0075 -113.56 -120.014 72.8343 -114.607 -120.92 72.5447 
-115.676 -121.633 72.1507 -117.052 -121.993 71.9027 -118.468 -122.13 71.876 
-109.596 -118.562 73.5462 -111.046 -119.555 73.4512 -112.674 -120.747 73.2821 
-113.72 -122.025 72.9516 -114.602 -123.001 72.6181 -115.967 -123.371 72.4027 
-117.542 -123.268 72.2893 -118.985 -123.121 72.2271 -109.103 -118.857 74.0501 
-110.072 -119.945 73.8692 -111.628 -121.107 73.7562 -112.861 -122.474 73.3793 
-113.621 -123.872 72.9311 -114.711 -124.793 72.7607 -116.269 -124.822 72.7171 
-117.878 -124.323 72.5998 -119.425 -123.943 72.4847 -109.074 -118.876 74.8107 
-109.603 -120.135 74.5279 -110.871 -121.222 74.4395 -112.293 -122.282 74.1468 
-113.251 -123.564 73.567 -114.089 -124.976 73.226 -115.265 -125.751 73.2617 
-116.687 -125.469 73.2716 -118.237 -124.776 73.1321 -119.876 -124.382 73.0262 
-115.064 -115.131 68.3877 -115.93 -116.189 68.8925 -116.314 -115.268 68.2477 
-116.919 -117.55 69.6713 -117.369 -116.49 69.0187 -117.896 -115.47 68.581 
-117.775 -119.025 70.1508 -118.436 -117.771 69.8412 -119.06 -116.69 69.3688 
-119.659 -115.499 68.954 -118.557 -120.331 70.5795 -119.366 -119.05 70.2472 
-120.045 -117.762 70.0816 -120.717 -116.608 69.6733 -121.243 -115.307 69.253 
-119.319 -121.419 71.3272 -120.219 -120.415 70.686 -120.975 -119.058 70.3951 
-121.608 -117.639 70.3166 -122.247 -116.287 69.9779 -122.533 -115.009 69.698 
-119.975 -122.381 71.9387 -120.972 -121.599 71.3456 -121.928 -120.527 70.6882 
-122.672 -119.087 70.4835 -123.33 -117.388 70.4386 -123.802 -115.84 70.2243 
-123.739 -114.642 70.1971 -120.594 -123.268 72.2127 -121.671 -122.478 71.8273 
-122.735 -121.533 71.1338 -123.703 -120.449 70.5625 -124.5 -118.902 70.4327 
-125.128 -116.973 70.4208 -125.29 -115.364 70.4485 -124.832 -114.284 70.7104 
-121.207 -123.991 72.6118 -122.36 -123.287 72.2457 -123.353 -122.224 71.6812 
-124.322 -121.198 70.9887 -125.237 -120.127 70.593 -126.018 -118.433 70.5572 
-126.469 -116.446 70.6731 -126.264 -114.978 70.9417 -125.456 -114.091 71.3736 
-121.252 -124.454 73.5889 -122.638 -124.19 73.1222 -122.481 -124.448 74.3853 
-123.603 -124.03 73.9142 -123.055 -123.843 75.145 -123.657 -123.249 72.6191 
-123.853 -123.106 74.7524 -123.18 -122.492 75.787 -124.345 -122.845 73.3669 
-124.485 -121.93 71.958 -124.092 -121.745 75.5885 -123.669 -121.263 76.7077 
-124.635 -121.981 74.3254 -125.103 -121.51 72.7761 -125.372 -120.848 71.3758 
-124.833 -120.825 76.7232 -124.572 -120.701 78.1056 -125.194 -120.954 75.3658 
-125.556 -120.783 73.912 -125.923 -120.268 72.4032 -126.227 -119.528 71.1736 
-125.524 -120.248 78.2248 -125.295 -120.117 79.6119 -125.797 -120.094 76.6782 
-125.979 -119.768 75.1296 -126.072 -119.27 73.6906 -126.463 -118.535 72.3454 
-126.839 -117.529 71.2585 -125.896 -119.276 79.7617 -125.807 -119.088 80.9605 
-125.96 -119.123 78.2797 -125.999 -118.721 76.617 -125.838 -118.234 75.039 
-125.95 -117.55 73.6669 -126.592 -116.632 72.4498 -126.893 -115.696 71.5003 
-126.312 -117.993 81.0969 -126.335 -118.028 82.1746 -126.051 -117.847 79.7807 
-125.784 -117.618 78.2566 -125.425 -117.427 76.6311 -125.17 -117.048 75.0666 
-125.549 -116.278 73.7286 -126.183 -115.367 72.6731 -126.193 -114.615 71.8939 
-126.736 -116.903 82.1994 -126.697 -117.208 83.2141 -126.357 -116.636 80.9562 
-125.801 -116.491 79.5922 -125.223 -116.583 78.1836 -124.704 -116.654 76.654 
-124.606 -116.258 75.1246 -124.992 -115.454 73.9085 -125.29 -114.621 73.0433 
-125.092 -113.94 72.3854 -119.238 -124.583 73.9412 -120.602 -124.381 74.6914 
-118.616 -124.55 75.0264 -119.927 -124.171 75.816 -118.203 -124.51 76.0764 
-121.744 -124.126 75.4743 -119.466 -124.064 76.891 -117.884 -124.367 77.2027 
-121.002 -123.718 76.4892 -122.252 -123.252 76.0611 -119.062 -123.675 78.0064 
-117.48 -123.768 78.307 -120.476 -123.328 77.5708 -121.577 -122.736 77.0855 
-122.584 -121.94 76.7773 -118.506 -122.819 78.9543 -117.06 -122.805 79.0817 
-119.959 -122.588 78.6899 -121.152 -122.192 78.3527 -122.209 -121.66 78.1514 
-123.405 -121.07 78.0969 -117.94 -121.942 79.7682 -116.674 -121.825 79.8011 
-119.324 -121.785 79.7317 -120.744 -121.468 79.6439 -121.989 -121.254 79.6629 
-123.184 -120.912 79.7197 -124.37 -120.485 79.6787 -117.516 -121.142 80.7328 
-116.279 -120.936 80.7467 -118.773 -121.195 80.8532 -120.197 -120.968 80.9774 
-121.647 -120.749 81.0756 -122.879 -120.494 81.1682 -123.989 -120.025 81.1466 
-125.032 -119.567 81.0452 -117.161 -120.293 81.6738 -115.906 -120.159 81.6555 
-118.387 -120.455 81.889 -119.623 -120.497 82.2523 -121.019 -120.362 82.471 
-122.377 -120.064 82.4752 -123.486 -119.576 82.4177 -124.54 -119.06 82.3554 
-125.586 -118.605 82.2907 -116.767 -119.518 82.3955 -115.584 -119.503 82.3388 
-117.995 -119.559 82.6067 -119.118 -119.701 83.0846 -120.283 -119.779 83.5469 
[...]
CELL_DATA 2000
SCALARS Distance double
LOOKUP_TABLE default
169.36 169.457 169.776 170.566 169.708 169.974 170.819 171.092 171.953 
170.097 170.317 171.211 171.447 172.37 172.602 173.501 170.611 170.783 
171.684 171.891 172.842 173.084 174.037 174.222 175.081 171.221 171.353 
172.239 172.397 173.309 173.546 174.505 174.753 175.643 175.786 176.572 
171.926 172 172.878 172.985 173.84 174.008 174.889 175.149 176.024 
176.269 177.061 177.22 177.951 172.718 172.719 173.529 173.614 174.422 
174.542 175.34 175.52 176.335 176.579 177.378 177.615 178.359 178.536 
179.219 173.487 173.449 174.109 174.188 174.93 175.079 175.867 176.008 
176.814 176.96 177.781 177.954 178.751 178.919 179.648 179.77 180.406 
174.143 174.094 174.616 174.67 175.344 175.524 176.359 176.553 177.436 
177.555 178.418 178.497 179.325 179.406 180.174 180.249 180.936 180.972 
181.561 168.609 167.425 168.219 168.652 166.114 166.979 167.417 168.295 
168.834 164.648 165.587 166.027 166.992 167.552 168.517 169.17 163.224 
164.08 164.541 165.548 166.151 167.191 167.906 168.921 169.675 162.374 
162.838 163.254 164.101 164.769 165.812 166.62 167.674 168.518 169.503 
170.306 162.288 162.356 162.617 163.051 163.676 164.548 165.465 166.494 
167.454 168.423 169.326 170.224 171.064 162.39 162.457 162.66 162.752 
163.229 163.719 164.619 165.494 166.567 167.497 168.509 169.368 170.325 
171.123 171.984 162.232 162.509 162.896 162.981 163.439 163.596 164.347 
164.88 165.914 166.725 167.802 168.655 169.69 170.5 171.467 172.153 
172.926 162.072 162.389 163.018 163.249 163.859 163.964 164.611 164.839 
165.674 166.216 167.218 167.993 169.046 169.892 170.911 171.677 172.535 
173.098 173.71 162.358 163.405 163.002 163.345 164.635 164.128 164.415 
164.035 164.318 166.037 165.401 165.626 165.147 165.403 164.953 165.142 
167.672 166.909 167.049 166.403 166.586 166.065 166.274 165.8 166.106 
169.299 168.555 168.625 167.882 167.994 167.344 167.58 167.031 167.416 
166.965 167.535 170.882 170.134 170.215 169.449 169.59 168.877 169.203 
168.556 169.053 168.462 169.092 168.616 169.353 172.619 171.808 171.966 
171.122 171.353 170.586 171.03 170.36 170.953 170.293 170.922 170.311 
170.995 170.512 171.226 174.284 173.573 173.76 172.965 173.22 172.453 
172.901 172.244 172.82 172.199 172.741 172.123 172.641 172.123 172.686 
172.271 172.815 175.565 175.047 175.187 174.611 174.827 174.232 174.599 
174.035 174.496 173.938 174.354 173.777 174.135 173.616 174 173.588 
173.982 173.624 173.955 174.547 174.688 174.922 175.557 174.814 175.108 
175.88 176.095 176.916 175 175.295 176.158 176.448 177.354 177.606 
178.535 175.273 175.562 176.456 176.756 177.703 178.01 178.943 179.217 
180.103 175.497 175.858 176.811 177.119 178.096 178.379 179.323 179.58 
180.457 180.707 181.544 175.574 176.011 177.011 177.449 178.484 178.822 
179.788 180.005 180.877 181.072 181.907 182.129 182.932 175.642 176.022 
176.953 177.504 178.564 179.106 180.1 180.443 181.297 181.514 182.326 
182.524 183.299 183.486 184.189 175.861 176.1 176.903 177.376 178.392 
179.028 180.046 180.576 181.425 181.803 182.606 182.912 183.681 183.871 
184.511 184.643 185.218 176.196 176.352 177.08 177.392 178.337 178.864 
179.882 180.428 181.288 181.756 182.553 183.025 183.832 184.182 184.813 
184.952 185.409 185.544 186.036 174.639 175.624 175.081 175.108 177.019 
176.265 176.322 175.708 175.89 178.713 177.886 178.011 177.201 177.435 
176.739 177.028 180.332 179.623 179.807 179.022 179.264 178.487 178.769 
178.005 178.22 181.804 181.195 181.418 180.739 180.951 180.261 180.491 
179.776 179.948 179.157 179.236 183.216 182.673 182.966 182.32 182.546 
181.856 182.053 181.378 181.536 180.822 180.891 180.096 180.107 184.467 
184.048 184.403 183.865 184.155 183.483 183.708 182.968 183.137 182.381 
182.477 181.701 181.717 180.918 180.905 185.514 185.217 185.602 185.207 
185.518 185.004 185.254 184.63 184.817 184.064 184.154 183.324 183.34 
182.509 182.479 181.674 181.631 186.428 186.231 186.687 186.355 186.657 
186.216 186.412 185.964 186.146 185.623 185.708 184.993 184.949 184.126 
184.034 183.217 183.109 182.328 182.223 187.074 188.241 187.637 187.447 
188.975 188.697 188.462 187.816 187.359 188.85 189.028 188.86 188.573 
188.059 187.492 186.987 188.505 188.681 188.695 188.696 188.37 188.021 
187.564 187.097 186.704 188.857 188.635 188.723 188.608 188.504 188.265 
187.935 187.583 187.206 186.794 186.321 189.6 189.253 189.2 188.892 
188.708 188.435 188.053 187.791 187.315 187.082 186.563 186.215 185.558 
190.02 189.82 189.574 189.301 188.867 188.583 187.982 187.726 187.061 
186.912 186.315 186.2 185.596 185.303 184.601 190.189 190.01 189.641 
189.404 188.827 188.562 187.865 187.57 186.828 186.576 185.929 185.818 
185.286 185.18 184.6 184.314 183.639 190.348 190.12 189.666 189.366 
188.732 188.429 187.762 187.463 186.804 186.464 185.835 185.553 185.027 
184.872 184.38 184.214 183.634 183.345 182.709 186.957 186.98 187.329 
188.051 186.99 187.284 187.915 188.332 188.8 187.114 187.313 187.787 
188.095 188.424 188.712 188.709 187.087 187.374 187.743 187.957 188.143 
188.302 188.296 188.414 188.379 186.661 187.121 187.438 187.773 187.942 
188.099 188.189 188.227 188.401 188.436 188.784 186.084 186.564 186.909 
187.323 187.602 187.885 188.167 188.314 188.667 188.716 189.145 189.179 
189.599 185.628 186.053 186.507 186.883 187.322 187.626 188.089 188.346 
188.812 188.985 189.366 189.477 189.781 189.87 190.071 185.255 185.669 
186.172 186.585 187.11 187.47 188.002 188.316 188.804 189.044 189.384 
189.533 189.762 189.899 190.115 190.198 190.326 184.892 185.292 185.74 
186.206 186.697 187.188 187.688 188.14 188.585 188.935 189.267 189.477 
189.732 189.868 190.147 190.256 190.517 190.504 190.594 176.605 177.604 
177.229 177.549 178.715 178.353 178.778 178.348 178.824 179.749 179.493 
180.012 179.659 180.165 179.76 180.291 180.697 180.515 181.113 180.867 
181.411 181.063 181.517 181.149 181.6 181.643 181.498 182.193 181.99 
182.619 182.287 182.764 182.343 182.771 182.396 182.88 182.478 182.415 
183.132 183.054 183.734 183.501 184.017 183.612 184.05 183.631 184.128 
183.752 184.232 183.155 183.128 183.735 183.801 184.426 184.437 184.939 
184.752 185.127 184.829 185.203 184.921 185.279 184.966 185.196 183.801 
183.724 184.204 184.242 184.77 184.888 185.397 185.437 185.828 185.703 
185.976 185.772 185.975 185.764 185.898 185.643 185.717 184.433 184.337 
184.759 184.702 185.157 185.188 185.69 185.781 186.272 186.279 186.634 
186.455 186.648 186.371 186.514 186.252 186.423 186.144 186.328 176.211 
175.736 176.378 177.146 175.097 175.841 176.696 177.36 178.179 174.523 
175.23 176.13 176.852 177.723 178.386 179.178 174.097 174.756 175.658 
176.324 177.218 177.894 178.721 179.341 180.095 173.672 174.369 175.321 
175.951 176.86 177.46 178.315 178.9 179.677 180.252 180.999 173.245 
173.943 174.966 175.647 176.644 177.227 178.135 178.623 179.425 179.894 
180.636 181.166 181.872 172.96 173.569 174.567 175.266 176.321 177.017 
178.03 178.565 179.403 179.775 180.488 180.88 181.573 182.035 182.668 
172.836 173.35 174.264 174.872 175.852 176.602 177.646 178.377 179.275 
179.766 180.437 180.787 181.415 181.809 182.452 182.849 183.412 172.807 
173.26 174.119 174.608 175.468 176.103 177.051 177.843 178.762 179.462 
180.154 180.638 181.208 181.634 182.243 182.668 183.253 183.601 184.085 
173.11 173.997 173.839 174.395 174.875 174.725 175.278 175.105 175.688 
175.8 175.629 176.223 176.022 176.619 176.459 177.186 176.831 176.624 
177.263 177.033 177.65 177.438 178.128 178.037 178.82 177.897 177.7 
178.365 178.135 178.77 178.515 179.147 178.973 179.652 179.59 180.225 
178.914 178.76 179.46 179.262 179.919 179.657 180.265 180.01 180.619 
180.435 181.03 180.881 181.379 179.874 179.76 180.504 180.358 181.038 
180.797 181.378 181.108 181.682 181.448 182.031 181.797 182.327 182.059 
182.496 180.789 180.693 181.443 181.368 182.07 181.885 182.43 182.163 
182.668 182.456 183.008 182.817 183.33 183.074 183.491 183.181 183.513 
181.68 181.565 182.253 182.228 182.934 182.851 183.414 183.178 183.632 
183.388 183.883 183.715 184.201 184.006 184.376 184.116 184.391 184.098 
184.322 182.373 183.519 182.921 182.916 184.734 184.112 184.158 183.56 
183.604 186.167 185.458 185.539 184.861 184.889 184.229 184.124 187.69 
186.997 187.036 186.288 186.246 185.524 185.368 184.626 184.37 188.937 
188.448 188.448 187.729 187.563 186.828 186.615 185.877 185.609 184.845 
184.601 189.818 189.547 189.635 189.024 188.784 188.041 187.737 187.046 
186.763 186.065 185.775 185.076 184.843 190.442 190.321 190.479 190.063 
189.83 189.161 188.771 188.089 187.756 187.121 186.795 186.147 185.814 
185.209 184.936 190.753 190.767 190.813 190.645 190.38 189.981 189.565 
189.024 188.65 188.064 187.727 187.093 186.722 186.091 185.743 185.193 
184.908 190.709 190.823 190.723 190.698 190.383 190.234 189.861 189.593 
189.253 188.851 188.515 187.977 187.594 186.973 186.576 185.977 185.633 
185.114 184.82 182.353 182.737 182.881 183.501 182.908 183.216 183.845 
183.985 184.624 182.685 183.202 183.864 184.199 184.848 185.134 185.953 
182.241 182.826 183.508 184.03 184.749 185.233 186.111 186.544 187.452 
181.805 182.362 183.066 183.628 184.423 185.022 185.943 186.548 187.441 
187.911 188.638 181.361 181.924 182.639 183.225 184.028 184.663 185.542 
186.223 187.026 187.639 188.277 188.805 189.375 180.852 181.431 182.1 
182.746 183.481 184.177 184.943 185.673 186.374 187.046 187.617 188.234 
188.801 189.414 189.978 180.312 180.869 181.457 182.109 182.762 183.489 
184.17 184.928 185.582 186.299 186.879 187.526 188.103 188.762 189.379 
189.982 190.432 179.798 180.304 180.825 181.42 182.017 182.708 183.362 
184.098 184.752 185.478 186.087 186.771 187.342 188.027 188.595 189.288 
189.76 190.3 190.506 181.613 180.391 181.328 181.923 178.924 179.925 
180.464 181.524 182.029 177.485 178.4 178.83 179.892 180.398 181.475 
181.837 176.137 177.006 177.415 178.324 178.806 179.817 180.29 181.232 
181.496 174.725 175.63 176.044 176.961 177.425 178.362 178.857 179.774 
180.152 180.932 181.121 173.341 174.19 174.533 175.482 175.89 176.917 
177.381 178.384 178.779 179.63 179.858 180.568 180.69 172.095 172.86 
173.153 173.977 174.319 175.284 175.719 176.789 177.209 178.196 178.462 
179.273 179.412 180.118 180.21 170.87 171.626 171.917 172.68 173.01 
173.826 174.246 175.174 175.618 176.583 176.91 177.803 177.995 178.793 
178.921 179.632 179.717 169.659 170.377 170.635 171.419 171.742 172.571 
172.982 173.84 174.265 175.114 175.438 176.269 176.489 177.322 177.501 
178.301 178.445 179.149 179.239 169.102 168.514 169.188 170.004 167.922 
168.582 169.424 170.172 171.126 167.514 168.07 168.961 169.654 170.717 
171.441 172.468 167.455 167.855 168.779 169.327 170.401 171.097 172.202 
172.848 173.787 167.644 167.958 168.846 169.267 170.244 170.83 171.863 
172.539 173.48 174.081 174.883 167.877 168.174 169.007 169.365 170.253 
170.711 171.655 172.222 173.141 173.723 174.544 175.102 175.877 168.154 
168.407 169.234 169.536 170.408 170.767 171.697 172.127 173.063 173.51 
174.367 174.819 175.628 176.127 176.917 168.556 168.735 169.563 169.809 
170.677 170.973 171.878 172.243 173.16 173.549 174.4 174.771 175.562 
175.967 176.748 177.199 177.927 169.066 169.182 169.968 170.171 171 
171.26 172.098 172.419 173.252 173.627 174.423 174.806 175.554 175.939 
176.672 177.076 177.775 178.175 178.782 169.629 170.808 170.287 170.509 
172.152 171.534 171.738 171.235 171.523 173.649 172.949 173.119 172.527 
172.787 172.286 172.6 175.176 174.465 174.603 173.957 174.178 173.599 
173.866 173.368 173.699 176.666 175.975 176.101 175.441 175.645 175.028 
175.261 174.678 174.95 174.47 174.818 178.103 177.466 177.612 176.938 
177.126 176.494 176.732 176.116 176.369 175.787 176.095 175.607 175.96 
179.402 178.872 179.058 178.436 178.594 177.958 178.16 177.565 177.816 
177.236 177.516 176.957 177.27 176.761 177.088 180.552 180.1 180.302 
179.791 179.944 179.37 179.517 178.943 179.141 178.609 178.85 178.337 
178.586 178.079 178.34 177.859 178.141 181.649 181.206 181.388 180.937 
181.097 180.615 180.762 180.238 180.392 179.869 180.052 179.565 179.762 
179.296 179.49 179.041 179.252 178.834 179.075 179.691 179.874 180.071 
180.698 180.126 180.299 180.962 181.164 181.888 180.424 180.595 181.303 
181.497 182.278 182.467 183.252 180.75 180.925 181.662 181.869 182.684 
182.899 183.719 183.883 184.648 181.103 181.277 182.015 182.225 183.013 
183.265 184.076 184.315 185.089 185.258 185.97 181.434 181.621 182.333 
182.552 183.298 183.549 184.312 184.588 185.343 185.605 186.338 186.534 
187.22 181.725 181.915 182.588 182.818 183.531 183.791 184.524 184.794 
185.505 185.779 186.48 186.777 187.5 187.747 188.437 182.026 182.204 
182.858 183.053 183.712 183.961 184.642 184.945 185.615 185.906 186.531 
186.832 187.492 187.864 188.573 188.899 189.528 182.328 182.523 183.194 
183.351 183.959 184.125 184.702 184.971 185.578 185.92 186.517 186.837 
187.423 187.777 188.419 188.843 189.456 189.816 190.253 161.524 161.809 
161.418 161.149 162.188 161.883 161.674 161.331 161.43 162.186 162.152 
162.052 161.879 161.903 161.797 162.143 162.199 162.079 162.035 162.041 
162.075 162.109 162.31 162.449 162.841 162.986 162.425 162.409 162.14 
162.278 162.207 162.451 162.52 162.892 163.074 163.553 164.419 163.613 
163.633 162.99 163.201 162.759 163.093 162.856 163.325 163.292 163.895 
163.974 164.639 165.891 165.135 165.16 164.463 164.658 164.039 164.331 
163.827 164.25 163.984 164.617 164.561 165.296 165.295 166.002 167.204 
166.536 166.549 165.929 166.091 165.516 165.753 165.186 165.474 165.041 
165.516 165.357 166.018 166.012 166.681 166.672 167.28 168.414 167.804 
167.829 167.243 167.388 166.856 167.092 166.563 166.818 166.296 166.619 
166.273 166.767 166.671 167.269 167.285 167.87 167.875 168.432 161.483 
161.053 161.281 161.723 161.364 161.17 161.507 161.832 162.588 162.233 
161.821 162.046 161.927 162.52 162.856 163.656 163.084 162.782 163.015 
162.691 163.072 163.022 163.685 163.984 164.825 163.82 163.584 163.917 
163.65 163.988 163.734 164.25 164.252 165.062 165.336 166.282 164.834 
164.436 164.845 164.561 165.014 164.708 165.204 164.999 165.711 165.771 
166.659 166.896 167.753 166.127 165.615 166.011 165.639 166.17 165.829 
166.367 166.048 166.668 166.535 167.288 167.352 168.116 168.28 168.991 
167.389 166.905 167.244 166.862 167.36 167.04 167.562 167.23 167.759 
167.516 168.149 168.055 168.744 168.741 169.436 169.521 170.248 168.557 
168.108 168.416 168.036 168.469 168.175 168.655 168.362 168.825 168.555 
169.095 168.933 169.577 169.483 170.165 170.122 170.848 170.889 171.645 
162.028 162.328 162.432 163.165 163.172 163.023 163.673 163.712 164.459 
164.169 163.954 164.517 164.386 165.026 165.061 165.873 165.274 164.947 
165.477 165.263 165.86 165.755 166.52 166.604 167.531 166.669 166.171 
166.672 166.304 166.92 166.689 167.436 167.371 168.253 168.328 169.213 
168.076 167.605 168.038 167.602 168.17 167.855 168.58 168.392 169.197 
169.123 169.96 169.975 170.809 169.285 168.897 169.305 168.917 169.415 
169.104 169.775 169.565 170.322 170.142 170.908 170.801 171.639 171.632 
172.517 170.534 170.101 170.556 170.147 170.658 170.313 170.961 170.733 
171.487 171.285 172.02 171.823 172.594 172.517 173.38 173.386 174.199 
171.905 171.435 171.912 171.466 172 171.6 172.236 171.942 172.679 
172.452 173.172 172.942 173.633 173.482 174.238 174.213 174.967 174.946 
175.549 181.169 180.187 180.452 179.958 179.227 179.444 178.905 179.154 
178.585 178.267 178.466 177.89 178.112 177.529 177.754 177.177 177.25 
177.465 176.857 177.082 176.463 176.688 176.067 176.332 175.771 176.16 
176.381 175.729 175.989 175.348 175.597 174.942 175.187 174.567 174.886 
174.347 175.121 175.274 174.568 174.802 174.139 174.427 173.781 174.048 
173.408 173.681 173.113 173.46 172.988 174.212 174.286 173.544 173.672 
172.96 173.193 172.536 172.836 172.209 172.513 171.921 172.247 171.743 
172.137 171.726 173.324 173.389 172.615 172.695 171.938 172.075 171.37 
171.598 170.974 171.284 170.721 171.053 170.525 170.889 170.432 170.874 
170.487 172.409 172.465 171.66 171.744 170.976 171.09 170.373 170.516 
169.883 170.112 169.594 169.893 169.417 169.717 169.249 169.6 169.2 
169.645 169.31 
POINT_DATA 1002
SCALARS Distance double
LOOKUP_TABLE default
170.1 168.99 168.992 170.237 169.144 171.363 170.545 169.438 171.678 
172.818 170.971 169.884 172.121 173.312 174.376 171.497 170.453 172.585 
173.822 174.979 175.89 172.113 171.1 173.111 174.235 175.46 176.493 
177.336 172.792 171.891 173.733 174.681 175.756 176.86 177.835 178.684 
173.478 172.788 174.321 175.216 176.127 177.126 178.152 179.093 179.881 
174.082 173.595 174.769 175.702 176.686 177.632 178.588 179.516 180.338 
181 174.608 174.23 175.162 176.104 177.274 178.351 179.274 180.115 
180.894 181.578 182.106 167.846 167.821 166.608 166.509 165.225 167.923 
165.03 163.691 166.545 168.191 163.523 162.461 165.072 166.838 168.691 
162.534 162.133 163.711 165.528 167.497 169.368 162.408 162.33 162.915 
164.409 166.461 168.407 170.205 162.638 162.208 162.94 163.837 165.615 
167.627 169.496 171.275 162.685 161.809 163.368 164.015 165.194 166.938 
168.845 170.733 172.397 162.676 161.733 163.698 164.513 165.312 166.521 
168.198 170.099 171.904 173.307 162.668 163.665 163.884 164.836 165.186 
164.745 166.182 166.746 165.862 165.606 167.801 168.472 167.168 166.734 
166.49 169.395 170.032 168.682 168.136 167.874 167.887 170.977 171.639 
170.275 169.815 169.66 169.626 169.764 172.809 173.412 172.116 171.671 
171.606 171.595 171.546 171.675 174.501 174.94 173.972 173.575 173.457 
173.4 173.231 173.15 173.236 175.702 176.054 175.361 175.149 175.074 
174.958 174.706 174.473 174.382 174.331 175.083 175.354 176.237 175.59 
176.697 177.816 175.825 177.06 178.307 179.485 176.159 177.387 178.665 
179.86 180.966 176.46 177.814 179.088 180.218 181.297 182.371 176.501 
178.074 179.566 180.712 181.706 182.721 183.707 176.418 177.94 179.681 
181.056 182.129 183.149 184.032 184.831 176.522 177.772 179.465 180.995 
182.229 183.462 184.437 185.071 185.757 176.835 177.885 179.356 180.825 
182.046 183.384 184.652 185.352 185.809 186.547 175.556 177.006 176.408 
178.84 178.19 177.708 180.547 180.039 179.566 179.037 182.076 181.636 
181.182 180.727 180.085 183.573 183.253 182.754 182.227 181.659 180.933 
184.867 184.771 184.446 183.928 183.261 182.514 181.707 185.956 185.987 
185.8 185.52 185.008 184.2 183.309 182.423 186.983 187.126 186.864 
186.575 186.346 185.777 184.874 183.92 182.985 187.696 188.236 188.795 
189.065 189.07 188.09 188.955 188.529 188.567 187.525 188.564 188.428 
188.572 187.976 187.194 188.917 189.23 188.693 188.251 187.583 186.846 
189.617 189.958 189.071 188.366 187.547 186.823 186.027 189.889 190.217 
189.221 188.316 187.269 186.372 185.756 185.011 189.929 190.426 189.11 
188.155 187.13 186.09 185.331 184.777 184.014 190.011 190.61 189.063 
188.026 187.109 186.177 185.243 184.513 183.854 183.038 186.633 187.665 
186.647 187.544 186.783 188.54 187.617 186.947 188.204 188.531 187.564 
186.755 188.054 188.175 188.185 187.048 186.185 187.707 188.071 188.325 
188.7 186.464 185.608 187.221 187.883 188.552 189.13 189.613 186.092 
185.189 186.97 187.781 188.609 189.28 189.694 190.043 185.729 184.85 
186.699 187.666 188.563 189.247 189.63 189.966 190.339 185.301 184.527 
186.193 187.204 188.197 189 189.559 190.011 190.467 190.749 176.928 
177.928 177.96 179.174 179.013 179.234 180.294 179.943 180.57 180.693 
181.31 180.842 181.739 181.928 181.932 182.347 181.745 182.924 183.196 
183.171 183.213 183.158 182.534 183.895 184.386 184.474 184.511 184.662 
183.695 183.24 184.355 185.032 185.402 185.509 185.592 185.586 184.242 
183.923 184.679 185.281 185.882 186.206 186.218 186.118 185.995 175.655 
176.556 175.001 175.968 174.323 177.567 175.402 173.846 177.023 178.58 
175.023 173.424 176.551 178.083 179.504 174.663 172.932 176.282 177.75 
179.115 180.415 174.238 172.567 176 177.651 179.008 180.155 181.341 
173.904 172.411 175.562 177.403 179.039 180.166 181.147 182.234 173.737 
172.361 175.153 176.844 178.693 180.095 181.053 182.05 183.076 173.685 
172.377 174.937 176.314 177.996 179.6 180.771 181.803 182.879 183.806 