# vtk DataFile Version 4.0
vtk output
ASCII
DATASET POLYDATA
POINTS 1002 float
-106.253 -122.447 73.2678 -107.001 -123.442 72.9057 -106.936 -122.73 72.3928 
-106.144 -121.62 72.7393 -106.835 -121.915 71.7747 -105.439 -121.309 73.6212 
-105.997 -120.72 72.0904 -106.676 -120.951 71.1131 -105.198 -120.489 73.0059 
-104.497 -120.171 73.9037 -105.787 -119.687 71.4614 -106.46 -119.919 70.5848 
-104.99 -119.51 72.3705 -104.151 -119.283 73.2236 -103.62 -118.835 74.2444 
-105.55 -118.509 70.9643 -106.304 -118.798 70.163 -104.849 -118.23 71.8763 
-103.954 -118.087 72.7094 -103.232 -117.792 73.6 -102.879 -117.312 74.7459 
-105.383 -117.207 70.5137 -106.294 -117.478 69.7673 -104.679 -116.823 71.4143 
-103.846 -116.612 72.3042 -102.917 -116.562 73.1258 -102.331 -116.349 74.1204 
-101.974 -116.037 75.3103 -105.282 -115.907 70.1536 -106.307 -116.183 69.5017 
-104.379 -115.577 70.9062 -103.537 -115.301 71.7476 -102.563 -115.28 72.578 
-101.759 -115.317 73.5036 -101.289 -115.194 74.6278 -100.912 -115.02 75.8198 
-105.164 -114.753 69.9454 -106.241 -115.114 69.383 -104.01 -114.46 70.4892 
-103.005 -114.262 71.1378 -102.091 -114.178 71.923 -101.271 -114.175 72.8424 
-100.72 -114.125 73.9217 -100.362 -114.025 75.0982 -100.069 -113.935 76.2547 
-105.026 -113.653 69.7904 -106.137 -114.072 69.3189 -103.692 -113.306 70.1404 
-102.498 -113.151 70.5857 -101.657 -113.083 71.3286 -100.994 -112.98 72.2925 
-100.424 -112.861 73.3337 -100.015 -112.791 74.4186 -99.7329 -112.777 75.5413 
-99.5408 -112.759 76.6506 -104.91 -112.497 69.675 -106.036 -112.915 69.2974 
-103.485 -112.115 69.85 -102.15 -111.921 70.0813 -101.33 -111.838 70.7474 
-100.881 -111.698 71.8005 -100.399 -111.536 72.8803 -99.8902 -111.477 73.8672 
-99.5379 -111.526 74.8739 -99.3311 -111.593 75.953 -99.2013 -111.602 77.0308 
-107.807 -123.795 72.287 -107.695 -123.184 71.6507 -108.748 -124.013 71.6791 
-108.629 -123.444 70.9099 -109.812 -124.126 70.9655 -107.565 -122.329 70.9355 
-109.845 -123.387 70.2068 -111.008 -124.118 70.1226 -108.567 -122.419 70.2152 
-107.451 -121.21 70.3285 -111.254 -123.082 69.607 -112.316 -123.841 69.4482 
-109.921 -122.111 69.6852 -108.556 -121.154 69.7097 -107.357 -120.106 69.8879 
-112.622 -122.665 69.0905 -113.676 -123.318 68.957 -111.362 -121.699 69.1996 
-109.855 -120.909 69.1048 -108.491 -120.139 69.1551 -107.331 -118.945 69.4283 
-113.847 -122.252 68.3928 -114.945 -122.875 68.2432 -112.67 -121.35 68.5653 
-111.125 -120.682 68.3945 -109.557 -120.167 68.2363 -108.358 -119.094 68.5141 
-107.325 -117.58 69.0027 -114.937 -121.879 67.548 -116.02 -122.542 67.3883 
-113.847 -120.999 67.8215 -112.401 -120.344 67.7542 -110.648 -120.007 67.4399 
-109.225 -119.204 67.5525 -108.2 -117.75 68.1268 -107.24 -116.314 68.7851 
-115.969 -121.359 66.9498 -116.994 -121.979 66.7922 -114.934 -120.559 67.2547 
-113.642 -119.848 67.3267 -111.913 -119.464 67.0269 -110.25 -118.921 66.9213 
-109.041 -117.75 67.358 -108.053 -116.388 68.031 -107.107 -115.207 68.7158 
-116.998 -120.6 66.6092 -117.94 -121.119 66.4137 -115.994 -119.978 66.9268 
-114.779 -119.321 67.0592 -113.157 -118.807 66.8177 -111.429 -118.309 66.5827 
-110.05 -117.413 66.8195 -108.94 -116.209 67.3945 -107.915 -115.079 68.0402 
-106.983 -114.019 68.7121 -118.273 -119.887 66.0619 -117.296 -119.409 66.4406 
-118.411 -118.833 65.5686 -117.375 -118.361 66.067 -118.227 -117.873 65.1423 
-116.125 -118.865 66.7418 -117.073 -117.235 65.7179 -117.765 -116.595 65.1942 
-115.927 -117.789 66.3107 -114.519 -118.282 66.638 -116.346 -115.768 65.7493 
-116.986 -115.049 65.7186 -115.306 -116.509 66.0042 -113.947 -117.142 66.1567 
-112.629 -117.694 66.3265 -115.285 -114.165 66.1128 -115.875 -113.677 66.4891 
-114.367 -114.864 66.0521 -113.172 -115.657 66.0192 -112.02 -116.321 66.075 
-111.025 -116.864 66.396 -114.252 -112.763 66.774 -114.783 -112.552 67.4497 
-113.466 -113.105 66.353 -112.422 -113.745 66.1892 -111.394 -114.537 66.1996 
-110.567 -115.166 66.4741 -109.768 -115.689 66.9269 -113.511 -111.59 67.7296 
-113.978 -111.455 68.4314 -112.878 -111.668 67.0269 -111.939 -111.928 66.5994 
-110.878 -112.549 66.541 -109.999 -113.274 66.7733 -109.289 -113.878 67.1567 
-108.582 -114.493 67.5826 -112.882 -110.492 68.7189 -113.319 -110.341 69.2663 
-112.385 -110.569 68.0305 -111.594 -110.659 67.4187 -110.53 -110.973 67.149 
-109.505 -111.544 67.2479 -108.718 -112.136 67.5354 -108.091 -112.731 67.8828 
-107.517 -113.413 68.28 -112.179 -109.437 69.5894 -112.638 -109.329 70.018 
-111.726 -109.54 69.0486 -111.085 -109.65 68.4754 -110.165 -109.828 68.0676 
-109.146 -110.185 67.9417 -108.266 -110.668 68.0459 -107.599 -111.153 68.2943 
-107.064 -111.705 68.6291 -106.557 -112.342 68.9824 -105.225 -111.426 69.5727 
-105.821 -110.805 69.3816 -104.176 -109.916 69.7626 -106.39 -110.24 69.0798 
-104.849 -109.253 69.6736 -103.116 -108.316 69.8543 -107.023 -109.745 68.799 
-105.534 -108.639 69.4447 -103.835 -107.432 69.7823 -102.367 -106.342 69.863 
-107.83 -109.238 68.7167 -106.365 -108.02 69.3404 -104.653 -106.635 69.7094 
-103.108 -105.284 69.7902 -101.956 -104.331 69.909 -108.773 -108.82 68.8453 
-107.357 -107.483 69.4972 -105.733 -106.031 69.8711 -104.088 -104.612 69.9508 
-102.825 -103.478 69.9767 -101.784 -102.896 70.3295 -109.705 -108.603 69.145 
-108.316 -107.23 69.7783 -106.908 -105.756 70.1764 -105.367 -104.39 70.3124 
-104.009 -103.153 70.3531 -102.925 -102.29 70.6195 -101.88 -101.872 71.2057 
-110.475 -108.499 69.6019 -109.138 -107.206 70.153 -107.88 -105.767 70.5341 
-106.585 -104.434 70.7283 -105.287 -103.19 70.8582 -104.186 -102.07 71.0845 
-103.176 -101.309 71.5209 -102.141 -100.911 72.0939 -111.057 -108.448 70.1148 
-109.846 -107.28 70.6378 -108.685 -105.913 71.0088 -107.555 -104.54 71.2353 
-106.381 -103.309 71.4597 -105.271 -102.15 71.7007 -104.302 -101.118 71.947 
-103.362 -100.417 72.2851 -102.399 -100.099 72.7552 -111.581 -108.435 70.5713 
-110.487 -107.41 71.1311 -109.449 -106.149 71.533 -108.433 -104.722 71.777 
-107.365 -103.419 72.0611 -106.258 -102.342 72.4001 -105.231 -101.31 72.6032 
-104.349 -100.354 72.7093 -103.513 -99.7343 72.9554 -102.645 -99.5417 73.4339 
-103.771 -110.997 69.7249 -102.565 -109.504 69.7585 -102.2 -110.706 69.7385 
-101.707 -107.772 69.922 -101.217 -109.198 69.9052 -101.136 -110.533 70.1596 
-101.262 -105.685 70.1328 -100.723 -107.315 70.4051 -100.57 -108.866 70.7026 
-100.732 -110.314 71.2205 -100.928 -103.864 70.4227 -100.367 -105.296 70.8413 
-100.159 -106.942 71.3443 -100.258 -108.555 71.8715 -100.387 -110.103 72.4353 
-100.761 -102.579 71.1178 -100.027 -103.657 71.2803 -99.706 -105.134 71.7364 
-99.6459 -106.818 72.307 -99.7287 -108.496 72.9072 -99.8173 -110.071 73.4557 
-100.931 -101.466 72.08 -100.015 -102.292 72.0728 -99.5199 -103.541 72.2868 
-99.2289 -105.177 72.7753 -99.1149 -106.922 73.3565 -99.2078 -108.622 73.933 
-99.3659 -110.178 74.449 -101.255 -100.519 72.8839 -100.291 -101.134 73.0007 
-99.6795 -102.118 73.1993 -99.2184 -103.595 73.6473 -98.9028 -105.297 74.201 
-98.9065 -107.022 74.6768 -99.0536 -108.746 75.1212 -99.174 -110.301 75.5603 
-101.568 -99.8959 73.5975 -100.597 -100.387 73.8444 -99.9219 -101.107 74.175 
-99.3865 -102.295 74.6897 -98.9576 -103.841 75.2794 -98.9062 -105.454 75.6969 
-99.0703 -107.148 75.9942 -99.0948 -108.871 76.3435 -99.0745 -110.376 76.7175 
-102.27 -99.3608 74.4983 -101.16 -99.8167 74.7557 -101.915 -99.3353 75.9946 
-100.867 -99.8334 76.3381 -101.654 -99.3535 77.6354 -100.291 -100.39 75.1294 
-100.739 -99.9092 78.0342 -101.549 -99.5671 79.121 -100.082 -100.541 76.7783 
-99.6551 -101.287 75.6682 -100.714 -100.367 79.5329 -101.588 -100.274 80.4002 
-99.9763 -100.888 78.4183 -99.437 -101.719 77.2932 -99.1172 -102.683 76.2959 
-100.826 -101.293 80.753 -101.782 -101.256 81.4602 -99.9621 -101.63 79.799 
-99.4026 -102.402 78.6844 -99.1269 -103.345 77.6597 -98.9943 -104.296 76.7223 
-101.211 -102.241 81.7673 -102.111 -102.103 82.4046 -100.212 -102.548 80.9766 
-99.5493 -103.24 79.9272 -99.4066 -104.19 78.7783 -99.3903 -105.045 77.8132 
-99.2521 -105.952 76.9436 -101.678 -103.097 82.7525 -102.444 -102.894 83.3853 
-100.726 -103.398 82.0881 -99.8862 -104.01 81.233 -99.6333 -104.972 80.0903 
-99.6706 -105.915 78.9603 -99.5231 -106.728 78.0789 -99.257 -107.717 77.2465 
-102.006 -104.054 83.6738 -102.762 -103.822 84.2182 -101.172 -104.326 83.1237 
-100.308 -104.809 82.4905 -99.814 -105.667 81.5612 -99.674 -106.668 80.4132 
-99.4584 -107.527 79.3919 -99.1653 -108.386 78.5346 -99.0254 -109.395 77.6415 
-102.343 -105.076 84.317 -103.171 -104.845 84.6926 -101.523 -105.336 83.9081 
-100.706 -105.746 83.4473 -100.1 -106.476 82.7664 -99.7742 -107.413 81.7893 
-99.4511 -108.259 80.7366 -99.089 -109.018 79.7998 -98.9299 -109.876 78.8984 
-99.008 -110.795 77.9505 -103.488 -99.1785 74.0119 -103.214 -98.9933 75.3415 
-104.411 -99.0509 74.8526 -104.211 -98.9515 76.2751 -105.425 -99.2383 75.6984 
-102.872 -99.0361 76.9615 -105.281 -99.284 77.0498 -106.616 -99.5754 76.4255 
-103.888 -99.1616 77.7794 -102.586 -99.1874 78.4929 -106.663 -99.6191 77.7883 
-107.985 -99.8671 77.1884 -105.141 -99.5287 78.513 -103.729 -99.4133 79.2216 
-102.53 -99.5964 79.8721 -108.22 -99.854 78.5704 -109.24 -100.24 77.9068 
-106.8 -99.7378 79.3828 -105.29 -99.6999 80.1095 -103.875 -99.8665 80.6548 
-102.651 -100.441 81.1098 -109.408 -100.361 79.1306 -110.144 -100.886 78.4203 
-108.35 -100.073 80.0695 -107.021 -100.007 80.9787 -105.547 -100.215 81.5166 
-104.034 -100.718 81.8203 -102.823 -101.378 82.1364 -110.175 -101.196 79.5456 
-110.821 -101.771 78.906 -109.379 -100.822 80.4112 -108.356 -100.665 81.4049 
-107.088 -100.782 82.1105 -105.595 -101.134 82.4583 -104.114 -101.581 82.8082 
-103.056 -102.14 83.179 -110.851 -102.139 80.0805 -111.459 -102.747 79.4752 
-110.181 -101.708 80.8276 -109.376 -101.49 81.7211 -108.316 -101.5 82.4933 
-107.022 -101.689 82.9833 -105.605 -101.947 83.4429 -104.316 -102.313 83.9385 
-103.387 -102.953 84.2082 -111.527 -103.084 80.6447 -112.083 -103.664 79.9969 
-110.952 -102.59 81.4004 -110.337 -102.255 82.2592 -109.471 -102.135 83.0276 
[...]
CELL_DATA 2000
SCALARS Distance double
LOOKUP_TABLE default
177.317 176.497 176.705 176.25 175.54 175.807 175.321 175.555 175.058 
174.484 174.777 174.281 174.558 174.018 174.284 173.766 173.406 173.679 
173.145 173.453 172.894 173.181 172.611 172.931 172.447 172.317 172.562 
171.954 172.265 171.676 171.997 171.406 171.734 171.217 171.61 171.21 
171.274 171.453 170.789 171.046 170.412 170.732 170.12 170.475 169.935 
170.35 169.934 170.4 170.068 170.368 170.453 169.73 169.887 169.189 
169.457 168.822 169.165 168.612 169.027 168.593 169.084 168.749 169.267 
168.984 169.539 169.576 168.751 168.819 168.004 168.217 167.548 167.885 
167.356 167.739 167.312 167.75 167.419 167.926 167.668 168.208 167.995 
168.698 168.72 167.809 167.803 166.867 166.999 166.275 166.611 166.13 
166.538 166.162 166.552 166.224 166.654 166.406 166.914 166.741 167.282 
167.142 177.804 178.278 177.715 177.019 178.732 178.179 177.455 176.858 
176.068 179.153 178.617 177.874 177.265 176.437 175.837 175.016 179.546 
179.032 178.294 177.671 176.833 176.207 175.389 174.797 173.992 179.888 
179.415 178.698 178.091 177.242 176.607 175.795 175.202 174.412 173.793 
172.963 180.14 179.713 179.008 178.466 177.616 177 176.154 175.584 
174.786 174.206 173.366 172.741 171.916 180.303 179.904 179.196 178.728 
177.912 177.342 176.472 175.9 175.062 174.518 173.675 173.103 172.28 
171.718 170.99 180.387 180.019 179.326 178.903 178.145 177.623 176.769 
176.188 175.31 174.756 173.899 173.362 172.545 172.034 171.313 170.831 
170.172 180.371 180.066 179.421 179.05 178.354 177.872 177.047 176.466 
175.558 174.983 174.102 173.573 172.749 172.257 171.512 171.078 170.416 
169.992 169.337 180.093 179.367 179.578 179.211 178.542 178.835 178.489 
178.654 178.168 177.508 177.917 177.539 177.818 177.253 177.439 176.798 
176.213 176.709 176.251 176.673 176.028 176.329 175.6 175.884 175.225 
174.787 175.253 174.68 175.183 174.501 174.925 174.184 174.558 173.901 
174.284 173.737 173.536 173.824 173.155 173.546 172.84 173.292 172.596 
173.064 172.454 172.917 172.406 172.843 172.384 172.6 172.727 172.064 
172.205 171.496 171.741 171.083 171.485 170.935 171.437 170.965 171.471 
171.045 171.521 171.14 171.803 171.909 171.318 171.347 170.688 170.697 
170.052 170.193 169.669 170.008 169.585 170.04 169.661 170.159 169.83 
170.335 170.044 171.007 171.133 170.585 170.664 170.059 170.054 169.417 
169.406 168.843 168.965 168.531 168.812 168.459 168.853 168.554 169.032 
168.771 169.277 168.994 168.17 167.989 167.671 166.746 167.808 167.505 
166.645 166.204 165.16 167.745 167.394 166.566 166.12 165.068 164.548 
163.422 167.868 167.435 166.631 166.114 165.064 164.464 163.275 162.753 
161.706 168.226 167.684 166.929 166.309 165.332 164.603 163.473 162.745 
161.72 161.203 160.49 168.796 168.168 167.445 166.748 165.876 165.08 
164.109 163.231 162.32 161.537 160.893 160.363 160.001 169.412 168.786 
168.071 167.358 166.554 165.769 164.937 164.074 163.281 162.405 161.774 
161.046 160.65 160.136 159.897 169.94 169.372 168.7 168.026 167.286 
166.527 165.775 164.97 164.262 163.436 162.815 162.03 161.545 160.894 
160.55 160.068 159.835 170.399 169.881 169.296 168.684 168.047 167.324 
166.641 165.851 165.194 164.409 163.84 163.071 162.576 161.834 161.413 
160.78 160.475 160.012 159.851 167.956 166.409 167.12 166.951 164.751 
165.459 165.222 166.003 165.925 163.072 163.79 163.599 164.323 164.314 
165.136 165.353 161.455 162.152 162.101 162.829 162.948 163.709 164.045 
164.867 165.309 160.238 160.7 160.712 161.416 161.638 162.442 162.832 
163.674 164.161 164.974 165.419 159.679 159.789 159.724 160.185 160.399 
161.148 161.547 162.427 162.91 163.802 164.28 165.084 165.5 159.538 
159.455 159.282 159.441 159.563 160.059 160.445 161.184 161.693 162.539 
163.088 163.937 164.464 165.223 165.7 159.499 159.373 159.168 159.159 
159.206 159.449 159.801 160.3 160.841 161.495 162.118 162.864 163.517 
164.268 164.876 165.55 166.083 159.568 159.393 159.239 159.139 159.181 
159.255 159.572 159.873 160.411 160.88 161.53 162.114 162.823 163.48 
164.176 164.822 165.427 166.015 166.532 159.654 159.929 159.6 159.36 
160.48 160.018 159.761 159.432 159.352 161.209 160.676 160.457 160.004 
159.95 159.628 159.772 162.162 161.528 161.361 160.823 160.812 160.392 
160.567 160.269 160.606 163.35 162.633 162.479 161.842 161.858 161.366 
161.585 161.207 161.571 161.269 161.724 164.602 163.901 163.767 163.063 
163.073 162.505 162.764 162.337 162.754 162.368 162.836 162.495 163.011 
165.825 165.172 165.104 164.401 164.412 163.788 164.035 163.579 164.014 
163.617 164.071 163.677 164.135 163.81 164.319 167.027 166.414 166.409 
165.752 165.787 165.151 165.357 164.864 165.251 164.856 165.254 164.866 
165.229 164.892 165.303 165.054 165.518 168.179 167.611 167.622 167.032 
167.085 166.497 166.674 166.17 166.499 166.072 166.42 165.997 166.288 
165.909 166.236 165.966 166.371 166.171 166.597 159.978 160.727 160.279 
160.285 161.764 161.185 161.183 160.73 160.836 163.004 162.339 162.32 
161.744 161.799 161.344 161.521 164.394 163.673 163.674 162.988 163.029 
162.417 162.556 162.114 162.437 165.83 165.13 165.193 164.459 164.551 
163.808 163.953 163.313 163.603 163.168 163.611 167.14 166.54 166.654 
166.007 166.163 165.442 165.615 164.869 165.088 164.462 164.792 164.376 
164.817 168.342 167.789 167.922 167.387 167.582 167.005 167.205 166.536 
166.701 165.999 166.186 165.605 165.916 165.543 165.981 169.581 169.003 
169.153 168.624 168.855 168.348 168.589 168.023 168.2 167.546 167.686 
167.028 167.243 166.711 167.072 166.715 167.171 170.825 170.266 170.426 
169.89 170.147 169.64 169.925 169.381 169.594 168.979 169.14 168.5 
168.7 168.101 168.396 167.899 168.284 167.914 168.338 170.478 170.324 
170.074 169.41 170.192 169.924 169.224 168.96 168.209 170.035 169.755 
169.006 168.743 167.933 167.664 166.819 169.938 169.594 168.795 168.487 
167.641 167.351 166.477 166.214 165.379 169.941 169.543 168.74 168.336 
167.496 167.11 166.272 165.929 165.129 164.842 164.087 170.006 169.581 
168.805 168.362 167.555 167.092 166.286 165.851 165.082 164.702 163.945 
163.617 162.874 170.195 169.704 168.95 168.476 167.708 167.229 166.436 
165.955 165.159 164.721 163.923 163.528 162.725 162.399 161.679 170.516 
169.975 169.233 168.698 167.968 167.452 166.71 166.172 165.382 164.85 
164.043 163.554 162.752 162.318 161.583 161.27 160.698 170.859 170.333 
169.613 169.053 168.359 167.809 167.143 166.56 165.847 165.207 164.454 
163.823 163.094 162.513 161.848 161.353 160.81 160.469 160.084 171.13 
172.104 171.4 170.999 173.156 172.427 172.026 171.301 170.894 174.251 
173.513 173.134 172.377 171.967 171.209 170.786 175.389 174.641 174.282 
173.513 173.127 172.337 171.925 171.131 170.724 176.503 175.793 175.441 
174.679 174.305 173.522 173.13 172.322 171.914 171.109 170.721 177.484 
176.859 176.532 175.824 175.463 174.707 174.335 173.541 173.14 172.32 
171.917 171.123 170.769 178.36 177.793 177.513 176.876 176.566 175.862 
175.532 174.762 174.385 173.556 173.158 172.338 171.996 171.221 170.949 
179.192 178.663 178.426 177.843 177.589 176.949 176.676 175.963 175.628 
174.819 174.425 173.592 173.25 172.473 172.222 171.474 171.259 179.943 
179.478 179.271 178.749 178.522 177.946 177.7 177.07 176.775 176.045 
175.673 174.862 174.496 173.717 173.446 172.728 172.511 171.791 171.574 
180.263 180.579 180.157 179.632 180.972 180.493 179.926 179.487 178.9 
181.388 180.882 180.246 179.769 179.135 178.706 178.082 181.767 181.265 
180.589 180.076 179.386 178.921 178.249 177.839 177.162 182.143 181.635 
180.958 180.414 179.679 179.164 178.431 177.981 177.244 176.836 176.077 
182.427 181.99 181.29 180.765 179.978 179.436 178.639 178.15 177.365 
176.91 176.116 175.691 174.921 182.304 182.085 181.332 180.974 180.133 
179.662 178.802 178.321 177.501 177.034 176.224 175.761 174.981 174.566 
173.87 181.739 181.686 180.909 180.774 179.946 179.663 178.791 178.402 
177.551 177.131 176.307 175.867 175.065 174.642 173.917 173.558 172.918 
181.14 181.046 180.303 180.218 179.469 179.332 178.541 178.284 177.448 
177.105 176.277 175.899 175.099 174.705 173.955 173.589 172.912 172.599 
171.974 180.707 179.884 180.099 179.789 179.018 179.241 178.818 179.151 
178.916 177.89 178.272 177.838 178.162 177.833 178.255 178.017 176.445 
177.016 176.649 177.089 176.698 177.119 176.781 177.257 176.946 174.822 
175.481 175.155 175.752 175.355 175.861 175.449 175.948 175.593 176.115 
175.788 173.199 173.831 173.491 174.156 173.795 174.397 174.019 174.566 
174.234 174.763 174.467 174.971 174.659 171.684 172.239 171.889 172.509 
172.188 172.81 172.506 173.113 172.864 173.438 173.196 173.696 173.403 
173.863 173.552 170.302 170.781 170.429 170.981 170.678 171.265 170.992 
171.612 171.402 172.048 171.847 172.421 172.132 172.614 172.287 172.765 
172.491 169.082 169.471 169.097 169.576 169.26 169.81 169.545 170.14 
169.935 170.577 170.397 171.021 170.762 171.298 170.968 171.474 171.189 
171.728 171.524 181.104 181.426 181.014 180.401 181.381 181.266 180.765 
180.313 179.573 180.851 180.994 180.591 180.477 179.734 179.283 178.345 
180.299 180.379 180 180.07 179.391 179.17 178.168 177.794 176.769 
180.043 179.96 179.568 179.527 178.907 178.702 177.749 177.436 176.396 
176.101 175.119 179.796 179.736 179.324 179.238 178.621 178.33 177.392 
177.016 176.018 175.71 174.765 174.468 173.538 179.343 179.355 178.886 
178.914 178.289 178.082 177.123 176.723 175.699 175.369 174.458 174.162 
173.25 172.924 172.028 178.82 178.814 178.274 178.333 177.72 177.648 
176.758 176.441 175.404 175.061 174.129 173.856 172.964 172.654 171.74 
171.44 170.617 178.331 178.289 177.713 177.704 177.097 177.053 176.287 
176.064 175.123 174.781 173.839 173.531 172.64 172.347 171.451 171.154 
170.319 170.081 169.377 181.734 182.814 182.141 181.924 183.95 183.194 
182.755 182.158 181.774 184.837 184.229 183.696 182.977 182.408 181.801 
181.265 185.141 184.862 184.416 183.858 183.308 182.576 181.996 181.292 
180.797 185.151 185.005 184.712 184.402 184.004 183.468 182.988 182.247 
181.729 180.983 180.568 185.385 185.167 185.029 184.72 184.42 184.013 
183.608 183.118 182.644 181.994 181.463 180.782 180.317 185.744 185.559 
185.526 185.215 184.952 184.467 183.987 183.535 183.056 182.655 182.151 
181.608 181.034 180.424 179.89 185.962 185.867 185.814 185.659 185.393 
184.997 184.427 183.902 183.303 182.909 182.433 182.076 181.562 181.063 
180.478 179.915 179.375 186.111 186.007 185.871 185.773 185.454 185.229 
184.65 184.243 183.581 183.165 182.634 182.296 181.822 181.445 180.894 
180.426 179.848 179.36 178.846 186.168 185.957 186.011 185.817 185.382 
185.62 185.347 185.491 185.225 184.567 184.912 184.639 184.836 184.446 
184.692 184.342 183.72 184.07 183.821 184.045 183.629 183.834 183.461 
183.724 183.37 182.823 183.195 182.907 183.183 182.79 183.013 182.665 
182.908 182.622 182.821 182.501 181.758 182.201 181.89 182.223 181.846 
182.137 181.812 182.116 181.833 182.094 181.767 181.975 181.634 180.57 
181.063 180.805 181.189 180.85 181.175 180.864 181.211 180.919 181.237 
180.863 181.132 180.728 181.023 180.659 179.39 179.874 179.656 180.094 
179.791 180.164 179.845 180.222 179.928 180.278 179.909 180.177 179.746 
180.028 179.652 179.989 179.646 178.289 178.723 178.486 178.934 178.637 
179.056 178.72 179.137 178.827 179.242 178.914 179.231 178.829 179.076 
178.697 178.99 178.682 179 178.689 177.617 176.562 177.317 177.752 
175.392 176.201 176.631 177.427 177.864 174.153 175.004 175.456 176.274 
176.716 177.511 177.948 172.887 173.757 174.261 175.108 175.58 176.37 
176.828 177.611 178.073 171.659 172.499 173.006 173.897 174.407 175.242 
175.706 176.502 176.972 177.761 178.187 170.51 171.291 171.737 172.612 
173.106 174.009 174.48 175.342 175.793 176.628 177.056 177.827 178.152 
169.441 170.165 170.574 171.365 171.82 172.686 173.166 174.057 174.528 
175.403 175.852 176.671 177.053 177.764 178.062 168.463 169.133 169.544 
170.261 170.708 171.476 171.956 172.78 173.279 174.137 174.631 175.472 
175.926 176.688 177.07 177.733 178.059 167.59 168.198 168.596 169.272 
169.716 170.435 170.905 171.658 172.147 172.945 173.453 174.282 174.782 
175.584 176.031 176.755 177.128 177.77 178.081 177.873 176.911 177.345 
177.227 175.788 176.295 176.147 176.646 176.526 174.503 175.063 174.87 
175.448 175.275 175.854 175.658 173.15 173.701 173.452 174.062 173.85 
174.484 174.246 174.841 174.529 171.841 172.336 172.042 172.608 172.364 
172.996 172.746 173.362 173.036 173.608 173.26 170.588 171.035 170.693 
171.207 170.926 171.518 171.252 171.849 171.503 172.074 171.69 172.304 
171.993 169.365 169.768 169.354 169.833 169.49 170.069 169.781 170.372 
170.013 170.547 170.124 170.696 170.347 171.029 170.781 168.232 168.559 
168.096 168.489 168.092 168.613 168.31 168.899 168.567 169.091 168.68 
169.179 168.822 169.417 169.19 169.87 169.706 167.249 167.495 167.043 
167.318 166.916 167.296 166.995 167.488 167.204 167.695 167.338 167.799 
167.465 167.989 167.787 168.392 168.281 168.914 168.823 181.01 181.066 
181.384 182.017 180.972 181.366 182.003 182.336 182.89 180.755 181.186 
181.81 182.232 182.818 183.143 183.706 180.467 180.906 181.525 181.998 
182.674 183.073 183.738 184.046 184.728 180.143 180.591 181.231 181.725 
182.474 182.95 183.686 184.074 184.772 185.117 185.734 179.774 180.251 
180.908 181.439 182.197 182.738 183.419 183.891 184.454 184.947 185.488 
185.931 186.303 179.346 179.852 180.487 181.066 181.797 182.396 183.015 
183.497 183.904 184.389 184.808 185.415 185.855 186.3 186.496 178.875 
179.39 179.982 180.573 181.256 181.901 182.529 183.043 183.451 183.83 
184.193 184.686 185.171 185.733 186.106 186.424 186.492 178.394 178.902 
179.464 180.029 180.651 181.287 181.902 182.499 182.976 183.414 183.786 
184.186 184.616 185.108 185.528 185.964 186.155 186.366 186.325 181.112 
182.156 181.625 181.533 183.083 182.668 182.647 182.043 181.849 183.953 
183.583 183.679 183.158 182.997 182.291 181.936 184.988 184.554 184.741 
184.237 184.17 183.451 183.048 182.239 181.749 185.951 185.593 185.721 
185.303 185.284 184.655 184.293 183.404 182.841 181.994 181.536 186.433 
186.276 186.19 185.992 185.849 185.559 185.261 184.624 184.09 183.195 
182.665 181.851 181.474 186.535 186.469 186.223 186.102 185.773 185.72 
185.424 185.257 184.841 184.312 183.755 183.002 182.488 181.774 181.36 
186.492 186.462 186.241 186.069 185.731 185.558 185.248 185.169 184.856 
184.696 184.222 183.811 183.215 182.646 182.089 181.518 181.058 186.336 
186.376 186.269 186.164 185.989 185.729 185.491 185.184 184.892 184.643 
184.26 183.999 183.486 183.113 182.549 182.094 181.594 181.13 180.726 
180.525 180.86 180.364 179.722 181.114 180.634 179.9 179.483 178.835 
181.2 180.82 180.059 179.619 178.884 178.517 177.816 181.065 180.819 
180.137 179.757 179.012 178.578 177.825 177.429 176.625 180.883 180.658 
180.063 179.788 179.115 178.719 177.964 177.503 176.69 176.208 175.331 
180.809 180.534 179.931 179.685 179.05 178.756 178.033 177.638 176.83 
176.344 175.491 174.96 174.128 180.718 180.467 179.821 179.559 178.905 
178.641 177.94 177.626 176.849 176.448 175.621 175.15 174.346 173.855 
173.137 180.496 180.313 179.678 179.436 178.786 178.516 177.848 177.536 
176.808 176.435 175.658 175.245 174.479 174.051 173.336 172.914 172.271 
180.237 180.078 179.499 179.281 178.671 178.418 177.798 177.498 176.827 
176.45 175.722 175.304 174.581 174.169 173.483 173.078 172.429 172.045 
171.449 181.799 182.448 182.415 183.023 183.005 183.096 183.759 183.719 
184.267 183.076 183.434 184.098 184.332 184.904 184.879 185.169 182.761 
183.257 183.894 184.377 184.962 185.255 185.547 185.486 185.433 182.391 
182.878 183.489 184.009 184.602 185.072 185.463 185.645 185.669 185.518 
185.371 181.982 182.483 183.034 183.554 184.085 184.612 185.083 185.463 
185.709 185.732 185.722 185.512 185.51 181.486 181.99 182.45 182.993 
183.417 183.989 184.419 184.986 185.395 185.737 185.948 185.91 185.938 
185.748 185.808 181.043 181.472 181.899 182.373 182.786 183.286 183.689 
184.25 184.683 185.261 185.625 185.969 186.101 186.108 186.102 185.992 
186.023 180.729 181.088 181.549 181.931 182.431 182.812 183.302 183.678 
184.123 184.567 184.953 185.433 185.679 186.003 186.076 186.168 186.187 
186.152 186.194 
POINT_DATA 1002
SCALARS Distance double
LOOKUP_TABLE default
176.908 177.892 177.154 176.057 176.281 175.787 175.085 175.256 174.825 
174.564 173.994 174.205 173.766 173.464 173.274 172.843 173.174 172.603 
172.314 172.058 172.012 171.671 172.11 171.353 171.077 170.832 170.764 
170.858 170.582 171.134 170.116 169.769 169.518 169.458 169.583 169.767 
169.646 170.325 168.965 168.489 168.211 168.109 168.214 168.452 168.734 
168.759 169.536 167.849 167.201 166.958 166.901 166.93 167.116 167.439 
167.814 167.868 168.693 166.803 165.95 165.676 165.76 165.829 165.918 
166.188 166.596 167.017 178.368 177.624 178.842 178.072 179.283 176.67 
178.497 179.68 177.055 175.589 178.922 180.038 177.465 175.981 174.6 
179.289 180.342 177.888 176.377 175.029 173.609 179.512 180.571 178.225 
176.738 175.35 173.983 172.508 179.632 180.71 178.449 177.066 175.615 
174.223 172.821 171.513 179.718 180.735 178.632 177.357 175.887 174.431 
173.047 171.771 170.658 179.748 180.633 178.801 177.63 176.156 174.633 
173.246 171.958 170.809 169.784 179.902 179.087 179.116 178.307 178.207 
178.077 177.239 177.082 177.074 176.612 175.809 175.751 175.71 175.303 
174.888 174.2 174.415 174.033 173.766 173.485 173.334 172.862 173.335 
172.407 172.083 171.945 171.937 171.952 171.987 172.483 171.348 170.738 
170.432 170.434 170.53 170.657 171.259 171.668 170.71 170.009 169.414 
169.164 169.162 169.294 169.542 170.474 170.88 170.025 169.447 168.799 
168.321 168.113 168.106 168.265 168.51 167.31 167.195 165.736 167.059 
165.685 164.06 167.021 165.621 163.903 162.305 167.173 165.703 163.872 
162.054 160.763 167.562 166.057 164.24 162.313 160.795 159.916 168.148 
166.63 164.947 163.144 161.506 160.382 159.71 168.768 167.302 165.733 
164.134 162.568 161.253 160.32 159.666 169.325 168.011 166.548 165.046 
163.609 162.272 161.112 160.222 159.62 169.847 168.717 167.415 165.962 
164.576 163.337 162.121 161.007 160.197 159.739 166.184 164.46 165.025 
162.854 163.487 164.434 161.302 162.152 163.211 164.495 160.039 160.801 
161.968 163.321 164.672 159.416 159.721 160.681 161.996 163.416 164.756 
159.244 159.191 159.781 160.879 162.209 163.642 164.998 159.215 159.049 
159.382 160.246 161.404 162.746 164.168 165.467 159.349 159.157 159.34 
159.999 160.996 162.196 163.532 164.834 165.986 159.878 159.578 160.336 
160.147 160.963 159.564 160.925 161.745 160.307 159.984 161.918 162.827 
161.244 160.891 160.831 163.156 164.07 162.368 161.967 161.903 161.984 
164.478 165.26 163.669 163.186 163.144 163.219 163.308 165.78 166.437 
165.058 164.512 164.41 164.49 164.506 164.596 167.029 167.617 166.419 
165.887 165.675 165.672 165.605 165.58 165.738 168.188 168.734 167.651 
167.189 166.951 166.875 166.717 166.546 166.585 166.793 160.32 160.645 
161.221 161.694 162.38 161.216 162.946 163.691 162.326 161.859 164.385 
165.109 163.697 163.07 162.742 165.9 166.484 165.3 164.661 164.132 
163.938 167.238 167.699 166.826 166.369 165.818 165.319 165.122 168.431 
168.897 168.1 167.823 167.425 166.863 166.379 166.248 169.685 170.162 
169.345 169.123 168.823 168.354 167.844 167.51 167.462 170.954 171.361 
170.642 170.455 170.199 169.764 169.306 168.953 168.728 168.664 170.709 
169.668 170.598 169.51 170.47 168.498 169.288 170.349 168.223 167.082 
169.147 170.32 167.952 166.752 165.601 169.165 170.342 167.91 166.629 
165.438 164.35 169.239 170.441 168.016 166.742 165.49 164.321 163.167 
169.436 170.71 168.177 166.934 165.635 164.354 163.098 161.912 169.783 
171.057 168.483 167.247 165.95 164.565 163.214 161.947 160.893 171.803 
171.693 172.821 172.771 173.88 171.618 173.89 174.987 172.745 171.542 
175.051 176.134 173.91 172.729 171.506 176.197 177.181 175.079 173.929 
172.734 171.503 177.204 178.07 176.198 175.116 173.964 172.725 171.525 
178.109 178.906 177.23 176.275 175.21 173.984 172.766 171.699 178.98 
179.696 178.195 177.347 176.41 175.267 174.029 172.956 172.013 179.763 