# vtk DataFile Version 4.0
vtk output
ASCII
DATASET POLYDATA
POINTS 1002 float
-104.529 -122.869 73.0414 -105.324 -123.664 72.8107 -105.256 -122.968 72.1788 
-104.466 -122.043 72.3878 -105.19 -122.164 71.4859 -103.793 -121.88 73.2941 
-104.435 -121.07 71.7156 -105.154 -121.238 70.8732 -103.734 -120.899 72.632 
-103.201 -120.563 73.564 -104.341 -120.039 71.1133 -105.123 -120.24 70.37 
-103.638 -119.749 71.957 -103.044 -119.431 72.9196 -102.562 -118.989 73.8697 
-104.183 -118.989 70.5111 -105.108 -119.151 69.8102 -103.386 -118.614 71.2561 
-102.784 -118.194 72.2383 -102.248 -117.846 73.2828 -101.654 -117.58 74.2243 
-104.159 -117.75 69.9381 -105.156 -117.899 69.2786 -103.127 -117.502 70.5434 
-102.371 -117.116 71.4159 -101.853 -116.741 72.5987 -101.286 -116.534 73.6516 
-100.679 -116.444 74.5881 -104.271 -116.33 69.6562 -105.204 -116.62 69.0176 
-103.06 -116.187 70.0956 -101.975 -116.087 70.6274 -101.303 -115.844 71.6724 
-100.829 -115.561 72.9118 -100.329 -115.392 73.9349 -99.9136 -115.281 74.944 
-104.309 -115.042 69.5554 -105.188 -115.461 68.8786 -103.037 -114.792 69.9377 
-101.711 -114.818 70.1781 -100.781 -114.814 70.824 -100.28 -114.593 71.9822 
-99.9023 -114.336 73.1541 -99.5524 -114.17 74.205 -99.3352 -114.042 75.319 
-104.248 -113.975 69.3064 -105.141 -114.374 68.6486 -102.941 -113.62 69.673 
-101.541 -113.5 69.8519 -100.486 -113.481 70.284 -99.917 -113.323 71.2222 
-99.6004 -113.096 72.3675 -99.2903 -112.952 73.447 -99.0414 -112.87 74.5438 
-98.9504 -112.79 75.6988 -104.173 -112.997 68.9916 -105.087 -113.335 68.4421 
-102.86 -112.634 69.266 -101.478 -112.368 69.4112 -100.437 -112.167 69.8222 
-99.8379 -111.904 70.6795 -99.5304 -111.648 71.7408 -99.2774 -111.534 72.7709 
-99.0073 -111.511 73.8125 -98.8514 -111.487 74.9244 -98.8458 -111.457 76.0408 
-106.108 -123.959 72.2049 -106.035 -123.294 71.4956 -106.991 -124.174 71.56 
-106.945 -123.52 70.8051 -108.03 -124.238 70.9042 -105.958 -122.48 70.7454 
-108.104 -123.45 70.1628 -109.247 -124.103 70.2427 -106.962 -122.572 70.0459 
-105.988 -121.433 70.1425 -109.418 -123.127 69.5008 -110.541 -123.768 69.5545 
-108.244 -122.351 69.4313 -107.105 -121.365 69.4534 -106.065 -120.293 69.6409 
-110.66 -122.798 68.7183 -111.776 -123.359 68.8341 -109.501 -122.112 68.742 
-108.334 -121.227 68.8069 -107.162 -120.206 68.9049 -106.065 -119.137 69.038 
-111.834 -122.53 67.9128 -112.891 -123.061 68.0644 -110.643 -121.918 67.9331 
-109.419 -121.151 68.0505 -108.217 -120.155 68.1635 -107.009 -119.076 68.2623 
-105.982 -117.929 68.5067 -112.987 -122.155 67.2522 -113.891 -122.785 67.2863 
-111.896 -121.452 67.2913 -110.562 -120.771 67.3271 -109.252 -119.938 67.4045 
-108.004 -118.919 67.5432 -106.791 -117.867 67.7591 -105.877 -116.721 68.2243 
-114.014 -121.521 66.7824 -114.794 -122.27 66.6546 -113.161 -120.671 66.9403 
-111.886 -120.001 66.8973 -110.415 -119.402 66.8217 -109.14 -118.585 66.9549 
-107.863 -117.619 67.1707 -106.636 -116.61 67.46 -105.799 -115.506 68.0042 
-114.873 -120.722 66.4458 -115.608 -121.534 66.2366 -114.19 -119.833 66.7031 
-113.104 -119.216 66.629 -111.571 -118.833 66.3781 -110.225 -118.256 66.4528 
-109.098 -117.359 66.7644 -107.758 -116.347 66.9563 -106.524 -115.317 67.2195 
-105.743 -114.293 67.7909 -115.893 -120.248 65.9979 -115.207 -119.311 66.33 
-116.203 -119.002 65.6949 -115.351 -118.213 65.8848 -116.312 -117.872 65.1755 
-114.306 -118.643 66.341 -115.014 -117.261 65.0859 -115.946 -116.595 64.7329 
-113.941 -117.855 65.4025 -112.769 -118.373 65.8776 -114.304 -116.086 64.614 
-115.244 -115.382 64.8321 -113.219 -116.828 64.4176 -112.108 -117.54 64.8215 
-111.154 -117.987 65.7278 -113.708 -114.975 65.023 -114.584 -114.497 65.5338 
-112.654 -115.431 64.4094 -111.614 -116.064 64.3523 -110.817 -116.729 65.2444 
-110.076 -117.111 66.2348 -113.366 -113.855 65.9468 -114.044 -113.426 66.4752 
-112.417 -114.152 65.3765 -111.417 -114.433 64.9955 -110.611 -114.976 65.3679 
-109.862 -115.561 66.1537 -108.871 -115.966 66.6535 -113.033 -112.355 66.7834 
-113.525 -112.015 67.351 -112.228 -112.732 66.3514 -111.221 -113.011 66.0171 
-110.264 -113.356 65.9892 -109.365 -113.869 66.294 -108.357 -114.361 66.5702 
-107.331 -114.82 66.7995 -112.569 -110.93 67.5286 -112.982 -110.802 68.1587 
-111.903 -111.19 67.0472 -110.936 -111.521 66.7482 -109.851 -111.878 66.6182 
-108.788 -112.329 66.6586 -107.749 -112.82 66.757 -106.841 -113.275 66.8908 
-106.189 -113.775 67.2269 -111.985 -109.971 68.3785 -112.389 -109.946 68.9618 
-111.423 -110.055 67.8526 -110.576 -110.25 67.4929 -109.523 -110.518 67.2923 
-108.448 -110.89 67.2141 -107.427 -111.394 67.2493 -106.548 -111.901 67.3769 
-105.92 -112.366 67.6113 -105.481 -112.857 67.9803 -104.456 -112.104 68.7346 
-104.991 -111.585 68.5246 -103.553 -110.637 68.9979 -105.588 -111.075 68.2921 
-104.288 -109.998 68.9643 -102.615 -108.696 69.0656 -106.33 -110.522 68.0603 
-105.131 -109.381 68.7873 -103.534 -107.878 69.0058 -102.016 -106.433 68.9442 
-107.203 -109.954 67.9793 -105.97 -108.784 68.6857 -104.521 -107.226 68.9585 
-103.032 -105.632 68.9177 -101.801 -104.427 68.9634 -108.167 -109.586 68.1037 
-106.788 -108.409 68.8784 -105.397 -106.811 69.1887 -104.054 -105.154 69.1792 
-102.825 -103.834 69.1643 -101.73 -102.846 69.301 -109.225 -109.414 68.3115 
-107.753 -108.323 69.1711 -106.348 -106.691 69.5319 -105.108 -104.913 69.5376 
-103.935 -103.511 69.5932 -102.775 -102.376 69.6435 -101.763 -101.463 69.7861 
-110.215 -109.268 68.5735 -108.831 -108.247 69.3713 -107.494 -106.668 69.725 
-106.352 -104.802 69.6918 -105.234 -103.312 69.833 -104.009 -102.187 70.0714 
-102.876 -101.139 70.1578 -101.99 -100.411 70.3896 -110.94 -109.164 68.97 
-109.743 -108.099 69.6058 -108.558 -106.593 69.9088 -107.527 -104.81 69.8696 
-106.527 -103.269 70.0064 -105.353 -102.188 70.4146 -104.14 -101.238 70.6858 
-103.143 -100.365 70.8434 -102.352 -99.8699 71.2333 -111.446 -109.129 69.4618 
-110.394 -108.023 69.9677 -109.365 -106.584 70.2436 -108.42 -105.004 70.2914 
-107.505 -103.535 70.4589 -106.501 -102.387 70.875 -105.397 -101.504 71.2522 
-104.355 -100.692 71.47 -103.485 -100.021 71.7476 -102.73 -99.6624 72.249 
-103.169 -111.683 68.9922 -102.065 -109.999 68.9923 -101.717 -111.277 69.0331 
-101.259 -107.807 69.032 -100.841 -109.442 69.065 -100.602 -110.917 69.3209 
-100.897 -105.505 69.1111 -100.326 -107.15 69.3594 -100.081 -108.956 69.6497 
-99.93 -110.512 70.1364 -100.78 -103.589 69.3547 -100.023 -104.888 69.6901 
-99.6282 -106.677 70.0666 -99.5257 -108.515 70.5688 -99.5273 -110.134 71.1967 
-100.792 -102.039 69.8145 -99.9479 -103.035 70.1309 -99.3431 -104.514 70.4605 
-99.078 -106.407 70.858 -99.1489 -108.287 71.5316 -99.2755 -109.972 72.2363 
-100.977 -100.816 70.4372 -100.091 -101.635 70.7851 -99.4303 -102.77 71.1264 
-98.9846 -104.412 71.4 -98.8592 -106.405 71.9444 -99.0062 -108.269 72.7062 
-99.0686 -109.958 73.3378 -101.305 -100.073 71.2739 -100.303 -100.688 71.6067 
-99.5844 -101.525 72.0086 -99.1526 -102.753 72.331 -98.9031 -104.569 72.7957 
-98.9056 -106.511 73.4671 -98.9992 -108.258 74.0711 -98.9365 -109.939 74.5204 
-101.698 -99.7179 72.3089 -100.585 -100.115 72.5727 -99.6809 -100.701 72.9324 
-99.2039 -101.543 73.2882 -99.0016 -103.001 73.763 -98.9482 -104.869 74.3918 
-99.0367 -106.606 74.9411 -99.0619 -108.248 75.3256 -98.9338 -109.936 75.6756 
-102.476 -99.5078 73.3998 -101.318 -99.6616 73.624 -102.2 -99.4452 74.7545 
-100.993 -99.668 75.1065 -101.948 -99.5648 76.2918 -100.137 -100.065 73.931 
-100.815 -99.9293 76.7374 -101.739 -99.8866 77.9476 -99.9174 -100.154 75.4321 
-99.342 -100.66 74.2424 -100.747 -100.47 78.3556 -101.713 -100.368 79.3459 
-99.9551 -100.629 77.1044 -99.3309 -100.965 75.7621 -99.0476 -101.765 74.6639 
-100.81 -101.155 79.6633 -101.948 -101.152 80.3354 -100.006 -101.315 78.7423 
-99.473 -101.632 77.5102 -99.0977 -102.377 76.2549 -98.9732 -103.532 75.2812 
-100.957 -101.966 80.8323 -102.128 -102.073 81.3804 -100.026 -102.04 80.1368 
-99.4804 -102.348 79.2228 -99.1105 -103.102 78.0094 -98.9671 -104.204 76.8156 
-99.0283 -105.37 75.8555 -101.039 -102.695 82.1557 -102.091 -102.678 82.6489 
-100.132 -102.854 81.433 -99.5268 -103.176 80.6447 -99.0794 -103.851 79.7036 
-98.8637 -104.88 78.4731 -98.9998 -105.944 77.2553 -99.1354 -107.027 76.2435 
-101.164 -103.285 83.345 -102.118 -103.129 83.7009 -100.356 -103.647 82.6602 
-99.7859 -104.138 81.8152 -99.2968 -104.781 81.0269 -98.8962 -105.665 80.0872 
-98.8787 -106.655 78.8563 -99.0781 -107.659 77.6299 -99.0859 -108.773 76.5902 
-101.505 -104.073 84.0339 -102.398 -103.889 84.2652 -100.713 -104.478 83.5642 
-100.121 -105.059 82.832 -99.6622 -105.737 82.0399 -99.216 -106.531 81.2738 
-98.95 -107.441 80.3251 -98.9719 -108.413 79.1501 -99.0213 -109.449 77.9843 
-98.9371 -110.504 76.9566 -103.591 -99.7101 72.9534 -103.393 -99.4998 74.1446 
-104.592 -99.7751 73.6642 -104.466 -99.5887 74.9159 -105.785 -99.8008 74.3807 
-103.184 -99.5015 75.56 -105.795 -99.6657 75.7858 -106.995 -99.9694 75.2479 
-104.364 -99.7217 76.4566 -102.96 -99.7154 77.2441 -107.186 -99.7825 76.7519 
-107.973 -100.467 76.1815 -105.879 -99.7988 77.4576 -104.239 -99.9364 78.2746 
-102.787 -99.9659 78.9596 -108.287 -100.226 77.5509 -108.846 -101.151 76.839 
-107.408 -99.8176 78.3752 -105.848 -99.928 79.2387 -104.128 -100.103 79.8856 
-102.9 -100.472 80.1471 -109.152 -101.008 78.0784 -109.852 -101.746 77.2537 
-108.475 -100.358 79.0348 -107.348 -100.065 79.9645 -105.654 -100.235 80.6143 
-104.203 -100.792 80.8194 -103.184 -101.499 80.9503 -110.075 -101.744 78.6056 
-110.857 -102.272 77.7795 -109.258 -101.298 79.5553 -108.392 -100.844 80.4734 
-107.073 -100.681 81.1742 -105.544 -101.156 81.4694 -104.334 -101.926 81.5901 
-103.239 -102.414 82.0107 -111.029 -102.367 79.2306 -111.606 -102.949 78.4276 
-110.194 -102.043 80.0862 -109.295 -101.787 80.8873 -108.256 -101.527 81.5976 
-106.942 -101.625 82.1112 -105.595 -102.169 82.3736 -104.351 -102.637 82.6891 
-103.146 -102.838 83.2264 -111.78 -103.119 79.7424 -112.102 -103.795 78.9494 
-111.174 -102.666 80.5431 -110.313 -102.463 81.2567 -109.323 -102.352 81.9138 
[...]
CELL_DATA 2000
SCALARS Distance double
LOOKUP_TABLE default
176.439 175.593 175.837 175.45 174.675 174.929 174.506 174.783 174.355 
173.73 173.966 173.469 173.754 173.268 173.592 173.097 172.744 172.97 
172.37 172.633 172.055 172.405 171.88 172.247 171.736 171.703 171.922 
171.246 171.468 170.802 171.126 170.581 170.985 170.51 170.894 170.453 
170.702 170.87 170.167 170.324 169.601 169.856 169.271 169.672 169.223 
169.657 169.242 169.654 169.288 169.805 169.919 169.189 169.269 168.48 
168.655 167.987 168.347 167.86 168.335 167.927 168.399 168.019 168.496 
168.2 168.95 169.052 168.286 168.309 167.44 167.531 166.768 167.049 
166.498 166.949 166.544 167.047 166.693 167.193 166.896 167.426 167.22 
168.115 168.203 167.428 167.409 166.497 166.504 165.69 165.863 165.276 
165.63 165.233 165.696 165.389 165.882 165.62 166.133 165.937 166.493 
166.364 176.89 177.308 176.767 176.073 177.724 177.185 176.479 175.906 
175.172 178.12 177.595 176.883 176.305 175.543 174.983 174.25 178.451 
177.961 177.249 176.695 175.92 175.346 174.587 174.051 173.305 178.695 
178.243 177.546 177.041 176.294 175.727 174.946 174.38 173.604 173.066 
172.286 178.909 178.469 177.791 177.32 176.602 176.081 175.296 174.728 
173.894 173.336 172.523 172.011 171.26 179.097 178.688 178.017 177.56 
176.821 176.334 175.528 175.009 174.143 173.596 172.729 172.214 171.441 
170.999 170.327 179.158 178.824 178.149 177.751 176.988 176.514 175.68 
175.18 174.34 173.822 172.977 172.432 171.614 171.139 170.432 170.062 
169.438 179.071 178.796 178.126 177.812 177.082 176.655 175.835 175.334 
174.534 174.042 173.297 172.751 171.958 171.366 170.575 170.116 169.453 
169.144 168.568 178.771 178.009 178.199 177.829 177.204 177.426 177.017 
177.23 176.796 176.117 176.486 175.997 176.306 175.786 176.064 175.528 
174.822 175.217 174.637 175.048 174.452 174.88 174.355 174.726 174.233 
173.839 174.013 173.408 173.638 173.02 173.423 172.989 173.492 173.142 
173.512 173.069 173.152 173.234 172.667 172.667 172.048 172.171 171.75 
172.164 171.904 172.378 171.974 172.295 171.729 172.321 172.506 171.943 
172.022 171.382 171.407 170.846 171.066 170.667 171.092 170.63 171.039 
170.424 170.793 170.23 171.429 171.595 171.024 171.187 170.546 170.661 
169.996 170.155 169.566 169.858 169.304 169.651 169.063 169.426 168.926 
169.36 169.042 170.728 170.788 170.247 170.316 169.731 169.798 169.169 
169.252 168.64 168.795 168.254 168.47 167.996 168.241 167.868 168.19 
167.957 168.375 168.21 167.581 167.394 167.182 166.427 167.305 167.063 
166.382 165.957 164.899 167.362 167.044 166.382 165.961 164.927 164.289 
163.031 167.571 167.154 166.468 166.014 165.036 164.369 163.13 162.429 
161.31 167.976 167.448 166.779 166.216 165.316 164.59 163.468 162.674 
161.614 160.95 160.131 168.55 167.969 167.367 166.705 165.888 165.062 
164.044 163.176 162.216 161.446 160.648 159.996 159.356 169.153 168.6 
168.045 167.393 166.626 165.782 164.801 163.889 162.975 162.169 161.432 
160.681 160.035 159.362 158.889 169.705 169.196 168.649 168.051 167.305 
166.531 165.588 164.702 163.814 162.998 162.336 161.575 161.028 160.239 
159.784 159.108 158.888 170.209 169.728 169.181 168.612 167.896 167.187 
166.341 165.515 164.721 163.906 163.319 162.565 162.132 161.355 160.982 
160.201 159.963 159.328 159.302 167.478 166.135 166.788 166.65 164.442 
165.209 164.978 165.767 165.633 162.545 163.347 163.146 164.011 163.962 
164.795 164.845 160.862 161.495 161.361 162.209 162.309 163.197 163.401 
164.216 164.475 159.674 160.046 159.878 160.56 160.691 161.591 161.902 
162.824 163.195 164.031 164.435 158.889 159.072 158.859 159.293 159.355 
160.071 160.378 161.309 161.779 162.744 163.258 164.114 164.605 158.458 
158.464 158.294 158.505 158.57 158.985 159.27 159.947 160.478 161.38 
162.046 162.96 163.58 164.369 164.89 158.499 158.287 158.169 158.17 
158.262 158.45 158.725 159.128 159.657 160.329 161.078 161.893 162.645 
163.417 164.042 164.726 165.259 158.942 158.578 158.455 158.258 158.299 
158.301 158.508 158.742 159.202 159.713 160.438 161.131 161.925 162.623 
163.316 163.963 164.561 165.174 165.722 159.219 159.551 159.127 158.728 
160.061 159.534 159.101 158.719 158.487 160.83 160.18 159.743 159.19 
158.919 158.598 158.616 161.789 161.094 160.743 160.041 159.795 159.225 
159.264 158.976 159.327 162.843 162.134 161.88 161.183 161.027 160.34 
160.396 159.889 160.283 160.009 160.61 163.997 163.258 163.015 162.345 
162.25 161.628 161.702 161.156 161.486 161.121 161.682 161.445 162.067 
165.104 164.427 164.19 163.517 163.448 162.849 162.966 162.44 162.729 
162.321 162.785 162.512 163.064 162.856 163.406 166.046 165.481 165.332 
164.717 164.708 164.111 164.28 163.733 164.041 163.563 163.984 163.614 
164.121 163.844 164.371 164.14 164.649 166.972 166.445 166.417 165.869 
165.943 165.397 165.593 165.074 165.377 164.891 165.275 164.846 165.301 
164.947 165.444 165.145 165.635 165.369 165.83 159.718 160.661 160.113 
160.038 161.733 161.122 161.056 160.519 160.559 162.966 162.293 162.292 
161.665 161.734 161.165 161.316 164.322 163.628 163.695 163.031 163.143 
162.472 162.586 161.998 162.208 165.656 165.008 165.095 164.475 164.608 
163.939 164.015 163.332 163.461 162.924 163.214 166.911 166.312 166.414 
165.845 165.99 165.372 165.438 164.75 164.832 164.226 164.485 164.011 
164.379 168.147 167.569 167.707 167.151 167.33 166.738 166.843 166.16 
166.239 165.598 165.821 165.314 165.638 165.177 165.472 169.378 168.831 
168.999 168.453 168.651 168.085 168.24 167.59 167.701 167.032 167.214 
166.643 166.894 166.395 166.604 166.141 166.338 170.527 170.051 170.228 
169.723 169.905 169.379 169.543 168.97 169.115 168.496 168.662 168.05 
168.235 167.649 167.798 167.252 167.396 166.945 167.181 170.326 170.075 
169.902 169.239 169.746 169.56 168.815 168.667 167.894 169.551 169.261 
168.509 168.249 167.441 167.234 166.39 169.563 169.177 168.45 168.072 
167.299 166.926 166.094 165.764 164.92 169.65 169.245 168.499 168.09 
167.313 166.899 166.079 165.646 164.805 164.409 163.623 169.743 169.334 
168.582 168.152 167.359 166.929 166.103 165.667 164.825 164.396 163.592 
163.215 162.477 169.888 169.454 168.742 168.278 167.531 167.041 166.256 
165.747 164.931 164.445 163.654 163.23 162.489 162.113 161.395 170.138 
169.668 168.996 168.504 167.808 167.299 166.577 166.023 165.251 164.667 
163.89 163.363 162.646 162.195 161.522 161.096 160.446 170.489 169.997 
169.362 168.831 168.163 167.633 166.959 166.412 165.708 165.101 164.363 
163.736 163.032 162.469 161.843 161.346 160.775 160.3 159.791 170.925 
171.824 171.177 170.751 172.793 172.105 171.679 170.971 170.48 173.821 
173.099 172.674 171.941 171.479 170.726 170.282 174.882 174.155 173.751 
172.991 172.565 171.786 171.372 170.621 170.276 175.925 175.235 174.876 
174.119 173.726 172.932 172.54 171.759 171.412 170.679 170.371 176.92 
176.281 175.974 175.26 174.901 174.124 173.748 172.957 172.603 171.838 
171.51 170.776 170.464 177.889 177.286 177.03 176.358 176.041 175.299 
174.947 174.172 173.824 173.045 172.704 171.935 171.607 170.871 170.583 
178.825 178.267 178.058 177.425 177.147 176.436 176.102 175.355 175.015 
174.259 173.917 173.142 172.8 172.035 171.739 171.023 170.798 179.658 
179.173 178.981 178.426 178.167 177.522 177.193 176.484 176.139 175.417 
175.084 174.341 174.003 173.237 172.926 172.192 171.957 171.278 171.11 
180.013 180.239 179.878 179.332 180.424 180.051 179.498 179.141 178.531 
180.796 180.293 179.717 179.294 178.677 178.271 177.578 181.305 180.758 
180.121 179.583 178.909 178.425 177.706 177.264 176.534 181.54 181.158 
180.446 179.957 179.186 178.677 177.905 177.418 176.659 176.216 175.488 
181.458 181.198 180.47 180.101 179.284 178.859 178.061 177.617 176.84 
176.37 175.594 175.156 174.414 181.352 181.085 180.403 180.047 179.255 
178.862 178.077 177.702 176.945 176.529 175.734 175.27 174.475 174.058 
173.336 181.227 180.992 180.319 179.996 179.218 178.832 178.033 177.672 
176.912 176.562 175.783 175.372 174.568 174.136 173.395 173.013 172.368 
180.944 180.781 180.065 179.838 179.042 178.744 177.913 177.588 176.788 
176.474 175.7 175.359 174.586 174.206 173.477 173.099 172.453 172.104 
171.525 180.491 179.375 179.825 179.563 178.126 178.623 178.328 178.818 
178.524 176.706 177.314 177.013 177.531 177.226 177.73 177.418 175.014 
175.789 175.563 176.179 175.875 176.404 176.099 176.609 176.304 173.271 
174.059 173.936 174.665 174.433 175.027 174.727 175.269 174.978 175.503 
175.213 171.761 172.422 172.326 173.052 172.908 173.56 173.311 173.884 
173.606 174.159 173.891 174.42 174.133 170.396 170.977 170.819 171.507 
171.391 172.066 171.878 172.472 172.223 172.785 172.54 173.093 172.848 
173.358 173.083 169.055 169.584 169.359 170.012 169.891 170.582 170.442 
171.064 170.851 171.417 171.193 171.754 171.546 172.088 171.866 172.352 
172.1 167.857 168.281 168.056 168.605 168.492 169.124 169.016 169.643 
169.474 170.06 169.868 170.434 170.255 170.805 170.62 171.14 170.93 
171.405 171.179 180.822 180.898 180.519 179.737 180.733 180.503 179.74 
179.353 178.494 180.293 180.2 179.463 179.234 178.34 177.987 177.011 
179.757 179.676 178.93 178.809 177.92 177.68 176.612 176.296 175.216 
179.264 179.146 178.358 178.221 177.365 177.184 176.153 175.821 174.68 
174.39 173.401 178.732 178.658 177.857 177.675 176.821 176.648 175.719 
175.406 174.32 173.925 172.921 172.686 171.897 178.087 178.106 177.383 
177.208 176.35 176.146 175.26 175.007 174.006 173.632 172.633 172.317 
171.499 171.315 170.598 177.411 177.477 176.872 176.759 175.959 175.725 
174.845 174.585 173.647 173.322 172.358 172.042 171.2 170.973 170.227 
170.036 169.306 176.821 176.861 176.324 176.27 175.549 175.35 174.506 
174.235 173.361 173.032 172.142 171.792 170.964 170.688 169.948 169.714 
168.987 168.77 168.095 181.483 182.408 181.852 181.57 183.17 182.691 
182.379 181.814 181.372 183.723 183.312 182.915 182.46 181.973 181.45 
180.903 184.084 183.725 183.253 182.853 182.319 181.893 181.364 180.898 
180.368 184.394 184.047 183.652 183.216 182.703 182.205 181.651 181.237 
180.759 180.357 179.864 184.725 184.411 184.169 183.757 183.385 182.766 
182.182 181.565 181.005 180.613 180.144 179.797 179.271 184.892 184.701 
184.47 184.252 183.975 183.52 182.978 182.258 181.58 180.943 180.38 
179.972 179.46 179.106 178.548 184.782 184.705 184.382 184.338 184.024 
183.879 183.391 182.945 182.272 181.626 180.983 180.374 179.82 179.314 
178.767 178.355 177.828 184.582 184.511 184.184 184.133 183.81 183.745 
183.317 183.108 182.534 182.143 181.543 181.029 180.462 179.862 179.286 
178.697 178.154 177.697 177.239 184.423 184.225 184.215 184.048 184.12 
184.097 183.881 183.842 183.655 183.786 183.941 183.743 183.705 183.371 
183.36 183.086 183.012 183.4 183.235 183.423 183.036 183.021 182.554 
182.63 182.286 181.905 182.416 182.246 182.677 182.353 182.523 181.994 
182.04 181.581 181.751 181.398 180.7 181.221 181.053 181.568 181.329 
181.683 181.22 181.36 180.833 181.009 180.619 180.839 180.416 179.54 
180.029 179.874 180.378 180.181 180.618 180.24 180.488 179.954 180.159 
179.701 179.985 179.56 179.771 179.241 178.449 178.904 178.729 179.21 
179.002 179.469 179.149 179.483 179.009 179.232 178.753 179.017 178.597 
178.856 178.379 178.552 178.054 177.407 177.828 177.616 178.062 177.829 
178.288 178.008 178.402 178.025 178.297 177.864 178.096 177.693 177.93 
177.523 177.713 177.285 177.452 177.094 176.762 175.791 176.501 176.934 
174.714 175.482 175.917 176.659 177.109 173.474 174.328 174.769 175.59 
176.047 176.824 177.265 172.115 173.004 173.448 174.359 174.833 175.701 
176.151 176.938 177.304 170.838 171.657 172.092 172.994 173.473 174.401 
174.858 175.741 176.127 176.903 177.19 169.713 170.463 170.901 171.711 
172.179 173.04 173.48 174.371 174.771 175.646 175.993 176.762 177.032 
168.67 169.391 169.831 170.59 171.047 171.826 172.247 173.04 173.431 
174.271 174.668 175.516 175.867 176.614 176.868 167.712 168.389 168.813 
169.534 169.963 170.717 171.14 171.891 172.287 173.035 173.437 174.231 
174.644 175.433 175.77 176.458 176.684 166.86 167.482 167.891 168.545 
168.942 169.64 170.056 170.803 171.236 171.97 172.374 173.094 173.496 
174.252 174.652 175.381 175.707 176.323 176.565 176.387 175.467 175.904 
175.802 174.347 174.835 174.639 175.169 174.97 173.184 173.635 173.374 
173.89 173.653 174.204 173.939 172.083 172.492 172.212 172.643 172.389 
172.883 172.636 173.142 172.834 170.916 171.36 171.054 171.498 171.204 
171.664 171.386 171.865 171.545 172.009 171.644 169.7 170.127 169.77 
170.255 169.905 170.41 170.051 170.567 170.192 170.692 170.305 170.793 
170.463 168.596 168.937 168.549 168.956 168.576 169.041 168.643 169.147 
168.742 169.271 168.888 169.422 169.096 169.648 169.41 167.568 167.876 
167.461 167.793 167.38 167.757 167.346 167.768 167.372 167.842 167.485 
168.003 167.698 168.257 168.012 168.612 168.424 166.54 166.84 166.394 
166.708 166.247 166.587 166.138 166.521 166.113 166.542 166.189 166.663 
166.37 166.888 166.658 167.223 167.055 167.656 167.545 179.75 179.813 
180.13 180.804 179.74 180.123 180.787 181.151 181.821 179.579 180 
180.689 181.093 181.812 182.177 182.879 179.385 179.829 180.534 180.972 
181.703 182.139 182.915 183.291 183.976 179.114 179.596 180.272 180.766 
181.438 181.936 182.643 183.186 183.911 184.326 184.814 178.741 179.246 
179.883 180.427 181.085 181.602 182.218 182.76 183.397 184.005 184.546 
184.939 185.142 178.329 178.822 179.426 179.982 180.674 181.233 181.891 
182.359 182.925 183.421 183.937 184.454 184.757 185.051 185.065 177.913 
178.396 178.966 179.502 180.157 180.773 181.461 182.021 182.598 183.035 
183.493 183.9 184.226 184.566 184.665 184.87 184.836 177.486 177.969 
178.511 179.025 179.598 180.194 180.807 181.458 182.036 182.616 183.081 
183.521 183.839 184.137 184.263 184.451 184.436 184.616 184.613 179.891 
181.01 180.478 180.483 182.063 181.6 181.652 181.068 180.949 183.097 
182.637 182.743 182.221 182.149 181.46 181.168 184.127 183.66 183.757 
183.3 183.364 182.735 182.55 181.672 181.287 184.88 184.543 184.518 
184.198 184.307 183.93 183.917 183.166 182.815 181.814 181.355 185.156 
185.02 184.864 184.699 184.692 184.62 184.655 184.33 183.994 183.23 
182.606 181.731 181.176 185.112 185.113 184.982 184.87 184.785 184.772 
184.765 184.72 184.431 184.03 183.353 182.693 181.984 181.341 180.819 
184.988 185.069 185.112 185.025 185.014 184.886 184.866 184.758 184.56 
184.278 183.756 183.233 182.593 182.005 181.489 180.946 180.561 184.864 
185.019 185.24 185.251 185.376 185.225 185.22 184.989 184.837 184.517 
184.176 183.698 183.232 182.651 182.208 181.633 181.267 180.738 180.421 
179.27 179.811 179.185 178.496 180.245 179.692 178.952 178.382 177.674 
180.385 179.974 179.215 178.746 177.937 177.434 176.596 180.377 179.979 
179.194 178.842 178.006 177.57 176.659 176.187 175.313 180.434 179.982 
179.166 178.775 177.992 177.576 176.725 176.243 175.432 174.974 174.308 
180.421 180.056 179.274 178.836 178.1 177.647 176.925 176.42 175.713 
175.207 174.593 174.152 173.601 180.224 179.992 179.303 178.951 178.24 
177.827 177.152 176.703 176.057 175.574 174.943 174.469 173.847 173.419 
172.786 180.017 179.807 179.188 178.917 178.244 177.918 177.243 176.889 
176.23 175.849 175.182 174.761 174.073 173.633 172.954 172.534 171.903 
179.897 179.67 179.083 178.812 178.176 177.88 177.227 176.915 176.252 
175.922 175.242 174.885 174.19 173.8 173.124 172.719 172.105 171.709 
171.175 181.545 181.808 181.963 182.457 181.933 182.154 182.705 182.854 
183.284 182.079 182.288 182.911 183.109 183.682 183.709 184.005 182.179 
182.458 183.123 183.368 184.053 184.17 184.611 184.42 184.496 181.916 
182.408 183.063 183.499 184.192 184.501 185.024 185.018 185.165 184.834 
184.769 181.393 181.966 182.622 183.227 183.892 184.421 184.946 185.24 
185.478 185.409 185.393 185.082 185.022 181.006 181.472 182.135 182.711 
183.377 183.953 184.472 184.936 185.257 185.505 185.636 185.592 185.571 
185.311 185.205 180.771 181.164 181.752 182.256 182.864 183.409 183.912 
184.399 184.754 185.148 185.39 185.629 185.718 185.704 185.596 185.357 
185.121 180.485 180.882 181.348 181.824 182.318 182.855 183.326 183.839 
184.223 184.652 184.926 185.269 185.413 185.622 185.58 185.568 185.352 
185.144 184.876 
POINT_DATA 1002
SCALARS Distance double
LOOKUP_TABLE default
176.082 177.009 176.228 175.203 175.35 175.067 174.236 174.44 174.079 
173.922 173.223 173.529 172.95 172.779 172.592 172.16 172.546 171.729 
171.49 171.374 171.244 171.063 171.504 170.518 170.161 170.094 170.066 
170.053 170.048 170.557 169.394 168.892 168.762 168.815 168.846 168.968 
169.156 169.705 168.367 167.681 167.39 167.431 167.537 167.677 167.956 
168.297 168.849 167.407 166.548 166.079 166.028 166.177 166.366 166.648 
167.057 167.465 168.034 166.525 165.561 164.965 164.789 164.887 165.107 
165.39 165.778 166.259 177.433 176.642 177.85 177.067 178.257 175.73 
177.464 178.64 176.12 174.783 177.782 178.933 176.503 175.139 173.843 
178.017 179.137 176.841 175.541 174.161 172.81 178.256 179.336 177.103 
175.864 174.484 173.04 171.722 178.474 179.485 177.324 176.038 174.683 
173.266 171.882 170.722 178.517 179.473 177.46 176.183 174.822 173.519 
172.149 170.814 169.762 178.401 179.341 177.462 176.326 174.998 173.786 
172.589 171.138 169.774 168.824 178.573 177.627 177.831 176.823 176.961 
176.604 175.677 175.715 175.493 175.264 174.261 174.492 173.977 173.888 
173.918 173.29 173.739 172.678 172.406 172.675 172.835 172.678 173.042 
172.039 171.433 171.416 171.628 171.464 171.801 172.123 171.355 170.755 
170.354 170.236 170.03 169.78 170.865 171.301 170.409 169.878 169.358 
168.988 168.69 168.472 168.53 170.201 170.683 169.679 169.11 168.523 
168.043 167.736 167.565 167.572 167.773 166.937 166.84 165.507 166.781 
165.528 163.666 166.79 165.579 163.678 161.753 166.94 165.678 163.856 
161.86 160.321 167.367 166.035 164.24 162.311 160.673 159.403 168.021 
166.718 164.915 162.982 161.359 159.916 158.752 168.674 167.446 165.717 
163.776 162.17 160.772 159.421 158.497 169.239 168.038 166.434 164.617 
163.053 161.788 160.527 159.408 158.763 169.746 168.562 167.092 165.498 
164.05 162.856 161.753 160.669 159.814 159.331 165.964 164.158 164.815 
162.221 163.063 164.012 160.517 161.349 162.52 163.676 159.304 159.819 
160.911 162.282 163.634 158.515 158.763 159.49 160.74 162.32 163.826 
158.128 158.243 158.709 159.617 161.084 162.74 164.178 158.24 158.143 
158.404 159.066 160.294 161.863 163.339 164.615 158.734 158.397 158.362 
158.761 159.784 161.242 162.675 163.939 165.135 159.595 159.057 160.005 
159.544 160.638 158.707 160.363 161.493 159.326 158.729 161.431 162.447 
160.438 159.625 159.441 162.528 163.557 161.685 160.962 160.605 160.808 
163.692 164.746 162.827 162.242 161.906 161.953 162.29 164.846 165.722 
164.036 163.483 163.178 163.11 163.297 163.608 165.879 166.54 165.273 
164.818 164.542 164.407 164.441 164.631 164.879 166.917 167.461 166.457 
166.101 165.864 165.728 165.694 165.774 165.931 166.099 160.231 160.517 
161.238 161.615 162.35 161.04 162.919 163.633 162.346 161.821 164.337 
164.999 163.833 163.256 162.686 165.69 166.282 165.261 164.735 164.061 
163.641 166.968 167.487 166.586 166.126 165.459 164.979 164.837 168.255 
168.701 167.902 167.506 166.901 166.36 166.127 165.951 169.54 169.896 
169.204 168.849 168.367 167.839 167.447 167.11 166.754 170.719 170.969 
170.427 170.086 169.697 169.283 168.867 168.394 167.893 167.544 170.55 
169.411 170.266 169.007 169.968 168.031 168.81 169.879 167.713 166.581 
168.846 169.967 167.697 166.488 165.215 168.924 170.062 167.731 166.515 
165.237 163.965 169.018 170.151 167.805 166.544 165.252 163.989 162.825 
169.197 170.319 168.013 166.778 165.447 164.097 162.879 161.764 169.491 
170.606 168.303 167.11 165.846 164.461 163.116 161.945 160.858 171.543 
171.441 172.489 172.388 173.505 171.211 173.409 174.553 172.228 171.002 
174.507 175.588 173.34 172.132 170.986 175.612 176.578 174.513 173.328 
172.164 171.088 176.657 177.529 175.658 174.536 173.384 172.265 171.181 
177.675 178.465 176.762 175.707 174.602 173.49 172.361 171.282 178.663 
179.352 177.84 176.843 175.761 174.688 173.577 172.464 171.471 179.507 