# vtk DataFile Version 4.0
vtk output
ASCII
DATASET POLYDATA
POINTS 1002 float
-111.744 -124.37 76.9642 -112.681 -125.059 76.2803 -112.084 -124.842 75.7066 
-111.007 -124.087 76.3473 -111.467 -124.404 75.0524 -110.812 -123.529 77.7186 
-110.309 -123.56 75.6511 -110.818 -123.748 74.3675 -110.06 -123.06 77.1293 
-109.982 -122.449 78.4536 -109.698 -122.741 74.9636 -110.255 -122.795 73.7799 
-109.445 -122.29 76.4582 -109.357 -121.695 77.9269 -109.267 -121.14 79.1469 
-109.139 -121.636 74.4535 -109.776 -121.581 73.3643 -108.769 -121.337 75.7795 
-108.728 -120.712 77.2462 -108.585 -120.211 78.6285 -108.423 -119.822 79.9092 
-108.497 -120.437 74.062 -109.121 -120.427 72.9121 -107.893 -120.371 75.2688 
-107.738 -119.875 76.5168 -107.717 -119.284 77.9046 -107.491 -118.942 79.4084 
-107.429 -118.622 80.7454 -107.741 -119.385 73.4908 -108.274 -119.488 72.329 
-107.069 -119.389 74.7936 -106.63 -119.167 75.9844 -106.61 -118.627 77.2114 
-106.554 -118.158 78.7675 -106.453 -117.821 80.3068 -106.641 -117.409 81.4149 
-107.037 -118.426 72.8507 -107.589 -118.519 71.9146 -106.46 -118.358 74.114 
-105.906 -118.225 75.4657 -105.662 -117.865 76.7429 -105.626 -117.427 78.2066 
-105.582 -117.047 79.8004 -105.725 -116.616 81.0213 -106.11 -116.133 81.834 
-106.514 -117.377 72.4795 -107.184 -117.381 71.7878 -105.92 -117.306 73.4586 
-105.404 -117.12 74.76 -105.04 -116.789 76.2138 -104.814 -116.463 77.7151 
-104.655 -116.216 79.2611 -104.716 -115.872 80.5797 -105.093 -115.388 81.4847 
-105.587 -114.932 82.1936 -106.102 -116.271 72.3095 -106.845 -116.241 71.7043 
-105.394 -116.254 73.0661 -104.838 -116.096 74.1158 -104.494 -115.75 75.5241 
-104.208 -115.411 77.0926 -103.868 -115.27 78.6147 -103.704 -115.119 79.9831 
-103.955 -114.739 81.0677 -104.485 -114.266 81.8886 -105.033 -113.899 82.5978 
-113.331 -125.567 75.321 -112.831 -125.155 74.6853 -114.086 -125.863 74.2257 
-113.622 -125.26 73.4666 -114.777 -126.023 72.7774 -112.261 -124.542 74.0026 
-114.279 -125.368 71.9343 -115.451 -126.182 71.2097 -113.005 -124.571 72.732 
-111.547 -123.784 73.3125 -114.97 -125.381 70.5845 -116.346 -125.955 70.1239 
-113.59 -124.647 71.2644 -112.148 -123.813 72.04 -110.886 -122.766 72.7315 
-115.931 -124.775 69.8265 -117.408 -125.051 69.4708 -114.325 -124.372 70.1712 
-112.687 -123.769 70.6868 -111.363 -122.804 71.4711 -110.292 -121.579 72.2652 
-116.936 -123.775 69.1877 -118.31 -124.065 68.7537 -115.309 -123.509 69.4963 
-113.492 -123.216 69.6952 -111.918 -122.621 70.1915 -110.713 -121.636 71.0175 
-109.513 -120.506 71.7553 -117.687 -123.029 68.3578 -118.967 -123.388 67.9922 
-116.194 -122.661 68.7139 -114.434 -122.382 68.926 -112.698 -122.017 69.1853 
-111.299 -121.368 69.8233 -110.019 -120.466 70.6467 -108.714 -119.469 71.3292 
-118.22 -122.394 67.622 -119.514 -122.677 67.42 -116.808 -122.06 67.8391 
-115.214 -121.764 68.0993 -113.484 -121.406 68.3754 -111.953 -120.849 68.8335 
-110.69 -120.086 69.6254 -109.431 -119.183 70.4928 -108.213 -118.241 71.2003 
-118.659 -121.551 67.1083 -120.011 -121.773 67.0141 -117.246 -121.355 67.1148 
-115.809 -121.202 67.2818 -114.208 -120.924 67.6382 -112.572 -120.387 68.041 
-111.269 -119.628 68.6817 -110.192 -118.729 69.645 -109.043 -117.791 70.5592 
-107.884 -116.941 71.2099 -119.549 -120.669 66.7119 -117.967 -120.477 66.5456 
-118.799 -119.66 66.1802 -117.129 -119.562 65.7155 -117.905 -118.821 65.4496 
-116.5 -120.435 66.4388 -116.343 -118.671 65.0929 -117.041 -117.83 65.0956 
-115.77 -119.481 65.825 -115.054 -120.311 66.805 -115.631 -117.394 65.4022 
-116.255 -116.481 65.6704 -115.025 -118.219 65.7899 -114.25 -119.069 66.5792 
-113.335 -119.853 67.3424 -114.962 -115.802 66.4712 -115.627 -115.018 66.784 
-114.179 -116.624 66.4819 -113.313 -117.479 66.7765 -112.44 -118.38 67.2454 
-111.745 -119.106 67.8907 -114.419 -114.303 67.4915 -115.147 -113.696 67.7922 
-113.454 -115.044 67.3706 -112.477 -115.864 67.406 -111.705 -116.743 67.6269 
-111.118 -117.544 68.1282 -110.656 -118.161 68.8705 -113.862 -113.003 68.378 
-114.538 -112.51 68.7132 -112.939 -113.608 68.2009 -111.969 -114.326 68.2522 
-111.261 -115.098 68.5277 -110.704 -115.852 68.942 -110.141 -116.51 69.4496 
-109.601 -117.125 70.0228 -113.109 -111.723 69.3386 -113.702 -111.311 69.6339 
-112.331 -112.189 69.1256 -111.452 -112.767 69.1036 -110.759 -113.418 69.3686 
-110.169 -114.106 69.7679 -109.451 -114.821 70.0683 -108.796 -115.516 70.363 
-108.316 -116.216 70.7789 -112.321 -110.315 70.1194 -112.886 -110.005 70.3374 
-111.594 -110.676 69.9421 -110.687 -111.165 69.7928 -109.877 -111.767 69.7872 
-109.24 -112.433 70.0009 -108.49 -113.206 70.2214 -107.725 -114.039 70.375 
-107.279 -114.81 70.7015 -107.059 -115.533 71.2178 -105.912 -115.179 71.8653 
-105.967 -114.43 71.2112 -104.948 -114.003 72.0729 -106.1 -113.622 70.6074 
-105.041 -113.131 71.427 -104.323 -112.499 72.5698 -106.606 -112.661 70.2771 
-105.332 -112.137 70.9319 -104.625 -111.412 72.1405 -104.05 -110.691 73.2969 
-107.377 -111.646 70.0715 -105.921 -110.99 70.5739 -105.119 -110.238 71.7946 
-104.408 -109.49 72.9307 -103.698 -108.93 73.9071 -108.073 -110.759 69.9073 
-106.513 -109.861 70.1955 -105.661 -109.002 71.2974 -104.892 -108.242 72.464 
-103.936 -107.684 73.3492 -103.197 -107.268 74.3829 -108.928 -109.978 69.996 
-107.185 -108.848 70.043 -106.113 -107.83 70.7406 -105.394 -106.978 71.8235 
-104.392 -106.359 72.7084 -103.451 -105.883 73.7228 -102.902 -105.554 74.918 
-110.101 -109.321 70.2366 -108.41 -107.959 70.214 -106.965 -106.807 70.4989 
-106.012 -105.877 71.295 -105.086 -105.157 72.1535 -104.087 -104.613 73.1283 
-103.391 -104.249 74.3291 -102.963 -104.125 75.5024 -111.169 -108.896 70.4063 
-109.888 -107.352 70.3971 -108.447 -106.061 70.5068 -107.135 -105.099 71.0552 
-106.067 -104.314 71.8164 -105.097 -103.7 72.7236 -104.32 -103.348 73.8609 
-103.793 -103.262 75.0268 -103.333 -103.334 76.1337 -111.908 -108.661 70.5768 
-111.01 -107.096 70.5599 -109.937 -105.708 70.615 -108.631 -104.698 71.0446 
-107.378 -103.863 71.6925 -106.34 -103.122 72.4533 -105.516 -102.706 73.4791 
-104.912 -102.675 74.6453 -104.419 -102.819 75.7561 -103.912 -102.957 76.8578 
-105.118 -115.156 72.6101 -104.233 -113.833 73.0248 -104.396 -115.074 73.5136 
-103.787 -112.134 73.6905 -103.687 -113.616 74.1806 -103.968 -114.811 74.7676 
-103.522 -110.244 74.4343 -103.36 -111.791 75.0173 -103.406 -113.284 75.6445 
-103.736 -114.429 76.3527 -103.063 -108.513 75.0378 -102.94 -109.899 75.7026 
-102.943 -111.487 76.4255 -103.111 -113.008 77.179 -103.376 -114.234 77.9361 
-102.643 -106.85 75.5884 -102.413 -108.235 76.2149 -102.335 -109.708 76.932 
-102.53 -111.351 77.7817 -102.737 -112.93 78.621 -103.024 -114.179 79.3781 
-102.492 -105.199 76.1808 -102.144 -106.616 76.8295 -101.932 -108.119 77.5205 
-102.058 -109.657 78.4011 -102.379 -111.282 79.3151 -102.625 -112.775 80.0775 
-103.087 -113.908 80.6709 -102.593 -103.964 76.8437 -102.097 -105.046 77.6148 
-101.861 -106.511 78.3862 -101.873 -108.079 79.2647 -102.147 -109.608 80.194 
-102.503 -111.093 80.9293 -102.895 -112.416 81.4247 -103.563 -113.452 81.7341 
-102.998 -103.312 77.6006 -102.282 -103.924 78.458 -101.972 -105.021 79.2954 
-101.948 -106.538 80.1303 -102.051 -108.125 81.017 -102.332 -109.564 81.7627 
-102.789 -110.892 82.2197 -103.391 -112.091 82.4645 -104.169 -113.08 82.5715 
-104.041 -102.808 78.1421 -103.094 -103.209 79.0466 -104.4 -102.699 79.4642 
-103.601 -103.301 80.3711 -105.045 -102.81 80.5441 -102.464 -103.854 79.9449 
-104.426 -103.617 81.4071 -105.73 -102.992 81.6321 -103.155 -104.114 81.1408 
-102.31 -105.045 80.7313 -105.171 -103.812 82.5954 -106.298 -102.996 83.0083 
-104.063 -104.544 82.1848 -103.029 -105.398 81.8722 -102.299 -106.68 81.5594 
-105.876 -103.895 83.9101 -107.023 -103.137 84.2328 -104.85 -104.805 83.4547 
-103.867 -105.768 83.0418 -102.9 -106.959 82.7477 -102.348 -108.281 82.389 
-106.863 -104.291 84.9128 -107.981 -103.636 85.116 -105.736 -105.124 84.6152 
-104.733 -106.024 84.2666 -103.792 -107.127 83.8869 -103.022 -108.429 83.4558 
-102.742 -109.68 82.9256 -107.896 -104.826 85.8331 -108.836 -104.151 86.0193 
-106.825 -105.639 85.5863 -105.731 -106.45 85.2931 -104.863 -107.363 84.9025 
-104.163 -108.564 84.3506 -103.647 -109.849 83.7635 -103.437 -111 83.1675 
-108.707 -105.223 86.795 -109.55 -104.6 86.9095 -107.818 -106.038 86.5818 
-106.763 -106.931 86.2864 -105.871 -107.842 85.8864 -105.331 -108.898 85.2546 
-104.874 -110.097 84.5129 -104.453 -111.212 83.8875 -104.228 -112.174 83.2733 
-109.531 -105.713 87.4888 -110.368 -105.216 87.5229 -108.752 -106.419 87.3321 
-107.803 -107.332 87.0933 -106.818 -108.351 86.8135 -106.218 -109.387 86.2901 
-105.925 -110.431 85.4413 -105.575 -111.436 84.6202 -105.221 -112.329 83.9729 
-105.054 -113.127 83.305 -104.91 -102.456 76.9465 -105.137 -102.135 78.246 
-105.794 -101.596 77.0347 -106.016 -101.174 78.3364 -106.605 -100.695 77.0509 
-105.577 -101.929 79.4588 -106.985 -100.55 78.4651 -107.915 -100.391 77.0684 
-106.553 -101.099 79.5398 -106.242 -102.054 80.5322 -108.737 -100.517 78.6766 
-109.897 -100.5 77.2245 -107.837 -100.737 79.8772 -107.373 -101.375 80.7856 
-106.898 -102.227 81.865 -110.981 -100.346 78.8834 -111.852 -100.389 77.4987 
-109.839 -100.525 80.2772 -108.878 -100.951 81.2844 -108.183 -101.627 82.2442 
-107.528 -102.335 83.3496 -112.784 -99.9533 79.0076 -113.252 -100.322 77.7671 
-111.91 -100.052 80.4338 -110.782 -100.506 81.5995 -109.781 -101.215 82.5377 
-108.987 -101.978 83.5564 -108.365 -102.725 84.4722 -113.972 -100.115 79.0669 
-114.237 -100.808 77.9581 -113.449 -99.9359 80.3947 -112.566 -100.298 81.61 
-111.553 -101.01 82.5788 -110.675 -101.828 83.5861 -109.924 -102.553 84.6132 
-109.289 -103.282 85.4063 -114.916 -100.894 79.0726 -115.094 -101.641 78.0727 
-114.623 -100.497 80.2943 -114.049 -100.641 81.542 -113.219 -101.204 82.5739 
-112.39 -101.899 83.5534 -111.638 -102.506 84.6703 -110.847 -103.067 85.6668 
-110.089 -103.764 86.378 -115.803 -101.79 79.0451 -115.925 -102.434 78.1488 
-115.653 -101.306 80.1548 -115.328 -101.202 81.442 -114.71 -101.543 82.6395 
[...]
CELL_DATA 2000
SCALARS Distance double
LOOKUP_TABLE default
183.311 182.45 182.762 182.489 181.405 181.793 181.493 181.877 181.6 
180.218 180.659 180.341 180.788 180.497 180.925 180.625 178.945 179.411 
179.057 179.546 179.215 179.719 179.391 179.87 179.554 177.606 178.095 
177.703 178.201 177.812 178.337 177.97 178.52 178.192 178.747 178.477 
176.217 176.715 176.325 176.826 176.435 176.923 176.552 177.074 176.78 
177.349 177.127 177.699 177.493 174.891 175.334 174.958 175.452 175.099 
175.581 175.236 175.719 175.452 175.993 175.819 176.385 176.218 176.753 
176.547 173.727 174.078 173.68 174.117 173.762 174.25 173.913 174.418 
174.133 174.685 174.49 175.084 174.916 175.484 175.28 175.807 175.592 
172.679 172.973 172.533 172.888 172.492 172.928 172.587 173.085 172.803 
173.347 173.132 173.723 173.547 174.146 173.958 174.524 174.329 174.87 
174.708 183.678 183.952 183.513 182.834 184.035 183.693 182.991 182.571 
181.799 183.953 183.661 182.961 182.633 181.853 181.439 180.605 183.896 
183.564 182.837 182.526 181.748 181.403 180.559 180.175 179.322 183.797 
183.501 182.726 182.394 181.567 181.233 180.382 180.054 179.198 178.85 
177.985 183.521 183.312 182.525 182.235 181.356 181.02 180.126 179.823 
178.975 178.678 177.816 177.471 176.595 183.187 182.988 182.218 181.964 
181.089 180.77 179.847 179.538 178.68 178.421 177.6 177.293 176.434 
176.081 175.261 182.854 182.655 181.876 181.639 180.796 180.501 179.603 
179.268 178.391 178.111 177.314 177.062 176.271 175.95 175.15 174.814 
174.093 182.446 182.271 181.45 181.255 180.429 180.209 179.375 179.065 
178.19 177.851 177.025 176.767 176.028 175.783 175.049 174.738 174.012 
173.704 173.043 181.923 180.634 181.134 180.837 179.228 179.741 179.445 
180.04 179.827 177.865 178.342 178.07 178.66 178.514 179.086 178.854 
176.617 177.048 176.781 177.325 177.145 177.743 177.494 178.033 177.679 
175.538 175.887 175.568 176.03 175.72 176.29 175.955 176.561 176.203 
176.782 176.468 174.642 174.892 174.499 174.827 174.423 174.854 174.496 
175.027 174.748 175.318 175.102 175.672 175.49 173.822 174.025 173.579 
173.804 173.378 173.67 173.361 173.757 173.576 174.036 173.892 174.387 
174.224 174.756 174.561 172.923 173.155 172.661 172.881 172.404 172.676 
172.321 172.714 172.482 172.949 172.71 173.193 172.907 173.444 173.175 
173.76 173.523 171.877 172.158 171.605 171.876 171.293 171.601 171.072 
171.519 171.095 171.666 171.253 171.831 171.385 171.978 171.608 172.269 
172.028 172.698 172.526 171.817 171.204 171.165 170.509 170.66 170.497 
169.762 169.814 169.238 170.34 169.986 169.145 169.084 168.505 168.608 
168.133 170.166 169.699 168.723 168.522 167.892 167.936 167.45 167.543 
167.066 170.018 169.5 168.389 168.078 167.312 167.327 166.782 166.861 
166.286 166.397 165.88 170.048 169.417 168.247 167.736 166.803 166.69 
166.061 166.139 165.508 165.576 164.953 165.146 164.709 170.346 169.63 
168.51 167.757 166.726 166.283 165.573 165.464 164.879 164.843 164.254 
164.296 163.878 164.098 163.891 170.724 170.048 169.032 168.21 167.197 
166.466 165.703 165.254 164.722 164.455 164.007 163.842 163.551 163.545 
163.484 163.611 163.681 171.05 170.45 169.543 168.802 167.89 167.107 
166.367 165.694 165.17 164.647 164.264 163.891 163.681 163.506 163.539 
163.523 163.721 163.752 163.995 171.937 170.692 171.467 171.77 169.455 
170.213 170.543 171.325 171.692 168.343 169.034 169.383 170.134 170.548 
171.324 171.784 167.267 167.954 168.305 169.043 169.505 170.26 170.767 
171.516 172.038 166.128 166.847 167.168 167.939 168.389 169.217 169.755 
170.552 171.097 171.834 172.384 165.028 165.714 166.036 166.772 167.168 
168.014 168.561 169.475 170.082 170.907 171.481 172.22 172.791 164.187 
164.712 165.074 165.712 166.134 166.855 167.425 168.285 169.002 169.884 
170.567 171.338 171.937 172.651 173.218 163.857 164.082 164.423 164.89 
165.381 165.987 166.623 167.34 168.12 168.92 169.714 170.478 171.156 
171.844 172.436 173.097 173.641 164.085 164.018 164.286 164.466 164.945 
165.393 166.075 166.698 167.496 168.201 169.007 169.72 170.445 171.118 
171.752 172.383 172.96 173.558 174.083 164.436 165.121 164.662 164.578 
166.048 165.485 165.4 164.952 165.139 167.135 166.553 166.526 165.936 
166.091 165.742 166.229 168.22 167.697 167.76 167.171 167.327 166.838 
167.267 167.007 167.651 169.32 168.804 168.946 168.424 168.631 168.124 
168.481 168.113 168.665 168.462 169.114 170.597 170.013 170.212 169.662 
169.921 169.414 169.749 169.324 169.777 169.487 170.059 169.89 170.508 
171.948 171.383 171.625 171.038 171.309 170.742 171.072 170.587 171.014 
170.63 171.153 170.874 171.456 171.26 171.832 173.173 172.696 172.957 
172.452 172.722 172.164 172.471 171.945 172.365 171.918 172.429 172.048 
172.591 172.279 172.812 172.562 173.06 174.341 173.875 174.145 173.705 
173.995 173.517 173.823 173.335 173.732 173.288 173.765 173.353 173.834 
173.452 173.909 173.581 174.018 173.747 174.173 164.557 164.81 164.862 
165.2 164.831 164.999 165.401 165.55 166.034 165.148 165.096 165.558 
165.695 166.269 166.459 167.055 166.251 165.824 166.317 166.102 166.719 
166.749 167.421 167.538 168.14 167.663 167.19 167.658 167.212 167.741 
167.463 168.094 168.022 168.661 168.663 169.259 168.788 168.464 168.865 
168.532 168.949 168.604 169.089 168.858 169.452 169.328 169.949 169.878 
170.523 169.773 169.444 169.818 169.564 169.991 169.709 170.16 169.885 
170.442 170.241 170.873 170.705 171.331 171.221 171.859 170.852 170.455 
170.839 170.531 171.037 170.751 171.292 170.983 171.568 171.303 171.953 
171.725 172.345 172.12 172.686 172.536 173.102 171.945 171.558 171.935 
171.612 172.13 171.862 172.452 172.167 172.759 172.469 173.078 172.827 
173.43 173.176 173.712 173.448 173.957 173.761 174.298 170.961 170.453 
170.295 169.477 170.177 169.861 169.013 168.787 167.941 170.141 169.717 
168.881 168.492 167.673 167.349 166.557 170.179 169.745 168.932 168.491 
167.682 167.253 166.458 166.087 165.373 170.271 169.807 168.997 168.555 
167.73 167.296 166.449 166.04 165.26 164.965 164.378 170.529 169.993 
169.212 168.679 167.86 167.352 166.477 166.008 165.191 164.853 164.277 
164.099 163.774 170.915 170.361 169.653 169.041 168.294 167.646 166.835 
166.174 165.379 164.865 164.345 164.096 163.908 163.765 163.706 171.335 
170.804 170.172 169.575 168.94 168.272 167.618 166.829 166.124 165.335 
164.805 164.328 164.199 164.028 164.109 163.929 163.961 171.805 171.276 
170.709 170.136 169.598 168.997 168.517 167.806 167.275 166.383 165.832 
165.043 164.786 164.419 164.515 164.376 164.503 164.267 164.269 171.754 
172.805 171.949 171.315 173.92 173.064 172.487 171.593 171.047 175.08 
174.223 173.69 172.809 172.295 171.427 170.98 176.29 175.429 174.928 
174.045 173.564 172.695 172.254 171.408 171.003 177.49 176.669 176.216 
175.336 174.886 173.997 173.579 172.706 172.307 171.451 171.09 178.618 
177.862 177.462 176.637 176.22 175.349 174.942 174.061 173.673 172.792 
172.428 171.582 171.299 179.684 178.983 178.616 177.851 177.454 176.648 
176.255 175.42 175.038 174.172 173.795 172.933 172.612 171.824 171.609 
180.675 180.043 179.709 178.983 178.594 177.83 177.452 176.683 176.331 
175.52 175.153 174.293 173.938 173.119 172.858 172.135 171.973 181.531 
181 180.715 180.055 179.68 178.944 178.565 177.837 177.513 176.776 
176.447 175.634 175.278 174.441 174.146 173.381 173.195 172.51 172.401 
181.885 182.173 181.747 181.107 182.405 181.993 181.309 180.849 180.081 
182.599 182.189 181.488 181.021 180.234 179.755 178.974 182.804 182.381 
181.7 181.217 180.446 179.932 179.154 178.676 177.942 183.068 182.609 
181.941 181.455 180.698 180.173 179.372 178.868 178.092 177.643 176.885 
183.393 182.899 182.202 181.704 180.935 180.415 179.578 179.06 178.22 
177.755 176.945 176.523 175.728 183.66 183.203 182.482 181.975 181.2 
180.659 179.825 179.264 178.41 177.885 177.07 176.595 175.814 175.369 
174.623 183.81 183.419 182.743 182.263 181.528 180.972 180.184 179.577 
178.762 178.156 177.367 176.807 176.06 175.542 174.825 174.351 173.687 
183.964 183.59 183.007 182.552 181.895 181.351 180.626 180.014 179.256 
178.61 177.849 177.213 176.474 175.882 175.175 174.636 173.972 173.497 
172.896 183.922 183.556 183.502 182.962 182.939 183.029 182.453 182.44 
181.828 182.022 182.254 181.702 181.811 181.17 181.2 180.542 180.996 
181.256 180.732 180.946 180.347 180.462 179.801 179.85 179.175 179.966 
180.209 179.64 179.904 179.328 179.558 178.929 179.056 178.362 178.432 
177.752 178.871 179.13 178.482 178.749 178.114 178.43 177.812 178.081 
177.392 177.546 176.821 176.957 176.316 177.638 177.955 177.284 177.552 
176.867 177.163 176.538 176.872 176.243 176.495 175.795 175.968 175.299 
175.511 174.963 176.302 176.653 176.021 176.334 175.692 175.957 175.342 
175.628 175.058 175.34 174.733 174.937 174.296 174.486 173.922 174.186 
173.734 175.071 175.352 174.775 175.093 174.54 174.826 174.252 174.504 
173.932 174.2 173.636 173.888 173.296 173.5 172.925 173.157 172.684 
172.997 172.634 184.453 185.186 184.589 184.112 185.881 185.275 184.685 
184.119 183.472 186.408 185.827 185.088 184.552 183.801 183.287 182.522 
186.767 186.205 185.4 184.865 184.1 183.572 182.816 182.279 181.52 
186.984 186.471 185.712 185.203 184.554 183.987 183.302 182.659 181.9 
181.298 180.531 186.992 186.597 185.885 185.513 184.971 184.521 183.882 
183.23 182.387 181.699 180.829 180.263 179.439 186.783 186.507 185.797 
185.57 185.014 184.787 184.13 183.675 182.74 182.103 181.088 180.501 
179.575 179.078 178.193 186.448 186.25 185.542 185.365 184.736 184.61 
183.917 183.664 182.752 182.283 181.259 180.701 179.724 179.185 178.249 
177.754 176.846 186.041 185.908 185.233 185.064 184.399 184.247 183.541 
183.336 182.518 182.187 181.292 180.833 179.914 179.363 178.422 177.847 
176.92 176.414 175.589 184.814 185.716 185.345 185.581 186.792 186.347 
186.572 186.177 186.388 187.844 187.474 187.689 187.231 187.443 186.994 
187.068 188.621 188.464 188.733 188.329 188.467 188.038 188.165 187.644 
187.546 189.106 189.1 189.456 189.248 189.349 188.972 189.052 188.673 
188.692 188.086 187.82 189.602 189.514 189.87 189.82 190.001 189.739 
189.746 189.436 189.46 189.095 188.93 188.261 187.821 190.245 190.02 
190.247 190.185 190.436 190.304 190.324 190.028 189.906 189.648 189.476 
189.123 188.726 188.093 187.54 190.71 190.553 190.606 190.525 190.7 
190.674 190.732 190.515 190.256 189.943 189.575 189.366 188.978 188.691 
188.179 187.661 187.102 190.728 190.761 190.71 190.711 190.736 190.806 
190.829 190.781 190.501 190.193 189.644 189.339 188.83 188.678 188.232 
188.021 187.52 187.118 186.596 190.585 190.38 190.528 190.619 190.139 
190.292 190.356 190.536 190.651 189.629 189.904 189.882 190.181 190.293 
190.583 190.69 188.813 189.188 189.119 189.539 189.592 190.047 190.098 
190.451 190.31 187.945 188.291 188.192 188.646 188.676 189.203 189.212 
189.651 189.439 189.744 189.386 187.067 187.397 187.214 187.663 187.671 
188.23 188.263 188.716 188.513 188.796 188.444 188.729 188.477 186.083 
186.443 186.203 186.644 186.61 187.189 187.241 187.754 187.597 187.902 
187.569 187.829 187.593 187.957 187.865 185.089 185.446 185.252 185.649 
185.61 186.131 186.169 186.699 186.564 186.948 186.629 186.945 186.684 
187.074 186.955 187.382 187.249 184.181 184.527 184.402 184.77 184.739 
185.182 185.18 185.645 185.508 185.897 185.606 185.954 185.69 186.104 
185.956 186.418 186.278 186.681 186.431 183.632 182.889 183.482 183.906 
182.036 182.713 183.207 183.806 184.271 181.062 181.799 182.29 183.021 
183.525 184.176 184.642 180.044 180.798 181.284 182.039 182.547 183.302 
183.776 184.464 184.864 179.027 179.788 180.314 181.057 181.582 182.317 
182.823 183.527 183.949 184.598 184.951 178.013 178.77 179.29 180.073 
180.592 181.358 181.871 182.601 183.075 183.72 184.127 184.71 185.1 
177.014 177.74 178.207 179 179.487 180.296 180.78 181.589 182.082 
182.838 183.299 183.944 184.377 184.951 185.393 176.049 176.73 177.168 
177.918 178.41 179.185 179.688 180.474 180.994 181.793 182.312 183.062 
183.532 184.202 184.642 185.258 185.682 175.17 175.789 176.215 176.912 
177.412 178.16 178.702 179.455 180.016 180.77 181.333 182.077 182.593 
183.298 183.741 184.415 184.808 185.458 185.804 185.567 184.587 184.999 
184.798 183.537 183.989 183.796 184.192 183.961 182.405 182.906 182.703 
183.141 182.872 183.297 183.028 181.152 181.708 181.478 181.972 181.654 
182.117 181.788 182.275 181.969 179.8 180.372 180.081 180.631 180.253 
180.782 180.411 180.954 180.629 181.157 180.811 178.423 178.96 178.595 
179.145 178.718 179.276 178.86 179.465 179.106 179.727 179.361 179.916 
179.478 177.096 177.565 177.162 177.656 177.232 177.745 177.324 177.88 
177.472 178.092 177.675 178.322 177.853 178.454 177.948 175.894 176.275 
175.871 176.289 175.892 176.341 175.945 176.416 175.991 176.491 176.039 
176.603 176.148 176.752 176.285 176.88 176.427 174.848 175.146 174.742 
175.086 174.69 175.078 174.679 175.098 174.664 175.088 174.632 175.085 
174.673 175.173 174.801 175.31 174.943 175.464 175.132 183.149 183.534 
183.653 184.238 183.868 184.016 184.649 184.753 185.38 184.24 184.387 
185.097 185.211 185.934 185.999 186.682 184.55 184.783 185.56 185.727 
186.525 186.618 187.356 187.356 187.931 184.64 184.999 185.786 186.114 
186.909 187.154 187.896 188.006 188.559 188.484 188.796 184.672 185.028 
185.794 186.193 186.928 187.315 188.006 188.341 188.918 189.025 189.312 
189.157 189.246 184.725 185.07 185.814 186.183 186.876 187.222 187.828 
188.225 188.823 189.181 189.594 189.618 189.719 189.502 189.551 184.581 
185.012 185.667 186.125 186.758 187.14 187.649 187.992 188.489 188.924 
189.42 189.733 189.979 189.942 189.991 189.818 189.958 184.226 184.689 
185.207 185.754 186.273 186.82 187.253 187.701 188.062 188.508 188.914 
189.391 189.731 190.007 190.14 190.162 190.249 190.218 190.406 183.103 
184.194 183.563 183.372 185.336 184.665 184.459 183.797 183.528 186.613 
185.886 185.673 184.917 184.589 183.862 183.43 187.806 187.162 186.92 
186.158 185.766 184.952 184.454 183.659 183.113 188.647 188.211 187.988 
187.341 186.892 186.079 185.494 184.684 184.122 183.346 182.874 189.108 
188.869 188.765 188.319 187.957 187.176 186.541 185.672 185.057 184.317 
183.849 183.182 182.825 189.44 189.251 189.233 188.984 188.775 188.193 
187.618 186.745 186.056 185.235 184.704 184.057 183.657 183.093 182.741 
189.92 189.668 189.655 189.408 189.219 188.835 188.318 187.682 186.969 
186.215 185.576 184.885 184.394 183.813 183.406 182.899 182.533 190.454 
190.227 190.207 189.886 189.631 189.211 188.683 188.173 187.504 186.936 
186.292 185.686 185.127 184.525 184.055 183.517 183.132 182.656 182.321 
182.35 182.661 182.1 181.172 182.878 182.436 181.597 180.894 179.843 
182.756 182.538 181.832 181.333 180.319 179.532 178.439 182.355 182.227 
181.565 181.388 180.531 179.961 178.811 178.077 177.07 182.118 181.833 
181.139 181 180.316 180.025 179.046 178.403 177.314 176.716 175.913 
182.168 181.768 181.074 180.73 180.114 179.839 179.112 178.61 177.649 
176.995 176.127 175.643 175.019 182.174 181.868 181.205 180.81 180.151 
179.799 179.149 178.736 177.936 177.349 176.488 175.918 175.215 174.799 
174.22 182.011 181.81 181.177 180.878 180.174 179.843 179.13 178.788 
178.021 177.581 176.74 176.232 175.443 174.995 174.317 173.957 173.327 
181.816 181.628 181.018 180.768 180.066 179.772 179.024 178.714 177.935 
177.584 176.761 176.356 175.537 175.132 174.372 174.006 173.294 172.976 
172.291 184.525 184.451 184.792 185.452 184.348 184.748 185.428 185.791 
186.5 184.054 184.552 185.193 185.667 186.301 186.771 187.433 183.691 
184.183 184.799 185.31 185.897 186.413 186.992 187.542 188.111 183.422 
183.849 184.502 184.96 185.637 186.064 186.696 187.108 187.697 188.15 
188.667 183.21 183.61 184.258 184.723 185.467 185.924 186.656 187.002 
187.653 187.937 188.546 188.824 189.351 182.975 183.37 183.938 184.425 
185.086 185.663 186.346 186.881 187.49 187.917 188.514 188.861 189.462 
189.675 190.15 182.689 183.079 183.562 184.026 184.581 185.154 185.746 
186.36 186.9 187.495 188.036 188.629 189.219 189.706 190.193 190.424 
190.676 182.366 182.744 183.175 183.603 184.097 184.612 185.171 185.732 
186.293 186.848 187.415 188.009 188.607 189.225 189.72 190.201 190.432 
190.676 190.677 
POINT_DATA 1002
SCALARS Distance double
LOOKUP_TABLE default
183.06 183.812 183.065 182.164 182.123 182.246 181.094 181.002 181.225 
181.332 179.883 179.771 180.05 180.222 180.324 178.583 178.485 178.711 
178.89 179.067 179.273 177.219 177.119 177.313 177.416 177.608 177.906 
178.254 175.81 175.726 175.951 176.044 176.2 176.537 176.942 177.285 
174.468 174.482 174.6 174.751 174.915 175.245 175.68 176.036 176.322 
173.287 173.414 173.287 173.403 173.59 173.898 174.332 174.741 175.065 
175.391 172.22 172.405 172.094 172.097 172.266 172.558 172.943 173.368 
173.768 174.156 174.577 184.16 183.316 184.382 183.384 184.343 182.275 
183.259 184.261 182.243 181.044 183.176 184.253 182.08 180.925 179.713 
183.078 184.064 181.928 180.697 179.529 178.355 182.797 183.706 181.703 
180.439 179.246 178.154 176.943 182.464 183.393 181.396 180.172 178.933 
177.866 176.784 175.577 182.109 183.062 181.057 179.937 178.703 177.539 
176.541 175.491 174.387 181.642 182.636 180.599 179.634 178.558 177.312 
176.226 175.322 174.339 173.313 181.493 180.271 180.14 178.813 178.732 
179.253 177.481 177.382 177.917 178.374 176.283 176.189 176.581 176.942 
177.17 175.196 175.235 175.233 175.353 175.575 175.868 174.249 174.446 
174.06 173.984 174.158 174.515 174.926 173.384 173.64 173.108 172.971 
173.134 173.443 173.725 174.025 172.446 172.687 172.156 171.955 172.041 
172.277 172.416 172.584 172.92 171.343 171.603 171.03 170.698 170.567 
170.682 170.805 170.937 171.305 171.863 171.187 170.448 169.896 169.741 
169.1 168.723 169.283 168.414 168.007 167.676 169.014 167.875 167.395 
166.953 166.575 168.807 167.351 166.717 166.242 165.669 165.4 168.882 
167.055 166.008 165.466 164.821 164.374 164.358 169.313 167.339 165.791 
164.926 164.249 163.699 163.567 163.755 169.804 167.984 166.275 165.05 
164.195 163.584 163.375 163.515 163.779 170.207 168.622 167.068 165.763 
164.703 163.9 163.565 163.684 163.967 164.242 170.997 169.749 170.886 
168.636 169.77 170.992 167.556 168.73 170.021 171.293 166.415 167.539 
168.904 170.346 171.656 165.331 166.368 167.603 169.181 170.725 172.066 
164.454 165.443 166.599 168.078 169.751 171.228 172.522 164.042 164.779 
165.927 167.351 168.938 170.459 171.785 173.003 164.239 164.582 165.48 
166.823 168.32 169.767 171.113 172.363 173.518 164.832 164.918 165.616 
165.925 166.606 165.361 167.132 167.671 166.525 166.39 168.292 168.699 
167.858 167.603 167.813 169.426 169.84 169.125 168.915 168.929 169.258 
170.775 171.178 170.438 170.205 170.132 170.276 170.646 172.198 172.471 
171.906 171.585 171.428 171.485 171.702 172.024 173.421 173.63 173.256 
173.006 172.825 172.844 172.961 173.114 173.302 174.575 174.818 174.44 
174.291 174.176 174.196 174.258 174.285 174.331 174.425 164.602 165.156 
164.676 165.169 164.653 165.882 165.472 165.324 166.036 166.892 166.683 
166.754 166.801 167.322 168.055 168.141 168.1 168.158 168.271 168.693 
169.241 169.156 169.113 169.306 169.39 169.613 170.054 170.555 170.068 
170.143 170.235 170.438 170.658 171.06 171.51 171.932 171.156 171.258 
171.294 171.583 171.856 172.194 172.608 172.922 173.206 172.262 172.316 
172.388 172.71 173.066 173.358 173.684 174.001 174.218 174.449 171.076 
169.604 170.683 169.299 170.55 168.137 169.305 170.57 168.043 166.844 
169.364 170.607 168.129 166.877 165.658 169.455 170.753 168.177 166.887 
165.588 164.538 169.775 171.063 168.41 166.996 165.553 164.436 163.864 
170.248 171.436 168.941 167.536 165.977 164.61 163.994 163.873 170.729 
171.842 169.54 168.343 166.978 165.424 164.388 164.223 164.236 172.585 
172.19 173.644 173.363 174.757 171.911 174.553 175.935 173.158 171.821 
175.804 177.136 174.43 173.109 171.837 177.071 178.269 175.776 174.456 
173.175 171.913 178.251 179.338 177.068 175.819 174.557 173.292 172.084 
179.363 180.356 178.237 177.061 175.889 174.672 173.425 172.329 180.414 
181.26 179.353 178.197 177.104 176.005 174.785 173.607 172.642 181.331 