# vtk DataFile Version 4.0
vtk output
ASCII
DATASET POLYDATA
POINTS 1002 float
-105.501 -120.37 73.1923 -106.091 -121.399 72.9877 -105.946 -120.682 72.2139 
-105.134 -119.682 72.3913 -105.681 -119.905 71.5177 -104.67 -119.344 73.3848 
-104.811 -118.815 71.6669 -105.476 -119.026 70.8561 -104.263 -118.54 72.6185 
-103.904 -118.05 73.6881 -104.688 -117.723 70.9687 -105.407 -117.959 70.1938 
-104.061 -117.418 71.8901 -103.623 -116.984 72.9883 -103.353 -116.422 74.1259 
-104.585 -116.496 70.3176 -105.356 -116.69 69.6334 -103.888 -116.21 71.1268 
-103.339 -115.812 72.2249 -102.904 -115.391 73.4153 -102.571 -114.98 74.5811 
-104.398 -115.204 69.8189 -105.303 -115.358 69.2024 -103.528 -115.053 70.4475 
-102.846 -114.798 71.4005 -102.22 -114.536 72.5924 -101.699 -114.29 73.7927 
-101.421 -113.933 75.0236 -104.25 -113.938 69.3757 -105.235 -114.134 68.761 
-103.177 -113.842 69.9368 -102.35 -113.729 70.7111 -101.622 -113.626 71.7992 
-100.93 -113.561 72.9525 -100.539 -113.342 74.1872 -100.496 -112.899 75.4896 
-104.051 -112.848 68.8292 -105.018 -113.069 68.2703 -102.92 -112.706 69.3992 
-102.015 -112.571 70.1033 -101.329 -112.443 71.1016 -100.637 -112.423 72.1956 
-100.145 -112.378 73.3244 -100 -112.103 74.6388 -100.068 -111.681 75.9313 
-103.711 -111.933 68.243 -104.661 -112.127 67.8147 -102.64 -111.766 68.7681 
-101.723 -111.565 69.4245 -101.093 -111.308 70.3478 -100.53 -111.11 71.4284 
-100.069 -111.037 72.5007 -99.871 -110.915 73.7261 -99.839 -110.642 75.0946 
-99.8797 -110.332 76.3043 -103.394 -111.065 67.7565 -104.327 -111.255 67.4434 
-102.432 -110.856 68.2205 -101.559 -110.585 68.8138 -100.912 -110.261 69.6107 
-100.393 -109.932 70.6141 -99.9809 -109.697 71.6731 -99.797 -109.548 72.8321 
-99.7494 -109.367 74.1833 -99.7233 -109.136 75.5188 -99.7554 -108.934 76.6176 
-106.549 -122.009 72.2209 -106.514 -121.187 71.4952 -107.155 -122.505 71.4333 
-107.23 -121.577 70.7636 -108.016 -122.715 70.6885 -106.375 -120.298 70.8351 
-108.146 -121.687 70.0091 -109.061 -122.694 69.9175 -107.206 -120.568 70.0735 
-106.233 -119.369 70.1158 -109.097 -121.69 69.13 -110.073 -122.656 69.0052 
-108.128 -120.653 69.2168 -107.058 -119.626 69.2304 -106.134 -118.259 69.3819 
-109.958 -121.762 68.0879 -111.051 -122.529 68.0504 -109.008 -120.744 68.2527 
-107.927 -119.771 68.3107 -106.856 -118.532 68.4536 -106.057 -116.915 68.8293 
-110.935 -121.614 67.1732 -112.158 -122.116 67.3486 -109.905 -120.757 67.2841 
-108.877 -119.765 67.4602 -107.711 -118.648 67.6256 -106.722 -117.172 67.9729 
-106.021 -115.542 68.4252 -112.11 -121.07 66.681 -113.309 -121.505 66.9818 
-110.958 -120.392 66.5899 -109.889 -119.463 66.7197 -108.76 -118.454 66.9063 
-107.617 -117.26 67.2081 -106.708 -115.784 67.6418 -105.95 -114.286 68.0341 
-113.246 -120.372 66.4273 -114.285 -120.893 66.6917 -112.08 -119.754 66.1896 
-110.859 -118.966 66.1055 -109.697 -118.11 66.1436 -108.632 -117.175 66.3656 
-107.649 -115.959 66.8411 -106.729 -114.502 67.3569 -105.759 -113.144 67.6821 
-114.172 -119.757 66.0809 -115.041 -120.363 66.2464 -113.109 -119.131 65.8365 
-111.805 -118.501 65.5676 -110.438 -117.873 65.3481 -109.337 -117.151 65.3657 
-108.539 -116.133 65.8392 -107.731 -114.768 66.5941 -106.698 -113.315 67.1748 
-105.501 -112.116 67.4009 -115.219 -119.466 65.5715 -114.285 -118.745 65.4669 
-115.327 -118.449 64.9722 -114.249 -117.696 64.9444 -115.226 -117.238 64.6905 
-113.053 -118.131 65.1755 -114.039 -116.548 64.5832 -114.899 -115.835 64.4956 
-112.853 -117.221 64.4755 -111.481 -117.679 64.7087 -113.681 -115.165 64.1748 
-114.441 -114.45 64.1889 -112.595 -116 63.9 -111.107 -116.777 63.839 
-109.959 -117.135 64.4003 -113.171 -113.658 63.9441 -113.912 -113.221 64.2888 
-112.226 -114.208 63.6011 -110.829 -115.049 63.4341 -109.604 -115.871 63.8008 
-109.028 -116.186 64.7332 -112.641 -112.298 64.4299 -113.419 -112.021 65.0529 
-111.746 -112.49 63.8888 -110.592 -112.888 63.651 -109.485 -113.755 63.9317 
-108.908 -114.558 64.7095 -108.474 -114.813 65.7101 -112.267 -111.096 65.4102 
-113.012 -110.786 65.9492 -111.381 -111.334 64.8275 -110.407 -111.459 64.4155 
-109.472 -111.87 64.5258 -108.855 -112.607 65.162 -108.363 -113.12 65.9768 
-107.588 -113.26 66.6704 -111.946 -109.864 66.2776 -112.582 -109.588 66.6251 
-111.136 -110.248 65.9127 -110.266 -110.511 65.51 -109.405 -110.694 65.3698 
-108.654 -111.038 65.7105 -107.983 -111.434 66.2846 -107.161 -111.682 66.7665 
-106.236 -111.873 67.102 -111.539 -108.572 66.8888 -112.097 -108.471 67.1807 
-110.818 -108.838 66.6903 -110.028 -109.134 66.4512 -109.199 -109.345 66.2488 
-108.302 -109.542 66.2994 -107.385 -109.797 66.5474 -106.468 -110.09 66.7703 
-105.574 -110.434 66.9366 -104.832 -110.84 67.1434 -103.509 -110.174 67.2934 
-104.004 -109.539 66.98 -102.916 -108.725 67.3437 -104.698 -108.858 66.8196 
-103.391 -107.829 67.0008 -102.569 -106.833 67.6228 -105.625 -108.263 66.804 
-104.059 -106.866 66.7957 -103.033 -105.752 67.1525 -102.239 -104.852 67.8483 
-106.763 -107.841 66.7905 -105.09 -106.094 66.7636 -103.781 -104.733 66.7655 
-102.804 -103.766 67.2698 -101.942 -103.187 68.0199 -107.945 -107.562 66.7456 
-106.435 -105.649 66.792 -104.978 -104.155 66.6728 -103.746 -103.024 66.9445 
-102.764 -102.294 67.6797 -101.953 -101.865 68.5502 -108.95 -107.392 66.8321 
-107.72 -105.459 66.8827 -106.409 -104.016 66.8686 -105.073 -102.909 67.1775 
-103.904 -101.948 67.7849 -102.997 -101.276 68.5314 -102.225 -100.717 69.3207 
-109.79 -107.3 67.0489 -108.716 -105.509 67.1615 -107.64 -104.104 67.2608 
-106.457 -103.086 67.7296 -105.25 -102.061 68.3523 -104.229 -101.102 68.8114 
-103.342 -100.276 69.2848 -102.543 -99.5942 69.8997 -110.581 -107.259 67.2669 
-109.572 -105.729 67.5522 -108.605 -104.372 67.7897 -107.597 -103.286 68.2615 
-106.507 -102.205 68.893 -105.502 -101.114 69.272 -104.589 -100.067 69.4642 
-103.679 -99.1131 69.813 -102.891 -98.5343 70.3837 -111.276 -107.296 67.531 
-110.392 -105.967 67.9197 -109.5 -104.693 68.3012 -108.575 -103.526 68.7292 
-107.575 -102.32 69.2166 -106.607 -101.159 69.6038 -105.749 -100.098 69.838 
-104.892 -99.0112 70.0779 -104.021 -98.1189 70.4609 -103.284 -97.7631 71.0284 
-102.615 -109.868 67.719 -102.184 -108.149 67.9705 -101.781 -109.445 68.3109 
-101.867 -106.115 68.3229 -101.455 -107.5 68.643 -101.05 -108.998 69.007 
-101.381 -104.3 68.469 -101.011 -105.534 68.8854 -100.685 -107.044 69.318 
-100.416 -108.638 69.8811 -101.054 -102.738 68.7366 -100.399 -103.851 69.0145 
-100.134 -105.209 69.5389 -100.017 -106.806 70.2241 -99.9249 -108.351 70.9349 
-101.201 -101.243 69.4563 -100.217 -102.113 69.5474 -99.6816 -103.396 69.9303 
-99.6902 -104.974 70.6895 -99.7493 -106.594 71.4605 -99.7313 -108.119 72.1476 
-101.577 -99.9818 70.2009 -100.578 -100.539 70.411 -99.7712 -101.512 70.7162 
-99.5927 -103.026 71.4052 -99.7786 -104.742 72.2382 -99.7797 -106.374 72.9363 
-99.707 -107.919 73.5678 -101.996 -99.0203 70.7441 -101.12 -99.5882 71.1526 
-100.243 -100.206 71.5813 -99.7367 -101.261 72.2294 -99.7874 -102.867 73.061 
-99.8717 -104.606 73.8222 -99.7343 -106.216 74.4598 -99.6548 -107.728 75.0246 
-102.451 -98.2662 71.3545 -101.675 -98.9941 71.8447 -100.821 -99.5763 72.3982 
-100.034 -100.144 73.0545 -99.7269 -101.245 73.8262 -99.79 -102.905 74.5829 
-99.7645 -104.612 75.2477 -99.6506 -106.135 75.8119 -99.6484 -107.574 76.264 
-103.154 -97.5682 72.0676 -102.372 -98.2022 72.5958 -102.987 -97.5964 73.5201 
-102.246 -98.1112 74.2575 -102.834 -97.555 75.2778 -101.58 -98.9369 73.2525 
-102.198 -98.0113 75.9589 -102.982 -97.6054 76.9237 -101.435 -98.7093 74.9913 
-100.619 -99.4208 73.96 -102.447 -98.3951 77.3699 -103.403 -98.0396 78.2576 
-101.453 -98.7775 76.6006 -100.445 -99.2443 75.74 -99.8391 -100.033 74.7164 
-102.708 -99.0095 78.7674 -103.656 -98.5915 79.5462 -101.676 -99.3986 78.0192 
-100.536 -99.5874 77.3836 -99.7692 -100.167 76.4922 -99.6331 -101.402 75.4491 
-102.776 -99.3543 80.255 -103.79 -99.1602 80.7758 -101.814 -99.8239 79.5133 
-100.766 -100.186 78.8669 -99.94 -100.716 78.158 -99.6589 -101.84 77.1365 
-99.7044 -103.258 76.1025 -103.032 -99.949 81.3779 -104.149 -100.018 81.6663 
-102.032 -100.182 80.8229 -101.052 -100.624 80.1641 -100.219 -101.311 79.5327 
-99.8472 -102.414 78.6974 -99.7883 -103.724 77.6433 -99.7204 -104.958 76.6662 
-103.563 -101.026 82.0875 -104.64 -101.023 82.3086 -102.557 -101.16 81.7038 
-101.622 -101.455 81.1408 -100.741 -102.041 80.5245 -100.168 -103.03 79.8668 
-100 -104.221 79.0125 -99.8979 -105.363 78.0245 -99.7293 -106.463 77.1034 
-104.074 -102.034 82.7255 -105.042 -101.86 82.932 -103.131 -102.328 82.404 
-102.319 -102.653 81.9227 -101.554 -103.09 81.2931 -100.816 -103.835 80.651 
-100.334 -104.834 80.0148 -100.119 -105.875 79.223 -99.9462 -106.903 78.2985 
-99.7967 -107.938 77.4171 -104.158 -97.4718 71.4888 -104.033 -97.3809 72.5849 
-105.206 -97.6965 72.1579 -105.289 -97.5948 73.2074 -106.39 -98.0701 72.8751 
-103.875 -97.4664 74.1398 -106.846 -97.6672 73.936 -107.529 -98.239 73.5587 
-105.417 -97.5127 74.8806 -103.852 -97.4138 76.1024 -108.147 -97.6574 74.7693 
-108.496 -98.5619 74.2306 -107.28 -97.3479 75.7274 -105.614 -97.3665 76.9947 
-104.183 -97.4623 77.8452 -109.039 -98.1839 75.5344 -109.539 -99.1907 74.8527 
-108.574 -97.475 76.4532 -107.432 -97.3848 77.6456 -105.864 -97.5587 78.557 
-104.604 -97.9293 79.0502 -110.086 -98.95 76.0862 -110.717 -99.7579 75.3559 
-109.455 -98.2131 76.9333 -108.618 -97.868 77.9704 -107.403 -97.9627 78.8806 
-106.068 -98.2572 79.4941 -104.832 -98.6616 80.1216 -111.238 -99.5832 76.4955 
-111.635 -100.378 75.7557 -110.575 -98.9975 77.3401 -109.684 -98.6511 78.3235 
-108.656 -98.584 79.248 -107.532 -98.7927 79.9008 -106.302 -99.1512 80.5006 
-105.103 -99.5364 81.1628 -112.021 -100.414 76.864 -112.229 -101.259 76.1131 
-111.596 -99.7898 77.7619 -110.866 -99.4336 78.7971 -109.94 -99.2501 79.8112 
-108.948 -99.2641 80.555 -107.829 -99.5775 81.0677 -106.605 -100.037 81.5515 
-105.502 -100.489 81.9933 -112.557 -101.428 77.2066 -112.809 -102.14 76.4518 
-112.216 -100.803 78.1299 -111.713 -100.35 79.1755 -111.038 -100.038 80.2089 
[...]
CELL_DATA 2000
SCALARS Distance double
LOOKUP_TABLE default
175.351 174.386 174.686 174.288 173.366 173.657 173.213 173.544 173.108 
172.319 172.594 172.086 172.414 171.944 172.307 171.859 171.211 171.491 
170.914 171.234 170.704 171.085 170.61 171.02 170.587 170.069 170.331 
169.7 170.004 169.418 169.798 169.291 169.721 169.274 169.73 169.34 
168.976 169.188 168.512 168.763 168.138 168.49 167.972 168.393 167.951 
168.401 168.028 168.511 168.21 167.918 168.105 167.396 167.591 166.929 
167.225 166.698 167.095 166.667 167.102 166.746 167.222 166.957 167.463 
167.258 166.869 167.041 166.327 166.495 165.813 166.051 165.498 165.85 
165.41 165.83 165.463 165.944 165.677 166.215 166.03 166.568 166.402 
165.884 166.016 165.326 165.465 164.8 164.979 164.406 164.687 164.22 
164.59 164.196 164.648 164.357 164.905 164.719 165.306 165.152 165.71 
165.55 175.803 176.19 175.635 174.884 176.577 176.032 175.289 174.696 
173.907 176.916 176.401 175.663 175.097 174.304 173.706 172.891 177.182 
176.697 175.948 175.43 174.635 174.075 173.238 172.651 171.799 177.372 
176.916 176.164 175.68 174.896 174.368 173.524 172.954 172.08 171.512 
170.662 177.523 177.079 176.34 175.88 175.121 174.62 173.794 173.226 
172.343 171.767 170.915 170.377 169.573 177.688 177.239 176.501 176.046 
175.281 174.816 174.006 173.485 172.623 172.049 171.195 170.637 169.835 
169.309 168.526 177.828 177.407 176.653 176.196 175.385 174.926 174.088 
173.634 172.809 172.319 171.515 170.966 170.179 169.607 168.823 168.269 
167.489 177.864 177.506 176.754 176.322 175.489 175.008 174.132 173.671 
172.848 172.439 171.712 171.277 170.576 170.028 169.28 168.648 167.865 
167.26 166.509 177.606 176.806 176.986 176.492 175.9 176.126 175.591 
175.777 175.205 174.825 175.151 174.608 174.821 174.195 174.393 173.8 
173.545 173.968 173.431 173.746 173.074 173.31 172.664 172.956 172.465 
172.26 172.622 172.013 172.4 171.666 172.026 171.344 171.746 171.283 
171.71 171.365 171.26 171.425 170.742 170.967 170.201 170.511 169.861 
170.332 169.971 170.519 170.282 170.701 170.347 170.524 170.578 169.954 
169.953 169.281 169.302 168.753 169 168.755 169.254 169.134 169.614 
169.297 169.611 169.094 169.793 169.892 169.36 169.369 168.818 168.732 
168.233 168.232 167.928 168.203 168.015 168.447 168.09 168.461 167.883 
168.201 167.605 168.97 169.117 168.578 168.722 168.169 168.256 167.684 
167.747 167.214 167.395 166.919 167.263 166.728 167.123 166.479 166.867 
166.24 166.66 166.169 165.306 165.238 164.796 163.954 165.342 164.729 
163.704 163.372 162.563 165.599 164.859 163.645 163.104 162.118 161.91 
161.135 165.958 165.174 163.907 163.118 161.954 161.495 160.622 160.47 
159.807 166.399 165.62 164.442 163.513 162.319 161.548 160.625 160.158 
159.544 159.345 158.938 166.897 166.145 165.074 164.149 163.074 162.173 
161.346 160.57 160.023 159.465 159.156 158.829 158.614 167.391 166.692 
165.725 164.858 163.931 163.071 162.409 161.586 161.126 160.34 160.006 
159.38 159.121 158.682 158.43 167.851 167.218 166.398 165.603 164.824 
164.017 163.454 162.705 162.285 161.529 161.125 160.388 159.986 159.345 
158.956 158.479 158.18 168.314 167.734 167.067 166.364 165.724 164.978 
164.458 163.74 163.282 162.576 162.105 161.41 160.941 160.255 159.803 
159.145 158.765 158.277 158.092 165.139 163.838 164.513 164.567 162.514 
163.206 163.263 163.949 164.042 161.131 161.857 161.913 162.626 162.724 
163.453 163.638 159.789 160.45 160.487 161.224 161.322 162.109 162.321 
163.121 163.422 158.82 159.209 159.169 159.786 159.876 160.674 160.938 
161.798 162.162 162.985 163.389 158.357 158.453 158.283 158.609 158.636 
159.286 159.625 160.478 160.98 161.804 162.314 163.076 163.591 158.123 
158.119 157.891 157.958 157.899 158.25 158.589 159.313 159.964 160.777 
161.431 162.144 162.737 163.422 164.002 157.935 157.928 157.808 157.775 
157.745 157.801 158.049 158.486 159.129 159.883 160.643 161.378 162.021 
162.668 163.251 163.901 164.464 157.916 157.856 157.908 157.868 157.982 
157.892 158.067 158.167 158.62 159.145 159.863 160.607 161.309 161.989 
162.577 163.193 163.746 164.368 164.894 158.025 158.46 158.154 158.097 
159.091 158.711 158.644 158.337 158.261 159.859 159.386 159.28 158.918 
158.797 158.449 158.344 160.904 160.278 160.141 159.616 159.465 159.008 
158.905 158.589 158.764 162.07 161.425 161.299 160.641 160.487 159.835 
159.753 159.279 159.514 159.315 159.889 163.11 162.526 162.384 161.801 
161.653 160.995 160.929 160.338 160.585 160.236 160.809 160.662 161.339 
164.203 163.552 163.399 162.815 162.701 162.122 162.101 161.566 161.812 
161.422 161.938 161.676 162.274 162.084 162.643 165.452 164.747 164.654 
163.957 163.933 163.261 163.328 162.748 163.017 162.616 163.095 162.808 
163.334 163.063 163.55 163.321 163.807 166.632 166.018 165.985 165.326 
165.374 164.678 164.801 164.123 164.371 163.845 164.263 163.914 164.401 
164.108 164.555 164.268 164.706 164.474 164.94 158.252 159.055 158.57 
158.649 160.282 159.585 159.55 159.1 159.291 161.575 160.902 160.882 
160.227 160.326 159.84 160.113 162.75 162.164 162.261 161.652 161.796 
161.125 161.315 160.788 161.161 163.995 163.37 163.511 162.988 163.222 
162.64 162.819 162.166 162.389 161.912 162.299 165.36 164.704 164.809 
164.241 164.463 163.967 164.189 163.623 163.796 163.215 163.466 163.028 
163.382 166.637 166.061 166.182 165.585 165.783 165.229 165.489 164.945 
165.198 164.614 164.873 164.305 164.625 164.14 164.52 167.778 167.284 
167.463 166.937 167.18 166.622 166.918 166.34 166.653 166.056 166.364 
165.765 166.08 165.507 165.848 165.345 165.734 168.865 168.409 168.621 
168.17 168.444 167.98 168.288 167.783 168.082 167.53 167.807 167.238 
167.504 166.945 167.208 166.684 166.969 166.522 166.855 168.398 168.249 
167.951 167.2 168.147 167.82 167.06 166.738 165.965 168.031 167.7 
166.926 166.613 165.852 165.526 164.765 167.969 167.588 166.787 166.456 
165.669 165.379 164.584 164.297 163.532 168.03 167.587 166.777 166.357 
165.553 165.196 164.38 164.059 163.245 163.006 162.284 168.157 167.702 
166.914 166.432 165.642 165.183 164.404 163.957 163.17 162.779 162.049 
161.794 161.146 168.311 167.861 167.125 166.632 165.877 165.369 164.618 
164.111 163.376 162.881 162.17 161.729 161.041 160.713 160.056 168.531 
168.069 167.401 166.907 166.214 165.677 164.934 164.384 163.646 163.145 
162.457 161.976 161.271 160.777 160.045 159.652 159.017 168.841 168.363 
167.755 167.256 166.632 166.084 165.387 164.775 164.039 163.46 162.796 
162.294 161.659 161.117 160.412 159.835 159.175 158.751 158.313 169.11 
170.151 169.412 168.997 171.223 170.489 170.091 169.338 168.917 172.283 
171.564 171.174 170.435 170.019 169.254 168.815 173.358 172.641 172.268 
171.52 171.104 170.341 169.911 169.151 168.747 174.418 173.731 173.4 
172.655 172.252 171.449 171.01 170.235 169.851 169.123 168.788 175.422 
174.763 174.453 173.778 173.428 172.647 172.211 171.377 170.972 170.221 
169.905 169.2 168.897 176.438 175.764 175.435 174.783 174.47 173.79 
173.417 172.619 172.2 171.387 171.044 170.314 170.029 169.318 169.028 
177.441 176.794 176.457 175.773 175.437 174.785 174.467 173.779 173.413 
172.632 172.257 171.482 171.177 170.454 170.184 169.469 169.214 178.288 
177.746 177.428 176.787 176.422 175.756 175.426 174.788 174.484 173.797 
173.449 172.69 172.344 171.606 171.324 170.624 170.382 169.687 169.482 
178.592 178.758 178.392 177.772 178.956 178.555 177.918 177.5 176.793 
179.226 178.781 178.113 177.651 176.932 176.491 175.79 179.452 179.029 
178.327 177.855 177.118 176.656 175.95 175.525 174.856 179.543 179.168 
178.426 178.008 177.249 176.83 176.104 175.685 174.965 174.561 173.841 
179.546 179.198 178.436 178.04 177.266 176.893 176.15 175.78 175.013 
174.617 173.833 173.461 172.723 179.501 179.197 178.487 178.074 177.318 
176.905 176.176 175.793 175.039 174.629 173.836 173.436 172.692 172.352 
171.691 179.424 179.185 178.593 178.199 177.5 177.032 176.326 175.882 
175.182 174.721 173.976 173.5 172.775 172.367 171.717 171.38 170.771 
179.331 179.161 178.686 178.357 177.715 177.252 176.535 176.077 175.39 
174.939 174.235 173.733 173.009 172.527 171.857 171.455 170.835 170.488 
169.894 179.126 178.534 178.78 178.511 177.474 177.985 177.682 177.962 
177.496 175.885 176.63 176.33 176.871 176.417 176.763 176.265 174.196 
174.94 174.734 175.378 175.047 175.546 175.157 175.531 175.115 172.744 
173.382 173.287 173.895 173.696 174.204 173.905 174.36 174.007 174.388 
173.96 171.374 171.996 171.884 172.537 172.361 172.912 172.59 173.074 
172.691 173.169 172.758 173.168 172.719 169.97 170.568 170.365 171.059 
170.853 171.502 171.17 171.707 171.3 171.799 171.406 171.887 171.501 
171.923 171.543 168.673 169.169 168.929 169.527 169.32 169.952 169.695 
170.264 169.946 170.444 170.115 170.578 170.252 170.694 170.367 170.794 
170.489 167.554 167.952 167.7 168.182 167.975 168.515 168.308 168.856 
168.621 169.142 168.879 169.354 169.061 169.495 169.186 169.615 169.325 
169.771 169.524 179.33 179.357 179.137 178.686 179.269 179.024 178.424 
178.306 177.642 179.121 178.841 178.066 177.894 177.133 176.999 176.085 
178.929 178.687 177.861 177.52 176.624 176.41 175.488 175.297 174.353 
178.58 178.5 177.756 177.359 176.345 175.952 174.979 174.73 173.841 
173.654 172.86 177.969 178.073 177.423 177.186 176.131 175.688 174.619 
174.303 173.451 173.238 172.477 172.284 171.547 177.234 177.376 176.784 
176.726 175.764 175.406 174.312 173.968 173.105 172.904 172.176 171.962 
171.188 170.965 170.194 176.613 176.657 176.091 176.076 175.282 175.028 
174.055 173.696 172.824 172.576 171.83 171.631 170.838 170.609 169.792 
169.6 168.88 176.164 176.107 175.537 175.477 174.799 174.619 173.812 
173.502 172.676 172.355 171.556 171.279 170.456 170.215 169.402 169.207 
168.489 168.353 167.749 179.72 180.603 180.069 179.9 181.655 181.085 
180.938 180.286 179.988 182.454 182.029 181.823 181.301 180.956 180.294 
179.855 182.931 182.608 182.282 181.922 181.47 181.025 180.475 179.967 
179.474 183.244 182.987 182.673 182.29 181.835 181.374 180.802 180.348 
179.785 179.42 178.954 183.333 183.215 183.023 182.737 182.44 181.919 
181.487 180.831 180.324 179.732 179.236 178.823 178.345 183.36 183.251 
183.094 182.984 182.791 182.532 182.233 181.71 181.284 180.555 180.029 
179.302 178.755 178.21 177.692 183.59 183.38 183.2 183.024 182.801 
182.678 182.389 182.204 181.798 181.401 180.845 180.202 179.548 178.828 
178.218 177.627 177.125 183.827 183.667 183.495 183.238 182.981 182.721 
182.396 182.188 181.771 181.565 181.025 180.701 180.051 179.542 178.873 
178.269 177.698 177.145 176.69 183.789 183.52 183.666 183.531 183.121 
183.333 183.271 183.324 183.031 182.68 182.878 182.807 182.988 182.744 
182.735 182.36 182.074 182.323 182.135 182.421 182.203 182.344 181.922 
181.948 181.566 181.1 181.508 181.225 181.602 181.336 181.65 181.223 
181.354 180.829 181.017 180.681 179.867 180.384 180.128 180.561 180.257 
180.654 180.253 180.507 179.967 180.159 179.715 180.05 179.745 178.651 
179.165 178.982 179.429 179.15 179.545 179.188 179.498 179.047 179.262 
178.823 179.085 178.76 179.084 178.723 177.525 178.013 177.846 178.301 
178.047 178.449 178.123 178.467 178.087 178.357 177.961 178.212 177.868 
178.153 177.816 178.061 177.64 176.428 176.898 176.707 177.167 176.908 
177.334 177.019 177.407 177.057 177.394 177.013 177.31 176.932 177.238 
176.885 177.177 176.804 177.021 176.624 175.744 174.699 175.49 175.983 
173.52 174.368 174.858 175.682 176.148 172.279 173.14 173.617 174.487 
174.972 175.809 176.255 171.034 171.887 172.361 173.23 173.726 174.598 
175.082 175.902 176.317 169.806 170.643 171.111 171.976 172.467 173.349 
173.839 174.701 175.137 175.933 176.292 168.667 169.434 169.868 170.708 
171.167 172.06 172.536 173.432 173.87 174.713 175.094 175.878 176.22 
167.699 168.36 168.748 169.488 169.902 170.739 171.207 172.11 172.592 
173.455 173.882 174.678 175.071 175.829 176.188 166.842 167.449 167.814 
168.452 168.836 169.546 170.001 170.825 171.358 172.222 172.733 173.529 
173.969 174.714 175.11 175.825 176.148 165.993 166.594 166.956 167.569 
167.954 168.583 169.018 169.726 170.25 171.058 171.609 172.421 172.901 
173.653 174.058 174.77 175.114 175.778 176.036 175.763 174.843 175.234 
175.065 173.781 174.222 174.009 174.461 174.255 172.61 173.086 172.829 
173.31 173.073 173.566 173.303 171.327 171.848 171.559 172.064 171.792 
172.32 172.059 172.549 172.231 169.993 170.519 170.222 170.741 170.423 
170.969 170.653 171.214 170.861 171.388 171.033 168.761 169.213 168.901 
169.386 169.033 169.552 169.183 169.738 169.346 169.908 169.518 170.116 
169.817 167.658 168.029 167.665 168.085 167.689 168.153 167.759 168.271 
167.907 168.427 168.087 168.616 168.346 168.949 168.775 166.614 166.931 
166.508 166.871 166.435 166.834 166.399 166.861 166.492 167.026 166.74 
167.282 167.058 167.594 167.443 168.021 167.929 165.625 165.884 165.43 
165.738 165.3 165.635 165.182 165.548 165.116 165.597 165.271 165.88 
165.659 166.295 166.134 166.746 166.646 167.251 167.206 178.563 178.559 
178.936 179.674 178.429 178.879 179.658 180.075 180.846 178.266 178.724 
179.5 179.984 180.783 181.227 181.962 178.108 178.558 179.292 179.777 
180.54 181.062 181.822 182.277 182.898 177.886 178.355 179.037 179.524 
180.235 180.767 181.51 182.043 182.677 183.078 183.46 177.578 178.062 
178.705 179.21 179.926 180.464 181.242 181.756 182.401 182.789 183.136 
183.407 183.523 177.223 177.708 178.325 178.838 179.57 180.152 181.003 
181.554 182.257 182.59 182.921 183.079 183.172 183.346 183.426 176.845 
177.333 177.937 178.444 179.135 179.748 180.569 181.241 181.964 182.429 
182.774 182.934 183.015 183.097 183.213 183.369 183.567 176.46 176.949 
177.542 178.042 178.663 179.248 179.938 180.645 181.291 181.937 182.312 
182.683 182.803 182.975 183.095 183.252 183.464 183.623 183.802 178.727 
179.871 179.298 179.289 181.087 180.514 180.535 179.883 179.811 182.225 
181.731 181.796 181.173 181.117 180.407 180.228 183.139 182.781 182.837 
182.346 182.308 181.703 181.543 180.778 180.438 183.668 183.527 183.538 
183.206 183.11 182.703 182.567 182.013 181.702 180.893 180.401 183.727 
183.819 183.854 183.713 183.567 183.295 183.14 182.819 182.599 182.038 
181.581 180.753 180.188 183.637 183.761 183.879 183.88 183.797 183.626 
183.47 183.257 183.122 182.786 182.465 181.821 181.256 180.45 179.885 
183.742 183.755 183.896 183.896 183.886 183.786 183.66 183.515 183.401 
183.221 183.008 182.588 182.09 181.401 180.769 180.059 179.535 183.903 
183.898 183.967 183.952 183.926 183.86 183.729 183.628 183.464 183.381 
183.169 182.975 182.538 182.073 181.425 180.81 180.198 179.634 179.175 
178.125 178.639 178.045 177.347 179.113 178.535 177.813 177.218 176.451 
179.442 178.924 178.155 177.622 176.783 176.207 175.33 179.542 179.097 
178.24 177.816 176.923 176.422 175.45 174.934 174.006 179.471 179.067 
178.149 177.768 176.872 176.451 175.506 175.006 174.085 173.602 172.779 
179.327 178.962 178.09 177.681 176.84 176.412 175.584 175.098 174.289 
173.776 173.039 172.525 171.841 179.134 178.837 178.063 177.681 176.909 
176.476 175.722 175.257 174.532 174.05 173.369 172.871 172.21 171.694 
171.059 178.899 178.672 177.97 177.658 176.924 176.557 175.819 175.416 
174.694 174.276 173.586 173.161 172.484 172.03 171.351 170.896 170.263 
178.638 178.46 177.806 177.543 176.823 176.515 175.789 175.459 174.747 
174.385 173.684 173.303 172.619 172.225 171.548 171.128 170.465 170.054 
169.438 179.726 179.927 180.059 180.587 180.124 180.311 180.914 181.058 
181.644 180.233 180.507 181.159 181.379 181.995 182.116 182.552 180.196 
180.537 181.152 181.5 182.121 182.395 182.883 182.919 183.144 180.034 
180.403 180.907 181.315 181.863 182.321 182.852 183.139 183.43 183.398 
183.442 179.776 180.162 180.612 180.988 181.449 181.916 182.441 182.919 
183.309 183.533 183.618 183.56 183.48 179.508 179.884 180.395 180.737 
181.243 181.579 182.099 182.494 182.96 183.296 183.531 183.629 183.638 
183.547 183.51 179.31 179.66 180.25 180.61 181.255 181.546 182.135 
182.352 182.826 183.04 183.374 183.53 183.694 183.704 183.77 183.667 
183.727 179.136 179.489 180.093 180.505 181.225 181.616 182.282 182.509 
182.959 183.06 183.352 183.454 183.667 183.752 183.88 183.889 183.95 
183.892 183.914 
POINT_DATA 1002
SCALARS Distance double
LOOKUP_TABLE default
175.002 175.976 175.079 173.979 174.102 173.884 172.893 173.106 172.77 
172.672 171.786 172.067 171.581 171.483 171.426 170.622 170.946 170.338 
170.196 170.155 170.183 169.428 169.837 169.054 168.865 168.815 168.854 
168.987 168.302 168.791 167.81 167.553 167.503 167.538 167.696 167.951 
167.223 167.743 166.665 166.314 166.232 166.269 166.435 166.744 167.083 
166.159 166.706 165.601 165.175 165.006 164.993 165.131 165.469 165.879 
166.247 165.183 165.765 164.637 164.163 163.883 163.773 163.823 164.12 
164.573 165.008 165.397 176.355 175.474 176.743 175.881 177.11 174.513 
176.213 177.428 174.898 173.501 176.453 177.668 175.181 173.828 172.388 
176.631 177.82 175.409 174.099 172.649 171.205 176.789 177.963 175.603 
174.353 172.932 171.451 170.092 176.969 178.134 175.749 174.495 173.174 
171.766 170.371 169.045 177.12 178.232 175.873 174.535 173.237 172.018 
170.763 169.408 168.019 177.168 178.194 175.976 174.619 173.244 172.065 
171.054 169.917 168.521 167.058 177.458 176.334 176.629 175.417 175.654 
175.022 174.384 174.44 174.025 173.539 173.083 173.114 172.83 172.37 
172.087 171.669 171.997 171.289 170.882 170.784 170.979 170.61 171.176 
169.947 169.37 169.337 169.798 170.075 169.952 170.448 169.304 168.594 
168.3 168.635 168.976 168.847 169.278 169.655 168.854 168.301 167.807 
167.68 167.735 167.565 167.239 168.42 168.838 168.038 167.618 167.136 
166.703 166.378 166.074 165.8 165.684 164.472 164.233 163.159 164.157 
162.725 161.809 164.349 162.433 161.2 160.401 164.798 162.577 160.856 
159.815 159.208 165.363 163.169 161.216 159.807 159.016 158.594 165.942 
163.92 162.137 160.69 159.575 158.881 158.372 166.519 164.717 163.159 
161.933 160.76 159.687 158.798 158.123 167.1 165.577 164.179 163.027 
161.899 160.72 159.554 158.52 157.901 167.687 166.417 165.181 164.015 
162.807 161.613 160.493 159.364 158.413 157.966 163.884 162.578 163.329 
161.189 161.976 162.871 159.763 160.511 161.484 162.612 158.662 159.088 
160.032 161.303 162.575 158.11 158.083 158.742 160.105 161.539 162.833 
157.879 157.688 157.934 159.099 160.694 162.068 163.317 157.786 157.763 
157.789 158.431 159.864 161.378 162.625 163.819 157.883 158.058 158.128 
158.288 159.145 160.587 161.969 163.142 164.282 158.23 158.355 158.802 
158.982 159.495 158.602 159.687 160.398 159.176 158.621 160.75 161.568 
159.989 159.235 158.866 161.961 162.684 161.189 160.287 159.743 159.94 
162.937 163.712 162.259 161.515 160.989 161.029 161.465 164.009 164.892 
163.254 162.594 162.197 162.253 162.539 162.824 165.343 166.123 164.611 
163.937 163.455 163.401 163.636 163.83 164.001 166.589 167.188 166.026 
165.488 164.98 164.681 164.709 164.861 164.977 165.143 158.563 158.92 
159.685 160.152 161.011 159.582 161.547 162.17 160.953 160.451 162.778 
163.305 162.464 161.981 161.521 164.031 164.652 163.727 163.482 163.001 
162.65 165.431 165.999 164.967 164.697 164.392 163.998 163.753 166.757 
167.158 166.359 166.025 165.749 165.455 165.167 164.957 167.938 168.24 
167.697 167.486 167.248 166.965 166.675 166.4 166.188 169.052 169.304 
168.877 168.761 168.619 168.38 168.077 167.763 167.465 167.257 168.67 
167.499 168.579 167.384 168.482 166.298 167.236 168.377 166.16 165.101 
167.154 168.378 165.974 164.878 163.778 167.234 168.481 165.949 164.74 
163.525 162.436 167.395 168.598 166.116 164.864 163.61 162.38 161.335 
167.594 168.744 166.388 165.13 163.863 162.658 161.476 160.316 167.871 
168.981 166.742 165.514 164.162 162.917 161.798 160.543 159.279 169.823 
169.745 170.887 170.839 171.948 169.692 171.908 172.997 170.778 169.59 
173.021 174.06 171.878 170.659 169.488 174.114 175.084 173.069 171.812 
170.561 169.506 175.095 176.089 174.154 173.064 171.761 170.598 169.614 
176.11 177.119 175.104 174.154 173.037 171.805 170.731 169.744 177.156 
178.052 176.109 175.102 174.148 173.057 171.912 170.889 169.919 178.033 
178.784 177.1 176.062 175.118 174.188 173.105 172.019 171.065 170.163 