# vtk DataFile Version 4.0
vtk output
ASCII
DATASET POLYDATA
POINTS 1002 float
-102.563 -120.508 74.3498 -102.785 -121.832 73.9502 -102.803 -121.023 73.2731 
-102.669 -119.503 73.71 -102.923 -119.972 72.5617 -102.441 -118.891 74.7148 
-102.73 -118.352 72.9889 -102.957 -118.783 71.8487 -102.42 -117.808 74.0803 
-102.022 -117.233 75.1512 -102.485 -117.185 72.1534 -102.788 -117.594 71.1007 
-102.112 -116.727 73.3116 -101.608 -116.257 74.4556 -101.148 -115.845 75.6966 
-101.898 -116.153 71.2316 -102.472 -116.457 70.3402 -101.385 -115.808 72.3847 
-100.825 -115.455 73.6068 -100.414 -115.085 74.8743 -100.241 -114.67 76.2092 
-101.228 -115.231 70.411 -102.118 -115.28 69.7346 -100.539 -115.06 71.4621 
-99.9397 -114.812 72.6938 -99.561 -114.468 73.9699 -99.5576 -113.948 75.3239 
-99.6701 -113.345 76.6631 -100.749 -114.172 69.7984 -101.76 -114.104 69.2616 
-100.018 -114.117 70.7243 -99.4844 -113.906 71.8836 -99.0851 -113.589 73.1193 
-99.0211 -113.071 74.4566 -99.205 -112.412 75.8569 -99.3076 -111.836 77.1773 
-100.488 -112.971 69.2316 -101.39 -113.095 68.7102 -99.9004 -112.741 70.1135 
-99.5281 -112.406 71.1743 -99.1607 -112.072 72.3182 -98.9281 -111.66 73.6297 
-98.9543 -111.122 75.0394 -99.0374 -110.644 76.4185 -99.0311 -110.306 77.7088 
-100.326 -111.809 68.6157 -101.069 -112.197 68.1079 -99.9324 -111.261 69.5091 
-99.6991 -110.69 70.5152 -99.3578 -110.284 71.5096 -99.0371 -109.959 72.7525 
-98.9532 -109.551 74.2028 -98.9877 -109.158 75.5729 -98.9664 -108.91 76.8759 
-98.9088 -108.735 78.1445 -100.22 -110.668 68.0704 -100.897 -111.207 67.6687 
-99.9265 -109.941 68.909 -99.768 -109.234 69.9104 -99.4184 -108.78 70.796 
-99.0362 -108.494 71.8582 -98.9415 -108.136 73.3163 -99.0282 -107.723 74.7647 
-99.0535 -107.42 76.0034 -98.9881 -107.251 77.2432 -98.9187 -107.135 78.4858 
-103.204 -122.518 73.0163 -103.191 -121.702 72.2333 -103.835 -123.073 71.9748 
-103.803 -122.23 71.2038 -104.613 -123.413 71.0449 -103.262 -120.582 71.5203 
-104.666 -122.477 70.3867 -105.588 -123.52 70.2647 -103.875 -121.04 70.5987 
-103.305 -119.324 70.9049 -105.789 -122.462 69.6668 -106.783 -123.46 69.528 
-104.843 -121.25 69.8351 -104 -119.774 70.064 -103.307 -118.071 70.2744 
-107.001 -122.382 68.8851 -107.992 -123.284 68.7997 -106 -121.291 69.064 
-104.992 -120.05 69.2405 -104.125 -118.494 69.4866 -103.283 -116.707 69.6861 
-108.124 -122.319 68.0647 -109.082 -123.078 68.0302 -107.105 -121.322 68.2589 
-105.989 -120.181 68.399 -104.983 -118.792 68.6258 -104.185 -116.968 69.046 
-103.153 -115.228 69.2872 -109.214 -122.124 67.3121 -110.129 -122.848 67.2613 
-108.202 -121.218 67.5265 -106.989 -120.175 67.6302 -105.79 -118.96 67.73 
-104.915 -117.311 68.2198 -104.085 -115.415 68.7838 -102.818 -113.994 68.879 
-110.33 -121.606 66.8 -111.168 -122.383 66.7084 -109.384 -120.746 67.0156 
-108.176 -119.872 67.0725 -106.845 -118.91 67.0113 -105.739 -117.606 67.3276 
-104.857 -115.866 68.0153 -103.776 -114.214 68.412 -102.365 -113.092 68.297 
-111.403 -120.778 66.5723 -112.142 -121.589 66.4392 -110.554 -119.958 66.7655 
-109.435 -119.267 66.7782 -108.132 -118.588 66.6365 -106.915 -117.635 66.746 
-105.836 -116.226 67.2576 -104.715 -114.593 67.7708 -103.403 -113.233 67.9098 
-102.02 -112.218 67.7656 -112.636 -120.105 66.3628 -111.877 -119.263 66.5576 
-113.091 -118.761 66.1507 -112.136 -118.128 66.1536 -113.269 -117.898 65.4636 
-110.827 -118.638 66.5658 -111.902 -117.395 65.2215 -112.956 -117.051 64.6092 
-110.739 -117.724 65.9359 -109.494 -118.154 66.4095 -111.248 -116.343 64.4724 
-112.292 -115.787 64.4005 -110.234 -116.783 65.1316 -109.302 -117.104 66.0086 
-108.211 -117.412 66.4706 -110.698 -114.86 64.6691 -111.684 -114.489 65.0925 
-109.714 -115.309 64.8204 -108.91 -115.674 65.6903 -108.118 -115.946 66.4839 
-107.017 -116.177 66.8429 -110.453 -113.449 65.6577 -111.235 -113.355 66.1673 
-109.538 -113.662 65.3666 -108.591 -113.98 65.6661 -107.735 -114.245 66.3393 
-106.796 -114.446 66.8404 -105.691 -114.602 67.2323 -110.122 -112.138 66.7934 
-110.731 -112.124 67.1759 -109.388 -112.148 66.4475 -108.388 -112.344 66.264 
-107.272 -112.643 66.3852 -106.271 -112.801 66.7105 -105.278 -112.914 67.0754 
-104.262 -113.096 67.4749 -109.54 -110.817 67.7361 -110.132 -110.814 68.0374 
-108.917 -110.693 67.4566 -108.066 -110.676 67.1839 -106.927 -110.949 66.9844 
-105.819 -111.222 66.993 -104.858 -111.316 67.1871 -103.845 -111.506 67.383 
-102.828 -111.874 67.5392 -108.986 -109.565 68.4613 -109.619 -109.601 68.7465 
-108.346 -109.351 68.1581 -107.635 -109.081 67.8583 -106.709 -109.073 67.5987 
-105.651 -109.335 67.4742 -104.648 -109.554 67.5382 -103.615 -109.754 67.6093 
-102.502 -110.175 67.5362 -101.535 -110.736 67.4849 -100.397 -109.582 67.5669 
-101.035 -108.879 67.4378 -100.106 -107.477 67.5642 -102.098 -108.162 67.5825 
-100.729 -106.583 67.3652 -100.019 -105.308 67.6426 -103.374 -107.674 67.6775 
-101.874 -105.813 67.3997 -100.742 -104.398 67.4077 -100.166 -103.56 68.0565 
-104.608 -107.413 67.6165 -103.354 -105.375 67.3902 -102.026 -103.762 67.3705 
-101.124 -102.838 67.9821 -100.48 -102.252 68.8446 -105.711 -107.267 67.6737 
-104.772 -105.314 67.4534 -103.609 -103.572 67.4011 -102.487 -102.404 67.9872 
-101.611 -101.681 68.8739 -100.828 -100.908 69.552 -106.629 -107.363 67.9687 
-105.809 -105.584 67.8588 -104.939 -103.882 67.7877 -103.916 -102.398 68.1115 
-102.91 -101.3 68.8463 -101.99 -100.381 69.5434 -101.174 -99.3788 70.0273 
-107.389 -107.738 68.3736 -106.555 -106.018 68.4385 -105.787 -104.395 68.5222 
-105.003 -102.804 68.6676 -104.153 -101.291 69.0101 -103.239 -100.09 69.5832 
-102.345 -99.0809 70.1209 -101.549 -98.1458 70.5971 -108.132 -108.124 68.7823 
-107.347 -106.419 68.9428 -106.552 -104.743 69.1329 -105.804 -103.229 69.3641 
-105.144 -101.662 69.5568 -104.418 -100.184 69.9004 -103.6 -99.0858 70.4069 
-102.786 -98.228 70.8852 -102.017 -97.5065 71.4077 -108.871 -108.336 69.1325 
-108.211 -106.736 69.3435 -107.496 -104.982 69.5004 -106.7 -103.464 69.7737 
-106 -102.107 70.1039 -105.368 -100.661 70.4539 -104.689 -99.383 70.8844 
-104.011 -98.477 71.3208 -103.332 -97.7805 71.7599 -102.626 -97.2266 72.3388 
-99.9317 -108.802 68.1242 -99.7661 -106.683 68.2469 -99.766 -108.023 69.1095 
-99.65 -104.714 68.4681 -99.4892 -106.135 69.2793 -99.452 -107.508 70.0914 
-99.6488 -103.055 68.9921 -99.2177 -104.264 69.5505 -99.0634 -105.764 70.3058 
-99.007 -107.199 71.0501 -99.8221 -101.506 69.6712 -99.1589 -102.376 70.0696 
-98.9511 -103.654 70.7506 -98.9011 -105.267 71.5698 -98.8876 -106.803 72.4603 
-100.159 -99.8128 70.1992 -99.3564 -100.586 70.6587 -99.0274 -101.581 71.385 
-99.0283 -102.954 72.2922 -99.0332 -104.694 73.2745 -99.032 -106.317 74.1177 
-100.554 -98.2471 70.7284 -99.7429 -98.9321 71.2359 -99.2303 -99.9629 72.0552 
-99.0302 -101.076 73.0181 -98.9988 -102.556 74.0412 -99.0472 -104.315 74.9027 
-99.0976 -105.933 75.4914 -100.967 -97.3163 71.5155 -100.164 -97.6957 71.979 
-99.643 -98.6782 72.7923 -99.252 -99.785 73.7437 -98.9499 -100.961 74.7184 
-98.8681 -102.475 75.5999 -98.9848 -104.119 76.2277 -99.0549 -105.699 76.7199 
-101.516 -96.9819 72.513 -100.629 -97.1049 72.932 -100.133 -97.7973 73.6416 
-99.8121 -98.793 74.5103 -99.4041 -99.8101 75.3985 -99.0232 -101.022 76.2568 
-98.91 -102.482 76.9761 -98.977 -104.007 77.5275 -98.9868 -105.573 78.0251 
-102.657 -96.8647 73.5241 -101.54 -96.8439 73.9251 -102.799 -96.6067 75.0068 
-101.802 -96.8318 75.5351 -103.009 -96.4197 76.5666 -100.787 -97.2209 74.5099 
-102.145 -96.7683 77.1775 -103.202 -96.3014 78.1327 -101.141 -97.3841 76.1804 
-100.432 -97.9907 75.2809 -102.397 -96.7609 78.8964 -103.389 -96.4465 79.7408 
-101.384 -97.4448 77.9335 -100.667 -98.1591 76.9879 -100.097 -98.8922 76.1408 
-102.667 -97.1791 80.4636 -103.625 -97.0652 81.1338 -101.569 -97.6553 79.699 
-100.62 -98.3233 78.821 -100.108 -99.0426 77.8798 -99.5825 -99.9306 77.0137 
-102.978 -98.0274 81.5877 -103.864 -97.9658 82.2256 -101.987 -98.2859 81.0109 
-100.771 -98.6935 80.4655 -99.8958 -99.3065 79.6856 -99.4946 -100.175 78.7432 
-99.1408 -101.261 77.8326 -103.186 -98.9059 82.6251 -104.095 -98.8305 83.2669 
-102.385 -99.1617 81.968 -101.343 -99.4211 81.5474 -100.157 -99.8204 81.1124 
-99.3979 -100.586 80.3725 -99.1036 -101.616 79.4659 -98.9823 -102.769 78.5025 
-103.419 -99.7175 83.7395 -104.4 -99.6927 84.1809 -102.589 -100.017 83.0789 
-101.818 -100.39 82.4497 -100.884 -100.744 81.9976 -99.9082 -101.336 81.4837 
-99.2628 -102.226 80.7866 -99.0123 -103.246 79.9708 -98.9663 -104.376 79.0223 
-103.851 -100.675 84.5316 -104.782 -100.7 84.7501 -102.924 -100.908 84.1073 
-102.132 -101.374 83.4288 -101.476 -101.876 82.7343 -100.752 -102.426 82.1623 
-99.9442 -103.153 81.5965 -99.3309 -104.001 80.9821 -99.0368 -104.957 80.2772 
-98.9385 -106.044 79.4181 -103.789 -97.259 72.8926 -103.953 -96.7562 74.1622 
-104.914 -97.2538 73.4799 -105.167 -96.6799 74.821 -105.888 -97.4067 74.1138 
-104.071 -96.3762 75.7131 -106.232 -96.8943 75.5025 -106.861 -97.8178 74.7655 
-105.26 -96.3543 76.3868 -104.129 -96.2074 77.2797 -107.248 -97.4092 76.1636 
-107.803 -98.3958 75.3676 -106.435 -96.6849 77.0257 -105.314 -96.3581 77.9103 
-104.236 -96.2447 78.8425 -108.11 -98.1267 76.7559 -108.519 -99.185 75.9697 
-107.555 -97.2744 77.6307 -106.643 -96.8232 78.499 -105.512 -96.6037 79.4334 
-104.463 -96.6029 80.4151 -108.833 -99.0725 77.3024 -109.147 -100.173 76.5851 
-108.474 -98.0835 78.1733 -107.824 -97.5106 79.0857 -106.866 -97.2587 79.9702 
-105.798 -97.159 80.9208 -104.748 -97.3787 81.7612 -109.602 -100.113 77.7766 
-109.872 -101.1 77.0637 -109.348 -99.0622 78.636 -108.828 -98.3454 79.6185 
-107.976 -98.0697 80.5315 -107.056 -97.9718 81.3724 -106.087 -98.0231 82.2266 
-105.031 -98.326 82.8972 -110.365 -101.028 78.1357 -110.625 -101.834 77.3559 
-110.183 -100.068 79.0275 -109.826 -99.2452 80.0483 -109.039 -98.87 81.0581 
-108.109 -98.7965 81.8979 -107.288 -98.8066 82.6618 -106.355 -98.9414 83.3839 
-105.303 -99.2391 83.8981 -111.041 -101.783 78.423 -111.3 -102.482 77.5747 
-110.839 -100.999 79.3708 -110.621 -100.216 80.3902 -110.061 -99.7154 81.4399 
[...]
CELL_DATA 2000
SCALARS Distance double
LOOKUP_TABLE default
174.146 173.25 173.553 173.197 172.214 172.582 172.203 172.514 172.076 
171.008 171.433 171.002 171.404 170.915 171.277 170.816 169.691 170.111 
169.605 170.071 169.556 169.998 169.517 169.974 169.605 168.383 168.745 
168.197 168.637 168.15 168.603 168.167 168.639 168.301 168.81 168.54 
167.135 167.443 166.895 167.288 166.848 167.27 166.887 167.331 167.014 
167.512 167.26 167.778 167.538 165.948 166.213 165.649 166.023 165.572 
166.004 165.599 166.059 165.696 166.207 165.911 166.466 166.224 166.776 
166.558 164.838 165.05 164.452 164.786 164.293 164.705 164.244 164.705 
164.288 164.819 164.493 165.075 164.824 165.417 165.212 165.8 165.623 
163.815 163.964 163.335 163.611 163.102 163.451 162.976 163.357 162.929 
163.399 163.104 163.668 163.474 164.048 163.875 164.445 164.286 164.876 
164.732 174.549 174.858 174.36 173.653 175.177 174.661 173.908 173.399 
172.627 175.516 174.989 174.232 173.668 172.857 172.326 171.488 175.883 
175.346 174.614 174.027 173.226 172.62 171.779 171.178 170.279 176.242 
175.721 175.001 174.431 173.658 173.039 172.214 171.561 170.663 169.982 
169.032 176.533 176.06 175.357 174.82 174.044 173.453 172.614 171.995 
171.099 170.422 169.454 168.746 167.789 176.755 176.325 175.653 175.158 
174.378 173.801 172.922 172.327 171.428 170.82 169.889 169.201 168.226 
167.522 166.603 176.906 176.519 175.852 175.416 174.656 174.112 173.238 
172.625 171.742 171.14 170.281 169.638 168.729 168.006 167.064 166.365 
165.498 176.94 176.611 175.938 175.566 174.844 174.37 173.571 172.983 
172.171 171.543 170.756 170.097 169.262 168.537 167.63 166.88 165.983 
165.299 164.489 176.687 175.969 176.12 175.699 175.247 175.393 174.938 
175.094 174.61 174.315 174.572 174.053 174.273 173.754 173.935 173.37 
173.035 173.412 172.835 173.219 172.702 173.017 172.483 172.655 172.044 
171.828 172.069 171.463 171.852 171.358 171.824 171.362 171.706 171.127 
171.292 170.633 171.045 171.072 170.463 170.612 170.093 170.45 169.988 
170.433 169.862 170.211 169.5 169.756 169.044 170.375 170.41 169.784 
169.81 169.202 169.337 168.761 169.055 168.438 168.8 168.084 168.435 
167.689 168.042 167.352 169.538 169.66 168.995 169.084 168.374 168.467 
167.749 167.908 167.212 167.448 166.752 167.026 166.32 166.632 165.954 
166.321 165.701 168.667 168.777 168.093 168.188 167.419 167.517 166.711 
166.85 166.082 166.284 165.57 165.802 165.098 165.342 164.645 164.945 
164.309 164.699 164.171 163.219 163.256 162.694 161.684 163.566 162.813 
161.626 161.059 160.088 164.05 163.215 161.956 161.12 159.987 159.522 
158.842 164.562 163.746 162.54 161.584 160.406 159.645 158.924 158.586 
158.272 165.112 164.307 163.244 162.293 161.221 160.29 159.551 158.946 
158.626 158.29 158.042 165.789 164.96 164.048 163.139 162.262 161.295 
160.58 159.767 159.338 158.802 158.491 158.067 157.656 166.574 165.751 
164.938 164.066 163.325 162.431 161.779 160.894 160.349 159.606 159.186 
158.607 158.206 157.68 157.274 167.349 166.6 165.862 165.024 164.309 
163.483 162.858 162.048 161.479 160.664 160.165 159.429 159.053 158.408 
158.116 157.508 157.304 168.008 167.375 166.722 165.957 165.25 164.439 
163.79 163.035 162.498 161.753 161.278 160.505 160.126 159.41 159.178 
158.529 158.404 157.787 157.765 163.015 161.535 162.342 162.512 160.034 
160.856 161.124 161.974 162.289 158.833 159.46 159.764 160.607 160.987 
161.82 162.158 158.153 158.458 158.628 159.307 159.681 160.518 160.909 
161.718 162.108 157.743 157.873 157.801 158.252 158.493 159.243 159.692 
160.521 161.029 161.807 162.335 157.244 157.355 157.14 157.456 157.56 
158.146 158.574 159.369 159.987 160.818 161.455 162.193 162.769 156.808 
156.801 156.584 156.811 156.926 157.359 157.75 158.38 158.984 159.797 
160.49 161.317 161.936 162.649 163.181 156.82 156.558 156.377 156.41 
156.62 156.908 157.367 157.777 158.338 158.916 159.578 160.339 161.009 
161.778 162.358 163.049 163.583 157.325 156.862 156.715 156.492 156.74 
156.835 157.379 157.623 158.213 158.519 159.124 159.605 160.272 160.915 
161.565 162.239 162.833 163.487 164.046 157.654 158.17 157.586 157.11 
158.938 158.294 157.912 157.313 157.165 159.781 159.174 158.911 158.292 
158.198 157.672 157.79 160.709 160.094 159.906 159.329 159.269 158.757 
158.84 158.4 158.58 161.839 161.151 161.002 160.372 160.302 159.775 
159.826 159.403 159.545 159.163 159.402 163.071 162.371 162.25 161.569 
161.477 160.84 160.826 160.337 160.472 160.103 160.356 160.037 160.426 
164.265 163.592 163.479 162.837 162.77 162.092 162.042 161.413 161.502 
161.05 161.329 161.003 161.401 161.143 161.639 165.444 164.774 164.667 
164.045 164.031 163.399 163.415 162.736 162.823 162.218 162.478 162.041 
162.451 162.136 162.616 162.378 162.897 166.622 165.974 165.899 165.263 
165.279 164.67 164.761 164.139 164.29 163.653 163.892 163.322 163.677 
163.243 163.688 163.376 163.865 163.625 164.12 158.257 159.287 158.727 
158.708 160.309 159.765 159.751 159.254 159.36 161.423 160.835 160.84 
160.301 160.368 159.925 160.109 162.657 162.036 162.068 161.461 161.534 
160.981 161.131 160.702 160.989 163.899 163.298 163.372 162.764 162.884 
162.261 162.43 161.853 162.124 161.689 162.097 165.165 164.557 164.67 
164.087 164.27 163.675 163.895 163.273 163.548 162.977 163.347 162.902 
163.344 166.459 165.865 166.005 165.419 165.638 165.072 165.336 164.754 
165.048 164.464 164.816 164.27 164.664 164.182 164.582 167.637 167.134 
167.3 166.766 166.998 166.457 166.737 166.182 166.482 165.93 166.273 
165.743 166.115 165.581 165.933 165.416 165.769 168.646 168.237 168.427 
167.993 168.24 167.779 168.065 167.564 167.855 167.328 167.64 167.138 
167.482 166.99 167.311 166.788 167.078 166.576 166.9 168.131 167.926 
167.676 166.9 167.7 167.444 166.642 166.348 165.462 167.555 167.236 
166.428 166.091 165.201 164.867 164.005 167.557 167.166 166.381 165.962 
165.115 164.691 163.859 163.507 162.756 167.64 167.228 166.465 166.008 
165.199 164.724 163.925 163.484 162.73 162.353 161.621 167.77 167.346 
166.604 166.135 165.338 164.858 164.067 163.608 162.837 162.4 161.644 
161.241 160.519 167.987 167.538 166.848 166.338 165.576 165.046 164.277 
163.777 163.019 162.537 161.788 161.331 160.636 160.226 159.601 168.279 
167.828 167.206 166.675 165.971 165.383 164.656 164.081 163.376 162.814 
162.114 161.569 160.921 160.444 159.875 159.441 158.893 168.607 168.17 
167.609 167.097 166.45 165.856 165.165 164.555 163.897 163.294 162.656 
162.038 161.427 160.855 160.325 159.822 159.328 158.832 158.321 168.85 
169.922 169.132 168.663 171.127 170.27 169.762 168.944 168.464 172.304 
171.498 171 170.121 169.612 168.772 168.327 173.35 172.621 172.189 
171.375 170.883 169.999 169.522 168.691 168.309 174.399 173.661 173.256 
172.513 172.084 171.268 170.795 169.933 169.499 168.707 168.366 175.441 
174.732 174.315 173.577 173.172 172.422 172.001 171.189 170.752 169.923 
169.539 168.774 168.472 176.347 175.728 175.342 174.638 174.234 173.506 
173.116 172.361 171.971 171.173 170.793 169.986 169.651 168.902 168.648 
177.174 176.607 176.285 175.638 175.269 174.569 174.188 173.462 173.091 
172.354 172 171.235 170.892 170.114 169.816 169.099 168.89 177.955 
177.44 177.157 176.569 176.244 175.591 175.234 174.531 174.157 173.442 
173.086 172.381 172.05 171.325 171.01 170.278 170.019 169.347 169.174 
178.255 178.433 178.074 177.492 178.648 178.255 177.669 177.265 176.606 
178.875 178.465 177.825 177.422 176.742 176.329 175.611 178.966 178.614 
177.925 177.546 176.845 176.444 175.7 175.28 174.53 179.028 178.658 
178.007 177.626 176.948 176.545 175.809 175.364 174.581 174.166 173.438 
179.328 178.843 178.244 177.778 177.137 176.687 175.976 175.5 174.711 
174.237 173.469 173.086 172.402 179.637 179.207 178.567 178.089 177.401 
176.914 176.171 175.682 174.887 174.393 173.6 173.152 172.427 172.062 
171.394 179.492 179.295 178.577 178.279 177.519 177.118 176.305 175.845 
175.017 174.549 173.751 173.298 172.549 172.128 171.431 171.062 170.419 
178.963 178.897 178.178 178.055 177.322 177.084 176.301 175.924 175.101 
174.655 173.862 173.426 172.688 172.265 171.562 171.15 170.498 170.135 
169.562 178.441 177.543 177.851 177.653 176.721 176.968 176.67 177.048 
176.841 175.69 176.047 175.692 176.067 175.808 176.203 175.902 174.404 
174.874 174.534 174.994 174.709 175.147 174.814 175.174 174.751 173.086 
173.571 173.244 173.738 173.439 173.949 173.613 174.041 173.61 173.96 
173.517 171.742 172.267 171.93 172.423 172.087 172.609 172.282 172.776 
172.385 172.791 172.364 172.738 172.345 170.315 170.879 170.555 171.081 
170.735 171.246 170.922 171.435 171.102 171.557 171.176 171.576 171.192 
171.586 171.227 168.927 169.456 169.169 169.703 169.397 169.902 169.584 
170.092 169.788 170.284 169.955 170.392 170.032 170.432 170.082 170.483 
170.166 167.67 168.133 167.865 168.373 168.109 168.599 168.293 168.774 
168.464 168.97 168.673 169.162 168.845 169.279 168.959 169.363 169.078 
169.481 169.239 178.752 179.021 178.561 177.943 179.254 178.883 178.336 
177.856 177.21 179.107 178.962 178.437 178.183 177.515 177.021 176.174 
178.558 178.547 177.964 177.999 177.334 177.103 176.173 175.738 174.783 
177.991 177.902 177.253 177.325 176.681 176.654 175.758 175.508 174.514 
174.225 173.361 177.568 177.4 176.7 176.641 175.979 175.946 175.128 
174.967 174.019 173.817 172.939 172.772 171.973 177.099 176.98 176.224 
176.112 175.372 175.297 174.507 174.37 173.49 173.3 172.437 172.278 
171.466 171.327 170.532 176.504 176.453 175.705 175.595 174.818 174.707 
173.928 173.803 172.995 172.819 172.002 171.809 171.015 170.831 170.046 
169.886 169.14 175.9 175.867 175.201 175.09 174.368 174.206 173.462 
173.295 172.543 172.368 171.6 171.41 170.642 170.44 169.678 169.469 
168.725 168.556 167.881 179.463 180.67 179.915 179.665 181.824 181.14 
180.849 180.13 179.858 182.586 182.155 181.948 181.327 181.016 180.265 
179.807 182.939 182.691 182.552 182.241 182.055 181.45 180.97 180.077 
179.387 183.245 182.98 182.808 182.628 182.516 182.253 181.89 181.211 
180.484 179.553 178.812 183.566 183.338 183.175 182.91 182.729 182.514 
182.183 181.821 181.177 180.518 179.739 178.963 178.31 183.616 183.575 
183.467 183.295 183.064 182.762 182.332 181.966 181.363 180.935 180.252 
179.714 179.042 178.415 177.792 183.423 183.477 183.359 183.391 183.164 
183.009 182.527 182.15 181.504 181.082 180.468 180.065 179.473 178.988 
178.346 177.777 177.135 183.258 183.255 183.082 183.132 182.886 182.886 
182.438 182.232 181.59 181.238 180.614 180.266 179.715 179.325 178.718 
178.224 177.564 177.044 176.447 183.166 182.893 182.988 182.906 182.455 
182.621 182.453 182.644 182.573 181.789 182.058 181.824 182.053 181.843 
182.173 182.036 180.885 181.269 181.016 181.302 181.002 181.314 181.072 
181.465 181.224 179.767 180.26 180.037 180.409 180.102 180.41 180.107 
180.458 180.219 180.592 180.334 178.536 179.081 178.9 179.363 179.089 
179.457 179.131 179.474 179.197 179.591 179.366 179.736 179.465 177.336 
177.86 177.697 178.192 177.946 178.381 178.067 178.449 178.137 178.542 
178.282 178.712 178.431 178.814 178.457 176.212 176.697 176.529 177.004 
176.77 177.217 176.931 177.346 177.057 177.466 177.207 177.618 177.337 
177.72 177.366 177.72 177.322 175.146 175.595 175.414 175.862 175.63 
176.063 175.793 176.213 175.952 176.381 176.155 176.572 176.327 176.681 
176.364 176.666 176.306 176.608 176.253 174.511 173.557 174.279 174.733 
172.452 173.25 173.706 174.467 174.917 171.264 172.1 172.585 173.392 
173.866 174.63 175.073 170.119 170.936 171.464 172.277 172.784 173.565 
174.049 174.793 175.252 169.037 169.821 170.342 171.169 171.689 172.491 
172.989 173.765 174.27 175.013 175.487 167.995 168.733 169.191 170.015 
170.527 171.374 171.87 172.683 173.177 173.988 174.492 175.248 175.672 
167.029 167.705 168.118 168.866 169.361 170.197 170.722 171.547 172.023 
172.841 173.32 174.16 174.608 175.364 175.702 166.119 166.768 167.169 
167.843 168.303 169.073 169.607 170.42 170.907 171.686 172.124 172.94 
173.397 174.225 174.623 175.344 175.646 165.226 165.866 166.257 166.911 
167.324 168.042 168.527 169.322 169.812 170.585 171.008 171.769 172.211 
173.023 173.486 174.258 174.637 175.304 175.609 175.39 174.401 174.848 
174.693 173.235 173.77 173.605 174.081 173.866 171.932 172.493 172.316 
172.893 172.686 173.183 172.941 170.683 171.165 170.919 171.509 171.299 
171.899 171.658 172.204 171.973 169.464 169.912 169.574 170.099 169.825 
170.434 170.178 170.803 170.559 171.184 170.986 168.186 168.633 168.255 
168.748 168.429 168.98 168.695 169.284 169.021 169.672 169.478 170.168 
170.015 166.975 167.351 166.949 167.406 167.081 167.61 167.332 167.865 
167.584 168.151 167.935 168.611 168.476 169.19 169.055 165.887 166.192 
165.738 166.119 165.739 166.245 165.954 166.511 166.229 166.769 166.506 
167.104 166.931 167.627 167.509 168.223 168.102 164.853 165.123 164.63 
164.939 164.486 164.905 164.541 165.084 164.79 165.378 165.117 165.705 
165.5 166.129 166 166.684 166.6 167.304 167.252 177.613 177.576 
177.954 178.635 177.413 177.846 178.535 178.946 179.626 177.218 177.668 
178.36 178.794 179.484 179.904 180.624 176.952 177.454 178.17 178.626 
179.289 179.711 180.389 180.881 181.631 176.565 177.113 177.823 178.377 
179.052 179.507 180.098 180.556 181.196 181.778 182.402 176.176 176.688 
177.354 177.941 178.664 179.221 179.868 180.289 180.852 181.3 181.875 
182.394 182.827 175.846 176.317 176.955 177.479 178.208 178.805 179.57 
180.075 180.718 181.073 181.622 181.975 182.463 182.796 183.096 175.518 
175.99 176.613 177.107 177.787 178.363 179.121 179.731 180.437 180.919 
181.474 181.822 182.27 182.558 182.889 183.095 183.263 175.17 175.641 
176.234 176.735 177.352 177.91 178.57 179.205 179.857 180.48 181.015 
181.527 181.917 182.313 182.581 182.87 183.016 183.204 183.259 177.772 
178.843 178.321 178.297 179.872 179.401 179.405 178.824 178.755 180.94 
180.466 180.499 179.909 179.838 179.264 179.205 182.07 181.636 181.709 
181.046 180.944 180.325 180.282 179.735 179.646 182.876 182.691 182.796 
182.248 182.054 181.413 181.305 180.791 180.749 180.149 179.887 183.163 
183.204 183.271 183.048 182.78 182.334 182.081 181.692 181.618 181.189 
180.978 180.274 179.806 183.266 183.302 183.322 183.251 183.035 182.788 
182.506 182.244 182.087 181.85 181.652 181.209 180.762 180.062 179.511 
183.37 183.371 183.403 183.317 183.247 183.036 182.901 182.619 182.454 
182.184 181.929 181.633 181.203 180.774 180.223 179.661 179.151 183.383 
183.434 183.511 183.477 183.525 183.38 183.391 183.123 183.015 182.628 
182.306 181.876 181.389 181.01 180.487 180.129 179.642 179.227 178.8 
177.181 177.659 177.09 176.447 178.124 177.555 176.9 176.36 175.737 
178.591 178.02 177.34 176.79 176.121 175.608 174.861 178.966 178.442 
177.69 177.159 176.387 175.9 175.095 174.57 173.646 179.084 178.668 
177.846 177.392 176.542 176.068 175.22 174.735 173.875 173.312 172.459 
178.962 178.628 177.824 177.458 176.67 176.208 175.402 174.888 174.129 
173.602 172.892 172.313 171.654 178.758 178.465 177.744 177.436 176.786 
176.386 175.683 175.161 174.459 173.941 173.312 172.791 172.158 171.6 
170.956 178.541 178.298 177.652 177.391 176.809 176.512 175.872 175.444 
174.73 174.267 173.609 173.171 172.516 172.024 171.305 170.795 170.092 
178.295 178.111 177.506 177.289 176.697 176.477 175.84 175.532 174.8 
174.427 173.714 173.359 172.677 172.272 171.529 171.054 170.305 169.852 
169.188 179.613 180.174 180.228 180.834 180.284 180.622 181.257 181.414 
181.935 179.921 180.446 181.088 181.56 182.131 182.348 182.67 179.64 
180.049 180.671 181.186 181.829 182.302 182.771 182.921 183.086 179.624 
179.929 180.54 180.874 181.503 181.943 182.552 182.907 183.278 183.307 
183.425 179.477 179.874 180.442 180.804 181.372 181.737 182.338 182.713 
183.221 183.431 183.671 183.636 183.684 179.146 179.565 180.032 180.512 
181.04 181.538 182.134 182.57 183.111 183.388 183.702 183.776 183.831 
183.774 183.697 178.905 179.225 179.639 180.028 180.522 181.054 181.682 
182.264 182.853 183.265 183.601 183.762 183.829 183.824 183.737 183.666 
183.531 178.761 179.052 179.507 179.774 180.268 180.628 181.226 181.748 
182.341 182.864 183.215 183.541 183.608 183.735 183.663 183.669 183.565 
183.497 183.391 
POINT_DATA 1002
SCALARS Distance double
LOOKUP_TABLE default
173.841 174.717 173.883 172.94 172.93 172.815 171.882 171.835 171.79 
171.626 170.586 170.607 170.542 170.416 170.409 169.143 169.325 169.088 
169.04 169.099 169.31 167.769 168.058 167.682 167.684 167.781 168.026 
168.289 166.504 166.845 166.416 166.448 166.531 166.732 167.025 167.303 
165.293 165.708 165.152 165.153 165.201 165.361 165.647 166.004 166.372 
164.151 164.656 163.915 163.817 163.767 163.901 164.225 164.606 165.029 
165.472 163.089 163.701 162.771 162.625 162.491 162.532 162.885 163.319 
163.704 164.13 164.598 175.049 174.15 175.378 174.457 175.698 173.121 
174.812 176.04 173.428 172.025 175.187 176.424 173.845 172.41 170.906 
175.556 176.749 174.264 172.867 171.37 169.716 175.878 176.976 174.642 
173.229 171.75 170.183 168.466 176.124 177.169 174.959 173.536 172.005 
170.532 168.958 167.257 176.266 177.286 175.169 173.843 172.338 170.887 
169.429 167.803 166.132 176.285 177.253 175.267 174.1 172.771 171.407 
169.978 168.381 166.707 165.112 176.528 175.551 175.833 174.799 175.112 
174.467 173.807 174.027 173.556 173.24 172.403 172.677 172.298 172.256 
171.956 171.131 171.68 170.858 170.922 170.911 170.517 170.411 171.049 
169.853 169.575 169.47 169.209 168.778 169.773 170.306 169.172 168.588 
168.124 167.725 167.322 166.971 168.905 169.405 168.311 167.645 167.018 
166.5 166.035 165.607 165.286 168.025 168.572 167.351 166.597 165.893 
165.34 164.876 164.388 163.944 163.7 162.258 162.128 160.671 162.372 
160.383 159.216 162.891 160.609 158.974 158.341 163.476 161.257 159.358 
158.447 158.032 164.108 162.151 160.26 159.039 158.397 157.702 164.881 
163.16 161.477 160.006 158.975 158.106 157.165 165.778 164.159 162.66 
161.202 159.842 158.744 157.772 156.889 166.673 165.137 163.632 162.285 
160.953 159.705 158.713 157.867 157.159 167.431 166.065 164.55 163.189 
162.023 160.861 159.815 159.009 158.337 157.802 161.681 160.221 161.476 
158.947 160.129 161.362 158.092 158.851 160.067 161.303 157.499 157.818 
158.816 160.198 161.592 156.869 157.057 157.812 159.101 160.672 162.108 
156.373 156.515 157.213 158.233 159.626 161.18 162.527 156.415 156.348 
157.003 157.891 158.897 160.219 161.633 162.921 157.017 156.717 157.159 
157.979 158.776 159.705 160.898 162.17 163.414 158.145 157.601 158.77 
158.517 159.531 157.624 159.481 160.336 158.739 158.236 160.47 161.326 
159.773 159.3 158.989 161.661 162.531 160.879 160.259 159.923 159.73 
162.922 163.761 162.169 161.388 160.836 160.663 160.681 164.096 164.942 
163.422 162.722 162.018 161.657 161.672 161.855 165.287 166.106 164.62 
164.055 163.471 162.983 162.798 162.886 163.113 166.53 167.233 165.883 
165.337 164.895 164.508 164.189 164.048 164.132 164.352 158.828 159.213 
159.825 160.262 160.844 159.785 161.402 162.026 160.861 160.465 162.682 
163.267 162.124 161.622 161.309 163.949 164.486 163.49 163.041 162.63 
162.436 165.24 165.773 164.825 164.496 164.151 163.868 163.741 166.584 
167.024 166.194 165.897 165.619 165.376 165.205 165.047 167.797 168.092 
167.521 167.283 167.033 166.796 166.65 166.492 166.26 168.824 169.024 
168.664 168.537 168.379 168.157 167.968 167.829 167.615 167.362 168.393 
167.208 168.179 166.947 167.978 165.773 166.785 167.905 165.554 164.279 
166.811 167.958 165.55 164.244 163.057 166.918 168.047 165.668 164.382 
163.153 161.982 167.076 168.19 165.822 164.528 163.293 162.069 160.885 
167.352 168.422 166.121 164.791 163.514 162.254 161.043 159.982 167.712 
168.707 166.557 165.24 163.941 162.677 161.414 160.31 159.335 169.588 
169.419 170.764 170.632 171.991 169.238 171.875 173.051 170.498 169.104 
172.942 174.061 171.755 170.398 169.068 173.986 175.154 172.846 171.654 
170.336 169.098 175.059 176.114 173.904 172.772 171.583 170.341 169.182 
176.016 176.915 174.956 173.847 172.732 171.601 170.44 169.337 176.896 
177.717 175.948 174.908 173.813 172.733 171.67 170.571 169.543 177.713 