# vtk DataFile Version 4.0
vtk output
ASCII
DATASET POLYDATA
POINTS 1002 float
-106.151 -119.64 76.4607 -106.614 -120.746 76.0607 -106.334 -120.235 75.3739 
-105.898 -118.974 75.8286 -106.156 -119.463 74.6148 -105.838 -118.193 76.9441 
-105.666 -117.951 75.0738 -105.939 -118.331 73.8979 -105.469 -117.312 76.3541 
-105.392 -116.576 77.542 -105.28 -116.716 74.3622 -105.617 -117.004 73.2894 
-105 -116.224 75.6215 -104.757 -115.675 76.9663 -104.665 -115.104 78.1915 
-104.706 -115.624 73.7386 -105.13 -115.865 72.6135 -104.381 -115.228 74.9336 
-104.072 -114.774 76.2858 -103.854 -114.32 77.6356 -103.867 -113.766 78.7657 
-103.993 -114.737 72.9604 -104.448 -114.975 71.7807 -103.631 -114.391 74.2215 
-103.358 -113.949 75.5973 -103.086 -113.521 77.0246 -103.008 -112.998 78.2404 
-103.128 -112.411 79.2456 -103.294 -113.806 72.1184 -103.798 -114.038 71.0935 
-102.851 -113.478 73.3438 -102.539 -113.062 74.7589 -102.253 -112.676 76.3128 
-102.076 -112.24 77.675 -102.185 -111.656 78.7343 -102.376 -111.138 79.71 
-102.775 -112.725 71.5475 -103.375 -112.9 70.7208 -102.228 -112.474 72.5931 
-101.77 -112.149 73.8501 -101.399 -111.836 75.3943 -101.112 -111.529 76.9495 
-101.124 -111.053 78.1979 -101.38 -110.485 79.2412 -101.643 -110.041 80.2137 
-102.375 -111.595 71.1584 -103.062 -111.724 70.461 -101.774 -111.457 72.0882 
-101.229 -111.281 73.1409 -100.787 -111.058 74.4478 -100.447 -110.791 76.0045 
-100.321 -110.41 77.4738 -100.461 -109.914 78.7274 -100.71 -109.434 79.8286 
-101.028 -109.04 80.7309 -101.992 -110.568 70.7315 -102.733 -110.707 70.1601 
-101.385 -110.442 71.599 -100.855 -110.31 72.5697 -100.426 -110.142 73.6498 
-100.125 -109.877 75.0262 -99.9791 -109.483 76.5523 -99.9929 -109.047 77.9745 
-100.068 -108.673 79.2682 -100.222 -108.354 80.3687 -100.584 -108.04 81.165 
-107.109 -121.329 75.2243 -106.857 -120.682 74.4089 -107.844 -121.626 74.3033 
-107.578 -120.85 73.4707 -108.632 -121.714 73.3395 -106.617 -119.842 73.6418 
-108.337 -120.89 72.5255 -109.356 -121.762 72.2303 -107.241 -119.97 72.7559 
-106.372 -118.64 72.9793 -109.078 -120.84 71.4161 -110.121 -121.657 71.0911 
-107.965 -119.937 71.78 -106.975 -118.782 72.0685 -106.111 -117.248 72.3112 
-109.917 -120.495 70.3604 -111.035 -121.123 70.2157 -108.761 -119.683 70.6671 
-107.695 -118.758 71.0503 -106.711 -117.461 71.3089 -105.614 -116.083 71.5011 
-110.889 -119.876 69.5489 -111.963 -120.372 69.4205 -109.665 -119.196 69.7154 
-108.482 -118.473 70.0279 -107.402 -117.493 70.3638 -106.194 -116.264 70.5479 
-104.906 -115.111 70.7343 -111.774 -119.298 68.7144 -112.696 -119.829 68.4271 
-110.593 -118.694 68.9073 -109.291 -118.08 69.0785 -108.163 -117.271 69.4135 
-107.017 -116.184 69.7721 -105.668 -115.071 70.017 -104.395 -113.991 70.3023 
-112.406 -118.805 67.8365 -113.243 -119.404 67.4928 -111.335 -118.21 68.074 
-110.008 -117.688 68.1384 -108.821 -117.004 68.3535 -107.862 -115.961 68.8671 
-106.745 -114.819 69.4 -105.413 -113.763 69.7989 -104.141 -112.711 70.129 
-112.893 -118.196 67.2099 -113.756 -118.772 66.9352 -111.863 -117.603 67.3726 
-110.595 -117.125 67.3217 -109.368 -116.61 67.3727 -108.445 -115.74 67.8505 
-107.611 -114.601 68.5799 -106.536 -113.511 69.2456 -105.222 -112.494 69.7132 
-103.888 -111.525 69.9743 -113.744 -117.529 66.8145 -112.654 -116.963 66.9106 
-113.604 -116.196 66.6085 -112.259 -115.67 66.3089 -113.245 -114.971 66.0029 
-111.368 -116.416 66.7312 -111.832 -114.435 65.3191 -112.747 -113.788 65.2332 
-110.935 -115.112 65.8757 -110.083 -115.938 66.5779 -111.457 -113.242 64.5109 
-112.26 -112.602 64.9407 -110.739 -113.809 65.0465 -109.879 -114.508 66.0536 
-109.029 -115.28 66.9428 -111.071 -111.998 64.556 -111.851 -111.372 65.309 
-110.512 -112.574 64.7673 -109.806 -113.085 65.8453 -108.848 -113.73 66.8777 
-108.134 -114.285 67.717 -110.71 -110.588 65.3824 -111.537 -110.042 66.0235 
-110.045 -111.259 65.3472 -109.414 -111.803 66.057 -108.52 -112.297 66.9258 
-107.702 -112.811 67.707 -107.176 -113.188 68.5307 -110.422 -109.214 66.5058 
-111.242 -108.826 66.9401 -109.568 -109.81 66.4418 -108.793 -110.446 66.7663 
-107.98 -110.97 67.1787 -107.159 -111.439 67.7024 -106.549 -111.824 68.4822 
-105.975 -112.13 69.2344 -110.066 -108.115 67.6581 -110.838 -107.853 67.9906 
-109.169 -108.467 67.5414 -108.256 -108.937 67.6437 -107.413 -109.447 67.7515 
-106.617 -109.939 67.9491 -105.887 -110.386 68.4987 -105.217 -110.754 69.1758 
-104.534 -111.108 69.6493 -109.58 -107.11 68.6581 -110.332 -106.91 68.9125 
-108.733 -107.267 68.4505 -107.813 -107.449 68.3667 -106.896 -107.753 68.3559 
-106.041 -108.187 68.4145 -105.234 -108.702 68.6957 -104.45 -109.246 69.1319 
-103.722 -109.761 69.4859 -103.131 -110.238 69.7778 -101.887 -109.684 70.0857 
-102.23 -109.087 69.6305 -101.185 -108.496 70.1316 -102.822 -108.349 69.3804 
-101.533 -107.646 69.6249 -100.717 -106.891 70.423 -103.598 -107.532 69.1963 
-102.103 -106.586 69.3592 -101.05 -105.754 69.8346 -100.301 -104.894 70.7536 
-104.478 -106.831 68.9979 -102.876 -105.625 69.2813 -101.627 -104.601 69.4664 
-100.625 -103.637 70.0588 -99.9013 -102.849 70.8915 -105.47 -106.326 68.8646 
-103.902 -104.987 69.264 -102.544 -103.827 69.4161 -101.404 -102.673 69.6485 
-100.386 -101.68 70.2389 -99.7955 -101.022 71.0883 -106.533 -106.027 68.8516 
-105.139 -104.56 69.235 -103.787 -103.313 69.4888 -102.584 -102.064 69.6077 
-101.444 -100.872 69.9261 -100.535 -100.043 70.6104 -100.061 -99.5348 71.6271 
-107.547 -105.941 68.9832 -106.343 -104.34 69.3001 -105.136 -102.877 69.5376 
-103.931 -101.504 69.6715 -102.745 -100.198 69.8597 -101.688 -99.2947 70.3571 
-100.943 -98.7668 71.2075 -100.525 -98.4311 72.3456 -108.468 -105.925 69.2205 
-107.382 -104.325 69.5168 -106.353 -102.69 69.6771 -105.282 -101.147 69.7729 
-104.143 -99.6691 69.8867 -103.023 -98.6517 70.2458 -102.081 -98.1626 70.9215 
-101.433 -97.8298 71.8757 -101.08 -97.6299 73.0355 -109.323 -105.833 69.4433 
-108.324 -104.34 69.7424 -107.419 -102.724 69.897 -106.519 -101.186 69.9994 
-105.561 -99.6273 70.0703 -104.549 -98.3615 70.2996 -103.507 -97.7486 70.83 
-102.588 -97.4363 71.5976 -101.967 -97.1316 72.5731 -101.667 -97.0209 73.6975 
-101.196 -109.476 70.8201 -100.604 -108.085 71.0654 -100.657 -109.21 71.82 
-100.228 -106.27 71.4535 -100.184 -107.571 72.1263 -100.232 -108.928 72.8567 
-99.9028 -104.267 71.7157 -99.9596 -105.698 72.5188 -99.8958 -107.144 73.2837 
-99.9399 -108.634 74.1171 -99.6763 -102.28 71.8824 -99.8526 -103.816 72.9106 
-99.8113 -105.317 73.9537 -99.7094 -106.763 74.8604 -99.8097 -108.213 75.6995 
-99.6887 -100.444 72.3444 -99.7701 -101.829 73.3927 -99.8129 -103.461 74.6789 
-99.642 -104.937 75.7868 -99.662 -106.286 76.5533 -99.8237 -107.731 77.2601 
-99.96 -99.052 73.102 -99.7581 -100.044 74.055 -99.7636 -101.492 75.2737 
-99.6298 -103.11 76.4963 -99.5483 -104.519 77.334 -99.6774 -105.904 77.9761 
-99.8189 -107.411 78.6857 -100.498 -98.1693 73.8444 -100.08 -98.9304 74.7334 
-99.8748 -99.9613 75.7569 -99.6942 -101.353 76.9152 -99.5145 -102.853 77.8778 
-99.5132 -104.262 78.5725 -99.6115 -105.762 79.3042 -99.7936 -107.241 79.9949 
-101.189 -97.5646 74.4918 -100.779 -98.3243 75.3212 -100.422 -99.1305 76.1924 
-100.055 -100.093 77.2429 -99.6947 -101.346 78.3155 -99.5238 -102.718 79.1213 
-99.5478 -104.165 79.8114 -99.6776 -105.704 80.5219 -100.012 -107.058 81.0105 
-101.997 -96.8283 74.9175 -101.654 -97.5962 75.7534 -102.397 -96.8116 76.3093 
-102.109 -97.6438 77.1289 -102.781 -96.8208 77.7814 -101.318 -98.4485 76.5622 
-102.44 -97.5859 78.5959 -103.308 -96.8878 79.1749 -101.723 -98.4311 77.9771 
-100.836 -99.2155 77.5283 -102.951 -97.703 80.0015 -104.13 -97.2329 80.3768 
-101.993 -98.3938 79.5269 -101.087 -99.2206 79.097 -100.227 -100.154 78.7231 
-103.748 -98.0774 81.2557 -104.957 -97.6948 81.5284 -102.548 -98.6251 80.9327 
-101.461 -99.3747 80.5897 -100.502 -100.265 80.2459 -99.8277 -101.38 79.7398 
-104.457 -98.4071 82.4835 -105.576 -98.0359 82.7453 -103.285 -98.9283 82.1899 
-102.188 -99.683 81.8085 -101.197 -100.542 81.4259 -100.366 -101.525 81.0026 
-99.7938 -102.786 80.4304 -105.087 -98.8267 83.5845 -106.213 -98.5039 83.7655 
-103.915 -99.2679 83.3794 -102.872 -99.9791 83.025 -102.001 -100.892 82.4979 
-101.232 -101.861 81.9867 -100.513 -103.015 81.5352 -99.9344 -104.38 81.0597 
-105.894 -99.5759 84.3219 -106.983 -99.2592 84.4169 -104.683 -99.9389 84.2498 
-103.544 -100.477 84.1067 -102.615 -101.295 83.6891 -101.901 -102.304 83.0625 
-101.326 -103.418 82.4774 -100.748 -104.659 82.0069 -100.241 -105.93 81.5558 
-106.762 -100.396 84.8453 -107.731 -100.044 84.9282 -105.631 -100.772 84.7933 
-104.477 -101.214 84.7654 -103.427 -101.847 84.5839 -102.533 -102.758 84.1272 
-101.921 -103.853 83.489 -101.547 -104.982 82.832 -101.163 -106.092 82.2584 
-100.779 -107.136 81.739 -102.447 -96.517 73.7055 -102.77 -96.2361 75.0224 
-103.562 -96.2037 73.8362 -103.948 -95.9187 75.1716 -105.091 -96.0914 74.0885 
-103.19 -96.1771 76.5551 -105.591 -95.9044 75.4062 -106.754 -96.1761 74.4867 
-104.502 -95.8896 76.7823 -103.739 -96.2247 78.1499 -107.353 -96.073 75.8105 
-108.223 -96.4888 75.0189 -106.246 -95.9355 77.0965 -105.223 -95.9878 78.51 
-104.539 -96.4376 79.5589 -108.929 -96.297 76.2971 -109.445 -96.964 75.5389 
-108.084 -96.0257 77.4996 -106.993 -96.0053 78.9411 -106.054 -96.2466 80.0014 
-105.439 -96.9134 80.7419 -110.201 -96.6781 76.7126 -110.43 -97.6035 75.9646 
-109.805 -96.0545 77.8029 -108.936 -95.9502 79.2526 -107.789 -96.1682 80.4601 
-106.83 -96.6703 81.2306 -106.153 -97.3708 81.9684 -111.126 -97.4387 77.045 
-111.234 -98.4315 76.3028 -111.093 -96.4502 78.0037 -110.747 -95.9688 79.3185 
-109.808 -96.0892 80.6638 -108.576 -96.5087 81.654 -107.523 -97.0809 82.448 
-106.776 -97.7551 83.1925 -111.899 -98.3858 77.2626 -112.026 -99.243 76.5111 
-111.887 -97.3831 78.1729 -111.854 -96.5773 79.3258 -111.457 -96.3397 80.6427 
-110.517 -96.5755 81.8238 -109.292 -97.0138 82.7459 -108.22 -97.6077 83.4996 
-107.489 -98.3834 84.0631 -112.712 -99.1638 77.3505 -112.84 -99.8847 76.6061 
-112.576 -98.3827 78.2616 -112.452 -97.634 79.3426 -112.286 -97.1436 80.5854 
[...]
CELL_DATA 2000
SCALARS Distance double
LOOKUP_TABLE default
176.579 175.701 176.003 175.67 174.6 175.01 174.638 174.997 174.609 
173.295 173.77 173.355 173.813 173.398 173.836 173.456 171.949 172.417 
172.004 172.468 172.071 172.543 172.188 172.663 172.333 170.592 171.066 
170.662 171.133 170.757 171.232 170.901 171.385 171.073 171.546 171.227 
169.23 169.689 169.252 169.752 169.345 169.88 169.53 170.077 169.754 
170.266 169.937 170.424 170.119 167.972 168.354 167.898 168.338 167.91 
168.418 168.062 168.639 168.342 168.909 168.614 169.129 168.848 169.35 
169.121 166.828 167.146 166.692 167.062 166.657 167.065 166.731 167.22 
166.975 167.519 167.305 167.832 167.623 168.124 167.943 168.439 168.291 
165.764 166.028 165.563 165.909 165.518 165.896 165.559 165.987 165.734 
166.233 166.042 166.57 166.4 166.926 166.777 167.294 167.168 167.669 
167.557 176.976 177.245 176.777 176.078 177.431 176.987 176.244 175.803 
175.016 177.518 177.119 176.363 175.931 175.119 174.645 173.754 177.496 
177.15 176.392 176.003 175.187 174.735 173.83 173.324 172.397 177.383 
177.075 176.292 175.955 175.152 174.773 173.894 173.403 172.44 171.94 
171.018 177.21 176.936 176.151 175.815 175.019 174.692 173.878 173.459 
172.522 171.994 171.018 170.542 169.657 176.981 176.758 176.028 175.695 
174.897 174.557 173.772 173.42 172.569 172.09 171.142 170.599 169.686 
169.221 168.411 176.697 176.519 175.824 175.556 174.75 174.423 173.602 
173.291 172.49 172.12 171.275 170.776 169.907 169.361 168.535 168.051 
167.294 176.384 176.219 175.508 175.292 174.467 174.194 173.331 173.065 
172.264 171.999 171.239 170.885 170.113 169.634 168.843 168.29 167.502 
166.99 166.259 175.987 174.979 175.347 175.032 173.757 174.185 173.77 
174.251 173.902 172.379 172.824 172.342 172.86 172.49 173.051 172.754 
171.066 171.424 170.971 171.444 171.134 171.662 171.431 171.962 171.738 
170.002 170.224 169.817 170.206 169.984 170.44 170.253 170.717 170.514 
171.004 170.77 169.145 169.281 168.869 169.182 168.973 169.387 169.177 
169.588 169.323 169.786 169.532 170.026 169.723 168.46 168.521 168.097 
168.309 168.043 168.395 168.127 168.496 168.152 168.568 168.254 168.755 
168.447 168.921 168.52 167.936 167.94 167.491 167.587 167.209 167.454 
167.086 167.408 166.99 167.366 166.972 167.443 167.084 167.587 167.167 
167.627 167.162 167.409 167.438 166.917 166.967 166.432 166.579 166.046 
166.308 165.777 166.137 165.641 166.1 165.653 166.165 165.711 166.21 
165.746 166.238 165.849 165.044 164.82 164.508 163.772 164.711 164.284 
163.385 163.185 162.503 164.644 164.157 163.117 162.772 161.901 161.832 
161.139 164.656 164.105 163.022 162.521 161.51 161.235 160.388 160.361 
159.649 164.84 164.214 163.188 162.546 161.549 161.015 160.123 159.771 
158.997 158.901 158.321 165.215 164.54 163.601 162.874 161.959 161.276 
160.422 159.803 159.015 158.56 157.96 157.816 157.502 165.737 165.053 
164.202 163.426 162.553 161.813 160.97 160.262 159.435 158.808 158.144 
157.751 157.393 157.288 157.21 166.316 165.671 164.902 164.117 163.27 
162.482 161.649 160.877 160.041 159.308 158.602 158.065 157.656 157.377 
157.246 157.185 157.256 166.848 166.276 165.567 164.838 164.032 163.248 
162.473 161.662 160.91 160.062 159.404 158.676 158.281 157.798 157.656 
157.383 157.396 157.331 157.494 165.017 163.814 164.523 164.804 162.614 
163.339 163.631 164.387 164.755 161.317 162.121 162.408 163.194 163.565 
164.37 164.796 159.878 160.768 161.132 161.968 162.361 163.172 163.651 
164.471 164.98 158.545 159.354 159.852 160.741 161.283 162.067 162.599 
163.371 163.951 164.74 165.303 157.669 158.207 158.72 159.556 160.26 
161.099 161.735 162.451 163.028 163.756 164.358 165.115 165.684 157.349 
157.594 158.008 158.596 159.282 160.11 160.833 161.618 162.203 162.896 
163.452 164.186 164.792 165.534 166.1 157.429 157.497 157.875 158.142 
158.726 159.279 159.987 160.713 161.359 162.063 162.612 163.308 163.897 
164.649 165.279 165.989 166.539 157.713 157.723 158.157 158.242 158.792 
159.01 159.642 160.067 160.725 161.291 161.895 162.511 163.105 163.795 
164.447 165.179 165.809 166.459 166.975 158.037 158.863 158.473 158.583 
159.807 159.401 159.545 159.117 159.241 160.771 160.338 160.471 160.083 
160.2 159.786 159.969 161.921 161.343 161.425 160.985 161.114 160.716 
160.878 160.545 160.875 163.264 162.591 162.627 162.039 162.16 161.676 
161.865 161.465 161.754 161.498 161.951 164.538 163.914 163.916 163.303 
163.39 162.837 163.026 162.539 162.822 162.437 162.844 162.614 163.151 
165.733 165.13 165.131 164.541 164.614 164.077 164.258 163.761 164.038 
163.586 163.973 163.616 164.132 163.897 164.503 166.991 166.367 166.41 
165.777 165.871 165.298 165.488 164.985 165.264 164.813 165.19 164.802 
165.287 164.974 165.533 165.297 165.872 168.24 167.659 167.737 167.112 
167.217 166.609 166.788 166.24 166.498 166.024 166.373 165.989 166.432 
166.118 166.608 166.336 166.82 166.592 167.046 157.97 158.296 158.254 
158.71 159.055 158.727 159.067 159.093 159.651 160.237 159.68 159.933 
159.649 160.138 160.114 160.703 161.629 160.995 161.242 160.737 161.166 
160.85 161.413 161.289 161.934 163.007 162.411 162.675 162.14 162.542 
162.073 162.558 162.214 162.805 162.649 163.309 164.28 163.743 163.995 
163.523 163.922 163.475 163.912 163.464 163.93 163.615 164.178 164.028 
164.608 165.487 164.977 165.215 164.77 165.162 164.786 165.248 164.821 
165.238 164.796 165.24 164.938 165.462 165.282 165.815 166.637 166.165 
166.393 165.953 166.303 165.957 166.434 166.101 166.569 166.134 166.538 
166.088 166.527 166.204 166.718 166.509 167.051 167.672 167.269 167.491 
167.087 167.387 167.043 167.465 167.202 167.7 167.4 167.848 167.422 
167.806 167.362 167.787 167.466 167.969 167.763 168.283 166.927 166.584 
166.402 165.614 166.246 165.999 165.164 164.961 164.108 166.122 165.741 
164.912 164.581 163.745 163.475 162.624 166.219 165.754 164.946 164.484 
163.652 163.243 162.376 162.026 161.124 166.367 165.906 165.097 164.602 
163.74 163.251 162.367 161.901 160.987 160.56 159.687 166.531 166.062 
165.276 164.772 163.928 163.392 162.532 161.997 161.162 160.619 159.812 
159.308 158.629 166.808 166.297 165.585 165.033 164.291 163.691 162.922 
162.299 161.555 160.953 160.245 159.647 158.987 158.473 157.983 167.195 
166.675 166.045 165.467 164.82 164.197 163.525 162.85 162.154 161.481 
160.801 160.166 159.511 158.929 158.383 157.95 157.636 167.605 167.122 
166.557 166 165.402 164.8 164.188 163.536 162.892 162.186 161.518 
160.806 160.159 159.499 158.953 158.418 158.089 157.74 157.663 167.579 
168.473 167.821 167.351 169.457 168.773 168.372 167.602 167.081 170.57 
169.832 169.457 168.68 168.22 167.39 166.936 171.736 170.994 170.622 
169.823 169.391 168.565 168.134 167.334 166.985 172.816 172.145 171.801 
171.019 170.601 169.772 169.355 168.544 168.19 167.431 167.125 173.784 
173.183 172.894 172.182 171.812 171.013 170.616 169.788 169.426 168.64 
168.329 167.573 167.283 174.716 174.141 173.892 173.245 172.938 172.217 
171.863 171.061 170.685 169.879 169.546 168.783 168.495 167.751 167.511 
175.632 175.078 174.841 174.229 173.949 173.305 172.995 172.274 171.91 
171.123 170.765 169.995 169.695 168.959 168.711 168.007 167.825 176.473 
175.967 175.732 175.159 174.886 174.286 174.002 173.355 173.03 172.306 
171.963 171.208 170.903 170.16 169.899 169.186 168.973 168.316 168.17 
176.844 177.149 176.706 176.1 177.509 177.02 176.395 175.918 175.276 
177.879 177.396 176.751 176.239 175.552 175.066 174.392 178.121 177.693 
177.008 176.549 175.803 175.317 174.563 174.124 173.41 178.274 177.854 
177.128 176.711 175.937 175.488 174.694 174.255 173.503 173.097 172.374 
178.399 177.986 177.267 176.829 176.08 175.605 174.823 174.361 173.615 
173.196 172.478 172.062 171.345 178.488 178.107 177.441 177.014 176.311 
175.815 175.042 174.525 173.762 173.314 172.591 172.174 171.442 171.03 
170.326 178.652 178.249 177.643 177.217 176.552 176.074 175.313 174.778 
173.984 173.485 172.74 172.294 171.561 171.127 170.408 170.02 169.38 
178.907 178.497 177.92 177.469 176.822 176.332 175.597 175.057 174.278 
173.74 172.999 172.498 171.786 171.295 170.59 170.137 169.495 169.125 
168.573 178.818 178.162 178.319 177.83 177.198 177.536 177.115 177.253 
176.695 176.06 176.483 176.126 176.42 175.887 176.025 175.417 174.881 
175.31 174.968 175.361 174.902 175.134 174.537 174.682 174.083 173.683 
174.108 173.756 174.187 173.78 174.102 173.558 173.761 173.168 173.344 
172.798 172.445 172.875 172.506 172.962 172.563 172.95 172.425 172.712 
172.117 172.37 171.8 172.052 171.541 171.2 171.603 171.192 171.665 
171.271 171.713 171.21 171.535 170.928 171.223 170.638 170.962 170.436 
170.763 170.303 170.04 170.364 169.893 170.318 169.916 170.396 169.968 
170.34 169.785 170.048 169.468 169.763 169.265 169.614 169.191 169.552 
169.197 169.006 169.25 168.734 169.052 168.609 169.048 168.671 169.111 
168.673 168.975 168.45 168.68 168.193 168.484 168.099 168.457 168.148 
168.527 168.273 179.32 179.744 179.244 178.585 180.005 179.518 178.743 
178.31 177.55 180.226 179.729 178.942 178.442 177.671 177.211 176.438 
180.402 179.992 179.331 178.777 178.068 177.462 176.678 176.113 175.308 
180.336 180.141 179.603 179.203 178.506 177.925 177.048 176.409 175.471 
174.935 174.083 179.958 179.953 179.441 179.286 178.519 178.139 177.096 
176.586 175.469 174.994 174.01 173.635 172.805 179.393 179.459 178.939 
178.925 178.153 177.902 176.802 176.376 175.174 174.777 173.738 173.446 
172.597 172.331 171.568 178.79 178.836 178.301 178.338 177.65 177.478 
176.499 176.074 174.938 174.464 173.437 173.107 172.286 172.069 171.356 
171.121 170.429 178.26 178.24 177.682 177.699 177.075 176.99 176.173 
175.855 174.862 174.37 173.371 172.91 172.065 171.77 171.084 170.888 
170.255 170.031 169.398 179.739 180.516 180.229 180.311 181.276 181.022 
181.242 180.817 180.737 182.187 181.816 182.069 181.749 181.81 181.223 
180.988 183.317 182.798 182.889 182.531 182.596 182.196 181.992 181.371 
181.02 184.184 183.816 183.687 183.278 183.149 182.825 182.611 182.179 
181.767 181.229 180.807 184.282 184.278 184.076 183.853 183.582 183.286 
183.031 182.68 182.321 181.841 181.362 180.866 180.4 183.928 184.065 
183.917 183.932 183.705 183.578 183.334 183.082 182.789 182.378 181.954 
181.418 180.906 180.384 179.876 183.703 183.753 183.655 183.681 183.501 
183.51 183.277 183.228 182.93 182.743 182.346 181.968 181.466 180.94 
180.388 179.846 179.317 183.642 183.658 183.571 183.519 183.303 183.259 
182.974 182.982 182.65 182.647 182.255 182.142 181.685 181.388 180.862 
180.387 179.834 179.305 178.799 183.583 183.374 183.519 183.492 183.028 
183.21 183.142 183.278 183.142 182.622 182.804 182.697 182.854 182.678 
182.829 182.705 182.054 182.292 182.177 182.4 182.258 182.378 182.198 
182.373 182.31 181.329 181.574 181.405 181.77 181.714 181.978 181.816 
181.916 181.735 181.954 181.902 180.622 180.807 180.515 180.868 180.792 
181.272 181.187 181.466 181.211 181.381 181.191 181.494 181.39 179.803 
180.067 179.716 179.979 179.775 180.235 180.139 180.61 180.377 180.699 
180.413 180.736 180.548 180.9 180.669 178.717 179.133 178.827 179.145 
178.878 179.245 179.07 179.504 179.294 179.696 179.426 179.821 179.596 
180 179.76 180.077 179.716 177.573 178.013 177.778 178.175 177.937 
178.322 178.126 178.508 178.307 178.66 178.43 178.795 178.592 178.998 
178.79 179.148 178.837 179.088 178.7 176.921 176.013 176.688 177.105 
175.013 175.744 176.178 176.865 177.3 173.928 174.712 175.194 175.931 
176.412 177.095 177.536 172.811 173.612 174.114 174.912 175.425 176.189 
176.678 177.342 177.731 171.688 172.485 172.954 173.781 174.277 175.123 
175.634 176.425 176.865 177.507 177.853 170.595 171.362 171.822 172.617 
173.081 173.914 174.411 175.285 175.79 176.579 177.005 177.637 178.012 
169.597 170.302 170.778 171.531 172.01 172.765 173.247 174.059 174.598 
175.453 175.981 176.744 177.178 177.814 178.186 168.732 169.356 169.805 
170.523 171.017 171.752 172.241 172.981 173.505 174.31 174.876 175.692 
176.186 176.909 177.277 177.918 178.212 167.978 168.532 168.926 169.576 
170.041 170.765 171.255 171.996 172.493 173.262 173.786 174.596 175.094 
175.868 176.253 176.939 177.222 177.854 178.091 177.827 176.94 177.307 
177.184 175.941 176.344 176.135 176.607 176.482 174.775 175.236 174.934 
175.429 175.196 175.777 175.553 173.493 173.984 173.637 174.125 173.8 
174.376 174.099 174.696 174.322 172.202 172.678 172.324 172.792 172.425 
172.945 172.618 173.197 172.834 173.363 172.903 170.937 171.387 171.007 
171.468 171.075 171.563 171.19 171.725 171.351 171.881 171.469 171.963 
171.585 169.724 170.13 169.727 170.155 169.732 170.192 169.777 170.288 
169.904 170.432 170.067 170.574 170.265 170.782 170.577 168.632 168.965 
168.566 168.922 168.489 168.871 168.425 168.872 168.476 168.998 168.67 
169.211 168.947 169.493 169.314 169.88 169.756 167.684 167.943 167.533 
167.823 167.382 167.691 167.231 167.582 167.167 167.614 167.293 167.827 
167.579 168.158 167.974 168.584 168.452 169.058 168.924 177.013 177.309 
177.459 178.1 177.602 177.751 178.386 178.584 179.262 177.891 178.059 
178.71 178.887 179.607 179.785 180.429 178.088 178.322 178.984 179.203 
179.961 180.188 180.958 181.021 181.576 178.181 178.466 179.091 179.375 
180.102 180.469 181.31 181.571 182.213 182.155 182.484 178.235 178.552 
179.203 179.456 180.128 180.489 181.295 181.748 182.427 182.631 182.904 
182.816 182.866 178.195 178.6 179.353 179.637 180.321 180.557 181.249 
181.625 182.264 182.613 182.911 182.999 183.004 182.959 182.962 177.975 
178.48 179.249 179.716 180.389 180.709 181.238 181.542 182.011 182.358 
182.666 182.872 182.96 183.005 183.06 183.063 183.184 177.613 178.144 
178.808 179.407 179.987 180.501 180.873 181.289 181.561 181.979 182.226 
182.567 182.725 182.912 183.033 183.137 183.296 183.341 183.482 177.01 
178.154 177.51 177.33 179.342 178.718 178.565 177.821 177.529 180.415 
179.851 179.706 179.045 178.752 177.98 177.655 181.411 180.842 180.664 
180.092 179.844 179.165 178.848 178.11 177.798 182.291 181.796 181.631 
181.068 180.916 180.264 180.015 179.279 178.929 178.186 177.76 182.773 
182.53 182.459 182.055 181.995 181.42 181.244 180.491 180.108 179.281 
178.762 177.983 177.452 182.956 182.861 182.872 182.713 182.698 182.384 
182.216 181.652 181.236 180.444 179.853 178.997 178.423 177.656 177.229 
183.192 183.064 183.092 182.996 182.995 182.856 182.71 182.385 181.995 
181.411 180.829 180.062 179.467 178.684 178.231 177.543 177.245 183.479 
183.345 183.345 183.22 183.219 183.091 183.008 182.766 182.482 182.037 
181.556 180.932 180.376 179.678 179.183 178.52 178.14 177.554 177.253 
176.365 176.609 176.144 175.4 176.749 176.319 175.57 175.116 174.268 
176.854 176.399 175.607 175.208 174.398 173.913 172.957 177.003 176.514 
175.627 175.176 174.336 173.958 173.109 172.593 171.658 176.983 176.614 
175.68 175.181 174.241 173.848 173.092 172.732 171.983 171.425 170.61 
176.725 176.48 175.642 175.211 174.288 173.817 173.085 172.754 172.195 
171.785 171.103 170.487 169.742 176.574 176.274 175.599 175.212 174.478 
173.985 173.32 172.892 172.386 172.021 171.458 170.952 170.227 169.634 
168.976 176.655 176.297 175.714 175.316 174.728 174.277 173.705 173.241 
172.711 172.283 171.718 171.258 170.579 170.055 169.385 168.899 168.379 
176.711 176.421 175.85 175.501 174.922 174.547 173.984 173.594 173.026 
172.607 171.988 171.526 170.85 170.362 169.708 169.254 168.703 168.314 
167.842 179.462 179.232 179.632 180.196 179.14 179.481 180.088 180.402 
180.977 179.125 179.485 180.168 180.429 181.063 181.296 181.967 178.999 
179.438 180.144 180.514 181.171 181.459 182.175 182.449 183.189 178.778 
179.236 179.892 180.36 180.987 181.427 182.103 182.562 183.291 183.642 
184.139 178.478 178.95 179.562 180.047 180.666 181.137 181.781 182.307 
182.977 183.502 183.958 184.243 184.293 178.088 178.575 179.168 179.684 
180.32 180.818 181.463 181.955 182.573 183.07 183.502 183.865 183.949 
184.093 183.944 177.709 178.161 178.721 179.243 179.854 180.416 181.039 
181.588 182.151 182.645 183.038 183.398 183.529 183.718 183.668 183.752 
183.685 177.35 177.772 178.261 178.758 179.3 179.875 180.456 181.057 
181.602 182.146 182.545 182.944 183.122 183.348 183.361 183.492 183.476 
183.585 183.588 
POINT_DATA 1002
SCALARS Distance double
LOOKUP_TABLE default
176.28 177.133 176.326 175.406 175.374 175.328 174.254 174.175 174.259 
174.244 172.886 172.828 172.93 173.008 173.12 171.539 171.481 171.592 
171.695 171.865 172.018 170.179 170.117 170.27 170.413 170.6 170.758 
170.906 168.772 168.803 168.809 168.959 169.221 169.443 169.611 169.84 
167.489 167.625 167.436 167.489 167.741 168.067 168.334 168.6 168.926 
166.325 166.537 166.264 166.273 166.435 166.753 167.099 167.439 167.793 
168.157 165.225 165.531 165.141 165.152 165.256 165.514 165.862 166.243 
166.652 167.06 167.457 177.471 176.537 177.73 176.696 177.869 175.501 
176.796 177.891 175.598 174.261 176.766 177.833 175.618 174.348 172.884 
176.628 177.69 175.485 174.357 172.981 171.459 176.493 177.45 175.336 
174.238 173.043 171.544 170.053 176.334 177.162 175.26 174.098 172.983 
171.684 170.2 168.808 176.064 176.867 175.077 173.915 172.794 171.696 
170.448 169.076 167.722 175.727 176.56 174.735 173.59 172.489 171.511 
170.513 169.381 168.076 166.711 175.678 174.637 174.625 173.295 173.354 
173.381 171.825 171.96 171.908 172.184 170.488 170.753 170.601 170.897 
171.216 169.435 169.821 169.531 169.825 170.041 170.289 168.592 169.027 
168.585 168.809 168.901 169.031 169.279 167.949 168.408 167.754 167.796 
167.782 167.776 167.959 168.107 167.467 167.938 167.062 166.817 166.65 
166.544 166.599 166.697 166.7 166.912 167.38 166.376 165.862 165.463 
165.222 165.161 165.204 165.235 165.305 164.298 163.922 163.098 163.698 
162.537 161.877 163.572 162.084 161.086 160.459 163.588 161.911 160.54 
159.544 158.95 163.838 162.142 160.598 159.236 158.216 157.803 164.323 
162.647 161.093 159.58 158.235 157.436 157.272 164.978 163.311 161.704 
160.118 158.614 157.588 157.161 157.202 165.664 164.067 162.435 160.813 
159.2 157.998 157.387 157.195 157.376 166.256 164.786 163.246 161.742 
160.179 158.836 158.014 157.57 157.426 157.684 164.049 162.871 163.975 
161.618 162.739 163.985 160.231 161.552 162.797 164.175 158.887 160.445 
161.86 163.148 164.537 157.936 159.343 161 162.353 163.59 164.952 
157.579 158.514 159.996 161.51 162.752 164.02 165.411 157.714 158.337 
159.332 160.64 161.932 163.156 164.521 165.909 158.082 158.679 159.364 
160.233 161.307 162.451 163.712 165.111 166.411 158.348 158.991 159.252 
159.964 160.208 159.684 160.846 161.261 160.607 160.314 161.926 162.578 
161.507 161.233 161.091 163.272 163.946 162.686 162.292 162.074 162.101 
164.526 165.145 163.954 163.535 163.255 163.141 163.295 165.723 166.335 
165.146 164.746 164.497 164.365 164.418 164.689 167.045 167.594 166.465 
166.006 165.717 165.581 165.628 165.82 166.095 168.341 168.787 167.828 
167.36 167.001 166.779 166.761 166.911 167.095 167.273 157.882 158.535 
158.475 159.176 159.521 159.496 160.348 160.847 160.279 160.643 161.794 
162.249 161.591 161.633 161.967 163.195 163.579 163.04 163.001 163.046 
163.405 164.456 164.807 164.339 164.392 164.35 164.397 164.736 165.671 
165.985 165.52 165.632 165.726 165.644 165.684 165.968 166.841 167.086 
166.67 166.723 166.95 167.036 166.939 166.962 167.226 167.88 168.051 
167.753 167.74 167.935 168.217 168.295 168.189 168.214 168.47 167.149 
165.803 166.802 165.395 166.543 164.297 165.29 166.536 164.055 162.886 
165.441 166.684 164.111 162.791 161.455 165.597 166.822 164.257 162.854 
161.459 160.05 165.772 167.002 164.464 163.066 161.679 160.35 159.04 
166.12 167.306 164.867 163.546 162.155 160.832 159.555 158.37 166.601 
167.68 165.415 164.18 162.851 161.459 160.114 158.868 157.916 168.211 
168.106 169.105 169.113 170.156 167.9 170.231 171.328 169.032 167.732 
171.429 172.455 170.211 168.935 167.739 172.555 173.442 171.422 170.174 
168.962 167.872 173.558 174.357 172.573 171.447 170.232 169.089 168.028 
174.514 175.282 173.61 172.637 171.509 170.319 169.234 168.227 175.443 
176.176 174.569 173.673 172.679 171.545 170.434 169.42 168.49 176.285 