# vtk DataFile Version 4.0
vtk output
ASCII
DATASET POLYDATA
POINTS 1002 float
-121.327 -111.925 50.402 -121.209 -110.671 49.6106 -120.641 -111.047 49.8443 
-120.796 -112.425 50.608 -120.076 -111.483 50.1627 -121.524 -113.437 51.1326 
-120.234 -112.866 51.0695 -119.447 -111.969 50.6029 -120.929 -113.926 51.5379 
-121.625 -114.853 52.2857 -119.573 -113.323 51.7715 -118.77 -112.571 51.1386 
-120.276 -114.336 52.2878 -120.93 -115.39 52.914 -121.507 -116.157 53.8002 
-118.879 -113.973 52.5226 -118.133 -113.301 51.7654 -119.581 -114.91 53.13 
-120.245 -116.085 53.5762 -120.857 -116.994 54.2604 -121.309 -117.497 55.2252 
-118.248 -114.792 53.261 -117.506 -114.059 52.5587 -118.913 -115.748 53.843 
-119.558 -117.006 54.1327 -120.269 -118.071 54.5685 -120.842 -118.534 55.5214 
-121.195 -118.755 56.6729 -117.68 -115.597 54.073 -116.916 -114.804 53.4634 
-118.323 -116.611 54.5459 -118.859 -117.842 54.807 -119.536 -118.993 55.135 
-120.307 -119.566 55.9623 -120.816 -119.745 57.128 -121.141 -119.986 58.1685 
-117.197 -116.308 54.9403 -116.486 -115.562 54.3191 -117.816 -117.322 55.3763 
-118.25 -118.42 55.7309 -118.718 -119.492 56.1666 -119.454 -120.245 56.887 
-120.186 -120.629 57.8234 -120.662 -120.955 58.7016 -121.05 -121.293 59.4136 
-116.771 -116.96 55.7786 -116.148 -116.331 55.086 -117.339 -117.924 56.2778 
-117.746 -118.946 56.7285 -118.075 -119.907 57.2729 -118.58 -120.754 57.9506 
-119.267 -121.354 58.7023 -119.897 -121.804 59.3858 -120.409 -122.188 59.9713 
-120.88 -122.42 60.5278 -116.308 -117.637 56.5357 -115.761 -117.114 55.8073 
-116.81 -118.517 57.1191 -117.194 -119.548 57.6303 -117.507 -120.523 58.1751 
-117.898 -121.415 58.7665 -118.415 -122.108 59.4188 -118.978 -122.555 60.0962 
-119.56 -122.892 60.693 -120.143 -123.137 61.2004 -120.66 -123.236 61.6721 
-120.74 -109.909 48.7045 -120.025 -110.209 49.0324 -120.044 -109.237 47.676 
-119.175 -109.495 48.0131 -119.135 -108.465 46.829 -119.312 -110.61 49.4349 
-118.302 -108.695 47.2357 -118.351 -107.472 46.4037 -118.396 -109.816 48.5837 
-118.604 -111.137 49.9252 -117.654 -107.647 47.0027 -117.749 -106.379 46.276 
-117.612 -108.934 48.0388 -117.741 -110.306 49.2931 -117.971 -111.841 50.4613 
-116.958 -106.537 46.9433 -116.954 -105.428 46.1584 -116.941 -107.9 47.8185 
-116.96 -109.452 48.831 -117.141 -111.077 49.9042 -117.337 -112.652 51.1087 
-116.019 -105.717 46.7879 -116.012 -104.761 46.0695 -116.123 -106.923 47.6423 
-116.132 -108.56 48.4391 -116.205 -110.325 49.3504 -116.394 -112.011 50.5092 
-116.615 -113.49 51.9497 -115.186 -105.214 46.8506 -115.33 -104.278 46.2718 
-115.276 -106.226 47.6762 -115.322 -107.678 48.345 -115.305 -109.433 48.9677 
-115.423 -111.285 49.9264 -115.678 -113.021 51.2699 -116.047 -114.401 52.8368 
-114.603 -104.749 47.2882 -114.924 -103.824 46.8388 -114.536 -105.714 48.0165 
-114.575 -106.971 48.6487 -114.602 -108.45 49.096 -114.737 -110.199 49.7357 
-114.997 -112.274 50.7466 -115.331 -114.113 52.0994 -115.742 -115.359 53.649 
-114.088 -104.227 47.9095 -114.557 -103.425 47.6088 -113.826 -105.192 48.4258 
-113.769 -106.453 48.9587 -113.871 -107.744 49.4053 -114.198 -109.066 49.964 
-114.628 -110.992 50.7192 -114.939 -113.33 51.6776 -115.18 -115.157 52.9646 
-115.465 -116.266 54.4516 -113.717 -103.563 48.58 -113.214 -104.399 48.8242 
-112.829 -103.856 49.6059 -112.452 -105.011 49.7547 -112.376 -104.622 50.8419 
-112.968 -105.729 49.1571 -112.243 -106.064 51.1232 -112.486 -105.742 52.3533 
-112.372 -106.671 50.01 -113.004 -107.228 49.5604 -112.56 -107.1 52.8401 
-112.864 -106.821 53.7379 -112.483 -107.655 51.5361 -112.755 -108.083 50.5481 
-113.474 -108.383 50.2011 -113.284 -108.153 54.1208 -113.615 -108.003 54.7102 
-113.235 -108.585 53.2113 -113.332 -108.974 52.0941 -113.702 -109.196 51.4008 
-114.247 -109.829 51.0407 -114.507 -109.726 54.8135 -114.901 -109.674 55.358 
-114.337 -109.973 54.2395 -114.324 -110.278 53.4388 -114.35 -110.492 52.7238 
-114.523 -111.073 52.2725 -114.749 -112.241 51.8796 -115.752 -111.65 55.4082 
-116.132 -111.61 55.8541 -115.359 -111.789 54.9812 -115.095 -112.013 54.4475 
-114.844 -112.224 53.9311 -114.628 -112.715 53.5813 -114.639 -113.737 53.2296 
-114.854 -114.742 52.9352 -116.308 -113.361 56.2774 -116.664 -113.306 56.556 
-115.813 -113.467 56.0104 -115.345 -113.658 55.6679 -114.947 -113.908 55.3256 
-114.549 -114.368 55.111 -114.324 -115.22 54.8638 -114.479 -116.081 54.5189 
-114.927 -116.411 54.3444 -116.169 -114.718 57.5408 -116.541 -114.618 57.705 
-115.698 -114.856 57.3803 -115.217 -115.059 57.1577 -114.826 -115.345 56.9115 
-114.481 -115.81 56.7491 -114.188 -116.563 56.5726 -114.165 -117.33 56.2412 
-114.534 -117.631 55.9112 -115.138 -117.434 55.7828 -115.614 -118.265 57.019 
-114.946 -118.669 57.1428 -115.351 -119.701 58.2445 -114.372 -118.919 57.3901 
-114.702 -120.079 58.4809 -114.851 -121.246 59.5649 -114.104 -118.618 57.7547 
-114.146 -120.177 58.7621 -114.108 -121.389 59.941 -113.989 -122.567 61.1522 
-114.176 -117.878 58.0711 -113.862 -119.777 59.0788 -113.407 -121.21 60.2385 
-113.081 -122.462 61.6693 -113.03 -123.524 62.932 -114.4 -117.196 58.2948 
-113.898 -119.161 59.4401 -113.081 -120.814 60.5829 -112.381 -122.2 62.0504 
-112.14 -123.424 63.481 -112.17 -124.31 64.6046 -114.665 -116.75 58.5495 
-114.113 -118.65 59.86 -113.215 -120.401 61.1522 -112.266 -121.915 62.6514 
-111.717 -123.242 64.0874 -111.332 -124.298 65.1929 -111.056 -125.122 66.0178 
-115.014 -116.413 58.8292 -114.392 -118.211 60.263 -113.555 -119.943 61.7153 
-112.558 -121.496 63.4174 -111.839 -122.911 65.0029 -111.106 -124.042 66.0704 
-110.21 -124.995 66.7619 -109.809 -125.861 67.1855 -115.438 -116.123 59.0302 
-114.734 -117.775 60.5512 -113.958 -119.43 61.9917 -112.981 -120.91 63.7391 
-112.172 -122.339 65.6227 -111.386 -123.556 66.9539 -110.2 -124.513 67.6878 
-109.223 -125.474 68.0827 -109.27 -126.31 68.1642 -115.871 -115.888 59.1464 
-115.143 -117.373 60.6947 -114.435 -118.949 62.0552 -113.551 -120.359 63.5769 
-112.673 -121.697 65.474 -111.926 -122.968 67.1402 -110.868 -123.939 68.1926 
-109.658 -124.794 68.8349 -109.181 -125.715 69.1098 -109.78 -126.449 69.0025 
-116.095 -119.005 57.7228 -115.643 -120.664 58.9552 -116.451 -120.063 58.3337 
-114.884 -122.304 60.3637 -115.776 -121.8 59.6139 -116.724 -121.177 58.9101 
-113.983 -123.462 62.124 -114.909 -123.203 61.1727 -115.999 -122.791 60.2836 
-117.102 -122.171 59.481 -113.217 -124.18 64.044 -114.216 -123.932 63.1754 
-115.261 -123.741 62.1063 -116.514 -123.505 61.0041 -117.616 -122.928 60.1021 
-112.292 -124.98 65.6375 -113.634 -124.594 65.0837 -114.734 -124.294 64.1639 
-115.86 -124.184 62.9573 -117.086 -123.94 61.7753 -118.124 -123.338 60.8576 
-111.053 -125.914 66.7153 -112.747 -125.592 66.2911 -114.193 -125.237 65.6078 
-115.264 -125.016 64.5723 -116.386 -124.713 63.4767 -117.606 -124.196 62.5231 
-118.681 -123.564 61.6089 -110.292 -126.552 67.5024 -111.97 -126.383 66.9799 
-113.668 -126.159 66.4174 -114.863 -126.092 65.5291 -115.831 -125.847 64.5236 
-117.036 -125.213 63.7608 -118.327 -124.454 63.064 -119.377 -123.781 62.1629 
-110.575 -126.78 68.2549 -111.973 -126.703 67.6198 -113.591 -126.538 67.1302 
-114.873 -126.632 66.4477 -115.738 -126.73 65.4476 -116.716 -126.368 64.5408 
-118.007 -125.585 63.9473 -119.21 -124.717 63.3534 -120.064 -123.941 62.5453 
-111.35 -126.743 69.2826 -112.36 -126.917 68.5684 -113.125 -127.125 69.5517 
-114.038 -127.398 69.0668 -114.454 -127.871 69.9067 -113.73 -126.823 68.0391 
-115.148 -128.432 69.5019 -115.664 -128.591 70.2256 -115.163 -127.569 68.5413 
-115.085 -126.865 67.5455 -116.437 -129.158 69.4701 -117.413 -128.704 70.1937 
-116.157 -128.734 68.5341 -116.246 -127.668 67.8102 -116.036 -127.07 66.7219 
-118.516 -129.127 69.0906 -119.462 -128.565 69.7396 -117.63 -129.265 68.0302 
-117.264 -128.468 67.47 -117.115 -127.507 66.8734 -116.847 -127.033 65.6148 
-120.738 -129.011 68.7527 -121.253 -128.533 69.2276 -119.814 -129.168 67.7562 
-118.887 -128.715 67.0245 -118.385 -127.804 66.6857 -118.158 -127.146 65.7896 
-118.02 -126.541 64.6614 -122.398 -128.799 68.515 -122.675 -128.175 68.8886 
-121.765 -128.921 67.7805 -120.848 -128.575 66.9799 -120.081 -127.874 66.4795 
-119.654 -127.194 65.7867 -119.429 -126.562 64.7787 -119.295 -125.676 64.0057 
-123.547 -128.014 68.2125 -123.805 -127.324 68.5269 -123.017 -128.22 67.6969 
-122.281 -128.001 67.0299 -121.623 -127.54 66.3922 -121.139 -127.008 65.6924 
-120.721 -126.402 64.8275 -120.402 -125.57 64.0624 -120.208 -124.661 63.3898 
-124.495 -126.898 67.7662 -124.76 -126.347 67.9994 -123.947 -127.068 67.411 
-123.213 -126.932 66.9364 -122.616 -126.676 66.3435 -122.244 -126.369 65.6274 
-121.829 -125.923 64.8452 -121.335 -125.225 64.1404 -120.99 -124.404 63.4702 
-120.807 -123.732 62.6406 -110.356 -126.016 69.8863 -112.018 -126.415 70.108 
-111.406 -125.389 70.4785 -112.888 -125.846 70.4799 -112.66 -124.712 70.5367 
-113.667 -126.987 70.0821 -113.847 -125.184 70.2511 -113.866 -124.131 70.0565 
-114.413 -126.487 70.021 -115.084 -127.702 70.1121 -114.912 -124.666 69.5814 
-114.933 -123.738 69.1643 -115.382 -125.8 69.6274 -116.142 -127.064 69.8379 
-116.736 -128.063 70.3248 -116.035 -124.358 68.6521 -115.944 -123.404 68.1923 
-116.486 -125.242 69.151 -117.294 -126.239 69.6807 -117.992 -127.232 70.1472 
-118.582 -127.98 70.2501 -117.089 -123.93 67.8054 -117.006 -122.818 67.5108 
-117.496 -124.827 68.4042 -118.23 -125.537 69.44 -118.94 -126.289 70.1795 
-119.489 -127.092 70.1506 -120.238 -127.864 69.7413 -118.066 -123.107 67.2737 
-118.091 -121.949 66.9845 -118.316 -124.17 67.615 -118.906 -124.898 68.5648 
-119.596 -125.413 69.7348 -120.193 -125.991 70.1117 -120.864 -126.746 69.7506 
-121.764 -127.575 69.3157 -119.024 -122.122 66.7487 -119.09 -121.094 66.2488 
-119.108 -123.193 67.0599 -119.503 -124.028 67.6014 -120.13 -124.568 68.5675 
-120.832 -124.97 69.4203 -121.57 -125.443 69.6353 -122.351 -126.125 69.4042 
-123.142 -126.874 69.0222 -119.92 -121.285 65.9495 -119.932 -120.441 65.2894 
-119.966 -122.223 66.4524 -120.225 -123.018 66.9273 -120.71 -123.602 67.5328 
[...]
CELL_DATA 2000
SCALARS Distance double
LOOKUP_TABLE default
170.812 170.779 171.191 172.041 170.785 171.199 172.064 172.494 173.381 
170.831 171.228 172.104 172.526 173.422 173.847 174.695 170.994 171.33 
172.23 172.607 173.55 173.943 174.861 175.188 175.974 171.286 171.577 
172.506 172.823 173.811 174.162 175.164 175.47 176.347 176.524 177.24 
171.647 171.926 172.881 173.17 174.145 174.469 175.464 175.809 176.737 
176.969 177.731 177.826 178.496 172.072 172.323 173.285 173.565 174.495 
174.786 175.688 176.041 176.93 177.281 178.075 178.293 178.974 179.082 
179.725 172.548 172.762 173.688 173.96 174.862 175.118 175.956 176.235 
177.069 177.41 178.221 178.535 179.253 179.473 180.105 180.249 180.825 
173.02 173.208 174.062 174.328 175.201 175.463 176.289 176.525 177.335 
177.6 178.404 178.684 179.412 179.666 180.296 180.514 181.068 181.235 
181.714 170.075 168.903 169.641 169.966 167.585 168.379 168.672 169.52 
169.92 166.233 167.015 167.3 168.161 168.568 169.478 169.947 165.004 
165.723 166.019 166.813 167.229 168.122 168.648 169.563 170.111 163.801 
164.523 164.806 165.583 165.986 166.839 167.378 168.294 168.894 169.796 
170.388 162.61 163.298 163.564 164.351 164.738 165.598 166.104 167.031 
167.627 168.573 169.188 170.101 170.721 161.69 162.211 162.506 163.171 
163.582 164.363 164.848 165.729 166.309 167.279 167.945 168.907 169.593 
170.494 171.169 161.109 161.471 161.761 162.275 162.688 163.329 163.795 
164.533 165.087 165.982 166.715 167.708 168.533 169.456 170.235 171.048 
171.736 160.7 160.964 161.155 161.591 161.929 162.511 162.936 163.578 
164.08 164.851 165.578 166.548 167.483 168.476 169.386 170.222 170.977 
171.678 172.304 160.531 160.342 160.546 160.906 160.538 160.478 160.869 
161.094 161.681 161.475 161.037 161.394 161.287 161.877 162.046 162.719 
162.853 162.267 162.595 162.162 162.661 162.484 163.132 163.198 163.916 
164.391 163.75 164.162 163.593 164.1 163.601 164.204 163.911 164.687 
164.625 165.516 166.348 165.514 166.056 165.344 165.972 165.296 165.916 
165.323 166.074 165.731 166.69 166.537 167.534 168.598 167.704 168.229 
167.415 168.009 167.278 167.854 167.168 167.789 167.288 168.124 167.869 
168.828 168.645 169.504 170.517 169.823 170.175 169.475 169.853 169.201 
169.613 168.997 169.467 168.944 169.593 169.273 170.091 169.899 170.68 
170.467 171.104 171.879 171.393 171.608 171.084 171.311 170.779 171.074 
170.558 170.962 170.486 171.046 170.675 171.377 171.112 171.814 171.573 
172.158 171.902 172.401 173.158 172.972 173.472 174.299 172.741 173.313 
174.186 174.67 175.502 172.409 173.071 173.99 174.532 175.321 175.806 
176.521 172.075 172.736 173.669 174.261 174.979 175.496 176.12 176.66 
177.264 171.901 172.454 173.381 173.936 174.649 175.101 175.677 176.18 
176.797 177.342 177.922 171.928 172.352 173.267 173.743 174.536 174.887 
175.536 175.875 176.555 176.974 177.613 178.016 178.489 172.099 172.422 
173.294 173.716 174.556 174.9 175.627 175.912 176.652 176.956 177.615 
177.853 178.273 178.506 178.802 172.33 172.593 173.389 173.767 174.577 
174.945 175.659 175.998 176.717 177.087 177.745 177.969 178.331 178.398 
178.595 178.766 179.057 172.559 172.795 173.514 173.844 174.605 174.96 
175.642 175.973 176.63 177.037 177.701 178.04 178.456 178.523 178.692 
178.697 178.95 179.138 179.595 173.543 174.69 174.25 174.581 175.892 
175.451 175.784 175.354 175.709 176.945 176.619 176.951 176.556 176.903 
176.485 176.803 177.738 177.557 177.901 177.621 177.963 177.64 177.997 
177.579 177.874 178.389 178.282 178.655 178.455 178.789 178.577 178.972 
178.715 179.076 178.654 178.919 178.9 178.893 179.322 179.19 179.55 
179.349 179.73 179.564 179.963 179.732 180.025 179.635 179.847 179.182 
179.297 179.788 179.82 180.272 180.134 180.513 180.311 180.677 180.495 
180.822 180.584 180.825 180.478 180.673 179.452 179.542 180.079 180.211 
180.771 180.801 181.265 181.115 181.471 181.234 181.561 181.33 181.639 
181.372 181.621 181.268 181.445 180.016 179.956 180.528 180.563 181.19 
181.267 181.861 181.829 182.277 182.068 182.405 182.134 182.469 182.206 
182.513 182.195 182.397 182 182.102 180.68 182.021 181.258 181.168 
183.515 182.696 182.562 181.797 181.785 184.981 184.226 184.132 183.287 
183.194 182.457 182.456 186.249 185.631 185.557 184.812 184.656 183.883 
183.728 183.038 182.891 187.354 186.824 186.732 186.082 185.852 185.17 
184.887 184.219 183.935 183.297 183.02 188.407 187.947 187.917 187.233 
186.968 186.237 185.9 185.232 184.917 184.289 183.997 183.367 183.087 
189.177 188.936 188.959 188.401 188.114 187.365 186.975 186.242 185.911 
185.255 184.97 184.341 184.041 183.418 183.107 189.405 189.431 189.372 
189.141 188.76 188.29 187.783 187.217 186.773 186.202 185.812 185.237 
184.83 184.263 183.841 183.308 182.916 189.246 189.379 189.22 189.187 
188.721 188.524 187.931 187.66 187.12 186.799 186.299 185.884 185.345 
184.866 184.318 183.86 183.372 182.96 182.544 180.665 181.104 181.252 
182.03 181.454 181.658 182.437 182.662 183.472 181.637 181.88 182.581 
182.935 183.766 184.078 184.876 181.732 181.972 182.612 182.978 183.832 
184.265 185.145 185.444 186.167 181.817 182.06 182.725 183.037 183.905 
184.333 185.27 185.648 186.419 186.638 187.25 181.865 182.147 182.823 
183.158 183.987 184.422 185.305 185.725 186.44 186.755 187.322 187.598 
188.163 181.807 182.137 182.733 183.137 183.835 184.35 185.093 185.613 
186.216 186.622 187.081 187.465 187.956 188.377 188.863 181.641 181.993 
182.499 182.91 183.465 183.987 184.582 185.174 185.708 186.231 186.648 
187.092 187.498 187.977 188.406 188.871 189.16 181.416 181.766 182.231 
182.613 183.094 183.535 184.03 184.554 185.045 185.606 186.051 186.571 
186.956 187.439 187.787 188.276 188.554 188.972 189.084 172.904 173.763 
173.491 173.865 174.699 174.406 174.796 174.527 174.937 175.676 175.379 
175.785 175.496 175.885 175.595 175.945 176.719 176.391 176.803 176.495 
176.882 176.562 176.897 176.57 176.924 177.796 177.457 177.802 177.477 
177.823 177.536 177.892 177.572 177.92 177.6 177.969 178.747 178.47 
178.73 178.402 178.643 178.39 178.73 178.519 178.859 178.581 178.822 
178.531 178.679 179.532 179.321 179.586 179.273 179.471 179.169 179.467 
179.281 179.64 179.429 179.628 179.299 179.307 178.977 178.923 180.251 
180.068 180.395 180.124 180.38 180.041 180.318 180.046 180.395 180.175 
180.437 180.1 180.164 179.7 179.677 179.229 179.25 180.933 180.779 
181.137 180.936 181.254 180.969 181.25 180.938 181.223 180.952 181.218 
180.923 181.102 180.68 180.789 180.25 180.361 179.809 179.965 172.444 
171.882 172.588 173.321 171.05 171.998 172.922 173.539 174.274 170.086 
171.16 172.307 173.121 173.973 174.509 175.232 169.279 170.281 171.521 
172.472 173.461 174.148 174.924 175.472 176.244 168.691 169.575 170.783 
171.728 172.799 173.581 174.445 175.101 175.941 176.536 177.351 168.2 
168.999 170.174 171.075 172.212 172.992 173.956 174.627 175.541 176.2 
177.089 177.646 178.368 167.881 168.53 169.669 170.514 171.711 172.509 
173.564 174.231 175.2 175.839 176.775 177.368 178.16 178.604 179.194 
167.868 168.318 169.362 170.065 171.226 172.027 173.102 173.841 174.819 
175.51 176.466 177.092 177.944 178.42 179.084 179.415 179.936 168.086 
168.396 169.313 169.83 170.851 171.544 172.541 173.298 174.243 175.025 
175.991 176.741 177.661 178.238 178.976 179.347 179.911 180.169 180.639 
168.526 169.578 169.24 169.718 170.688 170.322 170.776 170.509 171.126 
171.864 171.459 171.872 171.556 172.114 171.95 172.673 173.086 172.675 
173.101 172.703 173.239 172.966 173.672 173.543 174.356 174.323 173.936 
174.439 174.014 174.606 174.229 174.981 174.698 175.567 175.356 176.209 
175.649 175.246 175.833 175.413 176.076 175.693 176.492 176.157 177.037 
176.73 177.579 177.269 177.971 177.078 176.661 177.299 176.873 177.565 
177.188 177.969 177.657 178.457 178.173 178.9 178.613 179.206 178.874 
179.302 178.471 178.1 178.737 178.353 179.025 178.664 179.373 179.056 
179.732 179.446 180.021 179.76 180.227 179.96 180.308 179.981 180.22 
179.731 179.422 180.027 179.713 180.333 180.03 180.65 180.355 180.919 
180.613 181.078 180.773 181.159 180.874 181.19 180.891 181.119 180.774 
180.935 180.601 182.027 181.175 180.911 183.462 182.62 182.343 181.485 
181.222 184.828 184.038 183.766 182.913 182.616 181.782 181.513 186.087 
185.359 185.088 184.287 183.934 183.116 182.785 182.016 181.716 187.095 
186.481 186.143 185.479 185.07 184.326 183.918 183.193 182.846 182.138 
181.807 187.718 187.246 186.819 186.329 185.898 185.302 184.855 184.214 
183.839 183.195 182.846 182.166 181.824 188.107 187.706 187.292 186.877 
186.499 186.01 185.587 185.027 184.625 184.077 183.718 183.13 182.752 
182.125 181.777 188.488 188.115 187.798 187.377 187.076 186.614 186.247 
185.709 185.279 184.754 184.352 183.863 183.465 182.941 182.534 181.997 
181.638 188.897 188.586 188.354 187.94 187.65 187.209 186.863 186.364 
185.937 185.391 184.944 184.43 184.007 183.531 183.113 182.641 182.24 
181.775 181.416 180.677 181.264 181.375 182.151 181.826 182.007 182.861 
182.894 183.612 182.312 182.576 183.507 183.611 184.358 184.326 184.966 
182.71 183.047 184.039 184.236 185.055 185.074 185.76 185.684 186.274 
182.946 183.382 184.377 184.697 185.588 185.749 186.552 186.543 187.227 
187.034 187.461 182.864 183.451 184.364 184.854 185.695 186.11 186.957 
187.238 188.011 188.009 188.477 188.122 188.228 182.426 183.126 183.912 
184.563 185.269 185.911 186.644 187.276 188.002 188.456 188.943 188.966 
189.057 188.673 188.566 181.828 182.513 183.191 183.89 184.512 185.24 
185.868 186.63 187.235 187.975 188.434 188.948 189.103 189.189 189.093 
188.853 188.768 181.294 181.878 182.496 183.124 183.726 184.415 185.032 
185.757 186.318 187.033 187.456 188.117 188.348 188.821 188.846 189.033 
188.988 188.963 188.994 179.837 178.635 179.611 180.34 177.308 178.334 
179.047 180.077 180.821 175.894 176.945 177.647 178.723 179.442 180.51 
181.251 174.389 175.431 176.075 177.242 177.956 179.081 179.786 180.889 
181.613 172.903 173.843 174.346 175.536 176.226 177.48 178.145 179.327 
179.977 181.16 181.82 171.64 172.412 172.824 173.816 174.438 175.657 
176.315 177.55 178.113 179.359 179.946 181.225 181.763 170.606 171.286 
171.718 172.483 173.055 174.017 174.689 175.768 176.35 177.46 177.985 
179.225 179.78 181.039 181.44 169.636 170.318 170.773 171.493 172.041 
172.838 173.496 174.385 175.04 175.926 176.468 177.418 177.951 179.072 
179.578 180.686 180.987 168.665 169.344 169.786 170.532 171.059 171.847 
172.455 173.307 173.972 174.815 175.401 176.168 176.654 177.487 177.973 
178.942 179.367 180.304 180.56 168.254 168.105 168.565 169.417 168.158 
168.533 169.415 169.838 170.733 168.33 168.661 169.535 169.912 170.835 
171.232 172.164 168.556 168.845 169.708 170.066 170.991 171.381 172.364 
172.75 173.706 168.924 169.107 169.941 170.252 171.169 171.549 172.52 
172.945 173.931 174.306 175.157 169.413 169.525 170.289 170.521 171.392 
171.729 172.647 173.059 173.998 174.446 175.317 175.655 176.385 169.84 
169.978 170.678 170.877 171.682 171.965 172.828 173.173 174.049 174.463 
175.332 175.739 176.536 176.844 177.6 170.182 170.342 171.042 171.24 
172.025 172.268 173.104 173.38 174.222 174.546 175.393 175.766 176.604 
176.966 177.772 178.097 178.896 170.587 170.711 171.453 171.625 172.437 
172.64 173.47 173.69 174.502 174.757 175.559 175.871 176.68 177.04 
177.847 178.216 178.996 179.35 180.077 171.112 172.361 171.811 172.029 
173.729 173.163 173.398 172.813 173.051 175.022 174.522 174.783 174.225 
174.443 173.853 174.07 176.213 175.754 176.03 175.558 175.795 175.237 
175.425 174.847 175.059 177.394 176.916 177.201 176.773 177.075 176.568 
176.783 176.197 176.391 175.83 176.075 178.635 178.119 178.407 177.967 
178.321 177.857 178.123 177.556 177.745 177.165 177.401 176.871 177.164 
179.899 179.396 179.69 179.218 179.571 179.115 179.409 178.881 179.083 
178.514 178.75 178.216 178.529 178.008 178.331 181.023 180.621 180.917 
180.489 180.817 180.371 180.658 180.152 180.376 179.834 180.092 179.576 
179.911 179.399 179.741 179.195 179.49 181.909 181.627 181.904 181.595 
181.899 181.548 181.828 181.385 181.608 181.106 181.361 180.888 181.22 
180.76 181.086 180.579 180.846 180.302 180.535 181.252 181.567 181.74 
182.4 181.849 182.063 182.743 182.907 183.606 182 182.302 183.027 
183.254 183.971 184.16 184.898 182.101 182.408 183.138 183.456 184.189 
184.478 185.206 185.438 186.133 182.304 182.541 183.235 183.525 184.237 
184.583 185.3 185.633 186.284 186.551 187.159 182.487 182.739 183.382 
183.641 184.291 184.597 185.254 185.61 186.214 186.554 187.085 187.422 
187.95 182.502 182.81 183.399 183.719 184.324 184.638 185.229 185.539 
186.074 186.392 186.87 187.223 187.696 188.085 188.509 182.452 182.746 
183.299 183.643 184.254 184.616 185.234 185.535 186.069 186.298 186.769 
187.022 187.515 187.836 188.313 188.597 188.889 182.424 182.691 183.222 
183.536 184.144 184.518 185.171 185.526 186.115 186.358 186.864 187.045 
187.573 187.79 188.344 188.547 188.956 189.015 189.145 160.547 160.855 
160.556 160.251 161.434 160.961 160.648 160.237 159.968 162.397 161.742 
161.488 160.868 160.648 160.159 160.191 163.585 162.869 162.647 161.922 
161.73 161.077 161.086 160.689 161.041 164.787 164.091 163.9 163.173 
163.015 162.298 162.277 161.719 161.969 161.689 162.176 166.09 165.364 
165.29 164.523 164.487 163.707 163.762 163.05 163.273 162.751 163.173 
162.878 163.439 167.513 166.8 166.871 166.087 166.184 165.351 165.5 
164.691 164.939 164.234 164.605 164.065 164.559 164.227 164.839 168.826 
168.23 168.358 167.711 167.852 167.109 167.239 166.462 166.654 165.94 
166.237 165.607 165.99 165.481 165.961 165.65 166.235 169.955 169.444 
169.548 169.058 169.19 168.631 168.716 168.067 168.163 167.526 167.736 
167.161 167.467 166.926 167.285 166.83 167.274 166.99 167.511 160.39 
160.093 160.242 160.27 159.744 159.857 159.945 160.21 160.45 159.981 
159.726 159.82 159.927 160.314 160.571 160.999 160.948 160.386 160.521 
160.21 160.672 160.668 161.274 161.348 161.856 162.13 161.549 161.714 
161.247 161.689 161.423 162.056 161.911 162.499 162.37 162.868 163.372 
162.764 162.905 162.435 162.8 162.519 163.074 162.877 163.412 163.179 
163.628 163.447 163.932 164.805 164.127 164.297 163.683 163.994 163.58 
164.068 163.842 164.343 164.109 164.498 164.25 164.659 164.521 165.023 
166.246 165.628 165.865 165.212 165.511 164.906 165.312 164.887 165.367 
165.048 165.459 165.143 165.522 165.285 165.755 165.629 166.153 167.511 
167.002 167.24 166.721 166.991 166.433 166.729 166.212 166.584 166.164 
166.565 166.179 166.565 166.224 166.667 166.434 166.951 166.796 167.324 
160.38 160.33 160.293 160.24 160.592 160.412 160.388 160.253 160.416 
161.128 160.842 160.893 160.619 160.823 160.755 161.316 161.882 161.502 
161.62 161.296 161.59 161.392 161.955 161.948 162.694 162.84 162.368 
162.532 162.164 162.559 162.309 162.904 162.749 163.435 163.387 164.187 
163.937 163.424 163.623 163.204 163.633 163.356 163.955 163.752 164.395 
164.232 164.992 164.994 166.032 165.056 164.559 164.766 164.343 164.736 
164.445 164.985 164.772 165.358 165.184 165.906 165.877 166.901 167.054 
168.263 166.174 165.683 165.881 165.461 165.823 165.521 166.044 165.799 
166.389 166.161 166.88 166.799 167.799 167.93 169.095 169.276 170.305 
167.339 166.832 167.051 166.592 166.973 166.625 167.203 166.925 167.614 
167.323 168.104 167.89 168.869 168.859 169.965 170.07 171.039 171.093 
171.792 179.257 177.956 178.434 178.038 176.527 177.034 176.591 177.117 
176.688 175.095 175.556 175.078 175.605 175.182 175.738 175.308 173.811 
174.18 173.691 174.127 173.737 174.265 173.918 174.405 173.949 172.634 
172.972 172.484 172.834 172.428 172.895 172.592 173.086 172.708 173.084 
172.584 171.441 171.8 171.312 171.658 171.187 171.608 171.223 171.74 
171.357 171.831 171.36 171.738 171.284 170.239 170.586 170.078 170.445 
169.939 170.336 169.867 170.333 169.906 170.412 169.984 170.459 170.046 
170.494 170.17 169.092 169.386 168.839 169.184 168.667 169.056 168.583 
168.998 168.571 169.013 168.642 169.108 168.784 169.249 168.96 169.433 
169.187 168.045 168.273 167.707 167.978 167.455 167.799 167.351 167.747 
167.347 167.756 167.395 167.839 167.546 168.025 167.767 168.237 167.98 
168.456 168.226 
POINT_DATA 1002
SCALARS Distance double
LOOKUP_TABLE default
171.592 170.467 170.378 171.605 170.357 172.928 171.636 170.364 172.952 
174.265 171.686 170.447 172.993 174.326 175.497 171.862 170.676 173.147 
174.515 175.745 176.684 172.196 170.988 173.463 174.827 176.154 177.146 
177.894 172.596 171.36 173.854 175.12 176.45 177.611 178.442 179.154 
173.016 171.842 174.248 175.387 176.559 177.786 178.833 179.653 180.371 
173.432 172.372 174.619 175.722 176.763 177.889 178.993 179.937 180.728 
181.38 173.821 172.87 174.936 176.052 177.096 178.151 179.175 180.072 
180.881 181.6 182.165 169.383 169.166 168.164 167.811 166.782 169.041 
166.455 165.465 167.635 169.033 165.252 164.296 166.353 167.702 169.212 
164.024 163.085 165.146 166.464 167.97 169.502 162.785 161.96 163.885 
165.188 166.663 168.25 169.816 161.889 161.222 162.846 164.019 165.34 
166.928 168.659 170.308 161.304 160.805 162.094 163.125 164.244 165.681 
167.539 169.404 170.995 160.786 160.514 161.379 162.318 163.367 164.63 
166.427 168.486 170.269 171.671 160.298 160.557 160.175 160.705 160.738 
161.349 161.672 162.021 161.811 162.476 163.112 163.43 163.007 163.168 
163.754 164.71 165.032 164.665 164.631 164.814 165.494 166.8 167.213 
166.659 166.593 166.525 166.886 167.693 169.102 169.481 168.788 168.584 
168.388 168.457 169.035 169.762 170.889 171.185 170.537 170.236 170.023 
169.994 170.335 170.909 171.375 172.109 172.347 171.831 171.571 171.42 
171.448 171.703 172.099 172.439 172.664 173.941 173.815 175.144 173.689 
175.056 176.311 173.429 174.855 176.056 177.202 173.08 174.503 175.583 
176.728 177.87 172.841 174.229 175.22 176.236 177.434 178.468 172.801 
174.165 175.22 176.178 177.26 178.151 178.854 172.9 174.189 175.323 
176.348 177.439 178.155 178.52 179.036 173.055 174.218 175.332 176.332 
177.482 178.32 178.525 178.747 179.39 173.226 174.266 175.338 176.263 
177.304 178.322 178.73 178.824 179.281 180.115 174.989 176.225 176.141 
177.327 177.306 177.266 178.149 178.235 178.353 178.379 178.834 178.988 
179.15 179.418 179.436 179.383 179.755 179.914 180.132 180.346 180.299 
179.66 180.328 180.738 180.891 181.012 181.113 181.069 179.932 180.649 
181.34 181.721 181.805 181.869 181.94 181.858 180.546 181.11 181.815 
182.431 182.682 182.731 182.811 182.791 182.545 181.381 181.851 182.836 
183.405 184.304 182.434 184.969 185.669 184.025 183.124 186.258 186.824 
185.445 184.501 183.562 187.397 187.849 186.548 185.567 184.596 183.651 
188.601 188.778 187.761 186.601 185.536 184.622 183.723 189.433 189.325 
188.846 187.738 186.592 185.61 184.681 183.723 189.537 189.355 189.149 
188.288 187.326 186.407 185.423 184.387 183.414 189.248 189.139 188.877 
188.139 187.369 186.669 185.826 184.789 183.78 182.924 180.501 181.877 
180.937 182.162 181.266 183.275 182.214 181.433 183.37 184.655 182.27 
181.495 183.355 184.773 186.011 182.418 181.543 183.49 184.875 186.165 
187.084 182.483 181.572 183.57 184.903 186.138 187.019 187.866 182.36 
181.494 183.36 184.578 185.801 186.712 187.515 188.49 182.128 181.305 
183.012 184.024 185.145 186.182 187.054 187.929 188.803 181.867 181.079 
182.702 183.572 184.497 185.495 186.481 187.337 188.099 188.763 173.145 
174.108 174.044 175.074 174.986 175.212 176.081 175.965 176.207 176.241 
177.132 177.065 177.202 177.244 177.213 178.179 178.15 178.104 178.172 
178.267 178.288 179.088 179.009 178.932 178.9 179.122 179.193 178.989 
179.873 179.721 179.805 179.681 179.824 179.977 179.719 179.218 180.616 
180.419 180.7 180.64 180.635 180.728 180.609 180.168 179.648 171.845 
172.78 171.023 172.193 169.936 173.798 171.355 168.969 173.376 174.75 
170.522 168.35 172.688 174.323 175.706 169.855 167.871 171.975 173.738 
175.281 176.842 169.273 167.458 171.396 173.267 174.869 176.481 177.95 
168.861 167.327 170.875 172.865 174.562 176.173 177.677 178.856 168.766 
167.513 170.462 172.344 174.101 175.799 177.43 178.73 179.671 168.91 
167.836 170.265 171.829 173.453 175.179 176.999 178.558 179.643 180.423 