# vtk DataFile Version 4.0
vtk output
ASCII
DATASET POLYDATA
POINTS 1002 float
-119.906 -112.907 54.2369 -119.829 -112.242 53.1673 -119.159 -112.293 53.5448 
-119.225 -113.141 54.6956 -118.43 -112.436 54.0091 -119.952 -113.851 55.4707 
-118.483 -113.574 55.1435 -117.818 -112.76 54.5473 -119.268 -114.359 55.9022 
-119.971 -115.149 56.6323 -117.837 -114.165 55.6227 -117.305 -113.237 55.189 
-118.513 -115.005 56.3334 -119.293 -115.754 57.1358 -119.929 -116.496 57.8971 
-117.293 -114.734 56.3249 -116.777 -113.76 55.9593 -117.801 -115.663 56.9116 
-118.505 -116.378 57.7769 -119.206 -117.086 58.6239 -119.775 -117.805 59.3926 
-116.827 -115.168 57.3329 -116.321 -114.303 56.8193 -117.213 -116.202 57.8356 
-117.746 -117.035 58.5876 -118.381 -117.763 59.4224 -118.94 -118.557 60.1234 
-119.508 -119.338 60.6989 -116.452 -115.596 58.4175 -115.95 -114.916 57.7182 
-116.757 -116.616 58.999 -117.126 -117.635 59.5997 -117.671 -118.504 60.2534 
-118.176 -119.351 60.8208 -118.638 -120.189 61.2808 -119.228 -120.938 61.6626 
-116.012 -116.149 59.3948 -115.489 -115.536 58.6556 -116.303 -117.098 60.0333 
-116.551 -118.148 60.5975 -117.008 -119.096 61.1589 -117.574 -120.006 61.6284 
-118.012 -120.852 62.0077 -118.435 -121.586 62.3481 -118.999 -122.166 62.6713 
-115.398 -116.728 60.2894 -114.931 -116.082 59.5451 -115.691 -117.68 60.8853 
-115.913 -118.725 61.3642 -116.262 -119.615 61.9256 -116.82 -120.487 62.4814 
-117.392 -121.361 62.8922 -117.812 -122.065 63.237 -118.228 -122.61 63.5663 
-118.764 -123.012 63.8909 -114.737 -117.264 61.0341 -114.386 -116.622 60.2254 
-114.99 -118.177 61.6641 -115.25 -119.249 62.0585 -115.586 -120.17 62.523 
-116.009 -120.977 63.1492 -116.532 -121.839 63.6798 -117.04 -122.576 64.0725 
-117.466 -123.078 64.4412 -117.933 -123.463 64.7881 -118.492 -123.759 65.1011 
-119.251 -111.552 52.5425 -118.484 -111.585 52.8671 -118.458 -110.685 52.002 
-117.691 -110.795 52.2859 -117.556 -109.749 51.3823 -117.798 -111.682 53.3585 
-116.857 -109.907 51.7423 -116.679 -108.812 50.7258 -117.083 -110.952 52.8045 
-117.245 -111.939 54.0233 -116.07 -108.903 51.3041 -115.913 -107.905 50.2856 
-116.263 -110.138 52.3342 -116.431 -111.246 53.492 -116.62 -112.4 54.7475 
-115.402 -108.017 51.0871 -115.324 -107.091 50.1803 -115.464 -109.214 52.0428 
-115.485 -110.502 53.0225 -115.636 -111.734 54.1577 -115.985 -113.035 55.4434 
-114.739 -107.377 51.0906 -114.864 -106.303 50.4072 -114.668 -108.478 51.9127 
-114.679 -109.661 52.8052 -114.772 -110.956 53.729 -115.077 -112.419 54.8398 
-115.55 -113.803 56.2091 -113.996 -106.744 51.2821 -114.433 -105.555 50.9064 
-113.679 -107.913 51.8073 -113.804 -108.988 52.6502 -114.15 -110.104 53.6121 
-114.425 -111.592 54.5861 -114.728 -113.268 55.7515 -115.146 -114.578 57.1605 
-113.39 -106.101 51.6351 -114.034 -105.042 51.5279 -112.762 -107.246 51.8066 
-112.756 -108.394 52.4317 -113.347 -109.487 53.4723 -113.867 -110.787 54.5587 
-114.07 -112.476 55.6519 -114.286 -114.08 56.863 -114.654 -115.201 58.1917 
-113.076 -105.63 52.1384 -113.693 -104.785 52.1756 -112.346 -106.576 52.0989 
-112.054 -107.704 52.4658 -112.466 -108.952 53.3833 -113.124 -110.252 54.494 
-113.504 -111.735 55.6049 -113.65 -113.335 56.7623 -113.876 -114.687 57.9134 
-114.195 -115.711 59.0627 -113.082 -105.066 52.8748 -112.483 -105.861 52.7758 
-112.549 -105.323 53.7949 -112.213 -106.251 53.8757 -112.186 -105.874 55.0565 
-111.996 -106.859 52.9183 -112.161 -107.049 55.3874 -112.062 -106.859 56.4973 
-112.078 -107.461 54.3833 -111.985 -108.181 53.6334 -112.286 -107.986 56.8827 
-112.261 -107.822 57.947 -112.318 -108.283 56.0131 -112.201 -108.905 55.2378 
-112.429 -109.681 54.6469 -112.82 -108.702 58.1566 -112.894 -108.576 59.2004 
-112.862 -108.947 57.2525 -112.733 -109.544 56.5974 -112.669 -110.449 56.0031 
-112.975 -111.204 55.6579 -113.817 -109.611 59.167 -113.996 -109.601 59.9406 
-113.827 -109.758 58.2551 -113.751 -110.245 57.6008 -113.499 -111.123 57.1998 
-113.286 -112.049 56.9226 -113.319 -112.755 56.8174 -114.846 -111.082 59.9139 
-115.164 -111.051 60.2963 -114.695 -111.226 59.2978 -114.634 -111.637 58.7126 
-114.4 -112.27 58.4475 -113.932 -112.971 58.3144 -113.513 -113.639 58.1431 
-113.476 -114.228 58.0036 -115.379 -112.751 60.6527 -115.796 -112.583 60.789 
-115.002 -113.002 60.3941 -114.793 -113.484 60.0156 -114.563 -114.017 59.8037 
-114.065 -114.387 59.7396 -113.522 -114.74 59.4957 -113.351 -115.164 59.1653 
-113.637 -115.513 59.0279 -115.355 -114.23 61.5891 -115.781 -113.956 61.646 
-114.867 -114.541 61.5244 -114.504 -115.05 61.3243 -114.225 -115.62 61.0872 
-113.714 -115.932 60.9552 -113.079 -116.107 60.6988 -112.868 -116.388 60.2365 
-113.21 -116.615 59.9595 -113.793 -116.652 60.0371 -114.021 -117.68 61.2633 
-113.37 -117.913 60.9847 -113.574 -118.907 62.3123 -112.647 -118.01 60.9104 
-112.873 -119.272 62.1029 -113.261 -120.082 63.4795 -112.283 -117.73 61.2767 
-112.176 -119.283 62.1655 -112.566 -120.382 63.5147 -113.055 -121.28 64.83 
-112.705 -117.359 61.7562 -112.07 -118.762 62.5472 -112.036 -120.149 63.7424 
-112.386 -121.417 65.0758 -112.68 -122.733 66.2426 -113.467 -117.119 62.0896 
-112.703 -118.262 62.9947 -112.113 -119.52 64.0925 -111.977 -121.058 65.3826 
-112.108 -122.721 66.603 -112.092 -124.156 67.6925 -113.928 -116.723 62.4239 
-113.352 -117.982 63.5093 -112.603 -119.095 64.6157 -112.005 -120.534 65.8124 
-111.852 -122.338 67.0665 -111.677 -124.02 68.2864 -111.353 -125.195 69.3453 
-114.268 -116.19 62.6739 -113.764 -117.658 63.9277 -113.102 -118.896 65.1962 
-112.307 -120.183 66.4183 -111.908 -121.818 67.661 -111.633 -123.577 68.9853 
-111.032 -125.012 70.1684 -110.479 -126.08 71.0218 -114.748 -115.787 62.7205 
-114.246 -117.324 63.9933 -113.723 -118.729 65.3528 -112.894 -119.997 66.7394 
-112.207 -121.359 68.092 -111.845 -122.935 69.5099 -111.229 -124.48 70.8328 
-110.352 -125.819 71.7424 -109.77 -126.962 72.2617 -115.213 -115.453 62.7361 
-114.724 -116.994 63.9406 -114.381 -118.498 65.1816 -113.743 -119.856 66.5598 
-112.846 -121.083 68.0286 -112.206 -122.36 69.5417 -111.683 -123.75 71.0131 
-110.9 -125.14 72.0957 -110.068 -126.446 72.6613 -109.583 -127.55 72.9535 
-114.267 -118.411 62.1582 -113.912 -119.585 63.2618 -114.562 -119.401 62.752 
-113.763 -120.801 64.5072 -114.417 -120.562 63.9736 -115.004 -120.488 63.1936 
-113.445 -122.347 65.9309 -114.276 -121.907 65.4829 -114.945 -121.703 64.6872 
-115.421 -121.447 63.8103 -112.764 -124.016 67.3521 -113.68 -123.538 67.0351 
-114.601 -123.062 66.4092 -115.223 -122.756 65.392 -115.759 -122.368 64.4338 
-111.983 -125.226 68.8247 -112.898 -124.943 68.3855 -113.927 -124.433 67.8969 
-114.804 -124.008 67.0084 -115.44 -123.692 65.8482 -116.177 -123.207 64.8759 
-111.109 -126.163 70.4528 -112.164 -125.975 69.7717 -113.29 -125.61 69.1091 
-114.323 -125.203 68.3771 -115.142 -124.853 67.3279 -115.844 -124.417 66.1912 
-116.66 -123.765 65.2761 -110.181 -127.224 71.8872 -111.263 -127.054 71.2268 
-112.553 -126.667 70.3539 -113.751 -126.31 69.5203 -114.814 -125.979 68.6472 
-115.659 -125.538 67.5611 -116.4 -124.899 66.5234 -117.188 -124.141 65.6632 
-109.628 -128.082 72.81 -110.445 -128.062 72.3848 -111.733 -127.58 71.5689 
-113.062 -127.088 70.6065 -114.332 -126.799 69.7195 -115.465 -126.493 68.7286 
-116.334 -125.973 67.6529 -117.068 -125.249 66.7602 -117.804 -124.455 65.9778 
-109.732 -128.112 73.408 -109.998 -128.51 73.2763 -110.453 -128.009 73.9803 
-111.178 -128.114 73.6964 -111.882 -127.461 74.6573 -111.084 -128.206 72.7244 
-113.156 -127.506 74.0393 -113.89 -127.152 75.1071 -112.634 -127.692 72.9225 
-112.538 -127.538 71.7835 -115.232 -127.507 74.0843 -115.958 -127.12 75.0093 
-114.722 -127.54 73.0773 -114.173 -127.282 71.9967 -113.976 -127.12 70.8045 
-116.865 -127.658 73.7193 -117.741 -126.928 74.5252 -116.364 -128.092 73.0075 
-115.973 -127.685 72.2466 -115.502 -127.166 71.0302 -115.334 -126.962 69.7564 
-118.368 -127.345 73.3234 -119.281 -126.739 74.0956 -117.63 -128.185 72.6588 
-117.261 -128.274 72.1752 -116.96 -127.558 71.1465 -116.647 -127.043 69.6876 
-116.452 -126.68 68.5342 -119.895 -126.96 73.1589 -120.678 -126.729 73.7671 
-119.132 -127.531 72.4075 -118.557 -128.012 71.7982 -118.136 -127.717 70.9367 
-117.8 -127.109 69.5837 -117.531 -126.691 68.3475 -117.274 -126.109 67.5148 
-121.274 -126.76 72.8562 -122.034 -126.63 73.2532 -120.612 -126.963 72.1786 
-120.057 -127.33 71.4035 -119.442 -127.373 70.5472 -118.851 -126.969 69.4655 
-118.481 -126.533 68.3612 -118.243 -126.036 67.5133 -118 -125.291 66.7835 
-122.553 -126.569 72.1627 -123.339 -126.352 72.492 -121.845 -126.721 71.5802 
-121.334 -126.94 70.8304 -120.756 -126.998 70.0576 -120.009 -126.689 69.2679 
-119.42 -126.236 68.4297 -119.129 -125.754 67.6263 -118.932 -125.128 66.8461 
-118.705 -124.417 65.9942 -110.184 -127.071 73.2386 -110.524 -127.347 73.7632 
-111.296 -126.289 73.4832 -111.765 -126.377 74.2003 -112.462 -125.542 73.7257 
-111.308 -127.124 74.5686 -113.015 -125.558 74.5881 -113.435 -124.927 73.6841 
-112.556 -126.268 75.0997 -112.747 -126.866 75.4054 -114.107 -124.91 74.4141 
-114.34 -124.473 72.9208 -113.896 -125.517 75.2601 -114.008 -126.356 75.65 
-114.832 -126.854 75.7321 -115.12 -124.581 73.2676 -115.306 -124.174 71.6056 
-115.072 -124.878 74.6703 -115.266 -125.69 75.1817 -115.985 -126.485 75.4541 
-116.991 -126.717 75.4001 -116.167 -124.393 71.6684 -116.348 -123.572 70.5558 
-116.092 -124.658 73.2584 -116.205 -125.086 74.165 -116.789 -125.894 74.4116 
-117.816 -126.35 74.8055 -118.743 -126.487 74.8104 -117.264 -123.678 70.5591 
-117.371 -122.479 70.0266 -117.181 -124.392 71.7053 -117.161 -124.767 72.8831 
-117.459 -125.326 73.2918 -118.276 -125.868 73.6263 -119.353 -126.17 74.2178 
-120.206 -126.475 74.2993 -118.243 -122.545 69.9633 -118.217 -121.405 69.5153 
-118.278 -123.529 70.6583 -118.323 -124.158 71.7104 -118.523 -124.705 72.405 
-119.048 -125.236 72.6783 -119.92 -125.59 73.2266 -120.919 -125.98 73.7945 
-121.674 -126.418 73.7812 -118.964 -121.582 69.3435 -118.835 -120.646 68.7601 
-119.131 -122.505 69.9123 -119.327 -123.206 70.742 -119.639 -123.8 71.5771 
[...]
CELL_DATA 2000
SCALARS Distance double
LOOKUP_TABLE default
171.748 171.497 171.963 172.686 171.368 171.789 172.6 173.031 173.846 
171.445 171.782 172.623 173.02 173.895 174.29 175.124 171.657 171.949 
172.781 173.117 173.988 174.369 175.233 175.592 176.4 171.946 172.206 
173.048 173.33 174.188 174.51 175.381 175.722 176.562 176.879 177.676 
172.34 172.549 173.4 173.639 174.505 174.772 175.654 175.942 176.802 
177.08 177.886 178.164 178.931 172.766 172.966 173.789 174.013 174.848 
175.1 175.953 176.24 177.098 177.373 178.172 178.407 179.137 179.384 
180.064 173.099 173.336 174.111 174.364 175.141 175.401 176.172 176.471 
177.27 177.61 178.401 178.688 179.387 179.602 180.224 180.439 181.009 
173.337 173.59 174.315 174.6 175.336 175.625 176.35 176.637 177.371 
177.705 178.469 178.824 179.528 179.804 180.388 180.593 181.116 181.317 
181.812 171.128 169.974 170.644 170.798 168.658 169.423 169.627 170.332 
170.611 167.268 168.092 168.39 169.16 169.487 170.232 170.653 165.931 
166.732 167.089 167.923 168.298 169.092 169.507 170.322 170.822 164.82 
165.499 165.859 166.648 167.039 167.856 168.253 169.11 169.609 170.506 
171.081 163.95 164.515 164.842 165.506 165.876 166.621 167.021 167.836 
168.358 169.273 169.931 170.841 171.498 163.196 163.68 163.899 164.496 
164.795 165.51 165.926 166.692 167.248 168.098 168.816 169.733 170.479 
171.333 171.975 162.606 162.938 163.012 163.49 163.686 164.393 164.838 
165.655 166.268 167.095 167.819 168.69 169.458 170.33 171.012 171.803 
172.357 162.281 162.437 162.439 162.682 162.812 163.338 163.812 164.604 
165.317 166.163 166.925 167.754 168.51 169.343 170.041 170.839 171.428 
172.157 172.646 162.209 162.217 162.226 162.299 162.567 162.382 162.492 
162.401 162.671 163.419 163.028 163.272 162.922 163.264 163.104 163.719 
164.588 164.105 164.417 163.975 164.372 164.011 164.605 164.473 165.279 
165.883 165.349 165.649 165.199 165.607 165.222 165.773 165.518 166.244 
166.137 166.936 167.431 166.763 167.119 166.538 167.02 166.538 167.15 
166.771 167.482 167.21 167.955 167.788 168.533 169.243 168.496 168.93 
168.221 168.792 168.171 168.87 168.331 169.05 168.58 169.245 168.892 
169.539 169.347 170.022 170.961 170.32 170.719 170.076 170.6 170.024 
170.665 170.13 170.726 170.184 170.656 170.185 170.641 170.347 170.892 
170.759 171.368 172.318 171.848 172.156 171.668 172.058 171.632 172.118 
171.726 172.139 171.674 171.916 171.439 171.681 171.352 171.757 171.59 
172.12 172.03 172.58 173.235 172.825 173.391 174.116 172.444 172.983 
173.759 174.325 175.086 172.288 172.647 173.378 173.95 174.778 175.347 
176.168 172.518 172.649 173.247 173.617 174.406 174.995 175.874 176.478 
177.369 172.856 172.993 173.538 173.661 174.302 174.677 175.521 176.13 
177.081 177.716 178.603 172.929 173.253 173.878 174.026 174.588 174.741 
175.449 175.855 176.807 177.425 178.4 178.944 179.7 172.868 173.252 
173.982 174.283 174.927 175.084 175.713 175.926 176.774 177.249 178.262 
178.796 179.633 179.993 180.572 172.928 173.251 174.026 174.373 175.146 
175.399 176.083 176.241 176.969 177.289 178.208 178.707 179.58 179.973 
180.583 180.823 181.291 173.047 173.349 174.102 174.456 175.277 175.62 
176.393 176.604 177.281 177.488 178.233 178.633 179.444 179.892 180.539 
180.837 181.294 181.508 181.914 173.694 174.56 174.293 174.662 175.517 
175.2 175.576 175.305 175.694 176.637 176.248 176.663 176.308 176.738 
176.396 176.763 177.908 177.486 177.967 177.532 178.01 177.57 177.966 
177.501 177.823 179.129 178.78 179.271 178.879 179.344 178.909 179.292 
178.788 179.082 178.581 178.893 180.108 179.877 180.312 180.054 180.459 
180.142 180.481 180.066 180.319 179.838 180.082 179.637 179.916 180.89 
180.718 181.118 180.942 181.335 181.111 181.465 181.154 181.434 181.014 
181.227 180.775 180.983 180.568 180.764 181.6 181.449 181.86 181.7 
182.097 181.91 182.281 182.061 182.404 182.088 182.343 181.902 182.079 
181.612 181.772 181.338 181.485 182.225 182.128 182.535 182.417 182.77 
182.611 182.905 182.764 183.079 182.94 183.238 182.958 183.152 182.715 
182.849 182.373 182.506 182.051 182.177 182.636 183.287 182.985 182.98 
183.933 183.614 183.619 183.288 183.196 184.884 184.368 184.342 183.912 
183.803 183.418 183.287 186.113 185.499 185.488 184.848 184.736 184.122 
183.99 183.54 183.474 187.101 186.655 186.696 186.144 186.098 185.331 
185.142 184.417 184.298 183.806 183.709 187.777 187.43 187.448 187.16 
187.183 186.673 186.436 185.673 185.342 184.693 184.467 183.976 183.698 
188.465 188.058 187.986 187.723 187.718 187.465 187.246 186.727 186.248 
185.627 185.201 184.69 184.342 183.842 183.429 189.124 188.731 188.565 
188.227 188.12 187.874 187.669 187.293 186.827 186.301 185.787 185.307 
184.904 184.449 184.041 183.522 183.074 189.588 189.282 189.05 188.725 
188.522 188.255 188.028 187.688 187.268 186.783 186.261 185.79 185.35 
184.943 184.538 184.09 183.641 183.143 182.702 182.57 182.721 182.818 
183.188 182.981 183.007 183.347 183.43 183.848 183.253 183.311 183.68 
183.689 184.161 184.238 184.838 183.343 183.538 183.978 184.061 184.588 
184.679 185.361 185.444 186.103 183.269 183.557 184.033 184.258 184.775 
185.022 185.695 185.943 186.603 186.681 187.137 183.147 183.468 183.957 
184.234 184.692 185.008 185.557 185.998 186.624 186.983 187.471 187.547 
187.858 182.929 183.313 183.82 184.142 184.592 184.866 185.305 185.681 
186.218 186.721 187.294 187.686 188.149 188.245 188.57 182.594 183.028 
183.535 183.943 184.422 184.749 185.193 185.476 185.952 186.318 186.888 
187.36 187.966 188.363 188.853 188.964 189.252 182.207 182.65 183.14 
183.591 184.068 184.491 184.959 185.334 185.816 186.151 186.661 187.032 
187.599 188.06 188.634 189.03 189.443 189.553 189.731 173.318 174.065 
173.914 174.397 174.92 174.715 175.266 175.097 175.623 175.922 175.633 
176.176 176.013 176.611 176.39 176.817 176.999 176.671 177.164 176.958 
177.567 177.383 177.856 177.511 177.764 178.077 177.761 178.261 177.993 
178.58 178.36 178.858 178.539 178.838 178.408 178.67 179.138 178.859 
179.404 179.122 179.685 179.411 179.895 179.563 179.896 179.49 179.784 
179.394 179.768 180.119 179.907 180.449 180.224 180.742 180.484 180.922 
180.607 180.953 180.574 180.881 180.498 180.829 180.49 180.812 180.956 
180.813 181.316 181.164 181.633 181.435 181.83 181.574 181.922 181.616 
181.938 181.582 181.861 181.493 181.723 181.383 181.566 181.673 181.571 
182.048 181.936 182.383 182.233 182.612 182.407 182.743 182.514 182.827 
182.556 182.787 182.448 182.583 182.227 182.338 182.018 182.152 172.769 
172.1 172.804 173.502 171.384 172.141 172.962 173.618 174.385 170.763 
171.482 172.401 173.123 174.037 174.642 175.466 170.342 170.948 171.836 
172.57 173.56 174.305 175.248 175.803 176.588 170.1 170.6 171.392 
172.022 172.946 173.751 174.762 175.513 176.384 176.903 177.631 169.9 
170.366 171.1 171.627 172.465 173.154 174.161 174.963 175.96 176.629 
177.45 177.932 178.657 169.665 170.119 170.844 171.358 172.191 172.772 
173.752 174.451 175.515 176.221 177.178 177.736 178.524 178.962 179.655 
169.531 169.894 170.633 171.127 172.013 172.563 173.53 174.138 175.166 
175.844 176.842 177.47 178.315 178.811 179.509 179.915 180.522 169.634 
169.865 170.599 171.004 171.909 172.423 173.371 173.928 174.869 175.498 
176.437 177.103 177.955 178.539 179.245 179.719 180.322 180.719 181.255 
169.984 170.917 170.581 170.965 171.965 171.603 172.036 171.734 172.272 
173.094 172.689 173.103 172.812 173.347 173.11 173.695 174.309 173.857 
174.203 173.853 174.345 174.131 174.729 174.529 175.147 175.486 175.079 
175.423 174.999 175.472 175.169 175.809 175.583 176.267 176.029 176.69 
176.556 176.228 176.665 176.268 176.794 176.423 177.097 176.787 177.5 
177.204 177.86 177.583 178.181 177.628 177.327 177.871 177.537 178.146 
177.8 178.477 178.146 178.81 178.473 179.053 178.734 179.26 178.984 
179.463 178.738 178.46 179.067 178.779 179.427 179.128 179.779 179.473 
180.07 179.737 180.249 179.901 180.367 180.044 180.488 180.183 180.568 
179.806 179.579 180.199 179.966 180.596 180.346 180.943 180.675 181.216 
180.916 181.397 181.063 181.506 181.158 181.575 181.227 181.59 181.236 
181.526 180.57 181.908 181.162 181.018 183.335 182.554 182.41 181.619 
181.431 184.779 184.003 183.832 183.019 182.791 181.994 181.756 186.063 
185.377 185.183 184.413 184.145 183.335 183.055 182.273 182.001 187.18 
186.544 186.346 185.671 185.407 184.65 184.34 183.555 183.254 182.483 
182.178 188.313 187.639 187.413 186.757 186.511 185.835 185.523 184.785 
184.445 183.699 183.37 182.621 182.283 189.332 188.743 188.441 187.785 
187.481 186.863 186.548 185.884 185.497 184.796 184.411 183.732 183.374 
182.675 182.314 189.894 189.568 189.216 188.677 188.237 187.696 187.301 
186.77 186.346 185.736 185.278 184.655 184.249 183.648 183.269 182.635 
182.258 189.928 189.877 189.569 189.233 188.712 188.253 187.715 187.302 
186.816 186.39 185.901 185.399 184.94 184.414 184.01 183.467 183.074 
182.5 182.122 180.565 180.993 181.134 181.884 181.44 181.584 182.354 
182.513 183.317 181.801 182.03 182.855 183.034 183.903 184.026 184.819 
181.962 182.347 183.335 183.614 184.608 184.717 185.564 185.544 186.189 
181.979 182.458 183.605 184.096 185.254 185.485 186.364 186.334 186.964 
186.84 187.35 181.982 182.445 183.525 184.205 185.354 185.911 186.737 
186.958 187.5 187.536 188.052 187.991 188.495 181.929 182.361 183.185 
183.886 184.8 185.588 186.274 186.866 187.317 187.73 188.221 188.506 
189.048 189.097 189.505 181.704 182.137 182.734 183.349 184.033 184.783 
185.379 186.082 186.556 187.2 187.734 188.342 188.91 189.329 189.719 
189.845 189.999 181.338 181.762 182.241 182.779 183.366 184.006 184.62 
185.244 185.821 186.431 187.054 187.713 188.326 188.915 189.303 189.688 
189.801 189.986 189.933 179.811 178.807 179.608 180.222 177.75 178.566 
179.185 180.039 180.665 176.64 177.447 178.009 178.93 179.578 180.46 
181.006 175.514 176.288 176.759 177.672 178.296 179.281 179.854 180.697 
181.107 174.375 175.127 175.525 176.383 176.94 177.94 178.567 179.496 
179.959 180.727 181.102 173.23 173.954 174.296 175.116 175.608 176.574 
177.209 178.203 178.789 179.617 180.062 180.779 181.192 172.176 172.829 
173.146 173.889 174.35 175.249 175.866 176.859 177.496 178.433 178.972 
179.773 180.216 180.918 181.276 171.257 171.854 172.193 172.832 173.292 
174.067 174.678 175.578 176.216 177.141 177.701 178.596 179.071 179.889 
180.255 180.94 181.16 170.405 170.998 171.382 171.981 172.444 173.118 
173.694 174.48 175.094 175.931 176.48 177.325 177.804 178.655 179.058 
179.84 180.107 180.742 180.862 170.039 169.894 170.344 171.093 169.849 
170.281 171.114 171.475 172.227 169.908 170.306 171.156 171.532 172.342 
172.676 173.469 170.058 170.414 171.222 171.566 172.343 172.743 173.579 
173.97 174.809 170.276 170.594 171.373 171.645 172.362 172.716 173.564 
174.026 174.941 175.332 176.166 170.564 170.824 171.588 171.82 172.524 
172.794 173.644 174.059 175.05 175.469 176.374 176.68 177.473 170.944 
171.121 171.827 172.034 172.732 172.991 173.818 174.2 175.171 175.605 
176.528 176.878 177.664 177.953 178.688 171.359 171.488 172.117 172.279 
172.954 173.201 174 174.359 175.246 175.676 176.528 176.945 177.692 
178.061 178.742 179.079 179.717 171.716 171.85 172.444 172.582 173.246 
173.456 174.255 174.553 175.401 175.736 176.523 176.885 177.602 177.992 
178.656 179.037 179.633 179.975 180.485 172.095 173.016 172.64 172.854 
174.163 173.679 173.923 173.475 173.728 175.429 174.913 175.195 174.689 
175.01 174.498 174.814 176.694 176.192 176.483 176.002 176.362 175.876 
176.217 175.667 175.957 177.983 177.481 177.772 177.276 177.625 177.192 
177.556 177.067 177.318 176.758 176.989 179.266 178.807 179.131 178.599 
178.906 178.427 178.788 178.349 178.644 178.103 178.296 177.743 177.994 
180.391 180.046 180.401 179.946 180.224 179.717 180.008 179.558 179.866 
179.392 179.609 179.055 179.243 178.736 179.008 181.303 181.06 181.407 
181.092 181.371 180.957 181.201 180.759 181.014 180.571 180.776 180.288 
180.425 179.934 180.104 179.685 179.929 182.092 181.89 182.226 181.986 
182.282 181.981 182.26 181.893 182.158 181.721 181.921 181.419 181.532 
181.026 181.126 180.695 180.857 180.51 180.724 181.245 181.4 181.574 
182.146 181.708 181.821 182.463 182.614 183.296 182.174 182.251 182.969 
183.068 183.826 183.904 184.588 182.632 182.772 183.528 183.648 184.438 
184.517 185.234 185.228 185.838 182.876 183.15 183.887 184.125 184.848 
185.042 185.748 185.862 186.513 186.496 187.101 182.898 183.249 183.928 
184.293 184.933 185.251 185.881 186.184 186.85 187.065 187.686 187.74 
188.305 182.847 183.184 183.802 184.195 184.803 185.177 185.762 186.148 
186.786 187.185 187.793 188.078 188.553 188.726 189.136 182.779 183.105 
183.686 184.046 184.626 184.991 185.547 185.944 186.542 186.998 187.577 
187.973 188.386 188.68 188.979 189.262 189.543 182.643 182.995 183.551 
183.916 184.452 184.802 185.295 185.675 186.201 186.671 187.216 187.666 
188.058 188.382 188.619 188.921 189.149 189.488 189.694 162.145 162.393 
162.087 161.75 162.874 162.403 161.966 161.619 161.36 163.601 163.008 
162.576 162.005 161.724 161.427 161.57 164.556 163.902 163.657 162.923 
162.753 162.125 162.284 162.026 162.557 165.735 165.04 165.007 164.278 
164.309 163.518 163.697 163.09 163.558 163.283 163.932 167.093 166.361 
166.375 165.716 165.841 165.163 165.336 164.661 164.982 164.485 164.995 
164.718 165.327 168.551 167.809 167.813 167.111 167.204 166.593 166.757 
166.178 166.412 165.89 166.258 165.86 166.355 166.099 166.68 169.953 
169.294 169.35 168.61 168.693 167.989 168.173 167.552 167.831 167.269 
167.627 167.138 167.582 167.198 167.718 167.456 168.029 171.126 170.621 
170.718 170.106 170.203 169.529 169.713 169.061 169.364 168.755 169.131 
168.565 168.985 168.491 168.957 168.568 169.072 168.795 169.311 161.998 
161.602 161.792 161.757 161.31 161.42 161.518 161.665 161.846 161.63 
161.436 161.691 161.662 162.058 162.096 162.605 162.613 162.142 162.455 
162.197 162.712 162.601 163.24 163.206 163.871 163.919 163.326 163.596 
163.197 163.683 163.455 164.061 163.955 164.579 164.529 165.106 165.295 
164.673 164.91 164.426 164.852 164.507 165.001 164.782 165.283 165.184 
165.689 165.661 166.173 166.658 166.045 166.277 165.763 166.148 165.72 
166.124 165.749 166.121 165.874 166.309 166.223 166.739 166.717 167.236 
167.994 167.399 167.602 167.092 167.41 166.981 167.312 166.883 167.16 
166.772 167.125 166.91 167.419 167.334 167.869 167.792 168.244 169.257 
168.706 168.865 168.356 168.594 168.159 168.437 168.019 168.275 167.843 
168.142 167.811 168.268 168.091 168.62 168.482 168.926 168.766 169.127 
162.094 161.908 162.039 162.146 161.96 161.929 162.079 162.165 162.422 
162.646 162.251 162.401 162.26 162.583 162.659 163.195 163.866 163.241 
163.377 162.932 163.302 163.094 163.669 163.694 164.401 165.102 164.519 
164.628 164.111 164.459 164.095 164.64 164.423 165.066 165.018 165.74 
166.212 165.696 165.808 165.324 165.602 165.254 165.722 165.472 166.013 
165.825 166.458 166.421 167.232 167.292 166.813 166.986 166.497 166.763 
166.353 166.769 166.485 166.997 166.775 167.363 167.234 168.01 168.046 
168.992 168.257 167.861 168.07 167.673 167.988 167.568 167.978 167.59 
168.099 167.789 168.385 168.18 168.913 168.873 169.762 169.845 170.738 
169.098 168.75 168.951 168.667 169.016 168.735 169.163 168.828 169.298 
168.957 169.502 169.237 169.892 169.773 170.546 170.575 171.372 171.451 
172.144 179.338 178.276 178.649 178.321 177.191 177.562 177.235 177.621 
177.291 176.141 176.476 176.106 176.495 176.157 176.567 176.218 175.104 
175.431 174.986 175.326 174.914 175.356 175.012 175.464 175.112 173.956 
174.344 173.888 174.203 173.729 174.1 173.729 174.2 173.889 174.348 
173.999 172.722 173.133 172.713 173.08 172.635 172.969 172.578 172.969 
172.652 173.101 172.791 173.23 172.883 171.571 171.923 171.509 171.887 
171.466 171.846 171.435 171.833 171.455 171.883 171.535 171.994 171.672 
172.122 171.817 170.555 170.847 170.437 170.746 170.302 170.643 170.184 
170.597 170.176 170.636 170.25 170.721 170.381 170.873 170.593 171.086 
170.849 169.672 169.907 169.522 169.761 169.302 169.533 169.028 169.338 
168.91 169.335 168.999 169.454 169.147 169.604 169.329 169.827 169.602 
170.131 169.946 
POINT_DATA 1002
SCALARS Distance double
LOOKUP_TABLE default
172.399 171.581 171.266 172.226 171.002 173.435 172.142 170.963 173.436 
174.669 172.243 171.131 173.485 174.768 175.936 172.477 171.365 173.626 
174.857 176.077 177.19 172.78 171.697 173.891 175.051 176.238 177.375 
178.467 173.173 172.152 174.25 175.377 176.54 177.632 178.655 179.676 
173.577 172.571 174.62 175.678 176.807 177.95 178.936 179.824 180.695 
173.863 172.867 174.898 175.91 176.931 178.075 179.18 180.048 180.801 
181.535 174.045 173.103 175.043 176.071 177.073 178.113 179.221 180.186 
180.932 181.617 182.289 170.539 170.128 169.258 168.884 167.833 169.87 
167.56 166.413 168.727 169.866 166.225 165.157 167.483 168.686 169.972 
165.118 164.186 166.237 167.401 168.674 170.183 164.243 163.423 165.166 
166.228 167.436 168.966 170.647 163.375 162.793 164.082 165.138 166.414 
167.895 169.589 171.204 162.649 162.379 163.015 163.962 165.416 166.977 
168.588 170.199 171.636 162.286 162.182 162.384 163.04 164.436 166.1 
167.701 169.245 170.683 171.968 162.163 162.231 162.261 162.657 162.787 
162.592 163.643 163.83 163.52 163.683 164.846 165.091 164.765 164.833 
165.303 166.113 166.448 165.989 166.069 166.421 167.011 167.73 168.117 
167.515 167.556 167.826 168.201 168.656 169.642 169.971 169.419 169.444 
169.611 169.715 169.821 170.141 171.349 171.566 171.17 171.215 171.34 
171.233 171.024 171.081 171.456 172.633 172.757 172.492 172.518 172.629 
172.455 172.067 171.956 172.236 172.669 173.936 173.572 174.843 173.143 
174.565 175.854 172.847 174.147 175.627 177.026 173.038 173.861 175.213 
176.785 178.3 173.49 174.089 174.961 176.395 178.066 179.449 173.644 
174.505 175.177 176.214 177.817 179.321 180.334 173.6 174.705 175.575 
176.393 177.721 179.256 180.328 181.06 173.664 174.819 175.919 176.76 
177.76 179.15 180.341 181.085 181.731 173.755 174.891 176.125 177.138 
177.95 178.995 180.191 181.09 181.711 182.303 174.903 175.858 175.971 
177.034 177.099 177.148 178.403 178.467 178.467 178.285 179.644 179.772 
179.798 179.614 179.349 180.545 180.751 180.86 180.791 180.555 180.345 
181.28 181.534 181.726 181.814 181.699 181.43 181.177 182.013 182.291 
182.473 182.648 182.754 182.579 182.232 181.909 182.643 182.95 183.074 
183.173 183.42 183.544 183.336 182.981 182.63 182.964 183.347 183.552 
183.946 184.304 183.568 184.86 185.493 184.228 183.618 186.15 186.702 
185.462 184.526 183.833 187.118 187.488 186.825 186.01 184.896 184.168 
187.69 188.158 187.541 187.185 186.116 185.019 184.219 188.33 188.908 
187.943 187.674 186.882 185.75 184.838 183.973 188.957 189.509 188.411 
188.011 187.327 186.276 185.337 184.539 183.613 189.385 189.873 188.811 
188.348 187.729 186.751 185.76 184.955 184.122 183.189 182.444 183.049 
182.672 183.305 182.967 183.69 183.664 183.129 184.074 184.723 183.825 
183.078 184.448 185.243 186.12 183.773 182.962 184.504 185.377 186.468 
187.227 183.675 182.807 184.429 185.147 186.153 187.257 187.932 183.461 
182.523 184.328 185.025 185.748 186.757 187.871 188.647 183.102 182.158 
184.045 184.898 185.659 186.453 187.456 188.573 189.341 182.693 181.771 
183.628 184.535 185.449 186.345 187.189 188.154 189.178 189.814 173.445 
174.549 174.206 175.396 175.162 175.857 176.346 176.264 176.79 177.191 
177.408 177.331 177.743 178.173 178.209 178.547 178.356 178.833 179.169 
179.24 179.069 179.678 179.384 179.991 180.236 180.286 180.166 180.122 
180.664 180.314 181.008 181.231 181.303 181.273 181.208 181.162 181.466 
181.092 181.823 182.071 182.193 182.276 182.267 182.111 181.901 172.111 
172.861 171.329 172.235 170.59 173.792 171.625 170.077 173.347 174.978 
171.146 169.803 172.742 174.596 176.175 170.851 169.648 172.182 173.919 
175.775 177.209 170.602 169.452 171.851 173.365 175.201 176.909 178.234 
170.307 169.237 171.623 173.103 174.789 176.559 178.07 179.271 170.142 
169.216 171.454 172.963 174.525 176.187 177.785 179.095 180.163 170.238 