# vtk DataFile Version 4.0
vtk output
ASCII
DATASET POLYDATA
POINTS 1002 float
-120.314 -114.289 54.033 -120.073 -113.174 53.0762 -119.618 -113.262 53.5347 
-119.868 -114.392 54.6692 -119.025 -113.486 54.0512 -120.366 -115.363 55.2608 
-119.21 -114.756 55.2136 -118.346 -113.917 54.577 -119.875 -115.636 55.9031 
-120.348 -116.501 56.6927 -118.484 -115.375 55.7426 -117.792 -114.395 55.2366 
-119.171 -116.284 56.405 -119.774 -117.084 57.3137 -120.354 -117.844 58.3509 
-117.936 -115.964 56.5361 -117.418 -114.84 56.1365 -118.453 -117.042 57.0937 
-119.053 -117.875 58.0332 -119.731 -118.559 59.1894 -120.309 -119.24 60.2792 
-117.515 -116.524 57.6174 -117.036 -115.467 57.1388 -117.9 -117.596 58.1907 
-118.366 -118.461 59.1413 -119.033 -119.127 60.3327 -119.676 -119.802 61.3913 
-120.109 -120.516 62.2288 -116.977 -117.267 58.752 -116.539 -116.34 58.1006 
-117.359 -118.145 59.4613 -117.765 -118.917 60.436 -118.344 -119.581 61.6071 
-118.963 -120.264 62.6057 -119.402 -121.064 63.3187 -119.792 -121.849 63.8928 
-116.268 -118.103 59.8087 -115.955 -117.236 59.0744 -116.625 -118.86 60.6197 
-117.042 -119.562 61.5793 -117.586 -120.288 62.6547 -118.186 -121.005 63.5997 
-118.61 -121.8 64.2444 -118.959 -122.642 64.724 -119.465 -123.375 65.147 
-115.521 -118.837 60.8078 -115.33 -117.995 60.1109 -115.792 -119.607 61.5979 
-116.159 -120.337 62.5057 -116.64 -121.158 63.4734 -117.253 -121.95 64.371 
-117.785 -122.697 65.0284 -118.142 -123.498 65.4421 -118.571 -124.242 65.7733 
-119.165 -124.81 66.0803 -114.87 -119.431 61.778 -114.729 -118.624 61.1278 
-115.075 -120.252 62.4891 -115.366 -121.055 63.3223 -115.723 -121.922 64.2196 
-116.234 -122.731 65.0798 -116.868 -123.397 65.8027 -117.399 -124.09 66.2724 
-117.818 -124.817 66.5345 -118.304 -125.403 66.7543 -118.875 -125.802 66.9883 
-119.319 -112.133 52.3795 -118.773 -112.307 52.7131 -118.42 -111.298 51.3845 
-117.889 -111.527 51.687 -117.648 -110.657 50.2406 -118.167 -112.621 53.1913 
-117.085 -110.822 50.6306 -116.884 -109.864 49.2887 -117.339 -111.826 52.2041 
-117.581 -113.04 53.7881 -116.158 -109.953 49.739 -115.963 -108.809 48.6239 
-116.449 -111.015 51.2345 -116.782 -112.215 52.8775 -117.13 -113.441 54.5916 
-115.263 -108.939 49.147 -115.138 -107.749 48.2648 -115.479 -110.108 50.4653 
-115.802 -111.471 52.0013 -116.255 -112.729 53.758 -116.739 -113.925 55.5755 
-114.591 -107.93 48.9853 -114.4 -106.752 48.3151 -114.807 -109.114 50.075 
-114.947 -110.656 51.3909 -115.211 -112.248 52.909 -115.763 -113.421 54.7386 
-116.328 -114.696 56.5374 -113.8 -106.975 49.1017 -113.574 -105.811 48.5815 
-114.223 -108.113 50.0001 -114.47 -109.591 51.1073 -114.493 -111.496 52.2962 
-114.77 -113.107 53.8512 -115.428 -114.298 55.7078 -115.929 -115.676 57.4888 
-112.98 -106.173 49.2561 -112.981 -105.124 48.8517 -113.355 -107.283 50.0102 
-113.856 -108.554 50.9847 -114.084 -110.295 51.9835 -114.175 -112.314 53.2447 
-114.608 -113.984 54.9526 -115.219 -115.305 56.8273 -115.477 -116.645 58.5837 
-112.624 -105.628 49.5649 -112.883 -104.782 49.2702 -112.636 -106.73 50.1784 
-113.004 -107.942 51.0275 -113.514 -109.274 51.9353 -113.854 -111.051 53.0336 
-114.129 -113.16 54.5462 -114.549 -114.971 56.3332 -114.891 -116.314 58.1242 
-114.914 -117.485 59.7521 -112.837 -105.025 50.1817 -112.503 -106.05 50.6183 
-112.752 -105.44 51.591 -112.39 -106.892 52.2192 -112.538 -106.26 53.2629 
-112.386 -107.453 51.3503 -112.411 -107.906 54.0439 -112.596 -107.268 54.8783 
-112.381 -108.465 52.9887 -112.781 -108.739 52.1911 -113.036 -108.705 55.5734 
-113.325 -108.29 56.2199 -112.998 -109.256 54.6908 -113.152 -109.557 53.7608 
-113.499 -110.003 53.183 -114.118 -109.85 56.6902 -114.365 -109.811 57.2986 
-114.128 -110.123 56.0154 -114.154 -110.428 55.3438 -114.046 -110.944 54.862 
-113.985 -111.998 54.5939 -114.835 -111.815 57.9753 -115.078 -111.84 58.5255 
-114.816 -111.894 57.3659 -114.826 -112.042 56.8457 -114.54 -112.467 56.5741 
-114.178 -113.407 56.4519 -114.171 -114.428 56.3423 -114.971 -113.82 59.7444 
-115.333 -113.683 60.0947 -114.726 -114.014 59.2971 -114.56 -114.165 58.8341 
-114.247 -114.43 58.4737 -113.863 -115.099 58.2757 -113.843 -115.894 58.1876 
-114.288 -116.285 58.1352 -114.929 -115.363 61.4773 -115.351 -115.156 61.6425 
-114.497 -115.639 61.286 -114.062 -115.849 61.0876 -113.598 -116.043 60.7518 
-113.196 -116.497 60.2648 -113.173 -117.127 59.9138 -113.644 -117.486 59.8302 
-114.321 -117.506 59.8192 -114.921 -116.738 62.7843 -115.314 -116.508 62.8923 
-114.461 -116.994 62.7177 -113.899 -117.157 62.7789 -113.268 -117.241 62.7489 
-112.736 -117.505 62.3093 -112.596 -118.027 61.6784 -112.97 -118.456 61.3581 
-113.619 -118.573 61.3393 -114.239 -118.565 61.2946 -114.27 -119.706 62.536 
-113.769 -119.679 62.7582 -113.89 -120.851 64.0856 -113.139 -119.673 62.8176 
-113.35 -120.907 64.3756 -113.536 -121.999 65.8588 -112.497 -119.469 62.9544 
-112.676 -120.919 64.5277 -112.935 -122.165 66.2357 -113.163 -123.156 67.7345 
-112.212 -118.992 63.4816 -112.054 -120.633 64.8169 -112.262 -122.16 66.5412 
-112.55 -123.411 68.2248 -112.681 -124.377 69.5476 -112.534 -118.613 64.0745 
-111.924 -120.165 65.339 -111.776 -121.74 66.9305 -111.943 -123.275 68.718 
-111.926 -124.585 70.2219 -111.769 -125.515 71.3087 -113.247 -118.559 64.1842 
-112.425 -119.946 65.671 -111.844 -121.231 67.3402 -111.633 -122.67 69.1576 
-111.252 -124.241 70.838 -110.724 -125.478 72.0734 -110.569 -126.405 72.8018 
-113.987 -118.551 63.9715 -113.221 -119.951 65.583 -112.42 -120.984 67.526 
-111.88 -122.072 69.4592 -111.151 -123.574 71.194 -110.145 -124.987 72.566 
-109.632 -126.04 73.4042 -109.899 -127.067 73.7651 -114.586 -118.362 63.8797 
-114.001 -119.861 65.3673 -113.194 -120.872 67.3912 -112.498 -121.725 69.4928 
-111.717 -123 71.2963 -110.539 -124.408 72.7237 -109.608 -125.46 73.6794 
-109.546 -126.4 74.2013 -110.087 -127.472 74.4676 -115.04 -118.059 63.9548 
-114.641 -119.595 65.2622 -113.982 -120.725 67.0741 -113.245 -121.567 69.1385 
-112.519 -122.639 71.0562 -111.527 -123.902 72.6594 -110.487 -124.901 73.7837 
-110.037 -125.687 74.4546 -110.228 -126.588 74.92 -110.672 -127.555 75.2911 
-114.451 -120.58 63.2699 -114.13 -121.75 65.0128 -114.71 -121.491 64.0921 
-113.81 -122.869 66.9798 -114.437 -122.737 65.9967 -115.011 -122.452 65.0059 
-113.409 -124 68.8851 -114.156 -123.854 68.0121 -114.781 -123.742 66.9 
-115.386 -123.337 65.8745 -112.729 -125.2 70.6408 -113.674 -124.905 69.8725 
-114.53 -124.8 68.7926 -115.22 -124.495 67.6178 -115.972 -123.966 66.6454 
-111.679 -126.394 72.2108 -112.826 -126.024 71.5499 -113.951 -125.739 70.6094 
-114.971 -125.491 69.3866 -115.85 -125.012 68.2672 -116.667 -124.537 67.2605 
-110.811 -127.497 73.3099 -111.942 -127.281 72.8244 -113.147 -126.702 72.2092 
-114.415 -126.333 71.1829 -115.603 -126.003 69.9714 -116.55 -125.554 68.815 
-117.244 -125.21 67.6188 -110.634 -128.263 74.0767 -111.529 -128.41 73.673 
-112.618 -127.733 73.3453 -113.858 -127.011 72.7274 -115.174 -126.722 71.6579 
-116.325 -126.431 70.4546 -117.141 -126.064 69.1646 -117.731 -125.797 67.8265 
-110.941 -128.456 74.949 -111.566 -128.918 74.5397 -112.472 -128.5 74.2712 
-113.557 -127.636 73.9104 -114.775 -127.2 73.0545 -115.989 -127.073 71.9204 
-116.961 -126.753 70.7549 -117.651 -126.42 69.409 -118.247 -126.192 68.0358 
-111.31 -127.9 76.145 -111.675 -128.61 75.7299 -112.064 -127.832 76.9104 
-112.654 -128.255 76.4049 -113.411 -127.602 77.1728 -112.399 -128.731 75.3521 
-114.197 -128.017 76.59 -115.367 -127.633 77.1421 -113.451 -128.289 76.0322 
-113.345 -128.173 75.0473 -116.024 -128.312 76.5711 -117.099 -127.963 77.3115 
-114.836 -128.407 76.143 -114.292 -128.176 75.4183 -114.434 -127.697 74.2735 
-117.475 -128.811 76.6996 -118.148 -128.393 77.3458 -116.411 -128.968 76.0055 
-115.495 -128.807 75.1357 -115.354 -128.322 74.0568 -115.672 -127.665 73.0177 
-118.646 -129.171 76.5572 -119.155 -128.705 76.8168 -117.959 -129.311 75.9213 
-117.1 -129.273 74.7777 -116.625 -129.014 73.5399 -116.667 -128.314 72.689 
-116.838 -127.445 71.8944 -120.095 -129.283 75.9505 -120.599 -128.681 76.1377 
-119.537 -129.401 75.5282 -118.839 -129.265 74.5182 -118.235 -129.126 73.2121 
-117.938 -128.656 72.3591 -117.796 -127.771 71.7576 -117.701 -126.967 70.7404 
-121.659 -129.098 75.2779 -122.049 -128.367 75.6427 -121.114 -129.368 74.7913 
-120.404 -129.205 74.0012 -119.717 -128.973 72.9022 -119.25 -128.641 72.0183 
-118.896 -127.964 71.4304 -118.579 -127.2 70.5433 -118.374 -126.651 69.2626 
-122.782 -128.705 74.6778 -123.009 -127.975 75.1234 -122.353 -129.117 74.0558 
-121.668 -129.091 73.3225 -120.895 -128.85 72.4425 -120.327 -128.533 71.5848 
-119.939 -128.013 70.8977 -119.555 -127.373 70.0906 -119.24 -126.839 68.9865 
-119.045 -126.373 67.8683 -111.089 -126.866 76.035 -111.66 -127.111 77.0679 
-111.615 -126.076 76.7691 -112.22 -126.289 77.7963 -112.239 -125.221 77.3065 
-112.559 -127.106 77.7519 -113.116 -125.426 78.1453 -113.217 -124.579 77.3061 
-113.404 -126.408 78.3634 -114.266 -127.077 77.9065 -114.403 -124.734 77.9376 
-114.562 -124.469 76.5253 -114.562 -125.628 78.5752 -115.278 -126.566 78.5792 
-116.337 -127.224 78.0489 -115.737 -124.447 77.0969 -115.817 -124.535 75.2291 
-115.806 -124.875 78.2498 -116.296 -125.919 78.6823 -117.159 -126.803 78.7092 
-117.825 -127.519 78.1698 -116.792 -124.299 75.7717 -116.78 -124.197 73.9207 
-116.866 -124.378 77.3595 -117.213 -125.121 78.1075 -117.94 -126.199 78.4051 
-118.541 -127.027 78.3139 -118.8 -127.844 77.6343 -117.675 -123.958 74.2481 
-117.651 -123.519 72.7621 -117.759 -124.12 75.9097 -118.011 -124.452 77.0607 
-118.639 -125.304 77.5186 -119.326 -126.276 77.6273 -119.68 -127.104 77.3425 
-120.001 -127.932 76.7496 -118.529 -123.413 72.8075 -118.505 -122.84 71.6547 
-118.616 -123.834 74.1945 -118.798 -124.093 75.5557 -119.242 -124.534 76.4032 
-119.902 -125.32 76.7101 -120.451 -126.177 76.7006 -120.895 -126.947 76.4864 
-121.452 -127.692 76.1452 -119.298 -122.764 71.5777 -119.244 -122.246 70.5646 
-119.405 -123.278 72.6963 -119.58 -123.693 73.9344 -119.886 -124.051 75.0088 
[...]
CELL_DATA 2000
SCALARS Distance double
LOOKUP_TABLE default
172.687 172.6 173.07 173.88 172.547 173.009 173.868 174.269 175.055 
172.617 173.016 173.918 174.308 175.171 175.516 176.374 172.867 173.184 
174.116 174.451 175.378 175.708 176.639 176.959 177.881 173.285 173.532 
174.473 174.741 175.676 175.978 176.927 177.258 178.198 178.501 179.36 
173.805 174.011 174.934 175.15 176.051 176.309 177.232 177.548 178.473 
178.792 179.646 179.911 180.68 174.321 174.518 175.382 175.592 176.439 
176.681 177.574 177.867 178.79 179.081 179.941 180.187 180.964 181.192 
181.936 174.764 174.96 175.742 175.968 176.754 177.015 177.864 178.18 
179.088 179.404 180.266 180.512 181.279 181.485 182.205 182.429 183.121 
175.145 175.328 176.055 176.274 177.032 177.288 178.102 178.417 179.277 
179.631 180.461 180.781 181.522 181.774 182.44 182.665 183.287 183.519 
184.082 171.818 170.369 171.292 171.691 168.967 169.836 170.251 171.183 
171.63 167.645 168.479 168.861 169.764 170.24 171.175 171.692 166.199 
167.097 167.442 168.371 168.835 169.801 170.356 171.313 171.921 164.745 
165.608 165.962 166.898 167.378 168.385 168.977 169.983 170.634 171.615 
172.315 163.511 164.27 164.671 165.5 166.029 166.97 167.63 168.63 
169.337 170.335 171.084 172.082 172.847 162.377 163.115 163.538 164.335 
164.884 165.749 166.428 167.368 168.125 169.095 169.895 170.885 171.721 
172.684 173.446 161.399 162.016 162.429 163.214 163.763 164.636 165.285 
166.213 166.968 167.941 168.799 169.783 170.693 171.64 172.489 173.333 
174.012 160.915 161.237 161.641 162.216 162.788 163.55 164.221 165.083 
165.844 166.802 167.716 168.74 169.746 170.714 171.644 172.472 173.219 
173.915 174.485 160.995 161.519 161.32 161.644 162.368 162.034 162.362 
162.17 162.741 163.506 163.088 163.503 163.111 163.601 163.423 164.141 
164.938 164.405 164.909 164.425 164.924 164.493 165.105 164.932 165.773 
166.782 166.046 166.604 165.999 166.603 166.012 166.637 166.162 166.977 
166.762 167.747 168.945 168.088 168.651 167.902 168.558 167.864 168.532 
167.897 168.679 168.235 169.195 168.922 169.898 171 170.236 170.723 
169.994 170.547 169.858 170.415 169.782 170.403 169.935 170.722 170.425 
171.279 171.023 171.801 172.683 172.083 172.468 171.872 172.276 171.679 
172.049 171.473 171.857 171.42 171.952 171.722 172.386 172.239 172.89 
172.708 173.297 174.088 173.583 173.922 173.408 173.735 173.201 173.463 
172.909 173.135 172.66 172.997 172.727 173.246 173.137 173.724 173.625 
174.166 174.02 174.511 175.193 174.878 175.414 176.185 174.457 175.07 
175.901 176.479 177.328 173.986 174.61 175.482 176.16 177.096 177.685 
178.57 173.728 174.197 175.048 175.71 176.708 177.416 178.414 178.978 
179.845 173.878 174.134 174.928 175.374 176.328 177.002 178.066 178.771 
179.72 180.23 180.945 174.262 174.451 175.234 175.456 176.306 176.733 
177.721 178.381 179.342 179.976 180.665 181.124 181.603 174.594 174.858 
175.678 175.866 176.651 176.869 177.714 178.14 179.024 179.567 180.237 
180.702 181.127 181.569 181.995 174.8 175.144 176.005 176.276 177.05 
177.237 177.977 178.237 179.032 179.394 180.079 180.379 180.829 181.112 
181.537 181.976 182.54 174.939 175.311 176.186 176.537 177.328 177.571 
178.267 178.487 179.215 179.501 180.208 180.424 180.938 181.042 181.467 
181.678 182.229 182.652 183.29 175.581 176.596 176.213 176.504 177.762 
177.323 177.644 177.207 177.517 179.006 178.555 178.93 178.457 178.803 
178.299 178.629 180.241 179.811 180.212 179.782 180.174 179.668 179.991 
179.455 179.788 181.305 180.986 181.353 181.01 181.414 181.009 181.329 
180.817 181.088 180.595 180.916 182.025 181.906 182.27 182.036 182.407 
182.129 182.47 182.076 182.335 181.86 182.131 181.68 181.967 182.554 
182.551 183.033 182.871 183.24 183.01 183.36 183.099 183.421 183.052 
183.325 182.88 183.139 182.677 182.897 183.171 183.166 183.79 183.66 
184.083 183.825 184.14 183.906 184.255 184.032 184.358 184.021 184.256 
183.82 184.003 183.542 183.707 183.866 183.858 184.497 184.433 184.882 
184.662 184.925 184.661 184.941 184.77 185.118 184.93 185.194 184.857 
185.002 184.583 184.707 184.291 184.434 184.435 185.285 184.938 185.007 
185.986 185.671 185.733 185.415 185.354 186.922 186.414 186.423 186.056 
185.993 185.608 185.399 188.21 187.532 187.464 186.863 186.76 186.258 
186.086 185.613 185.418 189.407 188.847 188.757 188.052 187.864 187.173 
186.981 186.398 186.246 185.741 185.612 190.234 189.895 189.873 189.293 
189.065 188.341 188.07 187.401 187.21 186.638 186.465 185.944 185.714 
190.892 190.651 190.716 190.276 190.068 189.436 189.097 188.455 188.176 
187.599 187.331 186.768 186.43 185.897 185.521 191.465 191.3 191.385 
191.042 190.835 190.301 189.902 189.33 188.954 188.442 188.09 187.556 
187.131 186.567 186.122 185.609 185.213 191.756 191.74 191.765 191.576 
191.325 190.927 190.464 189.973 189.499 189.052 188.629 188.18 187.716 
187.201 186.715 186.2 185.782 185.308 184.946 184.247 184.317 184.586 
185.122 184.377 184.656 185.216 185.413 185.89 184.473 184.725 185.375 
185.587 186.193 186.3 186.903 184.747 184.891 185.578 185.809 186.565 
186.737 187.473 187.533 188.23 185.081 185.206 185.791 186.019 186.774 
187.089 187.902 188.114 188.794 188.849 189.388 185.135 185.402 185.876 
186.14 186.735 187.142 187.898 188.344 189.003 189.241 189.665 189.756 
190.114 184.871 185.263 185.718 186.063 186.527 186.935 187.531 188.087 
188.717 189.187 189.605 189.844 190.138 190.315 190.676 184.508 184.919 
185.382 185.787 186.228 186.623 187.093 187.593 188.134 188.702 189.164 
189.597 189.921 190.222 190.565 190.841 191.222 184.144 184.538 184.962 
185.394 185.827 186.256 186.681 187.124 187.569 188.079 188.522 189.039 
189.413 189.863 190.206 190.607 190.953 191.292 191.551 175.296 176.275 
176.044 176.562 177.288 177.05 177.57 177.312 177.728 178.33 178.069 
178.585 178.322 178.742 178.405 178.702 179.451 179.14 179.659 179.365 
179.828 179.468 179.817 179.387 179.68 180.607 180.29 180.803 180.483 
180.973 180.612 180.997 180.561 180.854 180.403 180.645 181.627 181.39 
181.874 181.605 182.06 181.748 182.08 181.69 181.889 181.489 181.625 
181.233 181.309 182.432 182.283 182.731 182.56 182.981 182.751 183.026 
182.669 182.754 182.364 182.413 182.073 182.134 181.763 181.816 183.102 
182.991 183.414 183.302 183.728 183.579 183.889 183.568 183.647 183.192 
183.211 182.82 182.95 182.603 182.78 182.364 182.567 183.702 183.616 
184.028 183.937 184.369 184.271 184.644 184.412 184.581 184.138 184.18 
183.707 183.856 183.489 183.758 183.397 183.677 183.263 183.563 174.68 
174.099 174.811 175.657 173.499 174.283 175.177 175.84 176.695 172.693 
173.683 174.698 175.409 176.288 176.911 177.764 171.664 172.822 174.002 
174.889 175.821 176.51 177.388 178.019 178.896 170.753 171.84 173.129 
174.133 175.166 175.968 176.87 177.601 178.523 179.186 180.059 170.192 
171.079 172.369 173.332 174.48 175.31 176.276 177.033 177.975 178.734 
179.662 180.324 181.11 169.891 170.607 171.801 172.677 173.865 174.705 
175.751 176.492 177.445 178.172 179.111 179.843 180.701 181.306 181.972 
169.771 170.333 171.393 172.145 173.252 174.096 175.152 175.967 176.936 
177.673 178.587 179.298 180.182 180.852 181.615 182.13 182.7 169.829 
170.25 171.195 171.775 172.759 173.483 174.472 175.297 176.275 177.098 
178.026 178.778 179.658 180.351 181.162 181.756 182.412 182.842 183.33 
170.214 171.238 170.969 171.528 172.356 172.042 172.584 172.34 172.99 
173.578 173.221 173.776 173.452 174.069 173.85 174.608 174.874 174.499 
175.099 174.733 175.374 175.033 175.758 175.552 176.393 176.232 175.836 
176.472 176.11 176.81 176.44 177.17 176.83 177.625 177.395 178.204 
177.666 177.252 177.898 177.514 178.237 177.895 178.658 178.304 179.066 
178.728 179.489 179.196 179.898 179.068 178.699 179.343 178.956 179.644 
179.309 180.067 179.758 180.508 180.171 180.865 180.521 181.161 180.83 
181.402 180.337 180.039 180.668 180.341 180.979 180.669 181.364 181.098 
181.801 181.52 182.138 181.82 182.35 182.034 182.509 182.207 182.623 
181.499 181.238 181.842 181.571 182.17 181.906 182.526 182.294 182.91 
182.683 183.211 182.946 183.364 183.086 183.449 183.188 183.519 183.257 
183.533 182.332 183.705 182.903 182.675 185.103 184.301 184.076 183.251 
183.018 186.457 185.701 185.504 184.68 184.438 183.601 183.373 187.706 
187.021 186.841 186.08 185.819 185 184.719 183.929 183.698 188.777 
188.19 187.996 187.332 187.048 186.296 185.947 185.189 184.874 184.173 
183.913 189.641 189.152 188.937 188.368 188.071 187.416 187.048 186.332 
185.956 185.256 184.926 184.284 184 190.377 189.944 189.722 189.204 
188.885 188.321 187.962 187.344 186.966 186.294 185.922 185.254 184.926 
184.315 184.043 191.021 190.64 190.41 189.926 189.577 189.054 188.676 
188.148 187.774 187.21 186.831 186.215 185.847 185.227 184.912 184.339 
184.076 191.478 191.191 190.925 190.525 190.152 189.689 189.293 188.804 
188.407 187.906 187.511 186.999 186.614 186.078 185.716 185.17 184.848 
184.328 184.048 182.369 182.847 183.02 183.783 183.198 183.513 184.382 
184.48 185.203 183.41 183.863 184.918 185.123 185.939 185.92 186.577 
183.634 184.126 185.379 185.718 186.721 186.737 187.436 187.295 187.86 
183.886 184.39 185.666 186.162 187.3 187.52 188.302 188.203 188.725 
188.524 188.956 183.934 184.513 185.61 186.259 187.322 187.867 188.697 
188.913 189.419 189.332 189.668 189.494 189.803 183.693 184.324 185.235 
185.942 186.847 187.579 188.405 188.978 189.557 189.782 190.092 190.066 
190.31 190.221 190.493 183.36 183.944 184.771 185.43 186.27 186.98 
187.808 188.502 189.192 189.673 190.08 190.274 190.515 190.578 190.848 
190.852 191.117 183.1 183.602 184.383 184.969 185.791 186.433 187.253 
187.919 188.646 189.225 189.718 190.091 190.374 190.604 190.87 191.051 
191.345 191.407 191.597 181.526 180.241 181.249 181.92 178.774 179.852 
180.498 181.557 182.17 177.216 178.308 178.922 180.034 180.607 181.684 
182.259 175.603 176.668 177.227 178.39 178.984 180.088 180.652 181.746 
182.404 174.057 175.011 175.46 176.611 177.226 178.436 179.079 180.191 
180.852 181.972 182.698 172.72 173.546 173.928 174.888 175.446 176.634 
177.354 178.589 179.311 180.463 181.158 182.273 182.882 171.49 172.306 
172.751 173.548 174.07 175.008 175.713 176.871 177.678 178.882 179.612 
180.736 181.326 182.357 182.778 170.288 171.115 171.657 172.478 173.072 
173.868 174.552 175.458 176.269 177.33 178.134 179.21 179.852 180.843 
181.307 182.211 182.542 169.264 169.991 170.56 171.4 172.079 172.93 
173.66 174.486 175.248 176.124 176.889 177.837 178.505 179.443 179.956 
180.829 181.222 182.032 182.348 168.965 169.023 169.371 170.24 169.183 
169.504 170.409 170.798 171.797 169.346 169.682 170.627 171.033 172.11 
172.485 173.497 169.556 169.86 170.831 171.262 172.393 172.835 173.931 
174.218 175.142 169.985 170.189 171.206 171.544 172.694 173.113 174.216 
174.592 175.55 175.814 176.684 170.591 170.763 171.839 172.077 173.224 
173.503 174.539 174.833 175.741 176.082 176.964 177.303 178.175 171.183 
171.391 172.445 172.72 173.81 174.076 175.032 175.217 176.022 176.253 
177.095 177.466 178.372 178.743 179.586 171.762 171.943 172.882 173.175 
174.137 174.497 175.395 175.666 176.424 176.597 177.357 177.626 178.515 
178.891 179.777 180.101 180.864 172.387 172.499 173.312 173.514 174.336 
174.665 175.519 175.89 176.694 176.958 177.697 177.924 178.732 179.054 
179.926 180.273 181.064 181.332 182.006 173.014 174.161 173.679 173.866 
175.326 174.823 175.015 174.54 174.809 176.659 176.073 176.328 175.773 
176.071 175.582 175.963 178.157 177.52 177.812 177.205 177.55 176.971 
177.339 176.819 177.18 179.617 179.033 179.306 178.722 179.059 178.494 
178.839 178.263 178.564 178.001 178.254 180.953 180.44 180.726 180.176 
180.497 179.964 180.309 179.749 180.038 179.43 179.68 179.067 179.318 
182.246 181.775 182.121 181.584 181.925 181.388 181.759 181.213 181.547 
180.932 181.206 180.563 180.839 180.208 180.493 183.45 183.068 183.453 
182.977 183.319 182.804 183.164 182.656 183.014 182.451 182.743 182.114 
182.376 181.746 182.005 181.383 181.608 184.399 184.165 184.54 184.209 
184.519 184.104 184.403 183.977 184.304 183.849 184.142 183.6 183.836 
183.242 183.455 182.849 183.026 182.407 182.537 183.215 183.759 183.817 
184.484 184.24 184.366 185.102 185.162 185.884 184.63 184.821 185.598 
185.753 186.527 186.597 187.326 184.91 185.162 185.923 186.168 186.936 
187.141 187.871 187.986 188.64 185.039 185.352 186.074 186.391 187.106 
187.406 188.08 188.34 188.946 189.131 189.63 185.097 185.406 186.084 
186.438 187.118 187.468 188.094 188.406 188.975 189.254 189.756 189.946 
190.317 185.161 185.44 186.053 186.387 187.03 187.406 188.026 188.365 
188.93 189.229 189.777 190.025 190.505 190.607 190.93 185.131 185.442 
185.981 186.312 186.891 187.275 187.877 188.252 188.812 189.152 189.708 
190.034 190.591 190.815 191.25 191.264 191.497 184.941 185.298 185.776 
186.147 186.668 187.081 187.643 188.055 188.577 188.959 189.458 189.866 
190.398 190.797 191.261 191.491 191.744 191.738 191.775 160.655 161.063 
160.641 160.395 162.005 161.307 160.988 160.498 160.353 163.148 162.379 
162.067 161.374 161.233 160.703 160.804 164.426 163.589 163.302 162.55 
162.427 161.803 161.882 161.414 161.754 165.935 165.025 164.789 163.904 
163.791 163.065 163.127 162.567 162.798 162.454 162.943 167.411 166.599 
166.456 165.557 165.503 164.621 164.712 163.944 164.168 163.582 163.987 
163.692 164.318 168.737 168.015 167.949 167.203 167.229 166.427 166.559 
165.725 165.966 165.177 165.554 164.95 165.498 165.162 165.805 170.151 
169.388 169.374 168.658 168.73 168.048 168.183 167.495 167.693 166.997 
167.292 166.637 167.049 166.514 167.005 166.633 167.129 171.627 170.883 
170.906 170.16 170.256 169.543 169.669 168.991 169.135 168.524 168.741 
168.205 168.506 168.005 168.346 167.881 168.237 167.858 168.237 160.626 
160.326 160.543 160.767 160.172 160.248 160.496 160.799 161.091 160.535 
160.253 160.438 160.605 161.067 161.25 161.585 161.565 160.955 161.085 
160.85 161.383 161.433 162.019 161.988 162.5 162.928 162.25 162.445 
161.89 162.37 162.098 162.758 162.629 163.268 163.169 163.86 164.354 
163.714 163.992 163.401 163.804 163.328 163.853 163.555 164.148 163.989 
164.623 164.592 165.28 165.758 165.151 165.397 164.878 165.223 164.739 
165.126 164.716 165.179 164.909 165.459 165.332 165.931 165.91 166.506 
167.002 166.459 166.616 166.162 166.454 166.035 166.384 165.959 166.355 
165.985 166.47 166.215 166.768 166.612 167.181 167.096 167.666 168.092 
167.586 167.699 167.273 167.536 167.172 167.533 167.164 167.562 167.177 
167.619 167.281 167.781 167.523 168.058 167.871 168.427 168.307 168.892 
160.868 161.019 161.036 161.363 161.224 161.182 161.389 161.552 162.042 
161.551 161.349 161.443 161.525 161.954 162.309 163.053 162.433 161.887 
161.976 161.734 162.205 162.343 163.17 163.525 164.511 163.911 163.153 
163.33 162.699 163.19 162.937 163.816 163.911 164.997 165.243 166.404 
165.412 164.776 165.01 164.323 164.695 164.193 164.89 164.766 165.8 
165.937 167.135 167.357 168.592 166.619 166.155 166.399 165.89 166.166 
165.658 166.121 165.854 166.718 166.788 167.973 168.184 169.418 169.605 
170.722 167.756 167.299 167.581 167.145 167.489 167.02 167.486 167.095 
167.899 167.789 168.972 169.087 170.349 170.471 171.549 171.614 172.492 
168.998 168.503 168.855 168.389 168.864 168.4 169.013 168.568 169.422 
169.144 170.298 170.237 171.474 171.471 172.507 172.464 173.272 173.236 
173.933 180.993 179.778 180.173 179.698 178.473 178.885 178.346 178.764 
178.229 177.075 177.513 176.946 177.368 176.808 177.251 176.705 175.66 
176.088 175.524 175.944 175.376 175.819 175.287 175.73 175.176 174.305 
174.695 174.128 174.527 173.946 174.374 173.836 174.306 173.796 174.223 
173.695 173.005 173.357 172.768 173.149 172.555 172.952 172.385 172.841 
172.333 172.818 172.325 172.774 172.31 171.778 172.07 171.457 171.804 
171.22 171.591 171.034 171.432 170.918 171.364 170.873 171.349 170.871 
171.382 170.977 170.656 170.882 170.255 170.538 169.962 170.298 169.773 
170.138 169.648 170.031 169.553 169.949 169.475 169.921 169.503 170.047 
169.734 169.636 169.809 169.185 169.405 168.834 169.108 168.59 168.919 
168.447 168.812 168.367 168.726 168.29 168.642 168.249 168.664 168.377 
168.903 168.731 
POINT_DATA 1002
SCALARS Distance double
LOOKUP_TABLE default
173.519 172.329 172.213 173.478 172.112 174.643 173.438 172.094 174.69 
175.834 173.52 172.24 174.799 176.029 177.261 173.794 172.57 175.039 
176.302 177.592 178.794 174.235 173.054 175.396 176.599 177.886 179.122 
180.17 174.747 173.62 175.825 176.939 178.166 179.375 180.446 181.427 
175.192 174.156 176.211 177.286 178.503 179.707 180.744 181.706 182.678 
175.536 174.605 176.505 177.552 178.758 180.008 181.09 182.008 182.906 
183.782 175.849 174.986 176.786 177.811 178.947 180.132 181.25 182.229 
183.085 183.873 184.593 170.914 170.752 169.443 169.316 168.145 170.687 
167.979 166.813 169.29 170.746 166.5 165.286 167.848 169.371 170.955 
165.038 163.912 166.35 167.938 169.625 171.324 163.862 162.761 165.115 
166.626 168.33 170.061 171.87 162.723 161.651 164.031 165.51 167.151 
168.898 170.729 172.567 161.676 160.871 162.89 164.368 165.98 167.776 
169.725 171.627 173.279 161.167 160.708 162.083 163.394 164.902 166.653 
168.723 170.794 172.515 173.867 161.113 161.683 161.765 162.659 162.686 
162.749 163.926 163.912 163.93 164.129 165.38 165.523 165.423 165.422 
165.767 167.237 167.585 167.196 167.192 167.3 167.869 169.443 169.811 
169.276 169.205 169.203 169.542 170.182 171.461 171.734 171.271 171.102 
170.947 171.072 171.562 172.1 173.06 173.26 172.891 172.675 172.382 
172.254 172.541 173.062 173.515 174.432 174.576 174.278 174.043 173.678 
173.354 173.392 173.811 174.304 174.685 175.912 175.65 176.997 175.262 
176.795 178.197 174.76 176.429 178.069 179.448 174.444 175.946 177.756 
179.423 180.669 174.609 175.737 177.31 179.139 180.604 181.569 175.07 
176.029 177.16 178.702 180.193 181.206 182.041 175.465 176.506 177.424 
178.564 179.814 180.713 181.465 182.481 175.692 176.865 177.786 178.728 
179.812 180.618 181.162 181.984 183.157 175.812 177.058 178.068 178.953 
179.969 180.85 181.351 181.891 182.815 183.898 176.881 178.096 177.959 
179.377 179.321 179.133 180.612 180.651 180.556 180.288 181.683 181.771 
181.824 181.611 181.37 182.472 182.66 182.796 182.796 182.602 182.425 
183.144 183.486 183.58 183.71 183.762 183.617 183.38 183.875 184.353 
184.413 184.431 184.63 184.689 184.467 184.165 184.543 185.073 185.222 
185.142 185.253 185.477 185.42 185.122 184.838 184.867 185.405 185.587 
186.024 186.35 185.771 186.871 187.549 186.377 185.836 188.179 188.905 
187.344 186.563 185.864 189.461 189.856 188.634 187.615 186.77 186.11 
190.371 190.478 189.787 188.778 187.823 187.041 186.249 191.108 191.093 
190.672 189.749 188.771 187.938 187.017 186.025 191.702 191.603 191.35 
190.487 189.476 188.62 187.715 186.663 185.682 191.918 191.75 191.681 
190.948 189.961 189.063 188.207 187.229 186.258 185.408 183.979 184.916 
184.058 184.996 184.079 185.737 185.101 184.241 186.03 186.816 185.335 
184.669 186.299 187.368 188.24 185.618 184.962 186.424 187.604 188.738 
189.406 185.633 184.814 186.382 187.401 188.693 189.581 190.01 185.349 
184.454 186.177 187.025 188.171 189.29 189.947 190.461 184.959 184.115 
185.841 186.672 187.587 188.647 189.557 190.263 190.974 184.544 183.777 
185.386 186.258 187.116 188.007 188.915 189.771 190.586 191.303 175.504 
176.819 176.505 177.831 177.532 178.063 178.85 178.613 179.079 179.091 
179.963 179.783 180.17 180.241 180.125 181.129 180.916 181.323 181.432 
181.325 181.121 182.13 181.841 182.369 182.495 182.321 182.028 181.733 
182.884 182.575 183.185 183.395 183.197 182.751 182.463 182.209 183.52 
183.216 183.843 184.162 184.118 183.634 183.251 183.139 182.996 173.965 
174.969 173.369 174.517 172.616 176.053 173.92 171.546 175.664 177.153 
173.003 170.445 175.088 176.718 178.297 172.075 169.741 174.311 176.105 
177.792 179.483 171.422 169.416 173.612 175.521 177.208 178.931 180.577 
170.985 169.275 172.999 174.986 176.752 178.381 180.024 181.505 170.741 
169.299 172.453 174.305 176.17 177.893 179.493 181.032 182.313 170.712 
169.477 172.134 173.692 175.421 177.238 178.953 180.533 181.926 183 