# vtk DataFile Version 4.0
vtk output
ASCII
DATASET POLYDATA
POINTS 1002 float
-120.201 -115.221 52.751 -119.753 -114.115 52.0375 -119.353 -114.355 52.4642 
-119.837 -115.446 53.3107 -118.858 -114.671 52.9396 -120.545 -116.429 53.5669 
-119.412 -115.757 53.9115 -118.387 -115.036 53.5011 -120.211 -116.68 54.2153 
-120.804 -117.771 54.5218 -118.991 -116.255 54.5601 -117.96 -115.515 54.1211 
-119.861 -117.071 54.9786 -120.46 -118.154 55.2919 -121.042 -119.237 55.7286 
-118.533 -116.927 55.233 -117.496 -116.155 54.7357 -119.483 -117.693 55.81 
-120.159 -118.604 56.3161 -120.659 -119.767 56.6775 -121.248 -120.678 57.1921 
-118.078 -117.601 55.9887 -117.129 -116.899 55.3866 -118.987 -118.423 56.6139 
-119.781 -119.205 57.341 -120.334 -120.219 57.8562 -120.81 -121.286 58.2123 
-121.386 -121.927 58.7964 -117.753 -118.28 56.8866 -116.909 -117.682 56.1528 
-118.469 -119.141 57.4948 -119.182 -120.012 58.1744 -119.827 -120.852 58.8773 
-120.365 -121.808 59.3363 -120.891 -122.571 59.7834 -121.476 -122.982 60.4408 
-117.389 -119.092 57.7838 -116.622 -118.478 56.9879 -117.976 -119.952 58.4546 
-118.502 -120.949 59.0126 -119.04 -121.809 59.6439 -119.638 -122.567 60.2591 
-120.295 -123.24 60.7697 -120.898 -123.695 61.321 -121.469 -123.998 61.9053 
-116.867 -120.009 58.5546 -116.258 -119.319 57.7956 -117.368 -120.862 59.292 
-117.832 -121.853 59.888 -118.259 -122.76 60.4042 -118.717 -123.489 60.9531 
-119.411 -124.071 61.5206 -120.181 -124.501 62.0655 -120.775 -124.811 62.5704 
-121.295 -125.073 62.9953 -116.355 -120.933 59.2561 -115.947 -120.237 58.5404 
-116.706 -121.719 60.0081 -117.114 -122.6 60.6741 -117.574 -123.446 61.1897 
-117.96 -124.195 61.6303 -118.473 -124.825 62.1142 -119.267 -125.285 62.6485 
-120.016 -125.617 63.1385 -120.536 -125.89 63.5279 -121.012 -126.117 63.8305 
-118.976 -113.161 51.5981 -118.451 -113.482 51.9575 -118.128 -112.16 51.1819 
-117.532 -112.514 51.5801 -117.285 -111.095 50.9019 -117.875 -113.874 52.4248 
-116.665 -111.409 51.4222 -116.344 -110.02 50.6423 -116.958 -112.961 52.0859 
-117.404 -114.259 53.0316 -115.751 -110.292 51.284 -115.431 -109.032 50.4154 
-116.07 -111.967 51.8868 -116.431 -113.49 52.6309 -116.911 -114.779 53.6514 
-114.931 -109.35 51.2232 -114.899 -108.132 50.5542 -115.085 -111.031 51.6883 
-115.36 -112.796 52.2369 -115.746 -114.207 53.1168 -116.359 -115.557 54.1729 
-114.29 -108.576 51.3985 -114.55 -107.232 50.9595 -114.118 -110.243 51.652 
-114.251 -112.078 51.9987 -114.609 -113.608 52.7127 -115.166 -115.025 53.6161 
-116.025 -116.45 54.7406 -113.611 -107.844 51.5657 -113.957 -106.378 51.2475 
-113.254 -109.56 51.791 -113.262 -111.347 52.0832 -113.719 -112.814 52.7305 
-114.289 -114.204 53.4946 -114.968 -115.805 54.3165 -115.857 -117.264 55.5324 
-112.964 -107.198 51.7388 -113.245 -105.789 51.5477 -112.652 -108.913 52.0247 
-112.544 -110.679 52.3964 -112.965 -112.096 53.057 -113.677 -113.321 53.8107 
-114.271 -114.852 54.3954 -114.906 -116.539 55.2127 -115.672 -118.014 56.4659 
-112.573 -106.808 52.2845 -112.743 -105.604 52.1686 -112.457 -108.38 52.5765 
-112.32 -110.08 52.9655 -112.406 -111.549 53.5492 -112.937 -112.756 54.2343 
-113.625 -114.067 54.7003 -114.232 -115.644 55.1949 -114.885 -117.297 56.1439 
-115.532 -118.853 57.3683 -112.413 -106.38 53.2514 -112.455 -107.709 53.5387 
-112.372 -107.426 54.8017 -112.543 -108.836 55.1253 -112.432 -108.648 56.2785 
-112.49 -109.333 53.8762 -112.454 -110.03 56.5205 -112.559 -109.891 57.4842 
-112.457 -110.355 55.3879 -112.283 -110.92 54.2926 -112.319 -111.121 57.8462 
-112.804 -111.015 58.8521 -112.086 -111.341 56.7864 -111.957 -111.786 55.7079 
-112.214 -112.316 54.8062 -112.605 -112.084 59.0383 -113.184 -112.032 59.9222 
-112.058 -112.241 57.97 -111.676 -112.62 56.861 -111.859 -113.177 55.8223 
-112.721 -113.649 55.113 -113.524 -113.094 59.1828 -113.952 -113.098 59.7232 
-113.007 -113.187 58.4001 -112.401 -113.446 57.5124 -112.184 -113.923 56.5561 
-112.727 -114.535 55.7667 -113.583 -115.09 55.3767 -114.843 -114.341 58.5273 
-115.158 -114.368 58.8611 -114.5 -114.395 58.1278 -113.949 -114.586 57.7496 
-113.466 -114.889 57.3189 -113.503 -115.432 56.7547 -113.957 -116.151 56.3255 
-114.432 -116.792 56.1802 -115.959 -115.882 58.4458 -116.269 -115.885 58.661 
-115.64 -115.925 58.2953 -115.178 -116.166 58.2733 -114.673 -116.521 58.3405 
-114.419 -116.978 58.2142 -114.514 -117.649 57.8279 -114.782 -118.3 57.5119 
-115.106 -118.682 57.395 -116.489 -117.582 59.3066 -116.859 -117.508 59.3644 
-116.066 -117.651 59.3259 -115.586 -117.945 59.4164 -115.122 -118.474 59.5826 
-114.748 -119.044 59.6578 -114.566 -119.648 59.3979 -114.698 -120.21 58.9662 
-115.072 -120.462 58.69 -115.508 -120.399 58.5841 -115.795 -121.665 59.741 
-115.217 -122.022 59.8153 -115.298 -122.965 61.132 -114.5 -122.241 59.9224 
-114.407 -123.301 61.1925 -114.515 -123.996 62.5319 -114.028 -122.065 60.2444 
-113.443 -123.419 61.2663 -113.409 -124.155 62.5999 -113.827 -125.047 63.5543 
-114.179 -121.575 60.7108 -113.188 -123.204 61.647 -112.546 -124.039 62.8521 
-112.849 -125.059 63.7952 -113.709 -126.148 64.4849 -114.661 -120.971 60.9568 
-113.801 -122.849 62.157 -112.683 -123.756 63.479 -112.29 -124.702 64.4466 
-113.065 -125.984 65.0415 -114.053 -126.943 66.2497 -115.097 -120.265 60.9361 
-114.488 -122.367 62.3719 -113.542 -123.525 63.9448 -112.598 -124.258 65.2251 
-112.777 -125.387 65.8414 -113.681 -126.599 66.9521 -114.13 -127.509 68.811 
-115.589 -119.665 60.8328 -114.981 -121.713 62.3167 -114.348 -123.183 63.8879 
-113.483 -123.998 65.4606 -113.158 -124.854 66.3895 -113.671 -125.99 67.4434 
-113.935 -127.074 69.3545 -113.607 -127.961 71.0915 -116.18 -119.384 60.6891 
-115.577 -121.188 62.1558 -115.037 -122.68 63.6046 -114.438 -123.728 65.2089 
-114.017 -124.626 66.4802 -114.178 -125.63 67.6031 -114.221 -126.588 69.4478 
-113.595 -127.379 71.4441 -112.931 -128.018 72.5327 -116.723 -119.238 60.5526 
-116.249 -120.905 61.9377 -115.749 -122.286 63.3119 -115.282 -123.383 64.8651 
-114.909 -124.416 66.3651 -114.904 -125.486 67.6163 -114.863 -126.36 69.2756 
-114.141 -126.887 71.3556 -113.117 -127.252 72.8558 -112.596 -127.632 73.4142 
-116.034 -122.331 60.5808 -115.49 -123.556 62.0564 -116.297 -123.091 61.3566 
-114.831 -124.703 63.2714 -115.797 -124.302 62.6886 -116.756 -123.898 61.9357 
-114.447 -125.904 64.1772 -115.343 -125.52 63.7956 -116.388 -125.114 63.1654 
-117.286 -124.683 62.3879 -114.557 -126.877 65.7302 -115.225 -126.594 65.2337 
-116.155 -126.284 64.6375 -117.068 -125.886 63.8062 -117.763 -125.409 62.8747 
-114.578 -127.638 68.2594 -115.232 -127.443 67.453 -116.085 -127.173 66.6294 
-116.975 -126.849 65.7267 -117.72 -126.435 64.5674 -118.449 -125.944 63.4416 
-113.989 -128.362 70.6442 -114.784 -128.363 69.6801 -115.794 -128.042 68.5424 
-116.813 -127.572 67.5911 -117.715 -127.102 66.5648 -118.519 -126.741 65.2154 
-119.296 -126.306 63.9738 -113.206 -128.666 72.1439 -114.048 -129.01 71.2964 
-115.208 -128.913 70.0684 -116.423 -128.434 68.9026 -117.575 -127.775 68.0631 
-118.565 -127.306 67.0415 -119.329 -127.053 65.6227 -119.951 -126.627 64.3556 
-112.815 -128.363 73.0748 -113.602 -128.945 72.5356 -114.749 -129.198 71.6336 
-116.021 -129.095 70.3297 -117.332 -128.617 69.1671 -118.54 -128.009 68.3333 
-119.403 -127.655 67.2308 -119.944 -127.416 65.7989 -120.434 -126.906 64.6037 
-112.783 -127.552 74.0002 -113.368 -128.311 73.7395 -113.569 -127.678 74.7194 
-114.355 -128.398 74.64 -114.768 -128.094 75.2897 -114.404 -128.838 73.3954 
-115.7 -128.687 74.9611 -116.584 -128.427 75.2815 -115.507 -128.815 74.1805 
-115.677 -129.125 72.3886 -117.721 -128.877 74.502 -118.894 -128.536 74.9796 
-117.041 -128.933 73.9162 -116.936 -129.069 72.6542 -117.096 -129.128 70.7257 
-119.854 -129.037 73.9941 -120.699 -128.734 74.4105 -119.03 -129.066 73.1758 
-118.541 -129.048 72.0791 -118.455 -129.071 70.6738 -118.52 -128.729 69.351 
-121.267 -129.288 73.245 -121.856 -128.952 73.3146 -120.717 -129.342 72.648 
-120.172 -129.235 71.5343 -119.809 -129.094 70.2877 -119.693 -128.817 69.2301 
-119.585 -128.274 68.3077 -122.468 -129.298 72.1568 -123.18 -128.923 72.3062 
-121.954 -129.522 71.8051 -121.514 -129.647 70.9864 -121.018 -129.55 69.8404 
-120.65 -129.17 68.8114 -120.416 -128.618 67.9476 -120.163 -128.017 66.9556 
-123.917 -129.073 71.3629 -124.661 -128.754 71.7744 -123.272 -129.356 70.827 
-122.783 -129.737 70.1011 -122.225 -129.984 69.1396 -121.625 -129.743 68.1668 
-121.197 -129.083 67.3508 -120.879 -128.328 66.5106 -120.601 -127.615 65.5434 
-125.144 -128.885 70.7667 -125.711 -128.564 71.2064 -124.557 -129.156 70.0945 
-124.044 -129.501 69.2935 -123.453 -129.817 68.416 -122.73 -129.797 67.5385 
-122.131 -129.294 66.7796 -121.757 -128.492 66.0825 -121.457 -127.655 65.3157 
-121.191 -126.867 64.5319 -112.791 -126.859 73.9884 -113.086 -126.745 74.706 
-113.48 -126.267 74.3531 -113.955 -126.152 75.1448 -114.685 -126.162 74.2027 
-114.047 -127.025 75.3469 -115.355 -126.025 74.9276 -116.18 -126.471 73.5174 
-115.134 -126.397 75.5934 -115.62 -127.501 75.6399 -116.908 -126.228 74.0863 
-117.543 -126.649 72.488 -116.577 -126.104 75.1126 -116.969 -126.786 75.5986 
-117.876 -127.774 75.5466 -118.237 -126.29 72.8123 -118.598 -126.375 71.0798 
-117.908 -126.165 74.0465 -118.218 -126.483 74.8806 -119.159 -127.152 75.3592 
-120.088 -127.951 75.1807 -119.356 -126.081 71.1552 -119.508 -125.876 69.4753 
-119.088 -126.185 72.605 -119.185 -126.5 73.6564 -119.979 -126.901 74.4675 
-120.921 -127.383 74.7211 -121.504 -128.18 74.2021 -120.339 -125.706 69.5468 
-120.317 -125.3 68.1806 -120.279 -125.962 70.9633 -120.286 -126.328 72.129 
-120.753 -126.697 73.0757 -121.551 -126.901 73.6732 -122.24 -127.412 73.5784 
-122.752 -128.293 72.9919 -121.094 -125.117 68.3644 -120.927 -124.592 67.2677 
-121.313 -125.481 69.5381 -121.495 -125.857 70.5806 -121.809 -126.305 71.4487 
-122.373 -126.531 72.2193 -123.03 -126.738 72.6621 -123.705 -127.425 72.6304 
-124.302 -128.273 72.3022 -121.628 -124.371 67.4037 -121.377 -123.816 66.4424 
[...]
CELL_DATA 2000
SCALARS Distance double
LOOKUP_TABLE default
172.831 172.861 173.271 174.112 172.929 173.331 174.213 174.584 175.442 
173.115 173.476 174.413 174.749 175.659 175.981 176.892 173.405 173.746 
174.75 175.055 176.023 176.292 177.248 177.526 178.464 173.786 174.091 
175.129 175.446 176.456 176.728 177.699 177.95 178.895 179.131 180.002 
174.32 174.546 175.571 175.849 176.868 177.158 178.132 178.4 179.327 
179.571 180.429 180.624 181.394 174.931 175.126 176.121 176.34 177.335 
177.585 178.544 178.8 179.702 179.961 180.808 181.033 181.793 181.959 
182.641 175.508 175.705 176.657 176.878 177.828 178.066 178.976 179.204 
180.039 180.281 181.081 181.35 182.106 182.324 182.984 183.135 183.72 
176.1 176.251 177.136 177.345 178.221 178.483 179.325 179.58 180.334 
180.565 181.272 181.546 182.264 182.555 183.219 183.431 183.987 184.126 
184.616 171.981 170.643 171.535 171.975 169.269 170.167 170.611 171.527 
172.011 167.878 168.792 169.246 170.167 170.67 171.599 172.155 166.482 
167.387 167.877 168.822 169.35 170.278 170.83 171.779 172.397 165.326 
166.069 166.556 167.46 168.019 168.966 169.514 170.451 171.054 172.051 
172.753 164.488 165.064 165.459 166.209 166.735 167.642 168.211 169.137 
169.733 170.713 171.446 172.49 173.297 163.663 164.233 164.529 165.18 
165.627 166.431 167.023 167.895 168.533 169.444 170.184 171.205 172.063 
173.111 173.939 162.839 163.371 163.705 164.294 164.762 165.444 166.073 
166.848 167.562 168.375 169.129 170.027 170.87 171.884 172.766 173.773 
174.568 162.372 162.723 163.214 163.665 164.281 164.788 165.477 166.08 
166.825 167.533 168.295 169.078 169.869 170.763 171.636 172.624 173.516 
174.454 175.242 162.49 163.39 163.028 163.401 164.662 164.159 164.501 
164.105 164.533 165.941 165.441 165.721 165.284 165.592 165.238 165.674 
167.197 166.636 166.769 166.355 166.54 166.215 166.532 166.345 166.894 
168.501 167.868 167.871 167.334 167.411 167.033 167.283 167.108 167.628 
167.601 168.295 169.758 169.157 169.196 168.543 168.625 168.03 168.273 
167.905 168.444 168.343 169.105 169.084 169.875 171.08 170.473 170.699 
170.022 170.284 169.539 169.898 169.226 169.829 169.415 170.281 170.071 
171 170.825 171.692 172.67 171.996 172.385 171.695 172.146 171.413 
171.948 171.178 171.869 171.19 172.097 171.601 172.611 172.219 173.159 
172.807 173.643 174.392 173.729 174.151 173.481 173.967 173.322 173.922 
173.281 173.988 173.344 174.144 173.573 174.448 173.981 174.835 174.404 
175.156 174.747 175.409 176.365 176.207 176.754 177.579 175.938 176.558 
177.344 177.818 178.429 175.616 176.252 176.978 177.45 177.964 178.47 
179.023 175.414 176.012 176.785 177.116 177.556 177.933 178.481 179.065 
179.81 175.285 175.911 176.86 177.136 177.64 177.731 178.218 178.591 
179.409 180.044 181.023 175.125 175.782 176.847 177.298 177.991 178.058 
178.492 178.561 179.24 179.714 180.744 181.417 182.449 175.079 175.637 
176.689 177.241 178.088 178.387 178.914 178.953 179.473 179.691 180.583 
181.163 182.223 182.837 183.652 175.234 175.676 176.688 177.142 178.028 
178.421 179.107 179.301 179.873 180.006 180.787 181.146 182.143 182.642 
183.448 183.846 184.265 175.453 175.872 176.864 177.238 178.103 178.439 
179.193 179.467 180.166 180.378 181.171 181.447 182.365 182.703 183.455 
183.702 184.066 184.231 184.343 176.745 177.911 177.467 177.707 178.818 
178.539 178.808 178.42 178.725 179.527 179.363 179.724 179.448 179.783 
179.449 179.786 180.385 180.145 180.601 180.345 180.757 180.472 180.843 
180.492 180.784 181.622 181.218 181.726 181.35 181.851 181.514 181.965 
181.579 181.907 181.463 181.72 183.034 182.601 183.108 182.636 183.132 
182.722 183.207 182.786 183.144 182.651 182.917 182.43 182.699 184.123 
183.892 184.332 183.981 184.36 183.984 184.36 183.994 184.313 183.885 
184.127 183.653 183.892 183.425 183.654 184.572 184.624 184.982 184.921 
185.226 185.018 185.277 184.997 185.25 184.932 185.175 184.798 185.018 
184.586 184.767 184.302 184.424 184.566 184.761 185.111 185.281 185.652 
185.658 185.96 185.788 186.048 185.79 186.067 185.769 186.028 185.653 
185.825 185.37 185.455 184.974 185.027 184.622 185.19 184.977 185.271 
186.229 185.788 186.048 185.744 185.955 187.472 186.925 187.093 186.657 
186.798 186.401 186.399 188.778 188.151 188.18 187.669 187.708 187.274 
187.229 186.751 186.573 190.002 189.425 189.339 188.721 188.617 188.116 
188.028 187.574 187.413 186.888 186.64 190.759 190.444 190.359 189.831 
189.629 189.034 188.84 188.335 188.171 187.701 187.468 186.931 186.617 
191.178 190.972 190.931 190.632 190.482 190.007 189.768 189.197 188.948 
188.427 188.163 187.673 187.317 186.797 186.379 191.699 191.399 191.332 
191.069 190.981 190.692 190.527 190.078 189.781 189.222 188.855 188.316 
187.899 187.39 186.917 186.427 185.957 192.177 191.922 191.783 191.493 
191.364 191.115 190.966 190.667 190.362 189.925 189.469 188.957 188.455 
187.937 187.43 186.92 186.426 185.954 185.505 184.393 184.357 184.462 
184.904 184.716 184.589 185.01 185.221 185.948 185.435 185.122 185.454 
185.468 186.181 186.449 187.277 186.168 185.894 186.106 185.978 186.573 
186.76 187.629 187.877 188.699 186.464 186.465 186.636 186.551 186.986 
187.136 187.94 188.247 189.102 189.307 189.962 186.302 186.548 186.803 
186.89 187.246 187.427 188.082 188.445 189.193 189.543 190.115 190.329 
190.684 185.992 186.33 186.7 186.926 187.303 187.536 188.063 188.428 
189.02 189.421 189.899 190.241 190.61 190.838 191.119 185.625 186.025 
186.447 186.782 187.192 187.486 187.95 188.294 188.796 189.157 189.599 
189.94 190.384 190.711 191.182 191.362 191.721 185.148 185.607 186.032 
186.471 186.893 187.279 187.709 188.086 188.549 188.914 189.354 189.679 
190.132 190.497 191.038 191.396 191.87 192.015 192.248 175.902 177.033 
176.768 177.311 178.151 177.884 178.408 178.1 178.519 179.277 178.994 
179.507 179.189 179.603 179.241 179.579 180.392 180.116 180.643 180.317 
180.767 180.371 180.745 180.315 180.628 181.467 181.212 181.762 181.468 
181.969 181.594 182.042 181.588 181.997 181.467 181.798 182.504 182.267 
182.808 182.558 183.093 182.798 183.301 182.919 183.376 182.908 183.295 
182.715 183.007 183.424 183.25 183.751 183.546 184.072 183.869 184.406 
184.131 184.553 184.179 184.445 184.028 184.174 183.731 183.842 184.137 
184.062 184.538 184.401 184.882 184.759 185.283 185.132 185.513 185.208 
185.289 184.9 184.787 184.477 184.35 184.157 184.133 184.687 184.679 
185.157 185.091 185.525 185.454 185.891 185.844 186.17 185.99 185.986 
185.591 185.314 184.9 184.614 184.374 184.244 184.197 184.241 175.131 
174.341 175.249 176.284 173.69 174.504 175.569 176.443 177.459 173.201 
173.9 174.905 175.76 176.839 177.665 178.64 172.774 173.386 174.258 
175.077 176.145 177.052 178.115 178.878 179.79 172.375 172.922 173.672 
174.397 175.411 176.34 177.478 178.346 179.351 180.032 180.888 171.931 
172.505 173.254 173.874 174.865 175.676 176.858 177.731 178.829 179.581 
180.511 181.137 181.953 171.423 172.05 172.918 173.549 174.586 175.281 
176.439 177.205 178.313 179.064 180.029 180.724 181.578 182.181 182.906 
171.06 171.62 172.583 173.254 174.346 175.046 176.145 176.843 177.871 
178.575 179.521 180.224 181.087 181.747 182.491 183.047 183.64 171.007 
171.416 172.361 172.968 174.042 174.749 175.799 176.495 177.453 178.132 
179.053 179.738 180.621 181.267 182.036 182.6 183.221 183.705 184.21 
171.357 172.354 172.09 172.685 173.469 173.167 173.791 173.573 174.324 
174.732 174.377 175.023 174.739 175.472 175.274 176.042 176.076 175.717 
176.397 176.058 176.782 176.48 177.216 176.975 177.691 177.398 177.063 
177.758 177.451 178.182 177.852 178.573 178.238 178.95 178.643 179.326 
178.756 178.391 179.069 178.772 179.483 179.201 179.896 179.598 180.291 
179.977 180.647 180.303 180.913 180.157 179.773 180.426 180.088 180.768 
180.461 181.121 180.838 181.5 181.25 181.896 181.607 182.156 181.807 
182.283 181.467 181.128 181.734 181.417 182.063 181.753 182.394 182.07 
182.702 182.415 183.046 182.776 183.308 182.976 183.378 183.035 183.408 
182.626 182.34 182.885 182.619 183.212 182.974 183.595 183.327 183.928 
183.629 184.211 183.916 184.429 184.091 184.469 184.089 184.396 184.06 
184.377 183.403 184.627 183.897 183.665 185.829 185.127 184.921 184.19 
184.003 187.012 186.327 186.179 185.475 185.329 184.589 184.42 188.235 
187.529 187.4 186.735 186.624 185.923 185.771 185.009 184.786 189.39 
188.73 188.549 187.925 187.8 187.164 186.996 186.303 186.079 185.323 
185.048 190.342 189.794 189.595 189.009 188.854 188.269 188.071 187.433 
187.171 186.509 186.222 185.516 185.193 191.211 190.731 190.596 190.007 
189.822 189.255 189.037 188.437 188.13 187.502 187.173 186.556 186.207 
185.551 185.165 191.97 191.615 191.487 190.948 190.646 190.109 189.793 
189.288 188.93 188.372 187.98 187.409 187.039 186.454 186.067 185.435 
185.046 192.318 192.196 191.981 191.628 191.159 190.717 190.231 189.844 
189.42 189.012 188.58 188.107 187.698 187.201 186.826 186.277 185.905 
185.307 184.974 183.463 183.876 184.05 184.719 184.097 184.438 185.22 
185.328 185.937 184.15 184.62 185.555 185.815 186.541 186.556 187.132 
184.198 184.693 185.749 186.142 187.053 187.193 187.91 187.836 188.422 
184.259 184.764 185.82 186.31 187.308 187.658 188.523 188.636 189.309 
189.17 189.643 184.174 184.747 185.716 186.283 187.197 187.732 188.577 
189.019 189.705 189.883 190.307 190.206 190.502 183.907 184.53 185.435 
186.046 186.852 187.436 188.158 188.765 189.394 189.894 190.298 190.534 
190.789 190.857 191.177 183.614 184.202 185.066 185.675 186.43 186.996 
187.643 188.222 188.838 189.404 189.9 190.295 190.634 190.893 191.25 
191.467 191.856 183.397 183.915 184.714 185.278 185.985 186.528 187.142 
187.691 188.325 188.893 189.529 189.97 190.471 190.741 191.148 191.399 
191.783 192.023 192.259 182.701 181.473 182.438 183.025 179.907 181.043 
181.626 182.644 183.154 178.102 179.319 179.926 181.097 181.613 182.651 
183.124 176.352 177.456 178.028 179.281 179.867 181.028 181.539 182.596 
183.128 174.89 175.792 176.245 177.377 177.992 179.23 179.855 181.004 
181.589 182.656 183.221 173.597 174.423 174.827 175.746 176.306 177.42 
178.116 179.313 179.99 181.118 181.693 182.729 183.194 172.356 173.164 
173.62 174.457 174.993 175.922 176.576 177.655 178.36 179.498 180.105 
181.172 181.625 182.611 182.967 171.272 171.999 172.48 173.293 173.847 
174.71 175.315 176.251 176.899 177.929 178.557 179.596 180.104 181.066 
181.461 182.377 182.728 170.34 171.001 171.46 172.211 172.763 173.586 
174.18 175.046 175.655 176.573 177.205 178.16 178.758 179.664 180.152 
180.987 181.394 182.22 182.589 169.932 169.711 170.249 171.116 169.655 
170.16 171.144 171.562 172.458 169.779 170.243 171.291 171.687 172.627 
172.98 173.879 169.97 170.418 171.463 171.872 172.824 173.183 174.101 
174.444 175.355 170.216 170.615 171.639 172.038 173.007 173.384 174.362 
174.721 175.708 176 176.932 170.584 170.899 171.921 172.262 173.267 
173.611 174.67 175.044 176.148 176.454 177.458 177.645 178.515 171.077 
171.305 172.306 172.608 173.638 173.956 175.034 175.404 176.535 176.906 
177.939 178.186 179.025 179.168 179.898 171.696 171.824 172.755 173.008 
174.012 174.341 175.383 175.758 176.794 177.201 178.147 178.515 179.307 
179.571 180.252 180.436 181.097 172.416 172.463 173.303 173.466 174.39 
174.683 175.667 176.038 176.984 177.364 178.197 178.573 179.313 179.68 
180.376 180.684 181.36 181.588 182.254 173.092 174.372 173.793 173.956 
175.713 175.116 175.313 174.732 175.003 177.165 176.525 176.763 176.148 
176.44 175.876 176.247 178.71 178.045 178.293 177.652 177.947 177.351 
177.69 177.15 177.515 180.221 179.596 179.842 179.204 179.492 178.877 
179.184 178.593 178.88 178.342 178.644 181.615 181.065 181.338 180.739 
181.034 180.425 180.743 180.118 180.391 179.745 179.984 179.421 179.714 
182.878 182.417 182.734 182.205 182.5 181.928 182.227 181.652 181.948 
181.313 181.561 180.879 181.134 180.533 180.827 183.964 183.616 183.971 
183.549 183.854 183.333 183.579 183.045 183.312 182.791 183.068 182.473 
182.724 182.066 182.313 181.675 181.899 184.855 184.609 184.985 184.695 
185.038 184.618 184.866 184.347 184.58 184.079 184.36 183.87 184.139 
183.588 183.807 183.19 183.365 182.712 182.838 183.549 184.109 184.166 
184.814 184.553 184.68 185.318 185.395 186.003 184.896 185.09 185.761 
185.862 186.475 186.539 187.135 185.152 185.419 186.19 186.338 187.029 
187.065 187.732 187.738 188.38 185.377 185.668 186.499 186.754 187.513 
187.639 188.36 188.416 189.138 189.095 189.677 185.615 185.893 186.667 
186.982 187.699 187.974 188.655 188.913 189.646 189.814 190.429 190.335 
190.689 185.723 186.052 186.73 187.067 187.703 188.02 188.63 188.988 
189.672 190.071 190.715 190.905 191.281 191.16 191.349 185.605 186 
186.608 187.009 187.609 187.966 188.556 188.903 189.535 189.946 190.558 
190.929 191.334 191.497 191.703 191.677 191.859 185.412 185.786 186.351 
186.778 187.362 187.792 188.378 188.785 189.374 189.778 190.309 190.679 
191.031 191.316 191.5 191.724 191.878 192.039 192.198 162.034 162.515 
162.06 161.821 163.315 162.699 162.263 161.839 161.62 164.072 163.468 
162.891 162.303 161.827 161.567 161.546 164.875 164.196 163.63 162.929 
162.394 161.881 161.773 161.697 162.123 166.075 165.21 164.788 163.887 
163.504 162.712 162.668 162.241 162.677 162.635 163.342 167.537 166.64 
166.366 165.379 165.164 164.19 164.22 163.489 163.873 163.487 164.102 
163.998 164.707 168.967 168.148 167.962 167.076 166.954 166.029 166.076 
165.241 165.527 164.889 165.354 164.951 165.551 165.41 166.144 170.359 
169.58 169.457 168.657 168.615 167.798 167.892 167.096 167.362 166.628 
167.026 166.389 166.9 166.464 167.129 166.95 167.705 171.719 170.988 
170.918 170.166 170.196 169.446 169.605 168.869 169.164 168.454 168.86 
168.165 168.636 168.007 168.563 168.12 168.764 168.528 169.159 161.934 
161.726 161.866 162.146 161.649 161.775 162.107 162.338 162.897 161.762 
161.813 162.265 162.433 163.011 163.243 163.862 162.402 162.191 162.718 
162.739 163.372 163.476 164.07 164.224 164.799 163.537 163.109 163.562 
163.381 164.006 163.975 164.598 164.59 165.162 165.218 165.822 164.855 
164.342 164.7 164.348 164.869 164.708 165.322 165.242 165.845 165.774 
166.375 166.367 166.991 166.303 165.717 166.087 165.583 166.051 165.689 
166.251 166.044 166.65 166.53 167.132 167.048 167.629 167.58 168.13 
167.813 167.217 167.578 167.034 167.478 166.997 167.509 167.124 167.673 
167.405 167.972 167.818 168.38 168.275 168.786 168.69 169.166 169.164 
168.641 168.897 168.431 168.775 168.366 168.798 168.421 168.885 168.523 
168.984 168.701 169.192 169.025 169.527 169.394 169.86 169.728 170.197 
162.247 162.474 162.506 163.112 163.203 162.972 163.464 163.571 164.353 
164.152 163.839 164.244 164.1 164.749 164.895 165.704 165.056 164.771 
165.15 164.936 165.474 165.431 166.186 166.314 167.112 166.019 165.672 
166.024 165.788 166.242 166.142 166.805 166.892 167.705 167.798 168.516 
167.145 166.718 167.074 166.727 167.161 166.912 167.492 167.485 168.265 
168.398 169.138 169.163 169.749 168.249 167.853 168.255 167.904 168.439 
168.043 168.643 168.341 169.086 169.017 169.791 169.778 170.407 170.353 
170.969 169.245 168.887 169.29 169.053 169.676 169.413 170.087 169.712 
170.399 170.073 170.798 170.584 171.259 171.094 171.761 171.689 172.476 
170.272 169.881 170.261 170.027 170.629 170.515 171.19 171.025 171.637 
171.385 171.975 171.714 172.329 172.088 172.749 172.587 173.365 173.325 
174.183 182.189 180.974 181.409 180.957 179.607 180.084 179.565 180.003 
179.384 178.174 178.642 178.092 178.538 177.894 178.301 177.607 176.789 
177.201 176.644 177.067 176.464 176.844 176.21 176.565 175.956 175.441 
175.82 175.226 175.639 175.056 175.458 174.882 175.253 174.704 175.051 
174.543 174.103 174.454 173.826 174.219 173.623 174.048 173.481 173.913 
173.36 173.779 173.242 173.66 173.18 172.874 173.154 172.535 172.856 
172.277 172.651 172.127 172.533 172.017 172.413 171.876 172.286 171.791 
172.267 171.876 171.804 172.021 171.442 171.676 171.126 171.407 170.931 
171.278 170.851 171.184 170.726 171.022 170.572 170.931 170.582 171.051 
170.804 170.855 171.037 170.511 170.699 170.18 170.375 169.889 170.165 
169.752 170.091 169.686 169.988 169.564 169.853 169.496 169.867 169.612 
170.08 169.888 
POINT_DATA 1002
SCALARS Distance double
LOOKUP_TABLE default
173.662 172.41 172.421 173.731 172.434 174.944 173.83 172.526 175.08 
176.303 174.074 172.745 175.338 176.562 177.814 174.421 173.05 175.756 
176.979 178.207 179.375 174.804 173.506 176.164 177.453 178.667 179.815 
180.818 175.329 174.128 176.581 177.862 179.084 180.234 181.243 182.123 
175.924 174.742 177.112 178.315 179.459 180.568 181.625 182.513 183.289 
176.451 175.333 177.601 178.775 179.842 180.82 181.859 182.837 183.606 
184.268 176.974 175.996 177.988 179.077 180.126 181.036 181.963 182.972 
183.851 184.507 185.075 171.114 171.071 169.745 169.686 168.378 171.076 
168.313 166.944 169.741 171.195 166.907 165.596 168.414 169.898 171.397 
165.705 164.681 167.06 168.586 170.061 171.707 164.81 163.977 165.866 
167.281 168.766 170.373 172.26 163.915 163.1 164.868 166.15 167.64 
169.195 170.985 172.947 163.101 162.319 164.103 165.317 166.755 168.292 
169.903 171.723 173.63 162.751 162.049 163.794 164.948 166.17 167.553 
169.041 170.665 172.52 174.399 162.674 163.663 163.837 164.982 165.171 
164.863 166.174 166.482 166.011 165.909 167.255 167.857 166.883 166.732 
166.96 168.494 169.155 167.866 167.487 167.635 168.291 169.823 170.298 
169.272 168.74 168.595 169.105 169.919 171.303 171.644 170.975 170.608 
170.346 170.548 171.191 171.891 173.043 173.324 172.809 172.656 172.582 
172.679 173.066 173.578 174.012 174.82 175.035 174.592 174.503 174.611 
174.777 174.98 175.304 175.627 175.834 177.269 177.163 178.307 176.887 
177.988 178.997 176.572 177.48 178.429 179.645 176.491 177.301 177.893 
179.124 180.663 176.474 177.623 178.005 178.758 180.345 182.062 176.269 
177.806 178.553 178.924 180.041 181.848 183.443 176.147 177.656 178.809 
179.386 180.11 181.601 183.226 184.296 176.295 177.628 178.804 179.713 
180.525 181.729 183.103 184.023 184.481 176.507 177.796 178.889 179.889 
180.901 182.089 183.281 183.987 184.193 184.358 178.161 179.153 179.114 
179.943 180.08 180.159 180.848 181.014 181.18 181.193 182.144 182.19 
182.351 182.367 182.163 183.605 183.581 183.63 183.645 183.426 183.165 
184.636 184.763 184.745 184.711 184.588 184.373 184.142 184.944 185.37 
185.55 185.54 185.502 185.438 185.248 184.915 184.861 185.531 186.058 
186.277 186.332 186.37 186.278 185.952 185.502 184.649 185.423 185.501 
186.441 186.746 186.282 187.59 188.084 187.25 186.868 188.784 189.471 
188.172 187.71 187.116 190.026 190.514 189.213 188.475 187.907 187.223 
190.797 190.971 190.258 189.421 188.631 187.979 187.204 191.154 191.413 
190.846 190.346 189.542 188.675 187.837 186.911 191.635 192.054 191.212 
190.89 190.351 189.454 188.44 187.424 186.42 192.081 192.397 191.637 
191.247 190.765 189.975 188.98 187.949 186.92 185.941 184.174 184.563 
184.336 184.868 184.945 185.599 185.557 185.809 185.94 187.005 186.323 
186.379 186.442 187.339 188.548 186.699 186.32 186.891 187.629 188.857 
189.906 186.631 185.96 187.086 187.766 188.854 189.871 190.571 186.404 
185.615 187.068 187.76 188.667 189.543 190.286 190.977 186.061 185.203 
186.878 187.634 188.461 189.266 189.995 190.874 191.699 185.561 184.681 
186.477 187.328 188.168 189.021 189.78 190.625 191.617 192.296 176.168 
177.634 177.301 178.721 178.436 178.875 179.829 179.569 179.976 179.963 
180.955 180.655 181.15 181.179 181.096 182.032 181.717 182.305 182.458 
182.493 182.406 183.055 182.743 183.341 183.638 183.811 183.829 183.654 
183.957 183.577 184.246 184.634 184.95 184.903 184.609 184.265 184.657 
184.18 185.005 185.401 185.818 185.777 185.195 184.566 184.226 174.192 
175.389 173.446 174.679 172.947 176.644 174.078 172.582 175.96 177.919 
173.503 172.244 175.198 177.282 179.149 173.026 171.86 174.493 176.544 
178.613 180.295 172.633 171.303 174.111 175.993 178.04 179.838 181.403 
172.215 170.751 173.91 175.74 177.585 179.32 180.935 182.4 171.896 
170.534 173.641 175.491 177.207 178.825 180.422 181.908 183.167 171.819 