# vtk DataFile Version 4.0
vtk output
ASCII
DATASET POLYDATA
POINTS 1002 float
-121.164 -112.781 54.3555 -120.89 -111.898 53.2567 -120.307 -112.027 53.6757 
-120.569 -113.066 54.8672 -119.672 -112.403 54.1141 -121.486 -113.795 55.7743 
-119.991 -113.553 55.4203 -119.082 -112.998 54.6138 -120.968 -114.218 56.3877 
-121.876 -114.904 57.3704 -119.502 -114.125 56.099 -118.61 -113.582 55.2996 
-120.516 -114.742 57.07 -121.453 -115.436 58.0679 -122.225 -116.33 58.833 
-119.065 -114.687 56.9281 -118.2 -114.177 56.1041 -120.07 -115.356 57.8529 
-121.026 -116.144 58.7988 -121.774 -117.136 59.5158 -122.4 -118.317 59.9898 
-118.676 -115.406 57.7781 -117.841 -114.94 56.8741 -119.599 -116.133 58.6874 
-120.511 -117.09 59.5425 -121.233 -118.176 60.2078 -121.821 -119.358 60.653 
-122.39 -120.369 61.1273 -118.409 -116.299 58.6594 -117.629 -115.726 57.735 
-119.216 -117.089 59.5485 -120 -118.152 60.3126 -120.654 -119.267 60.9412 
-121.184 -120.359 61.4026 -121.709 -121.302 61.8813 -122.259 -121.948 62.4719 
-118.177 -117.191 59.6635 -117.507 -116.431 58.8027 -118.849 -118.09 60.4551 
-119.5 -119.165 61.119 -120.069 -120.224 61.7366 -120.574 -121.16 62.2848 
-121.054 -122.033 62.7785 -121.544 -122.729 63.3184 -122.07 -123.26 63.8113 
-117.84 -118.077 60.6469 -117.314 -117.207 59.8538 -118.338 -119.049 61.3232 
-118.864 -120.091 61.8922 -119.366 -121.086 62.5115 -119.871 -121.903 63.1816 
-120.409 -122.664 63.7771 -120.901 -123.397 64.2847 -121.367 -123.978 64.7093 
-121.875 -124.472 64.9942 -117.437 -118.99 61.4212 -117.021 -118.116 60.6522 
-117.787 -119.929 62.0693 -118.2 -120.883 62.6207 -118.649 -121.829 63.2598 
-119.103 -122.634 64.0017 -119.654 -123.326 64.6798 -120.231 -124.026 65.2198 
-120.716 -124.627 65.6337 -121.183 -125.061 65.9179 -121.689 -125.439 66.0786 
-120.231 -111.079 52.6103 -119.607 -111.279 52.9688 -119.452 -110.22 51.9719 
-118.776 -110.559 52.2819 -118.522 -109.299 51.2878 -118.927 -111.772 53.345 
-117.804 -109.664 51.7102 -117.559 -108.275 50.7263 -118.068 -111.088 52.6602 
-118.31 -112.396 53.8357 -116.925 -108.591 51.3787 -116.815 -107.293 50.3937 
-117.123 -110.153 52.2033 -117.451 -111.63 53.2086 -117.821 -112.98 54.5707 
-116.265 -107.65 51.1574 -116.224 -106.504 50.1617 -116.274 -109.191 51.9322 
-116.513 -110.746 52.8091 -116.938 -112.241 54.0243 -117.364 -113.694 55.3891 
-115.535 -106.893 50.9641 -115.498 -105.799 50.0725 -115.447 -108.437 51.6805 
-115.558 -110.041 52.4869 -115.975 -111.507 53.6597 -116.451 -113.074 54.891 
-116.983 -114.525 56.1607 -114.749 -106.169 51.0032 -114.788 -105.064 50.3357 
-114.592 -107.731 51.604 -114.606 -109.431 52.2688 -115.008 -110.883 53.3491 
-115.549 -112.387 54.5872 -116.108 -113.949 55.7226 -116.818 -115.238 57.1122 
-114.291 -105.534 51.4273 -114.395 -104.45 50.9929 -114.096 -107.026 51.9259 
-113.991 -108.703 52.4749 -114.249 -110.166 53.3007 -114.774 -111.659 54.3953 
-115.324 -113.349 55.505 -115.985 -114.772 56.7396 -116.748 -115.929 58.2784 
-114.105 -105.13 52.2175 -114.203 -104.171 51.9565 -114.008 -106.433 52.6137 
-113.937 -107.942 53.1362 -114.021 -109.31 53.7749 -114.342 -110.756 54.5259 
-114.77 -112.636 55.4252 -115.262 -114.409 56.5443 -115.914 -115.65 57.8993 
-116.584 -116.785 59.3434 -113.827 -104.703 53.2964 -113.842 -105.676 53.5188 
-113.285 -105.209 54.7508 -113.625 -106.138 54.9398 -113.073 -105.599 55.9555 
-114.005 -106.992 53.9651 -113.672 -106.804 56.2672 -113.537 -106.516 57.0103 
-114.103 -107.485 55.503 -114.166 -108.356 54.6006 -113.972 -108.316 57.5659 
-114.185 -108.334 58.3671 -114.17 -108.491 56.9088 -114.406 -108.914 56.0847 
-114.331 -109.735 55.1486 -114.46 -110.249 58.7246 -114.78 -110.203 59.5379 
-114.367 -110.217 57.9897 -114.569 -110.186 57.2026 -114.649 -110.697 56.347 
-114.589 -111.731 55.6937 -115.409 -111.728 59.3059 -115.789 -111.563 59.8152 
-115.093 -111.884 58.6959 -115.018 -111.881 58.039 -115.018 -112.203 57.4097 
-114.877 -113.152 56.9197 -114.889 -114.04 56.6467 -116.594 -113.076 59.6554 
-116.992 -112.956 59.8801 -116.169 -113.302 59.3385 -115.791 -113.491 58.9902 
-115.496 -113.783 58.6825 -115.168 -114.547 58.3955 -115.007 -115.4 58.1319 
-115.306 -115.712 57.9644 -117.301 -114.801 60.5116 -117.674 -114.681 60.6285 
-116.874 -114.96 60.3843 -116.357 -115.159 60.295 -115.834 -115.417 60.2393 
-115.359 -115.917 60.0647 -115.084 -116.597 59.7125 -115.286 -116.976 59.4061 
-115.902 -116.924 59.3104 -117.417 -116.579 61.8007 -117.77 -116.374 61.8857 
-117.016 -116.738 61.7347 -116.488 -116.889 61.7538 -115.892 -117.105 61.8092 
-115.384 -117.458 61.6734 -115.114 -117.941 61.2216 -115.25 -118.321 60.7187 
-115.786 -118.389 60.4994 -116.453 -118.247 60.5496 -116.931 -119.644 61.7883 
-116.396 -119.844 61.711 -116.725 -121.103 63.0894 -115.753 -119.968 61.7211 
-116.158 -121.344 63.1806 -116.328 -122.319 64.6839 -115.209 -119.841 62.061 
-115.476 -121.432 63.3038 -115.598 -122.593 64.8988 -115.685 -123.643 66.2048 
-115.022 -119.436 62.6786 -114.9 -121.17 63.6587 -114.868 -122.565 65.0343 
-114.925 -123.92 66.4081 -115.087 -125.223 67.5021 -115.273 -118.961 63.1534 
-114.727 -120.623 64.2242 -114.381 -122.06 65.3662 -114.351 -123.67 66.6362 
-114.485 -125.372 67.891 -114.612 -126.491 69.086 -115.857 -118.628 63.2301 
-115.098 -120.151 64.6074 -114.4 -121.449 65.9249 -114.093 -122.962 67.1798 
-114.032 -124.928 68.4142 -113.869 -126.502 69.7256 -113.877 -127.22 70.8201 
-116.523 -118.44 63.115 -115.84 -119.912 64.575 -114.98 -121.168 66.2195 
-114.322 -122.419 67.8223 -113.955 -124.145 69.1009 -113.374 -126.028 70.2462 
-112.882 -127.203 71.2855 -113.11 -127.823 71.9287 -117.054 -118.254 63.0832 
-116.588 -119.711 64.4012 -115.834 -121.039 66.0499 -114.959 -122.261 67.9594 
-114.368 -123.585 69.536 -113.643 -125.249 70.633 -112.69 -126.725 71.4807 
-112.403 -127.647 72.0941 -113.007 -128.407 72.4534 -117.454 -117.991 63.1454 
-117.147 -119.41 64.3471 -116.626 -120.75 65.7824 -115.744 -122.087 67.616 
-114.993 -123.325 69.3564 -114.418 -124.631 70.628 -113.531 -125.999 71.5412 
-112.793 -127.054 72.1891 -112.906 -127.861 72.6389 -113.592 -128.725 73.0194 
-117.243 -120.527 62.6047 -117.016 -121.837 64.0432 -117.586 -121.388 63.3083 
-116.613 -123.09 65.7028 -117.433 -122.658 64.9391 -118.035 -122.309 64.0525 
-115.939 -124.691 67.1328 -117.021 -124.081 66.656 -117.891 -123.626 65.8793 
-118.467 -123.215 64.8933 -115.334 -126.222 68.5154 -116.306 -125.711 68.0385 
-117.429 -125.063 67.5241 -118.276 -124.498 66.6463 -118.932 -123.975 65.6083 
-114.84 -127.12 70.2015 -115.75 -126.954 69.4372 -116.781 -126.528 68.8077 
-117.847 -125.857 68.0603 -118.726 -125.265 67.0736 -119.515 -124.703 66.1233 
-114.241 -127.827 71.5748 -115.357 -127.781 70.8577 -116.339 -127.666 70.0869 
-117.34 -127.262 69.2952 -118.323 -126.657 68.3088 -119.243 -126.039 67.3585 
-120.068 -125.364 66.5304 -113.861 -128.736 72.285 -114.93 -128.748 71.8203 
-115.976 -128.553 71.1979 -116.964 -128.327 70.4911 -117.892 -128.004 69.5017 
-118.819 -127.406 68.4405 -119.762 -126.592 67.6267 -120.573 -125.782 66.8452 
-114.01 -129.47 72.8923 -114.677 -129.773 72.557 -115.582 -129.486 72.0528 
-116.646 -129.06 71.4699 -117.622 -128.899 70.598 -118.475 -128.621 69.4608 
-119.405 -127.824 68.5462 -120.357 -126.831 67.8701 -121.123 -126.046 67.054 
-114.461 -129.355 73.8773 -114.678 -130.243 73.67 -115.09 -129.766 74.9446 
-115.358 -130.538 74.601 -115.896 -129.832 75.6462 -115.235 -130.393 73.1745 
-116.662 -130.451 75.1012 -117.418 -129.76 75.7048 -116.249 -130.565 73.8547 
-116.3 -129.877 72.5022 -118.528 -130.32 75.0902 -119.25 -129.761 75.635 
-117.914 -130.625 74.1779 -117.554 -130.225 72.8655 -117.495 -129.521 71.6354 
-120.195 -130.177 75.052 -120.834 -129.795 75.7479 -119.543 -130.517 74.1913 
-118.964 -130.508 72.988 -118.575 -130.061 71.6079 -118.413 -129.45 70.4273 
-121.591 -130.068 74.9765 -122.19 -129.716 75.5752 -120.894 -130.2 74.073 
-120.21 -130.253 72.9226 -119.686 -130.143 71.5501 -119.389 -129.704 70.2742 
-119.306 -128.876 69.3194 -122.825 -129.983 74.4828 -123.227 -129.384 74.8286 
-122.269 -130.139 73.6933 -121.645 -129.97 72.6012 -121.08 -129.79 71.3807 
-120.661 -129.49 70.2475 -120.429 -128.765 69.3621 -120.349 -127.765 68.6185 
-123.72 -129.672 73.6245 -123.91 -128.855 73.8374 -123.419 -130.147 73.0248 
-123.038 -130.087 72.0463 -122.644 -129.763 70.9285 -122.19 -129.358 69.9772 
-121.743 -128.662 69.2861 -121.44 -127.706 68.6363 -121.258 -126.803 67.8683 
-124.435 -129.155 72.7458 -124.519 -128.358 72.976 -124.25 -129.768 72.2674 
-123.958 -129.952 71.4473 -123.706 -129.786 70.3969 -123.42 -129.415 69.4438 
-122.939 -128.738 68.8172 -122.443 -127.817 68.3098 -122.117 -126.938 67.6308 
-121.893 -126.176 66.8324 -114.079 -128.12 73.6082 -114.911 -128.501 74.7073 
-114.723 -127.427 74.3565 -115.348 -127.624 75.4381 -115.306 -126.941 74.9551 
-115.527 -128.775 75.684 -115.885 -126.921 75.8615 -116.054 -126.545 74.9583 
-116.121 -127.805 76.0961 -116.564 -128.903 76.039 -116.83 -126.333 75.6804 
-117.178 -126.235 74.1653 -117.026 -126.879 76.3116 -117.54 -127.932 76.2911 
-118.275 -129.003 76.0262 -118.041 -126.201 74.6917 -118.441 -126.165 72.9266 
-118.101 -126.26 75.9886 -118.606 -126.894 76.4913 -119.263 -128.056 76.4581 
-120.037 -129.148 76.1925 -119.208 -126.299 73.3642 -119.578 -125.891 71.8047 
-119.066 -126.346 74.8622 -119.428 -126.39 75.9361 -120.103 -127.016 76.4895 
-120.849 -128.193 76.5603 -121.586 -129.192 76.2293 -120.215 -125.719 72.2867 
-120.475 -125.049 70.9271 -119.973 -126.207 73.6055 -120.118 -126.397 74.6847 
-120.753 -126.499 75.5745 -121.595 -127.132 76.1308 -122.344 -128.156 76.1124 
-122.875 -128.922 75.6055 -120.979 -124.574 71.3683 -121.084 -123.985 70.1085 
-120.831 -125.161 72.6163 -120.89 -125.77 73.5675 -121.399 -126.119 74.3551 
-122.252 -126.38 75.0993 -123.049 -127.027 75.4292 -123.507 -127.805 75.1577 
-123.711 -128.374 74.5525 -121.526 -123.564 70.3753 -121.501 -123.033 69.295 
-121.541 -123.985 71.5771 -121.653 -124.564 72.5931 -122.05 -125.217 73.3419 
[...]
CELL_DATA 2000
SCALARS Distance double
LOOKUP_TABLE default
172.426 172.319 172.771 173.645 172.376 172.759 173.691 174.125 175.09 
172.598 172.921 173.891 174.277 175.306 175.684 176.695 172.926 173.21 
174.205 174.563 175.643 175.999 177.074 177.391 178.445 173.381 173.608 
174.635 174.948 176.088 176.426 177.566 177.858 178.946 179.216 180.243 
174.004 174.174 175.251 175.485 176.668 176.958 178.135 178.405 179.484 
179.732 180.716 180.956 181.83 174.728 174.884 175.982 176.179 177.331 
177.586 178.715 178.974 179.99 180.23 181.14 181.377 182.2 182.413 
183.147 175.454 175.621 176.67 176.875 177.923 178.183 179.197 179.475 
180.401 180.658 181.51 181.752 182.553 182.763 183.488 183.659 184.314 
176.132 176.303 177.266 177.466 178.397 178.649 179.561 179.849 180.713 
180.987 181.803 182.068 182.859 183.1 183.823 184 184.625 184.767 
185.325 171.663 170.438 171.202 171.513 169.103 169.954 170.308 171.104 
171.527 167.639 168.573 168.994 169.879 170.331 171.183 171.709 166.248 
167.123 167.578 168.515 169.015 169.946 170.501 171.412 172.017 165.119 
165.855 166.296 167.144 167.664 168.598 169.201 170.173 170.835 171.768 
172.449 164.104 164.792 165.183 165.951 166.444 167.309 167.926 168.883 
169.599 170.578 171.319 172.257 173.019 163.142 163.774 164.137 164.859 
165.33 166.147 166.755 167.668 168.402 169.375 170.163 171.127 171.927 
172.881 173.709 162.491 162.943 163.37 163.932 164.46 165.136 165.767 
166.569 167.321 168.241 169.086 170.035 170.893 171.821 172.682 173.617 
174.469 162.286 162.543 163.049 163.424 164.043 164.516 165.193 165.767 
166.515 167.268 168.157 169.056 170.006 170.894 171.798 172.658 173.528 
174.403 175.217 162.453 162.961 162.859 163.198 163.48 163.402 163.864 
163.763 164.232 164.376 164.08 164.67 164.531 165.096 164.899 165.385 
166.033 165.347 165.905 165.522 166.124 165.837 166.337 166.083 166.638 
168.063 167.244 167.649 166.995 167.494 167.005 167.529 167.149 167.762 
167.506 168.272 169.893 169.182 169.521 168.806 169.209 168.551 169.065 
168.533 169.22 168.829 169.652 169.35 170.186 171.627 170.938 171.347 
170.64 171.074 170.357 170.862 170.227 170.887 170.411 171.196 170.826 
171.606 171.267 171.991 173.456 172.752 173.221 172.505 172.982 172.258 
172.751 172.072 172.633 172.083 172.732 172.32 173.001 172.656 173.326 
173 173.676 175.174 174.565 174.998 174.358 174.78 174.12 174.541 
173.895 174.35 173.766 174.283 173.799 174.387 174.001 174.645 174.315 
174.986 174.672 175.337 176.33 176.021 176.7 177.693 175.683 176.389 
177.443 178.068 178.959 175.411 176.063 177.113 177.787 178.72 179.267 
180.046 175.299 175.84 176.805 177.427 178.321 178.94 179.759 180.318 
181.124 175.355 175.788 176.657 177.134 177.909 178.476 179.286 179.95 
180.857 181.472 182.324 175.542 175.902 176.742 177.064 177.77 178.139 
178.893 179.474 180.428 181.147 182.078 182.64 183.306 175.79 176.131 
176.996 177.248 177.988 178.189 178.929 179.265 180.177 180.76 181.694 
182.294 182.942 183.393 183.823 176.004 176.373 177.254 177.536 178.32 
178.52 179.274 179.482 180.313 180.672 181.528 181.968 182.601 182.977 
183.389 183.785 184.239 176.146 176.543 177.41 177.752 178.537 178.822 
179.564 179.816 180.563 180.852 181.612 181.93 182.562 182.794 183.234 
183.454 183.909 184.299 184.908 176.812 178.134 177.623 177.907 179.357 
178.907 179.184 178.694 178.984 180.472 180.09 180.435 179.978 180.305 
179.802 180.126 181.602 181.222 181.659 181.254 181.67 181.178 181.521 
180.972 181.271 182.773 182.398 182.831 182.472 182.92 182.523 182.884 
182.374 182.644 182.09 182.347 183.708 183.491 183.878 183.592 184.001 
183.688 184.049 183.643 183.91 183.422 183.671 183.15 183.397 184.281 
184.254 184.692 184.533 184.954 184.708 185.093 184.747 185.04 184.609 
184.862 184.412 184.657 184.163 184.347 184.811 184.815 185.385 185.29 
185.765 185.589 186 185.751 186.079 185.714 185.954 185.532 185.741 
185.316 185.482 185.008 185.108 185.536 185.498 186.165 186.048 186.542 
186.354 186.734 186.557 186.902 186.674 186.928 186.573 186.734 186.323 
186.451 186.035 186.135 185.683 185.756 186.234 187.444 186.889 186.857 
188.406 187.993 187.935 187.356 187.157 189.292 188.903 188.908 188.353 
188.121 187.505 187.271 190.315 189.869 189.967 189.395 189.236 188.518 
188.251 187.62 187.429 191.344 190.898 190.941 190.457 190.319 189.671 
189.351 188.65 188.344 187.754 187.482 192.198 191.815 191.702 191.274 
191.021 190.55 190.159 189.609 189.174 188.61 188.21 187.671 187.279 
192.667 192.494 192.363 191.953 191.639 191.134 190.741 190.236 189.824 
189.312 188.886 188.347 187.907 187.377 186.961 192.627 192.73 192.712 
192.518 192.278 191.81 191.458 190.894 190.547 189.981 189.61 189.027 
188.593 188.012 187.566 187.044 186.635 192.366 192.569 192.647 192.687 
192.528 192.314 191.969 191.582 191.194 190.723 190.299 189.751 189.257 
188.682 188.175 187.64 187.177 186.694 186.268 186.032 186.147 186.471 
187.229 186.296 186.536 187.183 187.552 188.181 186.458 186.62 187.136 
187.458 188.077 188.431 189.044 186.619 186.732 187.19 187.43 188.056 
188.381 189.085 189.394 190.088 186.854 186.919 187.36 187.517 188.12 
188.419 189.166 189.507 190.285 190.556 191.229 187.069 187.189 187.614 
187.72 188.218 188.461 189.115 189.521 190.288 190.711 191.419 191.667 
192.164 186.941 187.262 187.648 187.88 188.266 188.499 188.982 189.356 
190.002 190.529 191.203 191.672 192.135 192.379 192.586 186.419 186.892 
187.208 187.643 187.963 188.354 188.735 189.13 189.633 190.132 190.717 
191.261 191.689 192.094 192.23 192.478 192.455 185.761 186.247 186.531 
187.018 187.317 187.827 188.194 188.71 189.15 189.677 190.168 190.708 
191.115 191.551 191.708 191.981 191.954 192.18 192.149 176.513 177.495 
177.264 177.765 178.567 178.276 178.764 178.484 178.915 179.726 179.395 
179.876 179.535 179.96 179.619 179.984 180.872 180.558 181.039 180.687 
181.092 180.705 181.059 180.678 181.006 181.96 181.668 182.154 181.838 
182.267 181.872 182.223 181.797 182.134 181.725 182.042 183.03 182.751 
183.254 182.949 183.436 183.069 183.482 183.03 183.383 182.913 183.205 
182.743 182.945 184.022 183.82 184.364 184.077 184.581 184.244 184.685 
184.289 184.649 184.194 184.447 183.927 184.035 183.515 183.572 184.805 
184.744 185.33 185.152 185.638 185.353 185.716 185.384 185.66 185.321 
185.518 185.099 185.173 184.629 184.644 184.107 184.224 185.346 185.401 
185.987 185.977 186.458 186.296 186.586 186.291 186.438 186.14 186.256 
185.973 186.062 185.681 185.752 185.259 185.413 184.916 185.211 175.796 
174.956 175.879 176.825 174.02 175.036 176.108 176.976 177.936 173.04 
174.105 175.277 176.265 177.361 178.165 179.126 172.126 173.166 174.418 
175.465 176.684 177.592 178.673 179.403 180.317 171.391 172.343 173.66 
174.695 176.002 176.943 178.117 178.938 179.958 180.607 181.455 170.87 
171.696 173.01 174.022 175.37 176.314 177.503 178.363 179.433 180.207 
181.139 181.737 182.522 170.595 171.247 172.453 173.389 174.711 175.68 
176.856 177.734 178.775 179.614 180.567 181.318 182.139 182.745 183.455 
170.575 171.051 172.112 172.861 174.075 174.987 176.158 177.057 178.103 
178.942 179.885 180.672 181.507 182.223 182.948 183.574 184.203 170.687 
171.074 172.023 172.584 173.656 174.398 175.515 176.362 177.45 178.291 
179.275 180.03 180.88 181.571 182.322 182.983 183.647 184.241 184.788 
171.027 171.985 171.781 172.389 173.072 172.832 173.501 173.263 173.968 
174.292 174.008 174.704 174.437 175.16 174.93 175.735 175.532 175.247 
175.927 175.668 176.404 176.163 176.979 176.78 177.648 176.796 176.476 
177.146 176.882 177.631 177.413 178.249 178.055 178.915 178.706 179.492 
178.191 177.805 178.501 178.162 178.934 178.667 179.505 179.305 180.144 
179.947 180.687 180.441 181.074 179.573 179.23 179.938 179.595 180.361 
180.04 180.827 180.558 181.337 181.123 181.84 181.601 182.212 181.931 
182.488 180.758 180.519 181.207 180.968 181.696 181.432 182.13 181.845 
182.515 182.275 182.954 182.734 183.361 183.078 183.613 183.304 183.802 
181.8 181.611 182.28 182.115 182.814 182.634 183.278 183.038 183.62 
183.382 183.995 183.808 184.424 184.197 184.702 184.401 184.808 184.518 
184.91 182.588 183.996 183.215 183.098 185.427 184.664 184.551 183.765 
183.647 186.763 186.064 185.973 185.223 185.079 184.289 184.1 188.094 
187.4 187.339 186.611 186.484 185.702 185.487 184.675 184.436 189.499 
188.808 188.771 187.996 187.866 187.082 186.89 186.078 185.853 185.023 
184.821 190.715 190.187 190.158 189.433 189.225 188.433 188.191 187.433 
187.202 186.435 186.21 185.426 185.217 191.416 191.147 191.095 190.634 
190.385 189.701 189.35 188.632 188.308 187.636 187.324 186.665 186.361 
185.697 185.409 191.71 191.568 191.496 191.293 191.116 190.67 190.319 
189.683 189.274 188.617 188.216 187.595 187.212 186.637 186.304 185.74 
185.439 191.966 191.789 191.746 191.595 191.53 191.254 190.996 190.507 
190.086 189.488 189.043 188.427 188.017 187.423 187.09 186.544 186.284 
185.744 185.503 182.565 182.978 183.182 183.985 183.283 183.605 184.487 
184.663 185.437 183.403 183.869 184.905 185.202 186.067 186.125 186.814 
183.491 183.993 185.226 185.673 186.752 186.849 187.58 187.486 188.129 
183.715 184.167 185.488 186.044 187.318 187.579 188.373 188.276 188.82 
188.768 189.424 183.947 184.413 185.63 186.252 187.494 188.003 188.813 
188.922 189.358 189.353 189.877 190 190.604 183.96 184.514 185.551 
186.201 187.225 187.895 188.653 189.062 189.518 189.706 190.202 190.377 
190.953 191.056 191.436 183.75 184.36 185.269 185.906 186.736 187.405 
188.095 188.673 189.232 189.669 190.28 190.624 191.267 191.419 191.823 
191.737 191.859 183.47 184.061 184.898 185.497 186.236 186.839 187.503 
188.09 188.721 189.286 189.964 190.521 191.204 191.605 192.055 192.12 
192.258 192.084 192.112 181.748 180.537 181.471 182.084 179.098 180.143 
180.745 181.752 182.325 177.484 178.581 179.179 180.299 180.881 181.9 
182.393 175.849 176.897 177.42 178.606 179.218 180.374 180.923 181.924 
182.432 174.277 175.24 175.627 176.76 177.304 178.577 179.207 180.397 
180.987 182.021 182.628 172.815 173.687 174.023 175 175.456 176.627 
177.242 178.549 179.232 180.481 181.133 182.246 182.867 171.558 172.324 
172.711 173.538 174.015 174.955 175.552 176.667 177.361 178.619 179.321 
180.587 181.213 182.38 182.905 170.515 171.2 171.625 172.371 172.887 
173.704 174.319 175.227 175.906 176.925 177.613 178.752 179.395 180.591 
181.144 182.292 182.737 169.603 170.244 170.676 171.373 171.874 172.643 
173.231 174.09 174.749 175.657 176.313 177.25 177.866 178.872 179.445 
180.521 181.035 182.104 182.525 169.244 169.131 169.569 170.359 169.112 
169.537 170.376 170.76 171.579 169.202 169.615 170.537 170.873 171.738 
172.059 172.943 169.454 169.833 170.886 171.178 172.096 172.321 173.227 
173.528 174.475 169.883 170.202 171.316 171.621 172.572 172.756 173.613 
173.86 174.807 175.12 176.05 170.447 170.681 171.71 172.026 172.942 
173.183 173.991 174.238 175.143 175.466 176.423 176.695 177.573 171.086 
171.234 172.121 172.363 173.206 173.468 174.293 174.574 175.507 175.828 
176.827 177.099 178.011 178.214 179.08 171.705 171.821 172.613 172.765 
173.553 173.752 174.619 174.897 175.903 176.232 177.281 177.554 178.497 
178.683 179.54 179.734 180.612 172.246 172.371 173.13 173.255 174.027 
174.173 175.041 175.287 176.3 176.639 177.686 178 178.939 179.163 
180.003 180.194 181.027 181.252 182.096 172.784 173.995 173.478 173.699 
175.41 174.794 175.015 174.437 174.64 176.989 176.298 176.539 175.871 
176.113 175.46 175.715 178.727 177.967 178.235 177.498 177.777 177.06 
177.363 176.671 177.011 180.508 179.764 180.037 179.268 179.548 178.794 
179.093 178.379 178.71 178.035 178.371 182.085 181.477 181.747 181.051 
181.316 180.581 180.866 180.131 180.431 179.724 180.022 179.345 179.599 
183.41 182.93 183.234 182.658 182.938 182.291 182.596 181.905 182.221 
181.482 181.769 181.016 181.258 180.518 180.697 184.578 184.185 184.534 
184.061 184.368 183.821 184.124 183.546 183.864 183.23 183.506 182.784 
183 182.228 182.402 181.612 181.751 185.579 185.286 185.639 185.279 
185.576 185.137 185.393 184.927 185.192 184.707 184.946 184.379 184.549 
183.892 184.024 183.307 183.43 182.664 182.784 183.607 184.218 184.275 
184.975 184.773 184.844 185.519 185.593 186.257 185.285 185.377 186.074 
186.145 186.838 186.874 187.518 185.683 185.852 186.604 186.734 187.509 
187.54 188.234 188.175 188.791 185.903 186.154 186.904 187.185 187.993 
188.187 188.894 188.909 189.517 189.458 190.067 186.064 186.309 186.989 
187.332 188.098 188.478 189.161 189.383 189.918 190.037 190.614 190.703 
191.283 186.232 186.465 187.095 187.373 188.094 188.475 189.207 189.512 
190.078 190.262 190.792 191.025 191.596 191.765 192.136 186.284 186.581 
187.191 187.471 188.151 188.495 189.261 189.592 190.271 190.452 191.005 
191.162 191.702 191.903 192.287 192.35 192.407 186.18 186.532 187.103 
187.465 188.075 188.48 189.156 189.593 190.242 190.589 191.117 191.353 
191.817 192.01 192.377 192.453 192.566 192.457 192.336 161.878 162.094 
161.736 161.399 162.778 162.182 161.818 161.392 161.236 163.732 163.038 
162.65 162.027 161.817 161.451 161.602 164.747 164.048 163.705 163.001 
162.778 162.217 162.31 162.06 162.479 165.913 165.149 164.948 164.203 
164.116 163.394 163.502 162.979 163.354 163.104 163.622 167.337 166.486 
166.376 165.602 165.65 164.909 165.064 164.379 164.681 164.178 164.616 
164.311 164.818 168.858 168.025 167.917 167.118 167.13 166.435 166.537 
165.908 166.088 165.546 165.85 165.422 165.828 165.529 166.035 170.281 
169.55 169.49 168.69 168.651 167.89 167.915 167.256 167.365 166.826 
167.066 166.631 166.992 166.616 167.054 166.77 167.289 171.557 170.938 
170.96 170.242 170.252 169.461 169.508 168.722 168.863 168.165 168.436 
167.876 168.264 167.814 168.25 167.865 168.321 168.028 168.513 161.84 
161.304 161.604 161.828 161.113 161.174 161.386 161.739 162.145 161.551 
161.277 161.479 161.526 162 162.264 162.773 162.477 162.007 162.223 
161.969 162.459 162.442 163.049 163.116 163.684 163.568 163.047 163.227 
162.872 163.308 163.148 163.748 163.665 164.254 164.205 164.836 164.749 
164.187 164.354 163.915 164.283 164.03 164.566 164.444 164.997 164.888 
165.437 165.432 166.103 166.016 165.441 165.69 165.164 165.551 165.109 
165.598 165.308 165.848 165.659 166.183 166.069 166.648 166.687 167.351 
167.283 166.745 167.045 166.563 166.978 166.491 166.93 166.478 166.96 
166.619 167.14 166.893 167.437 167.306 167.913 167.919 168.553 168.472 
167.981 168.233 167.834 168.195 167.82 168.185 167.781 168.159 167.789 
168.239 167.931 168.419 168.172 168.692 168.565 169.15 169.131 169.739 
162.209 162.223 162.367 162.715 162.509 162.499 162.762 162.833 163.157 
163.011 162.866 163.107 163.012 163.291 163.365 163.982 163.798 163.468 
163.73 163.514 163.909 163.781 164.475 164.603 165.683 164.982 164.465 
164.791 164.386 164.925 164.664 165.482 165.421 166.516 166.649 167.818 
166.343 165.818 166.218 165.707 166.262 165.884 166.682 166.54 167.547 
167.583 168.616 168.718 169.673 167.576 167.151 167.531 167.123 167.572 
167.221 167.826 167.664 168.482 168.507 169.404 169.478 170.355 170.448 
171.358 168.711 168.303 168.61 168.263 168.625 168.342 168.815 168.65 
169.32 169.314 170.151 170.216 171.111 171.176 172.112 172.2 173.174 
169.886 169.438 169.739 169.32 169.699 169.351 169.871 169.617 170.311 
170.179 171.042 171.02 171.978 172.004 172.981 173.025 173.984 174.045 
174.936 181.281 180.205 180.539 180.072 178.982 179.376 178.843 179.204 
178.625 177.574 178.022 177.433 177.86 177.233 177.637 177.013 176.169 
176.56 175.936 176.361 175.726 176.172 175.577 176.015 175.438 174.874 
175.19 174.544 174.898 174.267 174.67 174.102 174.563 174.042 174.479 
173.927 173.583 173.88 173.208 173.556 172.938 173.295 172.711 173.116 
172.587 173.052 172.534 172.972 172.451 172.351 172.578 171.892 172.226 
171.652 172.016 171.454 171.792 171.237 171.626 171.13 171.572 171.112 
171.553 171.152 171.309 171.434 170.755 170.987 170.447 170.778 170.288 
170.6 170.088 170.387 169.934 170.287 169.906 170.289 169.943 170.365 
170.088 170.42 170.497 169.834 169.966 169.41 169.659 169.189 169.486 
169.024 169.314 168.899 169.219 168.882 169.216 168.893 169.237 168.938 
169.367 169.153 
POINT_DATA 1002
SCALARS Distance double
LOOKUP_TABLE default
173.226 172.124 171.93 173.159 171.87 174.553 173.251 172.008 174.666 
176.054 173.506 172.284 174.917 176.336 177.698 173.844 172.653 175.269 
176.747 178.142 179.498 174.331 173.162 175.734 177.265 178.689 180.013 
181.221 175.032 173.821 176.393 177.879 179.266 180.5 181.638 182.634 
175.803 174.562 177.116 178.489 179.782 180.927 181.996 182.97 183.841 
176.501 175.303 177.71 178.948 180.158 181.268 182.337 183.328 184.17 
184.934 177.109 175.987 178.192 179.293 180.444 181.541 182.603 183.64 
184.505 185.201 185.841 170.936 170.74 169.641 169.483 168.187 170.704 
168.05 166.681 169.452 170.838 166.64 165.425 168.046 169.55 171.117 
165.503 164.431 166.748 168.2 169.854 171.536 164.444 163.44 165.606 
166.981 168.598 170.346 172.075 163.44 162.55 164.53 165.858 167.428 
169.183 170.961 172.747 162.843 162.084 163.83 165.024 166.423 168.114 
169.963 171.756 173.545 162.704 162.075 163.603 164.7 165.857 167.268 
169.091 170.965 172.676 174.364 162.584 163.291 163.013 163.907 163.523 
164.398 164.815 164.791 165.292 165.602 166.439 166.873 166.463 166.62 
166.794 168.424 168.894 168.087 167.936 168.036 168.459 170.23 170.556 
169.909 169.632 169.63 169.997 170.504 172.03 172.297 171.782 171.533 
171.423 171.612 171.983 172.334 173.93 174.142 173.705 173.46 173.263 
173.22 173.37 173.653 173.993 175.627 175.756 175.442 175.2 174.969 
174.823 174.811 174.982 175.303 175.664 177.341 177.099 178.642 176.766 
178.469 179.771 176.445 178.131 179.566 180.807 176.268 177.709 179.129 
180.588 181.982 176.28 177.429 178.595 180.138 181.85 183.144 176.465 
177.488 178.397 179.693 181.458 182.931 183.847 176.734 177.795 178.686 
179.709 181.134 182.498 183.404 184.22 176.948 178.084 179.085 180.058 
181.177 182.279 183.032 183.732 184.765 177.059 178.229 179.304 180.311 
181.326 182.338 183.074 183.598 184.399 185.562 178.422 179.662 179.471 
180.843 180.804 180.644 182.021 182.121 182.09 181.832 183.197 183.281 
183.364 183.203 182.9 184.138 184.303 184.423 184.365 184.165 183.952 
184.779 185.162 185.402 185.457 185.302 185.124 184.9 185.447 185.931 
186.205 186.397 186.388 186.175 185.928 185.621 186.281 186.767 186.93 
187.071 187.239 187.161 186.87 186.559 186.229 186.862 187.525 187.949 
188.507 188.765 187.775 189.441 189.672 188.778 187.813 190.496 190.779 
189.969 188.966 187.978 191.421 191.835 190.911 190.081 189.01 188.048 
192.193 192.567 191.495 190.661 189.739 188.777 187.807 192.725 192.712 
192.175 191.252 190.314 189.425 188.459 187.458 192.758 192.415 192.657 
192.007 191.122 190.209 189.2 188.123 187.119 192.538 192.148 192.65 
192.282 191.622 190.842 189.849 188.726 187.679 186.737 185.674 186.879 
185.89 186.84 186.157 187.832 186.865 186.353 187.703 188.698 186.981 
186.527 187.725 188.744 189.816 187.253 186.788 187.849 188.791 189.966 
191.077 187.532 186.892 188.062 188.747 189.81 191.092 192.092 187.367 
186.569 188.049 188.69 189.512 190.687 191.834 192.482 186.745 185.946 
187.517 188.327 189.19 190.2 191.267 191.968 192.242 186.054 185.283 
186.797 187.641 188.617 189.645 190.661 191.42 191.738 191.885 176.726 
178.011 177.752 179.068 178.883 179.217 180.239 180.06 180.325 180.342 
181.381 181.18 181.502 181.455 181.387 182.448 182.257 182.639 182.666 
182.553 182.466 183.552 183.286 183.766 183.907 183.875 183.723 183.428 
184.626 184.158 184.917 185.063 185.088 184.988 184.633 184.046 185.45 
184.81 185.917 186.082 186.007 185.892 185.68 185.21 184.678 174.912 
176.003 173.958 175.15 172.953 177.178 174.214 171.956 176.472 178.438 
173.332 171.094 175.713 177.871 179.714 172.607 170.476 175.045 177.251 
179.232 180.932 172.01 170.128 174.416 176.651 178.61 180.461 182.028 
171.606 170.053 173.744 175.975 177.945 179.774 181.47 182.924 171.496 
170.175 173.236 175.246 177.255 179.112 180.775 182.28 183.644 171.552 
170.334 173.022 174.713 176.588 178.508 180.208 181.662 183.027 184.272 