# vtk DataFile Version 4.0
vtk output
ASCII
DATASET POLYDATA
POINTS 1002 float
-118.167 -112.426 50.8508 -117.818 -111.432 49.9532 -117.35 -111.547 50.3605 
-117.666 -112.681 51.3233 -116.929 -111.708 50.9143 -118.444 -113.762 51.7307 
-117.204 -113.083 51.8712 -116.449 -112.065 51.4443 -117.866 -114.198 52.1995 
-118.572 -115.264 52.6971 -116.702 -113.67 52.3876 -115.846 -112.689 51.8561 
-117.368 -114.703 52.8357 -117.939 -115.713 53.3388 -118.596 -116.515 54.1371 
-116.13 -114.259 52.9479 -115.267 -113.367 52.3653 -116.889 -115.165 53.6546 
-117.405 -116.131 54.3 -117.951 -116.996 55.0622 -118.62 -117.699 55.9722 
-115.594 -114.703 53.7552 -114.865 -113.909 53.1379 -116.346 -115.526 54.6041 
-116.865 -116.562 55.3904 -117.319 -117.593 56.0952 -117.958 -118.437 56.8907 
-118.601 -119.133 57.693 -115.157 -115.189 54.779 -114.541 -114.439 54.0308 
-115.789 -116.01 55.6173 -116.252 -117.168 56.3453 -116.622 -118.37 56.9679 
-117.202 -119.28 57.7096 -117.883 -119.965 58.55 -118.385 -120.51 59.3065 
-114.782 -115.826 55.8416 -114.179 -115.061 54.9357 -115.327 -116.704 56.6706 
-115.694 -117.929 57.2707 -115.955 -119.22 57.8031 -116.401 -120.125 58.5422 
-117.036 -120.763 59.4534 -117.594 -121.303 60.2768 -117.993 -121.746 60.9114 
-114.454 -116.472 56.8491 -113.846 -115.683 55.861 -114.96 -117.393 57.7068 
-115.258 -118.575 58.3106 -115.423 -119.861 58.8797 -115.713 -120.824 59.6414 
-116.18 -121.522 60.5024 -116.677 -122.183 61.2396 -117.156 -122.724 61.7763 
-117.609 -123.109 62.1935 -114.155 -117.054 57.7395 -113.605 -116.231 56.7579 
-114.574 -118.009 58.5989 -114.796 -119.11 59.2678 -114.9 -120.316 59.9645 
-115.101 -121.368 60.8081 -115.44 -122.212 61.5824 -115.79 -123.042 62.1153 
-116.203 -123.771 62.4701 -116.753 -124.232 62.7642 -117.305 -124.475 63.0768 
-117.137 -110.567 49.2585 -116.664 -110.643 49.6733 -116.439 -109.542 48.5557 
-115.919 -109.618 49.0091 -115.77 -108.405 47.9674 -116.209 -110.717 50.2682 
-115.18 -108.476 48.5623 -115.12 -107.302 47.5658 -115.408 -109.661 49.6646 
-115.648 -110.987 50.8469 -114.408 -107.336 48.2314 -114.337 -106.317 47.2016 
-114.612 -108.583 49.2465 -114.823 -109.91 50.3102 -115.007 -111.595 51.3726 
-113.459 -106.386 47.7574 -113.372 -105.551 46.7816 -113.71 -107.594 48.8166 
-113.966 -108.999 49.8071 -114.199 -110.51 50.9572 -114.508 -112.311 52.0345 
-112.487 -105.757 47.3943 -112.494 -104.924 46.6189 -112.661 -106.791 48.4152 
-112.929 -108.249 49.3115 -113.255 -109.685 50.4196 -113.726 -111.203 51.7092 
-114.199 -112.941 52.7966 -111.777 -105.212 47.5293 -111.892 -104.143 46.9272 
-111.779 -106.128 48.4211 -111.935 -107.427 49.1887 -112.23 -108.947 50.0038 
-112.775 -110.34 51.2484 -113.418 -111.932 52.4514 -113.861 -113.637 53.5339 
-111.237 -104.496 47.9585 -111.441 -103.28 47.4535 -111.14 -105.432 48.7209 
-111.242 -106.496 49.4444 -111.493 -107.954 50.0458 -111.938 -109.497 50.9818 
-112.562 -111.119 52.1524 -113.077 -112.878 53.1649 -113.446 -114.437 54.3349 
-110.681 -103.796 48.3657 -111.032 -102.717 47.9661 -110.507 -104.72 48.9764 
-110.636 -105.69 49.6704 -110.967 -106.961 50.2742 -111.393 -108.466 51.0107 
-111.915 -110.211 52.0371 -112.377 -112.167 53.0187 -112.716 -113.89 53.9706 
-113.121 -115.163 55.2477 -110.315 -103.093 48.7383 -109.887 -103.933 49.1486 
-109.631 -103.438 49.759 -109.331 -104.345 50.2177 -109.455 -103.952 51.0971 
-109.878 -104.936 49.7697 -109.306 -105.283 51.7337 -109.831 -104.882 52.527 
-109.483 -105.781 50.9088 -110.251 -106.232 50.4547 -109.687 -106.364 53.3346 
-110.376 -105.974 53.9038 -109.415 -106.945 52.4668 -109.953 -107.237 51.5924 
-110.795 -107.604 51.1635 -110.474 -107.291 54.6735 -111.103 -107.133 55.3163 
-109.936 -107.758 53.9232 -110.069 -108.096 52.98 -110.775 -108.409 52.3256 
-111.435 -109.211 52.1069 -111.73 -108.645 55.7473 -112.211 -108.722 56.4335 
-111.2 -108.754 55.0449 -111.039 -108.954 54.2654 -111.313 -109.335 53.6089 
-111.661 -110.268 53.2926 -111.957 -111.414 53.1422 -112.971 -110.562 56.5299 
-113.376 -110.628 56.9729 -112.514 -110.552 56.0316 -112.258 -110.629 55.5033 
-112.205 -110.912 54.9921 -112.112 -111.709 54.5992 -112.04 -112.814 54.3197 
-112.232 -113.575 54.0906 -113.706 -112.382 57.2632 -114.135 -112.352 57.4433 
-113.218 -112.473 57.0694 -112.839 -112.658 56.839 -112.6 -112.945 56.5372 
-112.333 -113.45 56.1519 -112.113 -114.171 55.7449 -112.185 -114.76 55.4202 
-112.574 -115.033 55.2496 -113.954 -113.823 58.3301 -114.412 -113.748 58.3646 
-113.429 -113.951 58.3304 -112.925 -114.19 58.2902 -112.506 -114.544 58.1358 
-112.164 -114.96 57.8264 -112.006 -115.394 57.3923 -112.174 -115.751 56.988 
-112.596 -115.963 56.7601 -113.105 -116.097 56.711 -113.691 -117.344 58.2379 
-113.212 -117.234 58.2733 -113.413 -118.843 59.6884 -112.673 -117.106 58.388 
-112.966 -118.83 59.8993 -112.741 -120.629 61.1953 -112.14 -116.912 58.6786 
-112.499 -118.728 60.1552 -112.386 -120.703 61.6508 -112.108 -122.361 62.9361 
-111.865 -116.569 59.1134 -112.038 -118.438 60.4931 -112.049 -120.622 62.0247 
-111.724 -122.471 63.5233 -111.544 -123.909 64.7395 -112.026 -116.115 59.5311 
-111.829 -117.925 60.8958 -111.706 -120.216 62.354 -111.285 -122.354 63.9084 
-110.83 -123.988 65.2444 -110.579 -125.261 66.2473 -112.476 -115.696 59.8173 
-112.039 -117.408 61.2946 -111.593 -119.6 62.7113 -110.967 -121.84 64.2463 
-110.24 -123.636 65.6614 -109.701 -125.098 66.6739 -109.463 -126.21 67.4772 
-113.012 -115.413 59.9218 -112.503 -117.079 61.5743 -111.861 -119.118 63.0357 
-111.071 -121.26 64.5358 -110.194 -123.004 66.0621 -109.384 -124.408 67.2245 
-108.911 -125.698 68.0206 -108.828 -126.761 68.7648 -113.566 -115.251 59.8618 
-113.034 -116.885 61.6083 -112.366 -118.785 63.1635 -111.575 -120.808 64.6398 
-110.721 -122.548 66.2141 -109.788 -123.793 67.6226 -109.013 -124.879 68.6484 
-108.669 -126.051 69.4636 -108.652 -127.188 70.2134 -114.09 -115.13 59.7605 
-113.577 -116.71 61.444 -112.947 -118.467 63.0227 -112.223 -120.316 64.5092 
-111.465 -122.104 66.0822 -110.577 -123.476 67.6154 -109.612 -124.379 68.9092 
-108.943 -125.26 69.9758 -108.685 -126.377 70.873 -108.631 -127.57 71.5599 
-114.012 -118.416 59.1665 -113.373 -120.156 60.5125 -114.14 -119.58 59.9201 
-112.597 -122.053 62.0385 -113.329 -121.513 61.2683 -114.19 -120.819 60.6966 
-112.13 -123.748 63.8937 -112.689 -123.507 62.8688 -113.455 -122.866 62.1705 
-114.354 -122.015 61.6527 -111.48 -125.127 65.7747 -112.217 -124.989 64.8391 
-112.901 -124.701 63.7736 -113.782 -123.946 63.0771 -114.697 -123.011 62.4814 
-110.325 -126.227 67.2882 -111.317 -125.957 66.8559 -112.244 -125.73 65.8583 
-113.205 -125.366 64.6489 -114.182 -124.726 63.6961 -115.026 -123.931 62.9322 
-109.365 -127.071 68.5248 -110.265 -126.9 68.3436 -111.36 -126.564 67.865 
-112.511 -126.195 66.8397 -113.602 -125.798 65.4481 -114.523 -125.404 64.1401 
-115.357 -124.767 63.1927 -108.933 -127.781 69.8538 -109.605 -127.925 69.4506 
-110.627 -127.73 69.0278 -111.805 -127.259 68.5297 -112.975 -126.599 67.6445 
-114.04 -126.159 66.1518 -115.001 -125.911 64.5543 -115.92 -125.305 63.4504 
-108.74 -128.403 71.2516 -109.214 -128.841 70.6684 -110.098 -128.845 69.9006 
-111.199 -128.435 69.2884 -112.331 -127.606 68.93 -113.488 -126.775 68.1605 
-114.646 -126.412 66.5779 -115.716 -126.189 64.8742 -116.617 -125.536 63.7421 
-108.685 -128.472 72.5362 -108.869 -129.355 72.1395 -109.059 -129.121 73.1837 
-109.452 -129.879 72.7326 -110.121 -129.14 73.5218 -109.541 -129.658 71.3104 
-110.786 -129.654 73.0393 -111.646 -128.538 73.6224 -110.348 -129.863 71.837 
-110.602 -129.34 70.2555 -112.427 -128.967 72.9373 -112.981 -127.815 73.3639 
-111.815 -129.528 72.1687 -111.518 -129.191 70.7286 -111.764 -128.52 69.5693 
-113.812 -128.335 72.4579 -114.212 -127.475 72.8919 -113.523 -129.157 71.991 
-113.092 -129.049 71.0317 -112.799 -128.315 69.9168 -112.998 -127.519 69.1948 
-115.158 -127.924 72.1109 -115.819 -127.454 72.6362 -114.987 -128.682 71.5667 
-114.882 -129.068 70.8512 -114.464 -128.522 69.9611 -114.175 -127.597 69.1743 
-114.347 -126.864 68.1782 -116.725 -127.584 72.0075 -117.578 -127.29 72.4971 
-116.271 -127.965 71.3485 -116.244 -128.532 70.5536 -116.053 -128.554 69.7104 
-115.601 -127.839 68.8794 -115.459 -127.064 67.8533 -115.627 -126.585 66.4124 
-118.315 -127.168 71.6564 -119.034 -126.832 72.0431 -117.65 -127.317 71.0316 
-117.34 -127.661 70.2226 -117.172 -127.926 69.3747 -116.767 -127.573 68.5524 
-116.437 -126.937 67.5488 -116.512 -126.507 66.2226 -116.66 -126.137 64.8325 
-119.706 -126.732 70.9038 -120.133 -126.323 71.2521 -119.128 -126.891 70.3193 
-118.609 -127.063 69.5771 -118.261 -127.267 68.8039 -117.862 -127.05 68.0846 
-117.394 -126.457 67.2712 -117.224 -126.034 66.1748 -117.348 -125.759 64.9378 
-117.406 -125.261 63.8706 -108.777 -127.011 72.2868 -108.993 -127.707 73.1562 
-109.234 -126.219 72.6787 -109.697 -126.627 73.4649 -110.043 -125.503 72.7096 
-109.687 -128.049 73.6802 -110.628 -125.748 73.496 -111.11 -125.015 72.4339 
-110.599 -126.826 74.0568 -110.978 -127.864 74.0495 -111.639 -125.066 73.1817 
-112.268 -124.498 71.9202 -111.5 -125.973 74.1652 -111.824 -126.843 74.6013 
-112.356 -127.377 74.2245 -112.759 -124.249 72.5611 -113.432 -123.891 71.1491 
-112.468 -125.092 73.7027 -112.66 -126.157 74.5971 -113.067 -126.755 74.7112 
-113.572 -127.033 73.8951 -113.997 -123.58 71.649 -114.593 -123.402 70.0411 
-113.637 -124.07 72.87 -113.738 -125.101 73.8215 -114.087 -126.056 74.4102 
-114.558 -126.55 74.1675 -115.171 -126.989 73.3594 -115.227 -123.158 70.406 
-115.656 -122.861 68.7838 -114.883 -123.425 71.8293 -114.939 -124.019 72.8183 
-115.321 -124.846 73.5071 -115.848 -125.555 73.7998 -116.505 -126.217 73.5534 
-117.13 -126.899 73.0442 -116.252 -122.537 69.0724 -116.484 -122.037 67.6956 
-116.015 -122.904 70.5467 -116.045 -123.319 71.73 -116.405 -123.844 72.4887 
-116.946 -124.392 72.9662 -117.619 -125.009 73.1711 -118.294 -125.786 73.047 
-118.757 -126.488 72.6547 -116.994 -121.667 67.8993 -117.087 -121.083 66.8192 
-116.902 -122.142 69.1853 -116.975 -122.601 70.4413 -117.283 -123.106 71.3471 
[...]
CELL_DATA 2000
SCALARS Distance double
LOOKUP_TABLE default
169.031 168.969 169.405 170.28 169.022 169.425 170.317 170.736 171.652 
169.154 169.552 170.486 170.849 171.747 172.131 173.008 169.325 169.72 
170.691 171.058 171.961 172.287 173.159 173.496 174.365 169.569 169.912 
170.868 171.252 172.185 172.526 173.42 173.726 174.638 174.94 175.843 
169.936 170.202 171.139 171.462 172.434 172.774 173.723 174.029 174.962 
175.265 176.187 176.463 177.285 170.402 170.632 171.596 171.837 172.839 
173.113 174.107 174.378 175.315 175.593 176.495 176.786 177.611 177.834 
178.521 170.903 171.141 172.138 172.364 173.356 173.59 174.565 174.808 
175.728 175.964 176.834 177.087 177.915 178.147 178.879 179.029 179.657 
171.4 171.651 172.636 172.886 173.823 174.068 174.967 175.23 176.109 
176.364 177.206 177.44 178.242 178.463 179.204 179.387 180.043 180.164 
180.743 168.229 166.935 167.761 168.127 165.557 166.42 166.793 167.673 
168.112 164.201 165.033 165.39 166.287 166.707 167.653 168.165 162.878 
163.677 164.003 164.884 165.29 166.216 166.721 167.724 168.319 161.54 
162.311 162.601 163.495 163.913 164.827 165.327 166.296 166.93 167.949 
168.613 160.352 161.006 161.271 162.096 162.535 163.459 163.975 164.93 
165.555 166.587 167.315 168.322 169.011 159.444 159.979 160.253 160.891 
161.308 162.127 162.662 163.586 164.21 165.224 165.968 167.028 167.79 
168.767 169.461 158.684 159.19 159.475 160.003 160.353 161.02 161.52 
162.343 162.984 163.927 164.705 165.733 166.565 167.563 168.327 169.249 
169.952 158.038 158.471 158.721 159.219 159.516 160.121 160.576 161.308 
161.937 162.791 163.593 164.564 165.469 166.443 167.288 168.174 168.918 
169.774 170.475 157.866 157.808 157.985 158.407 158.116 158.007 158.392 
158.615 159.225 159.132 158.654 159.04 158.887 159.536 159.65 160.395 
160.584 159.954 160.305 159.869 160.43 160.25 160.976 161.007 161.817 
162.201 161.493 161.786 161.229 161.658 161.295 161.909 161.772 162.597 
162.611 163.533 164.197 163.296 163.642 162.841 163.288 162.662 163.285 
162.896 163.768 163.607 164.626 164.538 165.503 166.446 165.504 165.928 
164.967 165.495 164.616 165.312 164.606 165.493 165.044 166.056 165.799 
166.75 166.542 167.354 168.434 167.677 168.059 167.251 167.719 166.922 
167.527 166.794 167.509 166.912 167.7 167.293 168.082 167.796 168.513 
168.279 168.957 170.004 169.42 169.717 169.112 169.456 168.87 169.293 
168.746 169.222 168.717 169.23 168.81 169.385 169.064 169.685 169.421 
170.066 169.836 170.497 171.442 171.035 171.751 172.771 170.65 171.355 
172.437 173.138 174.14 170.336 170.98 172.082 172.834 173.964 174.569 
175.546 170.162 170.693 171.742 172.487 173.697 174.422 175.508 176.026 
176.953 170.145 170.572 171.52 172.16 173.33 174.123 175.261 175.921 
176.825 177.338 178.076 170.229 170.606 171.513 172.001 173.069 173.761 
174.869 175.578 176.456 177.044 177.69 178.209 178.721 170.389 170.739 
171.674 172.072 173.089 173.6 174.657 175.236 176.13 176.642 177.276 
177.735 178.237 178.704 179.178 170.618 170.946 171.894 172.272 173.272 
173.693 174.707 175.162 176.093 176.483 177.183 177.463 177.981 178.295 
178.816 179.232 179.808 170.871 171.189 172.108 172.485 173.442 173.852 
174.8 175.234 176.154 176.558 177.331 177.565 178.098 178.234 178.703 
178.971 179.54 179.961 180.579 172.002 173.313 172.852 173.235 174.599 
174.139 174.489 174.047 174.386 175.945 175.427 175.763 175.286 175.633 
175.176 175.512 177.376 176.849 177.227 176.659 177.043 176.495 176.872 
176.348 176.681 178.538 178.224 178.626 178.156 178.523 177.978 178.334 
177.777 178.11 177.54 177.81 179.188 179.137 179.525 179.327 179.635 
179.3 179.57 179.149 179.414 178.933 179.176 178.623 178.821 179.654 
179.646 180.078 180.007 180.368 180.194 180.492 180.204 180.452 180.084 
180.309 179.882 180.081 179.573 179.734 180.315 180.215 180.73 180.601 
181.073 180.911 181.331 181.087 181.399 181.052 181.277 180.902 181.114 
180.721 180.912 180.434 180.56 181.112 181.001 181.559 181.388 181.876 
181.69 182.11 181.912 182.217 181.948 182.135 181.81 181.983 181.663 
181.868 181.512 181.672 181.199 181.261 181.722 182.748 182.263 182.211 
183.634 183.254 183.23 182.671 182.507 184.323 184.081 184.074 183.603 
183.385 182.848 182.636 184.725 184.667 184.74 184.389 184.128 183.596 
183.277 182.854 182.633 184.978 184.964 185.204 185.039 184.946 184.387 
184.016 183.439 183.158 182.774 182.546 185.518 185.284 185.548 185.482 
185.663 185.293 185.081 184.363 184.015 183.387 183.152 182.695 182.457 
186.353 185.946 185.991 185.826 185.991 185.895 185.851 185.407 185.027 
184.352 183.96 183.39 183.119 182.644 182.376 187 186.682 186.517 
186.232 186.151 186.075 186.006 185.879 185.52 185.111 184.555 184.079 
183.64 183.252 182.929 182.528 182.181 187.263 187.12 186.935 186.65 
186.427 186.213 186.053 185.922 185.629 185.354 184.808 184.417 183.874 
183.573 183.184 182.928 182.556 182.21 181.764 181.541 181.46 181.855 
182.522 181.352 181.711 182.359 182.773 183.379 181.41 181.633 182.229 
182.595 183.215 183.584 184.08 181.534 181.696 182.225 182.535 183.175 
183.489 183.991 184.214 184.515 181.547 181.714 182.126 182.476 183.122 
183.511 184.08 184.247 184.55 184.596 184.819 181.521 181.661 181.969 
182.268 182.83 183.333 183.977 184.335 184.754 184.802 185.106 185.078 
185.47 181.454 181.635 181.932 182.128 182.576 182.979 183.587 184.081 
184.616 184.931 185.353 185.479 185.942 185.961 186.416 181.159 181.486 
181.796 182.06 182.44 182.76 183.258 183.682 184.205 184.644 185.116 
185.511 185.975 186.28 186.696 186.813 187.068 180.64 181.066 181.366 
181.768 182.11 182.517 182.933 183.355 183.797 184.223 184.646 185.101 
185.512 185.993 186.35 186.748 186.966 187.169 187.244 171.302 172.39 
172.074 172.562 173.512 173.211 173.729 173.397 173.901 174.613 174.35 
174.902 174.583 175.09 174.74 175.23 175.727 175.475 176.08 175.769 
176.289 175.93 176.428 176.078 176.568 176.874 176.621 177.248 176.958 
177.493 177.135 177.615 177.267 177.736 177.387 177.745 177.973 177.752 
178.356 178.104 178.641 178.321 178.761 178.413 178.783 178.454 178.713 
178.353 178.472 178.934 178.779 179.353 179.151 179.669 179.41 179.826 
179.497 179.772 179.406 179.556 179.192 179.272 178.911 179.006 179.697 
179.634 180.175 180.049 180.501 180.323 180.681 180.442 180.668 180.326 
180.417 180.013 180.089 179.711 179.881 179.536 179.801 180.24 180.268 
180.761 180.73 181.095 180.993 181.237 181.104 181.274 181.077 181.17 
180.852 180.93 180.572 180.77 180.458 180.788 180.477 180.834 170.704 
170.076 170.884 171.797 169.3 170.278 171.326 172.038 172.932 168.343 
169.506 170.765 171.608 172.553 173.166 174.01 167.306 168.507 169.907 
171.002 172.094 172.803 173.635 174.228 175.083 166.574 167.51 168.843 
170.039 171.302 172.262 173.208 173.872 174.726 175.344 176.24 166.425 
166.982 168.139 169.064 170.352 171.394 172.525 173.379 174.323 175.007 
175.91 176.526 177.381 166.595 166.987 168.002 168.597 169.74 170.57 
171.732 172.645 173.702 174.526 175.464 176.164 177.013 177.614 178.362 
166.731 167.124 168.035 168.521 169.483 170.107 171.127 171.922 172.976 
173.843 174.837 175.634 176.507 177.186 177.938 178.514 179.149 166.854 
167.202 168.034 168.474 169.327 169.85 170.74 171.393 172.367 173.155 
174.166 174.981 175.914 176.643 177.437 178.053 178.704 179.225 179.744 
167.235 168.235 167.922 168.373 169.374 168.997 169.425 169.114 169.627 
170.6 170.211 170.673 170.265 170.754 170.428 171.017 171.824 171.461 
171.973 171.574 172.079 171.668 172.244 171.919 172.616 173.066 172.694 
173.213 172.854 173.386 173.009 173.587 173.233 173.917 173.625 174.386 
174.345 173.966 174.492 174.11 174.652 174.286 174.876 174.553 175.237 
174.955 175.694 175.417 176.13 175.567 175.24 175.786 175.418 175.959 
175.575 176.154 175.82 176.497 176.236 176.965 176.705 177.373 177.075 
177.652 176.685 176.416 176.964 176.662 177.192 176.858 177.411 177.091 
177.729 177.469 178.161 177.918 178.534 178.249 178.745 178.446 178.882 
177.725 177.491 178.027 177.769 178.285 178.011 178.55 178.284 178.892 
178.656 179.292 179.057 179.602 179.323 179.727 179.435 179.775 179.521 
179.864 178.465 179.661 178.974 178.77 180.856 180.18 180.001 179.278 
179.051 182.123 181.423 181.324 180.579 180.404 179.599 179.374 183.503 
182.764 182.698 181.96 181.846 181.036 180.84 179.983 179.767 184.833 
184.137 183.995 183.295 183.13 182.419 182.208 181.439 181.194 180.379 
180.14 185.836 185.301 185.067 184.457 184.172 183.546 183.252 182.626 
182.322 181.66 181.342 180.637 180.334 186.451 186.073 185.808 185.336 
185.009 184.455 184.107 183.531 183.192 182.61 182.252 181.646 181.277 
180.67 180.343 186.88 186.577 186.346 185.954 185.656 185.183 184.839 
184.317 183.97 183.421 183.065 182.477 182.102 181.509 181.171 180.613 
180.337 187.2 186.995 186.836 186.489 186.222 185.78 185.428 184.96 
184.589 184.121 183.752 183.244 182.867 182.313 181.972 181.424 181.159 
180.631 180.411 178.49 178.953 179.069 179.731 179.474 179.602 180.317 
180.33 180.936 179.922 180.146 180.927 180.97 181.602 181.555 182.176 
179.986 180.431 181.217 181.489 182.166 182.237 182.882 182.868 183.554 
179.604 180.203 180.894 181.463 182.159 182.59 183.302 183.523 184.242 
184.287 184.931 179.153 179.691 180.318 180.922 181.649 182.317 183.177 
183.73 184.581 184.872 185.563 185.576 186.013 178.89 179.314 179.976 
180.443 181.268 181.87 182.922 183.56 184.63 185.096 185.935 186.11 
186.598 186.488 186.688 178.727 179.12 179.815 180.248 181.147 181.701 
182.846 183.465 184.622 185.147 186.063 186.384 186.937 186.977 187.192 
187.014 187.08 178.557 178.95 179.623 180.095 180.974 181.593 182.672 
183.371 184.401 185.032 185.81 186.315 186.811 187.112 187.318 187.359 
187.376 187.275 187.282 177.744 176.679 177.508 178.137 175.635 176.417 
176.997 177.889 178.576 174.611 175.384 175.884 176.714 177.331 178.302 
178.975 173.385 174.278 174.754 175.586 176.094 177.01 177.608 178.603 
179.104 171.96 172.92 173.418 174.359 174.864 175.767 176.272 177.197 
177.652 178.564 178.846 170.609 171.493 171.987 172.952 173.543 174.514 
175.07 175.924 176.318 177.12 177.412 178.227 178.446 169.396 170.215 
170.694 171.581 172.199 173.195 173.883 174.787 175.245 175.921 176.158 
176.847 177.114 177.899 178.181 168.226 169.029 169.516 170.361 170.946 
171.896 172.607 173.598 174.19 174.933 175.198 175.747 175.947 176.625 
176.957 177.729 178.045 167.15 167.888 168.383 169.208 169.789 170.682 
171.348 172.322 172.974 173.85 174.247 174.851 175.033 175.58 175.845 
176.545 176.907 177.636 177.926 166.754 166.631 167.095 167.985 166.641 
167.059 168.002 168.463 169.443 166.719 167.127 168.117 168.573 169.618 
170.026 171.039 166.817 167.217 168.237 168.729 169.838 170.27 171.306 
171.665 172.626 166.997 167.344 168.372 168.864 170.023 170.505 171.549 
171.917 172.793 173.142 173.886 167.329 167.603 168.614 169.035 170.167 
170.663 171.689 172.093 172.888 173.219 173.865 174.183 174.726 167.779 
168.002 168.968 169.305 170.33 170.771 171.724 172.146 172.903 173.241 
173.862 174.155 174.737 174.99 175.562 168.284 168.472 169.377 169.649 
170.575 170.92 171.795 172.159 172.919 173.242 173.909 174.191 174.842 
175.094 175.75 175.965 176.611 168.812 168.966 169.824 170.048 170.935 
171.191 172.039 172.299 173.073 173.33 174.044 174.301 174.995 175.254 
175.938 176.182 176.83 177.043 177.629 169.385 170.65 170.13 170.415 
172.034 171.489 171.795 171.242 171.538 173.369 172.875 173.195 172.661 
172.933 172.363 172.608 174.678 174.17 174.469 173.989 174.243 173.721 
173.917 173.374 173.578 176.119 175.529 175.798 175.245 175.476 174.953 
175.139 174.624 174.806 174.302 174.512 177.533 176.988 177.256 176.656 
176.874 176.246 176.412 175.827 176.007 175.5 175.719 175.234 175.461 
178.732 178.293 178.573 178.082 178.331 177.724 177.882 177.199 177.334 
176.728 176.936 176.435 176.679 176.19 176.409 179.843 179.425 179.717 
179.304 179.607 179.126 179.35 178.714 178.846 178.151 178.316 177.708 
177.937 177.41 177.629 177.118 177.294 180.927 180.533 180.82 180.422 
180.74 180.339 180.635 180.128 180.332 179.687 179.857 179.181 179.378 
178.742 178.926 178.341 178.486 177.951 178.073 178.639 179.127 179.158 
179.75 179.698 179.753 180.492 180.457 181.209 180.25 180.385 181.223 
181.273 182.12 182.09 182.934 180.721 180.916 181.744 181.914 182.684 
182.838 183.621 183.746 184.513 181.123 181.342 182.117 182.322 182.997 
183.188 183.815 184.094 184.791 185.086 185.751 181.358 181.642 182.351 
182.607 183.26 183.444 184.026 184.206 184.828 185.134 185.821 186.144 
186.698 181.425 181.746 182.368 182.689 183.272 183.587 184.17 184.424 
184.991 185.214 185.789 186.09 186.621 186.908 187.227 181.486 181.773 
182.339 182.612 183.088 183.428 183.948 184.374 184.92 185.282 185.719 
186.003 186.359 186.677 186.962 187.224 187.334 181.565 181.838 182.383 
182.597 183.025 183.244 183.703 184.068 184.629 185.055 185.508 185.811 
186.062 186.326 186.531 186.848 187.03 187.252 187.301 157.699 158.298 
157.745 157.371 159.156 158.516 158.214 157.622 157.63 160.197 159.537 
159.39 158.708 158.752 158.266 158.687 161.424 160.735 160.669 159.984 
159.971 159.421 159.631 159.382 159.822 162.723 162.04 161.993 161.312 
161.243 160.587 160.584 160.178 160.404 160.297 160.713 163.999 163.319 
163.294 162.651 162.672 161.946 161.963 161.256 161.443 160.997 161.458 
161.281 161.919 165.343 164.616 164.602 163.959 164.088 163.444 163.629 
162.874 163.129 162.405 162.865 162.365 163.016 162.747 163.454 166.75 
166.022 166.025 165.332 165.463 164.861 165.103 164.514 164.804 164.173 
164.536 163.953 164.434 163.997 164.551 164.276 164.832 168.085 167.434 
167.479 166.799 166.911 166.268 166.462 165.899 166.16 165.653 165.963 
165.476 165.833 165.374 165.774 165.388 165.826 165.546 166.01 157.421 
157.075 157.172 157.285 157.318 157.015 157.137 157.311 157.769 158.462 
157.73 157.763 157.473 157.967 158.089 158.693 159.78 159.116 159.121 
158.499 158.844 158.601 159.242 159.213 159.823 160.773 160.314 160.42 
159.89 160.116 159.69 160.176 159.97 160.59 160.472 161.086 161.946 
161.367 161.573 161.085 161.368 160.929 161.312 160.984 161.489 161.3 
161.868 161.772 162.372 163.425 162.745 162.951 162.357 162.684 162.183 
162.572 162.14 162.564 162.24 162.733 162.549 163.096 163.015 163.59 
164.78 164.196 164.352 163.787 164.054 163.543 163.895 163.424 163.802 
163.374 163.801 163.483 163.998 163.795 164.352 164.229 164.802 165.947 
165.431 165.569 165.075 165.295 164.838 165.143 164.711 165.058 164.62 
164.996 164.605 165.064 164.775 165.307 165.088 165.633 165.471 166.025 
157.561 157.529 157.555 157.683 158.016 157.801 157.952 157.808 158.042 
158.79 158.432 158.561 158.294 158.539 158.431 158.984 159.765 159.252 
159.327 158.993 159.285 159.097 159.639 159.634 160.413 161.041 160.368 
160.456 159.927 160.282 159.974 160.558 160.41 161.143 161.15 162.031 
162.422 161.777 161.952 161.303 161.665 161.173 161.725 161.418 162.085 
161.957 162.811 162.876 163.948 163.673 163.148 163.382 162.831 163.139 
162.621 163.024 162.619 163.151 162.924 163.706 163.72 164.806 164.969 
166.159 164.872 164.381 164.639 164.165 164.44 163.964 164.265 163.843 
164.298 164.011 164.766 164.688 165.763 165.867 167.054 167.184 168.227 
166.092 165.608 165.899 165.422 165.725 165.218 165.526 165.05 165.541 
165.212 166.041 165.882 166.982 166.941 168.096 168.104 169.107 169.1 
169.89 177.273 176.218 176.571 176.213 175.093 175.474 175.11 175.496 
175.18 173.878 174.298 173.909 174.34 173.996 174.449 174.13 172.592 
173.025 172.609 173.072 172.666 173.158 172.766 173.285 172.872 171.308 
171.704 171.247 171.719 171.296 171.78 171.338 171.833 171.387 171.907 
171.46 170.066 170.411 169.884 170.323 169.891 170.391 169.971 170.434 
169.974 170.432 169.998 170.505 170.121 168.881 169.184 168.621 168.976 
168.488 168.962 168.549 169.056 168.607 169.061 168.586 169.065 168.661 
169.211 168.879 167.764 168.032 167.477 167.763 167.225 167.594 167.131 
167.611 167.183 167.671 167.204 167.665 167.225 167.742 167.392 167.979 
167.693 166.741 166.956 166.402 166.654 166.104 166.388 165.88 166.254 
165.829 166.278 165.883 166.322 165.93 166.372 166.043 166.545 166.292 
166.853 166.647 
POINT_DATA 1002
SCALARS Distance double
LOOKUP_TABLE default
169.848 168.687 168.558 169.811 168.539 171.183 169.925 168.604 171.217 
172.558 170.128 168.73 171.406 172.622 173.848 170.304 168.944 171.642 
172.837 174.022 175.23 170.49 169.274 171.814 173.105 174.325 175.573 
176.729 170.845 169.691 172.086 173.407 174.663 175.903 177.09 178.039 
171.363 170.155 172.585 173.85 175.069 176.219 177.37 178.377 179.152 
171.909 170.651 173.147 174.341 175.511 176.609 177.678 178.701 179.563 
180.262 172.398 171.155 173.606 174.721 175.844 176.978 178.038 179.014 
179.9 180.671 181.3 167.442 167.285 166.079 165.899 164.696 167.196 
164.505 163.405 165.767 167.161 163.124 162.108 164.383 165.721 167.284 
161.702 160.811 162.981 164.378 165.885 167.623 160.506 159.74 161.607 
163.02 164.529 166.254 168.071 159.695 158.9 160.563 161.757 163.212 
164.891 166.761 168.54 158.979 158.178 159.754 160.744 162.063 163.679 
165.547 167.388 169.054 158.259 157.681 158.928 159.867 161.118 162.633 
164.468 166.396 168.082 169.62 157.66 158.038 157.728 158.259 158.366 
158.881 159.34 159.694 159.525 160.203 160.831 161.232 160.746 161.023 
161.703 162.417 162.955 162.112 162.117 162.591 163.5 164.515 165.122 
163.994 163.759 163.982 164.733 165.649 166.875 167.341 166.394 166.097 
166.08 166.419 167.02 167.586 168.818 169.146 168.486 168.279 168.21 
168.242 168.446 168.785 169.171 170.3 170.567 170.037 169.849 169.756 
169.706 169.748 169.965 170.31 170.719 172.456 172.08 173.782 171.679 
173.556 175.087 171.299 173.273 175.07 176.486 171.036 172.895 174.931 
176.529 177.849 170.978 172.552 174.551 176.311 177.643 178.742 171.089 
172.477 174.185 175.88 177.186 178.247 179.179 171.286 172.654 174.144 
175.652 176.868 177.778 178.691 179.667 171.521 172.88 174.287 175.697 
176.937 177.749 178.42 179.342 180.417 171.751 173.059 174.395 175.724 
177.047 178.013 178.537 179.154 180.126 181.197 173.705 174.934 174.834 
176.268 176.095 175.976 177.799 177.621 177.419 177.229 179.031 179.053 
178.9 178.688 178.419 179.646 179.905 179.954 179.864 179.697 179.417 
180.118 180.475 180.729 180.801 180.698 180.537 180.294 180.863 181.213 
181.533 181.734 181.666 181.476 181.335 181.112 181.726 182.09 182.327 
182.472 182.448 182.296 182.184 182.092 181.817 182.246 182.819 183.18 
183.766 183.958 183.108 184.523 184.492 183.937 183.113 184.99 184.698 
184.711 183.741 182.98 185.208 185.031 185.419 184.713 183.6 182.896 
185.617 185.908 185.824 185.753 184.781 183.668 182.897 186.317 186.838 
186.042 186.113 185.693 184.61 183.609 182.859 186.896 187.27 186.341 
186.076 185.835 185.035 184.023 183.295 182.639 187.197 187.325 186.717 
186.228 185.86 185.196 184.198 183.405 182.855 182.177 181.181 182.141 
181.06 181.935 181.064 183.002 181.902 181.266 182.852 183.794 181.922 
181.418 182.853 183.822 184.36 181.805 181.423 182.655 183.859 184.561 
184.733 181.759 181.388 182.349 183.489 184.588 185.116 185.473 181.763 
181.215 182.279 183.104 184.172 185.095 185.854 186.505 181.485 180.781 
182.144 182.9 183.776 184.671 185.589 186.487 187.099 180.937 180.205 
181.679 182.511 183.393 184.225 185.046 185.905 186.661 187.14 171.591 
172.884 172.7 174.054 173.788 174.254 175.213 174.843 175.446 175.578 
176.376 175.967 176.656 176.773 176.94 177.527 177.132 177.848 177.984 
178.096 178.18 178.602 178.191 178.944 179.139 179.168 179.092 178.871 
179.549 179.067 179.914 180.155 180.191 179.963 179.618 179.33 180.292 
179.736 180.689 180.908 180.987 180.83 180.464 180.19 180.126 169.958 
171.105 169.167 170.564 168.171 172.314 169.785 167.075 171.949 173.404 
168.663 166.183 171.275 173.064 174.444 167.685 165.855 170.183 172.453 
174.114 175.627 167.408 166.015 169.327 171.549 173.576 175.286 176.824 
167.539 166.231 169.06 170.836 172.813 174.722 176.39 177.832 167.602 
166.362 168.965 170.428 172.119 174 175.795 177.341 178.647 167.643 