# vtk DataFile Version 4.0
vtk output
ASCII
DATASET POLYDATA
POINTS 1002 float
-117.886 -113.015 52.5177 -117.567 -111.868 51.8075 -117.217 -112.138 52.0978 
-117.494 -113.187 53.0531 -116.831 -112.453 52.5611 -118.176 -113.892 53.6726 
-117.042 -113.479 53.734 -116.334 -112.844 53.1311 -117.717 -114.127 54.464 
-118.348 -114.846 55.2244 -116.537 -113.918 54.4601 -115.82 -113.284 53.8212 
-117.24 -114.555 55.3103 -117.908 -115.338 56.0979 -118.488 -116.183 56.8733 
-116.114 -114.41 55.3316 -115.441 -113.732 54.7475 -116.81 -115.074 56.1723 
-117.482 -115.879 57.0277 -118.112 -116.752 57.7785 -118.665 -117.502 58.5724 
-115.774 -114.921 56.4203 -115.148 -114.209 55.817 -116.467 -115.593 57.1987 
-117.092 -116.366 58.0629 -117.671 -117.23 58.8262 -118.222 -118.022 59.5416 
-118.74 -118.69 60.2616 -115.374 -115.523 57.4872 -114.826 -114.797 56.7869 
-116.063 -116.188 58.3094 -116.698 -116.907 59.1807 -117.213 -117.75 59.9467 
-117.691 -118.607 60.5693 -118.146 -119.424 61.1379 -118.641 -120.126 61.7059 
-114.916 -116.228 58.4074 -114.472 -115.497 57.6817 -115.516 -116.91 59.2721 
-116.159 -117.599 60.1658 -116.705 -118.425 60.9415 -117.193 -119.303 61.5566 
-117.604 -120.183 62.0385 -117.98 -121.015 62.48 -118.455 -121.63 62.9706 
-114.48 -116.938 59.312 -114.101 -116.223 58.622 -114.955 -117.672 60.1152 
-115.523 -118.382 60.9634 -116.075 -119.182 61.7316 -116.625 -120.031 62.4121 
-117.129 -120.841 62.9943 -117.48 -121.653 63.428 -117.804 -122.364 63.7967 
-118.242 -122.835 64.1908 -114.057 -117.595 60.18 -113.69 -116.928 59.505 
-114.454 -118.372 60.9035 -114.925 -119.161 61.6686 -115.431 -119.953 62.415 
-115.962 -120.741 63.1468 -116.524 -121.454 63.8714 -116.989 -122.137 64.4505 
-117.31 -122.819 64.8103 -117.629 -123.388 65.0614 -118.032 -123.782 65.2976 
-117.031 -110.786 51.3244 -116.625 -111.151 51.6371 -116.359 -109.844 50.765 
-115.85 -110.168 51.1927 -115.506 -108.999 50.18 -116.166 -111.555 52.1089 
-115.009 -109.193 50.7051 -114.758 -108.006 49.7024 -115.355 -110.541 51.7419 
-115.618 -111.998 52.67 -114.337 -108.211 50.3154 -114.221 -106.986 49.5116 
-114.569 -109.565 51.3489 -114.841 -111.036 52.3132 -115.131 -112.475 53.3665 
-113.647 -107.323 50.183 -113.544 -106.188 49.5031 -113.803 -108.724 51.0604 
-114.031 -110.199 51.9555 -114.398 -111.632 52.9553 -114.816 -112.962 54.2987 
-112.817 -106.523 50.082 -112.743 -105.466 49.4133 -112.93 -107.925 50.8806 
-113.104 -109.49 51.6692 -113.489 -110.953 52.5503 -114.075 -112.254 53.8142 
-114.564 -113.508 55.3263 -112.184 -105.715 50.081 -112.131 -104.694 49.5114 
-112.245 -107.071 50.7571 -112.299 -108.711 51.4636 -112.515 -110.321 52.2648 
-113.085 -111.716 53.3777 -113.801 -112.949 54.8069 -114.275 -114.203 56.284 
-111.819 -104.975 50.5952 -111.686 -104.041 50.1618 -111.937 -106.232 51.0703 
-111.933 -107.848 51.5849 -111.927 -109.548 52.2488 -112.21 -111.108 53.1621 
-112.869 -112.493 54.3759 -113.552 -113.767 55.7999 -113.945 -115.018 57.2542 
-111.533 -104.449 51.459 -111.32 -103.622 51.1294 -111.757 -105.555 51.8345 
-111.806 -107.025 52.2258 -111.745 -108.663 52.6998 -111.819 -110.255 53.3188 
-112.215 -111.81 54.1799 -112.81 -113.309 55.3849 -113.297 -114.664 56.8236 
-113.559 -115.86 58.2499 -111.241 -103.88 52.1714 -111.52 -104.838 52.4886 
-111.427 -104.432 52.9696 -111.498 -105.512 53.4151 -111.586 -105.312 53.9966 
-111.638 -106.106 52.9552 -111.314 -106.42 54.6536 -111.561 -106.424 55.639 
-111.352 -106.806 54.1252 -111.592 -107.638 53.4625 -111.301 -107.548 56.1451 
-111.796 -107.629 57.1836 -111.14 -107.682 55.3414 -111.387 -108.255 54.6625 
-111.664 -109.223 53.8937 -111.986 -108.917 57.1777 -112.595 -108.914 57.8758 
-111.547 -108.979 56.401 -111.565 -109.222 55.6629 -111.838 -109.891 54.9578 
-111.996 -110.9 54.3996 -113.077 -110.544 57.6742 -113.514 -110.459 58.078 
-112.558 -110.72 57.2539 -112.218 -110.863 56.753 -112.227 -111.172 56.1537 
-112.325 -111.894 55.6056 -112.438 -112.751 55.3462 -113.813 -112.334 58.2987 
-114.121 -112.219 58.5211 -113.397 -112.571 58.1746 -112.859 -112.761 58.0869 
-112.482 -112.932 57.792 -112.388 -113.384 57.2598 -112.47 -114.05 56.8426 
-112.774 -114.511 56.7473 -114.042 -113.945 59.3994 -114.421 -113.793 59.4629 
-113.641 -114.173 59.371 -113.085 -114.353 59.4474 -112.473 -114.468 59.4224 
-112.093 -114.817 59.0292 -112.078 -115.43 58.4945 -112.406 -115.866 58.2365 
-112.968 -115.932 58.2339 -114.071 -115.166 60.7164 -114.535 -114.974 60.6648 
-113.602 -115.405 60.6998 -113.064 -115.589 60.7078 -112.438 -115.648 60.7138 
-111.88 -115.869 60.4574 -111.642 -116.472 59.9203 -111.861 -117.052 59.5238 
-112.438 -117.196 59.473 -113.116 -117.052 59.5348 -113.461 -118.053 60.6804 
-112.814 -118.256 60.6562 -113.215 -119.363 61.8184 -112.102 -118.402 60.5866 
-112.587 -119.615 61.8648 -112.983 -120.835 63.1457 -111.605 -118.121 60.7712 
-111.986 -119.698 62.0335 -112.431 -121.073 63.4888 -112.757 -122.224 64.8147 
-111.602 -117.443 61.2927 -111.713 -119.32 62.4753 -111.949 -121.073 63.9706 
-112.189 -122.393 65.361 -112.491 -123.357 66.5607 -112.037 -116.964 61.7396 
-111.935 -118.731 62.9484 -111.83 -120.681 64.4527 -111.687 -122.3 65.8591 
-111.803 -123.474 67.0603 -112.129 -124.405 68.1328 -112.624 -116.857 61.8689 
-112.42 -118.406 63.105 -112.145 -120.157 64.6755 -111.622 -121.809 66.2418 
-111.313 -123.247 67.5266 -111.438 -124.449 68.6319 -111.687 -125.43 69.5441 
-113.198 -116.716 61.9045 -112.932 -118.229 63.0643 -112.618 -119.784 64.6029 
-112 -121.158 66.4323 -111.399 -122.575 67.9878 -111.215 -124.061 69.1837 
-111.269 -125.305 70.1419 -111.305 -126.213 70.8709 -113.741 -116.425 61.957 
-113.46 -117.922 63.0552 -113.137 -119.489 64.4296 -112.551 -120.709 66.3437 
-111.891 -121.847 68.1939 -111.54 -123.332 69.5577 -111.433 -124.812 70.6434 
-111.287 -125.908 71.5488 -111.115 -126.686 72.2186 -114.251 -116.147 61.9243 
-113.973 -117.554 63.0292 -113.687 -119.149 64.2477 -113.191 -120.455 66.0242 
-112.547 -121.444 67.9675 -112.101 -122.691 69.4578 -111.904 -124.166 70.6824 
-111.699 -125.365 71.8988 -111.388 -126.234 72.907 -111.132 -126.961 73.5334 
-113.854 -118.842 61.4318 -113.595 -120.318 62.6791 -114.265 -119.769 62.2061 
-113.318 -121.85 64.1609 -113.999 -121.346 63.58 -114.744 -120.68 63.0125 
-113.082 -123.119 65.9295 -113.717 -122.775 65.2165 -114.503 -122.222 64.5288 
-115.271 -121.485 63.8428 -112.838 -124.217 67.6792 -113.476 -123.928 67.0096 
-114.211 -123.527 66.2068 -115.037 -122.932 65.433 -115.821 -122.182 64.682 
-112.419 -125.381 69.19 -113.197 -125.113 68.6911 -113.911 -124.732 67.8827 
-114.688 -124.273 66.9552 -115.537 -123.616 66.1776 -116.354 -122.823 65.4064 
-111.833 -126.378 70.4904 -112.732 -126.265 70.1201 -113.609 -125.932 69.4943 
-114.346 -125.536 68.4771 -115.151 -125.026 67.4765 -116.044 -124.261 66.7148 
-116.801 -123.449 65.8686 -111.326 -127.007 71.7701 -112.13 -127.063 71.3381 
-113.194 -126.862 70.8572 -114.054 -126.549 70.0136 -114.811 -126.173 68.8815 
-115.715 -125.576 67.898 -116.58 -124.768 67.0649 -117.189 -124.009 66.1068 
-111.102 -127.427 73.0964 -111.643 -127.62 72.5233 -112.675 -127.542 71.922 
-113.687 -127.331 71.1802 -114.494 -127.044 70.195 -115.396 -126.579 69.1597 
-116.371 -125.903 68.222 -117.103 -125.154 67.2648 -117.589 -124.453 66.2483 
-111.215 -127.556 74.4364 -111.361 -128.079 73.8866 -111.682 -128.174 74.8825 
-112.034 -128.716 74.2573 -112.655 -128.493 74.8496 -112.101 -128.23 73.098 
-113.123 -128.955 74.2241 -113.967 -128.266 74.6513 -112.852 -128.877 73.2541 
-113.168 -128.145 72.1448 -114.442 -128.621 73.9981 -115.26 -127.858 74.3143 
-113.905 -129.154 73.1278 -113.829 -128.843 71.9605 -114.123 -127.941 71.1013 
-115.83 -128.297 73.5502 -116.488 -127.821 73.7122 -115.268 -128.947 72.8697 
-114.893 -129.152 71.6537 -114.858 -128.515 70.7524 -115.107 -127.491 70.1223 
-117.359 -128.474 72.9285 -117.869 -128.021 73.1246 -116.895 -128.911 72.3875 
-116.419 -129.076 71.3254 -116.093 -128.662 70.4085 -116.084 -127.757 69.9199 
-116.246 -126.791 69.2305 -118.899 -128.691 72.3661 -119.232 -127.997 72.6953 
-118.58 -129.194 71.7839 -118.107 -129.161 70.8901 -117.583 -128.576 70.0992 
-117.274 -127.753 69.6638 -117.194 -126.907 69.1194 -117.161 -126.052 68.2237 
-120.045 -128.445 71.8314 -120.221 -127.696 72.1845 -119.894 -129.1 71.2323 
-119.527 -129.208 70.4108 -118.947 -128.575 69.7148 -118.43 -127.678 69.3182 
-118.104 -126.929 68.8297 -117.893 -126.194 68.015 -117.724 -125.334 67.0989 
-120.759 -127.883 71.2082 -120.894 -127.294 71.5056 -120.683 -128.442 70.6953 
-120.453 -128.731 69.9333 -119.979 -128.415 69.2118 -119.453 -127.628 68.7943 
-119.021 -126.869 68.3905 -118.67 -126.21 67.6933 -118.398 -125.428 66.8617 
-118.196 -124.569 66.0703 -111.44 -126.588 74.3767 -111.618 -127.073 75.1244 
-111.856 -125.903 74.8316 -112.21 -126.154 75.2993 -112.404 -125.122 74.7679 
-112.316 -127.52 75.2068 -113.015 -125.224 75.1174 -113.319 -124.635 74.1962 
-113.239 -126.466 75.2477 -113.589 -127.634 75.0633 -114.137 -124.719 74.6406 
-114.548 -124.5 73.1317 -114.339 -125.584 75.3443 -114.768 -126.699 75.472 
-115.018 -127.45 75.0289 -115.345 -124.508 73.6314 -115.672 -124.33 71.8095 
-115.475 -125.007 75.0279 -115.899 -126 75.8177 -116.12 -126.906 75.6286 
-116.192 -127.422 74.6166 -116.302 -124.219 72.2513 -116.503 -123.786 70.6333 
-116.408 -124.48 73.8401 -116.785 -125.19 75.0756 -117.016 -126.28 75.5451 
-117.118 -127.128 74.8651 -117.354 -127.573 73.8207 -117.031 -123.638 70.9613 
-117.163 -122.891 69.6853 -117.104 -123.976 72.3603 -117.439 -124.303 73.5443 
-117.701 -125.163 74.332 -117.917 -126.301 74.3941 -118.285 -127.073 73.8377 
-118.727 -127.509 73.2396 -117.693 -122.732 69.8744 -117.753 -121.902 68.7956 
-117.735 -123.347 71.1062 -118.023 -123.673 72.2106 -118.328 -124.112 73.0027 
-118.611 -125.016 73.4167 -119.098 -126.019 73.447 -119.607 -126.701 73.2256 
-119.936 -127.205 72.8031 -118.3 -121.711 68.9022 -118.265 -121.032 67.9112 
-118.357 -122.431 70.0185 -118.599 -123.032 71.1004 -118.941 -123.46 71.9592 
[...]
CELL_DATA 2000
SCALARS Distance double
LOOKUP_TABLE default
169.759 169.798 170.159 170.925 169.89 170.222 170.99 171.332 172.118 
170.033 170.344 171.156 171.47 172.326 172.632 173.516 170.304 170.561 
171.431 171.715 172.636 172.934 173.882 174.159 175.076 170.725 170.934 
171.842 172.081 173.031 173.303 174.264 174.546 175.464 175.717 176.563 
171.207 171.406 172.323 172.55 173.503 173.744 174.695 174.943 175.855 
176.093 176.946 177.162 177.967 171.707 171.891 172.791 173.025 173.962 
174.212 175.15 175.391 176.304 176.519 177.386 177.575 178.395 178.571 
179.342 172.234 172.39 173.257 173.474 174.38 174.633 175.545 175.811 
176.716 176.967 177.837 178.042 178.848 179.012 179.749 179.903 180.567 
172.742 172.895 173.715 173.921 174.788 175.03 175.911 176.173 177.052 
177.329 178.186 178.444 179.235 179.434 180.132 180.282 180.897 181.029 
181.574 168.953 167.728 168.562 169.008 166.432 167.307 167.774 168.64 
169.099 165.098 165.972 166.433 167.36 167.86 168.733 169.214 163.886 
164.669 165.133 166.023 166.554 167.464 168.008 168.884 169.445 162.823 
163.529 163.969 164.79 165.324 166.198 166.781 167.68 168.308 169.198 
169.847 161.764 162.455 162.833 163.64 164.144 165.006 165.58 166.48 
167.139 168.068 168.774 169.663 170.342 160.791 161.406 161.778 162.514 
163.017 163.839 164.417 165.295 165.963 166.906 167.659 168.597 169.342 
170.197 170.878 160.123 160.593 161.043 161.614 162.179 162.846 163.474 
164.223 164.912 165.773 166.56 167.502 168.323 169.225 169.986 170.783 
171.456 159.784 160.135 160.655 161.094 161.709 162.223 162.884 163.468 
164.157 164.853 165.625 166.472 167.335 168.245 169.092 169.931 170.672 
171.399 172.025 159.86 160.449 160.314 160.758 161.278 160.995 161.404 
161.302 161.814 162.326 161.867 162.152 161.971 162.46 162.405 162.96 
163.646 162.987 163.132 162.756 163.174 163.059 163.633 163.59 164.202 
165.246 164.459 164.608 163.94 164.311 163.921 164.52 164.348 165.039 
164.937 165.664 167.008 166.225 166.541 165.71 166.141 165.41 166.016 
165.517 166.27 165.965 166.776 166.577 167.402 168.774 168.077 168.525 
167.771 168.258 167.457 167.99 167.279 167.933 167.423 168.193 167.851 
168.661 168.41 169.19 170.4 169.81 170.231 169.644 170.061 169.428 
169.789 169.15 169.547 169.039 169.589 169.252 169.922 169.673 170.36 
170.128 170.771 171.776 171.292 171.612 171.141 171.443 170.95 171.172 
170.643 170.836 170.379 170.705 170.422 170.932 170.769 171.357 171.198 
171.768 171.573 172.099 172.848 172.536 173.09 173.897 172.134 172.743 
173.6 174.201 175.114 171.701 172.314 173.233 173.911 174.93 175.533 
176.515 171.453 171.939 172.899 173.581 174.705 175.377 176.435 176.97 
177.878 171.572 171.863 172.815 173.366 174.527 175.185 176.269 176.846 
177.744 178.24 179.032 171.914 172.121 173.021 173.424 174.521 175.074 
176.109 176.646 177.505 178.025 178.813 179.323 180.061 172.209 172.459 
173.301 173.656 174.642 175.105 176.045 176.497 177.303 177.773 178.575 
179.094 179.89 180.347 181.012 172.396 172.691 173.501 173.862 174.774 
175.2 176.078 176.462 177.223 177.613 178.408 178.899 179.758 180.23 
180.974 181.299 181.856 172.547 172.847 173.631 173.99 174.862 175.286 
176.159 176.526 177.282 177.596 178.345 178.768 179.618 180.117 180.918 
181.304 181.917 182.144 182.616 173.249 174.344 173.938 174.251 175.585 
175.119 175.482 175.02 175.352 176.961 176.45 176.834 176.332 176.7 
176.181 176.498 178.3 177.838 178.214 177.721 178.101 177.581 177.916 
177.352 177.644 179.494 179.125 179.516 179.068 179.433 178.959 179.3 
178.777 179.068 178.499 178.764 180.548 180.272 180.725 180.339 180.705 
180.247 180.573 180.1 180.397 179.887 180.14 179.587 179.8 181.419 
181.24 181.72 181.481 181.891 181.502 181.81 181.34 181.616 181.146 
181.4 180.903 181.097 180.547 180.68 182.146 181.996 182.42 182.322 
182.759 182.566 182.89 182.523 182.75 182.314 182.537 182.094 182.286 
181.786 181.899 181.343 181.41 182.858 182.676 183.037 182.931 183.348 
183.273 183.632 183.442 183.666 183.342 183.52 183.152 183.334 182.913 
183.032 182.518 182.563 182.011 182.043 183.373 184.25 183.723 183.57 
185.141 184.658 184.517 183.957 183.84 185.862 185.523 185.439 184.918 
184.738 184.221 184.087 186.335 186.14 186.13 185.769 185.591 185.081 
184.846 184.369 184.138 186.778 186.578 186.639 186.387 186.296 185.862 
185.605 185.098 184.816 184.333 184.039 187.474 187.17 187.33 186.999 
187.012 186.562 186.353 185.83 185.537 185.029 184.731 184.223 183.888 
188.251 187.998 188.241 187.877 187.929 187.396 187.174 186.581 186.248 
185.727 185.395 184.907 184.534 184.022 183.588 188.668 188.638 188.84 
188.697 188.7 188.297 187.975 187.385 186.921 186.376 185.954 185.494 
185.067 184.595 184.102 183.608 183.096 188.657 188.777 188.855 188.95 
188.864 188.758 188.372 187.992 187.419 186.938 186.404 185.965 185.484 
185.046 184.529 184.058 183.52 183.053 182.552 183.419 183.56 183.756 
184.237 183.408 183.741 184.254 184.553 185.05 183.26 183.528 184.067 
184.459 185.044 185.335 185.765 183.392 183.507 184.085 184.378 185.117 
185.391 185.947 186.031 186.323 183.563 183.707 184.265 184.53 185.339 
185.634 186.336 186.376 186.718 186.582 186.794 183.441 183.75 184.204 
184.576 185.221 185.72 186.394 186.715 187.093 187.056 187.222 187.097 
187.384 183.018 183.462 183.854 184.286 184.713 185.276 185.764 186.383 
186.776 187.166 187.382 187.475 187.684 187.718 188.061 182.431 182.938 
183.342 183.814 184.193 184.66 185.033 185.574 185.963 186.547 186.915 
187.361 187.653 187.882 188.125 188.269 188.49 181.812 182.313 182.714 
183.236 183.652 184.138 184.529 184.957 185.329 185.794 186.211 186.749 
187.162 187.62 187.901 188.177 188.318 188.488 188.546 172.872 173.73 
173.521 173.979 174.68 174.444 174.981 174.725 175.249 175.797 175.497 
176.087 175.807 176.384 176.081 176.568 177.007 176.691 177.259 176.956 
177.525 177.232 177.71 177.348 177.695 178.09 177.86 178.395 178.11 
178.642 178.36 178.856 178.499 178.876 178.434 178.77 179.007 178.855 
179.431 179.201 179.765 179.491 180.05 179.697 180.158 179.693 180.087 
179.605 180.031 179.885 179.756 180.396 180.224 180.863 180.635 181.242 
180.931 181.414 180.994 181.366 180.923 181.306 180.894 181.283 180.698 
180.617 181.258 181.166 181.81 181.679 182.243 182.034 182.42 182.111 
182.346 182.021 182.273 182 182.305 181.999 182.247 181.341 181.337 
181.926 181.928 182.512 182.485 182.969 182.858 183.142 182.913 183.019 
182.762 182.888 182.724 182.976 182.831 183.081 182.804 182.946 172.318 
171.64 172.387 173.15 170.808 171.64 172.467 173.23 174.045 170.013 
170.789 171.642 172.488 173.398 174.193 175.128 169.454 170.092 170.933 
171.707 172.685 173.531 174.57 175.372 176.357 169.009 169.626 170.481 
171.15 172.143 172.905 173.971 174.79 175.82 176.585 177.465 168.474 
169.156 170.045 170.752 171.755 172.477 173.516 174.248 175.247 176 
176.912 177.613 178.389 167.977 168.614 169.51 170.258 171.283 172.072 
173.124 173.846 174.815 175.483 176.389 177.065 177.916 178.54 179.287 
167.723 168.22 169.093 169.747 170.77 171.558 172.655 173.433 174.435 
175.095 175.984 176.61 177.478 178.108 178.915 179.47 180.149 167.698 
168.08 168.908 169.425 170.393 171.084 172.179 172.962 174.013 174.708 
175.594 176.21 177.034 177.676 178.484 179.094 179.789 180.29 180.843 
168 168.895 168.669 169.195 169.85 169.604 170.152 169.969 170.65 
170.841 170.583 171.175 170.99 171.758 171.601 172.439 171.915 171.637 
172.301 172.098 172.95 172.795 173.685 173.486 174.278 173.097 172.8 
173.525 173.305 174.182 174.03 174.908 174.718 175.449 175.208 175.83 
174.365 174.051 174.773 174.544 175.38 175.238 176.069 175.891 176.574 
176.323 176.914 176.662 177.25 175.667 175.352 176.038 175.773 176.543 
176.379 177.187 177.019 177.728 177.461 178.073 177.777 178.389 178.115 
178.707 176.922 176.645 177.316 177.025 177.736 177.519 178.301 178.133 
178.883 178.646 179.282 178.977 179.55 179.258 179.8 179.523 179.997 
178.059 177.853 178.527 178.267 178.94 178.701 179.429 179.246 179.969 
179.775 180.387 180.131 180.623 180.348 180.781 180.525 180.918 180.666 
181.012 178.886 180.342 179.545 179.392 181.917 181.05 180.9 180.04 
179.848 183.567 182.666 182.507 181.608 181.43 180.531 180.351 185.047 
184.246 184.043 183.205 183.002 182.126 181.907 181.031 180.833 186.146 
185.514 185.258 184.589 184.347 183.597 183.307 182.493 182.194 181.41 
181.157 186.975 186.445 186.178 185.623 185.387 184.779 184.493 183.77 
183.413 182.65 182.318 181.609 181.33 187.664 187.231 187.022 186.499 
186.284 185.727 185.49 184.864 184.558 183.83 183.477 182.727 182.404 
181.716 181.442 188.151 187.877 187.758 187.335 187.13 186.602 186.323 
185.769 185.468 184.883 184.552 183.874 183.513 182.792 182.463 181.801 
181.532 188.439 188.288 188.226 187.97 187.786 187.369 187.026 186.509 
186.107 185.621 185.26 184.777 184.418 183.832 183.458 182.809 182.482 
181.867 181.599 178.772 178.984 179.354 180.265 179.111 179.567 180.61 
180.937 181.881 179.202 179.688 180.819 181.284 182.405 182.674 183.61 
179.323 179.791 180.934 181.476 182.734 183.198 184.313 184.456 185.214 
179.425 179.916 181.042 181.593 182.876 183.477 184.733 185.106 185.989 
185.954 186.419 179.369 179.948 181.071 181.675 182.919 183.57 184.84 
185.402 186.405 186.618 187.168 187.004 187.261 179.188 179.8 180.912 
181.604 182.826 183.538 184.752 185.403 186.429 186.867 187.52 187.607 
187.895 187.714 187.861 179.058 179.608 180.672 181.364 182.545 183.316 
184.481 185.205 186.191 186.762 187.445 187.764 188.099 188.143 188.252 
188.151 188.228 179.003 179.497 180.475 181.1 182.176 182.93 184.009 
184.789 185.72 186.396 187.059 187.536 187.889 188.134 188.257 188.331 
188.383 188.382 188.455 177.847 176.36 177.4 177.955 174.758 175.803 
176.334 177.447 178.02 173.232 174.183 174.647 175.753 176.344 177.499 
178.103 171.83 172.698 173.073 174.069 174.592 175.76 176.41 177.599 
178.229 170.483 171.324 171.681 172.56 172.98 174.014 174.607 175.834 
176.526 177.733 178.335 169.221 170.015 170.415 171.238 171.664 172.526 
173.058 174.104 174.8 175.994 176.669 177.804 178.315 168.123 168.832 
169.231 170.019 170.499 171.32 171.902 172.777 173.475 174.451 175.156 
176.18 176.75 177.75 178.192 167.151 167.798 168.154 168.877 169.342 
170.175 170.823 171.729 172.483 173.354 174.034 174.86 175.407 176.273 
176.744 177.663 178.109 166.255 166.862 167.217 167.861 168.296 169.053 
169.692 170.629 171.445 172.393 173.097 173.866 174.336 175.05 175.458 
176.286 176.742 177.645 178.101 165.904 165.862 166.209 166.915 166.053 
166.308 167.032 167.292 168.029 166.314 166.576 167.338 167.538 168.322 
168.552 169.458 166.526 166.809 167.605 167.872 168.733 168.982 169.979 
170.225 171.274 166.818 167.016 167.803 168.109 169.055 169.413 170.478 
170.795 171.825 172.059 172.933 167.288 167.381 168.151 168.375 169.357 
169.731 170.821 171.21 172.163 172.461 173.203 173.441 174.074 167.904 
167.945 168.761 168.875 169.83 170.089 171.098 171.456 172.325 172.644 
173.314 173.576 174.195 174.455 175.124 168.63 168.655 169.533 169.597 
170.501 170.62 171.468 171.687 172.449 172.73 173.417 173.684 174.377 
174.627 175.394 175.631 176.419 169.381 169.42 170.28 170.367 171.2 
171.271 171.984 172.062 172.725 172.894 173.614 173.856 174.642 174.897 
175.731 175.977 176.815 177.02 177.798 170.035 171.223 170.733 170.939 
172.388 171.9 172.121 171.65 171.825 173.747 173.132 173.336 172.814 
172.989 172.472 172.561 175.305 174.618 174.839 174.172 174.398 173.739 
173.873 173.212 173.299 176.803 176.186 176.446 175.785 176.08 175.361 
175.595 174.767 174.893 174.086 174.232 178.212 177.647 177.924 177.34 
177.646 177.047 177.338 176.605 176.762 175.878 175.974 175.136 175.304 
179.59 179.063 179.361 178.786 179.072 178.516 178.813 178.234 178.434 
177.695 177.77 176.933 177.033 176.242 176.414 180.811 180.394 180.712 
180.205 180.483 179.924 180.208 179.653 179.918 179.279 179.433 178.663 
178.765 177.972 178.12 177.353 177.508 181.8 181.499 181.823 181.453 
181.736 181.273 181.534 181.028 181.305 180.752 180.988 180.308 180.463 
179.69 179.828 179.051 179.184 178.408 178.493 179.25 180.018 179.999 
180.731 180.719 180.776 181.598 181.572 182.393 181.344 181.463 182.312 
182.391 183.246 183.274 184.137 181.812 182.014 182.821 183.001 183.827 
183.993 184.844 184.96 185.762 182.089 182.36 183.126 183.386 184.164 
184.425 185.228 185.481 186.243 186.408 187.028 182.285 182.563 183.315 
183.608 184.373 184.669 185.423 185.721 186.408 186.677 187.225 187.411 
187.795 182.431 182.719 183.435 183.753 184.494 184.821 185.533 185.838 
186.467 186.739 187.249 187.467 187.832 187.975 188.192 182.462 182.788 
183.445 183.804 184.488 184.861 185.518 185.864 186.467 186.764 187.313 
187.526 187.966 188.055 188.327 188.322 188.438 182.404 182.742 183.357 
183.734 184.368 184.763 185.362 185.745 186.306 186.682 187.262 187.595 
188.132 188.29 188.636 188.584 188.717 188.577 188.595 159.367 159.735 
159.331 159.047 160.484 159.897 159.587 159.143 158.986 161.507 160.841 
160.582 159.915 159.662 159.178 159.129 162.524 161.899 161.672 161.021 
160.785 160.092 159.941 159.461 159.627 163.552 162.896 162.64 162.041 
161.813 161.208 161.065 160.489 160.598 160.216 160.657 164.801 164.039 
163.836 163.093 162.878 162.198 162.075 161.547 161.668 161.295 161.666 
161.411 161.941 166.152 165.396 165.296 164.498 164.399 163.523 163.448 
162.68 162.825 162.34 162.718 162.416 162.861 162.64 163.102 167.433 
166.733 166.648 165.968 165.957 165.186 165.189 164.326 164.456 163.722 
164.083 163.563 164.005 163.604 164.014 163.732 164.162 168.688 168.002 
167.904 167.251 167.225 166.611 166.634 165.982 166.074 165.41 165.664 
165.07 165.437 164.891 165.245 164.768 165.13 164.806 165.234 159.174 
158.872 158.962 159 158.883 158.865 158.99 159.036 159.304 159.091 
159.038 159.333 159.304 159.649 159.605 160.056 159.578 159.375 159.766 
159.778 160.242 160.143 160.54 160.498 161.083 160.577 160.086 160.404 
160.288 160.807 160.749 161.147 161.037 161.505 161.593 162.309 161.878 
161.268 161.471 161.099 161.552 161.377 161.835 161.662 162.102 162.054 
162.689 162.855 163.592 163.065 162.54 162.707 162.248 162.599 162.276 
162.742 162.476 162.951 162.747 163.306 163.294 163.959 164.09 164.718 
164.123 163.656 163.84 163.416 163.719 163.361 163.773 163.478 163.935 
163.674 164.155 163.989 164.538 164.519 165.106 165.173 165.735 165.189 
164.723 164.918 164.503 164.795 164.436 164.805 164.5 164.908 164.638 
165.054 164.832 165.291 165.162 165.696 165.658 166.231 166.241 166.807 
159.478 159.277 159.542 160.06 159.512 159.52 160.044 160.319 160.99 
160.225 159.981 160.485 160.54 161.296 161.472 162.218 161.303 160.887 
161.349 161.19 161.947 161.997 162.839 162.885 163.652 162.591 162.096 
162.505 162.174 162.833 162.764 163.614 163.64 164.462 164.429 165.21 
163.859 163.405 163.769 163.365 163.915 163.714 164.512 164.481 165.333 
165.289 166.061 166.016 166.835 164.937 164.576 164.922 164.569 165.076 
164.825 165.566 165.453 166.29 166.202 166.971 166.876 167.642 167.647 
168.518 165.924 165.581 165.94 165.643 166.158 165.944 166.642 166.514 
167.279 167.168 167.882 167.775 168.497 168.46 169.274 169.327 170.174 
166.969 166.592 166.964 166.655 167.172 166.972 167.637 167.521 168.211 
168.096 168.723 168.62 169.273 169.256 170.016 170.07 170.861 170.912 
171.621 177.428 176.297 176.597 175.977 175.058 175.411 174.814 175.08 
174.419 173.755 174.133 173.572 173.9 173.295 173.548 172.936 172.493 
172.837 172.295 172.651 172.118 172.434 171.87 172.118 171.546 171.362 
171.643 171.105 171.413 170.912 171.261 170.759 171.052 170.474 170.719 
170.162 170.331 170.574 170.016 170.267 169.712 170.048 169.556 169.918 
169.38 169.643 169.054 169.328 168.855 169.325 169.548 168.938 169.163 
168.514 168.812 168.246 168.655 168.149 168.512 167.958 168.238 167.739 
168.082 167.74 168.338 168.523 167.867 168.059 167.377 167.607 166.998 
167.34 166.847 167.248 166.77 167.117 166.64 166.982 166.607 167.022 
166.758 167.446 167.56 166.911 167.035 166.393 166.544 165.975 166.2 
165.737 166.042 165.628 165.955 165.539 165.876 165.501 165.89 165.599 
166.052 165.838 
POINT_DATA 1002
SCALARS Distance double
LOOKUP_TABLE default
170.545 169.354 169.379 170.554 169.464 171.678 170.65 169.559 171.767 
172.913 170.826 169.717 171.995 173.219 174.421 171.144 170.052 172.326 
173.591 174.84 175.971 171.609 170.518 172.776 173.994 175.21 176.344 
177.376 172.094 171.012 173.271 174.466 175.629 176.729 177.769 178.76 
172.569 171.542 173.715 174.905 176.083 177.204 178.23 179.188 180.082 
173.064 172.1 174.143 175.285 176.45 177.617 178.694 179.621 180.441 
181.181 173.526 172.604 174.559 175.664 176.788 177.922 179.024 179.991 
180.787 181.467 182.077 168.127 168.181 166.876 166.866 165.555 168.276 
165.497 164.243 166.938 168.367 164.27 163.146 165.635 167.09 168.569 
163.171 162.153 164.467 165.872 167.383 168.975 162.043 161.098 163.286 
164.681 166.188 167.849 169.499 161.077 160.201 162.216 163.553 165.018 
166.684 168.446 170.082 160.503 159.669 161.553 162.772 164.101 165.62 
167.377 169.149 170.729 160.237 159.449 161.229 162.348 163.535 164.839 
166.419 168.212 169.918 171.373 159.896 160.811 160.641 161.536 161.658 
161.867 162.411 162.914 162.513 163.003 163.642 164.386 163.348 163.664 
164.236 165.353 166.002 164.832 164.755 165.145 165.737 167.324 167.7 
166.947 166.644 166.653 167.016 167.577 169.209 169.416 169.046 168.783 
168.546 168.605 168.965 169.444 170.806 170.98 170.682 170.461 170.126 
169.974 170.193 170.615 171.027 172.095 172.256 171.94 171.713 171.345 
171.04 171.105 171.503 171.957 172.323 173.62 173.329 174.746 172.944 
174.53 176.07 172.498 174.262 176.004 177.476 172.219 173.986 175.872 
177.434 178.727 172.334 173.897 175.703 177.238 178.563 179.809 172.688 
174.044 175.627 177.003 178.278 179.601 180.778 172.979 174.239 175.648 
176.867 178.045 179.406 180.665 181.596 173.157 174.37 175.717 176.876 
177.933 179.251 180.62 181.639 182.334 173.293 174.447 175.774 176.991 
177.984 179.123 180.482 181.654 182.461 183.056 174.67 175.943 175.835 
177.34 177.222 177.046 178.701 178.607 178.48 178.226 179.95 179.902 
179.794 179.63 179.352 181.06 181.169 181.049 180.88 180.684 180.388 
181.885 182.217 182.291 182.094 181.878 181.641 181.266 182.508 182.868 
183.195 183.188 182.973 182.765 182.455 181.98 183.186 183.42 183.758 
183.945 183.869 183.721 183.521 183.123 182.588 183.879 184.108 184.766 
185.101 185.559 184.346 185.91 186.119 185.309 184.562 186.393 186.497 
186.091 185.376 184.603 186.847 186.993 186.681 186.123 185.319 184.529 
187.673 187.759 187.474 186.887 186.054 185.243 184.424 188.566 188.432 
188.487 187.832 186.807 185.888 185.058 184.123 188.918 188.658 189.041 
188.576 187.521 186.436 185.54 184.607 183.58 188.756 188.558 188.894 
188.661 187.88 186.858 185.92 184.994 183.989 182.992 183.324 184.067 
183.291 183.867 183.066 184.829 183.651 183.066 184.685 185.621 183.806 
183.309 184.8 185.87 186.355 184.009 183.377 184.985 186.235 186.906 
186.895 183.87 183.079 184.738 185.943 187.007 187.369 187.405 183.441 
182.536 184.255 185.151 186.202 187.125 187.656 187.994 182.841 181.917 
183.749 184.578 185.373 186.317 187.308 188 188.384 182.183 181.339 
183.121 184.089 184.924 185.693 186.626 187.556 188.15 188.425 173.071 
174.201 173.921 175.214 174.909 175.531 176.371 176.115 176.681 176.943 
177.591 177.319 177.821 178.078 178.116 178.676 178.28 178.924 179.186 
179.308 179.207 179.616 179.131 180.009 180.369 180.599 180.568 180.489 
180.525 180.002 181.052 181.531 181.83 181.819 181.717 181.715 181.327 
180.769 181.924 182.456 182.746 182.69 182.535 182.574 182.631 171.631 
172.464 170.827 171.633 169.966 173.31 170.77 169.305 172.527 174.365 
170.203 168.859 171.827 173.71 175.639 169.82 168.352 171.421 173.185 
175.025 176.8 169.298 167.772 171.018 172.828 174.54 176.18 177.761 
168.772 167.387 170.461 172.372 174.176 175.734 177.258 178.733 168.5 
167.284 170.007 171.842 173.754 175.378 176.844 178.337 179.679 168.457 
167.354 169.767 171.406 173.292 174.997 176.412 177.85 179.268 180.424 