# vtk DataFile Version 4.0
vtk output
ASCII
DATASET POLYDATA
POINTS 1002 float
-121.05 -111.904 50.6384 -120.964 -110.801 49.4976 -120.388 -111.196 49.7262 
-120.442 -112.301 51.0265 -119.673 -111.57 50.1478 -121.156 -113.046 52.0818 
-119.77 -112.726 51.6188 -118.953 -112.06 50.7004 -120.534 -113.45 52.7053 
-121.36 -114.189 53.9516 -119.109 -113.3 52.3861 -118.3 -112.726 51.3778 
-119.903 -113.954 53.5096 -120.767 -114.688 54.786 -121.595 -115.538 55.9886 
-118.477 -113.973 53.3179 -117.679 -113.422 52.2203 -119.289 -114.586 54.5035 
-120.175 -115.312 55.7342 -121.027 -116.229 56.8532 -121.7 -117.305 57.6784 
-117.917 -114.618 54.3834 -117.155 -114.075 53.2629 -118.737 -115.241 55.6255 
-119.621 -116.023 56.8079 -120.449 -116.99 57.8138 -121.094 -118.168 58.504 
-121.578 -119.365 59.0075 -117.495 -115.348 55.4957 -116.82 -114.838 54.3975 
-118.25 -115.953 56.7269 -119.106 -116.826 57.8449 -119.9 -117.869 58.794 
-120.502 -119.015 59.4923 -120.927 -120.252 59.9501 -121.29 -121.342 60.4016 
-117.209 -116.331 56.4612 -116.614 -115.792 55.3794 -117.803 -116.918 57.6849 
-118.525 -117.792 58.7575 -119.269 -118.909 59.6401 -119.892 -119.972 60.4478 
-120.345 -121.025 61.073 -120.673 -122.095 61.5215 -121.012 -122.958 61.9581 
-116.972 -117.425 57.2527 -116.427 -116.805 56.2155 -117.41 -118.069 58.4768 
-117.927 -118.879 59.6166 -118.524 -119.938 60.5028 -119.106 -120.975 61.3163 
-119.659 -121.832 62.1107 -120.101 -122.703 62.7076 -120.443 -123.563 63.1098 
-120.818 -124.227 63.4374 -116.678 -118.364 58.1226 -116.207 -117.717 57.1482 
-117.001 -119.078 59.2819 -117.362 -119.866 60.468 -117.826 -120.783 61.4595 
-118.279 -121.768 62.262 -118.775 -122.608 63.0209 -119.341 -123.333 63.695 
-119.823 -124.088 64.1707 -120.213 -124.795 64.468 -120.619 -125.345 64.6635 
-120.463 -110.022 48.4939 -119.707 -110.372 48.7641 -119.729 -109.219 47.4636 
-118.774 -109.474 47.8089 -118.896 -108.279 46.5934 -118.829 -110.75 49.1953 
-117.948 -108.423 47.1183 -118.188 -107.158 46.147 -117.856 -109.848 48.3219 
-118.067 -111.339 49.7317 -117.372 -107.285 46.846 -117.385 -106.047 46.0077 
-117.164 -108.789 47.8517 -117.153 -110.504 48.9944 -117.419 -112.088 50.4304 
-116.489 -106.33 46.6195 -116.206 -105.133 45.8048 -116.571 -107.697 47.6525 
-116.427 -109.469 48.6706 -116.475 -111.27 49.8049 -116.79 -112.798 51.345 
-115.267 -105.63 46.3487 -115.11 -104.333 45.7222 -115.581 -106.847 47.334 
-115.658 -108.43 48.3826 -115.599 -110.305 49.4071 -115.821 -112.024 50.7462 
-116.308 -113.513 52.4951 -114.456 -104.969 46.5498 -114.526 -103.557 46.1746 
-114.63 -106.19 47.3055 -114.815 -107.568 48.2181 -114.842 -109.361 49.1018 
-114.97 -111.204 50.2765 -115.402 -112.855 51.9133 -116.024 -114.383 53.694 
-114.084 -104.299 47.2655 -114.151 -102.941 47.0452 -114.149 -105.545 47.8731 
-114.251 -106.802 48.6776 -114.303 -108.419 49.365 -114.414 -110.275 50.1658 
-114.687 -112.064 51.4854 -115.165 -113.775 53.12 -115.82 -115.389 54.7064 
-113.633 -103.789 48.0933 -113.673 -102.639 47.9913 -113.736 -104.97 48.5815 
-113.846 -106.167 49.3729 -113.901 -107.589 50.0885 -114.042 -109.245 50.6552 
-114.287 -110.988 51.4825 -114.557 -112.843 52.7404 -115.006 -114.74 54.1841 
-115.656 -116.408 55.6514 -113.041 -103.218 48.936 -113.05 -104.285 49.1446 
-112.502 -103.895 50.0874 -112.549 -104.996 50.3717 -112.38 -104.781 51.611 
-113.235 -105.513 49.7509 -112.416 -106.144 51.971 -112.609 -106.063 53.4295 
-112.746 -106.539 50.9143 -113.377 -106.956 50.5523 -112.435 -107.626 54.0514 
-112.724 -107.545 55.3052 -112.462 -108.023 52.5002 -112.91 -108.24 51.64 
-113.557 -108.491 51.2556 -112.43 -108.925 56.1739 -112.804 -108.743 57.0035 
-112.315 -109.371 54.7295 -112.606 -109.604 53.2408 -113.29 -109.542 52.4541 
-113.924 -109.994 51.9442 -113.001 -109.965 57.5248 -113.432 -109.721 58.1577 
-112.718 -110.346 56.5988 -112.77 -110.645 55.2058 -113.282 -110.596 54.0166 
-113.898 -110.855 53.3265 -114.259 -111.816 52.8982 -114.318 -111.261 58.0027 
-114.631 -111.006 58.572 -114.022 -111.545 57.3659 -113.842 -111.807 56.4909 
-113.948 -111.903 55.5765 -114.22 -112.185 54.9019 -114.385 -113.063 54.4387 
-114.568 -114.093 54.1871 -115.606 -112.968 58.3277 -115.858 -112.709 58.6574 
-115.38 -113.233 57.8745 -115.18 -113.496 57.3336 -115.029 -113.731 56.8771 
-114.903 -114.119 56.5736 -114.768 -114.892 56.2715 -114.77 -115.752 55.937 
-115.093 -116.257 55.7062 -116.324 -114.728 59.0393 -116.69 -114.468 59.0275 
-115.981 -114.995 58.9123 -115.718 -115.308 58.6655 -115.487 -115.691 58.469 
-115.184 -116.206 58.3838 -114.892 -116.914 58.2541 -114.846 -117.573 57.986 
-115.146 -117.864 57.642 -115.668 -117.838 57.3293 -116.143 -118.929 58.9424 
-115.535 -119.158 59.3218 -115.65 -120.119 60.9901 -114.825 -119.393 59.6649 
-114.867 -120.427 61.2812 -114.892 -121.469 62.7402 -114.272 -119.307 59.9557 
-113.877 -120.743 61.3749 -114.007 -121.804 62.7051 -114.316 -123.113 63.9677 
-114.241 -118.741 60.2798 -113.152 -120.665 61.667 -112.973 -121.96 62.6728 
-113.466 -123.322 63.8883 -113.89 -124.765 65.1703 -114.675 -117.993 60.504 
-113.312 -120.111 62.2635 -112.549 -121.717 63.212 -112.671 -123.181 64.1373 
-113.017 -124.777 65.4019 -113.279 -126.115 66.7209 -115.143 -117.344 60.5231 
-114.052 -119.398 62.5672 -113.193 -121.254 63.895 -112.787 -122.874 64.8079 
-112.566 -124.522 65.9006 -112.51 -126.083 67.1819 -112.751 -127.234 68.4868 
-115.566 -116.858 60.4693 -114.715 -118.744 62.4097 -114.079 -120.708 63.9965 
-113.655 -122.578 65.216 -113.083 -124.274 66.4156 -112.544 -125.842 67.7143 
-112.393 -127.143 69.0999 -112.598 -128.111 70.3639 -116.113 -116.529 60.3657 
-115.358 -118.247 62.1584 -114.676 -120.079 63.7909 -114.285 -122.067 65.207 
-113.843 -123.952 66.6165 -113.284 -125.539 68.063 -112.842 -126.78 69.6206 
-112.593 -127.756 71.1242 -112.54 -128.587 72.2085 -116.717 -116.259 60.1497 
-116.122 -117.908 61.9041 -115.312 -119.527 63.6449 -114.69 -121.336 65.1644 
-114.263 -123.296 66.6367 -113.931 -125.09 68.105 -113.615 -126.398 69.7222 
-113.178 -127.245 71.4818 -112.684 -127.966 72.9115 -112.412 -128.721 73.709 
-116.401 -119.647 60.0519 -115.758 -120.971 62.1158 -116.627 -120.504 61.234 
-115.078 -122.562 63.7495 -116.033 -121.985 63.1366 -117.038 -121.412 62.334 
-114.629 -124.375 64.9687 -115.465 -123.716 64.581 -116.541 -123.005 64.0232 
-117.495 -122.378 63.2363 -114.162 -125.938 66.3992 -115 -125.48 65.9282 
-115.987 -124.809 65.3911 -117.009 -124.051 64.794 -117.899 -123.334 63.9704 
-113.587 -127.146 68.162 -114.528 -126.861 67.6668 -115.497 -126.469 66.9568 
-116.531 -125.84 66.2029 -117.509 -124.999 65.4438 -118.458 -124.135 64.6094 
-113.195 -128.213 69.9551 -114.099 -127.994 69.4549 -115.089 -127.693 68.7577 
-116.162 -127.294 67.8568 -117.23 -126.61 66.8986 -118.203 -125.733 66.0014 
-119.096 -124.859 65.1318 -112.939 -129.005 71.692 -113.755 -128.993 71.015 
-114.737 -128.689 70.2704 -115.824 -128.319 69.4469 -116.974 -127.84 68.4771 
-117.996 -127.186 67.4112 -118.855 -126.406 66.4141 -119.609 -125.575 65.472 
-112.663 -129.365 73.2539 -113.415 -129.64 72.4916 -114.426 -129.485 71.5752 
-115.513 -129.143 70.6855 -116.665 -128.765 69.8213 -117.74 -128.336 68.7865 
-118.6 -127.798 67.6377 -119.346 -127.068 66.5958 -120.043 -126.195 65.6385 
-112.463 -129.206 74.6393 -112.979 -129.829 74.1017 -113.151 -129.657 75.3202 
-113.895 -130.152 74.7433 -114.575 -129.967 75.8068 -113.998 -130.005 73.1863 
-115.363 -130.412 74.9665 -116.32 -130.126 75.8537 -115.036 -130.315 73.6533 
-115.19 -129.853 72.0503 -117.082 -130.703 74.5656 -118.057 -130.288 75.3724 
-116.437 -130.759 73.642 -116.274 -130.326 72.3545 -116.395 -129.595 71.0038 
-118.86 -131.027 73.9812 -119.663 -130.557 74.731 -118.065 -131.196 73.3242 
-117.607 -130.832 72.4493 -117.47 -130.122 71.1981 -117.544 -129.273 69.956 
-120.397 -131.351 73.5157 -120.973 -130.776 74.0665 -119.692 -131.505 73.0471 
-119.095 -131.082 72.4517 -118.708 -130.419 71.2804 -118.49 -129.755 69.8596 
-118.475 -128.894 68.6733 -121.538 -131.496 72.8974 -122.02 -130.723 73.3012 
-120.985 -131.781 72.4912 -120.475 -131.306 72.0417 -120.031 -130.512 71.0861 
-119.584 -129.958 69.6347 -119.279 -129.349 68.3436 -119.244 -128.321 67.4166 
-122.518 -131.262 72.1537 -122.96 -130.408 72.5309 -122.019 -131.804 71.6053 
-121.589 -131.596 71.0318 -121.234 -130.776 70.3072 -120.774 -130.064 69.2096 
-120.287 -129.53 68.0157 -120.04 -128.655 67.0996 -120.018 -127.428 66.3758 
-123.48 -130.726 71.4593 -123.815 -129.98 71.7921 -123.036 -131.356 70.8161 
-122.598 -131.508 70.0249 -122.259 -130.978 69.2906 -121.878 -130.185 68.5363 
-121.38 -129.524 67.6536 -120.995 -128.728 66.8053 -120.83 -127.598 66.0921 
-120.735 -126.395 65.406 -112.583 -128.23 74.483 -112.826 -128.671 75.3723 
-113.294 -127.755 74.8505 -113.901 -128.018 75.8726 -114.411 -127.374 74.8546 
-113.946 -129.125 76.0491 -115.196 -127.337 76.1574 -115.518 -127.013 74.4133 
-115.269 -128.327 76.7379 -115.68 -129.429 76.5835 -116.228 -126.862 75.6486 
-116.524 -126.742 73.232 -116.366 -127.483 77.0833 -116.861 -128.638 77.265 
-117.411 -129.592 76.6381 -117.293 -126.784 73.9783 -117.632 -126.553 71.549 
-117.196 -127 76.2246 -117.654 -127.841 77.2107 -118.319 -128.945 77.054 
-118.974 -129.793 76.0957 -118.509 -126.688 71.9538 -118.641 -126.057 70.0979 
-118.299 -126.866 74.2559 -118.469 -127.231 75.939 -119.046 -128.145 76.5 
-119.708 -129.149 76.2112 -120.384 -129.981 75.2494 -119.415 -126.03 70.4001 
-119.325 -125.077 69.0976 -119.411 -126.545 72.1911 -119.499 -126.792 73.9946 
-119.875 -127.293 75.0831 -120.425 -128.171 75.4157 -121.033 -129.097 75.105 
-121.609 -129.943 74.2694 -120.024 -124.941 69.2479 -119.911 -123.932 68.2331 
-120.171 -125.746 70.519 -120.357 -126.268 72.0448 -120.653 -126.675 73.3216 
-121.105 -127.246 74.027 -121.683 -128.023 74.2283 -122.253 -128.873 73.9305 
-122.679 -129.701 73.2808 -120.678 -123.835 68.2053 -120.586 -122.896 67.3171 
-120.831 -124.686 69.1783 -121.053 -125.419 70.3777 -121.315 -126.042 71.5828 
[...]
CELL_DATA 2000
SCALARS Distance double
LOOKUP_TABLE default
170.686 170.595 171.037 171.849 170.539 170.969 171.832 172.27 173.187 
170.644 171.008 171.923 172.317 173.298 173.73 174.769 170.899 171.217 
172.171 172.514 173.545 173.935 175.04 175.441 176.532 171.251 171.535 
172.53 172.848 173.926 174.28 175.424 175.793 176.926 177.264 178.31 
171.777 171.975 173.004 173.275 174.4 174.734 175.918 176.254 177.404 
177.707 178.768 179.033 179.987 172.515 172.627 173.662 173.84 174.967 
175.256 176.458 176.786 177.946 178.228 179.28 179.517 180.465 180.67 
181.516 173.335 173.43 174.451 174.57 175.644 175.861 177.006 177.313 
178.436 178.74 179.756 180.013 180.924 181.139 181.958 182.13 182.857 
174.105 174.221 175.192 175.327 176.316 176.513 177.546 177.822 178.845 
179.153 180.093 180.392 181.244 181.519 182.298 182.522 183.219 183.382 
184 169.935 168.679 169.476 169.785 167.25 168.098 168.383 169.273 
169.652 165.831 166.625 166.884 167.793 168.219 169.187 169.711 164.532 
165.281 165.552 166.361 166.808 167.755 168.349 169.336 169.951 163.159 
163.995 164.315 165.122 165.549 166.426 166.997 167.973 168.626 169.617 
170.281 161.76 162.6 162.967 163.845 164.274 165.171 165.684 166.635 
167.261 168.277 169.004 170.017 170.789 160.744 161.381 161.82 162.565 
163.06 163.891 164.439 165.336 165.973 166.948 167.718 168.758 169.629 
170.646 171.523 160.182 160.642 161.145 161.686 162.242 162.87 163.482 
164.219 164.913 165.77 166.57 167.543 168.448 169.493 170.441 171.454 
172.351 159.828 160.209 160.698 161.175 161.732 162.258 162.865 163.461 
164.145 164.859 165.635 166.489 167.353 168.339 169.287 170.344 171.309 
172.304 173.172 159.814 160.097 160.136 160.64 160.719 160.512 160.997 
161.085 161.7 161.951 161.382 161.774 161.595 162.231 162.246 162.886 
163.58 162.842 163.135 162.635 163.171 162.944 163.592 163.518 164.181 
165.121 164.464 164.706 164.113 164.498 164.055 164.572 164.336 164.984 
164.904 165.643 166.587 165.962 166.246 165.648 165.994 165.437 165.847 
165.427 166.004 165.798 166.566 166.491 167.347 168.303 167.59 168.031 
167.312 167.788 167.068 167.574 166.91 167.543 167.058 167.897 167.611 
168.57 168.381 169.335 170.256 169.519 170.095 169.32 169.928 169.115 
169.768 168.946 169.703 168.963 169.885 169.303 170.331 169.884 170.891 
170.531 171.447 172.154 171.503 172.062 171.39 171.969 171.282 171.916 
171.213 171.932 171.242 172.073 171.454 172.369 171.827 172.727 172.237 
173.056 172.626 173.356 174.389 174.202 174.805 175.724 173.97 174.627 
175.555 176.049 176.824 173.661 174.364 175.255 175.788 176.51 177.052 
177.859 173.375 174.051 174.91 175.412 176.053 176.616 177.412 178.114 
179.058 173.21 173.825 174.741 175.152 175.81 176.208 176.973 177.614 
178.595 179.338 180.282 173.121 173.698 174.686 175.115 175.933 176.216 
177.038 177.397 178.367 178.924 179.928 180.543 181.434 173.106 173.625 
174.602 175.086 176.021 176.438 177.392 177.709 178.68 178.98 179.967 
180.359 181.324 181.784 182.669 173.191 173.657 174.616 175.041 175.959 
176.454 177.446 177.966 178.971 179.368 180.317 180.616 181.541 181.857 
182.739 183.091 183.852 173.296 173.775 174.763 175.138 176.015 176.41 
177.319 177.859 178.844 179.435 180.405 180.889 181.789 182.142 182.945 
183.227 183.891 184.165 184.688 174.817 176.105 175.614 175.874 177.236 
176.842 177.169 176.692 176.999 178.383 177.987 178.396 177.971 178.373 
177.878 178.228 179.674 179.252 179.706 179.245 179.691 179.243 179.659 
179.139 179.481 180.909 180.58 181.068 180.616 181.052 180.589 181.019 
180.537 180.897 180.361 180.665 182.023 181.759 182.305 181.944 182.412 
181.973 182.411 181.92 182.294 181.753 182.061 181.51 181.789 183.189 
182.892 183.465 183.143 183.653 183.284 183.747 183.313 183.703 183.174 
183.48 182.909 183.18 182.612 182.845 184.284 184.043 184.565 184.284 
184.75 184.441 184.871 184.546 184.938 184.529 184.836 184.317 184.557 
183.993 184.195 183.616 183.765 185.052 184.961 185.418 185.264 185.662 
185.429 185.781 185.532 185.892 185.622 185.944 185.566 185.797 185.307 
185.469 184.922 185.037 184.459 184.531 185.499 186.359 185.92 185.93 
187.458 186.879 186.848 186.338 186.224 188.663 188.031 187.92 187.317 
187.16 186.577 186.368 189.753 189.177 189.056 188.431 188.258 187.59 
187.364 186.725 186.498 190.754 190.234 190.177 189.575 189.44 188.748 
188.504 187.787 187.507 186.857 186.573 191.634 191.24 191.246 190.704 
190.57 189.909 189.606 188.892 188.505 187.836 187.452 186.839 186.441 
192.174 192.004 192.035 191.671 191.491 190.933 190.531 189.865 189.361 
188.714 188.229 187.636 187.171 186.588 186.107 192.375 192.367 192.4 
192.238 192.039 191.656 191.209 190.642 190.074 189.458 188.915 188.331 
187.826 187.257 186.742 186.174 185.651 192.397 192.455 192.473 192.426 
192.237 192.013 191.594 191.173 190.611 190.079 189.506 188.957 188.413 
187.865 187.313 186.759 186.196 185.656 185.114 185.384 185.54 185.677 
186.231 185.9 185.944 186.55 186.7 187.407 186.274 186.367 187.012 
187.15 187.927 188.035 188.719 186.386 186.637 187.276 187.557 188.342 
188.574 189.284 189.321 189.841 186.33 186.644 187.238 187.62 188.345 
188.785 189.511 189.778 190.317 190.343 190.774 186.191 186.567 187.127 
187.484 188.089 188.569 189.245 189.748 190.333 190.634 191.057 191.17 
191.544 185.757 186.304 186.841 187.287 187.782 188.228 188.762 189.301 
189.85 190.38 190.824 191.199 191.522 191.752 192.013 185.065 185.696 
186.203 186.801 187.262 187.797 188.234 188.754 189.198 189.757 190.189 
190.727 191.076 191.495 191.744 192.03 192.199 184.399 184.969 185.452 
186.054 186.522 187.131 187.576 188.143 188.544 189.08 189.468 190.019 
190.395 190.914 191.215 191.626 191.829 192.117 192.235 173.694 174.82 
174.598 175.188 175.9 175.705 176.298 176.003 176.455 176.975 176.76 
177.383 177.116 177.608 177.242 177.711 178.243 177.918 178.595 178.275 
178.867 178.468 178.988 178.598 179.19 179.668 179.302 180.017 179.635 
180.323 179.876 180.493 180.005 180.626 180.201 180.824 180.966 180.699 
181.409 181.092 181.802 181.416 182.098 181.623 182.266 181.756 182.358 
181.85 182.33 182.046 181.881 182.589 182.384 183.073 182.809 183.469 
183.145 183.757 183.351 183.856 183.371 183.746 183.212 183.474 182.991 
182.88 183.6 183.474 184.165 183.97 184.569 184.334 184.857 184.604 
185.003 184.66 184.88 184.449 184.573 184.131 184.267 183.805 183.747 
184.437 184.401 185.09 184.979 185.533 185.318 185.737 185.512 185.847 
185.591 185.768 185.4 185.437 185.041 185.098 184.766 184.914 172.808 
171.799 172.865 173.973 170.967 171.943 173.131 174.095 175.136 170.372 
171.247 172.461 173.369 174.495 175.298 176.276 169.812 170.663 171.86 
172.782 173.96 174.764 175.816 176.525 177.549 169.269 170.037 171.156 
172.128 173.346 174.255 175.381 176.138 177.211 177.913 178.973 168.896 
169.491 170.48 171.377 172.608 173.604 174.834 175.702 176.83 177.581 
178.643 179.332 180.294 168.726 169.171 170.039 170.753 171.918 172.876 
174.171 175.133 176.327 177.155 178.215 178.95 179.905 180.56 181.397 
168.696 169.061 169.865 170.397 171.437 172.244 173.492 174.46 175.685 
176.59 177.654 178.45 179.407 180.126 180.998 181.614 182.375 168.721 
169.067 169.842 170.275 171.196 171.826 172.948 173.807 175.012 175.923 
177.009 177.836 178.8 179.575 180.489 181.193 182.011 182.577 183.251 
168.961 169.721 169.595 170.13 170.629 170.44 171.061 170.877 171.51 
171.861 171.508 172.191 171.933 172.68 172.441 173.248 173.396 172.921 
173.616 173.239 174.068 173.766 174.655 174.376 175.281 174.967 174.51 
175.183 174.765 175.588 175.267 176.18 175.869 176.739 176.429 177.247 
176.433 176.037 176.702 176.304 177.067 176.768 177.642 177.375 178.203 
177.877 178.623 178.302 179.028 177.815 177.475 178.163 177.785 178.518 
178.197 179.015 178.759 179.567 179.278 180.016 179.686 180.405 180.068 
180.755 179.077 178.817 179.527 179.213 179.941 179.624 180.398 180.11 
180.883 180.596 181.333 181.042 181.762 181.455 182.124 181.76 182.313 
180.199 180.012 180.719 180.494 181.203 180.965 181.698 181.449 182.167 
181.889 182.569 182.3 182.969 182.723 183.338 183.047 183.533 183.163 
183.536 181.044 182.513 181.711 181.574 184.008 183.194 183.055 182.237 
182.091 185.599 184.738 184.643 183.773 183.656 182.791 182.637 187.337 
186.426 186.359 185.436 185.315 184.404 184.239 183.337 183.117 188.988 
188.149 188.018 187.14 186.95 186.047 185.813 184.916 184.659 183.762 
183.492 190.268 189.6 189.381 188.638 188.369 187.558 187.252 186.409 
186.107 185.253 184.973 184.109 183.855 191.161 190.657 190.418 189.81 
189.512 188.814 188.479 187.728 187.399 186.621 186.308 185.514 185.222 
184.427 184.157 191.762 191.401 191.184 190.704 190.404 189.82 189.464 
188.821 188.47 187.799 187.45 186.737 186.372 185.651 185.302 184.602 
184.27 192.139 191.898 191.707 191.353 191.065 190.595 190.226 189.679 
189.297 188.731 188.366 187.757 187.368 186.696 186.294 185.621 185.246 
184.595 184.23 180.957 181.351 181.614 182.502 181.824 182.095 183.066 
183.21 184.035 182.305 182.615 183.617 183.796 184.649 184.744 185.577 
182.628 183.031 184.01 184.286 185.149 185.334 186.232 186.38 187.313 
182.714 183.188 184.095 184.514 185.39 185.751 186.757 187.054 188.117 
188.226 189.091 182.642 183.112 183.904 184.414 185.295 185.854 186.973 
187.517 188.725 189.028 189.966 189.918 190.483 182.466 182.926 183.622 
184.131 185.006 185.661 186.841 187.594 188.881 189.468 190.464 190.658 
191.21 191.082 191.371 182.194 182.675 183.363 183.851 184.725 185.372 
186.553 187.366 188.639 189.401 190.4 190.876 191.447 191.587 191.857 
191.769 191.92 181.9 182.394 183.133 183.621 184.495 185.112 186.237 
187.031 188.231 189.026 189.977 190.589 191.174 191.556 191.87 192.031 
192.192 192.169 192.252 180.034 178.68 179.659 180.32 177.358 178.297 
178.902 179.945 180.705 175.989 176.989 177.574 178.547 179.225 180.339 
181.147 174.363 175.503 176.126 177.196 177.796 178.851 179.551 180.733 
181.488 172.679 173.769 174.359 175.575 176.181 177.331 177.92 179.084 
179.787 181.009 181.675 171.241 172.149 172.62 173.739 174.33 175.557 
176.158 177.371 178.036 179.288 180.035 181.2 181.77 169.933 170.778 
171.177 172.111 172.622 173.724 174.351 175.56 176.27 177.534 178.315 
179.564 180.255 181.295 181.708 168.655 169.481 169.9 170.751 171.221 
172.159 172.754 173.845 174.582 175.798 176.592 177.845 178.553 179.713 
180.203 181.157 181.435 167.554 168.288 168.75 169.537 170.025 170.858 
171.414 172.372 173.069 174.187 174.97 176.158 176.86 178.002 178.52 
179.561 179.913 180.833 181.098 167.179 167.082 167.533 168.371 167.019 
167.472 168.329 168.777 169.645 167.048 167.446 168.333 168.763 169.665 
170.1 171.036 167.384 167.627 168.548 168.855 169.801 170.182 171.201 
171.62 172.696 167.974 168.138 169.089 169.256 170.213 170.451 171.515 
171.884 173.052 173.444 174.6 168.52 168.721 169.652 169.857 170.785 
170.975 172.001 172.304 173.479 173.858 175.02 175.37 176.442 169.028 
169.188 170.042 170.307 171.199 171.473 172.443 172.781 173.908 174.303 
175.428 175.766 176.757 177.084 178.02 169.66 169.708 170.498 170.672 
171.54 171.803 172.749 173.115 174.204 174.659 175.775 176.15 177.104 
177.375 178.228 178.547 179.399 170.358 170.37 171.127 171.207 172.056 
172.215 173.143 173.415 174.458 174.882 175.992 176.43 177.419 177.719 
178.553 178.792 179.596 179.884 180.663 170.956 172.17 171.628 171.788 
173.552 172.956 173.194 172.567 172.756 175.134 174.462 174.758 174.087 
174.335 173.632 173.859 176.867 176.142 176.455 175.744 176.051 175.314 
175.59 174.84 175.167 178.618 177.906 178.224 177.498 177.831 177.095 
177.42 176.653 176.99 176.254 176.655 180.275 179.628 179.962 179.27 
179.606 178.893 179.226 178.49 178.812 178.078 178.414 177.727 178.052 
181.78 181.222 181.574 180.961 181.306 180.643 180.971 180.268 180.569 
179.849 180.139 179.437 179.703 179.006 179.207 183.106 182.644 183.006 
182.494 182.858 182.283 182.627 181.978 182.279 181.574 181.845 181.13 
181.382 180.658 180.854 180.101 180.25 184.248 183.879 184.243 183.831 
184.201 183.739 184.096 183.559 183.874 183.243 183.504 182.812 183.04 
182.325 182.506 181.759 181.881 181.125 181.249 181.997 182.662 182.654 
183.295 183.35 183.384 184.126 184.046 184.758 183.947 184.076 184.939 
184.955 185.822 185.705 186.567 184.426 184.641 185.559 185.727 186.681 
186.759 187.707 187.631 188.502 184.76 185.051 185.934 186.227 187.152 
187.438 188.369 188.56 189.382 189.4 190.08 184.936 185.285 186.112 
186.47 187.321 187.71 188.579 188.951 189.734 189.974 190.589 190.678 
191.159 185.001 185.379 186.179 186.562 187.372 187.772 188.592 189.009 
189.782 190.134 190.767 190.983 191.458 191.546 191.874 184.998 185.388 
186.157 186.57 187.346 187.764 188.526 188.954 189.685 190.096 190.742 
191.062 191.566 191.747 192.082 192.122 192.278 184.945 185.332 186.04 
186.476 187.185 187.642 188.319 188.785 189.428 189.9 190.511 190.942 
191.463 191.768 192.123 192.257 192.418 192.4 192.397 159.432 159.72 
159.351 159.02 160.315 159.752 159.38 159.018 158.869 161.401 160.594 
160.26 159.61 159.438 159.06 159.153 162.864 161.947 161.663 160.783 
160.639 159.944 160.01 159.597 159.916 164.334 163.504 163.293 162.371 
162.244 161.392 161.454 160.767 161.018 160.581 161.064 165.719 164.971 
164.86 164.014 163.901 163.055 163.077 162.328 162.515 161.893 162.252 
161.861 162.443 167.131 166.394 166.335 165.549 165.455 164.654 164.622 
163.892 164.002 163.374 163.642 163.142 163.585 163.277 163.87 168.506 
167.806 167.733 166.999 166.929 166.171 166.146 165.399 165.463 164.796 
165.01 164.482 164.861 164.463 164.953 164.668 165.198 169.734 169.103 
169.017 168.347 168.31 167.627 167.677 166.954 167.051 166.307 166.477 
165.846 166.174 165.717 166.163 165.797 166.263 165.949 166.414 159.265 
158.939 159.102 159.307 158.847 158.914 159.238 159.467 160.037 159.138 
159.022 159.417 159.565 160.241 160.484 161.213 159.865 159.532 159.921 
159.921 160.634 160.806 161.567 161.732 162.386 161.002 160.468 160.805 
160.592 161.241 161.283 162.022 162.135 162.788 162.875 163.476 162.418 
161.774 162.078 161.643 162.172 161.983 162.62 162.618 163.258 163.315 
163.917 163.99 164.613 163.852 163.233 163.503 162.991 163.399 163.014 
163.5 163.295 163.871 163.836 164.451 164.475 165.073 165.138 165.742 
165.133 164.584 164.786 164.324 164.633 164.22 164.582 164.248 164.717 
164.545 165.13 165.071 165.658 165.636 166.193 166.234 166.8 166.319 
165.788 165.948 165.496 165.758 165.358 165.68 165.317 165.726 165.461 
165.984 165.826 166.37 166.261 166.769 166.722 167.243 167.28 167.831 
159.484 159.53 159.544 159.835 160.273 159.925 160.197 160.092 160.562 
161.416 160.922 161.195 160.817 161.288 161.137 161.864 162.529 162.077 
162.339 161.949 162.407 162.123 162.791 162.683 163.507 163.628 163.171 
163.443 163.063 163.509 163.242 163.857 163.69 164.39 164.317 165.046 
164.821 164.351 164.688 164.237 164.677 164.329 164.897 164.692 165.327 
165.192 165.822 165.748 166.45 165.965 165.569 165.95 165.539 165.962 
165.552 166.028 165.723 166.289 166.099 166.697 166.554 167.211 167.18 
168.03 167.003 166.66 167.022 166.707 167.099 166.765 167.168 166.842 
167.333 167.087 167.684 167.484 168.147 168.018 168.837 168.881 169.891 
168.022 167.674 168.002 167.692 168.05 167.772 168.171 167.901 168.403 
168.161 168.803 168.572 169.29 169.065 169.867 169.769 170.725 170.803 
171.819 179.579 178.45 178.764 178.24 177.18 177.555 177.007 177.378 
176.878 175.787 176.195 175.582 176.019 175.456 175.944 175.424 174.32 
174.745 174.076 174.506 173.878 174.391 173.827 174.372 173.797 172.752 
173.218 172.555 172.988 172.355 172.815 172.274 172.773 172.26 172.739 
172.214 171.21 171.626 170.998 171.461 170.885 171.347 170.834 171.302 
170.832 171.292 170.827 171.271 170.827 169.982 170.211 169.597 169.969 
169.453 169.907 169.415 169.881 169.373 169.856 169.352 169.862 169.385 
169.905 169.474 169.106 169.178 168.562 168.753 168.248 168.577 168.103 
168.488 167.957 168.376 167.832 168.324 167.828 168.378 167.938 168.514 
168.147 168.401 168.419 167.813 167.883 167.361 167.535 167.051 167.291 
166.769 167.05 166.53 166.894 166.452 166.894 166.521 167.016 166.705 
167.26 167.034 
POINT_DATA 1002
SCALARS Distance double
LOOKUP_TABLE default
171.453 170.346 170.262 171.4 170.127 172.698 171.385 170.108 172.716 
174.152 171.535 170.294 172.855 174.327 175.831 171.828 170.581 173.157 
174.628 176.17 177.601 172.203 170.975 173.566 175.062 176.587 178.026 
179.308 172.753 171.609 174.06 175.58 177.118 178.512 179.77 180.889 
173.524 172.417 174.713 176.132 177.666 179.059 180.273 181.357 182.307 
174.354 173.238 175.479 176.745 178.147 179.502 180.712 181.791 182.731 
183.536 175.074 174.007 176.153 177.32 178.58 179.815 180.967 182.059 
183.047 183.882 184.585 169.2 168.97 167.869 167.457 166.427 168.724 
165.996 165.075 167.202 168.734 164.774 163.748 165.89 167.334 168.983 
163.467 162.264 164.706 166.056 167.606 169.293 162.072 160.945 163.365 
164.755 166.247 167.935 169.788 161.129 160.16 162.261 163.555 165.011 
166.667 168.555 170.546 160.641 159.751 161.671 162.797 164.096 165.637 
167.411 169.381 171.4 160.238 159.498 161.219 162.31 163.493 164.85 
166.423 168.229 170.253 172.275 159.708 160.465 160.121 160.954 161.087 
161.575 162.111 162.661 162.262 162.858 163.762 164.322 163.539 163.716 
164.205 165.315 165.731 165.048 164.915 165.089 165.66 166.841 167.19 
166.586 166.353 166.279 166.647 167.393 168.741 168.98 168.512 168.269 
168.101 168.251 168.796 169.527 170.839 170.951 170.708 170.566 170.468 
170.541 170.867 171.336 171.816 172.722 172.792 172.626 172.575 172.61 
172.724 172.962 173.286 173.566 173.79 175.373 175.256 176.548 175.067 
176.349 177.582 174.747 175.957 177.23 178.769 174.454 175.54 176.666 
178.345 180.065 174.31 175.474 176.421 177.835 179.609 181.178 174.187 
175.575 176.758 177.939 179.332 180.848 182.28 174.122 175.507 176.989 
178.433 179.673 180.9 182.228 183.504 174.229 175.504 176.874 178.481 
180.003 181.28 182.449 183.547 184.51 174.377 175.688 176.861 178.228 
179.827 181.39 182.701 183.69 184.443 185.115 176.4 177.584 177.529 
178.802 178.807 178.79 180.191 180.132 180.139 180.054 181.489 181.529 
181.5 181.423 181.219 182.614 182.818 182.895 182.843 182.62 182.348 
183.785 184 184.145 184.208 184.064 183.762 183.434 184.842 185.071 
185.181 185.29 185.32 185.128 184.785 184.37 185.533 185.881 186.037 
186.13 186.26 186.255 186.011 185.614 185.129 185.851 186.379 186.849 
187.41 188.118 186.758 188.568 189.308 187.786 186.941 189.661 190.294 
188.944 188.049 187.107 190.753 191.222 190.124 189.256 188.209 187.207 
191.752 191.932 191.239 190.351 189.215 188.094 187.059 192.331 192.263 
192.025 191.212 190.034 188.838 187.758 186.698 192.511 192.355 192.361 
191.736 190.685 189.507 188.402 187.32 186.212 192.502 192.337 192.41 
191.946 191.104 190.049 188.965 187.875 186.749 185.63 185.187 185.995 
185.439 186.4 185.862 187.257 186.843 186.121 187.795 188.734 186.951 
186.095 188.037 189.195 189.927 186.895 186.009 187.876 189.125 190.216 
190.812 186.807 185.762 187.689 188.709 189.907 190.879 191.483 186.349 
185.165 187.373 188.292 189.292 190.357 191.239 191.847 185.578 184.455 
186.686 187.732 188.683 189.625 190.589 191.405 191.983 184.877 183.868 
185.902 186.981 188.019 188.936 189.847 190.753 191.492 192.015 173.916 
175.507 175.042 176.573 176.092 176.822 177.625 177.218 177.96 178.05 
178.919 178.599 179.247 179.401 179.521 180.394 180.017 180.743 180.985 
181.1 181.261 181.693 181.193 182.146 182.524 182.79 182.912 182.905 
182.762 182.188 183.318 183.762 184.128 184.357 184.303 184.037 183.695 
183.095 184.347 184.834 185.117 185.333 185.327 185.016 184.672 171.717 
172.966 170.717 172.149 170.039 174.28 171.556 169.524 173.68 175.529 
170.912 169.003 173.114 175.089 176.839 170.196 168.611 172.36 174.565 
176.494 178.308 169.671 168.41 171.577 173.888 176.052 177.949 179.677 
169.436 168.333 171.012 173.166 175.463 177.471 179.231 180.813 169.415 
168.341 170.745 172.557 174.754 176.843 178.655 180.339 181.846 169.448 
168.376 170.666 172.177 174.111 176.175 178.014 179.735 181.399 182.794 