# vtk DataFile Version 4.0
vtk output
ASCII
DATASET POLYDATA
POINTS 1002 float
-119.618 -111.015 52.4455 -119.157 -109.955 51.4002 -118.642 -110.241 51.8171 
-119.132 -111.326 52.9789 -118.159 -110.566 52.333 -119.993 -112.184 53.6112 
-118.667 -111.733 53.5781 -117.707 -110.988 52.9238 -119.54 -112.56 54.2809 
-120.251 -113.53 54.9777 -118.226 -112.253 54.2806 -117.208 -111.547 53.6099 
-119.092 -113.107 54.9837 -119.84 -114.066 55.7484 -120.473 -115.201 56.4143 
-117.75 -112.868 55.1226 -116.732 -112.197 54.4 -118.64 -113.807 55.7953 
-119.405 -114.816 56.5422 -120.087 -115.959 57.2249 -120.69 -117.143 57.7877 
-117.343 -113.596 56.023 -116.455 -112.907 55.2914 -118.158 -114.645 56.675 
-118.922 -115.758 57.3836 -119.626 -116.87 58.086 -120.256 -118.002 58.6942 
-120.833 -118.98 59.3087 -117.095 -114.491 56.9395 -116.304 -113.73 56.2403 
-117.751 -115.619 57.5523 -118.397 -116.814 58.2202 -119.068 -117.904 58.9307 
-119.702 -118.927 59.6166 -120.306 -119.81 60.3121 -120.85 -120.576 60.9567 
-116.834 -115.494 57.8912 -116.105 -114.675 57.1951 -117.41 -116.646 58.4884 
-117.924 -117.831 59.1358 -118.469 -118.897 59.8162 -119.043 -119.904 60.4784 
-119.657 -120.735 61.2188 -120.243 -121.427 61.9078 -120.705 -122.145 62.3654 
-116.473 -116.468 58.8457 -115.87 -115.669 58.1366 -116.988 -117.588 59.4582 
-117.465 -118.73 60.1215 -117.93 -119.727 60.8286 -118.386 -120.763 61.4271 
-118.935 -121.694 62.0683 -119.546 -122.359 62.7798 -120.043 -122.991 63.2696 
-120.413 -123.666 63.5042 -116.112 -117.375 59.7046 -115.647 -116.642 58.9881 
-116.515 -118.412 60.3468 -116.943 -119.541 61.0048 -117.401 -120.504 61.7519 
-117.799 -121.483 62.4136 -118.233 -122.492 62.9779 -118.801 -123.224 63.6214 
-119.339 -123.77 64.1843 -119.729 -124.361 64.4619 -120.07 -124.914 64.5803 
-118.326 -109.095 50.5607 -117.779 -109.394 50.9893 -117.503 -108.181 49.6955 
-116.957 -108.507 50.1335 -116.742 -107.238 48.8727 -117.273 -109.753 51.5255 
-116.173 -107.587 49.4147 -116.002 -106.298 48.1862 -116.375 -108.951 50.7328 
-116.713 -110.287 52.1293 -115.405 -106.614 49.0075 -115.375 -105.364 47.8664 
-115.513 -108.066 50.2001 -115.696 -109.618 51.3702 -116.109 -111.023 52.7711 
-114.706 -105.691 48.8736 -114.867 -104.492 47.9736 -114.727 -107.07 49.9462 
-114.871 -108.72 50.9183 -115.124 -110.446 52.0042 -115.686 -111.794 53.5588 
-113.98 -104.945 48.8202 -114.198 -103.727 48.2009 -113.927 -106.25 49.7087 
-114.159 -107.728 50.6991 -114.442 -109.497 51.6646 -114.807 -111.212 52.9036 
-115.499 -112.514 54.556 -113.222 -104.336 48.8374 -113.38 -103.09 48.373 
-113.099 -105.683 49.5578 -113.299 -107.075 50.5411 -113.753 -108.562 51.6422 
-114.148 -110.234 52.7322 -114.625 -111.885 54.0095 -115.371 -113.31 55.595 
-112.69 -103.852 49.118 -112.769 -102.656 48.7083 -112.528 -105.18 49.7908 
-112.501 -106.624 50.6545 -112.871 -108.017 51.7122 -113.445 -109.344 52.7993 
-113.945 -110.907 53.8131 -114.523 -112.672 55.0534 -115.253 -114.278 56.6124 
-112.437 -103.537 49.8046 -112.475 -102.457 49.4352 -112.313 -104.73 50.4338 
-112.117 -106.111 51.1608 -112.159 -107.582 51.9719 -112.652 -108.816 52.8899 
-113.324 -110.015 53.7923 -113.92 -111.71 54.7877 -114.533 -113.676 56.1226 
-115.169 -115.338 57.6383 -112.263 -103.023 50.7924 -112.202 -104.102 51.2725 
-111.934 -103.585 52.479 -111.895 -104.749 52.8229 -111.658 -104.291 53.9564 
-112.052 -105.369 51.8593 -111.711 -105.741 54.3401 -111.751 -105.431 55.466 
-111.795 -106.247 53.3244 -111.852 -106.913 52.4924 -111.75 -107.049 56.2807 
-111.992 -106.746 57.462 -111.643 -107.47 55.1157 -111.69 -107.933 54.0013 
-112.004 -108.401 53.2094 -112.018 -108.182 58.0232 -112.391 -107.833 58.9139 
-111.767 -108.677 57.04 -111.78 -109.086 55.8224 -112.115 -109.309 54.6499 
-112.697 -109.546 53.995 -113.009 -109.202 58.4977 -113.573 -108.978 58.9344 
-112.589 -109.669 58.0129 -112.485 -110.185 57.2477 -112.691 -110.425 56.223 
-113.077 -110.569 55.3763 -113.506 -111.012 54.9337 -114.636 -110.613 58.4941 
-115.242 -110.508 58.6051 -114.078 -110.912 58.3707 -113.793 -111.405 58.0392 
-113.741 -111.792 57.5053 -113.754 -112.047 56.9761 -113.872 -112.518 56.5309 
-114.139 -113.172 56.216 -115.881 -112.399 59.1474 -116.375 -112.261 59.0483 
-115.302 -112.634 59.2366 -114.872 -113.022 59.0783 -114.645 -113.419 58.7293 
-114.383 -113.757 58.4516 -114.176 -114.271 58.2115 -114.299 -114.906 57.9089 
-114.69 -115.288 57.6847 -116.334 -114.258 60.2484 -116.73 -114.031 60.0731 
-115.789 -114.543 60.4393 -115.266 -114.907 60.4164 -114.949 -115.27 60.1486 
-114.653 -115.566 59.855 -114.289 -115.986 59.5919 -114.232 -116.553 59.2985 
-114.622 -116.897 59.0776 -115.163 -116.852 59.0025 -115.632 -118.067 60.1769 
-115.076 -118.389 60.137 -115.412 -119.732 61.3909 -114.438 -118.554 60.1578 
-114.764 -120.163 61.358 -114.987 -121.558 62.9091 -114.108 -118.323 60.4895 
-114.15 -120.429 61.532 -114.255 -122.009 63.0858 -114.336 -123.154 64.6397 
-114.331 -117.907 61.0123 -114.025 -120.315 62.1965 -113.686 -122.202 63.5638 
-113.472 -123.394 64.9479 -113.548 -124.307 66.0612 -114.701 -117.59 61.3753 
-114.347 -119.992 62.8725 -113.611 -121.96 64.3967 -112.783 -123.22 65.4902 
-112.61 -124.264 66.3327 -112.981 -125.352 67.3507 -114.989 -117.256 61.5456 
-114.683 -119.615 63.0125 -113.899 -121.497 64.8827 -112.612 -122.658 66.2094 
-111.968 -123.754 66.8855 -112.277 -125.237 67.8058 -112.837 -126.504 69.0825 
-115.465 -116.826 61.5828 -115.126 -119.16 62.8309 -114.426 -121.045 64.7291 
-113.056 -122.171 66.5535 -112.053 -123.124 67.5518 -112.132 -124.685 68.4921 
-112.567 -126.408 69.7871 -112.861 -127.452 70.9644 -116.078 -116.42 61.4533 
-115.794 -118.707 62.6081 -115.238 -120.662 64.3192 -114 -121.953 66.3918 
-112.832 -122.897 67.8375 -112.661 -124.214 68.954 -112.934 -125.906 70.3597 
-112.913 -127.237 71.6614 -112.786 -127.908 72.5291 -116.556 -116.069 61.2634 
-116.394 -118.306 62.3809 -116.069 -120.333 63.8622 -115.097 -121.809 65.9116 
-113.888 -122.908 67.6733 -113.444 -124.102 68.9088 -113.597 -125.502 70.3481 
-113.472 -126.721 71.9391 -112.986 -127.476 73.1421 -112.621 -127.922 73.9073 
-115.982 -118.99 60.9687 -115.691 -120.826 62.3825 -116.315 -120.164 61.7031 
-115.187 -122.646 64.0398 -115.967 -122.034 63.209 -116.73 -121.28 62.4521 
-114.459 -124.099 65.6424 -115.344 -123.772 64.8204 -116.278 -123.151 63.9529 
-117.141 -122.279 63.2356 -113.802 -125.229 67.0686 -114.625 -125.093 66.4469 
-115.575 -124.819 65.5734 -116.632 -124.134 64.7687 -117.534 -123.282 63.9347 
-113.513 -126.304 68.7398 -114.268 -126.049 68.2155 -115.058 -125.937 67.3899 
-116.057 -125.564 66.477 -117.146 -124.839 65.5704 -118.069 -124.047 64.5979 
-113.395 -127.293 70.5855 -114.228 -126.895 70.0728 -114.99 -126.702 69.2628 
-115.748 -126.528 68.2455 -116.737 -125.996 67.2224 -117.788 -125.28 66.2222 
-118.657 -124.562 65.2008 -113.156 -128.003 72.1676 -114.039 -127.758 71.6788 
-114.96 -127.517 70.9114 -115.648 -127.403 69.8517 -116.415 -127.076 68.7208 
-117.416 -126.448 67.6604 -118.365 -125.771 66.6305 -119.112 -125.105 65.5457 
-112.823 -128.332 73.5691 -113.602 -128.492 73.0705 -114.618 -128.42 72.3252 
-115.439 -128.29 71.2751 -116.16 -128.074 70.0956 -117.082 -127.612 68.957 
-118.061 -126.962 67.8845 -118.853 -126.297 66.8031 -119.491 -125.641 65.6648 
-112.456 -128.086 75.234 -112.929 -128.741 74.7337 -112.562 -128.309 76.4638 
-113.35 -129.142 75.6698 -113.314 -128.561 76.8612 -113.917 -129.116 73.9484 
-114.446 -129.387 75.8744 -114.985 -128.978 76.4142 -114.522 -129.519 74.5038 
-114.978 -129.084 72.8238 -116.142 -129.781 75.6455 -116.963 -129.66 76.0116 
-115.713 -129.686 74.5576 -115.685 -129.355 73.0486 -115.899 -128.829 71.5123 
-117.63 -130.319 75.3464 -118.392 -130.105 75.6093 -117.105 -130.095 74.3454 
-116.849 -129.557 72.9503 -116.808 -129.022 71.5688 -116.904 -128.47 70.2212 
-118.79 -130.36 74.5206 -119.605 -129.981 74.6212 -118.239 -130.383 73.7916 
-117.978 -129.985 72.5459 -117.912 -129.31 71.286 -117.94 -128.654 70.1316 
-117.978 -127.926 68.9767 -120.263 -130.002 73.2253 -121.121 -129.721 73.4041 
-119.558 -130.073 72.7294 -119.119 -130.026 71.7982 -118.893 -129.674 70.66 
-118.868 -128.937 69.6558 -118.894 -128.087 68.744 -118.85 -127.231 67.7769 
-121.897 -129.812 71.9605 -122.543 -129.589 72.2957 -121.215 -129.761 71.4478 
-120.632 -129.692 70.7487 -120.11 -129.654 69.8287 -119.775 -129.222 68.9241 
-119.707 -128.302 68.223 -119.65 -127.35 67.4887 -119.528 -126.522 66.5796 
-123.134 -129.706 70.7283 -123.48 -129.368 71.121 -122.667 -129.762 70.1401 
-122.164 -129.606 69.5135 -121.573 -129.449 68.8482 -120.968 -129.19 68.1426 
-120.632 -128.472 67.5765 -120.508 -127.454 67.0672 -120.333 -126.572 66.3178 
-120.144 -125.799 65.4003 -112.708 -127.443 74.9044 -112.443 -127.447 76.5244 
-113.096 -126.999 75.6278 -112.931 -126.942 77.2991 -113.872 -126.834 75.5416 
-112.632 -127.539 77.562 -114.079 -126.81 76.888 -115.068 -126.763 74.4588 
-113.447 -126.978 77.8353 -113.812 -127.842 77.2394 -115.682 -126.798 75.2919 
-116.332 -126.486 72.9086 -115.059 -126.762 77.0362 -115.125 -127.318 76.9977 
-115.992 -128.528 76.3408 -117.094 -126.671 73.2833 -117.275 -126.009 71.5354 
-116.855 -126.714 75.3522 -116.883 -126.97 76.3358 -117.402 -128.022 76.1194 
-118.029 -129.275 75.8984 -118.081 -126.337 71.5821 -118.078 -125.377 70.4171 
-118.142 -126.714 73.2488 -118.304 -126.811 74.9656 -118.658 -127.449 75.6727 
-119.075 -128.527 75.595 -119.368 -129.46 75.3 -118.984 -125.623 70.3171 
-118.998 -124.567 69.3246 -119.052 -126.396 71.4278 -119.217 -126.712 72.9817 
-119.524 -127.052 74.3485 -119.914 -127.706 74.8389 -120.324 -128.502 74.6962 
-120.733 -129.251 74.2158 -119.879 -124.602 69.2422 -119.878 -123.66 68.1968 
-119.927 -125.497 70.2028 -120.033 -126.136 71.3212 -120.293 -126.62 72.5403 
-120.699 -127.109 73.3874 -121.182 -127.651 73.6911 -121.72 -128.367 73.5943 
-122.204 -129.118 73.1288 -120.596 -123.564 68.1733 -120.553 -122.746 67.1382 
-120.705 -124.366 69.2114 -120.853 -125.071 70.2346 -121.1 -125.749 71.1576 
[...]
CELL_DATA 2000
SCALARS Distance double
LOOKUP_TABLE default
169.515 169.519 169.967 170.884 169.621 170.029 170.983 171.39 172.334 
169.833 170.206 171.201 171.569 172.574 172.932 173.946 170.142 170.484 
171.536 171.88 172.949 173.275 174.364 174.677 175.763 170.611 170.878 
171.983 172.299 173.442 173.748 174.89 175.181 176.307 176.574 177.634 
171.288 171.47 172.605 172.849 174.035 174.311 175.48 175.754 176.874 
177.136 178.183 178.414 179.366 172.074 172.227 173.366 173.562 174.728 
174.956 176.093 176.342 177.422 177.681 178.696 178.936 179.869 180.068 
180.907 172.856 173.005 174.099 174.307 175.415 175.64 176.703 176.928 
177.942 178.187 179.169 179.419 180.339 180.548 181.371 181.53 182.25 
173.609 173.737 174.739 174.952 175.985 176.24 177.243 177.481 178.431 
178.668 179.6 179.856 180.751 180.984 181.782 181.96 182.644 182.775 
183.364 168.609 167.202 168.126 168.584 165.795 166.713 167.183 168.131 
168.658 164.435 165.328 165.798 166.735 167.267 168.242 168.833 163.182 
164 164.468 165.373 165.901 166.858 167.457 168.458 169.116 162.13 
162.815 163.238 164.073 164.599 165.522 166.136 167.114 167.816 168.817 
169.576 161.199 161.807 162.139 162.885 163.385 164.263 164.902 165.852 
166.589 167.574 168.382 169.382 170.235 160.282 160.865 161.166 161.832 
162.31 163.116 163.778 164.685 165.442 166.395 167.208 168.209 169.086 
170.112 171.012 159.568 160.047 160.442 160.977 161.491 162.158 162.837 
163.65 164.415 165.299 166.086 167.041 167.911 168.954 169.906 170.938 
171.851 159.272 159.588 160.105 160.479 161.046 161.523 162.189 162.835 
163.584 164.351 165.113 165.964 166.805 167.797 168.791 169.857 170.876 
171.838 172.715 159.447 160.104 159.928 160.269 160.813 160.607 160.952 
160.79 161.193 161.837 161.429 161.813 161.542 161.965 161.778 162.296 
163.348 162.713 163.09 162.597 163.032 162.671 163.177 162.989 163.63 
164.917 164.297 164.616 164.045 164.444 163.924 164.382 163.995 164.576 
164.399 165.115 166.427 165.798 166.136 165.575 166.027 165.468 165.966 
165.4 165.968 165.531 166.25 166.012 166.85 168.283 167.485 167.953 
167.233 167.836 167.192 167.857 167.19 167.852 167.196 167.956 167.447 
168.352 167.993 168.942 170.384 169.57 170.119 169.301 169.947 169.203 
169.921 169.218 169.914 169.215 169.939 169.335 170.194 169.719 170.644 
170.225 171.093 172.287 171.634 172.162 171.459 172.019 171.323 171.93 
171.27 171.872 171.218 171.806 171.226 171.911 171.482 172.264 171.9 
172.648 172.26 172.919 173.916 173.703 174.312 175.284 173.366 174.058 
175.084 175.703 176.719 173.061 173.735 174.846 175.504 176.586 177.183 
178.156 173.013 173.583 174.8 175.391 176.538 177.077 178.012 178.495 
179.228 173.115 173.667 174.943 175.506 176.666 177.109 177.901 178.265 
178.846 179.325 179.965 173.178 173.761 175.007 175.638 176.761 177.228 
177.867 178.098 178.468 178.851 179.494 180.129 181.033 173.25 173.803 
175.001 175.622 176.729 177.238 177.897 178.061 178.373 178.549 179.197 
179.76 180.858 181.496 182.525 173.355 173.884 175.061 175.625 176.757 
177.24 178.057 178.206 178.673 178.676 179.36 179.706 180.88 181.47 
182.62 183.038 183.781 173.417 173.957 175.112 175.687 176.84 177.346 
178.287 178.516 179.147 179.155 179.841 180.044 181.114 181.605 182.728 
183.154 183.886 184.095 184.487 174.321 175.712 175.145 175.435 177.188 
176.599 176.928 176.332 176.67 178.613 178.108 178.461 177.87 178.206 
177.601 177.92 179.68 179.404 179.781 179.342 179.68 179.134 179.445 
178.836 179.109 180.525 180.337 180.79 180.509 180.9 180.509 180.859 
180.341 180.638 180.016 180.271 181.65 181.306 181.84 181.511 181.975 
181.645 182.057 181.663 182 181.494 181.762 181.161 181.385 183 
182.588 183.089 182.685 183.148 182.766 183.188 182.809 183.154 182.74 
183.012 182.54 182.757 182.203 182.367 184.073 183.804 184.207 183.904 
184.318 183.966 184.348 183.952 184.267 183.849 184.109 183.687 183.91 
183.452 183.615 183.083 183.183 184.707 184.606 184.977 184.846 185.26 
185.036 185.394 185.059 185.331 184.936 185.171 184.763 184.98 184.55 
184.717 184.24 184.337 183.811 183.861 185.039 185.729 185.399 185.437 
186.533 186.21 186.331 185.889 185.842 187.472 187.079 187.226 186.801 
186.743 186.226 186.002 188.752 188.16 188.222 187.682 187.554 187.04 
186.776 186.254 185.919 189.986 189.456 189.364 188.724 188.465 187.836 
187.524 186.977 186.667 186.131 185.778 190.561 190.324 190.119 189.689 
189.321 188.738 188.334 187.748 187.412 186.877 186.548 185.985 185.596 
190.814 190.616 190.384 190.123 189.767 189.396 188.974 188.495 188.08 
187.583 187.196 186.695 186.274 185.738 185.29 191.188 190.918 190.7 
190.365 190.061 189.725 189.384 189.004 188.604 188.159 187.72 187.254 
186.795 186.316 185.835 185.345 184.869 191.41 191.277 191.076 190.769 
190.478 190.106 189.793 189.407 189.048 188.625 188.195 187.735 187.267 
186.792 186.306 185.828 185.335 184.867 184.385 184.99 185.132 185.198 
185.578 185.404 185.389 185.684 185.806 186.281 185.741 185.733 185.994 
185.96 186.333 186.532 187.177 185.928 186.07 186.416 186.349 186.691 
186.71 187.373 187.642 188.53 185.834 186.171 186.654 186.756 187.183 
187.186 187.826 187.995 188.885 189.151 189.904 185.544 185.995 186.556 
186.876 187.381 187.586 188.168 188.406 189.111 189.422 190.044 190.261 
190.578 185.176 185.663 186.226 186.667 187.169 187.563 188.072 188.473 
188.993 189.394 189.849 190.189 190.518 190.691 190.871 184.729 185.24 
185.755 186.254 186.719 187.192 187.647 188.133 188.587 189.047 189.445 
189.847 190.214 190.545 190.878 191.031 191.245 184.183 184.708 185.168 
185.705 186.142 186.656 187.083 187.6 188.043 188.545 188.953 189.394 
189.761 190.18 190.541 190.908 191.17 191.354 191.431 173.799 175.011 
174.763 175.536 176.386 176.075 176.876 176.586 177.314 177.773 177.469 
178.207 177.925 178.593 178.273 178.74 179.04 178.78 179.427 179.158 
179.704 179.42 179.806 179.447 179.626 180.205 179.967 180.579 180.3 
180.784 180.456 180.835 180.469 180.771 180.287 180.495 181.276 181.063 
181.642 181.398 181.895 181.561 181.975 181.577 182.004 181.565 182.018 
181.432 181.849 182.213 182.042 182.558 182.373 182.87 182.637 183.097 
182.77 183.216 182.849 183.332 182.941 183.406 182.899 183.288 183.008 
182.892 183.392 183.229 183.72 183.546 184.048 183.833 184.302 184.013 
184.423 184.109 184.447 184.135 184.379 184.038 184.21 183.671 183.625 
184.159 184.042 184.548 184.389 184.898 184.73 185.215 185.003 185.378 
185.087 185.309 184.983 185.088 184.795 184.855 184.611 184.679 172.933 
172.029 173.019 174.133 171.183 172.188 173.385 174.34 175.529 170.337 
171.382 172.665 173.665 174.91 175.819 176.981 169.46 170.497 171.806 
172.931 174.254 175.234 176.421 177.259 178.312 168.695 169.593 170.833 
172.01 173.434 174.555 175.832 176.719 177.809 178.564 179.531 168.208 
168.886 170.004 171.053 172.512 173.717 175.142 176.136 177.303 178.088 
179.105 179.793 180.681 168.015 168.509 169.508 170.325 171.69 172.828 
174.317 175.426 176.687 177.569 178.614 179.365 180.297 180.925 181.691 
167.979 168.389 169.297 169.922 171.122 172.072 173.483 174.59 175.911 
176.9 177.998 178.83 179.78 180.495 181.299 181.866 182.504 167.969 
168.358 169.208 169.737 170.798 171.558 172.822 173.797 175.108 176.116 
177.297 178.19 179.195 179.953 180.788 181.42 182.09 182.608 183.157 
168.213 169.121 168.911 169.516 170.303 169.985 170.655 170.396 171.149 
171.668 171.299 172.006 171.68 172.486 172.214 173.128 173.104 172.732 
173.477 173.12 173.949 173.642 174.578 174.335 175.341 174.58 174.208 
174.985 174.626 175.457 175.138 176.073 175.821 176.822 176.584 177.532 
176.07 175.7 176.47 176.125 176.929 176.62 177.502 177.275 178.24 
178.039 178.946 178.677 179.447 177.531 177.173 177.9 177.567 178.324 
178.031 178.84 178.62 179.499 179.346 180.197 179.998 180.699 180.417 
181.001 178.915 178.594 179.284 178.95 179.66 179.369 180.135 179.9 
180.715 180.535 181.332 181.148 181.813 181.563 182.085 181.805 182.263 
180.153 179.908 180.585 180.283 180.952 180.664 181.393 181.156 181.934 
181.729 182.484 182.268 182.91 182.64 183.138 182.833 183.248 182.958 
183.335 181.018 182.462 181.674 181.486 183.921 183.143 183.001 182.132 
181.901 185.478 184.671 184.616 183.725 183.552 182.596 182.377 187.135 
186.307 186.282 185.398 185.256 184.301 184.091 183.122 182.917 188.566 
187.875 187.758 186.993 186.791 185.938 185.683 184.791 184.551 183.646 
183.418 189.48 189.016 188.816 188.247 187.993 187.302 186.998 186.231 
185.942 185.153 184.877 184.047 183.756 190.123 189.751 189.609 189.137 
188.938 188.364 188.093 187.419 187.106 186.395 186.082 185.353 185.013 
184.246 183.898 190.786 190.441 190.39 189.929 189.767 189.248 189.006 
188.426 188.103 187.458 187.096 186.43 186.066 185.379 185.006 184.292 
183.946 191.306 191.1 191.04 190.674 190.438 189.99 189.675 189.21 
188.856 188.329 187.926 187.338 186.939 186.332 185.962 185.323 184.965 
184.301 183.979 180.935 181.269 181.56 182.43 181.73 181.999 182.943 
183.084 183.893 182.313 182.598 183.604 183.68 184.485 184.558 185.393 
182.713 183.173 184.21 184.356 185.123 185.176 186.003 186.147 187.06 
182.687 183.366 184.377 184.761 185.485 185.701 186.515 186.765 187.729 
187.881 188.646 182.358 183.125 184.099 184.671 185.392 185.821 186.65 
187.128 188.152 188.503 189.294 189.285 189.668 181.98 182.706 183.679 
184.305 185.097 185.612 186.475 187.085 188.152 188.741 189.591 189.793 
190.158 190.043 190.226 181.682 182.319 183.274 183.909 184.78 185.343 
186.232 186.85 187.879 188.572 189.47 189.899 190.328 190.384 190.556 
190.514 190.755 181.447 182.01 182.883 183.511 184.386 185.021 185.903 
186.552 187.476 188.186 189.045 189.635 190.155 190.418 190.628 190.71 
190.906 190.993 191.231 179.984 178.42 179.539 180.199 176.665 177.843 
178.481 179.719 180.52 174.912 176.056 176.648 177.895 178.648 180.035 
180.96 173.238 174.331 174.89 176.062 176.691 178.03 178.844 180.387 
181.28 171.613 172.663 173.192 174.326 174.877 176.07 176.694 178.129 
178.938 180.547 181.3 170.054 171.025 171.5 172.617 173.183 174.309 
174.87 176.062 176.735 178.177 178.958 180.473 181.092 168.673 169.512 
169.925 170.942 171.527 172.651 173.293 174.385 175.025 176.183 176.899 
178.233 178.947 180.291 180.831 167.524 168.252 168.657 169.491 170.044 
171.064 171.762 172.867 173.57 174.635 175.295 176.4 177.076 178.289 
178.939 180.137 180.649 166.519 167.211 167.659 168.377 168.905 169.739 
170.4 171.404 172.141 173.203 173.879 174.905 175.521 176.587 177.226 
178.366 178.982 180.067 180.538 166.101 165.889 166.442 167.308 165.753 
166.305 167.299 167.749 168.628 165.867 166.307 167.421 167.862 168.864 
169.18 170.118 166.289 166.592 167.736 168.125 169.218 169.517 170.499 
170.784 171.803 166.796 167.066 168.14 168.507 169.601 169.924 170.919 
171.195 172.184 172.506 173.52 167.232 167.505 168.504 168.868 169.921 
170.286 171.291 171.601 172.571 172.877 173.864 174.185 175.159 167.731 
167.933 168.911 169.209 170.249 170.597 171.633 171.962 172.96 173.258 
174.25 174.55 175.561 175.85 176.851 168.396 168.509 169.471 169.672 
170.694 170.974 172.02 172.333 173.351 173.649 174.642 174.945 175.972 
176.288 177.333 177.608 178.599 169.14 169.214 170.122 170.267 171.218 
171.445 172.433 172.729 173.719 174.028 174.989 175.305 176.286 176.65 
177.668 178.035 179.003 179.292 180.146 169.84 171.202 170.609 170.817 
172.628 172.002 172.221 171.628 171.885 174.218 173.498 173.719 173.068 
173.342 172.751 173.073 176.018 175.205 175.434 174.668 174.95 174.275 
174.619 174.008 174.357 177.885 177.081 177.338 176.505 176.801 176.014 
176.364 175.645 175.999 175.324 175.646 179.623 178.921 179.218 178.439 
178.757 177.952 178.299 177.498 177.829 177.05 177.366 176.637 176.961 
181.16 180.578 180.903 180.245 180.568 179.858 180.185 179.429 179.713 
178.913 179.171 178.403 178.716 178.003 178.346 182.486 182.019 182.351 
181.817 182.127 181.535 181.835 181.194 181.454 180.728 180.927 180.17 
180.407 179.722 180.039 179.376 179.666 183.589 183.236 183.571 183.153 
183.464 182.972 183.261 182.716 182.993 182.373 182.595 181.876 182.063 
181.352 181.593 180.965 181.23 180.593 180.783 181.569 182.05 182.198 
182.95 182.485 182.677 183.532 183.657 184.465 183.009 183.19 184.139 
184.29 185.201 185.252 186.054 183.52 183.746 184.701 184.913 185.842 
185.979 186.834 186.858 187.632 183.857 184.161 185.046 185.36 186.212 
186.481 187.288 187.503 188.287 188.392 189.094 184.079 184.397 185.225 
185.57 186.355 186.683 187.425 187.759 188.514 188.827 189.508 189.671 
190.14 184.236 184.562 185.345 185.689 186.442 186.764 187.466 187.799 
188.51 188.891 189.564 189.869 190.337 190.446 190.671 184.278 184.634 
185.339 185.724 186.412 186.786 187.427 187.785 188.402 188.794 189.387 
189.776 190.247 190.503 190.794 190.853 191.006 184.231 184.585 185.207 
185.606 186.212 186.633 187.202 187.622 188.146 188.569 189.041 189.466 
189.859 190.25 190.557 190.844 191.072 191.176 191.313 158.804 159.173 
158.726 158.415 159.99 159.361 159.032 158.532 158.406 160.926 160.301 
159.952 159.312 159.01 158.604 158.635 161.802 161.206 160.871 160.242 
159.88 159.288 159.13 158.884 159.18 162.826 162.131 161.884 161.22 
161.027 160.316 160.228 159.635 159.879 159.671 160.272 164.101 163.31 
163.16 162.428 162.443 161.705 161.819 161.053 161.307 160.726 161.22 
160.975 161.606 165.492 164.691 164.589 163.849 163.928 163.255 163.434 
162.736 162.915 162.251 162.52 162.069 162.501 162.283 162.796 166.927 
166.136 166.061 165.316 165.383 164.736 164.9 164.271 164.388 163.729 
163.833 163.288 163.556 163.219 163.666 163.461 163.985 168.367 167.608 
167.563 166.808 166.863 166.184 166.351 165.714 165.886 165.188 165.321 
164.625 164.868 164.344 164.788 164.447 164.996 164.739 165.291 158.698 
158.251 158.456 158.692 158.266 158.229 158.462 158.721 159.295 158.675 
158.505 158.786 158.782 159.369 159.623 160.397 159.383 159.127 159.541 
159.371 159.925 159.927 160.652 160.866 161.6 160.44 160.041 160.504 
160.259 160.789 160.625 161.221 161.245 161.934 162.074 162.694 161.656 
161.192 161.556 161.266 161.737 161.505 161.979 161.86 162.446 162.497 
163.146 163.203 163.789 162.792 162.329 162.587 162.278 162.696 162.445 
162.873 162.64 163.119 163.044 163.652 163.703 164.323 164.351 164.933 
163.956 163.427 163.647 163.271 163.677 163.411 163.89 163.604 164.069 
163.817 164.345 164.254 164.845 164.861 165.429 165.472 166.027 165.233 
164.652 164.859 164.383 164.768 164.439 164.958 164.674 165.193 164.874 
165.367 165.09 165.611 165.456 165.99 165.947 166.479 166.517 167.057 
159.118 159.121 159.304 159.81 159.672 159.527 159.931 160.031 160.531 
160.715 160.319 160.627 160.383 160.804 160.851 161.54 161.845 161.431 
161.717 161.309 161.681 161.419 162.076 162.15 163.082 162.828 162.455 
162.737 162.414 162.815 162.489 163.075 162.924 163.761 163.845 164.732 
163.861 163.41 163.674 163.374 163.839 163.603 164.177 163.974 164.663 
164.601 165.387 165.433 166.247 165.044 164.535 164.809 164.399 164.886 
164.626 165.237 165.025 165.663 165.504 166.226 166.17 167.011 167.043 
168.021 166.203 165.759 166.064 165.623 166.059 165.733 166.312 166.077 
166.727 166.525 167.26 167.119 167.994 167.943 168.95 168.996 170.073 
167.258 166.894 167.225 166.839 167.219 166.88 167.375 167.134 167.776 
167.603 168.389 168.247 169.158 169.046 170.027 169.981 170.979 171.023 
171.987 179.514 178.27 178.624 177.976 176.874 177.291 176.638 176.969 
176.235 175.376 175.822 175.168 175.567 174.841 175.179 174.464 173.854 
174.281 173.614 174.055 173.369 173.757 173.054 173.423 172.777 172.387 
172.765 172.084 172.506 171.856 172.279 171.635 172.022 171.391 171.777 
171.188 170.983 171.33 170.661 171.037 170.409 170.807 170.209 170.613 
170.029 170.419 169.844 170.226 169.681 169.641 169.952 169.302 169.664 
169.07 169.44 168.867 169.238 168.679 169.066 168.511 168.899 168.36 
168.76 168.293 168.487 168.689 168.047 168.348 167.779 168.138 167.599 
167.958 167.415 167.765 167.212 167.57 167.021 167.422 166.945 167.417 
167.068 167.636 167.7 167.083 167.228 166.667 166.917 166.396 166.718 
166.21 166.549 166.025 166.338 165.789 166.113 165.611 166.042 165.676 
166.23 165.994 
POINT_DATA 1002
SCALARS Distance double
LOOKUP_TABLE default
170.416 169.09 169.042 170.444 169.074 171.795 170.572 169.219 171.934 
173.276 170.828 169.455 172.204 173.588 174.977 171.171 169.804 172.611 
174.036 175.472 176.843 171.662 170.368 173.118 174.6 176.04 177.413 
178.651 172.383 171.117 173.772 175.219 176.627 177.959 179.182 180.271 
173.185 171.922 174.534 175.882 177.184 178.46 179.672 180.757 181.698 
173.91 172.739 175.206 176.509 177.724 178.923 180.128 181.22 182.14 
182.917 174.566 173.526 175.745 177.009 178.214 179.361 180.52 181.608 
182.523 183.272 183.908 167.699 167.639 166.272 166.231 164.883 167.682 
164.871 163.553 166.294 167.828 163.58 162.414 164.957 166.454 168.093 
162.453 161.525 163.685 165.157 166.799 168.558 161.445 160.629 162.522 
163.949 165.602 167.368 169.223 160.525 159.694 161.531 162.879 164.507 
166.219 168.039 169.999 159.925 159.086 160.879 162.068 163.566 165.174 
166.868 168.828 170.895 159.756 158.975 160.636 161.627 162.874 164.315 
165.851 167.697 169.85 171.884 159.614 160.418 160.287 161.121 161.036 
161.321 162.136 162.342 162.188 162.392 163.667 164.042 163.474 163.44 
163.703 165.187 165.525 165.001 164.864 164.846 165.182 166.685 167.072 
166.538 166.544 166.493 166.566 167.003 168.701 169.08 168.477 168.495 
168.533 168.531 168.773 169.282 170.931 171.141 170.727 170.639 170.629 
170.583 170.705 171.108 171.548 172.835 172.89 172.724 172.609 172.546 
172.446 172.395 172.637 173.05 173.351 174.875 174.713 176.27 174.414 
176.129 177.763 174.157 175.974 177.663 179.05 174.203 176.048 177.601 
178.779 179.858 174.359 176.275 177.686 178.422 179.341 180.698 174.384 
176.287 177.73 178.193 178.794 180.351 182.052 174.422 176.203 177.704 
178.268 178.663 180.139 182.087 183.439 174.512 176.255 177.819 178.657 
179.102 180.319 182.186 183.592 184.316 174.53 176.3 177.971 179.081 
179.711 180.712 182.314 183.688 184.381 184.769 175.996 177.536 177.258 
179.032 178.822 178.541 180.137 180.179 180.044 179.757 181.021 181.216 
181.311 181.229 180.935 182.203 182.301 182.412 182.453 182.324 182.033 
183.512 183.556 183.59 183.566 183.449 183.268 182.974 184.466 184.648 
184.755 184.703 184.536 184.348 184.117 183.757 185.04 185.427 185.709 
185.721 185.574 185.409 185.189 184.849 184.407 185.313 185.849 186.03 
186.755 186.818 186.394 187.669 187.934 187.259 186.58 188.88 189.447 
188.122 187.287 186.467 190.042 190.47 189.173 188.105 187.184 186.356 
190.463 190.752 189.855 188.942 187.961 187.097 186.195 190.64 191.057 
190.057 189.398 188.589 187.697 186.798 185.834 191.064 191.45 190.405 
189.729 189.034 188.196 187.27 186.321 185.354 191.323 191.462 190.847 
190.191 189.466 188.65 187.743 186.789 185.812 184.842 184.891 185.393 
185.116 185.662 185.441 185.998 186.101 185.692 186.222 186.784 186.427 
185.675 186.728 187.129 188.213 186.422 185.411 187.121 187.707 188.65 
189.797 186.158 185.066 187.094 187.936 188.867 189.821 190.517 185.77 
184.697 186.753 187.666 188.62 189.497 190.233 190.808 185.256 184.239 
186.244 187.162 188.117 189.028 189.815 190.598 191.232 184.632 183.682 
185.62 186.566 187.524 188.493 189.342 190.132 190.897 191.385 173.98 
175.784 175.274 177.172 176.717 177.677 178.521 178.087 178.932 179.177 
179.736 179.303 180.029 180.159 180.092 180.866 180.452 181.142 181.19 
181.163 181.064 181.875 181.507 182.193 182.358 182.384 182.471 182.522 
182.75 182.387 183.058 183.365 183.573 183.696 183.833 183.866 183.546 
183.096 183.887 184.22 184.563 184.775 184.803 184.713 184.565 171.932 
173.15 171.007 172.409 170.137 174.602 171.603 169.275 173.989 176.145 
170.616 168.49 173.206 175.573 177.551 169.674 167.921 172.212 174.89 
177.038 178.842 169.065 167.64 171.275 174.054 176.486 178.389 180.089 
168.823 167.583 170.636 173.16 175.742 177.836 179.622 181.182 168.761 
167.594 170.308 172.423 174.87 177.126 179.037 180.686 182.034 168.72 