# vtk DataFile Version 4.0
vtk output
ASCII
DATASET POLYDATA
POINTS 1002 float
-118.827 -115.711 55.2962 -118.58 -114.481 54.7158 -118.006 -114.789 54.8842 
-118.199 -116.032 55.6059 -117.453 -115.171 55.1392 -118.998 -116.951 56.1807 
-117.59 -116.496 55.9611 -116.953 -115.773 55.386 -118.357 -117.369 56.5656 
-119.049 -118.298 57.1659 -117.042 -117.169 56.3084 -116.362 -116.462 55.7148 
-117.736 -117.961 56.9376 -118.422 -118.854 57.5428 -119.007 -119.725 58.1455 
-116.447 -117.804 56.7953 -115.724 -117.041 56.2501 -117.146 -118.66 57.3705 
-117.791 -119.518 57.9891 -118.346 -120.313 58.693 -118.846 -121.022 59.4466 
-115.905 -118.355 57.4291 -115.281 -117.597 56.9036 -116.52 -119.281 57.9899 
-117.115 -120.193 58.6415 -117.649 -120.973 59.3882 -118.089 -121.678 60.1839 
-118.511 -122.315 60.8837 -115.521 -119.009 58.1297 -115 -118.234 57.592 
-115.961 -119.93 58.7093 -116.385 -120.87 59.4367 -116.872 -121.656 60.204 
-117.317 -122.44 60.8704 -117.702 -123.182 61.4434 -118.112 -123.773 61.8971 
-115.123 -119.726 58.9425 -114.682 -118.955 58.343 -115.474 -120.592 59.5417 
-115.737 -121.57 60.2317 -116.085 -122.376 60.9718 -116.512 -123.166 61.5226 
-116.908 -124.037 61.9129 -117.321 -124.695 62.3101 -117.781 -125.136 62.6965 
-114.593 -120.43 59.7851 -114.267 -119.754 59.1133 -114.922 -121.135 60.4633 
-115.156 -122.091 61.0784 -115.413 -123.011 61.6785 -115.765 -123.808 62.1728 
-116.126 -124.697 62.5012 -116.511 -125.457 62.8491 -116.984 -125.889 63.2771 
-117.481 -126.201 63.6579 -113.99 -121.096 60.48 -113.777 -120.507 59.8048 
-114.304 -121.65 61.2328 -114.562 -122.482 61.868 -114.805 -123.455 62.3822 
-115.117 -124.311 62.853 -115.429 -125.169 63.227 -115.736 -125.991 63.5613 
-116.143 -126.508 63.9683 -116.646 -126.792 64.3596 -117.138 -127.074 64.6202 
-117.99 -113.453 54.2921 -117.446 -113.767 54.4676 -117.445 -112.445 53.7431 
-116.933 -112.71 54.0149 -116.903 -111.433 53.1331 -116.968 -114.226 54.681 
-116.313 -111.625 53.5841 -116.303 -110.403 52.7033 -116.418 -113.14 54.3272 
-116.413 -114.897 54.8796 -115.661 -110.611 53.2955 -115.765 -109.465 52.5319 
-115.733 -111.956 54.1281 -115.765 -113.768 54.6005 -115.684 -115.616 55.2034 
-115.175 -109.762 53.2197 -115.327 -108.605 52.6523 -115.119 -110.917 54.0346 
-115.14 -112.531 54.5805 -115.049 -114.54 54.9314 -115.04 -116.267 55.7557 
-114.69 -109.037 53.4217 -114.892 -107.801 53.1008 -114.503 -110.145 53.9837 
-114.515 -111.536 54.6146 -114.509 -113.401 54.9395 -114.465 -115.267 55.4222 
-114.659 -116.831 56.4238 -114.104 -108.442 53.7946 -114.465 -107.232 53.6345 
-113.72 -109.519 54.0173 -113.66 -110.836 54.5363 -113.798 -112.533 55.0169 
-113.874 -114.192 55.3471 -114.065 -115.719 56.0394 -114.421 -117.369 57.1436 
-113.548 -107.981 54.1634 -113.989 -106.924 54.0751 -113.059 -108.944 54.2088 
-112.886 -110.191 54.5288 -113.03 -111.91 55.0799 -113.195 -113.46 55.4712 
-113.469 -114.611 55.9222 -113.915 -116.126 56.8081 -114.225 -118.089 57.9545 
-113.004 -107.574 54.5717 -113.363 -106.693 54.5485 -112.656 -108.437 54.6014 
-112.544 -109.557 54.836 -112.651 -111.268 55.3492 -112.725 -113.002 55.8002 
-112.941 -114.014 56.126 -113.505 -115.018 56.7539 -113.973 -116.879 57.7452 
-113.991 -119 58.8048 -112.465 -106.954 55.1532 -112.299 -107.833 55.1731 
-111.848 -107.44 55.886 -112.003 -108.544 56.062 -111.712 -108.549 56.7626 
-112.358 -108.887 55.3849 -111.962 -109.921 57.0593 -111.78 -110.015 57.855 
-112.334 -110.004 56.4913 -112.558 -110.48 55.8726 -111.92 -111.442 58.1185 
-111.865 -111.234 59.2224 -112.076 -111.617 57.5491 -112.367 -111.904 57.0751 
-112.545 -112.464 56.3946 -112.112 -112.53 59.3646 -112.23 -112.07 60.455 
-111.802 -112.964 58.6502 -111.765 -113.213 58.1728 -112.135 -113.503 57.4889 
-112.549 -113.786 56.6881 -112.804 -113.258 60.3576 -113.034 -112.814 61.0264 
-112.231 -113.775 59.8315 -111.74 -114.02 59.3087 -111.97 -114.139 58.5831 
-112.652 -114.33 57.7669 -113.18 -114.562 57.1221 -113.749 -114.137 60.7927 
-113.972 -113.851 61.2205 -113.268 -114.59 60.5558 -112.729 -114.863 60.2338 
-112.716 -114.95 59.6122 -113.268 -115.178 58.9181 -113.761 -115.602 58.3889 
-113.915 -116.17 57.9962 -114.466 -115.527 61.2299 -114.634 -115.361 61.6509 
-114.181 -115.897 60.9788 -113.84 -116.246 60.7945 -113.72 -116.447 60.4324 
-113.899 -116.71 59.9569 -114.064 -117.212 59.5971 -114.016 -117.866 59.3009 
-113.921 -118.507 58.9995 -114.723 -117.273 62.0341 -114.912 -117.119 62.3618 
-114.52 -117.572 61.7181 -114.286 -117.921 61.5085 -114.065 -118.209 61.3171 
-113.881 -118.482 61.0207 -113.661 -118.866 60.6935 -113.415 -119.393 60.4066 
-113.311 -119.958 60.1228 -113.448 -120.362 59.8969 -113.269 -121.48 60.8052 
-112.732 -121.344 60.8641 -112.805 -122.333 61.8261 -112.389 -120.967 61.0827 
-112.195 -122.116 61.9004 -112.465 -123.511 62.9216 -112.409 -120.559 61.4612 
-111.776 -121.809 62.1738 -112.016 -123.322 63.1353 -112.041 -125.025 64.1662 
-112.755 -120.248 61.9482 -111.668 -121.595 62.7252 -111.691 -123.135 63.5178 
-111.813 -124.914 64.6264 -111.494 -126.331 65.6091 -113.243 -119.987 62.3643 
-111.894 -121.395 63.4071 -111.428 -122.917 64.1287 -111.582 -124.7 65.1259 
-111.357 -126.196 66.3127 -111.055 -127.375 67.1529 -113.73 -119.759 62.5523 
-112.455 -121.206 63.8255 -111.469 -122.62 64.7401 -111.288 -124.313 65.6263 
-111.143 -125.842 66.8672 -110.8 -127.149 67.8936 -110.567 -128.45 68.5121 
-114.119 -119.527 62.6628 -113.142 -121.115 63.9003 -112.049 -122.45 65.0233 
-111.423 -123.962 65.9919 -111.036 -125.415 67.1954 -110.539 -126.672 68.3683 
-110.09 -128.035 69.0961 -109.746 -129.338 69.5802 -114.419 -119.261 62.8534 
-113.7 -121.013 63.8812 -112.812 -122.385 64.9976 -112.095 -123.753 66.1287 
-111.474 -125.141 67.3501 -110.682 -126.281 68.5753 -109.878 -127.414 69.4848 
-109.286 -128.679 70.0661 -108.899 -129.795 70.5097 -114.731 -119.013 63.0405 
-114.192 -120.816 63.8491 -113.469 -122.248 64.8118 -112.815 -123.505 66.0246 
-112.203 -124.842 67.3673 -111.342 -126.041 68.623 -110.269 -126.999 69.6662 
-109.365 -127.966 70.4464 -108.803 -129.006 70.9923 -108.534 -129.98 71.3482 
-113.567 -122.066 61.5864 -113.134 -123.297 62.6354 -113.876 -122.853 62.351 
-112.568 -124.883 63.6835 -113.336 -124.432 63.3292 -114.12 -123.856 62.9482 
-111.867 -126.32 64.898 -112.641 -126.038 64.3592 -113.578 -125.418 63.9922 
-114.425 -124.785 63.5097 -111.358 -127.435 66.3827 -112.01 -127.313 65.6729 
-112.956 -126.888 65.1873 -113.925 -126.229 64.7226 -114.751 -125.646 64.0323 
-110.981 -128.625 67.9408 -111.551 -128.518 67.2549 -112.355 -128.215 66.5735 
-113.303 -127.675 65.9424 -114.232 -127.048 65.2467 -115.033 -126.507 64.418 
-110.25 -129.74 69.2398 -110.922 -129.692 68.7508 -111.745 -129.38 68.0462 
-112.691 -128.92 67.2005 -113.68 -128.327 66.3629 -114.594 -127.714 65.582 
-115.398 -127.119 64.79 -109.259 -130.408 70.2495 -110 -130.546 69.8681 
-111.045 -130.264 69.2809 -112.186 -129.819 68.5016 -113.266 -129.315 67.6051 
-114.234 -128.751 66.7018 -115.093 -128.126 65.9004 -115.895 -127.456 65.1472 
-108.614 -130.738 71.0947 -109.198 -131.14 70.701 -110.331 -131.03 70.1375 
-111.706 -130.586 69.5088 -112.94 -130.093 68.8349 -113.945 -129.636 67.9533 
-114.817 -129.112 66.9494 -115.635 -128.457 66.0869 -116.425 -127.744 65.3561 
-108.654 -130.661 71.9076 -108.785 -131.474 71.5597 -109.276 -131.323 72.2861 
-109.535 -132.116 71.8798 -110.302 -131.549 72.6017 -109.607 -131.817 70.987 
-110.785 -132.164 72.1592 -111.736 -131.306 72.8631 -110.531 -132.294 71.1751 
-111.03 -131.527 70.2868 -112.618 -131.926 72.269 -113.531 -131.349 72.8091 
-111.93 -132.221 71.2879 -111.984 -131.791 70.358 -112.497 -130.919 69.696 
-114.698 -132.124 72.0822 -115.192 -131.65 72.4973 -113.945 -132.178 71.2065 
-113.354 -131.766 70.2749 -113.343 -131.126 69.6813 -113.667 -130.403 69.0177 
-116.231 -132.13 71.8179 -116.466 -131.373 72.2606 -115.873 -132.346 71.0368 
-115.197 -131.845 70.1622 -114.599 -131.168 69.4961 -114.467 -130.621 68.8573 
-114.636 -129.952 67.9503 -117.315 -131.446 71.5588 -117.689 -130.752 72.0351 
-117.051 -131.911 70.8407 -116.646 -131.705 70.1112 -116.051 -131.041 69.4776 
-115.584 -130.518 68.6974 -115.453 -130.071 67.7131 -115.532 -129.347 66.8095 
-118.486 -130.817 71.1619 -118.914 -130.419 71.5846 -118.048 -131.101 70.4949 
-117.609 -131.072 69.8282 -117.15 -130.646 69.3398 -116.727 -130.152 68.6792 
-116.447 -129.82 67.6287 -116.359 -129.364 66.621 -116.389 -128.592 65.9387 
-119.608 -130.495 70.6278 -119.866 -130.176 70.9497 -119.218 -130.578 70.048 
-118.728 -130.477 69.3312 -118.237 -130.22 68.7725 -117.828 -129.847 68.288 
-117.508 -129.492 67.4997 -117.286 -129.148 66.5326 -117.193 -128.601 65.7807 
-117.174 -127.836 65.2206 -108.837 -129.491 71.9439 -109.318 -130.129 72.4699 
-109.572 -128.986 72.4704 -110.267 -129.499 73.0107 -110.426 -128.546 72.8018 
-110.184 -130.605 72.8181 -111.117 -128.929 73.477 -111.328 -128.17 72.7201 
-111.161 -129.835 73.469 -111.286 -130.62 73.16 -112.034 -128.457 73.4008 
-112.484 -127.87 72.0788 -111.962 -129.261 74.0752 -112.183 -129.981 73.8156 
-112.678 -130.579 73.2875 -113.27 -128.049 72.4993 -113.734 -127.53 71.1773 
-112.967 -128.671 73.8514 -113.003 -129.525 74.1951 -113.465 -130.239 73.5679 
-114.254 -130.909 72.9409 -114.49 -127.597 71.3804 -114.763 -126.906 70.4097 
-114.248 -127.991 72.735 -114.122 -128.647 73.7298 -114.372 -129.583 73.5541 
-114.989 -130.363 72.9081 -115.734 -130.936 72.5665 -115.476 -126.947 70.5169 
-115.682 -126.028 69.6798 -115.375 -127.437 71.5634 -115.337 -127.698 72.7417 
-115.528 -128.34 73.2015 -116.025 -129.276 72.902 -116.612 -129.99 72.6192 
-117.159 -130.428 72.45 -116.41 -126.111 69.6753 -116.616 -125.164 68.8019 
-116.307 -126.879 70.5769 -116.312 -127.179 71.6851 -116.53 -127.4 72.5569 
-117.028 -128.065 72.7793 -117.616 -128.934 72.6894 -118.105 -129.582 72.5442 
-118.519 -130.05 72.1905 -117.297 -125.243 68.7428 -117.428 -124.415 67.923 
-117.2 -126.099 69.5764 -117.166 -126.682 70.5585 -117.291 -126.948 71.54 
[...]
CELL_DATA 2000
SCALARS Distance double
LOOKUP_TABLE default
173.012 172.915 173.362 174.201 172.952 173.313 174.156 174.597 175.457 
173.12 173.429 174.257 174.623 175.505 175.897 176.738 173.284 173.612 
174.456 174.793 175.667 176.012 176.865 177.198 177.985 173.499 173.792 
174.66 174.996 175.882 176.216 177.067 177.371 178.164 178.445 179.174 
173.894 174.102 174.976 175.241 176.135 176.44 177.298 177.592 178.392 
178.66 179.401 179.634 180.306 174.392 174.564 175.417 175.62 176.481 
176.731 177.566 177.828 178.612 178.881 179.623 179.875 180.551 180.749 
181.353 174.884 175.045 175.829 176.029 176.814 177.063 177.843 178.095 
178.832 179.086 179.799 180.066 180.741 180.975 181.571 181.751 182.284 
175.305 175.461 176.141 176.349 177.047 177.313 178.037 178.318 179.022 
179.283 179.959 180.222 180.877 181.129 181.718 181.926 182.436 182.614 
183.074 172.219 171.016 171.778 172.124 169.807 170.583 170.964 171.743 
172.173 168.566 169.352 169.742 170.578 171.034 171.85 172.321 167.412 
168.119 168.479 169.315 169.77 170.653 171.13 171.982 172.453 166.487 
167.068 167.396 168.099 168.539 169.374 169.876 170.75 171.269 172.12 
172.658 165.737 166.241 166.529 167.103 167.49 168.223 168.73 169.549 
170.096 170.942 171.53 172.394 173.027 165.123 165.543 165.747 166.229 
166.509 167.196 167.674 168.475 169 169.801 170.339 171.221 171.871 
172.813 173.507 164.644 164.968 165.081 165.439 165.625 166.212 166.698 
167.473 168.052 168.777 169.266 170.026 170.627 171.59 172.369 173.345 
174.069 164.207 164.485 164.567 164.838 165.028 165.456 166 166.655 
167.381 168.002 168.566 169.104 169.661 170.425 171.245 172.227 173.113 
173.981 174.639 163.984 163.912 164.057 164.362 164.458 164.255 164.63 
164.592 164.986 165.635 165.159 165.586 165.26 165.788 165.553 166.138 
166.988 166.472 166.855 166.446 166.975 166.642 167.222 166.952 167.54 
168.272 167.791 168.094 167.674 168.039 167.749 168.174 167.979 168.395 
168.226 168.629 169.521 169.059 169.363 168.878 169.121 168.701 168.993 
168.756 169.154 168.988 169.414 169.225 169.719 170.841 170.351 170.739 
170.213 170.538 169.931 170.273 169.755 170.303 169.939 170.638 170.278 
170.993 170.624 171.387 172.345 171.779 172.249 171.699 172.188 171.553 
172.051 171.379 172.015 171.458 172.257 171.8 172.61 172.162 172.919 
172.513 173.258 173.948 173.364 173.838 173.289 173.816 173.264 173.795 
173.216 173.753 173.223 173.784 173.374 173.925 173.617 174.134 173.883 
174.394 174.175 174.689 175.326 174.997 175.414 175.95 174.693 175.045 
175.506 175.994 176.675 174.54 174.791 175.199 175.563 176.265 176.89 
177.796 174.566 174.772 175.206 175.383 176.065 176.585 177.6 178.187 
179.072 174.672 174.924 175.442 175.518 176.109 176.479 177.464 178.066 
179.042 179.461 180.185 174.766 175.107 175.736 175.82 176.331 176.544 
177.357 177.907 178.857 179.392 180.14 180.514 181.152 174.813 175.232 
175.99 176.154 176.706 176.8 177.479 177.823 178.679 179.164 179.897 
180.339 180.914 181.353 181.865 174.852 175.301 176.155 176.426 177.076 
177.192 177.846 178.039 178.825 179.121 179.826 180.118 180.635 180.99 
181.422 181.859 182.214 174.947 175.377 176.273 176.603 177.311 177.513 
178.154 178.37 179.097 179.359 180.041 180.213 180.689 180.821 181.186 
181.433 181.784 182.129 182.451 175.676 176.376 176.191 176.5 177.231 
176.976 177.384 177.093 177.433 178.337 177.986 178.43 178.081 178.455 
178.097 178.436 179.442 179.098 179.481 179.163 179.534 179.174 179.506 
179.126 179.43 180.483 180.13 180.473 180.168 180.559 180.244 180.598 
180.221 180.524 180.114 180.382 181.54 181.2 181.581 181.207 181.616 
181.273 181.656 181.297 181.606 181.211 181.471 181.052 181.284 182.315 
182.191 182.584 182.313 182.657 182.334 182.654 182.318 182.591 182.238 
182.471 182.1 182.305 181.909 182.091 182.639 182.734 183.105 183.079 
183.367 183.216 183.469 183.231 183.471 183.167 183.384 183.041 183.232 
182.868 183.028 182.647 182.784 182.835 182.938 183.34 183.412 183.757 
183.738 184.043 183.926 184.213 183.996 184.244 183.936 184.128 183.766 
183.915 183.541 183.667 183.291 183.403 183.172 184.024 183.601 183.666 
184.987 184.537 184.551 184.103 184.121 185.838 185.466 185.504 185.04 
184.993 184.523 184.464 186.783 186.343 186.394 185.926 185.848 185.379 
185.261 184.815 184.682 187.951 187.467 187.54 186.906 186.764 186.173 
185.999 185.555 185.403 184.974 184.753 188.76 188.552 188.668 188.138 
187.934 187.193 186.877 186.273 186.056 185.629 185.405 184.958 184.641 
189.036 189.028 189.094 188.942 188.715 188.237 187.777 187.158 186.748 
186.25 185.951 185.534 185.208 184.762 184.398 189.285 189.187 189.148 
189.064 188.824 188.627 188.17 187.799 187.28 186.849 186.423 186.023 
185.665 185.268 184.907 184.483 184.126 189.564 189.449 189.358 189.156 
188.903 188.655 188.281 187.993 187.568 187.227 186.812 186.439 186.065 
185.691 185.345 184.959 184.611 184.203 183.856 183.032 183.229 183.367 
183.929 183.547 183.653 184.199 184.336 184.881 183.839 183.974 184.508 
184.626 185.11 185.227 185.705 184.066 184.219 184.778 184.931 185.433 
185.493 185.945 186.04 186.613 184.244 184.401 184.916 185.139 185.685 
185.825 186.286 186.346 186.863 187.036 187.689 184.276 184.5 184.912 
185.17 185.641 185.933 186.388 186.601 187.028 187.23 187.722 188.008 
188.478 184.091 184.418 184.813 185.083 185.455 185.756 186.159 186.499 
186.924 187.24 187.67 187.949 188.349 188.592 188.883 183.778 184.16 
184.597 184.922 185.297 185.56 185.919 186.217 186.654 187.022 187.522 
187.854 188.308 188.524 188.877 188.994 189.246 183.436 183.822 184.253 
184.646 185.045 185.371 185.714 185.999 186.374 186.731 187.202 187.626 
188.093 188.443 188.792 189.011 189.25 189.368 189.523 175.353 176.415 
176.164 176.654 177.434 177.205 177.646 177.347 177.674 178.369 178.185 
178.619 178.309 178.6 178.264 178.542 179.226 179.068 179.509 179.243 
179.53 179.196 179.501 179.182 179.521 180.074 179.881 180.295 180.081 
180.388 180.103 180.403 180.135 180.487 180.191 180.45 180.941 180.707 
181.085 180.865 181.22 180.957 181.268 180.999 181.305 181.06 181.272 
180.956 181.024 181.735 181.531 181.905 181.693 182.1 181.846 182.188 
181.873 182.123 181.824 181.988 181.68 181.72 181.38 181.41 182.404 
182.262 182.651 182.499 182.928 182.741 183.093 182.794 182.993 182.638 
182.759 182.408 182.474 182.094 182.128 181.785 181.912 182.992 182.894 
183.294 183.193 183.608 183.495 183.836 183.622 183.805 183.476 183.579 
183.218 183.324 182.931 183.019 182.596 182.699 182.359 182.553 174.627 
173.883 174.742 175.72 173.246 174.026 174.998 175.833 176.758 172.805 
173.47 174.381 175.129 176.05 176.843 177.703 172.42 173.08 173.985 
174.621 175.507 176.187 177.078 177.802 178.625 171.96 172.661 173.617 
174.281 175.19 175.78 176.66 177.279 178.184 178.806 179.6 171.597 
172.205 173.161 173.872 174.837 175.491 176.378 176.958 177.845 178.451 
179.335 179.86 180.568 171.497 171.931 172.797 173.419 174.391 175.098 
176.046 176.672 177.529 178.121 178.976 179.582 180.358 180.819 181.396 
171.57 171.892 172.642 173.112 174.007 174.663 175.666 176.342 177.258 
177.819 178.625 179.188 179.96 180.523 181.169 181.582 182.064 171.693 
171.972 172.658 173.006 173.791 174.321 175.287 175.975 176.978 177.586 
178.421 178.899 179.622 180.119 180.794 181.282 181.838 182.207 182.645 
172.004 172.908 172.615 172.989 173.979 173.613 173.977 173.647 174.1 
175.099 174.738 175.131 174.735 175.212 174.907 175.563 176.237 175.892 
176.374 175.974 176.502 176.136 176.816 176.548 177.274 177.482 177.107 
177.675 177.288 177.872 177.486 178.138 177.834 178.504 178.213 178.751 
178.793 178.416 178.992 178.626 179.204 178.838 179.409 179.094 179.657 
179.372 179.844 179.516 179.908 180.014 179.69 180.216 179.895 180.403 
180.078 180.555 180.251 180.715 180.435 180.863 180.557 180.936 180.615 
181.005 181.101 180.824 181.3 181.016 181.455 181.162 181.576 181.292 
181.707 181.433 181.837 181.547 181.92 181.615 181.971 181.682 182.027 
182.078 181.833 182.268 182.012 182.411 182.138 182.524 182.254 182.66 
182.396 182.793 182.508 182.859 182.561 182.88 182.595 182.888 182.61 
182.859 182.728 183.697 183.12 182.905 184.654 184.083 183.891 183.29 
183.053 185.769 185.116 184.979 184.324 184.118 183.447 183.192 187.005 
186.326 186.177 185.483 185.287 184.576 184.327 183.614 183.352 187.865 
187.406 187.127 186.576 186.281 185.685 185.391 184.743 184.439 183.761 
183.465 188.18 187.939 187.599 187.244 186.871 186.458 186.117 185.645 
185.313 184.754 184.411 183.8 183.479 188.495 188.213 188.019 187.646 
187.376 186.956 186.673 186.247 185.966 185.503 185.192 184.659 184.332 
183.763 183.462 189.06 188.729 188.678 188.252 188.104 187.603 187.368 
186.858 186.592 186.125 185.858 185.388 185.099 184.577 184.274 183.728 
183.439 189.489 189.296 189.211 188.924 188.745 188.352 188.049 187.567 
187.187 186.722 186.38 185.982 185.691 185.278 184.975 184.492 184.169 
183.662 183.36 182.809 183.284 183.324 183.82 183.748 183.862 184.417 
184.335 184.784 184.112 184.374 185.079 185.008 185.468 185.325 185.848 
184.315 184.721 185.559 185.655 186.146 186.03 186.524 186.485 187.085 
184.343 184.813 185.575 185.915 186.381 186.517 186.945 187.069 187.619 
187.674 188.052 184.159 184.643 185.185 185.646 186.014 186.409 186.797 
187.198 187.698 187.996 188.337 188.339 188.392 183.748 184.243 184.655 
185.112 185.461 185.902 186.339 186.84 187.372 187.83 188.207 188.417 
188.538 188.511 188.581 183.211 183.7 184.112 184.572 185.012 185.444 
185.984 186.438 187.024 187.457 187.892 188.185 188.426 188.569 188.774 
188.812 189.058 182.702 183.152 183.596 184.068 184.585 185.069 185.661 
186.144 186.721 187.146 187.576 187.889 188.185 188.43 188.726 188.927 
189.227 189.319 189.514 182.188 181.237 182.024 182.604 180.067 180.972 
181.525 182.371 182.937 178.681 179.7 180.26 181.181 181.657 182.567 
183.116 177.173 178.218 178.836 179.86 180.364 181.239 181.691 182.658 
183.247 175.77 176.686 177.233 178.339 178.946 179.947 180.434 181.303 
181.842 182.819 183.417 174.535 175.316 175.667 176.668 177.192 178.364 
178.931 180 180.522 181.495 182.062 183.007 183.448 173.298 174.065 
174.344 175.164 175.539 176.565 177.096 178.29 178.864 180.028 180.568 
181.63 182.086 182.959 183.175 172.037 172.804 173.147 173.92 174.323 
175.121 175.633 176.58 177.205 178.294 178.916 180.027 180.542 181.539 
181.855 182.617 182.701 170.928 171.607 171.99 172.763 173.246 174.034 
174.604 175.404 176.067 176.919 177.596 178.503 179.088 180.017 180.437 
181.278 181.492 182.153 182.213 170.508 170.314 170.76 171.563 170.265 
170.633 171.443 171.927 172.838 170.414 170.658 171.419 171.837 172.812 
173.33 174.308 170.746 170.898 171.593 171.871 172.851 173.374 174.536 
174.953 175.911 171.027 171.23 171.914 172.126 173.059 173.505 174.74 
175.248 176.358 176.605 177.437 171.176 171.434 172.164 172.441 173.366 
173.772 174.927 175.448 176.553 176.955 177.793 178.027 178.771 171.468 
171.632 172.409 172.683 173.639 174.046 175.122 175.598 176.586 177.021 
177.816 178.186 178.893 179.243 179.981 172.045 172.094 172.879 173.03 
173.944 174.279 175.298 175.734 176.667 177.044 177.802 178.14 178.841 
179.224 179.933 180.339 181.01 172.724 172.765 173.53 173.596 174.394 
174.591 175.48 175.852 176.761 177.14 177.92 178.206 178.892 179.188 
179.869 180.231 180.87 181.243 181.784 173.333 174.541 174.023 174.179 
175.776 175.256 175.417 174.858 175.007 177.037 176.516 176.692 176.113 
176.268 175.721 175.997 178.285 177.798 178.036 177.452 177.644 177.04 
177.32 176.824 177.216 179.455 179.027 179.318 178.816 179.047 178.46 
178.705 178.17 178.508 178.049 178.375 180.549 180.158 180.45 180.038 
180.277 179.788 179.969 179.473 179.706 179.275 179.544 179.102 179.334 
181.583 181.222 181.51 181.128 181.38 180.94 181.121 180.639 180.822 
180.385 180.629 180.22 180.465 180.022 180.26 182.527 182.223 182.529 
182.177 182.456 182.041 182.274 181.795 182.02 181.53 181.795 181.332 
181.604 181.147 181.388 180.946 181.193 183.327 183.109 183.431 183.155 
183.442 183.095 183.342 182.936 183.177 182.74 183.006 182.55 182.809 
182.326 182.536 182.055 182.243 181.824 182.042 182.595 182.835 182.968 
183.52 183.182 183.293 183.885 183.978 184.572 183.485 183.648 184.235 
184.361 184.971 185.088 185.692 183.672 183.892 184.453 184.634 185.196 
185.406 186.022 186.191 186.737 183.812 184.042 184.626 184.817 185.399 
185.597 186.223 186.438 187.015 187.145 187.559 183.947 184.176 184.783 
185.003 185.654 185.858 186.535 186.702 187.31 187.408 187.866 187.887 
188.2 184.019 184.278 184.841 185.116 185.722 186.04 186.671 186.962 
187.508 187.689 188.117 188.197 188.555 188.538 188.819 183.971 184.273 
184.767 185.076 185.562 185.933 186.423 186.844 187.268 187.641 187.969 
188.265 188.581 188.792 189.097 189.142 189.348 183.819 184.141 184.586 
184.911 185.322 185.664 186.061 186.45 186.827 187.224 187.55 187.922 
188.228 188.591 188.891 189.186 189.401 189.518 189.591 164.021 164.326 
163.982 163.593 164.71 164.238 163.668 163.367 163.062 165.354 164.747 
164.215 163.608 163.251 163.006 163.176 166.208 165.579 165.264 164.506 
164.282 163.633 163.794 163.581 164.191 167.194 166.571 166.422 165.744 
165.637 164.933 165.004 164.513 164.914 164.805 165.46 168.35 167.685 
167.6 166.961 166.901 166.256 166.229 165.681 165.834 165.559 165.983 
165.993 166.587 169.591 168.92 168.875 168.22 168.248 167.569 167.617 
166.922 167.051 166.511 166.852 166.599 167.135 167.113 167.713 170.819 
170.17 170.138 169.515 169.604 168.992 169.187 168.491 168.732 167.987 
168.323 167.727 168.21 167.871 168.425 168.29 168.83 172.043 171.405 
171.366 170.749 170.802 170.281 170.491 170.009 170.287 169.706 169.962 
169.325 169.626 169.107 169.503 169.16 169.604 169.409 169.868 163.735 
163.489 163.593 163.51 163.214 163.415 163.65 163.642 163.834 163.435 
163.417 163.929 163.961 164.385 164.267 164.678 164.398 164.047 164.573 
164.473 165.026 164.905 165.325 165.217 165.699 165.648 165.201 165.591 
165.315 165.797 165.608 166.016 165.853 166.27 166.224 166.743 166.793 
166.387 166.7 166.352 166.713 166.434 166.812 166.582 167.005 166.855 
167.366 167.3 167.84 167.874 167.479 167.783 167.41 167.717 167.369 
167.717 167.439 167.879 167.674 168.175 168.017 168.52 168.411 168.911 
168.916 168.536 168.831 168.472 168.776 168.394 168.711 168.382 168.796 
168.571 169.041 168.85 169.279 169.108 169.529 169.442 169.919 169.909 
169.536 169.817 169.491 169.811 169.454 169.761 169.398 169.761 169.488 
169.921 169.699 170.095 169.867 170.23 170.063 170.493 170.436 170.93 
163.728 163.456 163.531 163.641 163.732 163.485 163.608 163.688 164.162 
164.628 164.114 164.274 164.014 164.536 164.603 165.376 165.757 165.224 
165.447 165.011 165.509 165.293 165.993 166.008 166.784 166.813 166.352 
166.571 166.199 166.613 166.36 166.915 166.763 167.373 167.378 168.063 
167.851 167.38 167.522 167.173 167.486 167.299 167.771 167.641 168.151 
168.034 168.589 168.612 169.282 168.933 168.444 168.564 168.113 168.365 
168.087 168.553 168.426 168.995 168.85 169.4 169.256 169.865 169.868 
170.596 170.009 169.555 169.741 169.24 169.497 169.073 169.532 169.291 
169.936 169.767 170.415 170.193 170.809 170.626 171.33 171.297 172.108 
171.044 170.641 170.888 170.443 170.73 170.285 170.719 170.39 171.023 
170.81 171.506 171.279 171.918 171.67 172.334 172.176 172.947 172.911 
173.733 181.725 180.694 181.073 180.75 179.561 179.964 179.578 179.984 
179.567 178.306 178.751 178.328 178.752 178.269 178.677 178.159 176.976 
177.424 177 177.459 176.981 177.367 176.818 177.201 176.679 175.74 
176.105 175.664 176.111 175.679 176.09 175.585 175.927 175.433 175.802 
175.379 174.626 174.923 174.433 174.81 174.371 174.794 174.329 174.71 
174.234 174.616 174.205 174.6 174.21 173.511 173.798 173.251 173.589 
173.099 173.504 173.035 173.437 172.954 173.37 172.929 173.383 172.963 
173.394 172.953 172.432 172.669 172.099 172.394 171.892 172.259 171.804 
172.176 171.704 172.08 171.636 172.069 171.661 172.101 171.668 172.088 
171.667 171.534 171.667 171.121 171.315 170.854 171.136 170.74 171.041 
170.618 170.909 170.485 170.836 170.475 170.867 170.51 170.871 170.5 
170.875 170.566 
POINT_DATA 1002
SCALARS Distance double
LOOKUP_TABLE default
173.833 172.669 172.534 173.718 172.493 175.052 173.73 172.635 175.022 
176.299 173.923 172.804 175.121 176.373 177.543 174.11 172.939 175.337 
176.545 177.679 178.735 174.329 173.232 175.544 176.767 177.893 178.924 
179.867 174.748 173.703 175.853 177.011 178.12 179.167 180.116 180.938 
175.244 174.232 176.263 177.332 178.358 179.361 180.345 181.197 181.927 
175.662 174.763 176.586 177.6 178.6 179.542 180.497 181.385 182.132 
182.796 175.963 175.193 176.802 177.757 178.758 179.709 180.629 181.507 
182.264 182.915 183.513 171.455 171.346 170.247 170.156 169.02 171.392 
168.883 167.798 170.188 171.526 167.679 166.761 168.877 170.248 171.619 
166.766 165.936 167.744 168.999 170.386 171.803 166.023 165.256 166.801 
167.928 169.266 170.64 172.147 165.353 164.764 165.867 166.861 168.235 
169.501 170.879 172.589 164.791 164.379 165.102 165.909 167.326 168.598 
169.699 171.305 173.216 164.288 163.955 164.624 165.361 166.733 168.086 
169.015 170.271 172.162 173.966 163.71 164.176 163.853 164.739 164.785 
164.977 165.955 166.169 166.066 166.323 167.295 167.505 167.319 167.542 
167.805 168.577 168.735 168.412 168.389 168.594 168.789 169.866 169.962 
169.647 169.305 169.285 169.584 169.872 171.226 171.336 171.126 170.841 
170.674 170.951 171.38 171.73 172.776 172.925 172.746 172.691 172.621 
172.75 173.072 173.381 173.651 174.393 174.53 174.349 174.357 174.34 
174.301 174.305 174.404 174.625 174.913 175.875 175.458 176.519 175.056 
176.008 177.501 174.92 175.627 177.163 178.728 175.099 175.606 176.966 
178.674 179.819 175.381 175.855 176.869 178.562 179.897 180.845 175.606 
176.231 176.912 178.293 179.722 180.806 181.808 175.739 176.633 177.262 
178.268 179.481 180.492 181.449 182.342 175.82 176.912 177.688 178.592 
179.619 180.384 181.033 181.788 182.515 175.922 177.082 177.943 178.834 
179.869 180.639 181.049 181.481 182.087 182.753 176.737 177.675 177.741 
178.787 178.831 178.795 179.785 179.876 179.9 179.826 180.79 180.847 
180.96 180.939 180.811 181.969 181.987 182.017 181.995 181.887 181.72 
182.799 182.986 183.003 182.946 182.835 182.695 182.505 183.063 183.457 
183.662 183.748 183.723 183.596 183.407 183.177 183.239 183.718 184.099 
184.372 184.522 184.491 184.298 184.042 183.784 183.524 184.042 184.506 
185.063 185.395 184.55 185.944 186.178 185.507 184.924 186.911 187.264 
186.332 185.708 185.154 188.232 188.36 187.482 186.485 185.806 185.25 
189.069 188.855 188.707 187.618 186.532 185.832 185.136 189.163 189.095 
189.053 188.39 187.327 186.388 185.637 184.855 189.306 189.458 188.981 
188.441 187.682 186.835 186.048 185.315 184.555 189.587 189.651 189.186 
188.546 187.858 187.168 186.437 185.714 185.01 184.272 182.82 183.76 
183.108 184.094 183.441 184.745 184.388 183.689 185.043 185.545 184.582 
183.93 185.363 185.893 186.4 184.696 184.11 185.473 186.221 186.747 
187.446 184.699 184.023 185.346 186.11 186.838 187.501 188.221 184.534 
183.718 185.207 185.818 186.554 187.385 188.128 188.702 184.23 183.389 
185.029 185.66 186.282 187.131 188.054 188.745 189.188 183.852 183.071 
184.682 185.426 186.059 186.784 187.695 188.533 189.102 189.462 175.61 
176.962 176.677 177.98 177.649 178.001 178.93 178.532 178.951 178.854 
179.747 179.404 179.856 179.789 179.864 180.498 180.324 180.646 180.669 
180.756 180.845 181.304 181.199 181.457 181.563 181.579 181.585 181.39 
182.093 181.918 182.323 182.525 182.483 182.313 182.07 181.705 182.778 
182.52 183.086 183.38 183.38 183.123 182.845 182.51 182.172 173.745 
174.875 173.032 174.172 172.537 175.949 173.705 172.177 175.269 176.932 
173.362 171.723 174.894 176.361 177.945 172.9 171.259 174.593 176.087 
177.537 179.075 172.458 171.076 174.128 175.796 177.253 178.748 180.185 
172.26 171.156 173.673 175.377 176.97 178.366 179.818 181.075 172.262 
171.293 173.405 174.944 176.683 178.125 179.385 180.68 181.756 172.361 