# vtk DataFile Version 4.0
vtk output
ASCII
DATASET POLYDATA
POINTS 1002 float
-119.282 -115.88 55.3647 -119.167 -114.729 54.7163 -118.643 -115.021 54.9543 
-118.801 -116.208 55.7022 -118.229 -115.312 55.4304 -119.599 -116.91 56.3427 
-118.455 -116.44 56.3586 -117.924 -115.528 56.1469 -119.18 -117.217 56.911 
-120.052 -117.751 57.773 -118.131 -116.688 57.1785 -117.493 -115.891 56.7759 
-118.805 -117.495 57.7399 -119.624 -118.166 58.5214 -120.374 -118.85 59.3094 
-117.62 -117.267 57.8287 -116.845 -116.601 57.229 -118.354 -117.997 58.5441 
-119.133 -118.69 59.3352 -119.873 -119.463 60.0412 -120.501 -120.349 60.5688 
-117.047 -118.043 58.4698 -116.292 -117.409 57.8263 -117.815 -118.757 59.2393 
-118.584 -119.456 60.0221 -119.299 -120.155 60.7629 -119.943 -120.957 61.3572 
-120.537 -121.73 61.8056 -116.681 -118.654 59.3624 -115.985 -118.054 58.668 
-117.367 -119.381 60.1166 -118.044 -120.202 60.7774 -118.707 -120.962 61.429 
-119.311 -121.629 62.162 -119.891 -122.268 62.7769 -120.432 -122.826 63.2378 
-116.4 -119.229 60.3122 -115.743 -118.628 59.614 -117.002 -119.94 61.0517 
-117.535 -120.768 61.7023 -118.1 -121.636 62.2622 -118.653 -122.38 62.9299 
-119.139 -122.975 63.631 -119.633 -123.5 64.1415 -120.14 -123.941 64.5262 
-116.022 -119.956 61.1632 -115.504 -119.273 60.5833 -116.523 -120.742 61.7708 
-116.97 -121.498 62.4605 -117.467 -122.22 63.1744 -118.007 -122.952 63.8516 
-118.425 -123.641 64.4487 -118.776 -124.254 64.8856 -119.224 -124.755 65.1997 
-119.758 -125.097 65.5033 -115.593 -120.716 61.9516 -115.275 -120.007 61.4836 
-115.947 -121.57 62.4135 -116.335 -122.341 63.05 -116.809 -122.909 63.9112 
-117.361 -123.436 64.7815 -117.806 -124.062 65.4011 -118.076 -124.759 65.7256 
-118.37 -125.405 65.9102 -118.829 -125.857 66.1149 -119.389 -126.085 66.3664 
-118.729 -113.804 54.2781 -118.184 -114.066 54.6214 -118.099 -112.985 53.8523 
-117.533 -113.192 54.3113 -117.319 -112.133 53.4854 -117.733 -114.367 55.1993 
-116.765 -112.266 54.0303 -116.671 -111.043 53.3337 -116.964 -113.53 54.8621 
-117.284 -114.688 55.8257 -116.127 -111.181 53.9499 -116.088 -109.944 53.3864 
-116.074 -112.69 54.4542 -116.286 -114.007 55.2722 -116.641 -115.218 56.2682 
-115.424 -110.25 53.9818 -115.243 -109.191 53.3769 -115.324 -111.774 54.2833 
-115.266 -113.286 54.7583 -115.577 -114.588 55.7117 -115.967 -116.002 56.736 
-114.4 -109.698 53.8863 -114.346 -108.699 53.3634 -114.44 -111.024 54.2574 
-114.445 -112.441 54.6326 -114.701 -113.763 55.4229 -115.154 -115.258 56.4158 
-115.554 -116.824 57.4102 -113.449 -109.322 53.9074 -113.786 -108.27 53.6807 
-113.335 -110.533 54.1948 -113.532 -111.72 54.6635 -113.985 -112.846 55.4395 
-114.528 -114.288 56.3141 -114.926 -116.05 57.1288 -115.289 -117.537 58.2178 
-112.906 -108.965 54.3132 -113.434 -107.901 54.2669 -112.507 -110.141 54.3733 
-112.613 -111.223 54.7289 -113.187 -112.174 55.5026 -113.862 -113.372 56.3312 
-114.324 -115.095 56.9642 -114.658 -116.861 57.8308 -115.084 -118.186 59.1823 
-112.572 -108.649 54.9042 -113.008 -107.614 54.825 -112.113 -109.778 54.9149 
-112.035 -110.83 55.0884 -112.468 -111.775 55.6752 -113.104 -112.785 56.4278 
-113.627 -114.193 56.954 -114.05 -115.977 57.5741 -114.531 -117.624 58.7664 
-115.005 -118.899 60.2529 -112.292 -108.032 55.4363 -111.929 -109.19 55.5978 
-111.653 -108.65 56.2458 -111.442 -109.786 56.5479 -111.269 -109.391 57.3106 
-111.707 -110.295 55.7569 -111.206 -110.491 57.6908 -111.298 -110.217 58.471 
-111.451 -110.91 56.9143 -111.895 -111.368 56.1385 -111.402 -111.417 58.8341 
-111.764 -111.153 59.6327 -111.344 -111.811 58.1266 -111.751 -112.183 57.3727 
-112.384 -112.459 56.7403 -112.125 -112.381 59.8654 -112.565 -112.14 60.6204 
-111.767 -112.81 59.1333 -111.831 -113.152 58.3875 -112.285 -113.339 57.678 
-112.922 -113.637 57.1828 -113.254 -113.357 60.5268 -113.726 -113.291 60.9955 
-112.865 -113.679 59.8877 -112.685 -113.988 59.1552 -112.759 -114.169 58.4495 
-113.038 -114.546 57.9268 -113.5 -115.236 57.6421 -114.55 -114.783 60.7596 
-115.084 -114.841 60.9059 -114.169 -114.902 60.435 -113.959 -115.078 59.9674 
-113.814 -115.241 59.4592 -113.739 -115.674 59.0551 -113.863 -116.441 58.8237 
-114.16 -117.163 58.7434 -115.599 -116.609 61.1211 -116.127 -116.593 61.1127 
-115.142 -116.685 61.065 -114.835 -116.794 60.9655 -114.545 -116.924 60.8515 
-114.239 -117.321 60.6965 -114.181 -118.041 60.5125 -114.412 -118.638 60.3817 
-114.708 -118.862 60.3142 -116.121 -118.231 61.9799 -116.585 -118.108 61.9113 
-115.603 -118.375 62.0402 -115.143 -118.558 62.1219 -114.681 -118.746 62.2829 
-114.125 -119.086 62.4095 -113.793 -119.718 62.2983 -114.003 -120.276 62.0289 
-114.499 -120.368 61.8172 -114.929 -120.168 61.6636 -115.035 -121.243 62.5613 
-114.461 -121.537 62.779 -114.535 -122.468 63.6063 -113.703 -121.829 63.0205 
-113.697 -122.801 63.7799 -114.149 -123.477 64.8245 -113.1 -121.667 63.4352 
-112.848 -122.934 64.0814 -113.286 -123.766 64.884 -113.993 -124.377 66.1303 
-113.23 -121.05 63.8132 -112.645 -122.53 64.5988 -112.742 -123.615 65.1561 
-113.226 -124.502 66.0984 -113.616 -125.319 67.3804 -113.977 -120.504 63.7976 
-113.326 -121.968 64.9165 -113.021 -123.128 65.6025 -112.888 -124.121 66.3638 
-112.867 -125.168 67.4776 -112.914 -126.288 68.7664 -114.697 -120.151 63.5494 
-114.198 -121.578 64.8713 -113.803 -122.836 65.89 -113.203 -123.784 66.8235 
-112.587 -124.713 67.8889 -112.335 -125.976 69.1131 -112.285 -127.236 70.2614 
-115.267 -119.822 63.3789 -114.813 -121.152 64.7731 -114.447 -122.561 66.047 
-113.815 -123.711 67.272 -112.907 -124.514 68.4416 -112.303 -125.568 69.6111 
-112.028 -126.876 70.7507 -111.754 -127.937 71.6354 -115.851 -119.569 63.2675 
-115.384 -120.744 64.6822 -114.954 -122.09 66.0938 -114.403 -123.445 67.5707 
-113.556 -124.412 68.9139 -112.779 -125.344 70.048 -112.274 -126.486 71.1825 
-111.752 -127.475 72.2289 -111.199 -128.197 72.9537 -116.386 -119.406 63.141 
-115.981 -120.52 64.5164 -115.515 -121.71 65.9276 -114.962 -123.02 67.5167 
-114.235 -124.108 69.066 -113.478 -125.087 70.2485 -112.852 -126.197 71.3325 
-112.197 -127.102 72.539 -111.426 -127.661 73.5909 -110.822 -128.181 74.2446 
-115.283 -122.014 63.0381 -114.946 -123.075 64.3865 -115.638 -122.822 63.6668 
-114.781 -123.918 65.9899 -115.44 -123.68 65.3825 -116.099 -123.46 64.5647 
-114.463 -124.966 67.4111 -115.189 -124.575 67.106 -115.875 -124.373 66.3703 
-116.639 -123.983 65.5753 -113.726 -126.221 68.677 -114.549 -125.88 68.4237 
-115.346 -125.604 67.8247 -116.257 -125.178 67.1171 -117.136 -124.558 66.3491 
-112.896 -127.376 70.0458 -113.727 -127.168 69.6943 -114.596 -126.949 69.0183 
-115.59 -126.599 68.262 -116.645 -125.89 67.591 -117.469 -125.227 66.7288 
-112.137 -128.273 71.3102 -112.948 -128.193 70.9388 -113.922 -127.948 70.3182 
-114.942 -127.721 69.4622 -116.055 -127.197 68.6843 -117.034 -126.484 67.8836 
-117.738 -125.936 66.8732 -111.368 -128.759 72.4832 -112.128 -128.993 71.9745 
-113.237 -128.812 71.4595 -114.36 -128.519 70.7607 -115.498 -128.144 69.9166 
-116.605 -127.577 69.054 -117.458 -127.02 68.0641 -118.132 -126.508 67 
-110.806 -128.868 73.7633 -111.437 -129.442 73.0714 -112.576 -129.559 72.4289 
-113.798 -129.291 71.8497 -114.958 -128.894 71.1247 -116.136 -128.412 70.2182 
-117.171 -127.893 69.228 -117.962 -127.393 68.1826 -118.672 -126.81 67.1813 
-110.71 -128.597 75.1901 -111.006 -129.398 74.5514 -111.321 -129.153 75.7661 
-111.971 -129.8 74.9828 -112.596 -129.494 75.811 -111.998 -129.912 73.6617 
-113.411 -129.796 74.9456 -114.228 -129.483 75.6732 -113.128 -130.036 73.9672 
-113.303 -129.912 72.8799 -115.047 -129.692 74.8846 -116.047 -129.512 75.7326 
-114.493 -129.903 73.9622 -114.376 -129.97 73.1221 -114.542 -129.585 72.1938 
-116.883 -129.757 74.9817 -117.809 -129.597 75.5941 -116.065 -129.896 73.9502 
-115.677 -129.986 73.073 -115.609 -129.732 72.2645 -115.778 -129.122 71.2783 
-118.679 -129.671 74.6656 -119.259 -129.404 74.8894 -117.895 -129.831 73.8039 
-117.245 -129.973 72.7793 -116.945 -129.827 71.9541 -116.874 -129.286 71.0976 
-116.98 -128.588 70.1663 -120.127 -129.421 73.9113 -120.468 -129.03 74.0852 
-119.612 -129.597 73.271 -118.932 -129.721 72.2664 -118.408 -129.698 71.4152 
-118.119 -129.317 70.7114 -117.977 -128.682 69.9344 -117.952 -128.03 69.0871 
-121.229 -129.166 73.2744 -121.516 -128.648 73.5452 -120.91 -129.444 72.6991 
-120.396 -129.507 71.7643 -119.822 -129.42 70.9027 -119.385 -129.13 70.3186 
-119.075 -128.6 69.7059 -118.878 -127.981 68.9282 -118.764 -127.402 68.057 
-122.069 -128.759 72.7712 -122.329 -128.214 73.0299 -121.842 -129.175 72.2529 
-121.515 -129.338 71.398 -121.057 -129.22 70.5055 -120.598 -128.897 69.9044 
-120.208 -128.413 69.3996 -119.905 -127.817 68.7191 -119.7 -127.225 67.9177 
-119.537 -126.672 67.1102 -111.106 -127.808 75.0308 -111.213 -128.187 75.8994 
-111.857 -127.56 75.2978 -112.216 -127.777 75.9465 -112.938 -127.311 75.0037 
-112.059 -128.714 76.2085 -113.46 -127.26 75.58 -114.168 -126.971 74.3951 
-113.207 -128.065 76.1392 -113.507 -128.992 76.151 -114.816 -126.85 75.0143 
-115.472 -126.689 73.5604 -114.518 -127.326 75.9495 -114.724 -128.21 76.3011 
-115.315 -129.031 76.1905 -116.23 -126.686 74.0552 -116.707 -126.372 72.5945 
-115.916 -126.932 75.4353 -116.001 -127.442 76.2719 -116.508 -128.308 76.4235 
-117.16 -129.149 76.1328 -117.407 -126.287 72.9389 -117.664 -125.718 71.792 
-117.215 -126.667 74.3099 -117.225 -126.939 75.5802 -117.579 -127.468 76.1515 
-118.131 -128.349 75.9783 -118.673 -129.097 75.4988 -118.223 -125.439 72.1123 
-118.387 -124.834 71.1459 -118.16 -125.962 73.1598 -118.248 -126.347 74.3337 
-118.551 -126.685 75.2649 -119.026 -127.273 75.4999 -119.489 -128.066 75.1666 
-119.944 -128.689 74.6468 -118.934 -124.523 71.4106 -119.052 -124.002 70.4175 
-118.909 -124.998 72.3449 -119.063 -125.496 73.2151 -119.409 -125.96 74.0564 
-119.903 -126.385 74.6884 -120.407 -126.935 74.8589 -120.817 -127.611 74.5734 
-121.175 -128.221 74.0732 -119.656 -123.74 70.577 -119.675 -123.248 69.6153 
-119.672 -124.159 71.5431 -119.821 -124.645 72.3327 -120.149 -125.242 72.9374 
[...]
CELL_DATA 2000
SCALARS Distance double
LOOKUP_TABLE default
173.551 173.541 173.898 174.678 173.66 173.961 174.754 175.114 175.959 
173.837 174.13 174.935 175.259 176.137 176.477 177.368 174.035 174.336 
175.189 175.495 176.399 176.718 177.646 177.955 178.861 174.336 174.6 
175.517 175.805 176.749 177.038 177.974 178.264 179.174 179.462 180.311 
174.784 174.994 175.927 176.187 177.147 177.422 178.357 178.621 179.508 
179.771 180.602 180.853 181.592 175.31 175.493 176.408 176.632 177.558 
177.814 178.724 178.992 179.86 180.111 180.91 181.137 181.855 182.058 
182.69 175.872 176.027 176.918 177.115 177.996 178.214 179.072 179.326 
180.168 180.433 181.209 181.433 182.11 182.304 182.906 183.089 183.634 
176.463 176.577 177.402 177.588 178.412 178.622 179.422 179.654 180.447 
180.708 181.458 181.694 182.338 182.529 183.089 183.272 183.791 183.971 
184.445 172.855 171.789 172.476 172.815 170.646 171.386 171.747 172.49 
172.916 169.432 170.202 170.573 171.378 171.812 172.607 173.058 168.271 
169 169.343 170.146 170.553 171.413 171.864 172.714 173.192 167.184 
167.881 168.202 168.935 169.289 170.104 170.547 171.446 171.975 172.871 
173.451 166.147 166.798 167.109 167.816 168.146 168.885 169.307 170.153 
170.745 171.668 172.346 173.234 173.909 165.35 165.823 166.084 166.72 
167.052 167.77 168.198 168.995 169.606 170.509 171.255 172.169 172.907 
173.76 174.451 164.908 165.182 165.377 165.805 166.124 166.735 167.207 
167.951 168.573 169.431 170.174 171.095 171.865 172.764 173.506 174.341 
175.044 164.633 164.848 165.03 165.285 165.584 165.995 166.491 167.092 
167.734 168.472 169.179 170.023 170.783 171.705 172.518 173.421 174.227 
175.017 175.731 164.531 164.66 164.717 165.001 165.068 164.978 165.296 
165.262 165.591 165.821 165.537 165.867 165.716 166.121 166.029 166.518 
166.969 166.473 166.795 166.473 166.932 166.73 167.261 167.14 167.756 
168.418 167.792 168.1 167.599 168.027 167.682 168.178 167.959 168.52 
168.438 169.123 170.025 169.338 169.657 169.046 169.443 168.925 169.366 
168.965 169.489 169.263 169.95 169.893 170.708 171.837 171.061 171.449 
170.732 171.203 170.525 171.031 170.391 170.987 170.486 171.279 170.969 
171.893 171.69 172.578 173.787 172.997 173.437 172.664 173.197 172.453 
173.033 172.289 172.935 172.272 173.1 172.606 173.57 173.167 174.065 
173.679 174.426 175.533 174.891 175.281 174.616 175.067 174.421 174.923 
174.279 174.807 174.206 174.839 174.395 175.165 174.833 175.578 175.213 
175.818 175.416 175.932 176.734 176.656 177.056 177.721 176.456 176.928 
177.541 177.933 178.551 176.097 176.642 177.245 177.672 178.249 178.736 
179.441 175.831 176.319 176.989 177.37 177.947 178.399 179.082 179.636 
180.365 175.836 176.226 177.009 177.283 177.929 178.212 178.841 179.259 
179.926 180.477 181.152 175.949 176.334 177.178 177.462 178.207 178.399 
179.02 179.18 179.734 180.062 180.715 181.255 181.961 176.067 176.447 
177.275 177.62 178.413 178.716 179.412 179.525 180.035 180.085 180.657 
180.959 181.704 182.167 182.824 176.247 176.582 177.379 177.691 178.462 
178.838 179.612 179.884 180.473 180.513 181.02 181.114 181.785 182.074 
182.738 183.025 183.449 176.452 176.777 177.559 177.826 178.554 178.878 
179.647 180.006 180.68 180.876 181.394 181.499 182.07 182.263 182.87 
183.056 183.47 183.576 183.819 177.035 178.036 177.672 177.925 178.951 
178.648 178.971 178.611 178.913 179.924 179.618 180.005 179.66 180.014 
179.626 179.925 180.891 180.644 181.06 180.726 181.107 180.74 181.087 
180.661 180.951 181.721 181.571 182.023 181.758 182.139 181.822 182.186 
181.818 182.125 181.685 181.931 182.517 182.379 182.866 182.659 183.049 
182.794 183.156 182.864 183.174 182.803 183.024 182.592 182.764 183.241 
183.14 183.582 183.446 183.822 183.632 183.981 183.759 184.078 183.784 
184.014 183.625 183.78 183.35 183.484 183.702 183.695 184.059 184.048 
184.414 184.326 184.667 184.512 184.831 184.619 184.88 184.571 184.748 
184.347 184.478 184.045 184.169 183.996 184.007 184.358 184.418 184.839 
184.847 185.238 185.146 185.474 185.313 185.586 185.366 185.571 185.263 
185.399 185.015 185.117 184.704 184.8 184.289 185.086 184.649 184.707 
186.095 185.587 185.617 185.174 185.246 187.024 186.551 186.537 186.111 
186.127 185.705 185.689 188.013 187.44 187.363 186.933 186.929 186.549 
186.501 186.063 185.94 189.161 188.524 188.381 187.793 187.752 187.318 
187.286 186.849 186.704 186.233 186.04 189.996 189.598 189.434 188.854 
188.692 188.178 188.086 187.629 187.463 186.975 186.731 186.267 186.019 
190.372 190.218 190.126 189.741 189.496 189.028 188.8 188.372 188.142 
187.69 187.39 186.918 186.606 186.17 185.859 190.594 190.523 190.531 
190.289 190.092 189.685 189.39 188.974 188.691 188.287 187.964 187.52 
187.154 186.713 186.357 185.939 185.582 190.693 190.704 190.727 190.627 
190.489 190.198 189.904 189.504 189.178 188.782 188.45 188.036 187.652 
187.215 186.818 186.401 186.024 185.623 185.255 184.275 184.583 184.577 
185.03 184.947 184.922 185.351 185.464 186.028 185.243 185.24 185.62 
185.755 186.32 186.48 187.02 185.534 185.521 185.882 185.983 186.553 
186.755 187.408 187.514 188.091 185.813 185.849 186.244 186.29 186.836 
186.998 187.69 187.899 188.587 188.673 189.233 185.831 186.043 186.439 
186.604 187.07 187.255 187.815 188.088 188.692 188.982 189.483 189.648 
189.975 185.527 185.876 186.212 186.562 186.934 187.276 187.685 188.039 
188.477 188.857 189.258 189.594 189.872 190.089 190.264 185.119 185.479 
185.78 186.163 186.496 186.916 187.295 187.722 188.125 188.527 188.919 
189.27 189.6 189.866 190.113 190.294 190.474 184.722 185.073 185.384 
185.73 186.064 186.447 186.841 187.269 187.701 188.131 188.556 188.942 
189.329 189.635 189.948 190.159 190.373 190.507 190.617 176.822 177.72 
177.509 177.921 178.663 178.419 178.857 178.57 178.935 179.687 179.403 
179.852 179.55 179.951 179.623 180.01 180.695 180.429 180.856 180.564 
180.956 180.644 180.996 180.69 181.002 181.597 181.388 181.829 181.563 
181.953 181.638 181.962 181.632 181.899 181.575 181.771 182.421 182.259 
182.754 182.533 182.98 182.666 183.026 182.636 182.925 182.519 182.768 
182.345 182.54 183.177 183.063 183.581 183.434 183.915 183.682 184.064 
183.721 184.009 183.602 183.838 183.411 183.598 183.15 183.287 183.821 
183.762 184.25 184.184 184.64 184.518 184.861 184.641 184.851 184.562 
184.692 184.375 184.441 184.091 184.092 183.737 183.734 184.334 184.317 
184.75 184.742 185.158 185.122 185.445 185.305 185.46 185.227 185.265 
185.019 185.01 184.749 184.688 184.382 184.3 184.008 183.987 176.175 
175.409 176.246 177.104 174.634 175.503 176.452 177.215 178.076 173.881 
174.797 175.835 176.621 177.585 178.276 179.149 173.026 174.056 175.205 
176.068 177.101 177.833 178.778 179.402 180.207 172.11 173.169 174.41 
175.416 176.532 177.354 178.331 179.023 179.867 180.427 181.124 171.424 
172.306 173.547 174.592 175.811 176.744 177.791 178.554 179.446 180.067 
180.811 181.308 181.943 171.16 171.77 172.908 173.802 175.045 176.008 
177.147 177.996 178.968 179.654 180.463 180.998 181.67 182.118 182.71 
171.229 171.637 172.64 173.301 174.447 175.296 176.439 177.326 178.357 
179.15 180.017 180.643 181.342 181.833 182.428 182.856 183.383 171.433 
171.75 172.649 173.132 174.149 174.804 175.857 176.642 177.653 178.481 
179.377 180.12 180.848 181.444 182.041 182.533 183.06 183.481 183.937 
171.816 172.825 172.539 173.055 173.973 173.653 174.216 173.904 174.515 
175.205 174.878 175.475 175.133 175.733 175.428 176.114 176.473 176.143 
176.758 176.417 176.999 176.656 177.276 177.039 177.792 177.784 177.431 
178.038 177.695 178.261 177.906 178.464 178.176 178.841 178.693 179.45 
179.085 178.733 179.304 178.962 179.522 179.164 179.705 179.36 179.947 
179.715 180.384 180.267 180.922 180.288 179.966 180.483 180.173 180.722 
180.412 180.973 180.624 181.171 180.84 181.413 181.19 181.779 181.629 
182.152 181.378 181.091 181.555 181.269 181.767 181.53 182.081 181.832 
182.35 182.038 182.512 182.219 182.711 182.495 182.982 182.789 183.205 
182.339 182.112 182.543 182.273 182.698 182.479 182.965 182.803 183.278 
183.074 183.473 183.223 183.613 183.394 183.811 183.615 183.999 183.781 
184.092 182.975 184.003 183.406 183.201 185.066 184.443 184.235 183.59 
183.358 186.186 185.54 185.353 184.671 184.452 183.784 183.61 187.266 
186.664 186.511 185.847 185.645 184.933 184.719 184.065 183.895 188.172 
187.663 187.514 186.964 186.781 186.127 185.863 185.168 184.908 184.289 
184.071 188.972 188.516 188.375 187.881 187.717 187.167 186.924 186.274 
185.973 185.302 185.045 184.434 184.224 189.716 189.334 189.267 188.763 
188.618 188.065 187.862 187.271 187.009 186.361 186.086 185.442 185.219 
184.613 184.418 190.265 190.033 190.014 189.63 189.472 188.964 188.716 
188.167 187.88 187.313 186.996 186.417 186.117 185.563 185.314 184.775 
184.551 190.551 190.441 190.373 190.178 189.968 189.646 189.319 188.898 
188.521 188.052 187.658 187.168 186.784 186.311 185.985 185.542 185.274 
184.823 184.58 182.951 183.167 183.388 184.009 183.401 183.627 184.343 
184.504 185.12 183.735 183.94 184.724 184.901 185.635 185.694 186.286 
183.989 184.286 185.1 185.332 186.145 186.27 186.952 186.909 187.411 
183.993 184.428 185.233 185.609 186.431 186.735 187.508 187.599 188.153 
188.007 188.371 183.896 184.35 185.136 185.585 186.38 186.851 187.705 
188.059 188.736 188.739 189.102 188.878 189.136 183.839 184.258 185.023 
185.446 186.21 186.695 187.569 188.108 188.921 189.196 189.618 189.522 
189.686 189.524 189.742 183.734 184.165 184.88 185.32 186.036 186.502 
187.299 187.88 188.701 189.202 189.698 189.839 189.96 189.904 190.002 
190.003 190.21 183.519 183.965 184.604 185.088 185.735 186.243 186.922 
187.511 188.216 188.824 189.332 189.704 189.867 189.981 190.04 190.118 
190.279 190.37 190.537 182.288 181.234 182.011 182.453 180.018 180.887 
181.378 182.167 182.655 178.655 179.6 180.135 181.043 181.582 182.405 
182.946 177.233 178.173 178.662 179.679 180.22 181.215 181.741 182.65 
183.141 175.836 176.741 177.147 178.128 178.608 179.683 180.191 181.255 
181.723 182.701 183.115 174.387 175.321 175.73 176.652 177.103 178.078 
178.598 179.636 180.167 181.19 181.676 182.623 183.047 172.949 173.854 
174.307 175.249 175.744 176.677 177.226 178.172 178.778 179.735 180.333 
181.251 181.776 182.626 183.056 171.789 172.531 172.986 173.856 174.38 
175.326 175.896 176.863 177.473 178.442 179.072 180.005 180.576 181.429 
181.89 182.668 183.02 170.959 171.547 171.975 172.672 173.163 174 
174.558 175.508 176.108 177.107 177.714 178.71 179.273 180.205 180.666 
181.498 181.852 182.596 182.864 170.691 170.64 171.002 171.698 170.679 
170.999 171.719 172.056 172.824 170.923 171.135 171.865 172.13 172.913 
173.27 174.167 171.348 171.483 172.201 172.372 173.17 173.446 174.365 
174.728 175.721 171.765 171.913 172.6 172.754 173.544 173.79 174.722 
175.02 176.005 176.341 177.336 172.116 172.278 172.942 173.117 173.897 
174.171 175.115 175.42 176.376 176.663 177.605 177.942 178.882 172.488 
172.627 173.319 173.472 174.283 174.534 175.503 175.81 176.759 177.021 
177.885 178.183 179.062 179.424 180.276 172.907 173.034 173.777 173.922 
174.778 174.987 175.955 176.219 177.149 177.382 178.192 178.433 179.236 
179.567 180.392 180.739 181.483 173.353 173.477 174.235 174.407 175.257 
175.483 176.387 176.65 177.51 177.745 178.507 178.722 179.473 179.746 
180.537 180.853 181.598 181.882 182.519 173.856 174.992 174.517 174.772 
176.249 175.719 175.983 175.512 175.824 177.621 177.02 177.244 176.737 
177.046 176.604 176.941 179.116 178.463 178.662 178.044 178.304 177.814 
178.147 177.716 178.022 180.576 179.981 180.207 179.541 179.776 179.157 
179.47 178.95 179.275 178.778 179.028 181.837 181.364 181.604 181.043 
181.271 180.67 180.965 180.383 180.727 180.139 180.434 179.821 180.051 
182.92 182.533 182.777 182.321 182.537 182.048 182.315 181.832 182.165 
181.641 181.949 181.331 181.567 180.901 181.115 183.874 183.559 183.831 
183.436 183.665 183.222 183.466 183.047 183.347 182.947 183.238 182.764 
182.971 182.394 182.548 181.935 182.103 184.686 184.451 184.748 184.444 
184.703 184.32 184.565 184.154 184.421 184.033 184.297 183.901 184.095 
183.639 183.761 183.248 183.357 182.826 182.957 183.575 183.963 184.049 
184.632 184.337 184.43 185.018 185.134 185.753 184.679 184.8 185.396 
185.521 186.179 186.294 186.956 184.94 185.13 185.767 185.913 186.577 
186.718 187.406 187.529 188.2 185.109 185.364 186.046 186.259 186.917 
187.089 187.716 187.892 188.494 188.679 189.202 185.229 185.506 186.178 
186.462 187.109 187.35 187.93 188.123 188.638 188.831 189.267 189.453 
189.745 185.302 185.583 186.191 186.509 187.121 187.437 188.011 188.264 
188.771 188.952 189.39 189.512 189.84 189.887 190.067 185.287 185.581 
186.111 186.44 186.987 187.35 187.894 188.238 188.734 189.014 189.462 
189.658 190.037 190.098 190.349 190.272 190.406 185.185 185.489 185.96 
186.288 186.769 187.139 187.625 188.017 188.457 188.83 189.218 189.571 
189.931 190.202 190.467 190.555 190.677 190.607 190.645 164.434 164.717 
164.457 164.205 165.097 164.738 164.419 164.145 163.826 165.832 165.254 
164.885 164.408 164.013 163.704 163.48 166.87 166.168 165.835 165.129 
164.786 164.146 163.934 163.577 163.741 167.985 167.281 167.017 166.273 
166.041 165.26 165.139 164.453 164.622 164.266 164.803 169.176 168.458 
168.26 167.523 167.377 166.64 166.616 165.897 166.054 165.464 165.872 
165.566 166.193 170.443 169.743 169.651 168.886 168.845 168.073 168.153 
167.433 167.641 166.98 167.301 166.782 167.254 166.971 167.562 171.641 
171.035 171.047 170.364 170.436 169.682 169.847 169.089 169.345 168.617 
168.918 168.262 168.634 168.145 168.629 168.33 168.867 172.73 172.202 
172.255 171.707 171.811 171.224 171.389 170.765 170.979 170.317 170.537 
169.867 170.117 169.54 169.891 169.469 169.898 169.596 170.026 164.151 
163.952 163.922 163.635 163.712 163.778 163.632 163.519 163.425 163.507 
163.616 163.762 163.712 163.802 163.628 163.89 163.801 163.664 164.017 
164.006 164.361 164.208 164.522 164.378 164.881 164.838 164.362 164.716 
164.508 164.981 164.845 165.25 165.08 165.497 165.442 166.022 166.218 
165.627 165.915 165.48 165.891 165.6 166.033 165.819 166.256 166.104 
166.62 166.593 167.205 167.558 166.991 167.239 166.754 167.091 166.663 
167.045 166.706 167.162 166.926 167.456 167.302 167.881 167.811 168.401 
168.8 168.259 168.45 167.997 168.292 167.872 168.21 167.811 168.217 
167.907 168.407 168.191 168.728 168.572 169.111 169.01 169.542 169.912 
169.415 169.53 169.107 169.343 168.982 169.294 168.943 169.306 168.98 
169.414 169.151 169.626 169.419 169.897 169.744 170.235 170.134 170.642 
164.212 163.674 164.022 164.284 163.436 163.569 163.893 164.26 164.726 
163.912 163.661 163.998 164.097 164.68 164.942 165.568 164.981 164.5 
164.814 164.563 165.121 165.139 165.834 166.001 166.75 166.19 165.71 
166.014 165.6 166.006 165.778 166.362 166.4 167.171 167.354 168.2 
167.341 166.897 167.177 166.774 167.065 166.711 167.123 167.001 167.718 
167.85 168.759 168.925 169.831 168.459 168.005 168.219 167.834 168.092 
167.725 168.095 167.846 168.533 168.527 169.505 169.605 170.619 170.678 
171.647 169.574 169.1 169.275 168.847 169.115 168.745 169.193 168.909 
169.655 169.528 170.549 170.531 171.609 171.596 172.61 172.602 173.581 
170.702 170.226 170.436 169.959 170.275 169.859 170.398 170.102 170.931 
170.768 171.804 171.711 172.758 172.673 173.634 173.584 174.49 174.495 
175.342 181.925 180.951 181.271 180.857 179.821 180.197 179.744 180.084 
179.591 178.549 178.963 178.453 178.859 178.329 178.722 178.203 177.183 
177.595 177.026 177.471 176.919 177.372 176.86 177.298 176.809 175.844 
176.201 175.606 176.019 175.463 175.918 175.409 175.897 175.423 175.896 
175.415 174.577 174.886 174.29 174.653 174.109 174.505 173.979 174.427 
173.92 174.428 173.922 174.435 173.923 173.361 173.638 173.033 173.376 
172.841 173.211 172.679 173.05 172.51 172.932 172.41 172.892 172.393 
172.91 172.469 172.254 172.47 171.868 172.154 171.625 171.969 171.463 
171.803 171.286 171.622 171.128 171.495 171.053 171.47 171.104 171.587 
171.325 171.309 171.461 170.896 171.087 170.578 170.831 170.357 170.645 
170.177 170.478 170.041 170.355 169.972 170.302 169.986 170.371 170.151 
170.623 170.499 
POINT_DATA 1002
SCALARS Distance double
LOOKUP_TABLE default
174.276 173.234 173.144 174.274 173.206 175.484 174.404 173.372 175.587 
176.808 174.615 173.525 175.788 177.04 178.257 174.871 173.711 176.084 
177.328 178.572 179.757 175.219 174.08 176.463 177.703 178.894 180.058 
181.12 175.685 174.589 176.88 178.101 179.269 180.365 181.386 182.274 
176.208 175.134 177.333 178.463 179.61 180.703 181.664 182.518 183.28 
176.741 175.743 177.808 178.849 179.908 180.99 181.937 182.732 183.472 
184.155 177.249 176.4 178.218 179.214 180.208 181.229 182.16 182.922 
183.615 184.289 184.893 172.188 172.096 171.085 170.978 169.875 172.17 
169.755 168.668 170.987 172.279 168.58 167.565 169.698 170.975 172.34 
167.499 166.49 168.528 169.642 171.025 172.563 166.406 165.548 167.425 
168.486 169.793 171.418 173.06 165.518 164.986 166.331 167.402 168.707 
170.319 172.031 173.632 165.046 164.695 165.57 166.475 167.746 169.268 
170.936 172.631 174.258 164.806 164.401 165.242 165.944 167.056 168.403 
169.866 171.549 173.375 175.051 164.39 164.957 164.635 165.343 165.228 
165.591 166.043 166.195 166.218 166.556 167.184 167.53 167.161 167.42 
167.81 168.663 169.063 168.455 168.467 168.649 169.103 170.289 170.724 
170.021 169.853 169.78 170.039 170.711 172.173 172.616 171.886 171.702 
171.539 171.641 172.159 172.813 174.205 174.54 173.935 173.771 173.628 
173.64 174.023 174.532 174.853 175.931 176.13 175.709 175.56 175.443 
175.356 175.53 175.95 176.258 176.347 177.459 177.366 178.341 177.165 
178.096 179.22 176.817 177.758 178.895 180.212 176.614 177.538 178.547 
179.804 181.082 176.715 177.7 178.551 179.428 180.548 181.831 176.85 
177.973 178.949 179.563 180.214 181.389 182.667 176.936 178.042 179.228 
180.064 180.484 181.278 182.449 183.36 177.105 178.1 179.248 180.364 
180.997 181.585 182.497 183.27 183.721 177.299 178.275 179.289 180.409 
181.272 181.918 182.711 183.405 183.74 183.998 178.31 179.295 179.31 
180.344 180.38 180.358 181.381 181.459 181.486 181.421 182.254 182.438 
182.526 182.55 182.408 183.056 183.291 183.424 183.522 183.454 183.212 
183.699 183.995 184.186 184.336 184.38 184.213 183.918 184.029 184.452 
184.8 185.018 185.143 185.122 184.913 184.605 184.273 184.776 185.292 
185.624 185.783 185.837 185.758 185.53 185.22 184.6 185.076 185.584 
186.104 186.601 185.673 186.952 187.522 186.559 186.153 187.848 188.673 
187.292 186.939 186.415 189.055 189.759 188.243 187.726 187.197 186.504 
189.983 190.251 189.27 188.569 187.968 187.227 186.464 190.425 190.443 
189.975 189.25 188.585 187.879 187.066 186.291 190.703 190.64 190.47 
189.835 189.091 188.4 187.617 186.784 185.999 190.771 190.669 190.71 
190.292 189.589 188.857 188.095 187.248 186.424 185.653 184.227 184.906 
184.616 185.246 184.981 185.902 185.496 185.255 186.12 186.941 185.818 
185.535 186.336 187.206 188.081 186.198 185.71 186.72 187.455 188.414 
189.269 186.225 185.559 186.899 187.594 188.399 189.266 189.918 185.848 
185.175 186.566 187.34 188.126 188.911 189.601 190.102 185.417 184.766 
186.078 186.846 187.704 188.548 189.301 189.9 190.341 185.04 184.362 
185.697 186.419 187.26 188.143 188.98 189.707 190.239 190.543 177.038 
178.192 177.932 179.136 178.926 179.246 180.151 179.989 180.274 180.337 
181.149 180.949 181.273 181.326 181.33 182.071 181.776 182.271 182.32 
182.245 182.128 182.933 182.557 183.261 183.413 183.348 183.186 182.993 
183.701 183.276 184.112 184.377 184.407 184.275 184.057 183.749 184.31 
183.878 184.743 185.068 185.141 185.01 184.798 184.472 184.061 175.359 
176.345 174.525 175.641 173.738 177.373 175.014 172.893 176.851 178.535 
174.262 171.924 176.339 178.117 179.686 173.321 171.087 175.649 177.61 
179.269 180.65 172.513 170.674 174.809 176.977 178.788 180.285 181.5 
172.124 170.682 174.087 176.241 178.225 179.893 181.213 182.299 172.105 
170.902 173.692 175.563 177.514 179.334 180.825 181.991 182.996 172.244 
171.154 173.598 175.158 176.851 178.596 180.203 181.519 182.614 183.573 