# vtk DataFile Version 4.0
vtk output
ASCII
DATASET POLYDATA
POINTS 1002 float
-120.589 -111.958 52.4207 -120.256 -110.665 51.7105 -119.751 -111.082 51.8864 
-120.122 -112.295 52.8246 -119.297 -111.393 52.3149 -120.88 -113.13 53.4558 
-119.697 -112.447 53.5581 -118.877 -111.662 52.9303 -120.424 -113.338 54.1922 
-121.042 -114.027 55.0575 -119.265 -112.677 54.4269 -118.39 -112.091 53.6331 
-119.995 -113.456 55.182 -120.587 -114.308 55.9924 -121.129 -115.137 56.8353 
-118.743 -113.183 55.3124 -117.879 -112.714 54.4018 -119.557 -113.804 56.1872 
-120.182 -114.661 57.0213 -120.681 -115.677 57.726 -121.216 -116.702 58.3043 
-118.195 -113.811 56.2094 -117.502 -113.405 55.1838 -119.014 -114.376 57.1807 
-119.775 -115.226 58.0253 -120.263 -116.276 58.6999 -120.711 -117.37 59.1743 
-121.233 -118.305 59.6775 -117.767 -114.473 57.0761 -117.242 -114.13 55.9714 
-118.41 -115.005 58.1548 -119.23 -115.893 58.9955 -119.795 -116.986 59.6548 
-120.152 -118.053 60.1683 -120.618 -119.004 60.6422 -121.092 -119.752 61.2339 
-117.456 -115.254 57.9417 -116.961 -114.908 56.8419 -117.944 -115.753 59.0835 
-118.637 -116.611 59.9282 -119.226 -117.75 60.5181 -119.534 -118.835 61.0894 
-119.926 -119.722 61.6636 -120.435 -120.464 62.2426 -120.83 -121.068 62.7994 
-117.144 -116.093 58.8326 -116.624 -115.704 57.7896 -117.627 -116.601 59.9885 
-118.177 -117.385 60.8876 -118.68 -118.456 61.4357 -118.94 -119.581 61.9701 
-119.215 -120.476 62.6267 -119.705 -121.138 63.2586 -120.171 -121.701 63.7841 
-120.496 -122.204 64.1677 -116.794 -116.852 59.7105 -116.294 -116.447 58.7548 
-117.3 -117.382 60.8268 -117.762 -118.139 61.8071 -118.157 -119.085 62.4528 
-118.405 -120.122 62.9923 -118.594 -121.066 63.6403 -118.944 -121.771 64.2607 
-119.403 -122.304 64.7333 -119.787 -122.784 65.0692 -120.106 -123.226 65.2796 
-119.604 -109.833 50.9695 -119.033 -110.255 51.1648 -118.95 -109.229 50.0495 
-118.294 -109.626 50.291 -118.281 -108.523 49.2263 -118.513 -110.645 51.5333 
-117.5 -108.892 49.5413 -117.543 -107.432 48.7863 -117.623 -110.068 50.6156 
-117.98 -111.033 52.0422 -116.622 -107.934 49.0875 -116.777 -106.344 48.5979 
-116.63 -109.424 49.8635 -116.914 -110.45 51.1311 -117.399 -111.521 52.7232 
-115.711 -107.019 48.778 -116.01 -105.548 48.3959 -115.612 -108.62 49.4067 
-115.848 -109.775 50.4987 -116.295 -110.851 51.9442 -116.939 -112.196 53.5255 
-114.889 -106.127 48.7021 -115.253 -104.765 48.4013 -114.7 -107.663 49.2127 
-114.976 -108.952 50.1713 -115.345 -110.112 51.4622 -115.872 -111.557 52.8491 
-116.659 -113.016 54.3297 -114.29 -105.215 49.2034 -114.595 -104.012 48.9843 
-114.05 -106.571 49.4904 -114.338 -107.916 50.1592 -114.731 -109.268 51.2345 
-114.972 -110.814 52.4429 -115.586 -112.451 53.7223 -116.431 -113.837 55.1949 
-113.851 -104.564 50.1484 -114.047 -103.562 49.9867 -113.654 -105.639 50.2531 
-113.877 -106.811 50.5842 -114.328 -108.207 51.3449 -114.499 -109.818 52.3303 
-114.761 -111.541 53.398 -115.481 -113.212 54.6849 -116.205 -114.624 56.1984 
-113.359 -104.233 51.0712 -113.519 -103.366 50.9757 -113.252 -105.075 51.1038 
-113.463 -105.956 51.2645 -113.944 -107.134 51.8 -114.27 -108.612 52.5786 
-114.473 -110.254 53.3892 -114.943 -112.078 54.4169 -115.558 -113.925 55.7835 
-116.001 -115.421 57.2867 -112.791 -103.737 51.8493 -112.644 -104.566 51.8535 
-112.007 -104.097 52.6799 -112.13 -104.895 52.7396 -111.717 -104.628 53.8082 
-112.855 -105.298 51.9486 -112.302 -105.503 54.0827 -112.244 -105.465 55.2498 
-112.802 -105.694 53.1166 -113.429 -106.219 52.3856 -112.974 -106.39 55.657 
-113.076 -106.364 56.6527 -113.184 -106.484 54.6609 -113.592 -106.788 53.7957 
-113.995 -107.505 53.1026 -113.66 -107.355 56.8969 -113.9 -107.346 57.6827 
-113.694 -107.536 56.0584 -113.94 -107.754 55.1592 -114.249 -108.132 54.3693 
-114.423 -109.012 53.7598 -114.68 -108.739 57.6303 -115.105 -108.799 58.2077 
-114.489 -108.902 57.0196 -114.514 -109.146 56.2764 -114.728 -109.33 55.5076 
-114.939 -109.823 54.915 -114.93 -110.885 54.554 -116.066 -110.68 58.2228 
-116.499 -110.606 58.5466 -115.746 -110.805 57.8575 -115.46 -110.982 57.4166 
-115.292 -111.135 56.878 -115.375 -111.436 56.3833 -115.46 -112.176 56.0428 
-115.418 -113.159 55.8519 -117.01 -112.589 59.1135 -117.383 -112.342 59.1872 
-116.681 -112.772 58.958 -116.251 -112.884 58.7627 -115.717 -112.993 58.5202 
-115.414 -113.286 58.2384 -115.455 -113.915 57.9485 -115.556 -114.68 57.6621 
-115.678 -115.217 57.4194 -117.233 -114.086 60.3048 -117.624 -113.855 60.1892 
-116.842 -114.261 60.3169 -116.365 -114.355 60.2503 -115.753 -114.433 60.1482 
-115.227 -114.698 60.0229 -115.084 -115.302 59.855 -115.256 -116.031 59.5898 
-115.515 -116.491 59.2357 -115.85 -116.574 58.9193 -116.28 -117.39 60.3436 
-115.787 -117.577 60.6482 -116.242 -118.415 62.1556 -115.329 -117.554 61.0545 
-115.692 -118.616 62.5893 -115.89 -119.749 64.0717 -114.948 -117.122 61.3756 
-115.114 -118.653 62.9392 -115.179 -119.982 64.512 -114.965 -121.213 65.7379 
-114.811 -116.421 61.5619 -114.722 -118.329 63.1344 -114.457 -120.078 64.696 
-114.008 -121.364 66.0043 -113.906 -122.212 67.0243 -115.077 -115.867 61.7048 
-114.741 -117.745 63.3609 -114.185 -119.79 64.9421 -113.22 -121.298 66.1721 
-112.899 -122.191 67.2114 -113.474 -122.808 68.3876 -115.628 -115.607 61.8026 
-115.11 -117.219 63.5666 -114.5 -119.21 65.3882 -113.181 -120.812 66.7702 
-112.251 -121.864 67.6996 -112.656 -122.769 68.7893 -113.572 -123.571 70.0535 
-116.237 -115.493 61.814 -115.653 -116.873 63.5324 -115.075 -118.67 65.5091 
-113.817 -120.224 67.352 -112.434 -121.232 68.5815 -112.217 -122.322 69.5569 
-112.891 -123.533 70.664 -113.451 -124.415 71.6167 -116.795 -115.408 61.7301 
-116.273 -116.664 63.321 -115.713 -118.243 65.17 -114.658 -119.824 67.222 
-113.274 -120.819 68.9548 -112.551 -121.723 70.2083 -112.651 -123.031 71.3 
-112.868 -124.225 72.2449 -112.937 -124.939 72.8602 -117.284 -115.312 61.5375 
-116.858 -116.555 63.0482 -116.356 -117.88 64.7364 -115.476 -119.418 66.6845 
-114.297 -120.652 68.5752 -113.466 -121.475 70.1023 -113.164 -122.493 71.4076 
-112.942 -123.692 72.5701 -112.635 -124.584 73.4291 -112.506 -125.151 73.9388 
-116.786 -117.92 61.4061 -116.556 -119.267 63.2211 -117.188 -118.726 62.4921 
-115.827 -120.892 64.974 -116.627 -120.375 64.1197 -117.461 -119.697 63.3455 
-114.836 -122.195 66.5092 -115.725 -121.984 65.6712 -116.752 -121.354 64.9041 
-117.728 -120.64 64.0529 -114.268 -122.845 68.0374 -115.051 -122.948 67.2893 
-116.053 -122.705 66.5066 -117.155 -122.082 65.8025 -117.997 -121.536 64.8063 
-114.242 -123.493 69.7291 -114.82 -123.549 69.0615 -115.59 -123.615 68.1518 
-116.603 -123.318 67.3699 -117.527 -122.834 66.5319 -118.266 -122.354 65.4192 
-114.115 -124.423 71.2441 -114.665 -124.421 70.6387 -115.211 -124.539 69.6971 
-115.99 -124.49 68.6659 -116.892 -124.166 67.7311 -117.762 -123.68 66.7814 
-118.617 -123.033 65.7612 -113.548 -125.155 72.422 -114.258 -125.312 71.8006 
-114.864 -125.509 70.9468 -115.494 -125.585 69.8841 -116.292 -125.419 68.7599 
-117.185 -125.058 67.7301 -118.113 -124.431 66.8385 -119.02 -123.59 65.9809 
-112.939 -125.536 73.5304 -113.73 -125.873 72.885 -114.553 -126.174 72.0533 
-115.271 -126.326 71.0727 -116.038 -126.25 69.967 -116.904 -126.056 68.8142 
-117.763 -125.687 67.7926 -118.607 -124.966 66.9536 -119.417 -124.052 66.1475 
-112.623 -125.636 74.8382 -113.214 -126.186 74.3499 -113.319 -126.409 75.6447 
-114.003 -126.986 75.084 -114.407 -127.157 75.9066 -114.153 -126.575 73.524 
-115.069 -127.401 75.1595 -115.689 -127.246 75.4247 -114.94 -127.122 73.9772 
-115.092 -126.75 72.4317 -116.416 -127.225 74.4276 -117.227 -126.868 74.6216 
-115.997 -127.35 73.672 -115.941 -127.086 72.4896 -115.996 -126.707 71.2392 
-118.094 -127.218 73.4858 -118.863 -126.89 73.8871 -117.483 -127.689 72.7956 
-117.132 -127.612 71.9398 -117.045 -127.032 71.0933 -116.97 -126.566 70.0255 
-119.713 -127.707 72.7807 -120.362 -127.3 73.257 -119.145 -128.369 72.0992 
-118.628 -128.549 71.3288 -118.264 -127.777 70.6583 -118.057 -126.921 69.8904 
-117.849 -126.404 68.8258 -121.083 -127.962 72.2846 -121.748 -127.429 72.7352 
-120.487 -128.667 71.7034 -119.968 -129.12 71.0525 -119.454 -128.583 70.3536 
-119.04 -127.484 69.6011 -118.764 -126.676 68.7135 -118.59 -125.96 67.7702 
-122.317 -127.669 71.8192 -122.93 -127.149 72.2357 -121.621 -128.221 71.2686 
-120.997 -128.721 70.7024 -120.456 -128.647 70.0555 -119.969 -127.854 69.272 
-119.621 -126.916 68.4369 -119.419 -126.075 67.6214 -119.345 -125.113 66.8611 
-123.352 -127.205 71.2255 -123.746 -126.727 71.6081 -122.768 -127.576 70.6544 
-122.074 -127.895 70.046 -121.44 -128.013 69.4392 -120.939 -127.671 68.7709 
-120.58 -126.938 68.0628 -120.347 -126.074 67.3568 -120.182 -125.143 66.6548 
-120.093 -124.159 65.968 -112.549 -124.882 74.672 -112.939 -125.329 75.6279 
-113.254 -124.446 75.0725 -113.905 -124.684 75.9093 -114.359 -123.972 74.9238 
-113.917 -126.02 76.1412 -115.155 -123.981 75.5911 -115.542 -123.721 74.1586 
-115.048 -125.03 76.0735 -115.212 -126.577 75.9072 -116.437 -123.784 74.6568 
-116.796 -123.707 72.8994 -116.389 -124.052 75.7103 -116.518 -125.37 75.7288 
-116.731 -126.608 75.285 -117.704 -123.917 73.1963 -118.004 -123.474 71.57 
-117.686 -123.82 74.8603 -117.992 -124.348 75.6364 -118.196 -125.698 75.3692 
-118.377 -126.535 74.7145 -118.756 -123.536 71.7988 -118.891 -122.74 70.6021 
-118.756 -123.785 73.4027 -119.163 -123.938 74.8727 -119.551 -124.871 75.3308 
-119.652 -126.069 74.8577 -119.876 -126.765 74.0944 -119.525 -122.516 70.9323 
-119.543 -121.763 69.9229 -119.569 -123.093 72.0905 -119.91 -123.487 73.4042 
-120.376 -124.134 74.3548 -120.618 -125.197 74.4641 -120.854 -126.212 74.0169 
-121.302 -126.924 73.4153 -120.181 -121.419 70.2705 -120.18 -120.84 69.1767 
-120.254 -121.996 71.2684 -120.506 -122.634 72.1621 -120.903 -123.334 72.935 
-121.253 -124.124 73.381 -121.635 -125.054 73.4157 -122.173 -126 73.2038 
-122.661 -126.728 72.8189 -120.816 -120.546 69.3724 -120.819 -120.032 68.2448 
-120.881 -121.056 70.4284 -121.08 -121.729 71.2341 -121.424 -122.526 71.7927 
[...]
CELL_DATA 2000
SCALARS Distance double
LOOKUP_TABLE default
170.83 170.83 171.264 172.129 170.869 171.284 172.159 172.571 173.389 
170.988 171.359 172.241 172.626 173.491 173.842 174.674 171.225 171.537 
172.448 172.78 173.698 174.023 174.935 175.235 176.15 171.581 171.829 
172.748 173.055 174.029 174.339 175.313 175.584 176.531 176.797 177.711 
172.056 172.228 173.107 173.379 174.375 174.718 175.739 176.023 176.965 
177.202 178.097 178.34 179.18 172.64 172.752 173.609 173.792 174.775 
175.085 176.135 176.447 177.397 177.631 178.491 178.719 179.549 179.766 
180.515 173.262 173.366 174.239 174.37 175.333 175.554 176.581 176.853 
177.808 178.042 178.884 179.098 179.896 180.118 180.855 181.035 181.657 
173.855 173.974 174.838 174.999 175.928 176.13 177.08 177.31 178.21 
178.436 179.252 179.467 180.221 180.436 181.131 181.327 181.924 182.074 
182.575 169.996 168.797 169.567 169.968 167.637 168.378 168.73 169.55 
169.997 166.377 167.174 167.492 168.307 168.715 169.586 170.087 165.036 
165.848 166.171 167.019 167.38 168.262 168.74 169.695 170.283 163.791 
164.516 164.816 165.659 166.021 166.893 167.337 168.302 168.936 169.962 
170.656 162.682 163.311 163.543 164.322 164.711 165.566 166.037 166.936 
167.573 168.608 169.414 170.437 171.19 161.792 162.287 162.503 163.13 
163.536 164.338 164.9 165.744 166.384 167.313 168.117 169.183 170.059 
171.044 171.799 161.265 161.596 161.854 162.267 162.656 163.299 163.908 
164.707 165.383 166.215 166.946 167.919 168.799 169.874 170.758 171.699 
172.437 160.99 161.237 161.492 161.778 162.103 162.569 163.12 163.817 
164.506 165.274 165.969 166.809 167.627 168.645 169.606 170.645 171.532 
172.385 173.091 160.929 160.904 161.075 161.39 161.108 161.096 161.471 
161.595 162.022 162.057 161.631 162.035 161.886 162.433 162.445 163.077 
163.581 162.93 163.299 162.829 163.371 163.123 163.787 163.729 164.462 
165.145 164.497 164.823 164.275 164.735 164.3 164.867 164.603 165.271 
165.188 165.927 166.922 166.132 166.525 165.863 166.374 165.793 166.355 
165.865 166.515 166.186 166.96 166.784 167.645 169.114 168.193 168.732 
167.853 168.491 167.674 168.325 167.587 168.292 167.71 168.556 168.134 
169.076 168.761 169.706 171.236 170.468 171.025 170.209 170.791 169.952 
170.497 169.686 170.272 169.615 170.38 169.902 170.798 170.392 171.264 
170.891 171.68 172.894 172.357 172.782 172.218 172.589 171.977 172.269 
171.628 171.941 171.395 171.915 171.557 172.282 172.001 172.73 172.399 
173.026 172.679 173.237 174.08 173.94 174.435 175.302 173.705 174.287 
175.187 175.707 176.616 173.273 173.967 174.91 175.548 176.467 177.015 
177.817 172.857 173.491 174.469 175.195 176.145 176.779 177.521 178.011 
178.55 172.8 173.196 174.158 174.798 175.818 176.44 177.155 177.602 
178.059 178.516 179.028 173.079 173.297 174.174 174.639 175.699 176.24 
177.009 177.303 177.705 178.013 178.557 179.114 179.927 173.415 173.614 
174.398 174.74 175.743 176.238 177.095 177.326 177.743 177.827 178.321 
178.742 179.633 180.262 181.164 173.652 173.914 174.669 174.953 175.848 
176.296 177.188 177.493 178.023 178.041 178.477 178.673 179.476 180.016 
180.931 181.452 182.068 173.789 174.122 174.901 175.185 175.992 176.369 
177.215 177.586 178.244 178.375 178.86 178.944 179.616 179.953 180.788 
181.228 181.858 182.178 182.539 174.44 175.685 175.178 175.457 177.024 
176.498 176.814 176.28 176.59 178.217 177.822 178.127 177.644 177.952 
177.432 177.72 178.976 178.836 179.164 178.85 179.144 178.729 179.02 
178.531 178.791 179.567 179.481 179.922 179.745 180.118 179.832 180.177 
179.779 180.078 179.578 179.813 180.542 180.268 180.803 180.543 181.01 
180.763 181.185 180.885 181.233 180.822 181.077 180.568 180.761 181.695 
181.407 181.902 181.572 182.008 181.705 182.114 181.841 182.189 181.881 
182.137 181.744 181.931 181.457 181.611 182.442 182.357 182.751 182.584 
182.948 182.701 183.041 182.757 183.066 182.77 183.036 182.712 182.923 
182.535 182.689 182.239 182.354 182.83 182.843 183.221 183.214 183.605 
183.505 183.851 183.635 183.923 183.638 183.907 183.6 183.852 183.499 
183.687 183.264 183.376 182.916 182.987 183.189 184.183 183.623 183.643 
185.477 184.804 184.727 184.126 184.095 186.442 185.993 185.836 185.243 
185.063 184.516 184.372 186.925 186.672 186.526 186.14 185.896 185.412 
185.18 184.687 184.454 187.524 187.16 187.16 186.779 186.692 186.195 
186.009 185.478 185.26 184.73 184.467 188.458 187.993 188.154 187.685 
187.822 187.21 187.121 186.417 186.195 185.57 185.313 184.74 184.432 
189.323 188.961 189.096 188.756 188.91 188.445 188.34 187.628 187.258 
186.53 186.145 185.553 185.188 184.639 184.247 189.845 189.639 189.604 
189.424 189.379 189.205 188.989 188.589 188.082 187.464 186.886 186.296 
185.816 185.3 184.846 184.342 183.894 190.02 189.949 189.812 189.673 
189.451 189.336 189.025 188.852 188.366 187.996 187.394 186.902 186.349 
185.853 185.359 184.868 184.385 183.914 183.468 183.114 183.363 183.471 
184.106 183.654 183.764 184.399 184.633 185.384 183.897 184.011 184.547 
184.824 185.518 185.843 186.386 184.173 184.251 184.711 184.892 185.503 
185.851 186.445 186.655 186.965 184.398 184.542 185.014 185.105 185.687 
185.904 186.601 186.795 187.307 187.268 187.591 184.289 184.632 185.099 
185.337 185.872 186.133 186.821 187.073 187.7 187.741 188.163 188.053 
188.452 183.858 184.32 184.734 185.169 185.613 186.077 186.624 187.108 
187.64 187.98 188.38 188.522 188.873 188.913 189.283 183.355 183.803 
184.179 184.648 185.043 185.573 186.021 186.608 187.033 187.581 187.93 
188.388 188.734 189.076 189.422 189.588 189.836 182.877 183.295 183.653 
184.088 184.474 184.96 185.396 185.928 186.348 186.866 187.233 187.748 
188.137 188.665 189.061 189.476 189.737 189.931 190.012 174.116 175.085 
174.839 175.291 176.109 175.84 176.295 175.992 176.408 177.105 176.842 
177.276 176.997 177.421 177.135 177.564 178.119 177.84 178.297 177.996 
178.444 178.147 178.567 178.27 178.579 179.183 178.905 179.43 179.102 
179.595 179.238 179.679 179.305 179.624 179.194 179.344 180.194 179.973 
180.518 180.253 180.745 180.415 180.833 180.454 180.795 180.339 180.576 
180.011 180.199 181.083 180.924 181.449 181.264 181.744 181.49 181.874 
181.547 181.864 181.491 181.763 181.304 181.525 180.985 181.238 181.84 
181.737 182.252 182.123 182.63 182.435 182.859 182.551 182.862 182.502 
182.753 182.387 182.578 182.175 182.316 181.918 182.098 182.443 182.406 
182.899 182.848 183.359 183.269 183.737 183.521 183.839 183.487 183.676 
183.303 183.446 183.087 183.18 182.812 182.885 182.568 182.689 173.43 
172.576 173.475 174.406 171.726 172.632 173.667 174.543 175.489 171.003 
171.857 172.936 173.84 174.918 175.693 176.575 170.334 171.186 172.29 
173.187 174.338 175.166 176.164 176.8 177.609 169.64 170.495 171.613 
172.557 173.748 174.632 175.701 176.404 177.282 177.851 178.64 169.063 
169.801 170.865 171.821 173.04 174.023 175.157 175.95 176.881 177.509 
178.333 178.894 179.659 168.778 169.314 170.26 171.073 172.263 173.274 
174.491 175.391 176.395 177.091 177.94 178.553 179.343 179.888 180.583 
168.724 169.123 169.955 170.557 171.639 172.533 173.786 174.735 175.842 
176.602 177.484 178.126 178.92 179.524 180.248 180.761 181.365 168.764 
169.104 169.866 170.319 171.264 171.983 173.166 174.075 175.246 176.065 
177.008 177.667 178.465 179.077 179.818 180.384 181.025 181.492 182.005 
169.062 169.946 169.694 170.159 171.03 170.673 171.169 170.907 171.559 
172.308 171.886 172.428 172.067 172.788 172.543 173.43 173.621 173.246 
173.834 173.438 174.146 173.857 174.73 174.548 175.455 174.857 174.563 
175.205 174.851 175.498 175.19 175.957 175.786 176.618 176.468 177.203 
176.12 175.825 176.52 176.193 176.821 176.48 177.153 176.939 177.726 
177.576 178.31 178.086 178.689 177.443 177.136 177.826 177.506 178.126 
177.767 178.394 178.121 178.889 178.708 179.484 179.236 179.857 179.535 
180.051 178.654 178.406 179.034 178.762 179.339 179.023 179.604 179.334 
180.049 179.878 180.642 180.429 181.035 180.712 181.167 180.829 181.236 
179.677 179.489 180.063 179.857 180.402 180.156 180.711 180.475 181.124 
180.969 181.664 181.509 182.067 181.807 182.185 181.868 182.18 181.885 
182.187 180.414 181.67 180.951 180.788 183.039 182.264 182.096 181.339 
181.159 184.543 183.729 183.626 182.768 182.6 181.748 181.546 186.09 
185.293 185.223 184.37 184.214 183.303 183.092 182.187 182.001 187.415 
186.757 186.621 185.883 185.682 184.866 184.605 183.741 183.488 182.652 
182.47 188.318 187.865 187.696 187.11 186.857 186.166 185.849 185.102 
184.761 184.009 183.704 183.001 182.752 188.946 188.612 188.492 188.029 
187.767 187.181 186.821 186.179 185.79 185.118 184.725 184.063 183.709 
183.101 182.794 189.505 189.224 189.137 188.739 188.451 187.943 187.522 
186.987 186.56 186.004 185.578 184.97 184.554 183.954 183.601 183.048 
182.75 189.917 189.743 189.644 189.319 188.997 188.528 188.065 187.567 
187.125 186.653 186.243 185.723 185.297 184.736 184.349 183.814 183.504 
182.993 182.724 180.413 180.943 181.041 181.762 181.603 181.707 182.478 
182.435 183.118 182.128 182.374 183.145 183.144 183.762 183.78 184.514 
182.231 182.696 183.422 183.624 184.196 184.336 185.081 185.242 186.067 
181.993 182.563 183.281 183.674 184.33 184.651 185.531 185.82 186.762 
186.847 187.528 181.684 182.246 183.04 183.505 184.354 184.788 185.867 
186.289 187.375 187.557 188.247 188.133 188.474 181.409 181.956 182.835 
183.357 184.34 184.874 186.013 186.572 187.672 188.051 188.737 188.751 
189.011 188.848 189.027 181.208 181.72 182.608 183.176 184.147 184.789 
185.813 186.502 187.441 188.05 188.701 189.008 189.287 189.276 189.408 
189.321 189.521 181.114 181.564 182.395 182.927 183.797 184.45 185.327 
186.047 186.816 187.52 188.118 188.69 189.068 189.358 189.537 189.597 
189.735 189.745 189.902 179.621 178.339 179.299 179.992 176.87 177.852 
178.443 179.623 180.47 175.424 176.33 176.752 177.881 178.615 180.024 
180.91 174.066 174.927 175.301 176.218 176.737 178.003 178.836 180.335 
181.087 172.721 173.585 174.011 174.866 175.292 176.244 176.874 178.2 
179.029 180.419 180.991 171.436 172.239 172.632 173.541 173.997 174.893 
175.419 176.446 177.177 178.433 179.165 180.335 180.774 170.331 171.021 
171.351 172.159 172.611 173.541 174.125 175.106 175.796 176.837 177.544 
178.615 179.165 180.155 180.518 169.396 170.035 170.411 171.038 171.448 
172.214 172.814 173.796 174.566 175.585 176.28 177.197 177.711 178.608 
179.02 179.941 180.32 168.537 169.192 169.668 170.249 170.648 171.22 
171.7 172.528 173.273 174.329 175.098 176.03 176.535 177.299 177.668 
178.493 178.915 179.822 180.26 168.227 168.202 168.637 169.424 168.146 
168.607 169.403 169.785 170.428 168.149 168.552 169.334 169.724 170.41 
170.732 171.432 168.354 168.652 169.464 169.743 170.503 170.779 171.629 
171.96 172.973 168.685 168.949 169.827 170.044 170.88 171.06 171.997 
172.29 173.4 173.752 174.82 169.003 169.274 170.155 170.444 171.326 
171.545 172.472 172.744 173.791 174.154 175.142 175.457 176.239 169.349 
169.571 170.413 170.726 171.622 171.933 172.845 173.165 174.118 174.472 
175.366 175.674 176.41 176.661 177.326 169.838 169.968 170.8 171.024 
171.915 172.2 173.108 173.442 174.361 174.717 175.595 175.89 176.674 
176.886 177.633 177.822 178.587 170.471 170.539 171.365 171.496 172.346 
172.542 173.401 173.682 174.568 174.913 175.795 176.121 176.96 177.218 
178.039 178.241 179.056 179.213 179.98 171.127 172.424 171.856 172.026 
173.657 173.134 173.3 172.759 172.949 174.931 174.367 174.553 174.01 
174.214 173.695 173.951 176.424 175.766 176.011 175.362 175.627 175.023 
175.326 174.774 175.11 177.993 177.353 177.656 176.972 177.291 176.595 
176.93 176.265 176.608 176.006 176.345 179.441 178.883 179.193 178.606 
178.942 178.311 178.639 177.954 178.256 177.575 177.883 177.255 177.544 
180.745 180.257 180.55 180.043 180.367 179.853 180.184 179.601 179.874 
179.215 179.479 178.828 179.122 178.467 178.703 181.87 181.477 181.767 
181.326 181.636 181.184 181.516 181.03 181.317 180.745 180.984 180.378 
180.65 180.046 180.307 179.62 179.771 182.791 182.503 182.81 182.466 
182.779 182.389 182.702 182.28 182.569 182.091 182.331 181.796 182.024 
181.484 181.717 181.144 181.3 180.614 180.666 181.348 181.988 181.984 
182.58 182.447 182.561 183.22 183.243 183.928 182.795 182.985 183.729 
183.85 184.585 184.639 185.386 183.08 183.316 184.095 184.319 185.096 
185.241 185.966 186.055 186.765 183.284 183.555 184.297 184.602 185.383 
185.654 186.381 186.547 187.211 187.339 187.988 183.42 183.714 184.427 
184.739 185.481 185.821 186.549 186.838 187.495 187.702 188.309 188.468 
188.975 183.477 183.806 184.509 184.836 185.536 185.868 186.544 186.884 
187.502 187.824 188.377 188.656 189.116 189.277 189.549 183.44 183.794 
184.45 184.836 185.49 185.862 186.476 186.825 187.386 187.722 188.218 
188.55 188.971 189.258 189.554 189.683 189.808 183.351 183.693 184.279 
184.682 185.278 185.699 186.276 186.681 187.246 187.602 188.12 188.4 
188.819 189.058 189.379 189.588 189.798 189.889 189.974 160.697 160.935 
160.615 160.332 161.53 161.005 160.666 160.313 160.241 162.507 161.85 
161.56 160.902 160.699 160.391 160.597 163.608 162.953 162.777 162.041 
161.845 161.162 161.204 160.946 161.391 164.812 164.109 164.005 163.328 
163.286 162.539 162.594 161.941 162.279 161.986 162.612 166.176 165.422 
165.349 164.635 164.685 164.014 164.179 163.505 163.794 163.22 163.693 
163.379 163.995 167.464 166.801 166.759 166.061 166.088 165.427 165.569 
164.992 165.237 164.712 165.025 164.58 164.979 164.708 165.183 168.605 
168.014 167.997 167.405 167.434 166.815 166.901 166.316 166.496 165.994 
166.253 165.809 166.123 165.737 166.113 165.829 166.26 169.778 169.157 
169.149 168.579 168.649 168.096 168.228 167.652 167.837 167.267 167.519 
167.008 167.34 166.899 167.303 166.902 167.341 166.983 167.433 160.511 
160.23 160.328 160.29 160.286 160.257 160.387 160.323 160.434 160.783 
160.623 160.932 160.725 160.955 160.728 161.03 161.57 161.312 161.704 
161.485 161.792 161.47 161.762 161.549 162.056 162.664 162.217 162.533 
162.278 162.6 162.333 162.618 162.369 162.796 162.695 163.287 163.987 
163.422 163.644 163.202 163.49 163.143 163.472 163.214 163.628 163.46 
163.946 163.875 164.408 165.173 164.69 164.903 164.421 164.697 164.208 
164.557 164.168 164.625 164.343 164.8 164.572 165.012 164.918 165.449 
166.199 165.758 165.981 165.608 165.914 165.484 165.814 165.376 165.797 
165.434 165.885 165.533 165.932 165.638 166.105 166.01 166.623 167.298 
166.786 166.984 166.619 166.952 166.619 166.949 166.574 166.909 166.569 
166.961 166.639 167.025 166.669 167.076 166.807 167.34 167.252 167.866 
160.648 160.345 160.519 160.63 160.387 160.33 160.435 160.56 160.847 
160.971 160.622 160.757 160.626 161.016 161.111 161.798 162.06 161.494 
161.657 161.269 161.694 161.571 162.307 162.439 163.348 163.336 162.749 
162.902 162.377 162.73 162.436 163.108 163.101 163.987 164.103 164.983 
164.503 164.019 164.206 163.677 163.98 163.559 164.156 163.999 164.885 
164.88 165.822 165.81 166.76 165.611 165.175 165.471 164.985 165.352 
164.876 165.466 165.167 166.059 165.933 166.942 166.836 167.83 167.767 
168.848 166.812 166.361 166.736 166.282 166.718 166.274 166.87 166.539 
167.374 167.193 168.153 168.027 168.97 168.879 169.847 169.879 170.912 
168.023 167.598 167.959 167.549 167.969 167.592 168.15 167.872 168.624 
168.457 169.311 169.188 170.029 169.936 170.779 170.78 171.67 171.77 
172.63 179.168 178.102 178.427 177.921 176.845 177.255 176.762 177.101 
176.536 175.491 175.908 175.431 175.874 175.374 175.697 175.123 174.238 
174.577 174.09 174.526 174.083 174.487 173.954 174.266 173.706 173.043 
173.366 172.835 173.22 172.76 173.187 172.705 173.067 172.529 172.856 
172.352 171.788 172.148 171.59 171.954 171.411 171.832 171.337 171.783 
171.313 171.698 171.232 171.56 171.125 170.555 170.892 170.359 170.697 
170.132 170.481 169.941 170.376 169.941 170.432 170.036 170.452 170.024 
170.37 169.991 169.462 169.714 169.186 169.494 168.98 169.28 168.771 
169.083 168.653 169.076 168.736 169.205 168.824 169.227 168.809 169.227 
168.929 168.535 168.682 168.102 168.353 167.861 168.18 167.751 168.042 
167.637 167.936 167.599 167.977 167.661 168.04 167.661 168.028 167.683 
168.167 167.979 
POINT_DATA 1002
SCALARS Distance double
LOOKUP_TABLE default
171.697 170.412 170.382 171.713 170.397 172.977 171.743 170.469 173.024 
174.171 171.866 170.631 173.115 174.336 175.519 172.118 170.929 173.363 
174.62 175.854 177.079 172.443 171.374 173.688 175.04 176.282 177.461 
178.597 172.87 171.928 174.012 175.43 176.751 177.867 178.967 179.979 
173.461 172.536 174.5 175.817 177.164 178.282 179.328 180.357 181.212 
174.104 173.15 175.155 176.348 177.581 178.685 179.69 180.674 181.54 
182.223 174.672 173.746 175.742 176.89 178.005 179.048 180.03 180.949 
181.773 182.464 183.042 169.195 169.126 168.071 167.939 166.901 169.127 
166.684 165.548 167.855 169.165 165.313 164.25 166.519 167.768 169.292 
163.989 163.137 165.149 166.396 167.851 169.669 162.812 162.1 163.831 
165.154 166.564 168.306 170.271 161.952 161.327 162.75 164.03 165.516 
167.073 168.975 170.935 161.513 160.958 162.102 163.12 164.578 166.059 
167.709 169.714 171.628 161.244 160.77 161.722 162.489 163.755 165.189 
166.662 168.513 170.594 172.378 160.776 161.208 160.731 161.35 161.244 
161.858 162.302 162.628 162.453 162.991 163.863 164.255 163.734 163.927 
164.445 165.376 165.805 165.232 165.24 165.438 165.932 167.217 167.744 
166.984 166.909 166.919 167.19 167.762 169.62 169.978 169.36 169.131 
168.936 169.025 169.456 170.014 171.806 171.924 171.65 171.366 170.996 
170.889 171.234 171.713 172.07 173.344 173.417 173.2 172.92 172.527 
172.308 172.556 173.064 173.421 173.592 174.906 174.81 176.194 174.634 
176.121 177.537 174.208 175.893 177.392 178.53 173.715 175.49 177.058 
178.119 179.007 173.572 175.193 176.779 177.636 178.428 179.652 173.798 
175.157 176.755 177.504 177.982 179.265 180.868 174.131 175.271 176.81 
177.73 178.003 178.982 180.654 181.973 174.416 175.464 176.815 177.95 
178.396 179.037 180.413 181.73 182.502 174.611 175.681 176.835 178.003 
178.787 179.403 180.41 181.543 182.302 182.813 175.96 177.345 177.141 
178.59 178.453 178.269 179.395 179.513 179.473 179.324 180.045 180.331 
180.516 180.547 180.368 181.11 181.257 181.446 181.599 181.558 181.31 
182.246 182.354 182.416 182.484 182.49 182.37 182.117 182.853 183.156 
183.336 183.375 183.341 183.28 183.123 182.831 183.177 183.637 184.024 
184.195 184.201 184.181 184.098 183.843 183.458 183.578 184.117 184.856 
185.44 186.135 184.628 186.406 186.788 185.665 184.898 186.825 187.165 
186.352 185.676 184.97 187.496 187.915 187.165 186.564 185.791 185.023 
188.572 188.892 188.4 187.906 186.899 185.899 185.02 189.422 189.66 
189.299 189.034 188.083 186.795 185.744 184.802 189.837 190.041 189.556 
189.285 188.651 187.515 186.351 185.356 184.383 189.971 190.051 189.63 
189.173 188.623 187.827 186.844 185.856 184.869 183.904 182.953 183.884 
183.253 184.156 183.555 185.16 184.327 183.814 185.161 186.236 184.617 
184.092 185.192 186.16 186.946 184.923 184.184 185.509 186.365 187.284 
187.697 184.794 183.892 185.585 186.527 187.574 188.245 188.551 184.278 
183.407 185.134 186.125 187.224 188.124 188.773 189.299 183.727 182.932 
184.535 185.463 186.479 187.398 188.271 189.161 189.81 183.229 182.473 
184.006 184.884 185.844 186.725 187.579 188.566 189.46 189.945 174.323 
175.586 175.349 176.589 176.393 176.714 177.549 177.379 177.695 177.862 
178.597 178.387 178.752 178.893 178.954 179.738 179.431 179.964 180.076 
180.075 179.848 180.758 180.4 181.065 181.212 181.215 181.098 180.786 
181.619 181.236 181.973 182.197 182.217 182.164 182.031 181.763 182.36 
181.929 182.78 183.138 183.245 183.129 182.972 182.737 182.451 172.553 
173.553 171.624 172.722 170.832 174.732 172.019 170.16 174.071 175.96 
171.38 169.465 173.474 175.473 177.066 170.643 168.812 172.818 174.955 
176.68 178.106 169.949 168.431 172.004 174.301 176.22 177.747 179.151 
169.564 168.34 171.269 173.519 175.658 177.311 178.766 180.117 169.465 
168.368 170.838 172.812 175.03 176.842 178.304 179.694 180.936 169.48 
168.446 170.655 172.301 174.386 176.325 177.859 179.235 180.527 181.616 