# vtk DataFile Version 4.0
vtk output
ASCII
DATASET POLYDATA
POINTS 1002 float
-118.397 -115.259 50.6604 -118.299 -114.278 49.6966 -117.876 -114.367 50.2462 
-117.949 -115.417 51.3002 -117.494 -114.537 50.9595 -118.513 -116.23 51.8867 
-117.561 -115.582 52.1478 -117.011 -114.813 51.7668 -118.033 -116.501 52.6042 
-118.747 -117.166 53.4136 -117.159 -115.743 53.1353 -116.416 -115.178 52.5974 
-117.638 -116.713 53.5383 -118.263 -117.565 54.2321 -119.127 -118.097 55.1987 
-116.726 -116.017 54.1047 -115.871 -115.723 53.3061 -117.339 -116.864 54.6475 
-117.88 -117.893 55.2689 -118.642 -118.6 56.1744 -119.459 -119.107 57.1669 
-116.238 -116.592 54.9248 -115.421 -116.454 53.8871 -117.003 -117.215 55.769 
-117.6 -118.231 56.4739 -118.222 -119.115 57.2943 -118.905 -119.781 58.1891 
-119.546 -120.425 59.0102 -115.714 -117.377 55.7619 -115.013 -117.131 54.6958 
-116.475 -117.959 56.7684 -117.164 -118.882 57.5991 -117.804 -119.78 58.4027 
-118.388 -120.559 59.1725 -118.94 -121.352 59.8228 -119.524 -122.094 60.3654 
-115.27 -118.156 56.798 -114.656 -117.668 55.8512 -115.924 -118.914 57.6943 
-116.539 -119.85 58.4617 -117.196 -120.716 59.2393 -117.835 -121.488 60.0005 
-118.376 -122.3 60.5717 -118.937 -123.088 61.0054 -119.536 -123.71 61.4 
-114.907 -118.923 57.8028 -114.342 -118.262 56.9648 -115.499 -119.863 58.5273 
-116.003 -120.853 59.1478 -116.542 -121.701 59.8409 -117.181 -122.488 60.6254 
-117.771 -123.272 61.2721 -118.335 -123.976 61.7176 -118.927 -124.554 62.0958 
-119.478 -125.02 62.435 -114.555 -119.707 58.544 -114.04 -119.015 57.763 
-115.099 -120.709 59.1896 -115.561 -121.728 59.7626 -116.008 -122.528 60.4425 
-116.556 -123.302 61.2372 -117.119 -124.151 61.939 -117.67 -124.835 62.451 
-118.258 -125.318 62.8512 -118.807 -125.762 63.1768 -119.272 -126.189 63.3931 
-117.854 -113.326 49.1234 -117.432 -113.451 49.7067 -117.251 -112.402 48.5441 
-116.722 -112.652 49.0476 -116.438 -111.55 47.9692 -116.912 -113.81 50.3156 
-115.82 -111.87 48.4124 -115.616 -110.644 47.5165 -115.996 -113.222 49.4557 
-116.179 -114.324 50.9592 -115.1 -110.927 48.1315 -115.06 -109.651 47.3261 
-115.078 -112.466 48.8537 -115.173 -113.818 50.0546 -115.475 -114.878 51.712 
-114.581 -109.945 48.1576 -114.598 -108.724 47.3946 -114.385 -111.506 48.773 
-114.357 -112.988 49.6164 -114.65 -114.35 50.9391 -115.053 -115.584 52.3809 
-113.848 -109.114 48.1397 -113.891 -107.961 47.522 -113.587 -110.659 48.6922 
-113.524 -112.132 49.4497 -113.924 -113.507 50.5692 -114.425 -115.082 51.7353 
-114.748 -116.365 53.0055 -112.978 -108.468 48.0872 -113.087 -107.367 47.6013 
-112.696 -109.988 48.479 -112.576 -111.511 49.1384 -112.992 -112.783 50.2799 
-113.678 -114.271 51.4594 -114.155 -115.867 52.5314 -114.405 -116.93 54.0024 
-112.382 -108.043 48.2917 -112.507 -106.941 47.8024 -112.14 -109.452 48.6741 
-111.984 -110.944 49.1781 -112.235 -112.225 50.1524 -112.823 -113.516 51.3511 
-113.423 -115.063 52.4024 -113.827 -116.438 53.6255 -114.08 -117.38 55.2796 
-112.069 -107.833 48.8289 -112.171 -106.683 48.2944 -111.864 -109.116 49.3604 
-111.701 -110.409 49.8656 -111.857 -111.637 50.5666 -112.27 -112.869 51.4923 
-112.741 -114.26 52.4111 -113.202 -115.735 53.4235 -113.549 -117.004 54.7969 
-113.786 -118.024 56.3702 -111.865 -107.33 49.4169 -111.634 -108.636 50.0499 
-111.431 -108.17 50.7208 -110.868 -109.345 51.257 -110.908 -108.892 51.8248 
-111.293 -109.822 50.6639 -110.159 -109.902 52.1386 -110.756 -109.586 52.9014 
-110.433 -110.367 51.7492 -111.291 -110.95 51.2432 -110.289 -110.774 53.304 
-111.076 -110.613 54.404 -110.021 -111.117 52.5991 -110.807 -111.617 52.2887 
-111.758 -112.228 51.9007 -111.063 -112.032 54.9465 -111.552 -111.863 55.8132 
-110.678 -112.297 53.9597 -110.922 -112.663 53.2998 -111.666 -113.108 52.9174 
-112.267 -113.649 52.6111 -111.938 -113.213 56.0877 -112.343 -113.062 56.5112 
-111.813 -113.501 55.3822 -111.841 -113.831 54.6686 -112.001 -114.175 54.0901 
-112.288 -114.63 53.6647 -112.688 -115.182 53.4675 -112.972 -114.36 56.7219 
-113.471 -114.334 57.049 -112.892 -114.647 56.1836 -112.955 -115.02 55.7382 
-112.748 -115.337 55.4418 -112.491 -115.787 55.0546 -112.614 -116.349 54.7331 
-113.055 -116.762 54.6981 -113.916 -115.782 57.6997 -114.356 -115.78 57.9857 
-113.765 -116.082 57.1237 -113.771 -116.504 56.6549 -113.422 -116.769 56.6178 
-112.753 -117.124 56.5884 -112.467 -117.73 56.2814 -112.779 -118.144 56.0864 
-113.304 -118.152 56.1898 -114.383 -117.336 59.0152 -114.731 -117.216 59.1162 
-114.186 -117.702 58.6011 -114.083 -118.158 58.0989 -113.686 -118.349 57.9638 
-112.875 -118.471 58.054 -112.276 -118.969 57.8708 -112.399 -119.509 57.5413 
-112.963 -119.561 57.4635 -113.543 -119.267 57.613 -114.042 -120.257 58.9093 
-113.487 -120.532 58.8631 -114.058 -121.532 60.2329 -112.798 -120.79 58.8341 
-113.517 -121.707 60.3775 -114.019 -122.722 61.8995 -112.16 -120.586 59.0249 
-112.779 -121.847 60.3887 -113.498 -122.921 62.0829 -113.852 -124.012 63.5668 
-112.143 -119.982 59.4182 -112.166 -121.521 60.5656 -112.802 -123.1 62.0058 
-113.279 -124.424 63.6768 -113.608 -125.503 64.9851 -112.88 -119.717 59.6467 
-112.284 -120.98 61.0374 -112.405 -122.762 62.2535 -112.702 -124.643 63.7851 
-112.96 -125.981 65.294 -113.314 -127.003 66.4625 -113.668 -119.814 59.7051 
-113.001 -120.915 61.3848 -112.697 -122.245 62.8294 -112.572 -124.187 64.3389 
-112.479 -125.942 65.8643 -112.64 -127.236 67.1052 -112.875 -128.268 68.1123 
-114.058 -119.603 59.9421 -113.642 -121.02 61.4907 -113.306 -122.111 63.0934 
-112.959 -123.596 64.8061 -112.47 -125.305 66.4845 -112.221 -126.804 67.8252 
-112.249 -128.137 68.8717 -112.324 -129.13 69.7183 -114.297 -119.093 60.2381 
-114.054 -120.722 61.5788 -113.827 -121.994 63.0664 -113.53 -123.298 64.7663 
-112.956 -124.786 66.5375 -112.351 -126.137 68.1152 -111.99 -127.417 69.4243 
-111.81 -128.677 70.4646 -111.87 -129.566 71.1476 -114.626 -118.704 60.2882 
-114.464 -120.242 61.5676 -114.302 -121.614 63.0062 -114.084 -122.959 64.5991 
-113.676 -124.469 66.2086 -113.067 -125.809 67.7951 -112.396 -126.795 69.3937 
-111.812 -127.785 70.8263 -111.524 -128.86 71.8079 -111.719 -129.692 72.2672 
-114.555 -121.161 59.6746 -114.456 -122.543 61.1085 -115.002 -122.274 60.338 
-114.297 -123.786 62.8856 -114.803 -123.635 61.9271 -115.43 -123.185 61.0946 
-114.176 -125.125 64.5178 -114.69 -124.928 63.7201 -115.297 -124.54 62.836 
-115.954 -123.948 61.9873 -114.006 -126.637 65.9788 -114.633 -126.373 65.2991 
-115.204 -126.024 64.4911 -115.829 -125.479 63.6393 -116.488 -124.879 62.7443 
-113.569 -128.069 67.5827 -114.31 -127.809 66.8756 -114.976 -127.539 65.9709 
-115.6 -127.049 65.042 -116.293 -126.428 64.1448 -117.015 -125.704 63.2698 
-112.963 -129.106 69.1884 -113.757 -128.86 68.4814 -114.58 -128.7 67.5315 
-115.357 -128.381 66.4659 -116.141 -127.777 65.465 -116.928 -127.047 64.5594 
-117.644 -126.204 63.6981 -112.502 -129.71 70.6097 -113.369 -129.476 69.8663 
-114.299 -129.36 68.9504 -115.195 -129.284 67.9473 -116.094 -128.868 66.9211 
-116.949 -128.237 65.881 -117.65 -127.511 64.9022 -118.249 -126.647 64.0163 
-112.342 -130.048 71.7916 -113.275 -129.948 71.0474 -114.255 -129.856 70.1194 
-115.115 -129.915 69.1775 -115.967 -129.69 68.2813 -116.87 -129.182 67.24 
-117.62 -128.687 66.0477 -118.179 -128.046 64.9898 -118.718 -127.144 64.1516 
-112.309 -130.052 72.8175 -113.161 -130.367 72.2511 -113.412 -130.324 73.0497 
-114.274 -130.763 72.4371 -114.708 -130.395 73.0286 -114.195 -130.438 71.3823 
-115.439 -131.033 72.2869 -115.997 -130.237 72.7384 -115.145 -131.224 71.4865 
-115.059 -130.624 70.3396 -116.686 -130.969 71.8147 -117.242 -130.099 72.2907 
-116.207 -131.805 71.2229 -115.833 -131.529 70.3716 -115.785 -130.541 69.3909 
-117.816 -130.702 71.3445 -118.351 -130.1 71.9258 -117.463 -131.777 70.7202 
-116.976 -131.997 70.12 -116.589 -130.985 69.4061 -116.66 -129.941 68.4277 
-118.859 -130.426 70.9933 -119.579 -130.065 71.5312 -118.51 -131.288 70.2863 
-118.287 -131.866 69.7504 -117.845 -131.151 69.2113 -117.524 -130.094 68.2638 
-117.55 -129.438 67.1002 -120.354 -130.2 70.5463 -121.118 -129.864 70.95 
-119.671 -130.689 69.8716 -119.335 -131.291 69.3272 -119.094 -131.073 68.8844 
-118.697 -130.235 67.9495 -118.345 -129.674 66.6726 -118.209 -129.071 65.6897 
-122.014 -129.93 70.014 -122.487 -129.439 70.3377 -121.295 -130.197 69.3911 
-120.583 -130.51 68.7857 -120.127 -130.586 68.3415 -119.827 -130.162 67.5548 
-119.425 -129.701 66.2926 -119.001 -129.224 65.2486 -118.779 -128.316 64.6666 
-123.089 -129.449 69.4636 -123.306 -128.806 69.7635 -122.682 -129.738 68.8782 
-122.025 -129.801 68.2116 -121.301 -129.805 67.6623 -120.817 -129.659 67.01 
-120.504 -129.369 65.9946 -120.084 -128.972 64.9862 -119.645 -128.257 64.3697 
-119.394 -127.228 63.9377 -111.705 -129.091 72.9037 -112.557 -129.441 73.3526 
-112.295 -128.224 73.1586 -113.479 -128.493 73.6611 -113.466 -127.599 72.9592 
-113.946 -129.644 73.5553 -114.771 -127.767 73.7696 -114.768 -127.478 72.2748 
-114.98 -128.675 74.2028 -115.371 -129.606 73.6215 -115.83 -127.492 73.2237 
-115.843 -127.439 71.1075 -115.964 -127.896 74.6648 -116.218 -128.756 74.4985 
-116.682 -129.544 73.3493 -116.616 -127.277 71.7463 -116.764 -127.011 69.7526 
-116.61 -127.465 73.7914 -116.873 -127.988 74.6726 -117.438 -128.897 73.975 
-117.989 -129.678 72.8162 -117.483 -126.795 70.0448 -117.621 -126.258 68.5542 
-117.362 -127.176 71.7165 -117.542 -127.447 73.1345 -118.166 -128.007 73.5868 
-118.851 -128.979 73.0594 -119.256 -129.748 72.2811 -118.413 -126.091 68.6839 
-118.375 -125.42 67.4904 -118.385 -126.702 69.8648 -118.514 -127.1 71.001 
-119 -127.286 72.0427 -119.62 -127.82 72.499 -120.12 -128.766 72.2023 
-120.588 -129.513 71.6058 -119.221 -125.287 67.4741 -119.049 -124.556 66.4672 
-119.32 -125.917 68.5403 -119.464 -126.451 69.5145 -119.82 -126.756 70.4837 
-120.247 -126.982 71.3153 -120.66 -127.54 71.5384 -121.236 -128.346 71.2295 
-121.929 -129.022 70.8119 -119.882 -124.421 66.3269 -119.661 -123.644 65.5685 
-120.032 -125.013 67.2814 -120.16 -125.455 68.325 -120.426 -125.878 69.2749 
[...]
CELL_DATA 2000
SCALARS Distance double
LOOKUP_TABLE default
171.135 171.127 171.464 172.185 171.213 171.514 172.238 172.572 173.355 
171.321 171.624 172.369 172.682 173.495 173.833 174.702 171.487 171.764 
172.559 172.861 173.725 174.046 174.967 175.285 176.205 171.788 172.005 
172.85 173.128 174.068 174.363 175.344 175.627 176.59 176.85 177.764 
172.207 172.382 173.26 173.511 174.516 174.796 175.832 176.086 177.075 
177.296 178.233 178.441 179.335 172.707 172.865 173.791 174.009 175.041 
175.297 176.346 176.602 177.601 177.82 178.753 178.945 179.838 180.02 
180.858 173.262 173.423 174.396 174.605 175.634 175.851 176.854 177.093 
178.07 178.322 179.253 179.464 180.328 180.51 181.312 181.477 182.192 
173.823 173.996 174.961 175.201 176.197 176.421 177.351 177.566 178.476 
178.742 179.66 179.919 180.765 180.963 181.712 181.879 182.553 182.701 
183.294 170.433 169.308 170.051 170.416 168.076 168.892 169.297 170.079 
170.489 166.77 167.616 168.028 168.894 169.329 170.142 170.563 165.57 
166.34 166.749 167.592 168.038 168.909 169.385 170.224 170.706 164.566 
165.239 165.633 166.374 166.808 167.629 168.159 169.043 169.646 170.468 
171.033 163.589 164.246 164.567 165.282 165.653 166.438 166.959 167.858 
168.555 169.458 170.144 170.896 171.475 162.613 163.226 163.492 164.176 
164.517 165.279 165.776 166.67 167.386 168.372 169.154 170.022 170.668 
171.369 171.942 161.886 162.359 162.707 163.228 163.66 164.264 164.827 
165.576 166.304 167.22 168.046 168.994 169.739 170.545 171.157 171.854 
172.458 161.528 161.875 162.362 162.721 163.249 163.665 164.279 164.836 
165.566 166.284 167.086 167.931 168.73 169.59 170.307 171.069 171.711 
172.404 173.035 161.626 162.231 162.11 162.499 162.715 162.639 162.968 
162.949 163.339 163.164 162.962 163.176 163.258 163.71 163.811 164.334 
164.208 163.602 163.747 163.523 164.068 164.172 164.901 164.962 165.638 
165.842 165.044 165.283 164.594 165.158 164.856 165.703 165.644 166.46 
166.393 167.122 167.485 166.798 167.175 166.458 167.004 166.393 167.123 
166.735 167.519 167.304 168.056 167.942 168.705 169.154 168.457 168.897 
168.301 168.892 168.312 168.938 168.359 168.985 168.533 169.229 168.967 
169.728 169.58 170.323 171.005 170.241 170.705 170.057 170.707 170.138 
170.78 170.16 170.683 170.086 170.658 170.251 170.961 170.699 171.416 
171.188 171.814 172.757 172.097 172.56 171.931 172.547 171.97 172.557 
171.936 172.339 171.706 172.095 171.642 172.214 171.939 172.594 172.333 
172.922 172.632 173.16 174.003 173.799 174.351 175.272 173.506 174.122 
175.058 175.656 176.615 173.105 173.742 174.68 175.38 176.388 177.026 
177.995 172.93 173.369 174.235 174.909 175.964 176.744 177.824 178.438 
179.397 173.228 173.43 174.215 174.581 175.602 176.311 177.518 178.252 
179.339 179.87 180.806 173.624 173.89 174.715 174.838 175.745 176.144 
177.329 177.995 179.174 179.784 180.772 181.263 182.119 173.721 174.211 
175.15 175.387 176.226 176.461 177.47 177.94 179.035 179.604 180.56 
181.119 181.951 182.46 183.16 173.674 174.22 175.214 175.655 176.511 
176.845 177.727 178.117 179.071 179.519 180.383 180.856 181.611 182.148 
182.831 183.334 183.878 173.732 174.187 175.152 175.634 176.527 176.964 
177.835 178.265 179.175 179.591 180.441 180.785 181.487 181.842 182.456 
182.908 183.454 183.92 184.37 174.426 175.737 175.239 175.602 177.091 
176.596 176.98 176.484 176.84 178.457 177.963 178.342 177.854 178.208 
177.69 177.976 179.846 179.348 179.754 179.241 179.62 179.075 179.399 
178.819 179.104 181.258 180.771 181.223 180.704 181.124 180.553 180.91 
180.303 180.623 180.005 180.296 182.562 182.157 182.6 182.153 182.562 
182.052 182.38 181.809 182.091 181.513 181.774 181.175 181.384 183.571 
183.313 183.677 183.368 183.716 183.358 183.658 183.191 183.429 182.9 
183.123 182.575 182.759 182.167 182.297 184.277 184.143 184.454 184.246 
184.548 184.328 184.657 184.346 184.625 184.176 184.405 183.881 184.072 
183.497 183.623 183.014 183.103 184.809 184.758 185.117 184.948 185.276 
185.085 185.458 185.25 185.588 185.273 185.512 185.093 185.267 184.77 
184.881 184.309 184.365 183.767 183.81 185.226 186.112 185.67 185.613 
187.043 186.624 186.594 186.025 185.858 187.787 187.52 187.603 187.098 
186.959 186.289 186.079 188.323 188.168 188.381 188.084 188.038 187.419 
187.131 186.461 186.178 188.786 188.628 188.861 188.77 188.856 188.421 
188.084 187.413 186.976 186.41 186.059 189.277 189.033 189.134 189.121 
189.289 189.116 188.865 188.268 187.715 187.095 186.658 186.188 185.814 
189.887 189.546 189.503 189.334 189.427 189.395 189.296 188.94 188.431 
187.803 187.262 186.737 186.339 185.886 185.449 190.436 190.182 190.104 
189.765 189.67 189.5 189.387 189.216 188.847 188.419 187.865 187.336 
186.849 186.377 185.922 185.448 184.935 190.572 190.58 190.512 190.29 
190.046 189.764 189.469 189.262 188.906 188.662 188.186 187.817 187.298 
186.859 186.352 185.887 185.362 184.885 184.358 185.02 184.89 185.271 
185.919 184.917 185.209 185.922 186.251 186.863 185.245 185.396 186.114 
186.348 186.982 187.169 187.617 185.541 185.74 186.394 186.617 187.235 
187.366 187.801 187.866 188.192 185.451 185.809 186.32 186.707 187.225 
187.53 187.969 188.11 188.467 188.484 188.774 185.092 185.512 185.923 
186.372 186.782 187.248 187.667 188.083 188.508 188.75 189.104 189.111 
189.367 184.661 185.098 185.522 185.925 186.331 186.738 187.147 187.611 
188.048 188.529 188.932 189.264 189.565 189.661 189.912 184.171 184.65 
185.091 185.526 185.933 186.334 186.727 187.134 187.514 187.965 188.309 
188.795 189.095 189.533 189.799 190.082 190.311 183.627 184.129 184.541 
185.024 185.366 185.841 186.158 186.644 186.952 187.415 187.671 188.115 
188.347 188.842 189.105 189.625 189.864 190.268 190.385 174.127 175.174 
174.923 175.493 176.376 176.056 176.643 176.33 176.883 177.668 177.345 
177.945 177.563 178.098 177.73 178.246 178.837 178.598 179.174 178.843 
179.35 178.986 179.511 179.138 179.638 179.87 179.689 180.269 179.993 
180.506 180.193 180.763 180.444 180.991 180.558 180.945 180.829 180.693 
181.342 181.099 181.674 181.358 181.962 181.68 182.267 181.897 182.25 
181.731 181.93 181.665 181.599 182.278 182.157 182.781 182.541 183.105 
182.843 183.34 183.047 183.316 182.889 182.967 182.526 182.698 182.401 
182.362 182.999 182.981 183.59 183.512 184.025 183.859 184.238 183.982 
184.152 183.779 183.787 183.401 183.496 183.234 183.536 183.09 183.052 
183.631 183.617 184.168 184.159 184.645 184.59 184.974 184.789 184.997 
184.616 184.666 184.209 184.31 183.984 184.272 184.087 184.454 173.465 
172.789 173.59 174.502 171.996 172.896 173.851 174.656 175.647 171.116 
172.094 173.155 174.011 175.039 175.87 176.921 170.284 171.251 172.425 
173.349 174.452 175.285 176.348 177.153 178.139 169.587 170.464 171.628 
172.62 173.796 174.703 175.783 176.595 177.588 178.326 179.205 169.073 
169.807 170.882 171.825 173.001 173.98 175.096 175.992 177.012 177.795 
178.708 179.379 180.179 168.78 169.36 170.387 171.175 172.328 173.211 
174.334 175.24 176.313 177.188 178.172 178.908 179.745 180.345 181.06 
168.679 169.14 170.129 170.796 171.943 172.687 173.793 174.557 175.614 
176.463 177.507 178.34 179.255 179.924 180.67 181.206 181.85 168.705 
169.076 169.984 170.576 171.678 172.379 173.464 174.134 175.126 175.842 
176.843 177.659 178.623 179.386 180.194 180.809 181.479 181.985 182.573 
169.002 169.935 169.692 170.302 171.076 170.761 171.423 171.207 171.991 
172.343 171.985 172.619 172.371 173.133 172.969 173.742 173.649 173.277 
173.856 173.555 174.249 174.074 174.839 174.669 175.383 174.922 174.58 
175.177 174.825 175.505 175.23 176.013 175.797 176.576 176.331 177.075 
176.133 175.842 176.524 176.201 176.938 176.594 177.379 177.073 177.865 
177.584 178.339 178.074 178.807 177.369 177.077 177.823 177.561 178.339 
178.039 178.768 178.451 179.146 178.865 179.549 179.304 179.976 179.745 
180.368 178.678 178.363 179.093 178.845 179.591 179.346 180.005 179.727 
180.325 180.06 180.671 180.441 181.067 180.848 181.438 181.19 181.686 
179.932 179.65 180.308 180.066 180.73 180.503 181.114 180.862 181.445 
181.186 181.79 181.54 182.142 181.9 182.456 182.213 182.691 182.411 
182.793 180.776 182.129 181.357 181.172 183.491 182.729 182.549 181.763 
181.564 184.788 184.076 183.902 183.137 182.934 182.146 181.925 185.98 
185.315 185.163 184.462 184.311 183.549 183.372 182.536 182.309 187.181 
186.501 186.339 185.666 185.537 184.883 184.778 184.03 183.843 182.958 
182.698 188.279 187.686 187.482 186.814 186.596 185.992 185.829 185.269 
185.074 184.397 184.102 183.289 182.983 189.036 188.627 188.4 187.848 
187.544 186.96 186.674 186.147 185.877 185.364 185.058 184.474 184.154 
183.476 183.192 189.606 189.263 189.05 188.597 188.279 187.778 187.472 
186.953 186.671 186.122 185.839 185.288 185.029 184.478 184.236 183.626 
183.368 190.17 189.843 189.655 189.205 188.895 188.421 188.136 187.688 
187.456 186.958 186.711 186.141 185.896 185.336 185.124 184.574 184.334 
183.737 183.442 180.802 181.225 181.404 182.149 181.562 181.828 182.65 
182.794 183.535 181.788 182.168 183.105 183.322 184.132 184.202 184.869 
181.887 182.385 183.455 183.794 184.693 184.814 185.521 185.505 186.09 
181.909 182.466 183.634 184.125 185.143 185.373 186.15 186.177 186.819 
186.747 187.317 181.914 182.47 183.635 184.243 185.336 185.746 186.602 
186.776 187.464 187.48 188.056 187.965 188.422 181.841 182.406 183.471 
184.144 185.189 185.773 186.616 187.035 187.712 187.967 188.482 188.555 
188.915 188.872 189.139 181.643 182.216 183.162 183.852 184.788 185.452 
186.208 186.788 187.398 187.902 188.368 188.694 188.987 189.135 189.374 
189.42 189.66 181.391 181.933 182.783 183.439 184.294 184.954 185.661 
186.252 186.82 187.385 187.862 188.341 188.681 189.002 189.282 189.506 
189.821 189.929 190.202 179.987 178.747 179.728 180.365 177.225 178.337 
178.98 180.026 180.622 175.553 176.679 177.292 178.48 179.101 180.196 
180.756 173.971 174.994 175.544 176.716 177.371 178.568 179.174 180.268 
180.8 172.514 173.458 173.943 175.005 175.618 176.811 177.497 178.663 
179.265 180.309 180.839 171.127 172.017 172.471 173.451 173.977 175.081 
175.749 176.972 177.702 178.83 179.442 180.407 180.921 169.899 170.678 
171.131 172.033 172.567 173.53 174.132 175.247 176.001 177.234 177.982 
179.062 179.615 180.509 180.937 168.875 169.542 169.978 170.788 171.377 
172.254 172.875 173.79 174.462 175.559 176.318 177.508 178.151 179.177 
179.604 180.469 180.799 167.984 168.595 169.015 169.731 170.311 171.148 
171.812 172.663 173.3 174.184 174.831 175.868 176.513 177.606 178.111 
179.083 179.439 180.291 180.592 167.642 167.645 167.98 168.743 167.904 
168.135 168.922 169.195 170.048 168.285 168.5 169.291 169.482 170.335 
170.627 171.555 168.602 168.887 169.728 169.917 170.758 170.984 171.91 
172.188 173.082 168.878 169.18 170.092 170.355 171.247 171.461 172.374 
172.597 173.487 173.694 174.558 169.281 169.497 170.402 170.693 171.628 
171.918 172.841 173.083 173.942 174.123 174.947 175.175 176.092 169.834 
169.967 170.809 171.027 171.911 172.22 173.132 173.464 174.323 174.56 
175.346 175.551 176.396 176.708 177.634 170.405 170.522 171.314 171.468 
172.271 172.496 173.344 173.672 174.541 174.862 175.676 175.922 176.731 
176.998 177.861 178.185 179.018 170.921 171.042 171.787 171.942 172.692 
172.867 173.639 173.891 174.718 175.041 175.875 176.189 177.005 177.299 
178.125 178.42 179.223 179.496 180.219 171.43 172.48 172.054 172.291 
173.646 173.158 173.402 172.961 173.207 174.988 174.411 174.658 174.138 
174.402 173.913 174.17 176.48 175.846 176.101 175.49 175.758 175.19 
175.468 174.937 175.234 178.024 177.384 177.659 177.009 177.278 176.637 
176.905 176.305 176.599 176.059 176.377 179.585 178.951 179.252 178.6 
178.895 178.223 178.493 177.817 178.098 177.479 177.802 177.24 177.553 
181.102 180.515 180.83 180.202 180.523 179.868 180.177 179.476 179.761 
179.059 179.374 178.735 179.069 178.449 178.727 182.43 181.959 182.276 
181.734 182.048 181.465 181.785 181.152 181.445 180.756 181.037 180.357 
180.657 180.008 180.276 179.615 179.816 183.524 183.168 183.491 183.07 
183.374 182.894 183.184 182.658 182.924 182.345 182.584 181.966 182.203 
181.575 181.798 181.149 181.317 180.646 180.775 181.507 182.093 182.153 
182.888 182.615 182.741 183.503 183.59 184.341 183.035 183.223 184.006 
184.16 184.9 184.995 185.655 183.387 183.6 184.376 184.594 185.355 
185.507 186.166 186.22 186.795 183.703 183.925 184.67 184.908 185.673 
185.902 186.608 186.72 187.292 187.312 187.814 183.965 184.217 184.955 
185.185 185.911 186.161 186.868 187.086 187.687 187.781 188.249 188.262 
188.65 184.134 184.435 185.18 185.447 186.142 186.375 187.016 187.258 
187.855 188.066 188.582 188.671 189.083 189.049 189.359 184.196 184.536 
185.249 185.591 186.272 186.554 187.148 187.376 187.912 188.149 188.677 
188.899 189.389 189.484 189.867 189.777 190.014 184.179 184.529 185.185 
185.565 186.207 186.571 187.154 187.448 187.962 188.198 188.666 188.908 
189.356 189.615 190.01 190.167 190.425 190.362 190.442 161.073 161.544 
161.078 160.774 162.331 161.734 161.424 160.93 160.688 163.26 162.615 
162.256 161.663 161.345 160.864 160.666 164.202 163.554 163.206 162.554 
162.248 161.633 161.458 160.971 161.041 165.26 164.564 164.35 163.64 
163.475 162.736 162.656 161.994 162.111 161.645 162.01 166.508 165.766 
165.669 164.948 164.922 164.158 164.153 163.39 163.484 162.868 163.137 
162.745 163.176 167.825 167.103 167.029 166.337 166.336 165.641 165.662 
164.937 165.012 164.322 164.516 163.948 164.276 163.896 164.354 169.095 
168.427 168.374 167.698 167.694 167.023 167.067 166.4 166.533 165.869 
166.107 165.444 165.753 165.154 165.551 165.131 165.643 170.282 169.686 
169.689 169.044 169.071 168.396 168.472 167.813 168.002 167.388 167.686 
167.068 167.383 166.731 167.038 166.457 166.834 166.44 166.913 160.82 
160.458 160.509 160.448 160.383 160.31 160.261 160.348 160.564 160.38 
160.274 160.293 160.353 160.685 160.809 161.29 160.76 160.405 160.436 
160.429 160.863 161.059 161.662 161.769 162.294 161.802 161.156 161.19 
160.824 161.252 161.297 161.985 162.155 162.746 162.778 163.251 163.057 
162.418 162.512 161.93 162.29 161.976 162.604 162.568 163.217 163.226 
163.763 163.755 164.325 164.253 163.676 163.817 163.293 163.602 163.181 
163.673 163.409 163.993 163.837 164.423 164.339 164.963 164.956 165.63 
165.546 164.933 165.095 164.556 164.839 164.409 164.828 164.513 165.031 
164.775 165.335 165.139 165.755 165.662 166.311 166.285 166.886 166.843 
166.273 166.451 165.886 166.147 165.639 166.01 165.629 166.124 165.84 
166.386 166.137 166.694 166.509 167.078 166.973 167.508 167.447 167.933 
161.176 160.799 161.216 161.787 160.824 160.958 161.517 161.928 162.448 
161.408 161.187 161.619 161.814 162.452 162.675 163.144 162.321 161.914 
162.186 162.112 162.735 162.879 163.553 163.594 164.221 163.308 162.862 
163.102 162.833 163.363 163.339 164.032 164.102 164.817 164.894 165.68 
164.457 163.943 164.266 163.871 164.385 164.146 164.758 164.668 165.348 
165.427 166.22 166.394 167.243 165.769 165.227 165.574 165.127 165.637 
165.29 165.861 165.568 166.19 166.06 166.884 166.964 167.933 168.038 
168.976 166.987 166.525 166.816 166.408 166.845 166.522 167.07 166.757 
167.376 167.102 167.919 167.831 168.879 168.902 169.957 169.927 170.868 
168.029 167.644 167.922 167.556 167.953 167.65 168.19 167.934 168.597 
168.352 169.161 169.002 169.989 169.955 170.983 170.963 171.869 171.804 
172.6 179.437 178.133 178.609 178.178 176.798 177.247 176.799 177.254 
176.711 175.564 175.937 175.466 175.88 175.35 175.727 175.115 174.345 
174.696 174.139 174.537 173.967 174.368 173.762 174.133 173.548 173.04 
173.394 172.721 173.115 172.45 172.905 172.283 172.74 172.158 172.596 
172.074 171.714 172.039 171.335 171.663 170.976 171.37 170.779 171.237 
170.721 171.185 170.705 171.156 170.705 170.463 170.744 170.105 170.371 
169.767 170.045 169.522 169.863 169.411 169.811 169.402 169.83 169.445 
169.869 169.512 169.377 169.592 169.028 169.26 168.733 168.974 168.478 
168.748 168.267 168.591 168.144 168.555 168.178 168.64 168.316 168.764 
168.484 168.513 168.646 168.127 168.295 167.781 167.987 167.47 167.72 
167.194 167.471 166.947 167.296 166.853 167.325 166.99 167.519 167.242 
167.758 167.538 
POINT_DATA 1002
SCALARS Distance double
LOOKUP_TABLE default
171.827 170.825 170.754 171.815 170.815 172.917 171.914 170.911 172.987 
174.162 172.05 171.004 173.147 174.354 175.593 172.241 171.22 173.391 
174.64 175.911 177.116 172.557 171.591 173.755 175.062 176.335 177.527 
178.655 173.002 172.031 174.224 175.573 176.865 178.03 179.144 180.21 
173.569 172.526 174.806 176.097 177.373 178.568 179.664 180.71 181.656 
174.179 173.084 175.445 176.654 177.814 179.029 180.164 181.161 182.067 
182.857 174.728 173.661 175.98 177.168 178.233 179.385 180.568 181.566 
182.412 183.181 183.847 169.721 169.682 168.525 168.471 167.233 169.742 
167.146 165.934 168.471 169.776 165.942 164.837 167.162 168.484 169.897 
164.94 163.924 166.022 167.243 168.751 170.292 163.878 162.967 164.887 
166.053 167.582 169.334 170.807 162.835 162.041 163.767 164.9 166.378 
168.201 169.928 171.272 162.203 161.417 163.086 164.129 165.453 167.083 
168.854 170.436 171.767 162.008 161.16 162.879 163.785 164.928 166.319 
167.858 169.481 171.007 172.363 161.713 162.612 162.372 162.937 162.841 
163.359 163.11 163.544 163.482 164.293 164.155 164.931 163.98 164.743 
165.67 166.049 166.548 165.65 165.847 166.521 167.191 167.799 168.108 
167.677 167.685 167.838 168.201 168.778 169.465 169.888 169.427 169.574 
169.554 169.564 169.924 170.485 171.371 171.756 171.281 171.415 171.352 
171.145 171.27 171.693 172.076 173.167 173.349 173.145 173.218 173.043 
172.628 172.519 172.859 173.235 173.459 174.891 174.705 176.221 174.429 
176.043 177.585 173.943 175.671 177.454 178.951 173.649 175.116 177.109 
178.912 180.331 174.02 174.982 176.711 178.74 180.369 181.722 174.615 
175.516 176.742 178.54 180.249 181.702 182.937 174.805 176.036 177.13 
178.543 180.028 181.41 182.745 183.803 174.715 176.128 177.373 178.684 
179.992 181.135 182.294 183.458 184.376 174.683 176.062 177.395 178.742 
180.104 181.232 182.1 182.977 183.93 184.806 176.099 177.47 177.374 
178.838 178.723 178.531 180.26 180.166 179.976 179.696 181.723 181.689 
181.519 181.24 180.938 183.03 183.05 182.951 182.672 182.365 182.023 
183.976 184.028 184.076 183.951 183.666 183.34 182.916 184.654 184.736 
184.883 185.014 184.913 184.64 184.238 183.718 185.246 185.455 185.638 
185.856 185.897 185.73 185.433 184.973 184.406 185.626 186.14 186.572 
187.162 187.399 186.484 188.001 187.966 187.649 186.747 188.542 188.466 
188.604 187.864 186.783 188.878 189.017 189.169 188.799 187.593 186.555 
189.207 189.612 189.319 189.383 188.416 187.14 186.283 189.825 190.228 
189.481 189.485 189.023 187.858 186.793 185.944 190.498 190.586 189.995 
189.538 189.142 188.379 187.36 186.397 185.428 190.659 190.474 190.382 
189.765 189.11 188.47 187.714 186.823 185.838 184.823 184.628 185.561 
184.483 185.585 184.686 186.622 185.919 185.135 186.84 187.49 186.17 
185.324 187.096 187.772 188.147 185.939 185.094 186.857 187.723 188.416 
188.842 185.509 184.676 186.326 187.169 188.114 188.997 189.476 185.113 
184.197 185.948 186.726 187.555 188.481 189.323 189.899 184.643 183.675 
185.521 186.333 187.127 187.864 188.587 189.38 190.122 184.072 183.136 
184.911 185.67 186.475 187.258 187.896 188.562 189.375 190.099 174.353 
175.737 175.434 177.001 176.697 177.193 178.34 177.969 178.499 178.605 
179.489 179.056 179.696 179.861 180.071 180.525 180.031 180.799 181.028 
181.403 181.503 181.526 180.932 181.979 182.25 182.613 182.79 182.462 
182.342 181.723 182.97 183.399 183.67 183.743 183.421 183.023 183.023 
182.46 183.634 184.17 184.511 184.539 184.181 183.764 183.706 172.697 
173.724 171.949 173.018 171.022 174.814 172.245 170.082 174.205 176.101 
171.43 169.342 173.601 175.554 177.394 170.625 168.797 172.832 174.959 
176.841 178.531 170.002 168.422 172.021 174.153 176.181 178.018 179.578 
169.658 168.26 171.504 173.46 175.391 177.369 179.132 180.529 169.503 
168.275 171.228 173.1 174.822 176.632 178.522 180.114 181.371 169.452 