# vtk DataFile Version 4.0
vtk output
ASCII
DATASET POLYDATA
POINTS 1002 float
-120.544 -111.661 54.6221 -120.5 -110.709 53.5249 -120.008 -111.114 53.6706 
-120.077 -112.224 54.776 -119.431 -111.543 53.9609 -120.601 -112.833 55.7569 
-119.509 -112.83 55.0938 -118.701 -112.06 54.3945 -120.128 -113.506 56.0188 
-120.737 -114.118 57.1136 -118.759 -113.416 55.6624 -117.899 -112.67 54.9803 
-119.54 -114.136 56.543 -120.211 -114.751 57.6834 -120.835 -115.352 58.8394 
-118.003 -113.953 56.4905 -117.325 -113.239 55.7735 -118.769 -114.653 57.4013 
-119.527 -115.332 58.5229 -120.171 -115.947 59.6851 -120.705 -116.632 60.6274 
-117.433 -114.513 57.5364 -116.933 -113.764 56.793 -118.004 -115.194 58.4753 
-118.68 -115.916 59.5687 -119.367 -116.634 60.6236 -119.926 -117.342 61.4817 
-120.412 -118.139 62.0985 -116.784 -115.224 58.6821 -116.344 -114.437 57.8998 
-117.291 -115.908 59.6028 -117.849 -116.593 60.6365 -118.507 -117.353 61.6051 
-119.144 -118.126 62.3453 -119.654 -118.929 62.9009 -120.15 -119.712 63.3678 
-115.931 -116.063 59.7158 -115.584 -115.282 58.93 -116.471 -116.728 60.6263 
-117.058 -117.324 61.5962 -117.685 -118.013 62.5306 -118.386 -118.8 63.2575 
-118.962 -119.642 63.7762 -119.446 -120.432 64.2463 -119.968 -121.053 64.7134 
-115.187 -116.878 60.5362 -114.927 -116.13 59.8176 -115.682 -117.509 61.4238 
-116.295 -118.04 62.3819 -116.891 -118.667 63.3185 -117.587 -119.427 64.1125 
-118.252 -120.265 64.6861 -118.743 -121.065 65.1666 -119.248 -121.677 65.6533 
-119.816 -122.119 66.082 -114.679 -117.579 61.1977 -114.401 -116.866 60.5263 
-115.103 -118.197 62.0508 -115.651 -118.731 63.0101 -116.162 -119.379 63.9588 
-116.744 -120.158 64.8099 -117.443 -120.941 65.4894 -118.009 -121.679 66.0291 
-118.477 -122.281 66.5223 -119.044 -122.712 66.948 -119.641 -123.069 67.2381 
-120.043 -110.058 52.4795 -119.385 -110.338 52.7323 -119.331 -109.268 51.5043 
-118.515 -109.438 51.8512 -118.494 -108.352 50.6921 -118.66 -110.655 53.1389 
-117.663 -108.516 51.1149 -117.703 -107.422 50.0203 -117.743 -109.768 52.2945 
-117.835 -111.194 53.6274 -116.913 -107.638 50.5552 -116.865 -106.564 49.4417 
-116.905 -108.975 51.5769 -116.904 -110.413 52.7829 -117.073 -111.884 54.2443 
-116.033 -106.817 50.0906 -115.943 -105.824 49.0412 -116.064 -108.171 51.0942 
-115.955 -109.726 52.0647 -116.141 -111.155 53.4581 -116.641 -112.466 55.1142 
-115.045 -106.115 49.773 -115.118 -105.153 49.0443 -115.131 -107.318 50.7441 
-115.027 -108.955 51.6197 -115.078 -110.541 52.7929 -115.713 -111.798 54.4455 
-116.318 -113.028 56.2083 -114.147 -105.492 49.8341 -114.421 -104.445 49.5035 
-114.253 -106.55 50.5804 -114.359 -108.005 51.4568 -114.277 -109.761 52.4465 
-114.66 -111.286 53.8814 -115.455 -112.511 55.6397 -115.795 -113.818 57.3743 
-113.412 -104.883 50.2776 -113.791 -103.782 50.1857 -113.484 -105.932 50.7686 
-113.871 -107.077 51.6297 -114.002 -108.588 52.5463 -114.066 -110.396 53.6315 
-114.582 -112.066 55.1642 -115.121 -113.445 56.9221 -115.157 -114.78 58.5139 
-112.901 -104.37 50.9295 -113.266 -103.352 50.9148 -112.894 -105.463 51.2639 
-113.312 -106.461 52.0786 -113.756 -107.481 53.0104 -113.955 -109.017 53.8169 
-114.159 -111.112 54.9203 -114.459 -113.051 56.5288 -114.588 -114.479 58.1815 
-114.499 -115.693 59.494 -112.66 -103.695 51.7875 -112.552 -104.81 51.9437 
-112.397 -104.176 53.0764 -112.47 -105.522 53.4448 -112.295 -104.925 54.7075 
-112.729 -106.005 52.5799 -112.256 -106.48 55.1306 -112.082 -106.001 56.2802 
-112.51 -106.785 54.1964 -113.133 -106.895 53.5545 -112.13 -107.406 56.586 
-112.141 -107.038 57.6608 -112.299 -107.717 55.6334 -112.911 -107.617 54.9471 
-113.658 -107.881 54.3289 -112.834 -108.14 57.8031 -112.967 -107.874 58.8238 
-112.847 -108.655 56.8496 -113.2 -108.86 56.1677 -113.773 -109.018 55.5918 
-114.07 -109.891 55.1109 -114.076 -109.285 58.7386 -114.177 -109.183 59.4802 
-114.031 -109.832 58.0003 -114.049 -110.451 57.5148 -114.084 -110.916 57.1088 
-114.053 -111.609 56.6945 -114.11 -112.486 56.4983 -114.911 -111.314 59.4806 
-115.099 -111.283 59.8568 -114.753 -111.698 59.0433 -114.53 -112.211 58.8045 
-114.064 -112.7 58.6641 -113.504 -113.362 58.3891 -113.399 -114.073 58.1902 
-113.898 -114.442 58.1756 -115.116 -113.521 60.5223 -115.513 -113.43 60.6182 
-114.72 -113.838 60.2773 -114.328 -114.08 60.0491 -113.709 -114.127 59.9197 
-112.833 -114.44 59.6764 -112.382 -115.111 59.4356 -112.849 -115.601 59.4399 
-113.762 -115.713 59.5159 -114.994 -115.081 61.9637 -115.534 -114.948 61.879 
-114.417 -115.398 61.8578 -113.928 -115.619 61.5819 -113.429 -115.485 61.3027 
-112.692 -115.399 60.9303 -112.035 -115.836 60.4633 -112.127 -116.454 60.2666 
-112.931 -116.779 60.3868 -113.806 -116.85 60.5123 -114.112 -118.001 61.5505 
-113.461 -118.051 61.4768 -113.822 -119.176 62.8623 -112.674 -117.987 61.358 
-113.152 -119.385 62.8904 -113.383 -120.333 64.5626 -112.162 -117.613 61.5098 
-112.536 -119.455 63.0665 -112.666 -120.656 64.7779 -112.914 -121.459 66.3162 
-112.311 -117.017 62.1149 -112.253 -119.143 63.6856 -112.067 -120.773 65.2461 
-112.102 -121.752 66.59 -112.583 -122.67 67.897 -112.849 -116.707 62.7328 
-112.443 -118.555 64.4414 -111.856 -120.431 66.005 -111.451 -121.699 67.1246 
-111.651 -122.829 68.2183 -112.165 -123.896 69.4765 -113.304 -116.731 63.0738 
-112.871 -118.094 64.7471 -112.239 -119.843 66.4533 -111.462 -121.279 67.7789 
-111.091 -122.514 68.8073 -111.224 -123.863 69.8998 -111.595 -124.9 70.9544 
-113.734 -116.605 63.3528 -113.309 -117.775 64.7906 -112.934 -119.362 66.3595 
-112.22 -120.905 68.0174 -111.411 -122.081 69.3838 -110.999 -123.347 70.4714 
-111.017 -124.706 71.4164 -111.313 -125.699 72.1587 -114.332 -116.28 63.5321 
-113.823 -117.441 64.8955 -113.577 -118.986 66.1934 -113.139 -120.66 67.8406 
-112.293 -121.908 69.5301 -111.578 -122.919 70.8315 -111.332 -124.13 71.8556 
-111.328 -125.389 72.6922 -111.488 -126.337 73.2838 -114.99 -116.04 63.4596 
-114.439 -117.155 64.9112 -114.154 -118.643 66.1231 -113.873 -120.336 67.5762 
-113.177 -121.724 69.3045 -112.406 -122.738 70.7802 -112.114 -123.717 71.9514 
-112.06 -124.801 73.0247 -111.897 -125.836 73.8864 -111.838 -126.64 74.4091 
-114.498 -118.695 62.4499 -114.206 -119.835 64.0393 -114.973 -119.31 63.4825 
-113.765 -121.03 65.8403 -114.64 -120.608 65.1586 -115.438 -120.051 64.4995 
-113.441 -122.289 67.5512 -114.227 -121.985 66.8827 -115.042 -121.624 66.079 
-115.892 -120.964 65.4095 -113.167 -123.562 69.2097 -113.95 -123.215 68.605 
-114.666 -122.999 67.7017 -115.562 -122.557 66.8905 -116.55 -121.781 66.2102 
-112.631 -124.661 70.7697 -113.625 -124.25 70.3386 -114.392 -124.038 69.4631 
-115.266 -123.759 68.4983 -116.305 -123.176 67.6946 -117.249 -122.43 66.8957 
-112.083 -125.587 71.9551 -113.199 -125.166 71.7104 -114.165 -124.954 71.0978 
-115.041 -124.802 70.1602 -116.048 -124.322 69.2506 -117.004 -123.669 68.3828 
-117.789 -122.989 67.4595 -111.915 -126.458 72.9467 -112.939 -126.119 72.653 
-114.054 -125.829 72.2435 -114.976 -125.756 71.5224 -115.893 -125.438 70.6516 
-116.823 -124.82 69.7641 -117.631 -124.156 68.8216 -118.365 -123.446 67.8718 
-112.054 -127.077 74.0233 -112.905 -127.044 73.5749 -114.032 -126.752 73.1166 
-115.019 -126.555 72.5254 -115.894 -126.319 71.7929 -116.779 -125.847 70.9673 
-117.59 -125.268 70.0093 -118.326 -124.608 69.0142 -119.031 -123.834 68.1043 
-112.229 -126.975 75.242 -112.812 -127.538 74.7798 -113.048 -127.109 75.8617 
-113.871 -127.904 75.3535 -114.356 -127.255 76.1815 -113.852 -127.67 74.1928 
-115.066 -128.296 75.5968 -115.767 -127.534 76.1902 -114.802 -128.336 74.6306 
-114.916 -127.484 73.523 -116.434 -128.662 75.5413 -117.229 -127.831 76.0172 
-115.862 -128.972 74.7521 -115.776 -128.199 73.8099 -115.889 -127.118 72.8172 
-118.282 -128.839 75.4571 -119.036 -128.055 75.9668 -117.507 -129.3 74.64 
-117.05 -128.722 73.8741 -116.945 -127.517 73.1083 -116.882 -126.606 72.079 
-120.227 -128.762 75.4434 -120.822 -128.055 75.9608 -119.494 -129.192 74.493 
-118.829 -128.836 73.6748 -118.37 -127.753 73.1524 -118.04 -126.803 72.2947 
-117.772 -126.111 71.0966 -121.629 -128.343 75.1627 -122.107 -127.7 75.5479 
-120.971 -128.754 74.2468 -120.342 -128.613 73.2872 -119.78 -127.811 72.7659 
-119.229 -126.954 72.1502 -118.786 -126.345 71.0337 -118.51 -125.584 69.9067 
-122.654 -127.679 74.4873 -123.059 -127.181 74.7284 -121.985 -128.059 73.7509 
-121.359 -128.184 72.781 -120.861 -127.772 72.1112 -120.295 -127.038 71.6071 
-119.728 -126.434 70.7295 -119.387 -125.774 69.6747 -119.208 -124.828 68.8354 
-123.623 -127.051 73.7236 -123.919 -126.716 73.8925 -123.002 -127.285 73.145 
-122.361 -127.533 72.2482 -121.893 -127.545 71.4448 -121.391 -127.059 70.9032 
-120.751 -126.378 70.2588 -120.241 -125.727 69.3923 -119.996 -124.91 68.6014 
-119.841 -123.945 67.9418 -112.255 -126.113 75.1655 -112.51 -126.168 75.9811 
-112.87 -125.41 75.5634 -113.117 -125.284 76.3955 -113.627 -124.868 75.566 
-113.452 -126.169 76.5108 -114.047 -124.709 76.6618 -114.587 -124.473 75.3217 
-114.242 -125.418 77.1315 -115.016 -126.423 76.7741 -115.203 -124.3 76.5925 
-115.725 -124.125 74.685 -115.25 -124.942 77.7729 -115.845 -125.874 77.5446 
-116.506 -126.804 76.6463 -116.423 -124.018 75.5735 -116.852 -123.86 73.6011 
-116.318 -124.446 77.4541 -116.705 -125.27 78.0268 -117.275 -126.172 77.1568 
-118.012 -127.088 76.294 -117.571 -123.796 74.0092 -117.765 -123.396 72.5417 
-117.454 -124.082 75.7392 -117.691 -124.538 77.1048 -118.214 -125.29 77.1799 
-118.912 -126.246 76.5087 -119.86 -127.251 76.1749 -118.487 -123.181 72.8328 
-118.398 -122.516 71.7086 -118.562 -123.646 74.0158 -118.785 -123.962 75.3182 
-119.307 -124.41 76.2393 -119.983 -125.218 76.368 -120.707 -126.24 76.177 
-121.481 -127.15 75.9912 -119.124 -122.226 71.9358 -118.905 -121.538 70.8219 
-119.393 -122.817 73.0036 -119.689 -123.237 74.069 -120.19 -123.613 75.07 
-120.887 -124.239 75.6718 -121.48 -125.137 75.7754 -121.978 -126.057 75.6128 
-122.551 -126.785 75.2753 -119.654 -121.368 70.8782 -119.464 -120.74 69.7987 
-119.949 -121.939 72.0246 -120.275 -122.369 73.1551 -120.715 -122.705 74.1432 
[...]
CELL_DATA 2000
SCALARS Distance double
LOOKUP_TABLE default
171.484 171.49 171.843 172.57 171.502 171.895 172.698 173.02 173.832 
171.518 171.934 172.806 173.177 174.034 174.365 175.234 171.642 171.995 
172.887 173.283 174.186 174.566 175.45 175.786 176.635 171.966 172.217 
173.094 173.412 174.335 174.714 175.642 175.997 176.86 177.161 177.969 
172.379 172.6 173.465 173.709 174.607 174.916 175.858 176.205 177.111 
177.411 178.241 178.498 179.287 172.762 172.989 173.832 174.087 174.944 
175.221 176.111 176.439 177.349 177.675 178.534 178.801 179.599 179.828 
180.579 173.151 173.346 174.148 174.408 175.235 175.517 176.354 176.67 
177.549 177.899 178.777 179.086 179.892 180.139 180.875 181.087 181.76 
173.547 173.723 174.482 174.712 175.516 175.78 176.6 176.893 177.751 
178.09 178.975 179.312 180.135 180.406 181.125 181.348 181.994 182.195 
182.782 170.801 169.603 170.38 170.71 168.206 169.049 169.359 170.243 
170.63 166.807 167.615 167.908 168.809 169.215 170.151 170.607 165.496 
166.27 166.576 167.406 167.811 168.72 169.229 170.18 170.737 164.213 
164.981 165.307 166.127 166.511 167.366 167.859 168.814 169.448 170.421 
171.075 163.046 163.723 164.027 164.842 165.228 166.077 166.542 167.469 
168.117 169.141 169.886 170.848 171.518 162.102 162.634 162.889 163.605 
164.027 164.835 165.347 166.205 166.868 167.853 168.675 169.684 170.465 
171.338 171.973 161.356 161.771 162.002 162.588 163.053 163.775 164.365 
165.128 165.812 166.695 167.56 168.556 169.465 170.366 171.119 171.853 
172.448 160.837 161.133 161.398 161.853 162.359 162.972 163.606 164.275 
164.949 165.721 166.564 167.52 168.508 169.458 170.326 171.086 171.736 
172.363 172.891 160.723 161.05 160.979 161.358 161.844 161.577 161.993 
161.845 162.391 162.865 162.533 162.927 162.654 163.114 163 163.602 
163.957 163.574 163.922 163.606 163.981 163.763 164.278 164.231 164.907 
165.314 164.765 165.181 164.721 165.232 164.807 165.42 165.108 165.884 
165.731 166.614 167.086 166.362 166.93 166.299 167.042 166.434 167.235 
166.645 167.496 167.047 167.983 167.702 168.641 169.137 168.344 168.968 
168.277 169.023 168.418 169.128 168.551 169.167 168.702 169.367 169.096 
169.855 169.678 170.414 171.14 170.411 170.934 170.282 170.824 170.254 
170.657 170.135 170.352 169.961 170.213 170.086 170.561 170.601 171.198 
171.188 171.749 172.761 172.195 172.531 171.998 172.324 171.801 172.001 
171.428 171.465 170.912 170.99 170.684 171.049 171.055 171.659 171.762 
172.375 172.372 172.886 173.555 173.061 173.727 174.529 172.38 173.17 
174.099 174.791 175.657 171.806 172.534 173.629 174.405 175.415 175.975 
176.81 171.739 172.19 173.364 174.076 175.221 175.784 176.644 177.11 
177.936 172.184 172.38 173.454 173.989 175.135 175.656 176.491 176.915 
177.668 178.222 179.088 172.724 172.869 173.745 174.135 175.164 175.631 
176.455 176.795 177.463 177.911 178.711 179.334 180.147 173.085 173.284 
174.017 174.333 175.246 175.688 176.591 176.892 177.598 177.829 178.55 
178.985 179.808 180.348 181.082 173.325 173.553 174.245 174.51 175.355 
175.775 176.766 177.139 177.98 178.138 178.824 179.005 179.778 180.147 
180.973 181.368 182.083 173.556 173.784 174.478 174.71 175.514 175.895 
176.886 177.336 178.259 178.53 179.224 179.36 180.049 180.285 181.101 
181.42 182.193 182.462 183.081 173.988 175.012 174.644 174.962 176.122 
175.74 176.092 175.682 176.006 177.257 176.887 177.29 176.876 177.245 
176.785 177.115 178.459 178.08 178.547 178.126 178.561 178.094 178.472 
177.954 178.297 179.696 179.352 179.851 179.424 179.861 179.419 179.832 
179.353 179.727 179.19 179.529 180.731 180.526 181.019 180.688 181.083 
180.684 181.07 180.661 181.047 180.592 180.924 180.398 180.668 181.571 
181.422 181.91 181.713 182.139 181.841 182.238 181.867 182.251 181.841 
182.174 181.712 181.958 181.44 181.625 182.481 182.255 182.747 182.552 
183.049 182.833 183.31 183.013 183.425 183.035 183.363 182.913 183.157 
182.664 182.842 182.321 182.467 183.415 183.194 183.682 183.461 183.982 
183.765 184.275 184.035 184.469 184.155 184.481 184.078 184.315 183.844 
184.021 183.512 183.65 183.126 183.24 183.973 184.88 184.425 184.354 
185.877 185.439 185.507 184.877 184.725 186.936 186.521 186.65 186.073 
185.947 185.229 184.996 187.988 187.594 187.747 187.219 187.105 186.411 
186.119 185.422 185.134 189.16 188.703 188.909 188.349 188.27 187.555 
187.232 186.491 186.134 185.474 185.134 190.336 189.916 190.072 189.524 
189.404 188.71 188.346 187.583 187.151 186.443 186.04 185.391 184.974 
191.011 190.838 190.801 190.457 190.168 189.664 189.19 188.566 188.031 
187.378 186.878 186.248 185.77 185.146 184.664 191.112 191.123 190.943 
190.795 190.396 190.114 189.598 189.179 188.602 188.078 187.5 186.953 
186.41 185.857 185.332 184.763 184.259 191.037 191.056 190.863 190.74 
190.359 190.163 189.737 189.454 188.973 188.54 187.972 187.456 186.874 
186.376 185.828 185.337 184.812 184.303 183.808 183.947 184.006 184.188 
184.67 184.038 184.161 184.581 184.907 185.555 184.243 184.271 184.735 
184.922 185.617 185.925 186.662 184.527 184.58 185.158 185.285 186.036 
186.182 186.891 187.063 187.733 184.682 184.84 185.412 185.677 186.4 
186.633 187.24 187.352 187.901 188.109 188.823 184.647 184.905 185.367 
185.715 186.303 186.724 187.267 187.55 188.019 188.257 188.904 189.261 
190.019 184.332 184.741 185.159 185.526 185.993 186.422 186.951 187.377 
187.908 188.267 188.866 189.264 189.936 190.334 190.824 183.752 184.285 
184.732 185.197 185.628 186.057 186.535 187.001 187.555 188.038 188.596 
189.065 189.572 190.045 190.437 190.819 190.995 183.135 183.662 184.13 
184.667 185.104 185.6 186.008 186.515 186.97 187.545 188.017 188.586 
188.951 189.468 189.726 190.223 190.422 190.813 190.912 173.937 174.824 
174.542 174.855 175.738 175.459 175.861 175.539 175.966 176.744 176.453 
176.987 176.674 177.234 176.849 177.387 177.929 177.594 178.209 177.895 
178.505 178.158 178.682 178.297 178.719 179.209 178.884 179.525 179.186 
179.78 179.414 179.879 179.495 179.844 179.452 179.687 180.354 180.138 
180.799 180.511 181.116 180.724 181.211 180.733 181.122 180.617 180.935 
180.396 180.622 181.256 181.164 181.84 181.692 182.318 182.031 182.542 
182.115 182.538 182.024 182.398 181.814 182.125 181.471 181.715 181.977 
181.951 182.611 182.592 183.207 183.081 183.532 183.28 183.59 183.275 
183.515 183.152 183.349 182.906 183.074 182.536 182.697 182.61 182.6 
183.215 183.252 183.836 183.81 184.212 184.06 184.272 184.054 184.152 
183.927 183.965 183.75 183.795 183.562 183.65 183.323 183.437 173.431 
172.838 173.611 174.398 172.009 173.031 174.026 174.62 175.325 170.945 
172.195 173.467 174.276 175.108 175.563 176.267 169.847 171.14 172.627 
173.704 174.762 175.358 176.096 176.551 177.364 169.029 170.134 171.661 
172.862 174.14 174.964 175.822 176.359 177.148 177.698 178.589 168.593 
169.431 170.86 171.985 173.396 174.349 175.378 176.026 176.847 177.432 
178.285 178.892 179.728 168.45 169.053 170.312 171.28 172.718 173.707 
174.9 175.617 176.516 177.097 177.947 178.55 179.377 179.948 180.667 
168.515 168.934 169.994 170.77 172.097 173.077 174.344 175.178 176.161 
176.782 177.636 178.219 179.061 179.617 180.359 180.838 181.453 168.689 
169.004 169.899 170.47 171.594 172.447 173.639 174.557 175.587 176.358 
177.224 177.88 178.715 179.313 180.086 180.575 181.208 181.606 182.141 
169.051 170.049 169.747 170.28 171.176 170.831 171.371 171.122 171.865 
172.334 171.967 172.459 172.209 172.916 172.822 173.743 173.587 173.149 
173.635 173.313 173.999 173.852 174.741 174.726 175.652 175.019 174.511 
175.06 174.622 175.352 175.052 175.939 175.774 176.696 176.589 177.39 
176.465 176 176.575 176.144 176.886 176.532 177.381 177.088 177.94 
177.713 178.51 178.294 178.963 177.738 177.369 177.91 177.581 178.259 
177.995 178.74 178.48 179.182 178.936 179.619 179.42 180.066 179.825 
180.349 178.881 178.559 179.077 178.798 179.422 179.212 179.883 179.675 
180.279 180.047 180.615 180.433 181.018 180.849 181.356 181.096 181.464 
179.942 179.664 180.186 179.921 180.521 180.302 180.943 180.735 181.33 
181.084 181.625 181.389 181.936 181.747 182.253 182.03 182.405 182.1 
182.377 180.651 181.91 181.177 180.989 183.343 182.546 182.396 181.572 
181.37 184.864 184.035 183.861 183.019 182.806 181.979 181.773 186.285 
185.515 185.301 184.475 184.246 183.418 183.199 182.38 182.147 187.447 
186.803 186.61 185.877 185.661 184.854 184.637 183.81 183.567 182.722 
182.447 188.435 187.842 187.671 187.082 186.893 186.204 185.945 185.184 
184.903 184.114 183.816 182.995 182.719 189.396 188.791 188.558 188.03 
187.839 187.29 186.999 186.342 185.983 185.305 184.976 184.277 183.963 
183.226 182.949 190.233 189.701 189.407 188.869 188.65 188.148 187.898 
187.298 186.931 186.273 185.918 185.299 184.984 184.347 184.013 183.352 
183.031 190.782 190.428 190.167 189.677 189.436 188.946 188.719 188.173 
187.835 187.194 186.801 186.182 185.845 185.266 184.933 184.317 183.951 
183.326 182.978 180.702 181.076 181.2 181.883 181.458 181.557 182.254 
182.455 183.279 182.019 182.022 182.715 182.848 183.748 183.979 184.872 
182.674 182.697 183.387 183.402 184.283 184.497 185.501 185.645 186.407 
182.95 183.239 183.898 184.024 184.778 185.023 186.011 186.274 187.124 
187.113 187.635 182.628 183.18 183.773 184.202 184.841 185.292 186.188 
186.661 187.576 187.775 188.402 188.273 188.678 182.108 182.664 183.245 
183.802 184.471 185.082 185.974 186.629 187.583 188.057 188.81 188.956 
189.481 189.331 189.693 181.779 182.214 182.857 183.332 184.115 184.698 
185.676 186.341 187.315 187.902 188.671 189.105 189.692 189.922 190.342 
190.264 190.499 181.621 182.003 182.68 183.1 183.907 184.447 185.42 
186.066 187.001 187.585 188.263 188.762 189.265 189.761 190.179 190.53 
190.776 190.823 190.912 180.049 179.162 179.91 180.439 178.048 178.951 
179.55 180.29 180.828 176.728 177.745 178.415 179.317 179.918 180.689 
181.316 175.302 176.367 177.075 178.107 178.747 179.655 180.277 181.166 
181.846 173.757 174.835 175.506 176.682 177.38 178.413 178.999 179.953 
180.555 181.559 182.097 172.305 173.227 173.761 174.963 175.675 176.916 
177.55 178.6 179.114 180.115 180.603 181.582 181.882 171.229 171.912 
172.332 173.259 173.858 175.073 175.746 176.984 177.542 178.623 179.076 
180.054 180.413 181.262 181.452 170.342 170.971 171.372 172.051 172.519 
173.4 173.969 175.103 175.717 176.92 177.457 178.531 178.944 179.847 
180.146 180.902 181.124 169.36 170.061 170.474 171.157 171.579 172.263 
172.702 173.527 174.061 175.117 175.722 176.859 177.383 178.394 178.775 
179.625 179.926 180.67 180.944 168.898 168.663 169.202 170.077 168.576 
169.041 169.929 170.427 171.246 168.604 169.009 169.865 170.319 171.167 
171.596 172.367 168.726 169.079 169.935 170.317 171.17 171.566 172.398 
172.771 173.638 168.998 169.26 170.127 170.451 171.316 171.654 172.527 
172.876 173.798 174.189 175.216 169.45 169.6 170.428 170.694 171.566 
171.865 172.747 173.072 174.011 174.389 175.406 175.842 176.873 170.027 
170.092 170.861 171.048 171.915 172.168 173.066 173.347 174.285 174.625 
175.617 176.02 177.008 177.424 178.317 170.629 170.666 171.388 171.518 
172.365 172.575 173.488 173.726 174.666 174.944 175.916 176.249 177.211 
177.567 178.45 178.784 179.544 171.197 171.236 171.918 172.033 172.839 
173.041 173.931 174.168 175.073 175.333 176.25 176.555 177.468 177.791 
178.652 178.955 179.725 179.98 180.637 171.714 172.798 172.3 172.465 
174.082 173.499 173.711 173.174 173.433 175.519 174.901 175.149 174.542 
174.828 174.255 174.551 176.941 176.377 176.655 176.045 176.31 175.7 
175.977 175.401 175.686 178.279 177.778 178.097 177.539 177.797 177.178 
177.405 176.814 177.092 176.541 176.845 179.586 179.107 179.459 178.951 
179.251 178.655 178.877 178.246 178.502 177.94 178.276 177.733 178.052 
180.862 180.41 180.765 180.294 180.638 180.104 180.388 179.757 180.01 
179.386 179.706 179.158 179.505 178.943 179.22 182.036 181.645 181.995 
181.567 181.924 181.467 181.818 181.273 181.559 180.926 181.187 180.591 
180.893 180.356 180.635 180.062 180.264 183.057 182.747 183.096 182.735 
183.085 182.702 183.072 182.646 182.961 182.419 182.623 182.025 182.217 
181.682 181.91 181.401 181.585 181.021 181.139 181.748 182.241 182.286 
182.838 182.602 182.749 183.413 183.457 184.107 182.928 183.085 183.803 
183.985 184.789 184.867 185.639 183.361 183.473 184.17 184.343 185.171 
185.434 186.309 186.435 187.151 183.725 183.92 184.616 184.753 185.516 
185.761 186.619 186.903 187.634 187.755 188.283 183.828 184.165 184.888 
185.143 185.888 186.123 186.938 187.189 187.923 188.083 188.627 188.707 
189.19 183.799 184.171 184.881 185.26 185.999 186.371 187.164 187.495 
188.22 188.396 188.927 188.998 189.472 189.584 190.077 183.768 184.121 
184.786 185.173 185.857 186.304 187.037 187.525 188.222 188.584 189.079 
189.245 189.619 189.775 190.195 190.386 190.733 183.694 184.056 184.678 
185.055 185.679 186.094 186.741 187.238 187.887 188.383 188.9 189.234 
189.589 189.809 190.152 190.383 190.713 190.872 191.004 160.671 161.195 
160.806 160.561 161.928 161.435 161.162 160.677 160.392 162.837 162.25 
162.024 161.428 161.18 160.628 160.59 163.993 163.294 163.143 162.459 
162.329 161.646 161.651 161.147 161.479 165.332 164.599 164.539 163.782 
163.733 162.964 162.979 162.35 162.595 162.229 162.714 166.711 166.01 
166.038 165.3 165.287 164.476 164.437 163.709 163.85 163.366 163.742 
163.457 163.967 168.11 167.423 167.474 166.791 166.792 166.026 165.956 
165.176 165.248 164.649 164.986 164.562 165.035 164.724 165.277 169.459 
168.808 168.816 168.169 168.155 167.462 167.415 166.675 166.74 166.092 
166.406 165.898 166.356 165.916 166.412 166.084 166.668 170.626 170.06 
170.024 169.431 169.396 168.767 168.756 168.097 168.19 167.572 167.847 
167.328 167.733 167.268 167.706 167.29 167.782 167.489 168.066 160.455 
160.3 160.329 160.311 160.102 160.126 160.181 160.337 160.584 160.319 
160.067 160.191 160.28 160.702 160.849 161.282 161.285 160.682 160.82 
160.58 161.093 161.125 161.701 161.71 162.171 162.603 161.923 162.051 
161.551 161.998 161.78 162.383 162.272 162.788 162.678 163.178 163.893 
163.272 163.419 162.878 163.232 162.852 163.369 163.118 163.647 163.428 
163.945 163.805 164.418 165.227 164.601 164.81 164.249 164.594 164.117 
164.555 164.186 164.661 164.372 164.863 164.655 165.215 165.118 165.742 
166.654 166.02 166.28 165.696 166.043 165.502 165.872 165.401 165.782 
165.41 165.807 165.548 165.999 165.875 166.401 166.365 166.901 168.063 
167.47 167.723 167.165 167.457 166.918 167.189 166.685 166.956 166.524 
166.824 166.479 166.826 166.606 167.043 166.962 167.465 167.439 167.933 
160.511 160.416 160.488 160.772 160.668 160.525 160.724 160.896 161.442 
161.291 160.943 161.026 160.95 161.387 161.707 162.44 162.165 161.713 
161.799 161.461 161.817 161.821 162.533 162.833 163.641 163.218 162.712 
162.927 162.466 162.856 162.545 163.2 163.185 164.033 164.19 165.056 
164.476 163.903 164.177 163.706 164.116 163.726 164.259 164.043 164.772 
164.778 165.656 165.777 166.76 165.795 165.229 165.434 164.954 165.261 
164.893 165.272 165.028 165.576 165.536 166.355 166.47 167.486 167.655 
168.774 166.962 166.479 166.63 166.151 166.369 165.958 166.284 165.966 
166.488 166.342 167.19 167.242 168.356 168.485 169.663 169.782 170.874 
168.009 167.576 167.766 167.304 167.568 167.113 167.535 167.117 167.773 
167.462 168.432 168.305 169.525 169.523 170.757 170.767 171.827 171.814 
172.646 179.583 178.506 178.929 178.648 177.316 177.761 177.39 177.852 
177.464 175.992 176.475 176.008 176.478 175.995 176.519 176.087 174.547 
175.055 174.547 175.017 174.482 174.991 174.533 175.105 174.681 173.153 
173.605 173.109 173.543 173.002 173.471 173.009 173.561 173.16 173.708 
173.251 171.881 172.263 171.752 172.147 171.594 172.016 171.51 172.034 
171.633 172.207 171.817 172.314 171.898 170.642 170.98 170.388 170.779 
170.195 170.615 170.07 170.543 170.104 170.67 170.34 170.913 170.611 
171.099 170.823 169.49 169.738 169.096 169.409 168.819 169.214 168.708 
169.144 168.725 169.212 168.914 169.477 169.259 169.821 169.597 170.112 
169.89 168.555 168.693 168.097 168.253 167.702 167.955 167.517 167.875 
167.53 167.944 167.67 168.153 167.944 168.487 168.272 168.819 168.562 
169.117 168.87 
POINT_DATA 1002
SCALARS Distance double
LOOKUP_TABLE default
172.156 171.168 171.131 172.244 171.098 173.313 172.345 171.065 173.507 
174.677 172.394 171.098 173.683 174.915 176.114 172.497 171.334 173.775 
175.106 176.333 177.461 172.822 171.746 173.969 175.267 176.559 177.694 
178.756 173.237 172.159 174.341 175.519 176.794 177.986 179.049 180.059 
173.575 172.558 174.689 175.809 177.008 178.249 179.371 180.38 181.302 
173.909 172.99 174.965 176.058 177.198 178.443 179.642 180.668 181.581 
182.401 174.275 173.381 175.266 176.32 177.426 178.632 179.855 180.912 
181.797 182.608 183.339 170.106 169.904 168.801 168.444 167.377 169.73 
167.027 166.02 168.255 169.662 165.765 164.704 166.937 168.245 169.783 
164.477 163.459 165.681 166.918 168.417 170.147 163.235 162.447 164.371 
165.635 167.076 168.861 170.653 162.223 161.64 163.211 164.503 165.906 
167.626 169.542 171.206 161.452 160.981 162.334 163.615 164.979 166.555 
168.502 170.356 171.799 160.969 160.565 161.775 162.97 164.236 165.634 
167.507 169.52 171.107 172.304 160.639 161.332 161.182 162.221 162.133 
162.431 163.253 163.214 163.314 163.602 164.261 164.401 164.255 164.377 
164.856 165.634 165.909 165.65 165.792 166.092 166.706 167.543 167.806 
167.613 167.863 168.053 168.349 168.901 169.685 169.923 169.678 169.782 
169.744 169.714 170.05 170.622 171.632 171.87 171.491 171.311 170.887 
170.432 170.502 171.138 171.839 173.088 173.328 172.88 172.608 172.092 
171.421 171.121 171.529 172.313 172.976 174.312 173.897 175.381 173.302 
175.101 176.494 172.772 174.816 176.335 177.605 172.681 174.646 176.207 
177.395 178.813 173.043 174.646 176.122 177.151 178.462 179.992 173.477 
174.722 176.133 177.119 178.124 179.552 180.901 173.774 174.806 176.215 
177.431 178.249 179.282 180.595 181.751 174.012 174.953 176.311 177.778 
178.738 179.488 180.567 181.758 182.742 174.257 175.168 176.425 177.926 
179.08 179.858 180.804 181.936 182.888 183.614 175.347 176.495 176.437 
177.678 177.702 177.601 178.963 179.004 178.982 178.838 180.285 180.31 
180.275 180.243 180.103 181.303 181.473 181.472 181.468 181.433 181.24 
182.064 182.366 182.581 182.664 182.627 182.467 182.17 182.951 183.228 
183.555 183.796 183.818 183.647 183.359 183 183.89 184.206 184.514 
184.757 184.855 184.772 184.528 184.179 183.774 184.417 184.969 185.257 
186.094 186.283 185.458 187.189 187.34 186.669 185.718 188.255 188.373 
187.801 186.849 185.793 189.484 189.627 188.994 188.017 186.834 185.778 
190.64 190.745 190.099 189.124 187.901 186.721 185.625 191.133 191.159 
190.636 189.774 188.678 187.517 186.401 185.287 191.079 191.102 190.621 
189.935 189.087 188.043 186.944 185.888 184.825 190.989 191.024 190.524 
189.937 189.342 188.492 187.384 186.298 185.3 184.312 183.812 184.338 
183.871 184.278 183.969 185.129 184.57 184.195 185.361 186.365 184.98 
184.411 185.927 186.823 187.488 185.135 184.507 186.125 187.151 187.749 
188.471 185.08 184.358 185.891 186.899 187.756 188.557 189.688 184.789 
183.853 185.611 186.482 187.48 188.493 189.551 190.571 184.215 183.19 
185.195 186.081 187.047 188.144 189.155 190.014 190.728 183.584 182.635 
184.593 185.527 186.42 187.446 188.463 189.238 189.928 190.612 174.229 
175.144 175.104 176.134 175.98 176.309 177.248 177.009 177.582 177.816 
178.527 178.256 178.857 179.081 179.156 179.872 179.502 180.179 180.307 
180.254 180.126 181.044 180.521 181.485 181.688 181.643 181.475 181.206 
181.93 181.321 182.549 182.924 183.018 182.957 182.765 182.406 182.606 
182.008 183.3 183.775 183.903 183.855 183.736 183.549 183.269 172.742 
173.865 171.91 173.32 170.801 174.896 172.467 169.57 174.616 175.818 
171.386 168.59 174.031 175.645 176.831 170.429 168.072 173.172 175.22 
176.606 178.013 169.795 167.912 172.358 174.66 176.258 177.682 179.165 
169.453 167.987 171.69 174.107 175.937 177.358 178.807 180.163 169.364 
168.195 171.168 173.436 175.493 177.058 178.496 179.886 181.033 169.454 