# vtk DataFile Version 4.0
vtk output
ASCII
DATASET POLYDATA
POINTS 1002 float
-119.897 -112.122 53.4748 -119.479 -111.109 52.5092 -118.935 -111.398 52.7862 
-119.362 -112.528 53.8514 -118.376 -111.82 53.1432 -120.251 -113.189 54.7273 
-118.819 -113.006 54.3265 -117.849 -112.303 53.6448 -119.756 -113.707 55.1833 
-120.49 -114.37 56.0787 -118.328 -113.446 55.0169 -117.439 -112.756 54.3482 
-119.255 -114.188 55.7999 -120.045 -114.944 56.6639 -120.671 -115.602 57.5334 
-117.921 -113.906 55.891 -117.119 -113.21 55.1909 -118.73 -114.669 56.6214 
-119.543 -115.442 57.492 -120.222 -116.197 58.3852 -120.827 -116.876 59.2607 
-117.554 -114.46 56.8498 -116.803 -113.76 56.1079 -118.187 -115.325 57.5314 
-118.892 -116.122 58.3926 -119.627 -116.84 59.385 -120.275 -117.62 60.2245 
-120.868 -118.415 60.9177 -117.233 -115.04 57.9273 -116.504 -114.425 57.1002 
-117.768 -115.964 58.6119 -118.249 -116.986 59.3095 -118.894 -117.786 60.2322 
-119.574 -118.489 61.1231 -120.171 -119.3 61.7545 -120.731 -120.045 62.273 
-116.934 -115.697 59.034 -116.235 -115.147 58.1164 -117.51 -116.488 59.8592 
-117.85 -117.623 60.476 -118.25 -118.747 61.0909 -118.85 -119.533 61.8569 
-119.434 -120.187 62.5754 -119.956 -120.848 63.1478 -120.487 -121.368 63.6596 
-116.543 -116.49 59.9974 -115.973 -115.85 59.1126 -117.137 -117.226 60.8915 
-117.498 -118.221 61.6195 -117.704 -119.424 62.133 -118.119 -120.427 62.6795 
-118.702 -121.081 63.3779 -119.217 -121.611 64.0607 -119.694 -122.09 64.6141 
-120.211 -122.458 65.0472 -116.065 -117.3 60.8541 -115.714 -116.543 60.0905 
-116.509 -118.158 61.6127 -116.879 -119.107 62.3425 -117.053 -120.142 62.9658 
-117.297 -121.108 63.5376 -117.826 -121.832 64.1948 -118.427 -122.373 64.8829 
-118.923 -122.843 65.4427 -119.398 -123.237 65.8334 -119.92 -123.54 66.1045 
-118.713 -110.219 51.8367 -118.113 -110.496 52.1086 -117.929 -109.384 51.0645 
-117.212 -109.639 51.3603 -117.027 -108.763 50.1418 -117.498 -110.943 52.4687 
-116.147 -109.004 50.4637 -115.983 -108.203 49.3068 -116.499 -110.102 51.7281 
-116.941 -111.513 52.9385 -115.11 -108.4 49.7471 -115.074 -107.372 48.9107 
-115.39 -109.433 50.9508 -115.863 -110.783 52.1852 -116.491 -112.091 53.581 
-114.37 -107.511 49.5418 -114.35 -106.372 48.9323 -114.496 -108.699 50.5091 
-114.748 -110.128 51.6087 -115.311 -111.528 52.8264 -116.119 -112.665 54.3949 
-113.647 -106.624 49.5447 -113.513 -105.637 48.9927 -113.857 -107.768 50.4257 
-113.933 -109.301 51.4127 -114.188 -110.934 52.3717 -114.945 -112.238 53.6569 
-115.841 -113.333 55.3396 -112.717 -106.123 49.419 -112.629 -105.183 48.9408 
-113.066 -107.062 50.3362 -113.29 -108.398 51.3626 -113.389 -110.119 52.1993 
-113.916 -111.717 53.1752 -114.848 -112.975 54.6297 -115.669 -114.08 56.3755 
-111.955 -105.744 49.4259 -112.041 -104.694 49.0511 -112.209 -106.689 50.3181 
-112.575 -107.788 51.3731 -112.774 -109.298 52.1833 -113.116 -111.014 52.9527 
-113.93 -112.512 54.1228 -114.865 -113.707 55.7128 -115.548 -114.777 57.4597 
-111.639 -105.21 49.9216 -111.807 -104.133 49.6019 -111.716 -106.311 50.7024 
-112.008 -107.426 51.6633 -112.279 -108.718 52.4335 -112.521 -110.293 53.0826 
-113.085 -111.915 53.9622 -114.004 -113.266 55.2431 -114.879 -114.369 56.856 
-115.446 -115.431 58.5653 -111.644 -104.324 50.8323 -111.605 -105.548 51.4183 
-111.659 -104.94 52.6465 -111.729 -106.383 53.232 -111.747 -106.067 54.4801 
-111.737 -106.897 52.2224 -111.795 -107.523 54.9504 -111.86 -107.142 56.1186 
-111.842 -107.843 53.8091 -111.968 -108.223 52.9591 -111.88 -108.436 56.6686 
-112.211 -108.014 57.6654 -111.893 -108.805 55.4665 -112.027 -109.147 54.4286 
-112.177 -109.651 53.6114 -112.477 -109.429 58.0358 -113.072 -109.349 58.6915 
-112.236 -109.689 57.056 -112.291 -110.031 56.0291 -112.327 -110.59 55.1187 
-112.522 -111.297 54.3507 -113.714 -110.911 58.5081 -114.283 -111.016 58.9365 
-113.265 -110.958 57.8992 -113.096 -111.131 57.1674 -112.944 -111.572 56.467 
-112.875 -112.274 55.7976 -113.279 -112.885 55.3288 -114.982 -112.362 58.7275 
-115.384 -112.317 59.0581 -114.545 -112.483 58.3526 -114.23 -112.607 57.939 
-113.923 -112.834 57.5306 -113.615 -113.358 57.1293 -113.715 -113.905 56.8205 
-114.267 -114.2 56.7431 -115.759 -113.576 59.5141 -116.11 -113.408 59.6689 
-115.365 -113.865 59.3527 -114.995 -114.127 59.2238 -114.61 -114.303 59.063 
-114.216 -114.674 58.793 -114.145 -115.174 58.5359 -114.528 -115.397 58.4618 
-115.034 -115.394 58.5117 -116.051 -114.905 60.7512 -116.46 -114.723 60.7105 
-115.611 -115.229 60.7954 -115.176 -115.573 60.9054 -114.7 -115.769 60.993 
-114.213 -116.048 60.8389 -114.051 -116.581 60.496 -114.413 -116.912 60.2851 
-114.962 -116.801 60.2546 -115.378 -116.601 60.2043 -115.511 -117.823 61.5255 
-115.107 -118.058 61.7447 -115.043 -119.27 62.8566 -114.526 -118.44 61.7939 
-114.494 -119.63 62.9983 -114.501 -120.632 64.0915 -113.786 -118.48 61.8628 
-113.681 -120.002 62.8862 -113.802 -121.031 64.0444 -114.055 -121.932 65.4074 
-113.456 -117.937 62.2275 -112.905 -119.776 62.9904 -112.906 -121.198 63.9157 
-113.225 -122.319 65.3647 -113.534 -123.381 66.764 -113.858 -117.439 62.6021 
-112.897 -119.163 63.4675 -112.402 -120.759 64.2459 -112.441 -122.188 65.6046 
-112.658 -123.56 66.9824 -112.94 -124.757 68.0132 -114.541 -117.276 62.5976 
-113.623 -118.894 63.7795 -112.802 -120.346 64.7394 -112.328 -121.7 66.1506 
-112.154 -123.09 67.5807 -112.245 -124.527 68.5362 -112.65 -125.706 69.4199 
-115.126 -117.034 62.3783 -114.394 -118.766 63.7419 -113.638 -120.225 64.9157 
-112.972 -121.492 66.3955 -112.428 -122.634 68.0029 -112.125 -123.86 69.1834 
-112.224 -125.22 70.1135 -112.659 -126.33 71.1822 -115.67 -116.664 62.1985 
-115.017 -118.426 63.6172 -114.342 -119.926 64.9081 -113.768 -121.296 66.3384 
-113.227 -122.495 67.9364 -112.715 -123.474 69.3874 -112.41 -124.585 70.5985 
-112.416 -125.838 71.7712 -112.631 -126.834 72.9076 -116.214 -116.391 62.0508 
-115.638 -118.077 63.4772 -114.961 -119.493 64.8302 -114.412 -120.84 66.2227 
-113.994 -122.223 67.717 -113.573 -123.321 69.2208 -113.145 -124.222 70.6356 
-112.809 -125.279 71.9481 -112.606 -126.362 73.167 -112.544 -127.189 74.1661 
-115.706 -118.767 62.1854 -115.16 -120.263 63.5021 -115.99 -119.852 62.8088 
-114.737 -121.543 64.9984 -115.413 -121.396 64.1544 -116.235 -120.92 63.476 
-114.393 -122.857 66.5891 -115.098 -122.61 65.8717 -115.709 -122.427 64.9057 
-116.441 -121.829 64.2099 -113.838 -124.4 67.9024 -114.752 -123.918 67.555 
-115.457 -123.687 66.6519 -116.05 -123.277 65.723 -116.869 -122.565 64.9879 
-113.373 -125.717 69.1533 -114.226 -125.332 68.9173 -115.072 -125.046 68.2504 
-115.796 -124.726 67.2743 -116.565 -124.044 66.4465 -117.524 -123.197 65.7062 
-113.276 -126.548 70.8439 -113.964 -126.372 70.4212 -114.65 -126.203 69.7401 
-115.415 -126.063 68.757 -116.261 -125.542 67.7832 -117.199 -124.68 66.9813 
-118.142 -123.745 66.2401 -113.159 -127.138 72.7185 -113.867 -127.089 72.185 
-114.489 -126.97 71.3484 -115.139 -126.933 70.3408 -115.976 -126.635 69.2999 
-116.907 -125.953 68.2745 -117.83 -125.109 67.348 -118.678 -124.179 66.5784 
-112.833 -127.609 74.1812 -113.517 -127.743 73.7142 -114.283 -127.682 72.8141 
-115.007 -127.595 71.7821 -115.844 -127.347 70.838 -116.776 -126.801 69.8349 
-117.653 -126.134 68.6634 -118.469 -125.396 67.5947 -119.239 -124.495 66.8015 
-112.564 -127.697 75.1374 -112.915 -128.204 74.9364 -112.929 -128.121 75.7231 
-113.45 -128.806 75.1755 -114.031 -128.464 75.9036 -113.731 -128.435 74.1414 
-114.798 -129.133 75.1714 -115.81 -128.569 75.796 -114.423 -129.064 74.1616 
-114.695 -128.385 73.0189 -116.681 -128.993 75.1434 -117.692 -128.465 75.5207 
-115.814 -129.189 74.1504 -115.557 -128.859 72.9642 -115.719 -128.099 71.9962 
-118.481 -128.82 74.8339 -119.211 -128.413 74.9704 -117.579 -128.998 74.0181 
-116.898 -128.922 72.7307 -116.762 -128.383 71.8626 -116.803 -127.539 71.1099 
-119.955 -128.847 74.0084 -120.393 -128.301 74.1495 -119.333 -129.078 73.3837 
-118.501 -128.995 72.2107 -117.979 -128.557 71.3487 -117.863 -127.726 70.9128 
-117.761 -126.865 69.9988 -121.187 -128.638 73.1175 -121.451 -127.894 73.4424 
-120.905 -129.169 72.494 -120.209 -129.19 71.5644 -119.343 -128.696 70.8185 
-118.887 -127.876 70.4701 -118.728 -126.997 69.8256 -118.57 -126.211 68.6752 
-122.242 -128.098 72.5681 -122.468 -127.363 72.98 -122.141 -128.781 71.9006 
-121.743 -129.031 71.1226 -120.856 -128.599 70.5311 -120.044 -127.762 70.1747 
-119.686 -126.945 69.5875 -119.519 -126.215 68.5754 -119.354 -125.409 67.5636 
-123.156 -127.529 72.1291 -123.404 -126.918 72.4906 -123.021 -128.081 71.5388 
-122.8 -128.385 70.855 -122.185 -128.143 70.3037 -121.353 -127.407 69.8964 
-120.773 -126.629 69.3162 -120.493 -125.993 68.4199 -120.29 -125.285 67.4967 
-120.088 -124.417 66.7613 -112.767 -126.912 74.4839 -112.951 -127.252 75.4666 
-113.535 -126.506 74.5004 -113.956 -126.658 75.5551 -114.539 -126.151 74.2616 
-113.626 -127.441 76.1753 -115.133 -126.239 75.2923 -115.503 -125.89 73.6852 
-114.821 -126.669 76.3625 -115.02 -127.606 76.3862 -116.246 -126.001 74.4539 
-116.505 -125.543 72.7576 -116.084 -126.223 75.9193 -116.253 -126.763 76.503 
-116.879 -127.713 76.1095 -117.329 -125.633 73.2375 -117.477 -124.983 71.7035 
-117.286 -125.964 74.737 -117.513 -126.257 75.9023 -118.017 -126.912 76.1438 
-118.637 -127.77 75.6116 -118.215 -125.014 72.0565 -118.236 -124.266 70.6599 
-118.295 -125.484 73.4218 -118.622 -125.761 74.745 -119.106 -126.221 75.6699 
-119.591 -126.998 75.5964 -119.988 -127.769 74.8962 -118.879 -124.23 70.9154 
-118.893 -123.442 69.6204 -118.982 -124.783 72.2751 -119.344 -125.036 73.592 
-119.845 -125.353 74.7432 -120.329 -126.065 75.1815 -120.749 -126.912 74.7508 
-121.077 -127.509 74.0735 -119.5 -123.294 69.7728 -119.542 -122.521 68.6722 
-119.536 -123.968 71.0405 -119.816 -124.327 72.3704 -120.253 -124.507 73.5725 
-120.696 -125.001 74.2724 -121.222 -125.848 74.2487 -121.748 -126.566 73.8638 
-122.128 -127.005 73.4649 -120.089 -122.239 68.8043 -120.09 -121.562 67.8981 
-120.1 -122.963 69.8162 -120.297 -123.582 70.9483 -120.669 -123.924 72.1118 
[...]
CELL_DATA 2000
SCALARS Distance double
LOOKUP_TABLE default
170.779 170.747 171.198 172.091 170.811 171.23 172.171 172.582 173.476 
170.984 171.351 172.312 172.713 173.664 174.016 174.889 171.28 171.589 
172.544 172.899 173.878 174.242 175.18 175.476 176.359 171.687 171.948 
172.908 173.195 174.173 174.501 175.483 175.798 176.743 177.008 177.921 
172.196 172.412 173.39 173.623 174.607 174.87 175.871 176.156 177.135 
177.407 178.337 178.587 179.455 172.796 172.975 173.963 174.161 175.155 
175.368 176.37 176.61 177.596 177.837 178.755 178.984 179.823 180.044 
180.791 173.415 173.586 174.56 174.759 175.737 175.935 176.889 177.111 
178.047 178.291 179.174 179.397 180.196 180.392 181.11 181.288 181.924 
174.004 174.165 175.082 175.306 176.232 176.464 177.335 177.562 178.385 
178.648 179.454 179.735 180.496 180.733 181.418 181.599 182.211 182.358 
182.908 169.925 168.59 169.435 169.838 167.241 168.067 168.449 169.374 
169.865 165.881 166.684 167.013 167.951 168.459 169.447 170.026 164.559 
165.317 165.613 166.505 167.004 168.019 168.644 169.662 170.312 163.358 
164.057 164.373 165.17 165.653 166.595 167.23 168.263 168.966 169.996 
170.703 162.267 162.928 163.268 164.014 164.495 165.337 165.949 166.9 
167.623 168.655 169.439 170.457 171.224 161.273 161.883 162.226 162.949 
163.44 164.24 164.832 165.699 166.412 167.385 168.224 169.246 170.108 
171.068 171.862 160.475 160.979 161.35 161.987 162.519 163.248 163.863 
164.647 165.35 166.248 167.102 168.105 169.031 170.011 170.876 171.765 
172.529 159.985 160.351 160.798 161.292 161.904 162.493 163.175 163.815 
164.535 165.285 166.123 167.043 167.987 168.972 169.893 170.816 171.643 
172.467 173.192 159.997 160.68 160.447 160.881 161.88 161.403 161.8 
161.513 162.041 163.24 162.724 163.058 162.612 163.038 162.755 163.3 
164.54 164.03 164.327 163.87 164.22 163.835 164.287 164.035 164.629 
166.096 165.396 165.696 165.136 165.506 165.046 165.498 165.123 165.7 
165.458 166.201 168.016 167.161 167.464 166.699 167.111 166.478 166.984 
166.463 167.064 166.676 167.42 167.188 168.054 169.849 169.105 169.417 
168.631 169.053 168.298 168.816 168.134 168.738 168.187 168.915 168.536 
169.378 169.128 169.981 171.395 170.806 171.174 170.53 170.978 170.287 
170.783 170.067 170.617 169.968 170.65 170.147 170.952 170.562 171.374 
171.044 171.783 172.851 172.306 172.724 172.182 172.653 172.092 172.554 
171.936 172.375 171.772 172.32 171.846 172.559 172.167 172.906 172.502 
173.156 172.766 173.351 174.236 174.137 174.632 175.464 173.968 174.545 
175.398 175.821 176.547 173.604 174.275 175.116 175.661 176.357 176.819 
177.534 173.281 173.853 174.617 175.21 175.88 176.482 177.209 177.799 
178.607 173.32 173.678 174.403 174.771 175.425 175.943 176.708 177.373 
178.234 178.878 179.702 173.546 173.873 174.668 174.84 175.526 175.743 
176.525 176.973 177.863 178.459 179.318 179.917 180.713 173.652 174.083 
174.959 175.217 175.963 176.099 176.866 177.075 177.92 178.26 179.092 
179.553 180.376 180.937 181.773 173.697 174.154 175.067 175.441 176.221 
176.485 177.237 177.482 178.282 178.512 179.285 179.525 180.297 180.687 
181.533 182.058 182.874 173.806 174.233 175.165 175.541 176.332 176.638 
177.365 177.701 178.491 178.828 179.607 179.834 180.553 180.777 181.538 
181.904 182.686 183.131 183.782 174.618 175.805 175.354 175.657 176.892 
176.508 176.838 176.438 176.788 177.964 177.594 177.97 177.597 177.974 
177.564 177.879 179.126 178.748 179.179 178.771 179.167 178.742 179.067 
178.613 178.893 180.254 179.949 180.424 180.033 180.454 179.996 180.331 
179.827 180.117 179.636 179.934 181.297 181.053 181.565 181.242 181.69 
181.294 181.662 181.158 181.449 180.912 181.207 180.71 180.99 182.387 
182.135 182.685 182.359 182.809 182.463 182.857 182.454 182.758 182.258 
182.509 181.995 182.239 181.732 181.922 183.447 183.245 183.796 183.489 
183.9 183.546 183.907 183.564 183.883 183.481 183.709 183.237 183.418 
182.934 183.089 182.584 182.693 184.247 184.169 184.664 184.493 184.859 
184.574 184.871 184.559 184.86 184.527 184.774 184.358 184.517 184.049 
184.171 183.694 183.791 183.294 183.362 184.728 185.482 185.139 185.152 
186.334 185.92 185.942 185.518 185.396 187.377 186.87 186.854 186.341 
186.213 185.692 185.453 188.424 187.937 187.86 187.286 187.089 186.528 
186.292 185.737 185.457 189.273 188.904 188.803 188.248 187.962 187.377 
187.093 186.568 186.287 185.73 185.38 189.826 189.632 189.601 189.142 
188.847 188.222 187.863 187.318 187.016 186.509 186.137 185.564 185.118 
190.08 190.051 190.141 189.885 189.704 189.125 188.717 188.079 187.687 
187.169 186.782 186.257 185.784 185.218 184.74 190.193 190.223 190.372 
190.32 190.275 189.916 189.532 188.912 188.381 187.795 187.319 186.824 
186.349 185.834 185.331 184.803 184.332 190.286 190.309 190.405 190.439 
190.408 190.297 189.965 189.559 188.96 188.402 187.792 187.295 186.777 
186.325 185.826 185.347 184.846 184.359 183.886 184.596 184.707 184.868 
185.343 184.947 185.035 185.492 185.64 186.193 185.214 185.32 185.777 
185.861 186.405 186.59 187.238 185.35 185.558 186.051 186.165 186.677 
186.833 187.456 187.677 188.304 185.283 185.613 186.131 186.36 186.874 
187.077 187.661 187.884 188.484 188.682 189.172 184.986 185.432 185.939 
186.307 186.805 187.142 187.704 188.021 188.579 188.819 189.257 189.412 
189.706 184.498 185.014 185.494 185.973 186.415 186.88 187.351 187.838 
188.323 188.747 189.125 189.395 189.622 189.779 189.927 183.92 184.439 
184.873 185.412 185.819 186.344 186.721 187.264 187.633 188.204 188.541 
189.038 189.278 189.593 189.739 189.917 190.04 183.322 183.81 184.171 
184.715 185.099 185.664 186.034 186.566 186.886 187.409 187.715 188.275 
188.584 189.09 189.338 189.672 189.843 190.033 190.163 174.217 175.349 
175.064 175.586 176.448 176.185 176.649 176.335 176.705 177.455 177.211 
177.655 177.356 177.707 177.371 177.725 178.507 178.219 178.712 178.392 
178.836 178.451 178.872 178.483 178.913 179.645 179.339 179.896 179.558 
180.101 179.699 180.187 179.745 180.194 179.751 180.107 180.702 180.47 
181.032 180.765 181.313 180.987 181.462 181.064 181.471 181.042 181.38 
180.888 181.106 181.586 181.44 181.979 181.803 182.33 182.108 182.569 
182.249 182.629 182.249 182.588 182.147 182.412 181.864 182.072 182.32 
182.241 182.776 182.66 183.199 183.045 183.548 183.294 183.708 183.362 
183.716 183.322 183.617 183.148 183.377 182.85 183.097 182.895 182.894 
183.431 183.392 183.939 183.862 184.392 184.232 184.676 184.405 184.749 
184.406 184.663 184.268 184.447 184.024 184.196 183.797 184.036 173.476 
172.626 173.558 174.583 171.72 172.663 173.735 174.722 175.751 170.86 
171.762 172.853 173.882 175.047 175.928 176.868 170.072 170.935 172.048 
173.064 174.324 175.278 176.378 177.087 177.962 169.4 170.19 171.318 
172.313 173.621 174.617 175.81 176.617 177.59 178.226 179.077 168.958 
169.598 170.68 171.611 172.936 173.952 175.193 176.055 177.067 177.795 
178.683 179.329 180.129 168.769 169.244 170.192 170.989 172.256 173.273 
174.575 175.479 176.529 177.255 178.142 178.843 179.678 180.318 181.037 
168.738 169.102 169.898 170.514 171.617 172.563 173.871 174.867 176.011 
176.77 177.654 178.301 179.12 179.797 180.567 181.167 181.795 168.772 
169.085 169.801 170.25 171.179 171.93 173.125 174.12 175.33 176.225 
177.17 177.84 178.613 179.246 180.004 180.648 181.323 181.87 182.395 
169.025 169.865 169.637 170.1 170.882 170.6 171.114 170.841 171.471 
171.987 171.7 172.288 171.985 172.675 172.435 173.337 173.21 172.885 
173.551 173.241 173.977 173.714 174.604 174.467 175.465 174.601 174.223 
174.92 174.574 175.3 175.013 175.821 175.675 176.572 176.498 177.308 
175.958 175.625 176.28 175.953 176.614 176.307 177.014 176.815 177.615 
177.518 178.293 178.157 178.791 177.126 176.862 177.457 177.207 177.833 
177.567 178.245 177.999 178.763 178.577 179.355 179.167 179.842 179.603 
180.182 178.211 177.95 178.531 178.301 178.96 178.742 179.477 179.245 
180.02 179.783 180.53 180.286 180.932 180.675 181.224 180.97 181.467 
179.278 179.029 179.622 179.384 180.064 179.87 180.63 180.454 181.208 
181.005 181.662 181.423 181.952 181.704 182.147 181.923 182.334 182.131 
182.512 180.044 181.403 180.629 180.455 182.849 182.056 181.922 181.096 
180.942 184.294 183.511 183.373 182.577 182.449 181.64 181.521 185.698 
184.945 184.782 183.993 183.832 183.083 182.961 182.208 182.07 187.004 
186.324 186.209 185.42 185.232 184.433 184.252 183.529 183.355 182.65 
182.444 188.177 187.578 187.514 186.824 186.664 185.861 185.628 184.818 
184.566 183.826 183.569 182.892 182.639 189.181 188.673 188.561 187.999 
187.802 187.156 186.879 186.153 185.834 185.057 184.721 183.972 183.67 
183.014 182.77 189.866 189.519 189.338 188.888 188.6 188.075 187.719 
187.168 186.82 186.212 185.853 185.139 184.777 184.058 183.772 183.141 
182.928 190.16 189.985 189.798 189.498 189.208 188.76 188.384 187.868 
187.509 187.011 186.694 186.144 185.803 185.15 184.816 184.157 183.895 
183.298 183.085 180.044 180.398 180.603 181.377 180.763 180.967 181.802 
182.007 182.825 181.289 181.411 182.26 182.448 183.338 183.511 184.318 
181.909 182.017 182.811 182.932 183.801 184.019 184.897 185.022 185.751 
182.291 182.559 183.28 183.425 184.185 184.441 185.346 185.585 186.394 
186.435 187.061 182.272 182.733 183.433 183.713 184.402 184.731 185.666 
186.027 186.979 187.106 187.815 187.728 188.269 182.031 182.567 183.302 
183.707 184.429 184.844 185.816 186.309 187.383 187.691 188.508 188.504 
189.047 188.899 189.315 181.786 182.3 183.073 183.54 184.332 184.817 
185.782 186.366 187.403 187.926 188.727 189.001 189.491 189.542 189.861 
189.782 189.996 181.592 182.066 182.827 183.32 184.122 184.667 185.574 
186.203 187.095 187.71 188.36 188.854 189.242 189.606 189.856 190.06 
190.211 190.225 190.269 179.284 178.193 179.036 179.591 176.945 177.864 
178.43 179.313 179.916 175.597 176.541 177.102 178.072 178.704 179.665 
180.39 174.25 175.161 175.652 176.649 177.224 178.309 179.026 180.147 
180.938 172.872 173.782 174.191 175.15 175.611 176.688 177.275 178.529 
179.28 180.569 181.272 171.392 172.328 172.711 173.664 174.091 175.079 
175.582 176.701 177.345 178.671 179.4 180.714 181.271 169.967 170.829 
171.212 172.157 172.632 173.613 174.18 175.16 175.788 176.853 177.552 
178.774 179.444 180.63 181.094 168.815 169.521 169.894 170.722 171.214 
172.179 172.817 173.837 174.533 175.504 176.177 177.16 177.819 178.883 
179.471 180.497 180.92 167.915 168.514 168.887 169.561 170.029 170.854 
171.473 172.472 173.197 174.239 174.93 175.898 176.513 177.452 178.033 
178.988 179.504 180.41 180.801 167.577 167.485 167.87 168.582 167.517 
167.86 168.613 168.949 169.722 167.638 167.954 168.755 169.071 169.904 
170.219 171.145 167.815 168.109 168.968 169.298 170.219 170.509 171.476 
171.798 172.851 168.108 168.339 169.246 169.58 170.591 170.9 171.898 
172.185 173.217 173.562 174.599 168.605 168.747 169.68 169.947 170.997 
171.306 172.331 172.614 173.615 173.93 174.952 175.276 176.222 169.243 
169.351 170.294 170.48 171.493 171.743 172.744 173.023 174.012 174.321 
175.333 175.649 176.626 176.875 177.747 169.89 170.015 170.938 171.109 
172.047 172.245 173.156 173.406 174.344 174.671 175.664 176.017 176.995 
177.288 178.175 178.384 179.186 170.503 170.632 171.503 171.683 172.548 
172.74 173.571 173.79 174.644 174.949 175.871 176.259 177.194 177.577 
178.445 178.75 179.529 179.755 180.465 171.131 172.411 171.869 172.112 
173.746 173.171 173.388 172.871 173.126 175.125 174.522 174.734 174.175 
174.427 173.896 174.149 176.591 175.944 176.184 175.577 175.865 175.274 
175.554 174.96 175.237 178.173 177.492 177.759 177.097 177.413 176.787 
177.093 176.451 176.732 176.113 176.441 179.727 179.111 179.399 178.728 
179.035 178.381 178.697 178.034 178.309 177.649 177.955 177.366 177.73 
181.057 180.582 180.888 180.321 180.615 180.001 180.317 179.667 179.962 
179.267 179.554 178.902 179.242 178.659 178.991 182.168 181.798 182.115 
181.68 181.975 181.478 181.785 181.238 181.545 180.918 181.194 180.525 
180.812 180.182 180.479 179.871 180.104 183.144 182.839 183.167 182.814 
183.12 182.717 183.012 182.577 182.864 182.378 182.629 182.071 182.294 
181.705 181.928 181.333 181.527 180.907 181.04 181.724 182.253 182.315 
182.944 182.699 182.829 183.54 183.592 184.277 183.067 183.248 184.013 
184.174 184.975 185.025 185.777 183.372 183.587 184.347 184.592 185.426 
185.647 186.444 186.523 187.21 183.594 183.852 184.597 184.877 185.679 
185.983 186.726 186.966 187.566 187.732 188.266 183.733 184.028 184.765 
185.076 185.84 186.162 186.864 187.124 187.668 187.871 188.35 188.58 
189.062 183.813 184.131 184.842 185.179 185.892 186.241 186.928 187.228 
187.828 188.008 188.532 188.671 189.189 189.35 189.78 183.825 184.165 
184.831 185.189 185.838 186.203 186.842 187.217 187.877 188.189 188.82 
188.984 189.519 189.585 189.992 190.026 190.252 183.758 184.111 184.726 
185.105 185.703 186.078 186.652 187.05 187.672 188.124 188.801 189.186 
189.751 189.92 190.246 190.251 190.38 190.347 190.349 159.662 160.182 
159.735 159.474 160.997 160.411 160.109 159.619 159.409 161.985 161.326 
161.007 160.377 160.11 159.631 159.61 163.101 162.389 162.075 161.353 
161.077 160.464 160.423 160.047 160.358 164.391 163.632 163.414 162.569 
162.337 161.567 161.552 161.021 161.322 161.034 161.569 165.773 165.043 
164.986 164.116 164.017 163.083 163.125 162.364 162.675 162.164 162.645 
162.337 162.912 167.104 166.44 166.456 165.733 165.747 164.901 164.98 
164.137 164.404 163.702 164.118 163.572 164.055 163.703 164.279 168.412 
167.753 167.758 167.125 167.153 166.499 166.561 165.888 166.057 165.416 
165.71 165.114 165.488 164.974 165.433 165.089 165.646 169.748 169.08 
169.093 168.429 168.455 167.811 167.853 167.257 167.37 166.842 167.056 
166.565 166.853 166.371 166.72 166.295 166.716 166.412 166.887 159.446 
159.228 159.273 159.329 159.177 159.141 159.242 159.386 159.779 159.437 
159.227 159.405 159.457 159.952 160.131 160.771 160.257 159.773 159.972 
159.814 160.365 160.451 161.131 161.272 161.937 161.511 160.876 161.058 
160.638 161.12 161.005 161.668 161.707 162.348 162.435 163.073 162.878 
162.246 162.46 161.908 162.309 161.941 162.523 162.365 163.009 162.952 
163.589 163.622 164.318 164.259 163.649 163.932 163.375 163.782 163.268 
163.767 163.389 163.99 163.768 164.405 164.282 164.941 164.943 165.651 
165.62 165.044 165.332 164.831 165.232 164.741 165.158 164.698 165.168 
164.837 165.382 165.172 165.738 165.629 166.229 166.248 166.877 166.84 
166.339 166.562 166.131 166.449 166.052 166.372 165.97 166.297 165.956 
166.364 166.121 166.583 166.411 166.901 166.828 167.37 167.399 167.949 
159.673 159.598 159.769 160.327 160.038 159.915 160.44 160.681 161.512 
160.978 160.598 161.008 160.974 161.721 162.017 162.901 162.129 161.672 
161.993 161.71 162.281 162.327 163.124 163.402 164.249 163.296 162.851 
163.204 162.803 163.282 163.043 163.736 163.771 164.68 164.881 165.871 
164.545 164.072 164.487 164.065 164.575 164.193 164.851 164.633 165.559 
165.57 166.679 166.779 167.858 165.862 165.381 165.777 165.357 165.85 
165.491 166.114 165.856 166.699 166.62 167.655 167.703 168.734 168.79 
169.692 167.076 166.657 166.996 166.596 166.991 166.665 167.181 166.989 
167.688 167.655 168.502 168.582 169.451 169.556 170.356 170.437 171.184 
168.122 167.77 168.073 167.717 168.05 167.723 168.157 167.941 168.544 
168.483 169.221 169.273 170.048 170.147 170.916 171.021 171.787 171.869 
172.626 178.825 177.754 178.119 177.734 176.624 176.991 176.559 176.937 
176.477 175.381 175.783 175.291 175.699 175.211 175.611 175.135 173.981 
174.429 173.916 174.376 173.893 174.32 173.851 174.266 173.817 172.606 
172.999 172.503 172.973 172.518 172.978 172.498 172.944 172.467 172.924 
172.446 171.408 171.702 171.185 171.593 171.121 171.575 171.046 171.509 
170.955 171.466 170.945 171.468 170.957 170.317 170.556 169.974 170.309 
169.773 170.177 169.607 170.021 169.431 169.902 169.386 169.918 169.463 
169.98 169.553 169.323 169.493 168.878 169.12 168.556 168.874 168.33 
168.658 168.129 168.487 168.052 168.48 168.133 168.584 168.261 168.712 
168.421 168.518 168.589 167.99 168.11 167.562 167.766 167.277 167.523 
167.072 167.349 166.982 167.327 167.045 167.422 167.147 167.534 167.267 
167.703 167.499 
POINT_DATA 1002
SCALARS Distance double
LOOKUP_TABLE default
171.645 170.4 170.294 171.656 170.292 172.975 171.743 170.401 173.116 
174.338 171.913 170.639 173.283 174.596 175.736 172.217 170.988 173.505 
174.849 176.099 177.245 172.644 171.431 173.866 175.152 176.451 177.683 
178.84 173.165 171.994 174.364 175.596 176.869 178.091 179.242 180.286 
173.77 172.629 174.958 176.147 177.371 178.554 179.624 180.608 181.482 
174.362 173.256 175.553 176.705 177.821 178.954 180.018 180.95 181.777 
182.515 174.88 173.88 176.008 177.14 178.165 179.174 180.237 181.236 
182.073 182.786 183.425 169.083 168.928 167.76 167.515 166.449 168.904 
166.089 165.106 167.436 169.039 164.759 163.813 165.993 167.584 169.311 
163.602 162.663 164.76 166.21 167.897 169.693 162.521 161.619 163.683 
165.045 166.596 168.379 170.249 161.511 160.692 162.647 163.995 165.458 
167.183 169.112 170.965 160.737 159.998 161.805 163.106 164.492 166.104 
168.022 169.96 171.704 160.322 159.639 161.338 162.571 163.851 165.264 
167.004 168.936 170.785 172.442 160.034 160.988 161.025 162.201 162.42 
162.217 163.557 163.747 163.421 163.481 164.792 165.084 164.636 164.607 
164.775 166.314 166.891 165.985 165.9 165.99 166.339 168.279 168.879 
167.799 167.55 167.503 167.7 168.224 170.158 170.512 169.816 169.546 
169.352 169.359 169.687 170.226 171.747 171.926 171.618 171.5 171.305 
171.198 171.397 171.774 172.125 173.246 173.385 173.183 173.161 173.008 
172.819 172.95 173.336 173.612 173.735 175.098 175.067 176.232 174.962 
176.169 177.242 174.533 175.858 177.048 178.316 174.082 175.243 176.545 
178.038 179.473 174.142 174.994 176.044 177.541 179.127 180.51 174.476 
175.391 176.197 177.338 178.714 180.117 181.514 174.619 175.789 176.713 
177.694 178.733 179.832 181.183 182.626 174.666 175.92 176.959 178.044 
179.114 180.012 181.05 182.369 183.631 174.792 176.041 177.038 178.103 
179.33 180.38 181.271 182.297 183.394 184.322 176.089 177.207 177.222 
178.338 178.368 178.336 179.593 179.61 179.526 179.343 180.784 180.9 
180.855 180.616 180.395 181.868 182.045 182.13 182.006 181.728 181.501 
183.025 183.166 183.217 183.229 183.044 182.759 182.462 184.088 184.279 
184.257 184.249 184.175 183.913 183.586 183.222 184.792 185.114 185.187 
185.173 185.16 184.99 184.652 184.279 183.877 185.073 185.553 185.822 
186.386 186.797 185.889 187.428 187.911 186.751 186.002 188.475 188.891 
187.683 186.836 186.041 189.349 189.584 188.59 187.617 186.83 185.992 
189.967 189.93 189.492 188.465 187.512 186.709 185.715 190.26 190.053 
190.202 189.426 188.264 187.289 186.351 185.291 190.36 190.17 190.501 
190.125 189.049 187.834 186.836 185.863 184.843 190.4 190.29 190.46 
190.267 189.506 188.327 187.218 186.281 185.338 184.359 184.395 185.136 
184.593 185.379 184.872 185.963 185.712 185.062 186.244 187.011 185.904 
185.087 186.542 187.246 188.115 185.852 184.912 186.64 187.445 188.296 
189.046 185.536 184.512 186.433 187.346 188.326 189.12 189.609 184.996 
183.988 185.953 186.864 187.846 188.8 189.46 189.802 184.338 183.439 
185.29 186.219 187.085 187.969 188.857 189.519 189.9 183.656 182.873 
184.522 185.488 186.399 187.176 188.002 188.897 189.599 190.031 174.477 
175.929 175.646 176.984 176.718 177.041 177.937 177.715 178.047 178.039 
179.008 178.802 179.196 179.271 179.311 180.211 179.926 180.475 180.635 
180.659 180.616 181.278 180.905 181.613 181.855 181.901 181.856 181.671 
182.141 181.716 182.523 182.859 182.996 182.994 182.917 182.652 182.869 
182.377 183.322 183.756 184.032 184.102 184.057 183.878 183.604 172.569 
173.632 171.678 172.681 170.801 174.895 171.805 169.976 174.073 176.179 
171.026 169.216 173.315 175.587 177.373 170.331 168.656 172.6 174.952 
176.896 178.505 169.808 168.41 171.904 174.307 176.323 177.988 179.56 
169.513 168.385 171.256 173.611 175.811 177.458 178.985 180.494 169.408 
168.422 170.773 172.824 175.181 177.045 178.464 179.914 181.296 169.426 