# vtk DataFile Version 4.0
vtk output
ASCII
DATASET POLYDATA
POINTS 1002 float
-120.082 -113.375 51.0556 -119.793 -112.46 49.8052 -119.346 -112.719 50.0085 
-119.671 -113.63 51.4948 -118.739 -112.883 50.5737 -120.273 -114.53 52.3258 
-119.026 -113.915 52.1575 -118.042 -113.171 51.2501 -119.817 -114.936 52.8283 
-120.292 -115.831 53.6473 -118.261 -114.562 52.6562 -117.475 -113.816 51.7402 
-119.113 -115.469 53.4293 -119.708 -116.388 54.2624 -120.177 -117.096 55.3651 
-117.655 -115.52 53.0251 -117.036 -114.676 52.22 -118.343 -116.254 53.991 
-118.985 -116.944 55.1006 -119.47 -117.638 56.3197 -119.969 -118.315 57.4365 
-117.115 -116.313 53.7875 -116.504 -115.481 52.9706 -117.657 -117.003 54.8361 
-118.253 -117.503 56.1577 -118.738 -118.159 57.4527 -119.164 -119.003 58.4318 
-119.637 -119.846 59.1295 -116.411 -116.88 54.9393 -115.885 -116.215 53.9457 
-116.874 -117.546 56.0707 -117.44 -118.101 57.3527 -117.962 -118.835 58.5393 
-118.322 -119.868 59.3177 -118.695 -120.878 59.8165 -119.132 -121.689 60.3372 
-115.657 -117.514 56.0629 -115.294 -116.931 55.0207 -116.017 -118.157 57.2431 
-116.5 -118.864 58.3915 -117.047 -119.753 59.3812 -117.445 -120.854 60.0862 
-117.755 -121.896 60.5583 -118.128 -122.687 61.0471 -118.545 -123.282 61.6278 
-114.984 -118.228 57.0359 -114.702 -117.591 56.0854 -115.31 -118.916 58.1615 
-115.698 -119.718 59.2348 -116.147 -120.685 60.1139 -116.567 -121.723 60.8592 
-116.939 -122.628 61.5217 -117.318 -123.34 62.09 -117.702 -123.927 62.5997 
-118.071 -124.416 63.0549 -114.361 -118.884 57.913 -114.096 -118.179 57.0266 
-114.713 -119.631 58.9638 -115.097 -120.445 60.0421 -115.454 -121.373 60.9724 
-115.795 -122.324 61.7652 -116.191 -123.094 62.5558 -116.656 -123.695 63.2791 
-117.1 -124.283 63.7819 -117.46 -124.856 64.1034 -117.773 -125.318 64.3483 
-119.201 -111.984 48.5164 -118.575 -112.26 48.6775 -118.563 -111.66 47.1687 
-117.835 -111.871 47.3902 -117.92 -111.048 46.2056 -117.895 -112.397 49.264 
-117.179 -111.05 46.6134 -117.152 -109.84 45.7573 -117.231 -111.856 48.0794 
-117.317 -112.568 50.0522 -116.378 -109.824 46.236 -116.223 -108.488 45.378 
-116.617 -110.925 47.4154 -116.711 -111.867 49.0581 -116.814 -113.049 50.8036 
-115.447 -108.771 45.9057 -115.38 -107.45 45.0305 -115.804 -109.928 47.0182 
-115.981 -111.056 48.4328 -115.951 -112.345 50.0046 -116.191 -113.889 51.4901 
-114.687 -107.915 45.8542 -114.795 -106.58 45.1839 -114.969 -109.122 46.7547 
-115.23 -110.283 47.9897 -115.048 -111.702 49.347 -115.074 -113.308 50.7276 
-115.571 -114.869 52.2287 -114.102 -107.026 46.1632 -114.298 -105.766 45.7479 
-114.234 -108.282 46.7911 -114.587 -109.421 47.8194 -114.523 -110.793 48.9958 
-114.315 -112.545 50.168 -114.66 -114.291 51.5637 -115.173 -115.744 53.2412 
-113.508 -106.247 46.5015 -113.68 -105.104 46.3082 -113.521 -107.49 46.9523 
-113.841 -108.606 47.8802 -114.065 -109.741 49.0295 -114.032 -111.325 50.0833 
-114.226 -113.273 51.2926 -114.644 -115.064 52.836 -114.816 -116.46 54.4967 
-112.922 -105.69 46.857 -112.993 -104.625 46.8198 -112.931 -106.922 47.1893 
-113.107 -108.098 48.0362 -113.371 -109.104 49.1915 -113.621 -110.285 50.2336 
-113.975 -112.016 51.2954 -114.358 -114.027 52.6812 -114.465 -115.768 54.2165 
-114.294 -117.093 55.6673 -112.422 -104.937 47.466 -112.531 -106.164 47.6606 
-112.271 -105.498 48.6372 -112.445 -106.836 49.2089 -112.283 -106.305 50.3582 
-112.64 -107.526 48.3461 -112.198 -107.685 51.1616 -111.954 -107.395 52.1237 
-112.422 -108.274 50.1472 -112.731 -108.75 49.4336 -111.695 -108.76 52.8512 
-111.608 -108.669 53.7036 -112.061 -109.093 51.9629 -112.432 -109.542 51.0067 
-112.966 -109.816 50.4448 -111.792 -109.957 54.2556 -112.031 -109.835 55.2005 
-112.014 -110.075 53.4136 -112.447 -110.395 52.4243 -112.92 -110.795 51.6293 
-113.511 -111.227 51.3737 -112.824 -111.196 55.4905 -113.152 -110.983 56.3092 
-112.799 -111.343 54.6875 -113.011 -111.509 53.8447 -113.253 -111.961 52.9941 
-113.606 -112.566 52.6166 -114.054 -113.228 52.6795 -114.001 -112.668 56.4502 
-114.325 -112.465 56.8888 -113.85 -112.919 55.8623 -113.749 -113.058 55.3392 
-113.565 -113.357 54.7639 -113.487 -114.017 54.2325 -113.731 -114.711 54.1282 
-114.126 -115.271 54.2468 -114.681 -114.289 57.4106 -115.116 -114.113 57.4943 
-114.383 -114.555 57.0896 -114.057 -114.74 56.8315 -113.533 -114.886 56.6549 
-113.051 -115.343 56.2199 -113.003 -116.032 55.7526 -113.361 -116.552 55.6511 
-113.84 -116.862 55.7063 -114.839 -115.661 58.6762 -115.404 -115.486 58.5437 
-114.359 -115.877 58.5667 -113.89 -116.083 58.4208 -113.258 -116.224 58.4104 
-112.602 -116.491 58.1943 -112.345 -117.041 57.6072 -112.587 -117.603 57.1403 
-113.066 -117.925 57.0427 -113.586 -118.081 57.0587 -113.654 -119.244 58.4684 
-113.109 -119.196 58.5371 -113.235 -120.483 60.1273 -112.595 -119.023 58.597 
-112.69 -120.473 60.3066 -112.746 -121.825 61.8918 -112.137 -118.612 58.865 
-112.196 -120.235 60.439 -112.162 -121.819 62.1498 -112.21 -123.159 63.5647 
-111.98 -118.038 59.4653 -111.821 -119.76 60.706 -111.662 -121.51 62.2919 
-111.545 -123.107 63.8977 -111.643 -124.493 65.1991 -112.359 -117.584 59.9849 
-111.857 -119.246 61.2249 -111.479 -121.065 62.5399 -111.049 -122.736 64.1928 
-110.876 -124.356 65.6789 -110.848 -125.824 66.8438 -113.024 -117.304 60.1222 
-112.321 -118.807 61.6628 -111.803 -120.668 63.0056 -111.108 -122.347 64.6031 
-110.467 -123.871 66.2066 -110.121 -125.498 67.3788 -109.937 -126.89 68.3419 
-113.637 -117.065 60.1648 -112.88 -118.392 61.7977 -112.332 -120.218 63.2991 
-111.668 -122.039 64.9591 -110.782 -123.454 66.6623 -110.036 -124.851 67.91 
-109.564 -126.301 68.8242 -109.343 -127.496 69.7725 -114.229 -116.857 60.2312 
-113.462 -118.062 61.7933 -112.858 -119.706 63.2363 -112.291 -121.593 64.9065 
-111.503 -123.143 66.7545 -110.643 -124.404 68.2024 -109.934 -125.626 69.2119 
-109.422 -126.769 70.2331 -109.168 -127.797 71.3114 -114.884 -116.679 60.1239 
-114.14 -117.849 61.7027 -113.493 -119.314 63.0307 -112.928 -121.061 64.5369 
-112.228 -122.679 66.4342 -111.437 -124.053 68.1419 -110.713 -125.254 69.3508 
-110.06 -126.224 70.4672 -109.519 -127.078 71.7132 -109.225 -127.979 72.8043 
-113.977 -120.082 59.5235 -113.53 -121.403 61.2928 -114.386 -120.924 60.6795 
-112.988 -122.772 63.0485 -113.911 -122.254 62.509 -114.777 -121.804 61.8215 
-112.441 -124.188 64.7246 -113.321 -123.666 64.2489 -114.268 -123.176 63.6611 
-115.089 -122.757 62.7787 -111.722 -125.656 66.4548 -112.642 -125.17 65.9671 
-113.618 -124.709 65.3125 -114.584 -124.189 64.5171 -115.442 -123.596 63.5905 
-110.719 -126.996 68.1095 -111.753 -126.573 67.7645 -112.843 -126.159 67.0411 
-113.921 -125.753 66.0712 -114.986 -125.004 65.2246 -115.942 -124.207 64.381 
-109.834 -127.954 69.5781 -110.835 -127.761 69.3266 -112.046 -127.289 68.8124 
-113.183 -126.959 67.8678 -114.314 -126.438 66.8178 -115.519 -125.566 65.9456 
-116.499 -124.783 64.9889 -109.359 -128.513 71.0884 -110.155 -128.717 70.6554 
-111.368 -128.347 70.139 -112.571 -127.863 69.4954 -113.645 -127.425 68.5941 
-114.86 -126.816 67.5376 -116.108 -126.073 66.4548 -116.968 -125.405 65.3021 
-109.219 -128.813 72.6383 -109.749 -129.347 72.0391 -110.803 -129.298 71.2272 
-112.06 -128.85 70.5198 -113.197 -128.29 69.8976 -114.312 -127.694 69.0714 
-115.558 -127.106 67.9545 -116.649 -126.53 66.7037 -117.327 -125.928 65.4751 
-109.332 -128.632 74.0646 -109.532 -129.468 73.6283 -109.844 -129.111 74.793 
-110.333 -129.71 74.091 -110.951 -129.161 74.923 -110.282 -129.826 72.6779 
-111.764 -129.426 74.1691 -112.52 -128.949 74.8409 -111.315 -129.817 73.0463 
-111.501 -129.684 71.6029 -113.524 -129.13 74.1706 -114.239 -128.92 74.903 
-112.911 -129.489 73.3194 -112.66 -129.755 71.9664 -112.856 -129.259 70.7699 
-115.216 -129.224 74.1643 -115.966 -129.099 74.9974 -114.63 -129.366 73.4005 
-114.216 -129.64 72.2898 -114.067 -129.432 71 -114.108 -128.571 70.0797 
-116.815 -129.511 73.9801 -117.526 -129.216 74.7208 -116.203 -129.613 73.1094 
-115.748 -129.623 72.2037 -115.46 -129.357 71.1061 -115.319 -128.638 70.1325 
-115.331 -127.826 69.1782 -118.256 -129.686 73.4529 -118.716 -129.154 73.9545 
-117.735 -129.996 72.5454 -117.219 -129.907 71.637 -116.786 -129.386 70.8104 
-116.516 -128.621 70.0232 -116.415 -127.892 69.1226 -116.476 -127.269 67.9365 
-119.392 -129.536 72.6688 -119.639 -128.881 73.0112 -119.062 -130.061 71.8977 
-118.614 -130.175 70.982 -118.1 -129.686 70.1938 -117.676 -128.855 69.5482 
-117.427 -128.065 68.8146 -117.317 -127.416 67.7564 -117.301 -126.743 66.5448 
-120.296 -129.022 71.8709 -120.498 -128.417 72.1858 -120.032 -129.536 71.2583 
-119.657 -129.813 70.4721 -119.2 -129.639 69.661 -118.782 -129.064 68.8991 
-118.464 -128.338 68.1599 -118.199 -127.601 67.2848 -117.979 -126.864 66.2518 
-117.841 -126.098 65.2491 -109.567 -127.526 73.4878 -109.713 -128.001 74.7271 
-110.14 -127.045 73.7977 -110.401 -127.21 74.9216 -110.961 -126.563 73.6293 
-110.38 -128.306 75.3366 -111.42 -126.536 74.6009 -112.093 -126.149 72.9778 
-111.241 -127.313 75.4974 -111.644 -128.346 75.4449 -112.704 -126.159 73.806 
-113.386 -125.734 72.0637 -112.439 -126.582 75.1563 -112.648 -127.384 75.742 
-113.304 -128.341 75.5292 -113.973 -125.737 72.8021 -114.544 -125.103 71.1375 
-113.768 -126.186 74.3141 -113.986 -126.643 75.4048 -114.47 -127.506 75.9144 
-115.196 -128.496 75.6958 -115.086 -124.989 71.707 -115.533 -124.28 70.1636 
-114.912 -125.64 73.2456 -115.235 -126.1 74.4886 -115.796 -126.675 75.3987 
-116.421 -127.686 75.7938 -117.026 -128.646 75.5075 -116.158 -124.146 70.4756 
-116.483 -123.467 69.1039 -115.943 -124.85 71.9508 -116.144 -125.481 73.3019 
-116.708 -125.988 74.3187 -117.364 -126.742 74.9284 -117.941 -127.772 75.0469 
-118.358 -128.604 74.6966 -117.187 -123.38 69.2606 -117.365 -122.725 68.0346 
-117.022 -124.031 70.5333 -117.045 -124.732 71.8309 -117.361 -125.368 72.9777 
-117.878 -125.953 73.7348 -118.433 -126.737 74.0008 -118.893 -127.634 73.9236 
-119.264 -128.365 73.6116 -118.051 -122.671 68.1218 -118.105 -122.025 66.962 
-118.021 -123.232 69.2777 -118.046 -123.841 70.3866 -118.186 -124.57 71.4482 
[...]
CELL_DATA 2000
SCALARS Distance double
LOOKUP_TABLE default
171.053 170.981 171.446 172.286 170.882 171.382 172.306 172.744 173.587 
170.931 171.35 172.322 172.777 173.692 174.063 174.882 171.244 171.542 
172.509 172.87 173.813 174.18 175.041 175.372 176.192 171.652 171.926 
172.854 173.138 174.04 174.354 175.231 175.552 176.406 176.714 177.546 
172.002 172.284 173.152 173.447 174.297 174.604 175.479 175.792 176.679 
176.971 177.828 178.094 178.898 172.364 172.592 173.408 173.687 174.524 
174.838 175.733 176.066 176.986 177.286 178.152 178.402 179.186 179.416 
180.128 172.755 172.946 173.737 173.971 174.824 175.099 176.016 176.335 
177.271 177.589 178.455 178.719 179.48 179.698 180.378 180.578 181.185 
173.097 173.304 174.084 174.326 175.186 175.451 176.354 176.644 177.542 
177.849 178.684 178.972 179.716 179.961 180.632 180.831 181.439 181.593 
182.127 170.299 169.18 169.864 170.152 168.083 168.732 168.937 169.674 
170.001 166.819 167.575 167.767 168.48 168.768 169.554 170.015 165.294 
166.193 166.461 167.279 167.582 168.359 168.791 169.662 170.281 163.81 
164.675 165.046 165.932 166.319 167.15 167.56 168.424 168.994 169.98 
170.669 162.671 163.37 163.801 164.612 165.091 165.911 166.353 167.17 
167.688 168.647 169.346 170.381 171.083 161.815 162.385 162.777 163.495 
163.989 164.774 165.256 166.014 166.52 167.376 168.087 169.098 169.921 
170.871 171.562 161.061 161.565 161.875 162.517 162.967 163.722 164.221 
164.969 165.486 166.278 166.991 167.944 168.853 169.819 170.644 171.436 
172.048 160.386 160.829 161.136 161.678 162.139 162.786 163.326 164.006 
164.559 165.29 166.001 166.91 167.85 168.84 169.755 170.593 171.27 
171.932 172.434 160.169 160.46 160.478 161.003 161.298 161.053 161.553 
161.485 162.079 162.328 162.017 162.458 162.239 162.748 162.656 163.256 
163.347 162.994 163.375 163.15 163.597 163.414 163.909 163.843 164.466 
164.672 164.103 164.474 164.098 164.584 164.308 164.844 164.629 165.285 
165.189 165.992 166.456 165.698 166.147 165.491 166.064 165.533 166.186 
165.774 166.537 166.264 167.17 166.994 167.944 168.431 167.66 168.195 
167.439 168.042 167.322 167.949 167.343 168.05 167.655 168.496 168.283 
169.176 169.011 169.833 170.31 169.626 170.124 169.463 169.978 169.311 
169.766 169.122 169.574 169.106 169.688 169.472 170.166 170.082 170.76 
170.674 171.273 171.885 171.332 171.676 171.152 171.49 170.975 171.248 
170.704 170.929 170.441 170.772 170.486 170.997 170.894 171.477 171.428 
171.976 171.908 172.405 173.059 172.657 173.243 174.056 172.196 172.827 
173.693 174.337 175.243 171.739 172.354 173.242 173.949 174.904 175.553 
176.448 171.512 171.968 172.826 173.485 174.442 175.154 176.082 176.727 
177.598 171.655 171.908 172.719 173.182 174.123 174.725 175.656 176.302 
177.2 177.851 178.694 171.967 172.15 172.905 173.222 174.158 174.597 
175.55 176.009 176.887 177.434 178.272 178.882 179.609 172.234 172.439 
173.128 173.411 174.296 174.726 175.718 176.104 176.974 177.3 178.065 
178.492 179.199 179.707 180.318 172.468 172.688 173.354 173.588 174.377 
174.801 175.774 176.261 177.176 177.504 178.238 178.474 179.124 179.422 
180.039 180.427 181.015 172.701 172.94 173.624 173.818 174.539 174.863 
175.754 176.241 177.173 177.621 178.407 178.696 179.346 179.538 180.129 
180.332 180.908 181.205 181.783 173.505 174.556 174.188 174.561 175.748 
175.342 175.753 175.34 175.724 176.947 176.558 176.976 176.577 176.996 
176.556 176.921 178.133 177.761 178.193 177.796 178.232 177.831 178.228 
177.759 178.09 179.264 178.957 179.414 179.021 179.458 179.065 179.483 
179.047 179.384 178.896 179.182 180.171 180.013 180.486 180.194 180.614 
180.27 180.683 180.289 180.633 180.164 180.44 179.947 180.193 180.854 
180.804 181.313 181.152 181.578 181.332 181.728 181.423 181.765 181.37 
181.646 181.186 181.428 180.928 181.122 181.52 181.467 182.028 181.923 
182.395 182.211 182.609 182.372 182.704 182.403 182.676 182.315 182.563 
182.136 182.329 181.815 181.933 182.249 182.175 182.748 182.654 183.143 
182.99 183.386 183.19 183.517 183.268 183.533 183.243 183.487 183.168 
183.376 182.965 183.072 182.555 182.594 182.839 183.837 183.357 183.338 
184.672 184.289 184.261 183.791 183.69 185.403 185.043 185.018 184.62 
184.521 184.061 183.912 186.291 185.811 185.813 185.38 185.348 184.887 
184.774 184.258 184.06 187.408 186.81 186.794 186.276 186.288 185.793 
185.716 185.157 184.938 184.357 184.079 188.493 187.948 187.867 187.311 
187.257 186.752 186.625 186.084 185.805 185.217 184.878 184.321 184.019 
189.205 188.896 188.835 188.351 188.224 187.686 187.462 186.906 186.559 
186 185.613 185.08 184.734 184.232 183.907 189.449 189.4 189.415 
189.159 189.032 188.581 188.291 187.71 187.303 186.709 186.293 185.757 
185.369 184.88 184.49 184.019 183.597 189.402 189.484 189.493 189.473 
189.317 189.131 188.786 188.397 187.922 187.41 186.929 186.406 185.953 
185.453 184.985 184.511 184.021 183.577 183.093 182.722 182.838 183.081 
183.679 182.895 183.125 183.671 183.983 184.523 182.98 183.143 183.623 
183.921 184.502 184.792 185.3 183.144 183.264 183.724 183.921 184.516 
184.799 185.453 185.665 186.246 183.2 183.411 183.89 184.083 184.669 
184.906 185.631 185.895 186.659 186.798 187.441 182.989 183.336 183.809 
184.151 184.716 185.041 185.713 186.065 186.852 187.181 187.908 188.029 
188.541 182.644 183.025 183.469 183.905 184.444 184.913 185.505 185.98 
186.624 187.143 187.786 188.222 188.684 188.882 189.143 182.307 182.676 
183.098 183.508 184.001 184.5 185.047 185.584 186.108 186.674 187.159 
187.753 188.14 188.635 188.857 189.167 189.279 181.949 182.34 182.749 
183.136 183.564 184.017 184.501 185.031 185.517 186.058 186.472 187.009 
187.346 187.884 188.144 188.622 188.798 189.144 189.233 173.064 173.914 
173.681 174.002 174.776 174.545 174.943 174.634 174.976 175.759 175.487 
176.004 175.692 176.16 175.754 176.207 176.867 176.573 177.16 176.864 
177.426 177.034 177.508 177.087 177.566 177.956 177.702 178.292 178.044 
178.62 178.297 178.758 178.36 178.774 178.401 178.793 178.969 178.755 
179.345 179.137 179.714 179.445 179.911 179.547 179.941 179.566 179.94 
179.541 179.805 179.92 179.735 180.319 180.142 180.726 180.506 180.992 
180.666 181.049 180.689 181.042 180.668 180.929 180.465 180.598 180.765 
180.629 181.159 181.034 181.566 181.435 181.9 181.677 182.011 181.709 
181.971 181.663 181.878 181.517 181.644 181.19 181.297 181.459 181.376 
181.833 181.752 182.193 182.132 182.546 182.446 182.752 182.54 182.72 
182.453 182.592 182.324 182.463 182.144 182.289 181.897 182.086 172.508 
171.82 172.62 173.409 171.005 171.936 172.876 173.549 174.285 170.143 
171.154 172.27 173.06 173.932 174.485 175.248 169.34 170.347 171.597 
172.508 173.546 174.18 175.008 175.524 176.33 168.701 169.628 170.944 
171.905 173.065 173.794 174.673 175.253 176.05 176.611 177.403 168.21 
169.041 170.361 171.338 172.594 173.359 174.26 174.845 175.615 176.239 
177.044 177.647 178.414 167.878 168.554 169.772 170.748 172.059 172.927 
173.9 174.469 175.206 175.767 176.583 177.236 178.077 178.653 179.393 
167.846 168.281 169.3 170.115 171.332 172.299 173.36 174.093 174.879 
175.423 176.212 176.811 177.688 178.302 179.105 179.62 180.284 168.11 
168.348 169.175 169.693 170.694 171.519 172.56 173.435 174.339 175.051 
175.871 176.486 177.334 177.936 178.748 179.303 179.997 180.462 181.026 
168.56 169.529 169.19 169.567 170.561 170.202 170.59 170.294 170.904 
171.766 171.348 171.788 171.389 171.957 171.768 172.599 173.124 172.693 
173.229 172.742 173.32 172.933 173.696 173.551 174.417 174.461 174.091 
174.702 174.271 174.879 174.415 175.107 174.775 175.583 175.369 176.112 
175.718 175.391 176.004 175.684 176.287 175.913 176.52 176.178 176.869 
176.606 177.311 177.03 177.636 176.938 176.615 177.205 176.921 177.516 
177.203 177.764 177.456 178.063 177.819 178.468 178.224 178.816 178.509 
179.019 178.128 177.811 178.388 178.106 178.718 178.412 178.993 178.659 
179.257 178.97 179.612 179.355 179.951 179.656 180.153 179.823 180.246 
179.26 178.969 179.529 179.266 179.875 179.609 180.202 179.893 180.467 
180.166 180.764 180.496 181.063 180.774 181.239 180.912 181.287 180.951 
181.266 180.043 181.348 180.572 180.349 182.685 181.914 181.709 180.919 
180.709 183.937 183.228 183.023 182.273 182.056 181.281 181.041 185.04 
184.413 184.201 183.519 183.278 182.564 182.318 181.569 181.306 186.091 
185.488 185.318 184.658 184.411 183.712 183.438 182.758 182.52 181.816 
181.575 187.171 186.571 186.441 185.791 185.578 184.857 184.558 183.838 
183.569 182.932 182.719 182.066 181.821 188.108 187.602 187.414 186.853 
186.62 185.995 185.689 184.972 184.627 183.943 183.669 183.082 182.839 
182.231 181.937 188.732 188.37 188.109 187.659 187.351 186.874 186.554 
185.994 185.616 184.965 184.582 183.969 183.656 183.113 182.816 182.249 
181.925 189.116 188.859 188.63 188.242 187.931 187.491 187.166 186.706 
186.35 185.819 185.401 184.815 184.4 183.854 183.501 183.006 182.681 
182.168 181.844 180.118 180.591 180.723 181.424 180.951 181.187 181.979 
182.083 182.777 181.257 181.546 182.46 182.658 183.452 183.468 184.084 
181.631 181.903 182.918 183.186 184.125 184.193 184.865 184.739 185.22 
182.015 182.301 183.313 183.656 184.662 184.862 185.583 185.517 185.974 
185.802 186.225 182.224 182.588 183.472 183.911 184.803 185.211 185.9 
186.073 186.511 186.479 186.886 186.804 187.27 182.176 182.619 183.343 
183.832 184.52 185.051 185.65 186.091 186.556 186.803 187.235 187.35 
187.83 187.832 188.238 181.93 182.408 183.022 183.514 184.071 184.587 
185.138 185.67 186.222 186.667 187.178 187.499 187.983 188.199 188.603 
188.641 188.872 181.601 182.06 182.606 183.09 183.609 184.097 184.654 
185.179 185.811 186.321 186.903 187.314 187.771 188.118 188.487 188.756 
189.01 189.088 189.204 179.384 178.332 179.181 179.783 177.093 178.011 
178.574 179.497 180.069 175.73 176.672 177.21 178.194 178.791 179.744 
180.338 174.397 175.289 175.813 176.792 177.431 178.447 179.127 180.065 
180.712 173.198 174.009 174.493 175.404 176.011 177.059 177.795 178.847 
179.562 180.489 181.122 172.06 172.845 173.284 174.12 174.638 175.618 
176.299 177.429 178.188 179.269 179.928 180.854 181.384 170.88 171.678 
172.108 172.93 173.424 174.296 174.905 175.929 176.671 177.801 178.517 
179.563 180.116 181.011 181.409 169.732 170.491 170.933 171.753 172.28 
173.129 173.731 174.634 175.326 176.339 177.07 178.118 178.739 179.691 
180.134 180.957 181.247 168.756 169.426 169.884 170.633 171.172 171.999 
172.602 173.484 174.125 175.063 175.732 176.725 177.365 178.33 178.844 
179.696 180.053 180.782 181.007 168.425 168.43 168.793 169.583 168.567 
168.891 169.693 170.021 170.861 168.713 169.053 169.847 170.163 170.99 
171.36 172.273 168.823 169.166 169.952 170.294 171.103 171.483 172.407 
172.827 173.797 169.005 169.272 170.059 170.396 171.24 171.605 172.539 
172.961 173.982 174.398 175.395 169.317 169.496 170.28 170.574 171.49 
171.819 172.791 173.146 174.181 174.595 175.655 176.039 177.015 169.711 
169.842 170.617 170.875 171.824 172.144 173.134 173.452 174.452 174.826 
175.878 176.294 177.303 177.64 178.503 170.18 170.272 171.035 171.249 
172.162 172.479 173.425 173.759 174.681 175.055 176.031 176.48 177.47 
177.876 178.728 179.017 179.715 170.743 170.797 171.54 171.685 172.524 
172.788 173.664 173.985 174.841 175.203 176.095 176.549 177.489 177.961 
178.801 179.163 179.829 180.093 180.655 171.331 172.555 171.993 172.147 
173.836 173.262 173.417 172.863 173.095 175.152 174.583 174.785 174.193 
174.429 173.885 174.191 176.501 175.952 176.242 175.645 175.934 175.311 
175.605 175.028 175.358 177.851 177.328 177.651 177.114 177.446 176.864 
177.171 176.536 176.843 176.242 176.617 179.193 178.693 179.011 178.491 
178.803 178.294 178.61 178.069 178.375 177.785 178.134 177.568 177.985 
180.429 180.012 180.366 179.864 180.175 179.634 179.946 179.43 179.758 
179.245 179.572 179.051 179.396 178.896 179.241 181.459 181.151 181.531 
181.162 181.513 181.028 181.34 180.799 181.114 180.589 180.895 180.392 
180.665 180.19 180.443 179.994 180.22 182.345 182.084 182.436 182.189 
182.549 182.241 182.556 182.139 182.405 181.921 182.158 181.657 181.857 
181.368 181.545 181.095 181.272 180.847 181.018 181.589 181.847 181.993 
182.552 182.147 182.272 182.852 182.987 183.559 182.504 182.618 183.237 
183.346 183.993 184.071 184.678 182.841 182.988 183.62 183.756 184.451 
184.578 185.285 185.306 185.914 183.087 183.286 183.892 184.079 184.722 
184.957 185.651 185.851 186.468 186.51 186.989 183.196 183.461 184.054 
184.286 184.881 185.129 185.738 186.025 186.59 186.834 187.292 187.405 
187.776 183.146 183.479 184.086 184.396 185.034 185.287 185.905 186.108 
186.676 186.871 187.384 187.561 188.009 188.11 188.474 183.021 183.373 
183.988 184.369 185.043 185.398 186.059 186.313 186.92 187.079 187.658 
187.768 188.302 188.367 188.792 188.799 189.065 182.934 183.259 183.862 
184.24 184.873 185.296 185.908 186.316 186.884 187.233 187.79 188.055 
188.576 188.714 189.109 189.124 189.351 189.286 189.347 160.133 160.791 
160.305 160.043 161.467 160.947 160.593 160.174 159.975 162.287 161.654 
161.275 160.734 160.484 160.143 160.191 163.489 162.665 162.371 161.615 
161.45 160.859 160.955 160.627 161.026 165.083 164.142 163.966 163.019 
162.948 162.135 162.289 161.699 162.083 161.737 162.304 166.713 165.877 
165.805 164.836 164.785 163.844 163.95 163.208 163.509 162.973 163.41 
163.086 163.656 168.023 167.41 167.42 166.652 166.626 165.728 165.755 
164.918 165.125 164.459 164.818 164.304 164.772 164.448 165.028 169.078 
168.57 168.596 168.058 168.074 167.409 167.426 166.67 166.816 166.109 
166.441 165.816 166.252 165.722 166.223 165.854 166.41 170.127 169.59 
169.588 169.102 169.133 168.643 168.695 168.144 168.274 167.702 167.984 
167.43 167.817 167.264 167.674 167.164 167.596 167.211 167.676 159.71 
159.66 159.499 159.24 159.762 159.579 159.422 159.244 159.325 160.125 
159.864 159.931 159.672 159.864 159.696 160.171 160.967 160.502 160.694 
160.384 160.721 160.461 160.926 160.805 161.444 162.229 161.604 161.78 
161.334 161.693 161.39 161.829 161.625 162.12 162.059 162.644 163.619 
162.974 163.147 162.578 162.878 162.438 162.827 162.52 162.944 162.747 
163.217 163.175 163.747 164.987 164.369 164.564 163.987 164.254 163.714 
164.05 163.603 164.014 163.661 164.119 163.872 164.416 164.333 164.957 
166.321 165.724 165.897 165.356 165.596 165.072 165.362 164.88 165.257 
164.838 165.286 164.92 165.434 165.176 165.776 165.639 166.247 167.567 
167.013 167.156 166.638 166.853 166.353 166.615 166.148 166.485 166.076 
166.479 166.107 166.547 166.24 166.753 166.547 167.11 166.948 167.471 
159.743 159.296 159.587 159.996 159.397 159.372 159.813 160.145 160.854 
160.246 159.843 160.248 160.244 160.949 161.228 161.982 161.533 160.97 
161.289 160.971 161.566 161.548 162.262 162.418 163.117 162.787 162.291 
162.574 162.136 162.584 162.332 162.952 162.9 163.62 163.681 164.48 
163.92 163.491 163.813 163.392 163.771 163.402 163.911 163.713 164.411 
164.37 165.204 165.252 166.201 165.067 164.616 164.933 164.559 164.926 
164.56 164.992 164.713 165.339 165.236 166.062 166.071 167.01 167.093 
168.118 166.256 165.758 165.988 165.613 165.956 165.643 166.075 165.79 
166.38 166.208 167.019 166.976 167.93 167.956 168.966 169.046 170.043 
167.431 166.917 167.094 166.662 167.011 166.68 167.202 166.91 167.579 
167.333 168.168 168.026 168.994 168.941 169.941 169.94 170.888 170.912 
171.731 178.859 177.716 178.155 177.831 176.497 176.957 176.624 177.059 
176.641 175.22 175.676 175.299 175.788 175.369 175.787 175.296 173.907 
174.339 173.893 174.397 173.961 174.444 173.964 174.399 173.941 172.566 
172.979 172.48 172.962 172.517 173.012 172.563 173.033 172.613 173.087 
172.733 171.255 171.623 171.096 171.539 171.093 171.589 171.178 171.657 
171.268 171.755 171.418 171.922 171.603 170.108 170.383 169.842 170.187 
169.721 170.184 169.789 170.288 169.9 170.402 170.039 170.568 170.229 
170.759 170.419 169.117 169.337 168.798 169.028 168.526 168.875 168.466 
168.917 168.526 169.011 168.619 169.146 168.789 169.342 169.01 169.556 
169.259 168.169 168.386 167.851 168.043 167.508 167.762 167.314 167.669 
167.273 167.679 167.293 167.748 167.407 167.921 167.629 168.164 167.907 
168.455 168.259 
POINT_DATA 1002
SCALARS Distance double
LOOKUP_TABLE default
171.859 170.692 170.61 171.872 170.463 173.129 171.813 170.372 173.234 
174.4 171.867 170.557 173.287 174.559 175.691 172.204 170.975 173.458 
174.698 175.873 177.018 172.603 171.381 173.758 174.911 176.091 177.259 
178.367 172.871 171.759 173.988 175.152 176.381 177.57 178.662 179.67 
173.153 172.185 174.209 175.382 176.672 177.912 178.979 179.924 180.796 
173.507 172.58 174.558 175.713 176.958 178.188 179.271 180.195 181.018 
181.747 173.831 172.886 174.919 176.087 177.266 178.407 179.461 180.421 
181.283 182.018 182.62 169.597 169.388 168.559 168.252 167.44 169.175 
167.036 165.983 168.017 169.118 165.563 164.338 166.786 167.946 169.314 
164.126 162.969 165.45 166.723 168.017 169.653 163.017 162.03 164.262 
165.564 166.776 168.276 170.113 162.11 161.307 163.207 164.499 165.708 
167.081 168.907 170.745 161.281 160.6 162.235 163.462 164.705 166.048 
167.848 169.807 171.383 160.609 159.953 161.52 162.664 163.854 165.121 
166.838 168.869 170.593 171.838 159.946 160.882 160.556 161.725 161.617 
162.056 162.714 162.66 162.942 163.252 163.615 163.771 163.801 164.053 
164.426 164.927 165.319 164.882 165.072 165.411 166.02 166.849 167.201 
166.666 166.646 166.84 167.364 168.129 168.933 169.162 168.804 168.657 
168.547 168.767 169.363 170.042 170.784 170.986 170.656 170.477 170.168 
170.013 170.294 170.85 171.394 172.23 172.443 172.019 171.799 171.474 
171.152 171.159 171.544 172.044 172.496 173.8 173.437 174.937 173.005 
174.641 176.155 172.519 174.207 175.87 177.325 172.231 173.734 175.39 
176.991 178.482 172.347 173.586 175.056 176.53 178.086 179.519 172.636 
173.739 175.155 176.448 177.691 179.046 180.268 172.89 173.865 175.29 
176.717 177.767 178.743 179.812 180.877 173.16 174.017 175.254 176.785 
178.035 178.917 179.715 180.594 181.579 173.434 174.282 175.323 176.691 
178.051 179.141 179.985 180.69 181.445 182.328 174.937 176.158 176.17 
177.366 177.408 177.416 178.597 178.619 178.673 178.6 179.797 179.853 
179.907 179.873 179.685 180.73 180.939 181.056 181.092 180.94 180.701 
181.42 181.794 182.009 182.126 182.082 181.922 181.666 182.108 182.56 
182.835 182.986 183.005 182.948 182.826 182.501 182.842 183.296 183.577 
183.751 183.818 183.781 183.737 183.571 183.149 183.351 183.879 184.282 
184.708 185.027 184.2 185.396 185.788 184.955 184.412 186.253 186.834 
185.794 185.301 184.615 187.346 188.049 186.786 186.291 185.561 184.641 
188.452 188.981 187.807 187.184 186.405 185.454 184.544 189.259 189.378 
188.799 188.072 187.133 186.144 185.245 184.418 189.565 189.407 189.424 
188.878 187.928 186.853 185.884 184.982 184.073 189.483 189.32 189.435 
189.095 188.388 187.452 186.485 185.496 184.481 183.513 182.489 183.406 
182.623 183.348 182.717 184.262 183.367 182.86 184.157 185.089 183.569 
183.008 184.241 185.154 186.12 183.662 182.935 184.443 185.326 186.415 
187.445 183.416 182.621 184.352 185.358 186.458 187.686 188.596 183.044 
182.27 183.953 185.033 186.129 187.288 188.389 189.072 182.719 181.934 
183.535 184.52 185.592 186.607 187.587 188.449 189.054 182.371 181.546 
183.16 184.003 184.986 185.978 186.835 187.619 188.367 188.976 173.319 
174.295 174.136 175.21 174.99 175.33 176.267 176.026 176.542 176.614 
177.43 177.15 177.788 177.953 177.965 178.532 178.193 178.922 179.157 
179.171 179.194 179.546 179.173 179.965 180.264 180.32 180.34 180.291 
180.493 180.102 180.923 181.297 181.421 181.412 181.378 181.123 181.298 
180.9 181.692 182.089 182.319 182.3 182.205 182.054 181.76 171.767 
172.779 170.916 172.115 169.987 173.739 171.364 169.082 173.332 174.734 
170.6 168.342 172.829 174.481 175.819 169.946 167.818 172.291 174.078 
175.468 176.871 169.359 167.453 171.781 173.711 174.998 176.387 177.881 
168.852 167.332 171.106 173.291 174.702 175.925 177.446 178.91 168.662 
167.545 170.389 172.503 174.289 175.648 177.069 178.556 179.854 168.838 