# vtk DataFile Version 4.0
vtk output
ASCII
DATASET POLYDATA
POINTS 1002 float
-120.186 -113.866 52.3113 -120.159 -112.784 51.4809 -119.603 -113.159 51.507 
-119.621 -114.318 52.4158 -118.979 -113.643 51.5801 -120.311 -115.054 53.3228 
-119.059 -114.864 52.6069 -118.361 -114.241 51.7853 -119.791 -115.554 53.5969 
-120.48 -116.339 54.529 -118.49 -115.414 53.0573 -117.715 -114.819 52.2174 
-119.258 -116.083 54.0778 -119.969 -116.867 55.0855 -120.513 -117.751 55.9599 
-117.833 -115.919 53.7674 -117.009 -115.35 52.8502 -118.637 -116.594 54.8297 
-119.368 -117.427 55.8442 -119.96 -118.331 56.7444 -120.385 -119.332 57.4799 
-117.185 -116.543 54.5504 -116.422 -115.996 53.5984 -117.946 -117.204 55.6526 
-118.653 -118.068 56.6724 -119.308 -119.02 57.5332 -119.843 -119.988 58.289 
-120.222 -121.071 58.7858 -116.704 -117.286 55.407 -116.024 -116.695 54.4651 
-117.362 -117.984 56.4518 -117.963 -118.824 57.4546 -118.567 -119.802 58.2773 
-119.187 -120.793 58.9638 -119.655 -121.796 59.5152 -119.956 -122.847 59.7994 
-116.278 -117.903 56.4308 -115.669 -117.296 55.4543 -116.853 -118.69 57.3974 
-117.389 -119.575 58.28 -117.875 -120.548 59.0566 -118.419 -121.608 59.6613 
-118.925 -122.636 60.124 -119.254 -123.59 60.4761 -119.528 -124.472 60.7099 
-115.79 -118.463 57.4508 -115.299 -117.926 56.4576 -116.255 -119.261 58.3981 
-116.77 -120.239 59.1526 -117.243 -121.247 59.8066 -117.677 -122.31 60.3985 
-118.126 -123.395 60.8162 -118.466 -124.355 61.1038 -118.738 -125.151 61.3773 
-119.094 -125.822 61.6372 -115.287 -119.187 58.2436 -114.92 -118.699 57.338 
-115.619 -119.927 59.1447 -116.051 -120.935 59.8513 -116.544 -122.001 60.3979 
-116.969 -123.009 60.9719 -117.37 -124.01 61.5067 -117.724 -124.97 61.8422 
-117.993 -125.77 62.0763 -118.313 -126.39 62.3304 -118.751 -126.885 62.5601 
-119.843 -111.948 50.7373 -119.187 -112.318 50.7591 -119.393 -111.069 49.9945 
-118.589 -111.434 50.0699 -118.677 -110.142 49.2969 -118.443 -112.824 50.885 
-117.818 -110.533 49.448 -117.866 -109.11 48.7756 -117.767 -111.955 50.2813 
-117.715 -113.477 51.1272 -117.062 -109.53 49.0454 -117.145 -107.914 48.5817 
-116.992 -111.076 49.7451 -116.959 -112.607 50.5808 -116.943 -114.106 51.54 
-116.294 -108.386 48.9516 -116.4 -106.7 48.634 -116.125 -110.116 49.3978 
-116.093 -111.685 50.1382 -116.121 -113.251 51.0447 -116.192 -114.733 52.162 
-115.553 -107.366 49.0392 -115.71 -105.733 48.8208 -115.21 -109.081 49.2842 
-115.156 -110.685 49.8689 -115.33 -112.305 50.7585 -115.432 -113.993 51.7446 
-115.641 -115.49 52.9412 -115.129 -106.696 49.3934 -115.294 -105.084 49.272 
-114.615 -108.225 49.4988 -114.416 -109.658 49.8829 -114.699 -111.245 50.6825 
-114.851 -113.063 51.6009 -114.893 -114.825 52.5539 -115.228 -116.229 53.8257 
-114.881 -106.266 50.1042 -114.989 -104.708 50.0019 -114.379 -107.642 50.1729 
-114.036 -108.835 50.3708 -114.271 -110.224 50.9174 -114.499 -111.944 51.6786 
-114.367 -113.819 52.4489 -114.437 -115.554 53.4278 -114.89 -116.904 54.8323 
-114.439 -105.95 50.8905 -114.565 -104.614 50.7802 -114.057 -107.175 50.9907 
-113.715 -108.257 51.1398 -113.814 -109.505 51.4818 -114.114 -110.983 52.0028 
-114.105 -112.62 52.5838 -113.992 -114.471 53.3316 -114.217 -116.275 54.4624 
-114.641 -117.669 55.9035 -113.874 -105.443 51.5533 -113.544 -106.501 51.6089 
-112.996 -106.076 52.2647 -112.758 -106.948 52.2127 -112.479 -106.633 53.2023 
-113.253 -107.57 51.7307 -112.531 -107.871 53.2656 -112.443 -107.7 54.7925 
-112.684 -108.332 52.4735 -113.184 -108.908 52.0514 -112.532 -109.464 55.1416 
-112.435 -109.312 56.6661 -112.424 -109.735 53.7699 -112.635 -110.069 53.0413 
-113.405 -110.407 52.516 -112.485 -110.953 56.9138 -112.549 -110.731 57.9111 
-112.377 -111.146 55.4756 -112.393 -111.285 54.3039 -112.988 -111.397 53.5603 
-113.721 -111.779 52.9868 -113.004 -111.972 57.7435 -113.383 -111.83 58.3598 
-112.87 -112.124 56.6716 -112.936 -112.228 55.5292 -113.351 -112.331 54.687 
-113.799 -112.671 54.0745 -113.911 -113.468 53.6108 -114.229 -113.176 58.0752 
-114.738 -113.173 58.4611 -113.981 -113.264 57.3799 -114.017 -113.413 56.5637 
-114.287 -113.652 55.8838 -114.471 -114.081 55.3665 -114.274 -114.8 54.9565 
-114.042 -115.642 54.6387 -115.309 -114.854 58.487 -115.802 -114.829 58.6169 
-114.957 -114.953 58.1562 -114.787 -115.128 57.7163 -114.735 -115.413 57.2526 
-114.648 -115.876 56.788 -114.389 -116.526 56.4302 -114.144 -117.187 56.1857 
-114.229 -117.583 55.9918 -115.711 -116.542 59.1386 -116.205 -116.382 59.0987 
-115.269 -116.742 59.0571 -114.889 -116.934 58.9172 -114.493 -117.12 58.6847 
-114.055 -117.416 58.2422 -113.699 -117.927 57.7832 -113.625 -118.533 57.5481 
-113.908 -118.916 57.4363 -114.404 -118.915 57.3499 -114.67 -119.886 58.5844 
-114.039 -120.122 58.5927 -114.297 -121.225 59.7096 -113.31 -120.02 58.6369 
-113.613 -121.318 59.8067 -113.991 -122.551 61.0042 -112.797 -119.522 58.7375 
-112.854 -121.066 59.9196 -113.397 -122.588 61.3169 -113.761 -123.762 62.6378 
-112.851 -118.956 59.1136 -112.389 -120.542 60.1326 -112.768 -122.441 61.542 
-113.197 -123.968 63.0349 -113.408 -125.006 64.2147 -113.416 -118.655 59.6864 
-112.542 -120.067 60.6283 -112.386 -122.014 61.8163 -112.542 -124.026 63.219 
-112.708 -125.364 64.5075 -112.856 -126.424 65.5088 -114.114 -118.582 60.0019 
-113.182 -119.893 61.1005 -112.553 -121.493 62.2508 -112.162 -123.587 63.4737 
-112.008 -125.401 64.6865 -112.094 -126.68 65.8384 -112.25 -127.805 66.7932 
-114.704 -118.464 60.0562 -113.901 -119.874 61.2394 -113.158 -121.208 62.5353 
-112.413 -122.922 63.8599 -111.804 -124.843 65.0659 -111.572 -126.494 66.208 
-111.614 -127.826 67.2588 -111.747 -128.934 68.0637 -115.231 -118.19 60.1022 
-114.504 -119.697 61.2971 -113.797 -121.067 62.6058 -113.022 -122.501 64.0613 
-112.198 -124.123 65.5064 -111.602 -125.823 66.7401 -111.321 -127.421 67.7489 
-111.279 -128.79 68.5559 -111.39 -129.85 69.1713 -115.778 -117.872 60.0956 
-115.071 -119.346 61.3861 -114.346 -120.813 62.6737 -113.592 -122.257 64.0338 
-112.766 -123.654 65.6135 -112.03 -125.099 67.1267 -111.478 -126.679 68.2313 
-111.14 -128.262 69.0058 -111.054 -129.598 69.6843 -111.142 -130.581 70.2927 
-114.952 -120.576 59.4389 -114.587 -122.16 60.5331 -115.266 -121.562 60.2212 
-114.282 -123.573 61.9335 -114.913 -123.303 61.2992 -115.713 -122.729 60.8329 
-113.969 -124.793 63.6132 -114.553 -124.751 62.794 -115.306 -124.476 62.0159 
-116.174 -123.795 61.435 -113.532 -126.215 65.0913 -114.16 -126.109 64.4378 
-114.856 -125.908 63.626 -115.704 -125.4 62.8118 -116.594 -124.697 62.1354 
-112.938 -127.78 66.406 -113.667 -127.659 65.855 -114.401 -127.328 65.1908 
-115.214 -126.778 64.4002 -116.137 -126.174 63.5433 -117.005 -125.589 62.6836 
-112.32 -129.069 67.7335 -113.046 -129.053 67.222 -113.857 -128.783 66.5506 
-114.688 -128.238 65.7502 -115.595 -127.622 64.8782 -116.534 -127.046 63.9561 
-117.332 -126.446 62.9795 -111.832 -130.074 68.8957 -112.443 -130.128 68.4875 
-113.22 -130.012 67.8761 -114.069 -129.682 66.9893 -114.948 -129.17 65.9897 
-115.917 -128.539 65.0845 -116.867 -127.831 64.1778 -117.651 -127.106 63.2086 
-111.476 -130.929 69.979 -111.959 -131.089 69.5307 -112.621 -131.097 68.9934 
-113.428 -130.947 68.2078 -114.283 -130.596 67.133 -115.219 -129.989 66.1046 
-116.265 -129.17 65.2546 -117.264 -128.319 64.3655 -118.085 -127.563 63.416 
-111.096 -131.444 71.5194 -111.439 -131.893 70.8937 -111.066 -132.225 72.8213 
-111.463 -132.837 71.6907 -111.27 -132.874 73.5347 -111.977 -132.142 70.1107 
-111.848 -133.417 72.0118 -112.035 -133.124 73.2902 -112.137 -133.097 70.4919 
-112.741 -132.143 69.3312 -112.814 -133.207 71.8293 -113.27 -132.68 72.5613 
-112.737 -133.386 70.5955 -113.089 -132.921 69.4336 -113.659 -131.869 68.3316 
-114.121 -132.458 71.3743 -114.521 -131.92 71.8221 -113.908 -132.937 70.4203 
-113.959 -133.047 69.2914 -114.224 -132.417 68.2438 -114.653 -131.277 67.153 
-115.446 -131.957 70.7878 -115.701 -131.465 71.1059 -115.382 -132.462 70.0319 
-115.39 -132.86 68.9565 -115.354 -132.599 67.9578 -115.421 -131.591 67.0654 
-115.768 -130.361 66.1523 -116.784 -131.705 70.2483 -117.07 -131.148 70.5021 
-116.763 -132.188 69.6368 -116.883 -132.601 68.669 -116.814 -132.571 67.6825 
-116.592 -131.726 66.8543 -116.63 -130.473 66.0689 -116.951 -129.33 65.2397 
-118.225 -131.176 69.8227 -118.608 -130.594 70.0397 -117.999 -131.639 69.3111 
-118.006 -131.948 68.48 -118.026 -132.006 67.5654 -117.817 -131.502 66.6943 
-117.66 -130.474 65.8326 -117.805 -129.386 65.0139 -118.012 -128.445 64.2246 
-119.647 -130.42 69.3419 -119.985 -129.921 69.5394 -119.292 -130.819 68.8946 
-119.041 -131.021 68.1391 -118.964 -131.02 67.2968 -118.875 -130.761 66.4808 
-118.714 -130.162 65.5724 -118.706 -129.361 64.6649 -118.825 -128.542 63.9162 
-118.842 -127.727 63.2432 -110.939 -130.546 71.226 -110.906 -131.28 72.9172 
-111.029 -130.207 71.9858 -111.056 -130.732 73.7757 -111.553 -129.651 72.0867 
-110.955 -131.837 74.3935 -111.646 -129.975 73.4707 -112.408 -128.971 71.557 
-111.235 -131.064 74.8197 -111.409 -132.306 74.6097 -112.598 -129.135 72.4978 
-113.375 -128.16 70.8842 -111.989 -130.104 73.9128 -111.983 -131.36 74.334 
-112.539 -132.417 73.6713 -113.785 -128.234 71.5761 -114.391 -127.286 70.1228 
-113.2 -129.071 72.8054 -113.074 -130.154 73.392 -113.439 -131.3 73.3021 
-113.964 -131.882 72.6839 -114.995 -127.33 70.5547 -115.43 -126.448 69.1119 
-114.593 -128.076 71.9075 -114.543 -128.938 72.7201 -114.757 -129.988 72.9697 
-114.947 -130.816 72.6563 -115.182 -131.213 71.9116 -116.038 -126.411 69.3791 
-116.431 -125.58 68.1239 -115.747 -127.16 70.7641 -115.843 -127.921 71.9038 
-116.139 -128.832 72.5609 -116.174 -129.738 72.5708 -116.113 -130.379 71.9386 
-116.405 -130.81 71.1309 -116.992 -125.404 68.4162 -117.373 -124.608 67.4092 
-116.684 -126.208 69.5425 -116.745 -126.998 70.6565 -117.122 -127.824 71.5381 
-117.297 -128.702 71.9261 -117.231 -129.465 71.679 -117.404 -130.001 71.0679 
-117.948 -130.368 70.4961 -117.944 -124.334 67.7249 -118.207 -123.598 66.865 
-117.672 -125.145 68.5897 -117.616 -125.983 69.4559 -117.881 -126.769 70.2583 
[...]
CELL_DATA 2000
SCALARS Distance double
LOOKUP_TABLE default
171.933 171.837 172.237 172.998 171.827 172.197 173.007 173.408 174.264 
171.899 172.255 173.099 173.482 174.385 174.766 175.66 171.981 172.352 
173.223 173.614 174.548 174.936 175.872 176.215 177.107 172.166 172.484 
173.399 173.767 174.734 175.124 176.101 176.46 177.398 177.702 178.591 
172.562 172.796 173.751 174.037 175.029 175.359 176.36 176.712 177.687 
178.014 178.927 179.2 180.03 173.033 173.255 174.2 174.461 175.436 
175.719 176.69 177.001 177.969 178.303 179.222 179.52 180.331 180.569 
181.277 173.489 173.698 174.588 174.868 175.799 176.107 177.033 177.335 
178.249 178.572 179.465 179.781 180.573 180.825 181.494 181.708 182.309 
173.984 174.134 174.951 175.197 176.078 176.401 177.306 177.631 178.505 
178.821 179.667 179.987 180.764 181.034 181.688 181.896 182.465 182.665 
183.197 171.278 170.227 170.88 171.134 169.022 169.758 170.008 170.731 
171.065 167.685 168.485 168.766 169.553 169.904 170.693 171.1 166.341 
167.151 167.471 168.286 168.654 169.485 169.896 170.722 171.15 165.026 
165.834 166.155 166.982 167.338 168.195 168.604 169.474 169.929 170.78 
171.293 163.858 164.58 164.883 165.651 165.982 166.842 167.277 168.183 
168.705 169.582 170.166 171.026 171.664 163.106 163.634 163.986 164.513 
164.834 165.536 166.034 166.916 167.547 168.431 169.076 169.934 170.603 
171.473 172.148 162.757 163.155 163.585 163.887 164.198 164.619 165.121 
165.835 166.541 167.371 168.048 168.869 169.522 170.398 171.102 171.981 
172.658 162.549 162.907 163.323 163.602 163.871 164.164 164.576 165.112 
165.77 166.485 167.149 167.882 168.503 169.322 170.05 170.955 171.739 
172.563 173.245 162.607 162.699 162.862 163.219 162.79 162.837 163.164 
163.384 163.756 163.552 163.181 163.52 163.456 163.965 164.045 164.571 
165.062 164.393 164.722 164.22 164.702 164.51 165.135 165.115 165.779 
166.615 166.021 166.278 165.648 165.927 165.484 165.956 165.799 166.417 
166.416 167.072 168.008 167.449 167.687 167.111 167.339 166.786 167.181 
166.795 167.393 167.173 167.846 167.746 168.443 169.671 168.939 169.277 
168.584 168.996 168.328 168.896 168.302 169.038 168.516 169.301 168.851 
169.63 169.321 170.109 171.558 170.781 171.189 170.417 170.933 170.205 
170.836 170.194 170.907 170.345 171.069 170.547 171.259 170.791 171.519 
171.145 171.87 173.202 172.596 172.952 172.321 172.74 172.123 172.563 
172.003 172.412 171.957 172.352 172.026 172.484 172.239 172.785 172.532 
173.107 172.819 173.369 174.17 173.927 174.44 175.204 173.516 174.083 
174.832 175.44 176.256 173.071 173.558 174.235 174.942 175.852 176.559 
177.475 172.914 173.174 173.752 174.326 175.308 176.128 177.227 177.868 
178.765 173.125 173.231 173.776 174.036 174.946 175.644 176.835 177.599 
178.609 179.134 179.925 173.447 173.6 174.218 174.288 175.046 175.444 
176.503 177.198 178.24 178.888 179.722 180.234 180.982 173.683 173.95 
174.663 174.777 175.461 175.659 176.512 176.959 177.908 178.495 179.375 
179.955 180.751 181.266 181.994 173.861 174.174 174.926 175.148 175.836 
176.035 176.778 177.057 177.878 178.283 179.133 179.638 180.466 180.999 
181.764 182.243 182.909 174.04 174.343 175.087 175.357 176.055 176.312 
177.019 177.287 178.019 178.331 179.094 179.491 180.27 180.74 181.495 
181.987 182.683 183.126 183.737 174.523 175.6 175.188 175.466 176.74 
176.318 176.662 176.221 176.587 177.961 177.527 177.93 177.486 177.892 
177.434 177.83 179.185 178.773 179.186 178.776 179.211 178.77 179.168 
178.686 179.036 180.363 179.993 180.431 180.037 180.482 180.066 180.461 
180.004 180.343 179.858 180.172 181.481 181.17 181.666 181.297 181.748 
181.327 181.697 181.248 181.57 181.122 181.428 180.963 181.234 182.486 
182.257 182.763 182.483 182.923 182.557 182.89 182.452 182.732 182.3 
182.588 182.163 182.415 181.951 182.134 183.363 183.19 183.663 183.465 
183.886 183.624 183.952 183.584 183.833 183.419 183.666 183.267 183.501 
183.073 183.238 182.764 182.887 184.171 184.015 184.465 184.286 184.698 
184.496 184.853 184.572 184.835 184.464 184.667 184.282 184.469 184.087 
184.235 183.814 183.922 183.47 183.58 184.783 185.812 185.226 185.064 
186.771 186.234 186.051 185.467 185.279 187.489 187.102 186.939 186.424 
186.219 185.659 185.435 187.833 187.654 187.512 187.183 186.991 186.541 
186.291 185.745 185.426 187.889 187.849 187.767 187.61 187.485 187.195 
186.977 186.522 186.175 185.626 185.237 187.991 187.936 188.012 187.884 
187.936 187.694 187.607 187.179 186.866 186.316 185.901 185.371 184.988 
188.315 188.206 188.408 188.271 188.455 188.248 188.281 187.882 187.611 
187.022 186.563 185.992 185.567 185.093 184.723 188.704 188.608 188.767 
188.677 188.769 188.685 188.653 188.457 188.159 187.712 187.181 186.621 
186.115 185.632 185.238 184.803 184.424 188.975 188.93 188.984 188.917 
188.847 188.79 188.606 188.554 188.223 188.024 187.507 187.11 186.565 
186.129 185.707 185.299 184.933 184.494 184.103 184.744 184.954 185.197 
185.822 184.991 185.351 186.033 186.26 186.786 184.825 185.254 185.879 
186.298 186.846 187.107 187.478 184.563 184.969 185.455 185.936 186.439 
186.93 187.353 187.639 187.83 184.311 184.675 185.097 185.471 185.919 
186.406 186.894 187.35 187.653 187.846 187.89 184.029 184.411 184.861 
185.183 185.647 186.009 186.558 186.956 187.392 187.634 187.787 187.851 
187.906 183.674 184.077 184.514 184.915 185.398 185.807 186.382 186.77 
187.268 187.493 187.728 187.781 187.884 187.946 188.14 183.308 183.678 
184.05 184.482 184.924 185.438 185.973 186.508 186.99 187.362 187.62 
187.761 187.884 187.954 188.149 188.273 188.544 182.959 183.298 183.627 
184.009 184.401 184.883 185.351 185.927 186.367 186.894 187.18 187.532 
187.713 187.924 188.137 188.293 188.549 188.675 188.881 174.405 175.301 
175.048 175.427 176.297 175.988 176.38 176.072 176.429 177.401 177.061 
177.478 177.106 177.47 177.101 177.434 178.505 178.194 178.628 178.253 
178.605 178.194 178.513 178.121 178.439 179.526 179.25 179.667 179.357 
179.711 179.334 179.648 179.237 179.565 179.158 179.501 180.489 180.214 
180.571 180.301 180.659 180.379 180.75 180.396 180.757 180.336 180.694 
180.266 180.637 181.37 181.13 181.456 181.173 181.525 181.282 181.724 
181.473 181.916 181.554 181.929 181.489 181.847 181.423 181.81 182.077 
181.931 182.286 182.052 182.419 182.175 182.635 182.427 182.928 182.668 
183.098 182.72 183.084 182.651 183.024 182.607 182.988 182.594 182.541 
182.915 182.806 183.194 183.041 183.473 183.31 183.766 183.592 184.025 
183.79 184.185 183.857 184.236 183.836 184.194 183.763 184.069 173.852 
173.247 173.983 174.789 172.528 173.373 174.287 174.968 175.788 171.683 
172.625 173.655 174.473 175.397 176.032 176.88 170.798 171.748 172.878 
173.843 174.919 175.656 176.565 177.154 177.986 170.142 170.926 172.092 
173.093 174.332 175.193 176.205 176.839 177.701 178.259 179.054 169.877 
170.432 171.53 172.406 173.712 174.637 175.774 176.481 177.386 177.97 
178.811 179.337 180.085 169.839 170.262 171.217 171.931 173.156 174.06 
175.274 176.063 177.037 177.652 178.494 179.069 179.856 180.346 180.992 
169.867 170.221 171.045 171.618 172.69 173.513 174.715 175.571 176.63 
177.306 178.151 178.724 179.48 180.038 180.709 181.173 181.696 169.985 
170.265 171.026 171.452 172.386 173.051 174.169 175.008 176.119 176.883 
177.778 178.369 179.091 179.629 180.284 180.806 181.372 181.798 182.233 
170.341 171.324 170.991 171.395 172.416 172.052 172.475 172.152 172.718 
173.559 173.182 173.648 173.305 173.909 173.645 174.431 174.808 174.39 
174.897 174.533 175.184 174.902 175.701 175.493 176.341 176.133 175.712 
176.26 175.865 176.548 176.231 177.02 176.77 177.551 177.329 178.001 
177.427 177.051 177.644 177.274 177.985 177.654 178.431 178.112 178.819 
178.507 179.091 178.807 179.305 178.686 178.337 178.942 178.625 179.331 
179.06 179.807 179.508 180.14 179.769 180.258 179.892 180.327 180.024 
180.465 179.903 179.588 180.177 179.88 180.531 180.299 180.967 180.745 
181.289 180.983 181.37 181.016 181.365 181.043 181.42 181.146 181.53 
180.991 180.755 181.333 181.071 181.659 181.415 181.985 181.769 182.236 
181.977 182.3 181.999 182.28 182 182.309 182.052 182.36 182.113 
182.389 181.728 183.049 182.304 182.145 184.456 183.665 183.476 182.702 
182.477 185.741 184.984 184.692 183.975 183.707 182.984 182.735 186.739 
186.085 185.694 185.058 184.767 184.133 183.849 183.174 182.891 187.511 
186.971 186.609 185.986 185.714 185.132 184.884 184.236 183.896 183.226 
182.894 188.156 187.759 187.536 186.927 186.637 186.048 185.806 185.224 
184.898 184.219 183.83 183.175 182.862 188.627 188.401 188.284 187.816 
187.472 186.903 186.545 186.036 185.702 185.145 184.75 184.114 183.751 
183.154 182.881 188.872 188.769 188.647 188.387 188.042 187.594 187.171 
186.69 186.33 185.851 185.484 184.941 184.547 183.993 183.661 183.147 
182.883 188.939 188.877 188.693 188.565 188.265 188.002 187.663 187.279 
186.976 186.508 186.184 185.64 185.247 184.697 184.319 183.837 183.536 
183.097 182.849 181.693 182.008 182.218 182.998 182.379 182.572 183.433 
183.649 184.491 182.828 183.013 183.918 184.147 185.129 185.258 185.979 
183.169 183.46 184.354 184.628 185.634 185.906 186.755 186.699 187.115 
183.196 183.666 184.523 184.921 185.815 186.254 187.087 187.316 187.748 
187.603 187.767 182.97 183.533 184.356 184.876 185.649 186.19 186.913 
187.371 187.797 187.946 188.068 188.033 188.175 182.711 183.244 184.026 
184.575 185.279 185.833 186.48 187.018 187.519 187.84 188.075 188.155 
188.303 188.358 188.565 182.493 182.974 183.697 184.217 184.865 185.379 
185.975 186.522 187.145 187.603 188.109 188.26 188.554 188.517 188.733 
188.726 188.891 182.259 182.717 183.372 183.871 184.467 184.942 185.478 
185.999 186.659 187.258 187.999 188.392 188.891 188.902 189.11 188.979 
189.086 189.006 189.048 180.966 179.973 180.736 181.253 178.843 179.681 
180.19 180.999 181.562 177.52 178.426 178.852 179.778 180.295 181.269 
181.902 176.107 177.014 177.348 178.279 178.666 179.756 180.349 181.522 
182.157 174.716 175.59 175.962 176.812 177.164 178.086 178.59 179.763 
180.424 181.647 182.189 173.417 174.227 174.658 175.52 175.991 176.784 
177.264 178.147 178.759 179.864 180.5 181.603 182.047 172.264 172.992 
173.382 174.239 174.741 175.632 176.129 176.967 177.482 178.39 178.998 
180.003 180.562 181.503 181.893 171.188 171.887 172.241 173.009 173.426 
174.302 174.754 175.69 176.161 177.114 177.66 178.635 179.221 180.143 
180.624 181.433 181.769 170.133 170.822 171.191 171.911 172.293 173.039 
173.432 174.271 174.739 175.693 176.266 177.279 177.901 178.868 179.412 
180.245 180.631 181.347 181.612 169.675 169.41 169.934 170.761 169.25 
169.716 170.552 171.074 171.885 169.205 169.582 170.378 170.882 171.727 
172.209 173.009 169.314 169.585 170.338 170.754 171.657 172.126 173.036 
173.437 174.329 169.593 169.783 170.557 170.842 171.801 172.2 173.265 
173.632 174.648 174.943 175.927 170.027 170.163 171.014 171.219 172.214 
172.511 173.619 173.974 175.069 175.376 176.392 176.647 177.609 170.589 
170.678 171.561 171.761 172.778 173.025 174.066 174.363 175.391 175.743 
176.734 177.076 178.003 178.281 179.117 171.191 171.262 172.094 172.303 
173.287 173.561 174.535 174.793 175.704 176.006 176.92 177.296 178.193 
178.558 179.358 179.64 180.32 171.733 171.82 172.573 172.776 173.666 
173.967 174.88 175.174 176.024 176.297 177.143 177.465 178.328 178.68 
179.468 179.781 180.445 180.703 181.279 172.23 173.325 172.862 173.119 
174.586 174.057 174.337 173.862 174.207 175.959 175.387 175.658 175.137 
175.475 175.019 175.391 177.398 176.804 177.086 176.513 176.842 176.326 
176.697 176.218 176.558 178.88 178.282 178.594 177.992 178.335 177.76 
178.145 177.599 177.975 177.413 177.726 180.309 179.767 180.084 179.508 
179.843 179.272 179.644 179.092 179.473 178.901 179.226 178.613 178.894 
181.557 181.128 181.449 180.946 181.252 180.725 181.053 180.543 180.883 
180.364 180.654 180.088 180.314 179.733 179.955 182.61 182.289 182.645 
182.234 182.545 182.066 182.368 181.883 182.191 181.701 181.961 181.434 
181.619 181.066 181.223 180.694 180.87 183.501 183.27 183.658 183.354 
183.694 183.296 183.603 183.154 183.45 182.973 183.219 182.698 182.868 
182.317 182.451 181.911 182.053 181.543 181.694 182.309 182.7 182.804 
183.409 183.098 183.204 183.808 183.909 184.468 183.534 183.631 184.237 
184.309 184.871 184.929 185.465 183.953 184.098 184.783 184.825 185.475 
185.449 186.107 186.065 186.739 184.228 184.484 185.259 185.413 186.173 
186.193 186.963 186.902 187.689 187.567 188.227 184.34 184.669 185.412 
185.746 186.476 186.75 187.439 187.632 188.286 188.403 188.945 188.892 
189.162 184.356 184.696 185.316 185.704 186.283 186.721 187.225 187.668 
188.066 188.491 188.797 189.134 189.281 189.362 189.3 184.262 184.62 
185.143 185.499 185.962 186.359 186.789 187.216 187.564 187.97 188.216 
188.617 188.788 189.115 189.157 189.261 189.178 184.064 184.437 184.916 
185.264 185.689 186.032 186.485 186.845 187.321 187.613 187.997 188.193 
188.471 188.665 188.857 189.023 189.08 189.132 189.082 161.984 162.117 
161.704 161.187 162.564 161.974 161.463 161.09 161.034 163.478 162.713 
162.343 161.683 161.613 161.337 161.727 164.735 163.909 163.689 162.888 
162.851 162.236 162.473 162.24 162.763 166.091 165.293 165.146 164.369 
164.363 163.647 163.787 163.229 163.587 163.354 163.975 167.498 166.714 
166.603 165.834 165.827 165.133 165.255 164.625 164.9 164.42 164.933 
164.722 165.432 168.884 168.16 168.079 167.307 167.275 166.565 166.677 
166.061 166.32 165.788 166.189 165.814 166.354 166.182 166.778 170.099 
169.491 169.42 168.731 168.666 167.981 168.043 167.448 167.667 167.155 
167.47 167.036 167.417 167.11 167.551 167.39 167.873 171.151 170.625 
170.577 169.979 169.919 169.294 169.313 168.746 168.891 168.407 168.641 
168.216 168.51 168.144 168.507 168.221 168.658 168.471 168.964 161.816 
161.128 161.476 161.717 161.104 161.101 161.456 161.724 162.279 161.887 
161.568 161.967 161.86 162.416 162.567 163.213 162.923 162.561 162.98 
162.707 163.178 162.996 163.511 163.577 164.186 164.078 163.617 163.998 
163.723 164.165 163.894 164.292 164.092 164.601 164.629 165.274 165.491 
164.884 165.164 164.739 165.133 164.833 165.239 164.969 165.42 165.252 
165.83 165.824 166.449 166.826 166.289 166.488 165.97 166.237 165.825 
166.188 165.901 166.347 166.136 166.628 166.49 166.997 166.962 167.454 
167.919 167.485 167.68 167.22 167.417 166.952 167.205 166.853 167.238 
167.019 167.466 167.286 167.706 167.555 167.966 167.9 168.333 168.997 
168.55 168.788 168.353 168.593 168.117 168.346 167.9 168.216 167.907 
168.323 168.102 168.517 168.301 168.694 168.51 168.935 168.824 169.282 
162.209 162.103 162.254 162.489 162.614 162.446 162.658 162.55 162.714 
163.495 163.185 163.377 163.019 163.146 162.947 163.395 164.423 164.097 
164.298 163.889 163.969 163.583 163.917 163.927 164.752 165.458 165.049 
165.272 164.847 164.975 164.506 164.75 164.546 165.218 165.415 166.319 
166.58 166.139 166.361 165.903 166.121 165.618 165.919 165.52 166.1 
166.002 166.843 166.963 167.817 167.561 167.201 167.408 167.01 167.241 
166.81 167.155 166.766 167.329 167.063 167.843 167.721 168.616 168.592 
169.515 168.425 168.098 168.316 167.986 168.206 167.86 168.159 167.884 
168.399 168.233 168.966 168.843 169.704 169.599 170.526 170.465 171.398 
169.345 168.978 169.219 168.884 169.149 168.802 169.108 168.811 169.291 
169.155 169.877 169.855 170.71 170.683 171.559 171.506 172.35 172.303 
173.069 180.54 179.449 179.85 179.513 178.202 178.65 178.281 178.743 
178.365 176.921 177.348 176.913 177.398 177.003 177.509 177.08 175.646 
176.058 175.586 176.014 175.581 176.085 175.69 176.179 175.712 174.348 
174.765 174.305 174.714 174.274 174.713 174.33 174.803 174.401 174.821 
174.343 173.104 173.475 173.007 173.42 172.983 173.428 173.037 173.501 
173.13 173.558 173.141 173.506 173.069 171.961 172.271 171.763 172.128 
171.651 172.092 171.653 172.154 171.749 172.261 171.865 172.316 171.903 
172.291 171.911 170.875 171.147 170.616 170.922 170.415 170.779 170.3 
170.734 170.28 170.795 170.387 170.945 170.561 171.068 170.68 171.135 
170.79 169.905 170.105 169.593 169.832 169.358 169.636 169.188 169.488 
169.039 169.397 168.99 169.466 169.138 169.675 169.359 169.857 169.526 
170.003 169.713 
POINT_DATA 1002
SCALARS Distance double
LOOKUP_TABLE default
172.628 171.652 171.519 172.566 171.428 173.801 172.598 171.459 173.858 
175.135 172.711 171.531 173.992 175.309 176.539 172.818 171.597 174.143 
175.512 176.799 177.988 173.041 171.864 174.343 175.721 177.074 178.324 
179.464 173.487 172.337 174.73 176.018 177.345 178.648 179.814 180.816 
173.946 172.819 175.172 176.412 177.645 178.92 180.101 181.081 181.937 
174.333 173.321 175.49 176.741 177.951 179.154 180.325 181.297 182.108 
182.885 174.753 173.882 175.772 176.976 178.206 179.362 180.486 181.485 
182.287 183.004 183.704 170.666 170.457 169.56 169.259 168.251 170.311 
167.949 166.859 169.092 170.312 166.648 165.519 167.818 169.054 170.325 
165.338 164.225 166.484 167.716 169.045 170.421 164.181 163.17 165.136 
166.329 167.789 169.283 170.795 163.556 162.595 164.225 165.145 166.631 
168.224 169.725 171.29 163.319 162.36 163.884 164.489 165.733 167.262 
168.663 170.182 171.838 163.048 162.242 163.607 164.124 165.119 166.462 
167.725 169.124 170.848 172.533 162.534 163.007 162.56 162.947 162.868 
163.541 163.732 164.061 163.885 164.472 165.393 165.739 165.049 165.178 
165.758 166.937 167.174 166.51 166.229 166.464 167.032 168.24 168.61 
167.888 167.622 167.693 168.024 168.484 169.968 170.437 169.625 169.476 
169.591 169.832 170.049 170.36 171.941 172.297 171.66 171.516 171.517 
171.616 171.765 171.97 172.232 173.552 173.76 173.366 173.196 172.982 
172.745 172.704 172.99 173.399 173.694 174.938 174.691 175.988 174.164 
175.643 177.141 173.525 175.021 176.895 178.394 173.3 174.436 176.471 
178.319 179.587 173.656 174.378 176.029 178.011 179.501 180.69 174.168 
174.835 175.929 177.558 179.155 180.516 181.745 174.492 175.333 176.22 
177.395 178.777 180.199 181.541 182.697 174.668 175.624 176.557 177.562 
178.684 179.945 181.26 182.494 183.537 174.812 175.785 176.761 177.747 
178.755 179.85 181.019 182.209 183.35 184.325 175.877 177.094 177.017 
178.35 178.35 178.311 179.58 179.633 179.654 179.543 180.815 180.902 
180.915 180.819 180.671 182.01 182.178 182.167 182.015 181.881 181.735 
183.019 183.264 183.331 183.178 183.008 182.879 182.635 183.859 184.115 
184.282 184.249 184.075 183.919 183.709 183.372 184.652 184.887 185.093 
185.188 185.073 184.857 184.636 184.364 184.035 185.374 185.657 186.409 
186.642 187.266 185.859 187.404 187.8 186.774 186.028 187.761 187.943 
187.376 186.826 186.023 187.847 187.883 187.697 187.388 186.721 185.786 
188.081 188.014 188.114 188.003 187.435 186.447 185.474 188.525 188.41 
188.623 188.632 188.214 187.189 186.059 185.172 188.894 188.812 188.887 
188.804 188.528 187.738 186.62 185.67 184.876 189.087 189.031 188.976 
188.685 188.335 187.811 186.976 186.102 185.354 184.573 184.535 185.686 
184.643 185.728 184.607 186.687 185.431 184.444 186.481 187.371 185.038 
184.212 185.901 186.94 187.751 184.78 183.945 185.479 186.383 187.365 
187.849 184.513 183.634 185.295 186.172 187.124 187.692 187.826 184.09 
183.303 184.943 185.959 187.019 187.667 187.829 188.001 183.646 182.977 
184.418 185.415 186.549 187.405 187.792 188.037 188.414 183.273 182.631 
183.967 184.821 185.823 186.734 187.405 187.947 188.432 188.805 174.647 
175.689 175.572 176.71 176.615 176.748 177.866 177.728 177.866 177.801 
178.992 178.8 179.034 178.922 178.821 179.963 179.822 180.053 180.054 
179.975 179.904 180.864 180.787 180.894 181.038 181.166 181.135 181.048 
181.743 181.586 181.767 181.919 182.219 182.367 182.289 182.207 182.47 
182.178 182.65 182.844 183.145 183.424 183.507 183.46 183.408 173.152 
174.152 172.44 173.528 171.619 175.184 172.73 170.703 174.708 176.305 
171.816 169.879 174.091 175.96 177.437 171.089 169.461 173.376 175.532 
177.127 178.545 170.748 169.425 172.759 175.004 176.79 178.245 179.649 
170.615 169.48 172.291 174.422 176.399 177.927 179.316 180.608 170.571 
169.553 171.952 173.829 175.896 177.598 178.934 180.195 181.328 170.675 