# vtk DataFile Version 4.0
vtk output
ASCII
DATASET POLYDATA
POINTS 1002 float
-120.515 -118.602 53.984 -120.375 -117.22 53.3291 -119.898 -117.478 53.6533 
-120.004 -118.863 54.473 -119.343 -117.75 54.1507 -120.64 -119.852 55.0907 
-119.466 -119.16 55.2116 -118.823 -118.059 54.8358 -120.127 -120.195 55.8307 
-120.839 -121.13 56.6513 -119.006 -119.571 56.1024 -118.403 -118.493 55.6741 
-119.605 -120.616 56.7207 -120.305 -121.598 57.533 -120.978 -122.581 58.3216 
-118.554 -120.143 57.0517 -117.953 -119.127 56.5501 -119.107 -121.189 57.617 
-119.755 -122.125 58.4553 -120.414 -123.068 59.3293 -120.905 -124.034 60.0154 
-118.023 -120.847 58.0151 -117.474 -119.942 57.3543 -118.54 -121.864 58.6387 
-119.172 -122.778 59.4418 -119.852 -123.615 60.4321 -120.368 -124.499 61.2235 
-120.682 -125.46 61.7112 -117.518 -121.616 58.9789 -117.01 -120.807 58.2029 
-117.961 -122.554 59.8063 -118.503 -123.478 60.6461 -119.154 -124.329 61.5724 
-119.74 -125.123 62.4251 -120.113 -125.983 62.9506 -120.395 -126.913 63.2628 
-116.972 -122.397 60.0152 -116.467 -121.623 59.236 -117.388 -123.28 60.9189 
-117.81 -124.178 61.8437 -118.289 -125.084 62.6735 -118.815 -125.94 63.3992 
-119.289 -126.697 63.9717 -119.674 -127.434 64.3887 -120.082 -128.13 64.7475 
-116.289 -123.188 61.1001 -115.875 -122.424 60.3354 -116.65 -124.053 61.922 
-117.014 -124.932 62.8053 -117.386 -125.8 63.6142 -117.764 -126.679 64.2512 
-118.213 -127.479 64.7771 -118.708 -128.118 65.2755 -119.216 -128.62 65.7681 
-119.75 -129.027 66.1927 -115.593 -123.976 62.0776 -115.323 -123.232 61.3237 
-115.824 -124.791 62.8325 -116.089 -125.652 63.6266 -116.453 -126.484 64.4215 
-116.822 -127.265 65.1079 -117.198 -128.026 65.6612 -117.678 -128.716 66.1455 
-118.231 -129.238 66.6204 -118.793 -129.588 67.0713 -119.35 -129.85 67.4159 
-119.821 -115.911 52.8965 -119.292 -116.236 53.3123 -119.109 -114.719 52.328 
-118.471 -115.104 52.8865 -118.34 -113.674 51.8244 -118.655 -116.579 53.7905 
-117.528 -114.073 52.4093 -117.574 -112.443 51.6944 -117.71 -115.581 53.2845 
-118.072 -116.993 54.3442 -116.612 -112.853 52.0886 -116.778 -110.987 51.7361 
-116.626 -114.72 52.6826 -116.98 -116.219 53.662 -117.562 -117.58 55.0718 
-115.837 -111.468 51.9444 -116.035 -109.756 51.5967 -115.691 -113.585 52.3567 
-115.755 -115.504 53.065 -116.324 -116.973 54.3336 -117.07 -118.386 55.8938 
-115.227 -110.293 51.9545 -115.434 -108.861 51.5187 -115.073 -112.19 52.4369 
-114.882 -114.309 52.944 -115.101 -116.215 53.8398 -115.897 -117.836 55.2266 
-116.658 -119.348 56.7192 -114.703 -109.411 52.3208 -114.886 -108.093 51.8581 
-114.631 -111.025 52.8885 -114.479 -112.893 53.3069 -114.446 -114.934 53.8297 
-114.918 -116.989 54.8552 -115.673 -118.793 56.2075 -116.228 -120.283 57.6752 
-114.26 -108.763 53.0493 -114.371 -107.546 52.5386 -114.248 -110.237 53.7034 
-114.235 -111.83 54.1027 -114.254 -113.587 54.3456 -114.487 -115.683 54.9569 
-114.945 -117.867 55.9888 -115.414 -119.68 57.267 -115.741 -121.121 58.7754 
-113.949 -108.445 53.8774 -113.998 -107.404 53.3606 -113.953 -109.736 54.6126 
-113.986 -111.139 55.1135 -114.104 -112.589 55.2812 -114.337 -114.334 55.5765 
-114.644 -116.508 56.2068 -114.947 -118.689 57.0967 -115.182 -120.482 58.3497 
-115.316 -121.946 59.8764 -113.719 -108.146 54.5684 -113.656 -109.219 55.2432 
-113.274 -108.987 55.9892 -113.077 -110.06 56.5574 -112.487 -109.782 57.4204 
-113.642 -110.468 55.9292 -112.382 -111.064 57.7212 -112.127 -110.789 58.6773 
-113.162 -111.31 57.0101 -113.779 -111.793 56.2686 -112.377 -112.436 58.9517 
-112.863 -112.194 59.7622 -112.814 -112.497 58.0771 -113.572 -112.632 57.3409 
-114.094 -113.253 56.4945 -113.272 -113.947 60.1821 -114.028 -113.784 60.7352 
-113.133 -113.986 59.3121 -113.627 -113.897 58.4103 -114.188 -114.209 57.6611 
-114.5 -115.201 56.8759 -114.532 -115.503 60.9301 -115.028 -115.502 61.4285 
-114.201 -115.559 60.2303 -114.304 -115.582 59.3194 -114.658 -115.764 58.5663 
-114.872 -116.467 57.9703 -114.873 -117.609 57.4201 -115.832 -117.354 61.2185 
-116.094 -117.396 61.7165 -115.568 -117.385 60.6834 -115.387 -117.571 60.0652 
-115.39 -117.89 59.521 -115.402 -118.368 59.1166 -115.225 -119.1 58.7122 
-115.048 -119.902 58.4147 -116.843 -119.35 61.6238 -117.102 -119.279 61.9048 
-116.562 -119.407 61.3384 -116.166 -119.61 61.1129 -115.762 -120.023 60.9709 
-115.445 -120.469 60.8435 -115.161 -120.905 60.539 -114.955 -121.379 60.1346 
-114.99 -121.757 59.9108 -117.228 -121.133 62.4475 -117.621 -120.959 62.4132 
-116.797 -121.228 62.4864 -116.242 -121.358 62.5835 -115.59 -121.676 62.72 
-114.927 -122.08 62.7944 -114.387 -122.434 62.6148 -114.191 -122.792 62.1434 
-114.396 -123.107 61.6758 -114.828 -123.243 61.4319 -114.846 -124.496 62.6951 
-114.152 -124.527 62.9036 -114.202 -125.663 64.0702 -113.407 -124.324 63.286 
-113.316 -125.629 64.3259 -113.568 -126.641 65.6397 -113.095 -123.929 63.8315 
-112.504 -125.327 64.6989 -112.691 -126.582 65.9544 -113.002 -127.626 67.4799 
-113.567 -123.575 64.2742 -112.519 -124.922 65.1606 -112.165 -126.28 66.3546 
-112.246 -127.553 67.9613 -112.357 -128.726 69.2779 -114.421 -123.288 64.4415 
-113.344 -124.676 65.5942 -112.524 -125.939 66.8859 -111.917 -127.132 68.622 
-111.645 -128.469 69.9432 -111.552 -129.769 70.8233 -115.196 -123.005 64.3704 
-114.156 -124.507 65.8778 -113.3 -125.777 67.4047 -112.258 -126.686 69.3825 
-111.356 -127.776 70.8298 -110.843 -129.296 71.5359 -110.576 -130.592 72.2766 
-115.92 -122.846 64.1384 -114.799 -124.326 65.8835 -113.943 -125.646 67.6337 
-112.953 -126.524 69.8025 -111.765 -127.272 71.5661 -110.772 -128.552 72.3173 
-110.009 -130.03 72.917 -109.654 -131.074 73.7252 -116.626 -122.783 63.8546 
-115.564 -124.227 65.6507 -114.633 -125.463 67.5162 -113.757 -126.434 69.6822 
-112.664 -127.234 71.6752 -111.526 -128.252 72.7219 -110.414 -129.438 73.3871 
-109.523 -130.424 74.2788 -109.295 -131.175 75.0469 -117.25 -122.639 63.586 
-116.379 -124.147 65.33 -115.453 -125.325 67.2311 -114.588 -126.259 69.2757 
-113.617 -127.228 71.2662 -112.599 -128.375 72.5727 -111.54 -129.376 73.4192 
-110.447 -129.954 74.4609 -109.713 -130.409 75.5073 -109.672 -131.06 76.1098 
-115.024 -125.27 63.4892 -114.393 -126.409 65.0291 -115.164 -126.097 64.3313 
-113.798 -127.434 66.8265 -114.538 -127.264 66.0277 -115.439 -126.989 65.1856 
-113.135 -128.588 68.6442 -113.913 -128.422 67.808 -114.838 -128.24 66.8725 
-115.875 -127.817 65.9757 -112.352 -129.805 70.2633 -113.152 -129.67 69.4397 
-114.119 -129.51 68.4499 -115.268 -129.08 67.5776 -116.304 -128.515 66.6693 
-111.476 -130.794 71.8197 -112.409 -130.757 71.0499 -113.327 -130.733 69.9383 
-114.493 -130.385 68.9973 -115.739 -129.72 68.2453 -116.772 -129.19 67.2447 
-110.53 -131.431 73.3116 -111.748 -131.483 72.6083 -112.794 -131.613 71.4904 
-113.818 -131.588 70.3441 -115.085 -131.01 69.5589 -116.33 -130.337 68.7522 
-117.343 -129.83 67.674 -109.896 -131.74 74.6071 -111.175 -131.927 73.8824 
-112.477 -132.072 72.8698 -113.51 -132.333 71.7017 -114.613 -132.159 70.7245 
-115.856 -131.538 69.921 -116.972 -130.939 68.9988 -117.928 -130.316 68.0039 
-109.951 -131.828 75.7029 -110.969 -132.214 74.9691 -112.283 -132.322 74.0253 
-113.411 -132.608 72.9563 -114.437 -132.844 71.9031 -115.552 -132.568 70.963 
-116.616 -132.027 70.0448 -117.57 -131.419 69.1288 -118.496 -130.642 68.2761 
-110.507 -131.541 76.7838 -111.049 -132.316 76.2388 -111.67 -132.162 77.305 
-112.44 -132.715 76.6612 -113.084 -132.598 77.5761 -112.16 -132.551 75.3601 
-114.039 -132.975 76.5827 -114.912 -132.796 77.2568 -113.543 -132.904 75.5915 
-113.352 -132.719 74.2834 -115.765 -133.351 75.8919 -116.858 -133.002 76.5518 
-115.002 -133.578 75.2698 -114.568 -133.437 74.3643 -114.42 -133.175 73.1462 
-117.345 -133.779 75.3956 -118.487 -133.259 76.0225 -116.369 -134.408 74.8205 
-115.812 -134.471 74.1817 -115.613 -133.957 73.2313 -115.537 -133.308 72.0588 
-118.996 -134.114 75.1944 -120.016 -133.623 75.5187 -117.879 -134.786 74.7396 
-117.118 -135.019 74.0983 -116.878 -134.505 73.2542 -116.753 -133.709 72.1622 
-116.6 -132.911 71.0069 -120.821 -134.522 74.6077 -121.501 -134.067 74.7822 
-119.853 -134.932 74.3424 -118.868 -134.967 73.7809 -118.339 -134.445 73.0531 
-118.062 -133.76 72.1651 -117.717 -133.129 71.05 -117.514 -132.348 69.9887 
-122.234 -134.731 73.781 -122.65 -134.205 74.0575 -121.6 -135.075 73.4726 
-120.691 -135.005 72.9226 -119.923 -134.41 72.3059 -119.448 -133.692 71.7544 
-118.977 -133.145 70.9671 -118.574 -132.48 69.9714 -118.45 -131.564 69.0795 
-123.117 -134.397 73.1312 -123.536 -133.893 73.4931 -122.604 -134.785 72.7344 
-121.862 -134.922 72.1335 -121.099 -134.581 71.4684 -120.582 -133.87 71.0258 
-120.166 -133.166 70.5653 -119.74 -132.451 69.8058 -119.477 -131.551 68.9667 
-119.398 -130.618 68.2039 -110.435 -130.42 76.6765 -111.268 -130.893 77.3587 
-111.543 -129.941 76.8824 -112.291 -130.3 77.5074 -112.621 -129.857 76.7091 
-112.376 -131.613 77.8505 -113.447 -130.024 77.3007 -113.735 -129.987 76.2253 
-113.539 -130.988 77.9747 -113.993 -132.186 78.1055 -114.861 -130.009 76.833 
-115.188 -129.969 75.4391 -115.102 -130.567 77.7453 -115.564 -131.716 78.2549 
-116.184 -132.562 77.8411 -116.47 -130.009 76.0137 -116.754 -129.668 74.4104 
-116.649 -130.386 77.1737 -117.209 -131.305 77.8535 -117.775 -132.362 78.0054 
-118.196 -132.862 77.1884 -117.873 -129.826 74.7722 -117.925 -129.182 73.2887 
-117.884 -130.263 76.1702 -118.217 -130.863 76.9607 -118.881 -131.894 77.4132 
-119.444 -132.703 77.3253 -119.72 -133.077 76.477 -118.873 -129.437 73.3128 
-118.724 -128.692 72.2014 -118.969 -130.02 74.7063 -119.02 -130.413 75.7819 
-119.497 -131.083 76.4168 -120.336 -132.031 76.8104 -120.884 -132.75 76.5687 
-121.138 -133.345 75.7002 -119.69 -128.965 72.0063 -119.529 -128.27 71.224 
-120.021 -129.614 73.0938 -120.197 -130.005 74.3453 -120.436 -130.345 75.332 
-121.171 -131.043 75.9855 -121.963 -131.952 76.2215 -122.282 -132.785 75.7849 
-122.412 -133.564 74.91 -120.557 -128.452 71.0178 -120.463 -127.793 70.3639 
-120.975 -129.087 71.7824 -121.432 -129.539 72.873 -121.708 -129.797 74.0784 
[...]
CELL_DATA 2000
SCALARS Distance double
LOOKUP_TABLE default
175.667 175.626 176.064 176.908 175.656 176.064 176.96 177.365 178.285 
175.851 176.19 177.134 177.496 178.474 178.857 179.844 176.204 176.49 
177.458 177.763 178.754 179.102 180.112 180.471 181.419 176.646 176.898 
177.868 178.142 179.13 179.437 180.454 180.78 181.753 182.033 182.894 
177.163 177.374 178.338 178.581 179.57 179.845 180.861 181.163 182.149 
182.413 183.288 183.489 184.271 177.7 177.899 178.843 179.071 180.035 
180.291 181.259 181.553 182.491 182.785 183.625 183.864 184.599 184.805 
185.493 178.211 178.406 179.3 179.538 180.44 180.709 181.59 181.883 
182.72 183.033 183.807 184.104 184.796 185.052 185.684 185.919 186.508 
178.707 178.879 179.693 179.919 180.73 181.013 181.816 182.124 182.886 
183.189 183.899 184.203 184.875 185.17 185.794 186.052 186.619 186.841 
187.346 174.802 173.411 174.336 174.762 171.99 172.924 173.381 174.295 
174.751 170.582 171.495 171.921 172.874 173.353 174.316 174.881 169.114 
170.033 170.421 171.397 171.878 172.881 173.479 174.516 175.199 167.665 
168.527 168.915 169.89 170.385 171.397 172.004 173.082 173.821 174.901 
175.654 166.474 167.18 167.581 168.454 168.971 169.927 170.536 171.601 
172.382 173.524 174.385 175.435 176.216 165.599 166.167 166.599 167.306 
167.851 168.641 169.257 170.195 171.005 172.128 173.086 174.201 175.089 
176.054 176.801 165.009 165.468 165.984 166.547 167.16 167.756 168.393 
169.102 169.902 170.867 171.866 172.963 173.94 174.95 175.772 176.658 
177.362 164.762 165.084 165.687 166.128 166.808 167.277 167.933 168.452 
169.189 169.93 170.87 171.842 172.852 173.853 174.754 175.663 176.445 
177.258 177.935 164.962 165.679 165.483 165.887 166.275 166.172 166.572 
166.484 166.964 166.916 166.726 167.166 167.115 167.621 167.559 168.058 
168.244 167.652 168.112 167.816 168.383 168.24 168.819 168.701 169.313 
170.24 169.369 169.773 169.107 169.645 169.217 169.854 169.6 170.325 
170.156 170.973 172.352 171.475 171.847 171.015 171.505 170.8 171.447 
170.928 171.726 171.377 172.261 172.026 172.933 174.45 173.595 174.045 
173.173 173.722 172.885 173.585 172.851 173.693 173.086 173.975 173.499 
174.361 174.03 174.85 176.513 175.727 176.234 175.407 175.972 175.158 
175.824 175.087 175.84 175.178 175.923 175.326 176.024 175.534 176.221 
175.867 176.553 178.302 177.68 178.118 177.457 177.888 177.229 177.688 
177.097 177.582 177.06 177.501 177.024 177.433 177.029 177.498 177.178 
177.725 177.452 178.021 178.826 178.523 179.055 179.786 178.206 178.685 
179.348 179.916 180.605 178.066 178.372 178.902 179.399 180.09 180.728 
181.506 178.208 178.364 178.845 179.077 179.73 180.246 181.106 181.728 
182.567 178.44 178.625 179.218 179.28 179.923 180.141 180.952 181.402 
182.251 182.793 183.529 178.626 178.893 179.609 179.748 180.443 180.555 
181.261 181.441 182.124 182.483 183.141 183.643 184.224 178.85 179.129 
179.886 180.099 180.834 181.039 181.738 181.848 182.405 182.5 183.01 
183.29 183.816 184.249 184.715 179.101 179.403 180.191 180.395 181.127 
181.353 182.087 182.268 182.881 182.908 183.394 183.4 183.87 184.006 
184.454 184.731 185.142 179.282 179.646 180.482 180.726 181.46 181.656 
182.361 182.566 183.232 183.366 183.948 183.948 184.444 184.359 184.769 
184.727 185.098 185.236 185.66 179.231 180.209 179.884 180.175 181.094 
180.828 181.161 180.833 181.162 182.038 181.748 182.141 181.819 182.19 
181.861 182.232 183.074 182.767 183.179 182.842 183.25 182.92 183.32 
182.962 183.307 184.023 183.795 184.196 183.887 184.279 183.978 184.382 
184.054 184.398 184.009 184.298 184.737 184.651 185.083 184.857 185.229 
184.961 185.346 185.068 185.425 185.083 185.381 184.985 185.256 185.198 
185.245 185.729 185.654 186.067 185.869 186.258 186.004 186.379 186.078 
186.414 186.059 186.348 185.942 186.184 185.567 185.64 186.16 186.203 
186.682 186.621 187.056 186.892 187.289 187.031 187.381 187.065 187.368 
187.006 187.242 186.827 187.003 186.065 186.066 186.627 186.648 187.178 
187.168 187.652 187.6 188.05 187.904 188.278 188.014 188.307 187.977 
188.205 187.833 187.993 187.579 187.7 186.622 187.833 187.202 187.206 
189.116 188.47 188.395 187.763 187.713 190.265 189.676 189.572 188.938 
188.805 188.213 188.161 191.314 190.748 190.683 190.097 190.017 189.359 
189.279 188.672 188.613 192.331 191.785 191.785 191.251 191.298 190.652 
190.599 189.885 189.755 189.09 188.9 193.369 192.844 192.906 192.394 
192.468 191.907 191.832 191.17 190.926 190.225 189.902 189.242 188.913 
194.405 193.954 194.07 193.547 193.537 192.971 192.771 192.193 191.848 
191.242 190.818 190.178 189.748 189.142 188.765 195.132 194.895 194.981 
194.607 194.479 193.932 193.57 192.975 192.546 191.996 191.567 190.994 
190.532 189.926 189.474 188.918 188.52 195.381 195.336 195.294 195.176 
194.938 194.616 194.151 193.653 193.135 192.624 192.173 191.666 191.202 
190.641 190.133 189.573 189.102 188.604 188.199 186.52 186.811 186.964 
187.697 187.204 187.263 187.946 188.227 189.01 187.701 187.659 188.274 
188.502 189.356 189.583 190.278 188.289 188.201 188.815 188.929 189.87 
190.069 190.941 190.923 191.476 188.804 188.819 189.442 189.526 190.434 
190.664 191.648 191.727 192.377 192.144 192.529 188.987 189.232 189.831 
190.027 190.704 191.028 191.858 192.249 192.951 193.002 193.359 193.119 
193.446 188.819 189.23 189.82 190.176 190.678 191.011 191.561 192.085 
192.765 193.241 193.735 193.802 194.084 193.968 194.342 188.583 188.974 
189.567 190.001 190.539 190.859 191.319 191.688 192.303 192.856 193.538 
193.941 194.381 194.457 194.745 194.746 195.046 188.458 188.765 189.324 
189.735 190.34 190.709 191.23 191.519 192.052 192.466 193.123 193.641 
194.209 194.546 194.868 194.99 195.188 195.243 195.374 179.656 180.684 
180.43 180.893 181.77 181.486 181.948 181.609 181.931 182.84 182.562 
182.986 182.656 182.957 182.57 182.804 183.857 183.59 183.976 183.65 
183.91 183.546 183.77 183.413 183.636 184.865 184.59 185.004 184.656 
184.955 184.535 184.807 184.405 184.696 184.284 184.461 185.836 185.576 
186.005 185.708 186.092 185.688 186.032 185.571 185.911 185.437 185.649 
185.085 185.068 186.675 186.456 186.807 186.617 186.984 186.757 187.087 
186.767 187.023 186.627 186.739 186.235 186.123 185.52 185.306 187.371 
187.177 187.449 187.298 187.615 187.491 187.77 187.594 187.731 187.48 
187.445 187.099 186.89 186.417 186.133 185.624 185.459 188.005 187.812 
188.083 187.914 188.258 188.11 188.427 188.211 188.342 188.038 187.97 
187.627 187.445 187.054 186.855 186.407 186.303 185.864 185.927 178.945 
178.166 179.05 180.015 177.385 178.338 179.404 180.196 181.149 176.442 
177.577 178.778 179.651 180.673 181.378 182.278 175.261 176.547 177.923 
179.019 180.171 180.951 181.898 182.52 183.349 174.169 175.334 176.764 
178.067 179.436 180.444 181.518 182.192 183.073 183.608 184.391 173.475 
174.332 175.591 176.857 178.351 179.627 180.934 181.817 182.793 183.374 
184.204 184.685 185.419 173.172 173.748 174.777 175.762 177.174 178.495 
179.987 181.149 182.295 183.055 183.919 184.486 185.268 185.719 186.355 
173.162 173.559 174.485 175.128 176.371 177.432 178.942 180.176 181.513 
182.469 183.426 184.115 184.923 185.508 186.227 186.621 187.135 173.322 
173.653 174.565 175 176.097 176.826 178.202 179.257 180.684 181.706 
182.82 183.582 184.439 185.09 185.873 186.424 187.054 187.37 187.798 
173.711 174.775 174.491 175.014 175.946 175.636 176.244 175.906 176.554 
177.285 176.895 177.561 177.22 177.987 177.658 178.577 178.803 178.344 
179.039 178.646 179.507 179.189 180.192 179.909 180.96 180.374 179.928 
180.671 180.241 181.13 180.79 181.805 181.526 182.504 182.221 183.059 
181.926 181.523 182.328 181.921 182.793 182.432 183.351 183.065 183.929 
183.648 184.366 184.059 184.676 183.434 183.075 183.89 183.545 184.375 
184.03 184.804 184.487 185.195 184.923 185.566 185.289 185.875 185.568 
186.113 184.82 184.515 185.256 184.99 185.742 185.471 186.137 185.816 
186.38 186.076 186.638 186.398 186.973 186.726 187.234 186.928 187.318 
186.03 185.776 186.409 186.194 186.845 186.659 187.27 187.019 187.521 
187.203 187.679 187.418 187.953 187.747 188.233 187.967 188.286 187.942 
188.107 186.845 188.119 187.388 187.207 189.399 188.674 188.505 187.768 
187.622 190.688 189.992 189.877 189.115 188.971 188.215 188.049 191.976 
191.306 191.25 190.517 190.368 189.584 189.361 188.581 188.304 193.296 
192.602 192.49 191.808 191.595 190.889 190.594 189.85 189.525 188.759 
188.452 194.509 193.866 193.61 192.928 192.59 191.94 191.599 190.959 
190.655 189.966 189.693 188.945 188.708 195.267 194.864 194.566 193.954 
193.563 192.881 192.526 191.894 191.642 191.042 190.821 190.161 189.899 
189.193 188.925 195.485 195.347 195.141 194.763 194.441 193.853 193.476 
192.831 192.507 191.949 191.681 191.152 190.818 190.225 189.82 189.226 
188.852 195.443 195.422 195.298 195.155 194.922 194.587 194.196 193.673 
193.168 192.646 192.187 191.779 191.355 190.923 190.429 189.919 189.419 
188.947 188.545 186.866 187.283 187.455 188.164 187.613 187.86 188.643 
188.775 189.454 187.913 188.197 189.073 189.272 190.025 190.075 190.715 
188.249 188.564 189.56 189.784 190.641 190.682 191.341 191.323 191.966 
188.485 188.921 190.011 190.336 191.257 191.339 191.999 191.96 192.603 
192.626 193.33 188.434 189.029 190.093 190.638 191.515 191.81 192.397 
192.505 193.091 193.228 193.955 194.034 194.643 188.18 188.813 189.75 
190.434 191.202 191.736 192.242 192.607 193.116 193.491 194.16 194.487 
195.06 195.136 195.405 187.908 188.474 189.268 189.911 190.568 191.175 
191.659 192.191 192.691 193.249 193.864 194.399 194.897 195.231 195.433 
195.531 195.53 187.633 188.148 188.814 189.368 189.922 190.48 190.948 
191.521 192.045 192.684 193.283 193.904 194.354 194.812 194.991 195.278 
195.303 195.457 195.432 186.046 184.73 185.768 186.416 183.086 184.302 
185.03 186.106 186.726 181.236 182.503 183.261 184.572 185.316 186.393 
186.997 179.491 180.609 181.255 182.641 183.474 184.839 185.571 186.652 
187.253 177.973 178.937 179.431 180.63 181.386 182.846 183.713 185.074 
185.764 186.863 187.423 176.474 177.425 177.856 178.895 179.503 180.795 
181.643 183.102 183.94 185.241 185.851 186.934 187.402 175.009 175.911 
176.32 177.312 177.839 178.989 179.714 181.076 181.931 183.336 184.07 
185.284 185.799 186.834 187.234 173.772 174.555 174.977 175.839 176.353 
177.36 178.011 179.214 179.99 181.344 182.123 183.443 184.071 185.212 
185.686 186.672 187.053 172.704 173.443 173.926 174.678 175.233 176.046 
176.685 177.643 178.367 179.51 180.276 181.534 182.25 183.466 184.053 
185.13 185.59 186.526 186.865 172.245 172.052 172.633 173.575 172.028 
172.575 173.673 174.093 174.998 172.302 172.726 173.93 174.33 175.347 
175.596 176.47 172.823 173.152 174.321 174.674 175.728 176 176.9 
177.121 178.06 173.26 173.659 174.732 175.065 176.034 176.343 177.264 
177.548 178.498 178.789 179.862 173.501 173.974 175.056 175.415 176.33 
176.617 177.541 177.879 178.906 179.241 180.328 180.658 181.788 173.871 
174.231 175.371 175.722 176.688 176.937 177.849 178.166 179.222 179.624 
180.749 181.118 182.215 182.555 183.604 174.541 174.725 175.801 176.087 
177.061 177.31 178.186 178.476 179.451 179.88 180.966 181.433 182.495 
182.908 183.902 184.257 185.165 175.308 175.407 176.319 176.529 177.405 
177.651 178.474 178.759 179.648 180.049 181.052 181.54 182.552 183.04 
183.987 184.435 185.302 185.677 186.441 175.987 177.22 176.697 176.93 
178.581 177.974 178.184 177.663 177.928 180.152 179.46 179.678 179.01 
179.254 178.694 178.994 181.72 181.08 181.359 180.649 180.934 180.207 
180.526 179.873 180.241 183.144 182.585 182.895 182.311 182.667 182 
182.361 181.613 181.973 181.254 181.664 184.513 183.981 184.284 183.758 
184.122 183.616 184.013 183.426 183.769 183.065 183.392 182.711 183.11 
185.782 185.337 185.669 185.148 185.482 184.982 185.364 184.902 185.263 
184.718 185.006 184.383 184.702 184.11 184.498 186.813 186.512 186.874 
186.476 186.804 186.33 186.677 186.21 186.585 186.1 186.42 185.871 
186.167 185.62 185.973 185.443 185.798 187.624 187.423 187.773 187.525 
187.843 187.52 187.842 187.472 187.835 187.414 187.748 187.239 187.515 
186.992 187.295 186.823 187.154 186.659 186.927 187.657 187.894 188.129 
188.772 188.035 188.304 188.95 189.183 189.78 188.267 188.484 189.138 
189.337 189.95 190.161 190.771 188.517 188.759 189.425 189.587 190.222 
190.386 191.078 191.252 191.953 188.567 188.914 189.569 189.837 190.457 
190.679 191.378 191.612 192.373 192.54 193.231 188.482 188.844 189.465 
189.842 190.466 190.812 191.476 191.819 192.515 192.835 193.455 193.684 
194.185 188.414 188.731 189.327 189.699 190.369 190.759 191.453 191.823 
192.48 192.828 193.389 193.695 194.132 194.393 194.741 188.319 188.642 
189.22 189.588 190.265 190.675 191.379 191.767 192.406 192.749 193.318 
193.61 194.1 194.316 194.7 194.864 195.138 188.152 188.498 189.041 
189.441 190.062 190.519 191.151 191.602 192.159 192.576 193.101 193.5 
194.033 194.341 194.782 194.925 195.199 195.249 195.388 164.338 164.654 
164.305 164.128 165.317 164.831 164.628 164.274 164.167 166.218 165.63 
165.385 164.869 164.552 164.205 163.99 167.427 166.686 166.454 165.741 
165.351 164.677 164.287 163.947 163.957 168.877 168.052 167.886 167.028 
166.756 165.791 165.494 164.662 164.728 164.363 164.947 170.278 169.491 
169.32 168.539 168.395 167.469 167.34 166.329 166.456 165.686 166.238 
165.865 166.681 171.61 170.81 170.574 169.87 169.788 169.094 169.11 
168.283 168.397 167.581 167.932 167.359 167.942 167.637 168.332 173.054 
172.186 171.967 171.155 171.144 170.481 170.692 170.016 170.247 169.456 
169.691 168.984 169.371 168.903 169.459 169.193 169.844 174.547 173.723 
173.618 172.73 172.8 172.026 172.368 171.697 172.116 171.342 171.65 
170.789 171.112 170.402 170.893 170.418 171.03 170.722 171.356 164.261 
163.994 164.095 164.282 164.061 164.034 164.17 164.319 164.712 164.055 
164.163 164.422 164.456 164.841 164.949 165.444 164.152 164.207 164.719 
164.825 165.341 165.322 165.803 165.817 166.355 165.071 164.68 165.267 
165.249 165.938 165.922 166.466 166.366 166.878 166.853 167.469 166.694 
166.001 166.445 166.1 166.762 166.616 167.222 167.087 167.628 167.519 
168.107 168.083 168.744 168.333 167.651 167.971 167.457 167.98 167.63 
168.193 167.93 168.494 168.325 168.93 168.821 169.431 169.378 169.995 
169.845 169.195 169.482 168.939 169.382 168.937 169.437 169.043 169.561 
169.273 169.854 169.679 170.262 170.124 170.676 170.6 171.18 171.317 
170.685 170.939 170.387 170.766 170.305 170.753 170.33 170.787 170.413 
170.903 170.632 171.149 170.954 171.46 171.321 171.86 171.795 172.389 
164.643 164.664 164.859 165.373 165.035 165.024 165.443 165.598 166.008 
165.665 165.494 165.823 165.785 166.12 166.188 166.645 166.51 166.194 
166.491 166.292 166.65 166.516 167.036 167.097 167.96 167.622 167.162 
167.472 167.117 167.533 167.264 167.872 167.778 168.715 168.835 169.99 
168.903 168.395 168.729 168.267 168.675 168.294 168.883 168.729 169.647 
169.727 170.852 170.995 172.122 170.14 169.683 170.035 169.59 169.976 
169.523 170.007 169.747 170.569 170.623 171.73 171.879 173.001 173.1 
174.185 171.312 170.877 171.225 170.84 171.243 170.824 171.282 170.917 
171.667 171.579 172.701 172.798 173.993 174.046 175.14 175.18 176.232 
172.512 172.05 172.369 171.978 172.383 172.033 172.549 172.216 172.979 
172.794 173.911 173.906 175.151 175.141 176.241 176.187 177.158 177.164 
178.066 185.519 184.216 184.66 184.149 182.756 183.232 182.653 183.126 
182.491 181.229 181.699 181.093 181.571 180.939 181.386 180.714 179.707 
180.159 179.539 180.003 179.392 179.851 179.24 179.657 179.061 178.161 
178.619 177.976 178.443 177.809 178.294 177.693 178.181 177.616 178.078 
177.543 176.621 177.039 176.36 176.839 176.184 176.686 176.06 176.581 
175.999 176.544 176.002 176.538 176.016 175.257 175.543 174.826 175.225 
174.589 175.068 174.48 174.969 174.404 174.912 174.389 174.933 174.451 
174.998 174.554 174.118 174.29 173.572 173.822 173.212 173.579 173.058 
173.48 172.983 173.417 172.936 173.4 172.956 173.464 173.071 173.613 
173.286 173.125 173.248 172.578 172.73 172.152 172.384 171.887 172.195 
171.728 172.094 171.644 172.052 171.618 172.059 171.655 172.159 171.823 
172.407 172.155 
POINT_DATA 1002
SCALARS Distance double
LOOKUP_TABLE default
176.496 175.28 175.225 176.473 175.182 177.756 176.538 175.249 177.87 
179.233 176.784 175.521 178.084 179.47 180.833 177.17 175.924 178.424 
179.756 181.113 182.315 177.604 176.414 178.836 180.135 181.475 182.676 
183.696 178.107 176.97 179.308 180.57 181.884 183.093 184.099 185.022 
178.626 177.51 179.801 181 182.211 183.384 184.404 185.299 186.161 
179.088 178.039 180.193 181.332 182.445 183.511 184.53 185.459 186.3 
187.068 179.515 178.572 180.483 181.52 182.602 183.616 184.574 185.524 
186.402 187.158 187.813 173.902 173.882 172.452 172.44 171.081 173.823 
170.966 169.703 172.361 173.876 169.433 168.21 170.866 172.41 174.154 
167.943 166.847 169.374 170.92 172.684 174.627 166.753 165.823 168.05 
169.492 171.201 173.263 175.267 165.928 165.049 167.119 168.387 169.896 
171.921 174.075 175.928 165.43 164.551 166.597 167.768 169.028 170.785 
172.896 174.85 176.541 165.275 164.465 166.361 167.47 168.564 169.98 
171.849 173.814 175.6 177.196 165.148 166.028 165.865 166.626 166.34 
167.065 167.217 167.196 167.659 168.144 168.546 168.992 168.575 168.92 
169.398 170.571 171.157 170.202 170.159 170.486 171.094 172.699 173.2 
172.273 172.042 172.141 172.554 173.14 174.889 175.263 174.55 174.343 
174.373 174.566 174.809 175.139 177.029 177.249 176.784 176.584 176.55 
176.602 176.609 176.662 176.867 178.765 178.893 178.562 178.323 178.165 
178.039 177.872 177.828 178.013 178.299 179.609 179.263 180.49 178.786 
180 181.33 178.509 179.416 180.858 182.334 178.721 179.311 180.468 
181.997 183.375 179.125 179.814 180.648 181.749 183.014 184.202 179.4 
180.311 181.209 181.935 182.695 183.719 184.756 179.672 180.594 181.604 
182.41 182.879 183.461 184.275 185.118 179.983 180.927 181.867 182.799 
183.443 183.865 184.287 184.804 185.506 180.194 181.276 182.183 183.041 
183.864 184.541 184.929 185.094 185.4 186.076 180.533 181.466 181.488 
182.454 182.507 182.58 183.517 183.571 183.676 183.708 184.498 184.579 
184.692 184.783 184.709 185.258 185.498 185.616 185.734 185.763 185.676 
185.724 186.21 186.498 186.666 186.741 186.743 186.63 186.08 186.679 
187.16 187.515 187.691 187.716 187.649 187.452 186.614 187.189 187.67 
188.129 188.509 188.638 188.57 188.401 188.131 187.177 187.817 188.508 
189.087 189.757 188.285 190.186 190.855 189.446 188.687 191.207 191.887 
190.662 189.949 189.205 192.265 192.847 191.887 191.348 190.504 189.558 
193.425 193.839 193.033 192.488 191.661 190.617 189.533 194.603 194.778 
194.188 193.395 192.433 191.453 190.387 189.326 195.309 195.313 195.036 
194.219 193.103 192.107 191.145 190.068 189.031 195.389 195.443 195.187 
194.596 193.64 192.665 191.75 190.713 189.623 188.655 186.309 187.409 
186.716 187.666 187.23 188.766 188.082 187.792 189.076 190.228 188.733 
188.344 189.632 190.906 191.693 189.383 188.69 190.215 191.458 192.586 
192.857 189.63 188.646 190.486 191.415 192.705 193.567 193.657 189.419 
188.394 190.416 191.136 192.137 193.455 194.188 194.412 189.112 188.244 
190.174 191.031 191.794 192.981 194.182 194.776 195.05 188.941 188.192 
189.922 190.929 191.737 192.628 193.765 194.684 195.148 195.368 179.885 
181.216 180.956 182.295 182.069 182.341 183.331 183.129 183.341 183.195 
184.318 184.131 184.285 184.111 184.011 185.329 185.141 185.372 185.216 
185.1 184.982 186.264 186.109 186.43 186.48 186.404 186.234 185.736 
187 186.921 187.161 187.367 187.421 187.248 186.738 185.897 187.614 
187.582 187.738 187.95 188 187.778 187.315 186.621 185.885 178.058 
179.209 177.233 178.576 176.348 180.43 177.81 175.174 179.949 181.645 
176.664 173.95 179.301 181.265 182.794 175.394 173.167 178.241 180.77 
182.525 183.906 174.439 172.82 176.942 179.874 182.162 183.697 185.013 
173.986 172.712 175.909 178.674 181.417 183.311 184.753 186.041 173.982 
172.794 175.49 177.717 180.44 182.686 184.285 185.735 186.908 174.184 
172.989 175.53 177.273 179.619 181.997 183.781 185.253 186.633 187.625 