# vtk DataFile Version 4.0
vtk output
ASCII
DATASET POLYDATA
POINTS 1002 float
-119.189 -113.495 51.8613 -118.968 -112.32 50.9086 -118.376 -112.58 51.1957 
-118.589 -113.844 52.2369 -117.806 -112.982 51.5719 -119.331 -114.854 52.807 
-118.053 -114.304 52.7485 -117.269 -113.483 52.113 -118.75 -115.272 53.3361 
-119.502 -116.077 54.1271 -117.539 -114.759 53.4576 -116.717 -113.98 52.8229 
-118.245 -115.708 54.0484 -118.975 -116.458 54.9157 -119.79 -116.97 56.0644 
-116.949 -115.164 54.3145 -116.152 -114.523 53.5851 -117.703 -116.08 54.9562 
-118.463 -116.829 55.8743 -119.281 -117.322 57.0728 -120.009 -118.006 58.0378 
-116.336 -115.728 55.1766 -115.64 -115.237 54.2904 -117.055 -116.519 55.9671 
-117.843 -117.291 56.9162 -118.681 -117.821 58.0867 -119.423 -118.559 58.9671 
-119.942 -119.632 59.3201 -115.811 -116.567 55.9751 -115.204 -116.056 55.016 
-116.424 -117.222 56.9373 -117.136 -117.962 57.9106 -117.944 -118.609 58.9367 
-118.677 -119.373 59.7047 -119.233 -120.412 60.0412 -119.66 -121.369 60.2254 
-115.343 -117.494 56.7843 -114.8 -116.832 55.9049 -115.877 -118.125 57.7911 
-116.473 -118.747 58.7991 -117.176 -119.477 59.6771 -117.839 -120.359 60.282 
-118.37 -121.32 60.6349 -118.851 -122.137 60.9718 -119.325 -122.696 61.3848 
-114.856 -118.329 57.6333 -114.384 -117.567 56.878 -115.345 -119.03 58.5512 
-115.879 -119.559 59.5774 -116.499 -120.188 60.4776 -117.094 -121.13 61.0453 
-117.553 -122.123 61.3896 -117.993 -122.863 61.7821 -118.497 -123.371 62.2645 
-119.004 -123.775 62.6789 -114.349 -119.057 58.4373 -113.94 -118.314 57.7388 
-114.802 -119.807 59.2676 -115.308 -120.373 60.2653 -115.888 -120.884 61.2725 
-116.47 -121.67 62.0117 -116.914 -122.632 62.4645 -117.291 -123.379 62.8633 
-117.743 -123.894 63.2764 -118.238 -124.374 63.5888 -118.703 -124.808 63.7564 
-118.304 -111.441 49.9698 -117.66 -111.734 50.245 -117.581 -110.594 48.9568 
-116.836 -110.903 49.2484 -116.795 -109.704 48.0548 -117.017 -112.175 50.6544 
-115.961 -110.001 48.4176 -115.946 -108.797 47.2861 -116.107 -111.305 49.7513 
-116.4 -112.711 51.2486 -115.145 -109.087 47.8101 -115.152 -107.851 46.7742 
-115.26 -110.331 49.0764 -115.473 -111.837 50.4184 -115.83 -113.333 51.9713 
-114.446 -108.127 47.4782 -114.447 -106.825 46.6567 -114.571 -109.398 48.6257 
-114.668 -110.88 49.8193 -114.921 -112.618 51.1478 -115.315 -114.094 52.7056 
-113.773 -107.144 47.3655 -113.727 -105.928 46.6829 -113.91 -108.491 48.3456 
-113.916 -109.988 49.4109 -114.018 -111.783 50.5503 -114.405 -113.565 51.9034 
-114.861 -114.916 53.4287 -113.124 -106.362 47.3754 -113.056 -105.246 46.7727 
-113.212 -107.666 48.2362 -113.132 -109.165 49.1562 -113.094 -110.915 50.1359 
-113.426 -112.827 51.3264 -113.984 -114.449 52.734 -114.477 -115.666 54.3085 
-112.608 -105.721 47.6774 -112.551 -104.568 47.2416 -112.63 -107.03 48.3826 
-112.486 -108.461 49.1509 -112.353 -110.06 49.9341 -112.57 -111.928 50.9324 
-113.118 -113.795 52.2335 -113.705 -115.233 53.779 -114.141 -116.382 55.4061 
-112.214 -105.06 48.3469 -112.159 -103.878 48.1235 -112.232 -106.456 48.8292 
-112.105 -107.882 49.4497 -111.974 -109.287 50.089 -112.096 -110.925 50.8497 
-112.502 -112.896 51.9239 -113.018 -114.71 53.3603 -113.481 -116.044 54.9823 
-113.786 -117.171 56.4904 -111.81 -104.063 49.1879 -111.916 -105.498 49.4021 
-111.597 -104.746 50.2029 -111.754 -106.329 50.5659 -111.651 -105.922 51.519 
-111.909 -107.084 49.9054 -111.726 -107.481 52.2978 -111.737 -107.313 53.5793 
-111.762 -107.868 51.3348 -111.836 -108.507 50.5742 -111.694 -108.847 54.4141 
-111.723 -108.702 55.613 -111.775 -108.883 53.2452 -111.899 -109.171 52.1405 
-111.957 -109.922 51.2545 -112.05 -110.369 55.6491 -112.241 -110.134 56.4177 
-112.098 -110.327 54.7322 -112.259 -110.283 53.7172 -112.297 -110.798 52.7279 
-112.281 -111.856 52.0728 -113.13 -111.933 55.8988 -113.478 -111.7 56.4061 
-112.977 -112.033 55.2875 -112.931 -112.015 54.6663 -112.763 -112.294 54.0745 
-112.559 -113.148 53.569 -112.626 -114.111 53.3259 -114.12 -113.398 56.5046 
-114.507 -113.301 56.8339 -113.791 -113.547 56.0823 -113.489 -113.753 55.6879 
-113.061 -114.07 55.4277 -112.634 -114.704 55.2046 -112.586 -115.483 55.0082 
-112.95 -115.931 54.9491 -114.305 -114.714 57.9055 -114.763 -114.744 57.9954 
-113.83 -114.773 57.7304 -113.372 -115.045 57.496 -112.867 -115.462 57.2956 
-112.376 -116.027 57.0741 -112.25 -116.729 56.775 -112.621 -117.198 56.5661 
-113.214 -117.25 56.5123 -114.053 -115.912 59.4757 -114.611 -115.971 59.3933 
-113.456 -115.919 59.5037 -112.91 -116.135 59.4305 -112.445 -116.515 59.2612 
-112.026 -116.995 58.9615 -111.832 -117.655 58.491 -112.101 -118.282 58.0449 
-112.713 -118.509 57.8385 -113.37 -118.415 57.7904 -113.685 -119.52 58.956 
-113.023 -119.667 59.0377 -113.43 -120.681 60.4304 -112.305 -119.697 59.1549 
-112.725 -120.854 60.6293 -113.194 -121.794 62.2556 -111.776 -119.298 59.4982 
-112.056 -120.865 60.8358 -112.477 -122.077 62.5661 -112.747 -123.213 63.9998 
-111.708 -118.593 60.064 -111.756 -120.445 61.1978 -111.86 -122.19 62.8348 
-111.953 -123.648 64.3543 -111.957 -124.997 65.3871 -111.985 -118.034 60.5756 
-111.936 -119.828 61.6967 -111.701 -121.822 63.2475 -111.296 -123.709 64.8405 
-111.062 -125.298 65.9105 -111.095 -126.467 66.8021 -112.339 -117.655 60.8782 
-112.265 -119.383 62.1222 -111.996 -121.224 63.7223 -111.224 -123.166 65.4928 
-110.522 -124.999 66.7106 -110.252 -126.376 67.4935 -110.383 -127.233 68.2888 
-112.807 -117.331 60.993 -112.607 -119.039 62.3348 -112.411 -120.758 63.9609 
-111.702 -122.468 65.8504 -110.799 -124.28 67.3434 -110.146 -125.855 68.2521 
-109.831 -126.935 68.9149 -109.807 -127.723 69.5298 -113.448 -117.152 60.9517 
-113.134 -118.711 62.3291 -112.906 -120.389 63.8861 -112.359 -121.973 65.6835 
-111.603 -123.628 67.2951 -110.882 -125.256 68.5156 -110.233 -126.474 69.4165 
-109.72 -127.377 70.0742 -109.453 -128.241 70.5957 -114.118 -117.121 60.8172 
-113.794 -118.474 62.1851 -113.536 -120.025 63.6477 -113.06 -121.573 65.2848 
-112.443 -123.131 66.8202 -111.854 -124.724 68.1825 -111.198 -126.007 69.4492 
-110.465 -126.883 70.4415 -109.827 -127.7 71.0982 -109.476 -128.594 71.5722 
-114.132 -120.276 59.8194 -113.911 -121.425 61.5299 -114.623 -121.007 60.8234 
-113.521 -122.718 63.38 -114.326 -122.29 62.6128 -115.159 -121.641 61.9204 
-112.799 -124.437 64.9234 -113.683 -123.871 64.2755 -114.747 -123.171 63.5878 
-115.746 -122.331 62.8908 -112.023 -126.174 66.3691 -112.906 -125.612 65.767 
-113.994 -124.874 65.0282 -115.266 -123.967 64.3914 -116.269 -123.17 63.5864 
-111.399 -127.274 67.9528 -112.437 -126.983 67.4243 -113.371 -126.438 66.5239 
-114.528 -125.603 65.7038 -115.777 -124.629 65.0828 -116.684 -123.893 64.1282 
-110.67 -127.929 69.2675 -111.961 -127.866 68.8765 -113.044 -127.636 68.0475 
-113.932 -127.124 67.0238 -115.073 -126.143 66.3265 -116.28 -125.097 65.6553 
-117.138 -124.405 64.5489 -109.885 -128.621 70.312 -111.113 -128.663 69.8816 
-112.543 -128.535 69.1363 -113.556 -128.315 68.1618 -114.454 -127.607 67.381 
-115.668 -126.453 66.7907 -116.842 -125.517 65.9171 -117.644 -124.938 64.7304 
-109.498 -129.237 71.3562 -110.352 -129.459 70.8806 -111.847 -129.315 70.0576 
-113.22 -129.106 69.0552 -114.147 -128.661 68.2556 -115.138 -127.682 67.7079 
-116.36 -126.647 66.975 -117.397 -126.012 65.8734 -118.116 -125.496 64.7209 
-109.781 -129.159 72.3262 -110.064 -129.84 72.0804 -110.857 -129.313 72.7745 
-111.521 -129.876 72.422 -112.716 -128.932 72.7789 -111.222 -129.938 71.358 
-113.497 -129.375 72.3345 -114.671 -128.417 72.7698 -112.787 -129.901 71.5569 
-112.822 -129.688 70.2206 -115.207 -128.864 72.3812 -116.183 -128.293 73.0863 
-114.416 -129.503 71.5835 -114.121 -129.682 70.3759 -114.084 -129.327 69.1616 
-116.782 -128.769 72.6399 -117.641 -128.534 73.1736 -115.897 -129.109 71.676 
-115.409 -129.408 70.4418 -115.2 -129.184 69.3572 -115.042 -128.541 68.5094 
-118.672 -128.986 72.4315 -119.302 -128.657 72.6846 -117.804 -128.996 71.5299 
-117.045 -129.088 70.1907 -116.617 -128.905 69.2269 -116.304 -128.243 68.6296 
-116.17 -127.479 67.8592 -120.319 -128.999 71.7578 -120.699 -128.374 72.0778 
-119.742 -129.049 70.952 -119.002 -128.954 69.6323 -118.369 -128.777 68.6486 
-117.855 -128.146 68.287 -117.434 -127.406 67.7125 -117.3 -126.785 66.7552 
-121.275 -128.539 71.0794 -121.634 -127.856 71.5519 -120.869 -128.77 70.3196 
-120.351 -128.783 69.1702 -119.805 -128.794 68.1124 -119.294 -128.345 67.6729 
-118.75 -127.526 67.2807 -118.313 -126.911 66.4014 -118.143 -126.325 65.457 
-121.944 -127.891 70.415 -122.379 -127.383 70.9011 -121.49 -128.104 69.7483 
-121.036 -128.215 68.8709 -120.611 -128.514 67.8917 -120.249 -128.493 67.1963 
-119.849 -127.726 66.7289 -119.37 -126.867 66.0064 -118.992 -126.29 65.108 
-118.805 -125.636 64.3807 -110.06 -128.015 72.102 -110.598 -128.266 72.6821 
-111.013 -127.152 72.3609 -111.771 -127.158 72.8196 -112.188 -126.427 72.363 
-111.95 -128.154 72.9627 -113.084 -126.401 73.0228 -113.545 -126.001 72.146 
-113.223 -127.045 73.3655 -113.901 -127.793 73.1999 -114.399 -125.907 73.0644 
-114.817 -125.534 71.6476 -114.423 -126.414 74.0062 -114.985 -126.988 74.2344 
-115.667 -127.654 73.6841 -115.481 -125.261 72.4875 -115.753 -124.888 70.8661 
-115.478 -125.834 73.8993 -115.902 -126.467 74.8975 -116.486 -127.133 74.8028 
-117.013 -127.871 73.8933 -116.381 -124.624 71.4099 -116.595 -124.297 69.8466 
-116.377 -125.054 72.8474 -116.773 -125.684 74.1521 -117.34 -126.424 74.8017 
-117.841 -127.202 74.2564 -118.469 -127.98 73.3325 -117.375 -124.173 70.1262 
-117.553 -123.747 68.6896 -117.294 -124.441 71.5669 -117.601 -124.796 72.8103 
-118.234 -125.416 73.6948 -118.817 -126.199 73.7695 -119.363 -126.944 73.1853 
-120.048 -127.696 72.6138 -118.382 -123.624 68.8311 -118.439 -123.032 67.6409 
-118.303 -123.983 70.2293 -118.448 -124.209 71.5203 -118.973 -124.579 72.4395 
-119.637 -125.264 72.8424 -120.227 -125.993 72.7743 -120.806 -126.6 72.5269 
-121.324 -127.259 72.1712 -119.157 -122.806 67.7625 -119.083 -122.15 66.8492 
-119.202 -123.347 68.8893 -119.331 -123.741 70.0889 -119.69 -124.055 71.079 
[...]
CELL_DATA 2000
SCALARS Distance double
LOOKUP_TABLE default
170.702 170.622 171.081 171.962 170.689 171.083 171.983 172.402 173.295 
170.845 171.213 172.125 172.501 173.41 173.785 174.68 171.018 171.371 
172.282 172.667 173.588 173.954 174.864 175.215 176.124 171.286 171.567 
172.465 172.827 173.777 174.152 175.093 175.439 176.373 176.706 177.611 
171.722 171.919 172.82 173.086 174.057 174.386 175.373 175.705 176.66 
176.982 177.897 178.193 179.011 172.256 172.428 173.341 173.536 174.48 
174.735 175.708 176.017 176.972 177.283 178.173 178.465 179.264 179.513 
180.196 172.789 172.973 173.878 174.074 174.965 175.176 176.076 176.353 
177.277 177.587 178.458 178.733 179.5 179.739 180.413 180.621 181.217 
173.278 173.47 174.332 174.556 175.41 175.624 176.467 176.709 177.591 
177.882 178.751 179.017 179.776 179.984 180.642 180.832 181.434 181.611 
182.152 169.86 168.525 169.364 169.746 167.139 167.997 168.38 169.29 
169.772 165.725 166.581 166.938 167.879 168.375 169.358 169.907 164.367 
165.183 165.533 166.432 166.921 167.923 168.531 169.532 170.117 163.122 
163.89 164.273 165.1 165.582 166.504 167.139 168.163 168.861 169.813 
170.434 161.98 162.704 163.106 163.908 164.384 165.23 165.822 166.809 
167.556 168.583 169.317 170.215 170.871 161.002 161.64 162.05 162.794 
163.265 164.055 164.581 165.503 166.216 167.283 168.094 169.1 169.837 
170.709 171.388 160.255 160.792 161.24 161.86 162.349 163.011 163.512 
164.293 164.959 165.96 166.824 167.891 168.747 169.687 170.439 171.267 
171.951 159.713 160.173 160.668 161.198 161.732 162.263 162.782 163.369 
163.999 164.808 165.679 166.693 167.669 168.656 169.532 170.375 171.12 
171.867 172.514 159.626 160.028 160.05 160.632 160.9 160.649 161.2 
161.161 161.731 162.277 161.746 162.177 161.883 162.381 162.269 162.788 
163.868 163.238 163.555 163.025 163.42 163.07 163.56 163.39 164.014 
165.466 164.837 165.182 164.529 164.897 164.318 164.804 164.396 165.071 
164.859 165.715 167.222 166.525 166.983 166.269 166.723 166.003 166.517 
165.897 166.586 166.168 167.046 166.804 167.744 169.086 168.373 168.816 
168.124 168.585 167.898 168.385 167.723 168.316 167.798 168.574 168.239 
169.099 168.846 169.646 170.712 170.105 170.381 169.804 170.115 169.586 
169.943 169.428 169.845 169.394 169.962 169.66 170.369 170.144 170.845 
170.601 171.231 172.004 171.488 171.633 171.132 171.315 170.874 171.134 
170.732 171.042 170.67 171.075 170.818 171.379 171.232 171.855 171.693 
172.268 172.05 172.584 173.368 173.056 173.621 174.447 172.644 173.271 
174.124 174.735 175.626 172.167 172.809 173.707 174.396 175.37 175.99 
176.93 171.851 172.382 173.313 173.996 175.063 175.75 176.783 177.343 
178.243 171.805 172.209 173.15 173.723 174.832 175.491 176.576 177.182 
178.103 178.604 179.378 171.883 172.243 173.187 173.689 174.788 175.359 
176.428 176.987 177.896 178.407 179.137 179.607 180.213 172.039 172.346 
173.274 173.754 174.838 175.371 176.404 176.891 177.788 178.233 178.977 
179.37 179.956 180.329 180.81 172.339 172.56 173.448 173.854 174.909 
175.414 176.431 176.89 177.785 178.196 179 179.336 179.99 180.217 
180.717 180.937 181.38 172.715 172.904 173.737 174.058 175.043 175.488 
176.475 176.914 177.799 178.212 179.047 179.425 180.161 180.391 180.929 
181.028 181.447 181.58 182.009 173.798 174.913 174.518 174.86 176.114 
175.688 176.064 175.631 175.957 177.394 176.941 177.337 176.885 177.247 
176.753 177.049 178.67 178.233 178.614 178.17 178.558 178.087 178.432 
177.889 178.189 179.835 179.488 179.873 179.435 179.799 179.365 179.735 
179.274 179.598 179.057 179.327 180.713 180.564 181.035 180.692 181.05 
180.595 180.924 180.498 180.824 180.386 180.64 180.123 180.306 181.256 
181.275 181.816 181.726 182.158 181.826 182.118 181.67 181.933 181.513 
181.76 181.326 181.501 180.999 181.127 181.735 181.736 182.263 182.324 
182.828 182.752 183.094 182.791 182.993 182.582 182.761 182.36 182.54 
182.117 182.261 181.774 181.891 182.336 182.261 182.762 182.762 183.286 
183.291 183.717 183.596 183.844 183.544 183.669 183.297 183.424 183.07 
183.224 182.839 182.964 182.503 182.587 182.841 183.788 183.315 183.311 
184.724 184.314 184.349 183.819 183.793 185.557 185.212 185.292 184.84 
184.776 184.259 184.178 186.395 185.997 186.042 185.683 185.631 185.177 
185.006 184.523 184.311 187.422 186.893 186.839 186.386 186.306 185.91 
185.717 185.267 184.96 184.486 184.144 188.516 188.011 187.94 187.296 
187.113 186.575 186.371 185.908 185.601 185.102 184.727 184.242 183.895 
189.243 189 188.962 188.406 188.117 187.467 187.178 186.619 186.339 
185.783 185.425 184.868 184.515 184.026 183.71 189.426 189.43 189.336 
189.111 188.749 188.312 187.919 187.436 187.122 186.584 186.214 185.612 
185.2 184.661 184.295 183.833 183.471 189.329 189.375 189.176 189.133 
188.738 188.579 188.171 187.949 187.624 187.28 186.881 186.353 185.834 
185.283 184.796 184.346 183.924 183.511 183.087 182.764 182.841 183.057 
183.606 182.936 183.081 183.58 183.889 184.481 183.279 183.271 183.755 
183.919 184.546 184.8 185.388 183.685 183.705 184.224 184.282 184.965 
185.065 185.746 185.816 186.383 183.726 183.961 184.461 184.704 185.383 
185.586 186.28 186.339 186.912 186.887 187.428 183.494 183.817 184.241 
184.65 185.233 185.723 186.362 186.714 187.197 187.335 187.745 187.863 
188.361 183.287 183.58 183.979 184.317 184.793 185.3 185.881 186.453 
186.945 187.336 187.664 187.934 188.296 188.604 189.001 183.051 183.388 
183.794 184.091 184.505 184.869 185.368 185.873 186.412 186.913 187.343 
187.704 188.053 188.375 188.731 189.049 189.287 182.649 183.07 183.458 
183.844 184.231 184.594 185.013 185.423 185.904 186.387 186.884 187.339 
187.775 188.128 188.493 188.774 189.045 189.24 189.334 173.161 174.213 
173.852 174.239 175.307 174.967 175.42 175.052 175.535 176.356 176.059 
176.54 176.24 176.752 176.414 176.909 177.405 177.112 177.625 177.35 
177.902 177.604 178.115 177.758 178.209 178.519 178.22 178.802 178.501 
179.121 178.798 179.371 178.986 179.474 179.053 179.479 179.618 179.364 
179.985 179.723 180.381 180.081 180.679 180.292 180.771 180.337 180.731 
180.294 180.598 180.613 180.417 180.995 180.818 181.422 181.247 181.798 
181.529 181.915 181.543 181.795 181.417 181.599 181.218 181.319 181.479 
181.335 181.841 181.697 182.189 182.091 182.558 182.44 182.757 182.501 
182.613 182.279 182.314 182.013 182.049 181.737 181.766 182.173 182.104 
182.561 182.441 182.829 182.721 183.092 183.026 183.338 183.187 183.299 
182.981 182.941 182.608 182.611 182.354 182.439 182.163 182.273 172.694 
172.152 172.871 173.699 171.425 172.281 173.231 173.93 174.783 170.71 
171.586 172.648 173.437 174.391 175.038 175.859 170.115 170.966 172.055 
172.861 173.871 174.611 175.509 176.109 176.9 169.506 170.401 171.499 
172.302 173.3 174.062 175.005 175.712 176.576 177.164 177.968 168.841 
169.759 170.92 171.766 172.803 173.534 174.495 175.203 176.134 176.8 
177.67 178.25 179.056 168.34 169.135 170.334 171.202 172.345 173.101 
174.119 174.781 175.74 176.384 177.303 177.923 178.775 179.327 180.085 
168.165 168.756 169.892 170.674 171.853 172.656 173.746 174.454 175.43 
176.053 176.958 177.564 178.424 179.014 179.799 180.317 180.989 168.253 
168.676 169.687 170.311 171.407 172.167 173.258 174.034 175.037 175.725 
176.613 177.222 178.045 178.641 179.416 179.983 180.663 181.15 181.708 
168.665 169.719 169.44 170.038 170.817 170.521 171.11 170.906 171.651 
171.975 171.641 172.219 171.984 172.724 172.595 173.442 173.268 172.871 
173.468 173.15 173.893 173.703 174.558 174.426 175.245 174.676 174.258 
174.896 174.503 175.24 174.949 175.781 175.58 176.384 176.181 176.861 
176.061 175.687 176.345 175.973 176.691 176.352 177.125 176.845 177.603 
177.343 178.009 177.73 178.305 177.354 177.024 177.67 177.366 178.065 
177.763 178.476 178.177 178.864 178.57 179.193 178.892 179.45 179.142 
179.658 178.59 178.276 178.907 178.631 179.32 179.058 179.734 179.454 
180.076 179.785 180.344 180.047 180.547 180.252 180.719 180.432 180.87 
179.764 179.481 180.099 179.84 180.503 180.258 180.901 180.639 181.217 
180.935 181.45 181.152 181.6 181.294 181.694 181.414 181.797 181.54 
181.891 180.59 182.003 181.178 180.972 183.463 182.633 182.43 181.593 
181.384 184.815 184.053 183.824 183.031 182.798 181.988 181.749 185.925 
185.291 185.048 184.343 184.102 183.35 183.099 182.308 182.038 186.848 
186.302 186.102 185.482 185.269 184.594 184.378 183.635 183.366 182.56 
182.256 187.776 187.247 187.113 186.514 186.313 185.689 185.479 184.843 
184.592 183.859 183.511 182.714 182.357 188.626 188.197 188.098 187.542 
187.314 186.683 186.389 185.809 185.523 184.942 184.581 183.884 183.462 
182.732 182.375 189.12 188.899 188.782 188.409 188.145 187.605 187.207 
186.622 186.227 185.708 185.337 184.792 184.381 183.748 183.361 182.718 
182.42 189.285 189.202 189.055 188.856 188.564 188.225 187.801 187.323 
186.842 186.331 185.89 185.416 185.02 184.531 184.162 183.625 183.308 
182.746 182.475 180.638 181.142 181.281 182.057 181.621 181.819 182.675 
182.774 183.55 182.032 182.308 183.245 183.414 184.262 184.299 184.974 
182.357 182.707 183.69 183.952 184.865 185.007 185.728 185.658 186.133 
182.623 183.028 184.032 184.344 185.284 185.543 186.338 186.381 186.878 
186.7 187.037 182.779 183.274 184.295 184.648 185.553 185.875 186.714 
186.917 187.517 187.435 187.795 187.574 187.914 182.688 183.319 184.334 
184.816 185.645 186.029 186.788 187.15 187.818 187.983 188.422 188.316 
188.61 188.429 188.72 182.351 183.061 184.03 184.672 185.45 185.941 
186.555 187.017 187.598 188.036 188.507 188.727 188.98 188.97 189.111 
189.043 189.17 181.933 182.609 183.501 184.213 184.966 185.561 186.095 
186.598 187.04 187.577 187.986 188.476 188.709 188.992 189.027 189.156 
189.155 189.237 189.271 179.837 178.642 179.592 180.254 177.156 178.229 
178.862 179.938 180.628 175.527 176.601 177.162 178.351 179.035 180.237 
180.953 174.006 174.983 175.461 176.566 177.17 178.45 179.181 180.483 
181.212 172.528 173.501 173.96 174.943 175.44 176.561 177.194 178.535 
179.3 180.675 181.416 170.991 171.982 172.464 173.469 173.962 174.949 
175.494 176.616 177.322 178.665 179.471 180.846 181.559 169.609 170.481 
170.96 171.952 172.513 173.518 174.134 175.121 175.823 176.9 177.696 
178.925 179.69 180.949 181.539 168.493 169.226 169.688 170.55 171.138 
172.109 172.823 173.842 174.637 175.629 176.418 177.406 178.127 179.183 
179.784 180.881 181.321 167.516 168.192 168.654 169.417 170.003 170.863 
171.578 172.567 173.395 174.445 175.245 176.225 176.881 177.794 178.328 
179.262 179.709 180.672 181.027 167.114 166.986 167.452 168.317 167.007 
167.441 168.391 168.8 169.723 167.144 167.549 168.573 168.981 169.998 
170.332 171.327 167.437 167.768 168.849 169.248 170.354 170.697 171.768 
172.064 173.143 167.919 168.15 169.228 169.595 170.748 171.108 172.201 
172.519 173.594 173.921 174.973 168.515 168.677 169.687 170.006 171.142 
171.516 172.603 172.929 173.938 174.285 175.29 175.65 176.577 169.162 
169.28 170.222 170.466 171.532 171.888 172.969 173.31 174.303 174.606 
175.559 175.895 176.822 177.144 177.981 169.832 169.935 170.844 171.013 
171.995 172.269 173.307 173.65 174.672 174.984 175.945 176.217 177.131 
177.4 178.253 178.512 179.308 170.466 170.587 171.466 171.621 172.526 
172.731 173.674 173.975 174.964 175.319 176.288 176.602 177.493 177.75 
178.566 178.801 179.568 179.816 180.572 171.077 172.336 171.831 172.099 
173.643 173.124 173.411 172.892 173.164 175.009 174.462 174.764 174.232 
174.538 173.989 174.293 176.453 175.874 176.196 175.633 175.974 175.41 
175.761 175.193 175.564 177.922 177.347 177.67 177.098 177.443 176.883 
177.248 176.69 177.075 176.517 176.886 179.287 178.781 179.087 178.551 
178.884 178.348 178.701 178.162 178.519 177.99 178.344 177.798 178.091 
180.458 180.053 180.373 179.915 180.278 179.783 180.172 179.627 179.982 
179.414 179.742 179.201 179.497 178.933 179.151 181.473 181.14 181.485 
181.124 181.528 181.14 181.587 181.114 181.502 180.916 181.225 180.619 
180.908 180.328 180.577 179.966 180.148 182.387 182.103 182.429 182.145 
182.518 182.262 182.687 182.4 182.777 182.353 182.626 182.084 182.329 
181.758 182.014 181.414 181.636 180.981 181.157 181.99 182.474 182.651 
183.487 182.834 183.072 183.882 184.119 184.887 183.091 183.341 184.078 
184.381 185.095 185.364 185.978 183.307 183.527 184.152 184.453 185.113 
185.452 186.077 186.333 186.893 183.401 183.657 184.188 184.461 185.08 
185.431 186.098 186.404 187.003 187.235 187.791 183.288 183.624 184.129 
184.437 185.043 185.413 186.117 186.451 187.04 187.286 187.757 188.029 
188.457 183.106 183.45 183.979 184.321 184.949 185.363 186.102 186.486 
187.063 187.283 187.619 187.847 188.152 188.489 188.776 183.012 183.315 
183.866 184.186 184.818 185.239 185.986 186.434 187.049 187.292 187.6 
187.707 187.936 188.154 188.465 188.75 189 182.961 183.26 183.798 
184.102 184.677 185.073 185.744 186.236 186.854 187.219 187.59 187.728 
187.984 188.087 188.433 188.594 188.942 189.063 189.252 159.319 159.881 
159.404 159.177 160.694 160.11 159.895 159.438 159.418 161.719 161.072 
160.926 160.333 160.253 159.795 159.882 162.869 162.19 162.078 161.462 
161.382 160.766 160.701 160.275 160.451 164.142 163.412 163.295 162.641 
162.559 161.915 161.812 161.213 161.266 160.93 161.313 165.542 164.775 
164.691 163.942 163.865 163.136 163.062 162.381 162.437 161.921 162.25 
161.979 162.547 166.965 166.224 166.189 165.423 165.385 164.577 164.534 
163.748 163.825 163.195 163.498 163.069 163.55 163.298 163.881 168.35 
167.647 167.635 166.917 166.917 166.151 166.141 165.332 165.392 164.67 
164.919 164.377 164.782 164.384 164.86 164.608 165.148 169.704 169.032 
169.04 168.346 168.365 167.654 167.686 166.939 167.01 166.271 166.466 
165.835 166.181 165.671 166.091 165.678 166.139 165.862 166.37 158.99 
158.907 158.806 158.73 159.225 158.975 159.009 158.865 159.099 159.775 
159.495 159.668 159.432 159.754 159.566 160.053 160.428 160.146 160.428 
160.231 160.62 160.379 160.8 160.662 161.287 161.324 160.918 161.228 
161.021 161.453 161.249 161.637 161.427 161.923 161.92 162.64 162.553 
161.996 162.276 161.914 162.357 162.102 162.561 162.298 162.791 162.626 
163.278 163.296 163.995 163.903 163.328 163.604 163.109 163.528 163.137 
163.646 163.323 163.887 163.617 164.242 164.069 164.708 164.616 165.165 
165.184 164.666 164.967 164.482 164.871 164.411 164.854 164.478 164.996 
164.727 165.29 165.075 165.614 165.42 165.911 165.747 166.222 166.374 
165.901 166.189 165.773 166.125 165.709 166.049 165.653 166.022 165.741 
166.186 166.004 166.466 166.291 166.73 166.543 167 166.842 167.362 
159.16 158.824 159.069 159.513 159.102 158.961 159.343 159.65 160.415 
160.049 159.564 159.875 159.794 160.569 160.883 161.899 161.409 160.78 
161.076 160.656 161.315 161.308 162.276 162.553 163.56 162.848 162.25 
162.558 162.013 162.492 162.214 162.951 163.02 163.914 164.178 165.114 
164.114 163.623 163.877 163.411 163.754 163.38 163.897 163.746 164.478 
164.577 165.498 165.772 166.822 165.167 164.737 164.916 164.547 164.872 
164.544 165.047 164.773 165.465 165.321 166.232 166.31 167.42 167.657 
168.772 166.222 165.75 165.958 165.555 165.97 165.656 166.311 166.029 
166.835 166.545 167.454 167.285 168.345 168.401 169.51 169.643 170.565 
167.428 166.91 167.223 166.743 167.269 166.899 167.676 167.402 168.315 
168.03 168.935 168.65 169.574 169.438 170.414 170.429 171.312 171.314 
171.978 179.302 178.111 178.54 178.125 176.838 177.28 176.831 177.247 
176.691 175.487 175.933 175.425 175.88 175.323 175.718 175.11 174.081 
174.518 173.958 174.419 173.866 174.315 173.747 174.146 173.587 172.704 
173.099 172.524 172.945 172.388 172.847 172.304 172.755 172.191 172.623 
172.07 171.43 171.763 171.174 171.539 170.947 171.374 170.809 171.281 
170.712 171.172 170.592 171.056 170.524 170.25 170.529 169.907 170.219 
169.584 169.946 169.337 169.773 169.219 169.686 169.165 169.611 169.129 
169.577 169.173 169.136 169.37 168.744 169.002 168.391 168.661 168.073 
168.388 167.875 168.269 167.853 168.281 167.909 168.311 167.957 168.371 
168.074 168.104 168.295 167.711 167.926 167.401 167.608 167.111 167.307 
166.843 167.096 166.721 167.083 166.78 167.178 166.863 167.24 166.918 
167.338 167.081 
POINT_DATA 1002
SCALARS Distance double
LOOKUP_TABLE default
171.56 170.35 170.196 171.489 170.181 172.839 171.582 170.308 172.879 
174.17 171.751 170.478 173.045 174.309 175.564 171.887 170.693 173.209 
174.512 175.776 177.034 172.123 171.046 173.388 174.738 176.034 177.313 
178.491 172.59 171.534 173.75 175.039 176.349 177.603 178.779 179.765 
173.165 172.073 174.274 175.421 176.669 177.903 179.018 179.999 180.827 
173.686 172.611 174.787 175.838 176.974 178.193 179.282 180.203 181.041 
181.786 174.115 173.11 175.198 176.25 177.318 178.483 179.58 180.47 
181.255 182.01 182.664 169.035 168.862 167.681 167.451 166.289 168.83 
166.008 164.881 167.36 168.939 164.663 163.559 165.932 167.474 169.182 
163.45 162.361 164.708 166.108 167.837 169.567 162.303 161.278 163.57 
164.879 166.484 168.35 170.037 161.341 160.388 162.511 163.719 165.151 
167.017 168.917 170.561 160.65 159.73 161.733 162.807 164.015 165.716 
167.741 169.587 171.171 160.143 159.269 161.214 162.253 163.289 164.697 
166.626 168.644 170.369 171.822 159.468 160.541 160.078 161.332 161.295 
161.731 162.615 162.927 162.59 162.826 164.179 164.503 163.877 163.798 
164.059 165.834 166.065 165.535 165.283 165.335 165.825 167.678 167.926 
167.44 167.194 167.076 167.35 167.967 169.515 169.819 169.255 169.061 
168.903 168.974 169.405 169.931 170.983 171.338 170.648 170.448 170.328 
170.313 170.608 171.101 171.507 172.15 172.53 171.772 171.534 171.428 
171.378 171.541 171.993 172.476 172.824 174.172 173.871 175.301 173.468 
175.036 176.546 172.971 174.687 176.394 177.856 172.639 174.333 176.176 
177.784 179.095 172.615 174.2 175.969 177.592 178.941 180.104 172.692 
174.257 175.915 177.41 178.695 179.781 180.758 172.816 174.318 175.946 
177.359 178.603 179.638 180.452 181.223 173.098 174.432 175.982 177.371 
178.632 179.771 180.565 181.137 181.783 173.468 174.648 176.052 177.395 
178.637 179.876 180.841 181.384 181.823 182.423 175.269 176.498 176.428 
177.784 177.734 177.584 179.065 178.998 178.948 178.77 180.312 180.25 
180.154 180.109 179.921 181.28 181.518 181.387 181.236 181.133 180.871 
181.789 182.382 182.577 182.394 182.175 181.978 181.66 182.199 182.804 
183.302 183.407 183.183 182.931 182.716 182.411 182.804 183.286 183.771 
184.083 184.046 183.781 183.567 183.392 183.091 183.296 183.846 184.222 
184.876 185.078 184.328 185.686 185.911 185.321 184.685 186.397 186.881 
186.046 185.531 184.806 187.404 187.984 186.72 186.157 185.467 184.61 
188.649 188.918 187.77 186.856 186.105 185.234 184.341 189.438 189.377 
188.805 187.784 186.903 186.014 185.032 184.176 189.479 189.425 189.094 
188.352 187.628 186.838 185.792 184.778 183.934 189.223 189.342 188.83 
188.294 187.871 187.376 186.431 185.283 184.33 183.51 182.575 183.301 
182.651 183.295 182.865 184.148 183.655 183.32 184.317 185.179 184.144 
183.595 184.877 185.704 186.36 184.15 183.439 185.093 186.181 186.956 
187.423 183.865 183.181 184.712 185.898 187.008 187.629 188.186 183.699 
182.985 184.379 185.294 186.455 187.376 187.993 188.712 183.486 182.685 
184.202 184.938 185.875 186.91 187.746 188.425 189.061 183.042 182.222 
183.85 184.646 185.461 186.38 187.365 188.215 188.84 189.236 173.488 
174.604 174.552 175.75 175.622 175.909 176.809 176.643 177.066 177.286 
177.891 177.688 178.181 178.465 178.599 179.087 178.788 179.435 179.753 
179.9 179.927 180.221 179.85 180.652 181.059 181.228 181.189 181.082 
181.185 180.808 181.585 182.034 182.304 182.217 181.985 181.736 182.016 
181.615 182.326 182.659 182.986 182.987 182.641 182.321 182.094 172.069 
173.062 171.33 172.456 170.492 174.182 171.812 169.827 173.681 175.316 
171.259 169.261 173.095 174.843 176.375 170.686 168.574 172.554 174.255 
175.924 177.433 170.018 167.934 172.059 173.799 175.435 177.048 178.534 
169.456 167.632 171.53 173.447 175.115 176.674 178.192 179.601 169.183 
167.68 171.039 172.992 174.803 176.375 177.83 179.253 180.546 169.165 
167.913 170.713 172.472 174.311 176.002 177.464 178.844 180.155 181.291 