# vtk DataFile Version 4.0
vtk output
ASCII
DATASET POLYDATA
POINTS 1002 float
-118.536 -114.416 54.7094 -118.556 -113.171 53.8552 -118.006 -113.404 54.2157 
-117.965 -114.842 55.1289 -117.547 -113.715 54.7205 -118.543 -115.956 55.613 
-117.497 -115.281 55.6915 -117.119 -114.154 55.3166 -117.953 -116.479 56.0938 
-118.551 -117.508 56.6001 -117.092 -115.706 56.384 -116.588 -114.698 55.9869 
-117.509 -116.911 56.7301 -117.922 -117.986 57.1711 -118.466 -118.843 57.7995 
-116.574 -116.191 57.1678 -116 -115.331 56.6523 -117.098 -117.298 57.5411 
-117.494 -118.392 57.96 -117.826 -119.302 58.5746 -118.348 -120.129 59.2547 
-115.932 -116.838 57.9031 -115.461 -116.014 57.3349 -116.439 -117.803 58.4078 
-116.988 -118.824 58.9164 -117.373 -119.767 59.551 -117.713 -120.685 60.1774 
-118.241 -121.521 60.7251 -115.358 -117.495 58.6533 -114.955 -116.591 58.2151 
-115.733 -118.411 59.2118 -116.245 -119.34 59.8579 -116.784 -120.272 60.5458 
-117.158 -121.241 61.1371 -117.531 -122.137 61.6117 -118.01 -122.763 62.142 
-114.961 -117.945 59.5981 -114.522 -117.012 59.2059 -115.339 -118.9 60.1308 
-115.706 -119.838 60.8166 -116.136 -120.814 61.5045 -116.536 -121.819 62.0533 
-116.88 -122.736 62.505 -117.248 -123.376 63.0299 -117.657 -123.724 63.6778 
-114.654 -118.296 60.587 -114.208 -117.419 60.034 -115.068 -119.277 61.182 
-115.394 -120.275 61.8621 -115.65 -121.342 62.5018 -115.917 -122.41 62.9956 
-116.245 -123.327 63.4372 -116.609 -124.006 63.9522 -116.967 -124.416 64.5494 
-117.337 -124.65 65.1392 -114.288 -118.75 61.3733 -113.928 -117.908 60.6602 
-114.598 -119.756 62.0491 -114.868 -120.793 62.7255 -115.065 -121.886 63.3504 
-115.238 -122.976 63.8529 -115.507 -123.879 64.3212 -115.892 -124.572 64.8408 
-116.3 -125.1 65.3563 -116.68 -125.454 65.8099 -117.06 -125.671 66.1928 
-118.179 -112.21 53.2103 -117.691 -112.303 53.6985 -117.751 -111.142 52.7207 
-117.336 -111.155 53.3216 -117.344 -109.898 52.419 -117.279 -112.563 54.2758 
-116.848 -109.994 52.934 -116.91 -108.661 52.054 -116.879 -111.421 53.9303 
-116.727 -113.097 54.897 -116.135 -109.046 52.3394 -116.24 -107.744 51.61 
-116.255 -110.34 53.5138 -116.169 -112.015 54.5765 -115.995 -113.808 55.5059 
-115.254 -108.394 51.92 -115.385 -107.07 51.4746 -115.465 -109.54 52.9978 
-115.55 -110.945 54.2691 -115.359 -112.817 55.1217 -115.37 -114.555 56.0838 
-114.5 -107.68 52.0455 -114.67 -106.33 51.6834 -114.628 -108.958 52.7626 
-114.86 -110.189 53.9305 -114.808 -111.828 54.8702 -114.774 -113.653 55.7066 
-114.896 -115.224 56.9272 -114.052 -106.781 52.4267 -114.108 -105.57 52.0291 
-113.972 -108.228 52.9033 -113.996 -109.678 53.6812 -114.096 -111.161 54.6091 
-114.237 -112.803 55.5447 -114.364 -114.393 56.7436 -114.42 -115.782 58.0534 
-113.7 -106.055 52.8695 -113.501 -105.043 52.5462 -113.614 -107.433 53.25 
-113.277 -109.097 53.6828 -113.167 -110.69 54.3523 -113.5 -112.164 55.3329 
-113.835 -113.689 56.5716 -113.901 -115.13 57.8482 -113.977 -116.338 58.977 
-113.251 -105.742 53.4427 -112.922 -104.857 53.226 -113.327 -106.912 53.7858 
-112.933 -108.492 54.0742 -112.529 -110.16 54.4291 -112.707 -111.583 55.1563 
-113.158 -113.037 56.2641 -113.314 -114.629 57.4356 -113.368 -115.954 58.4954 
-113.63 -116.942 59.5543 -112.71 -105.503 54.0598 -112.902 -106.456 54.3889 
-112.495 -106.357 55.0544 -112.361 -107.29 55.4647 -112.132 -107.19 56.1952 
-112.743 -107.756 54.7486 -111.826 -108.154 56.6077 -111.796 -108.182 57.5315 
-112.138 -108.648 55.8426 -112.329 -109.409 54.9991 -111.624 -109.342 57.9036 
-111.709 -109.594 59.0539 -111.893 -109.6 56.9989 -112.15 -110.233 56.1487 
-112.273 -110.935 55.4008 -111.884 -110.811 59.113 -112.086 -110.989 60.1469 
-112.066 -110.874 58.1161 -112.328 -111.222 57.3402 -112.367 -111.746 56.6156 
-112.571 -112.407 56.2006 -112.72 -112.096 59.6615 -113.115 -112.038 60.2724 
-112.642 -112.296 58.8928 -112.641 -112.608 58.3268 -112.367 -113.029 57.7989 
-112.207 -113.636 57.2773 -112.629 -114.245 57.171 -113.8 -113.291 59.8787 
-114.28 -113.145 60.1698 -113.481 -113.633 59.4495 -113.171 -114.053 59.153 
-112.524 -114.511 58.9082 -111.845 -115.104 58.4252 -111.901 -115.674 58.021 
-112.62 -115.925 58.1225 -114.339 -114.629 60.683 -114.767 -114.452 60.8536 
-113.956 -114.97 60.4514 -113.545 -115.332 60.272 -112.883 -115.674 60.1332 
-112.042 -116.147 59.8007 -111.695 -116.696 59.2878 -112.173 -116.993 59.0349 
-112.977 -116.981 59.228 -114.189 -115.899 62.1063 -114.546 -115.658 62.2359 
-113.832 -116.226 61.9606 -113.411 -116.468 61.8084 -112.888 -116.589 61.5863 
-112.306 -116.817 61.2471 -111.949 -117.26 60.8296 -112.15 -117.666 60.48 
-112.78 -117.828 60.377 -113.431 -117.847 60.5054 -113.732 -119.048 61.7585 
-113.23 -118.978 61.7728 -113.201 -120.585 62.8607 -112.668 -118.848 61.8499 
-112.75 -120.569 63.082 -112.676 -122.275 64.0424 -112.195 -118.531 62.0093 
-112.34 -120.421 63.3139 -112.326 -122.345 64.5487 -112.357 -123.743 65.828 
-112.027 -118.028 62.2959 -112.028 -119.999 63.5191 -112.006 -122.249 64.9874 
-111.877 -123.864 66.5523 -111.623 -124.989 67.9696 -112.209 -117.644 62.7653 
-111.911 -119.358 63.907 -111.793 -121.762 65.3809 -111.393 -123.772 67.0582 
-110.828 -125.033 68.4958 -110.407 -126.045 69.4619 -112.66 -117.584 63.2133 
-112.128 -118.953 64.4398 -111.813 -121.068 65.8585 -111.161 -123.265 67.4971 
-110.202 -124.751 68.8554 -109.625 -125.778 69.8155 -109.527 -126.72 70.5473 
-113.204 -117.564 63.4204 -112.695 -118.927 64.6989 -112.208 -120.699 66.1133 
-111.313 -122.661 67.8519 -110.057 -124.146 69.3136 -109.135 -125.171 70.2784 
-108.883 -126.143 71.135 -108.888 -127.135 71.9672 -113.633 -117.304 63.5105 
-113.297 -118.839 64.6774 -112.897 -120.61 65.9394 -111.879 -122.34 67.7851 
-110.448 -123.576 69.6646 -109.267 -124.474 70.8799 -108.583 -125.453 71.7151 
-108.218 -126.516 72.5761 -107.999 -127.482 73.3309 -113.944 -116.922 63.6329 
-113.677 -118.459 64.7002 -113.53 -120.344 65.6911 -112.713 -122.132 67.3435 
-111.252 -123.246 69.5052 -109.974 -123.943 71.2152 -109.066 -124.871 72.1966 
-108.224 -126.005 72.9118 -107.508 -126.954 73.601 -107.204 -127.639 74.1316 
-113.883 -120.15 62.4855 -113.213 -121.857 63.4877 -114.022 -121.308 63.1571 
-112.772 -123.479 64.8732 -113.324 -123.057 64.2096 -114.195 -122.453 63.8422 
-112.307 -124.859 67.0513 -112.84 -124.663 65.9184 -113.477 -124.219 65.0532 
-114.371 -123.582 64.4883 -111.183 -126.114 68.9964 -112.005 -126.066 68.0781 
-112.81 -125.816 66.8563 -113.649 -125.235 65.8262 -114.609 -124.519 65.0856 
-110.057 -127.078 70.1143 -110.756 -127.174 69.5404 -111.816 -127.086 68.6487 
-112.911 -126.693 67.4861 -113.914 -125.972 66.4791 -114.977 -125.22 65.6856 
-109.394 -127.716 71.3828 -109.872 -127.968 70.6398 -110.803 -127.937 69.9323 
-112.106 -127.761 69.0539 -113.22 -127.294 67.9574 -114.298 -126.57 66.9935 
-115.44 -125.824 66.191 -108.597 -128.184 72.9437 -109.193 -128.665 72.1144 
-110.032 -128.691 71.2072 -111.369 -128.481 70.4088 -112.652 -128.214 69.4224 
-113.677 -127.755 68.2641 -114.828 -127.096 67.2852 -115.935 -126.312 66.5283 
-107.721 -128.347 74.0334 -108.468 -129.084 73.4714 -109.347 -129.401 72.538 
-110.621 -129.201 71.5922 -112.088 -128.856 70.6656 -113.258 -128.532 69.5527 
-114.319 -128.094 68.3787 -115.47 -127.457 67.4415 -116.426 -126.613 66.779 
-107.222 -127.853 74.6164 -107.947 -128.722 74.4279 -108.246 -127.924 75.0118 
-109.143 -128.973 74.7341 -109.9 -128.32 75.387 -108.858 -129.564 73.8074 
-110.655 -129.376 75.1251 -111.299 -128.979 75.471 -109.974 -129.799 74.0983 
-109.928 -129.808 72.8003 -111.802 -129.717 75.1946 -112.396 -129.147 75.0501 
-111.245 -129.944 74.419 -110.953 -129.954 72.9088 -111.378 -129.514 71.673 
-113.058 -129.566 74.5475 -113.712 -128.844 74.3238 -112.583 -129.921 74.2101 
-112.268 -130.004 72.8482 -112.403 -129.738 71.4775 -112.878 -129.142 70.5566 
-114.845 -129.297 73.597 -115.336 -128.766 73.5682 -114.423 -129.705 73.3025 
-114.034 -129.933 72.3497 -113.829 -129.878 71.1855 -113.939 -129.397 70.3145 
-114.132 -128.755 69.4092 -116.809 -129.239 72.9559 -117.171 -128.762 73.0325 
-116.48 -129.607 72.4749 -116.058 -129.791 71.6672 -115.575 -129.757 70.8522 
-115.283 -129.407 70.1681 -115.245 -128.833 69.3237 -115.318 -128.206 68.3048 
-118.602 -128.995 72.6916 -119.016 -128.373 72.8568 -118.233 -129.482 72.1565 
-117.812 -129.672 71.3385 -117.257 -129.504 70.6045 -116.707 -129.104 70.0363 
-116.409 -128.616 69.3033 -116.35 -128.085 68.3339 -116.375 -127.426 67.4589 
-120.038 -128.407 72.5136 -120.511 -127.757 72.8405 -119.57 -128.975 72.0061 
-119.129 -129.295 71.2726 -118.651 -129.198 70.5 -118.085 -128.77 69.8461 
-117.585 -128.263 69.1751 -117.323 -127.772 68.3568 -117.218 -127.188 67.5489 
-117.136 -126.449 66.8697 -107.066 -127.284 74.4038 -107.468 -127.22 75.0468 
-107.857 -126.945 74.8935 -108.502 -126.728 75.8652 -109.216 -126.529 75.5195 
-108.823 -127.253 75.6594 -109.837 -126.33 76.4771 -110.401 -126.114 75.3544 
-109.788 -126.886 76.4438 -110.488 -127.851 75.8769 -111.009 -126.055 75.8143 
-111.426 -125.969 74.0015 -110.954 -126.636 76.5084 -111.373 -127.437 76.2155 
-111.96 -128.336 75.5301 -112.191 -126.017 74.1277 -112.766 -125.937 72.337 
-112.101 -126.443 75.3687 -112.54 -127.032 75.9431 -113.07 -127.484 75.7471 
-113.338 -128.14 74.9814 -113.639 -125.98 72.4305 -114.279 -125.542 71.0694 
-113.27 -126.318 73.7062 -113.54 -126.793 74.8047 -114.145 -127.014 75.579 
-114.462 -127.326 75.2278 -114.664 -128.057 74.244 -115.165 -125.575 71.0834 
-115.558 -124.672 70.219 -114.709 -126.067 72.1455 -114.589 -126.515 73.1846 
-114.955 -126.846 74.326 -115.359 -127.08 74.7574 -115.634 -127.61 74.0531 
-116.203 -128.279 73.3117 -116.444 -124.716 70.1708 -116.539 -123.577 69.6763 
-116.233 -125.486 70.9422 -116.046 -125.979 71.7479 -116.148 -126.361 72.6342 
-116.469 -126.662 73.3819 -116.821 -127.072 73.341 -117.351 -127.615 72.9142 
-118.17 -128.064 72.8249 -117.383 -123.624 69.6226 -117.328 -122.552 69.228 
-117.423 -124.546 70.2177 -117.439 -125.189 70.8816 -117.582 -125.609 71.4877 
[...]
CELL_DATA 2000
SCALARS Distance double
LOOKUP_TABLE default
171.842 171.83 172.208 173.038 171.96 172.284 173.132 173.509 174.387 
172.173 172.475 173.325 173.658 174.513 174.865 175.69 172.403 172.702 
173.562 173.883 174.742 175.038 175.843 176.142 176.944 172.673 172.941 
173.783 174.104 174.976 175.292 176.127 176.381 177.189 177.452 178.28 
172.998 173.234 174.039 174.319 175.166 175.502 176.371 176.68 177.51 
177.764 178.565 178.818 179.573 173.343 173.573 174.391 174.621 175.468 
175.734 176.623 176.925 177.797 178.073 178.874 179.111 179.83 180.039 
180.663 173.696 173.928 174.782 175.015 175.893 176.116 177.007 177.248 
178.126 178.374 179.19 179.414 180.146 180.325 180.964 181.092 181.648 
174.047 174.284 175.127 175.393 176.25 176.518 177.359 177.626 178.437 
178.697 179.456 179.702 180.406 180.626 181.268 181.426 181.991 182.084 
182.584 171.121 170.008 170.716 171.06 168.86 169.596 169.961 170.716 
171.163 167.654 168.425 168.807 169.607 170.058 170.859 171.355 166.417 
167.182 167.547 168.401 168.86 169.717 170.209 171.045 171.565 165.272 
165.962 166.317 167.137 167.62 168.489 168.999 169.862 170.404 171.27 
171.84 164.294 164.9 165.27 165.996 166.508 167.312 167.863 168.681 
169.257 170.118 170.744 171.6 172.197 163.476 164.023 164.402 165.042 
165.535 166.275 166.834 167.617 168.226 169.047 169.72 170.556 171.21 
171.994 172.566 162.83 163.318 163.736 164.273 164.732 165.355 165.867 
166.605 167.219 168.056 168.771 169.613 170.31 171.071 171.67 172.38 
172.925 162.422 162.82 163.316 163.744 164.226 164.679 165.156 165.721 
166.3 167.06 167.786 168.661 169.4 170.207 170.825 171.527 172.066 
172.754 173.288 162.503 163.106 162.969 163.384 163.753 163.567 163.893 
163.846 164.26 164.467 164.166 164.444 164.357 164.759 164.71 165.153 
165.588 165.017 165.287 165.016 165.492 165.324 165.807 165.687 166.268 
167.093 166.367 166.617 166.109 166.615 166.269 166.804 166.511 167.092 
166.97 167.728 168.616 167.938 168.201 167.608 168.081 167.596 168.102 
167.656 168.158 167.885 168.562 168.526 169.323 170.106 169.47 169.806 
169.216 169.689 169.147 169.614 169.054 169.446 168.996 169.511 169.349 
170.048 170.058 170.752 171.578 170.995 171.359 170.806 171.247 170.721 
171.122 170.558 170.854 170.303 170.657 170.316 170.883 170.777 171.443 
171.409 172.02 172.85 172.393 172.712 172.26 172.597 172.137 172.398 
171.909 172.087 171.595 171.83 171.443 171.888 171.668 172.284 172.165 
172.799 172.69 173.27 174.021 173.599 174.241 175.086 173.137 173.817 
174.749 175.376 176.277 172.728 173.361 174.361 175.069 176.114 176.695 
177.669 172.544 172.997 173.953 174.684 175.847 176.569 177.653 178.171 
179.052 172.694 172.916 173.723 174.307 175.478 176.287 177.449 178.093 
178.924 179.365 179.932 173.058 173.176 173.888 174.212 175.279 175.961 
177.136 177.816 178.608 179.072 179.524 179.942 180.332 173.364 173.564 
174.309 174.515 175.476 175.916 177.01 177.549 178.326 178.705 179.086 
179.44 179.791 180.264 180.711 173.488 173.803 174.599 174.906 175.833 
176.198 177.181 177.554 178.293 178.526 178.914 179.094 179.412 179.754 
180.184 180.669 181.095 173.548 173.867 174.64 175.056 175.982 176.451 
177.4 177.765 178.47 178.625 179.043 179.098 179.448 179.581 179.994 
180.256 180.643 180.997 181.268 174.511 175.575 175.219 175.6 176.718 
176.306 176.68 176.33 176.715 178.062 177.528 177.864 177.427 177.814 
177.451 177.828 179.432 178.943 179.266 178.72 179.06 178.589 178.963 
178.565 178.907 180.318 180.13 180.471 180.095 180.396 179.906 180.195 
179.723 180.034 179.616 179.905 180.759 180.755 181.098 181.001 181.311 
181.082 181.34 180.944 181.163 180.726 180.983 180.581 180.835 181.211 
181.191 181.563 181.474 181.801 181.735 182.084 181.919 182.169 181.81 
182.008 181.62 181.87 181.488 181.701 181.607 181.681 182.117 182.02 
182.352 182.222 182.613 182.54 182.915 182.709 182.931 182.589 182.794 
182.463 182.69 182.31 182.441 181.693 181.934 182.419 182.529 182.908 
182.829 183.17 183.084 183.466 183.369 183.656 183.424 183.608 183.32 
183.522 183.223 183.385 182.984 183.035 181.8 182.375 182.239 182.616 
183.45 183.029 183.369 183.093 183.276 184.806 184.278 184.462 183.975 
184.068 183.644 183.618 185.765 185.481 185.552 185.062 184.961 184.454 
184.349 183.936 183.87 186.195 186.128 186.232 185.94 185.789 185.3 
185.1 184.655 184.551 184.178 184.061 186.681 186.531 186.739 186.506 
186.5 186.075 185.925 185.438 185.312 184.868 184.73 184.295 184.075 
187.508 187.226 187.511 187.174 187.287 186.846 186.78 186.284 186.141 
185.656 185.47 184.989 184.747 184.269 184.004 188.37 188.122 188.393 
188.066 188.166 187.725 187.626 187.122 186.894 186.409 186.126 185.673 
185.362 184.919 184.601 184.165 183.845 188.963 188.822 188.966 188.787 
188.785 188.493 188.307 187.882 187.546 187.062 186.669 186.218 185.834 
185.432 185.06 184.673 184.286 183.895 183.485 181.475 181.504 181.553 
182.016 182.107 181.858 182.224 182.334 183.114 182.742 182.576 182.899 
182.797 183.451 183.658 184.522 182.929 183.032 183.42 183.454 183.977 
184.076 184.717 184.955 185.523 182.964 183.102 183.531 183.748 184.296 
184.492 185.007 185.132 185.521 185.673 185.981 183.128 183.21 183.58 
183.765 184.306 184.622 185.195 185.384 185.744 185.756 186.009 186.083 
186.446 183.194 183.378 183.725 183.846 184.262 184.538 185.085 185.427 
185.858 185.986 186.222 186.234 186.554 186.693 187.211 183.002 183.344 
183.761 183.958 184.319 184.501 184.929 185.237 185.684 185.964 186.27 
186.4 186.691 186.833 187.302 187.54 188.087 182.66 183.076 183.549 
183.893 184.299 184.528 184.908 185.127 185.545 185.794 186.194 186.391 
186.767 186.937 187.404 187.627 188.161 188.383 188.807 173.838 174.648 
174.43 174.912 175.629 175.343 175.915 175.702 176.356 176.769 176.449 
177.101 176.853 177.574 177.289 177.864 177.929 177.636 178.279 178.064 
178.722 178.48 178.94 178.608 178.849 178.971 178.738 179.29 179.124 
179.643 179.456 179.77 179.497 179.616 179.3 179.337 179.858 179.679 
180.164 180.01 180.434 180.234 180.498 180.222 180.383 180.051 180.157 
179.759 179.814 180.646 180.493 180.971 180.822 181.236 181.003 181.275 
180.97 181.215 180.904 181.143 180.728 180.83 180.313 180.361 181.405 
181.26 181.739 181.603 182.025 181.807 182.064 181.765 181.979 181.734 
181.989 181.708 181.79 181.326 181.226 180.777 180.798 182.127 182.005 
182.463 182.342 182.732 182.55 182.762 182.494 182.614 182.398 182.576 
182.411 182.475 182.134 181.933 181.489 181.31 181.068 181.183 173.378 
172.97 173.535 174.211 172.404 173.116 173.9 174.43 175.152 171.692 
172.46 173.351 174.078 174.893 175.437 176.233 171.125 171.739 172.595 
173.44 174.422 175.149 176.034 176.575 177.403 170.663 171.188 171.927 
172.721 173.801 174.658 175.725 176.374 177.257 177.744 178.504 170.059 
170.631 171.343 172.112 173.222 174.118 175.305 176.056 177.029 177.58 
178.351 178.787 179.434 169.609 170.076 170.849 171.543 172.656 173.566 
174.789 175.633 176.652 177.297 178.107 178.609 179.284 179.673 180.25 
169.663 169.928 170.751 171.204 172.235 172.993 174.161 175.047 176.105 
176.864 177.735 178.332 179.082 179.531 180.157 180.487 181.029 170.006 
170.213 171.028 171.301 172.184 172.666 173.669 174.408 175.461 176.271 
177.235 177.939 178.777 179.322 180.014 180.4 180.959 181.257 181.756 
170.435 171.368 171.116 171.501 172.29 172.053 172.506 172.206 172.616 
173.364 173.038 173.529 173.233 173.714 173.397 173.969 174.601 174.201 
174.707 174.361 174.932 174.581 175.209 174.914 175.667 175.906 175.484 
176 175.624 176.242 175.896 176.579 176.243 176.988 176.706 177.464 
177.282 176.851 177.397 176.968 177.565 177.216 177.887 177.597 178.306 
178.033 178.729 178.441 179.05 178.672 178.284 178.87 178.415 178.975 
178.553 179.167 178.85 179.512 179.259 179.89 179.633 180.169 179.873 
180.293 179.967 179.651 180.253 179.862 180.4 179.968 180.53 180.15 
180.771 180.45 181.034 180.727 181.203 180.903 181.273 180.959 181.239 
181.183 180.892 181.477 181.155 181.68 181.317 181.843 181.488 182.057 
181.72 182.248 181.883 182.292 181.919 182.242 181.897 182.167 181.823 
182.042 182.069 183.439 182.615 182.315 184.662 183.928 183.614 182.824 
182.512 185.629 185.051 184.802 184.1 183.816 183.018 182.712 186.443 
185.944 185.779 185.215 184.997 184.299 184.023 183.233 182.933 187.384 
186.824 186.708 186.162 185.988 185.386 185.116 184.45 184.134 183.407 
183.059 188.412 187.862 187.741 187.147 186.949 186.336 186.036 185.418 
185.069 184.451 184.074 183.409 183.007 189.08 188.748 188.524 188.067 
187.73 187.206 186.803 186.247 185.839 185.279 184.892 184.305 183.906 
183.273 182.881 189.206 189.087 188.716 188.484 187.971 187.673 187.138 
186.792 186.302 185.905 185.481 185.028 184.643 184.107 183.716 183.123 
182.755 189.044 188.981 188.523 188.376 187.792 187.619 187.061 186.877 
186.388 186.157 185.715 185.436 185.047 184.706 184.339 183.884 183.501 
182.965 182.596 182.168 182.844 182.916 183.64 183.427 183.642 184.441 
184.368 184.9 183.671 184.133 185.036 185.13 185.663 185.507 185.846 
183.54 184.19 185.156 185.54 186.173 186.202 186.556 186.357 186.639 
183.256 183.932 184.859 185.433 186.182 186.54 187.074 187.062 187.404 
187.18 187.544 183.01 183.631 184.492 185.044 185.798 186.363 187.09 
187.444 187.965 187.936 188.296 188.129 188.519 182.81 183.392 184.224 
184.702 185.386 185.93 186.677 187.273 187.935 188.273 188.659 188.711 
188.978 188.952 189.178 182.582 183.146 183.918 184.414 185.039 185.532 
186.175 186.776 187.406 187.97 188.369 188.721 188.907 189.111 189.238 
189.329 189.35 182.273 182.808 183.469 184.014 184.603 185.133 185.696 
186.245 186.753 187.313 187.661 188.153 188.327 188.729 188.844 189.148 
189.218 189.328 189.247 181.273 179.86 180.986 181.809 178.198 179.382 
180.114 181.416 182.237 176.535 177.627 178.188 179.491 180.214 181.659 
182.387 175.076 176.023 176.501 177.573 178.148 179.486 180.2 181.657 
182.29 173.772 174.648 175.17 176.076 176.618 177.619 178.228 179.471 
180.143 181.506 182.079 172.49 173.337 173.845 174.801 175.421 176.333 
176.888 177.782 178.283 179.401 179.973 181.289 181.844 171.324 172.064 
172.484 173.417 174.05 175.099 175.745 176.622 177.022 177.788 178.143 
179.21 179.779 181.097 181.68 170.357 170.998 171.377 172.123 172.664 
173.658 174.382 175.42 175.986 176.71 176.994 177.66 178.077 179.13 
179.804 181.037 181.602 169.435 170.083 170.454 171.108 171.542 172.351 
173.006 174.041 174.787 175.693 176.167 176.742 177.073 177.741 178.314 
179.325 180.008 181.053 181.497 168.982 168.565 169.205 170.03 168.287 
168.82 169.739 170.308 171.167 168.518 168.758 169.693 170.141 171.167 
171.623 172.652 169.097 169.2 170.064 170.317 171.381 171.783 172.943 
173.357 174.455 169.59 169.758 170.558 170.761 171.711 172.077 173.204 
173.668 174.749 175.124 175.929 170.043 170.204 171.008 171.194 172.074 
172.387 173.424 173.874 174.919 175.33 176.142 176.366 176.935 170.607 
170.71 171.52 171.657 172.555 172.785 173.832 174.158 175.227 175.538 
176.45 176.643 177.38 177.448 178.158 171.156 171.27 172.035 172.183 
173.06 173.296 174.347 174.653 175.741 175.989 176.937 177.087 177.912 
178.012 178.813 178.891 179.73 171.634 171.758 172.489 172.653 173.48 
173.74 174.717 175.089 176.114 176.46 177.339 177.569 178.308 178.501 
179.22 179.432 180.164 180.383 181.105 172.149 173.34 172.817 173.034 
174.707 174.13 174.363 173.79 174.072 176.037 175.533 175.824 175.231 
175.525 174.938 175.324 177.288 176.834 177.183 176.678 176.972 176.412 
176.744 176.243 176.66 178.603 178.119 178.472 177.99 178.27 177.756 
177.988 177.536 177.849 177.475 177.808 179.874 179.442 179.784 179.298 
179.565 179.018 179.204 178.687 178.908 178.522 178.825 178.485 178.755 
180.916 180.593 180.935 180.558 180.843 180.336 180.539 179.954 180.157 
179.627 179.901 179.485 179.806 179.418 179.689 181.841 181.539 181.869 
181.587 181.903 181.535 181.772 181.283 181.495 180.953 181.195 180.673 
180.954 180.504 180.815 180.389 180.651 182.755 182.448 182.753 182.476 
182.795 182.503 182.755 182.392 182.598 182.19 182.42 181.967 182.203 
181.713 181.96 181.512 181.789 181.354 181.588 182.266 182.466 182.709 
183.376 182.684 182.912 183.634 183.854 184.536 182.931 183.165 183.899 
184.14 184.86 185.037 185.667 183.068 183.342 184.012 184.335 185.012 
185.296 185.893 186.088 186.625 183.175 183.414 184.028 184.351 185.001 
185.338 185.91 186.181 186.659 186.908 187.384 183.327 183.541 184.151 
184.399 185.077 185.356 185.999 186.216 186.73 186.903 187.357 187.589 
188.04 183.39 183.669 184.276 184.544 185.195 185.48 186.151 186.392 
186.982 187.103 187.586 187.668 188.114 188.254 188.657 183.357 183.675 
184.261 184.583 185.151 185.495 186.071 186.443 187.015 187.313 187.812 
187.963 188.373 188.443 188.787 188.862 189.118 183.328 183.625 184.173 
184.491 184.99 185.329 185.8 186.198 186.684 187.13 187.599 187.983 
188.356 188.595 188.839 188.962 189.087 189.169 189.189 161.957 162.424 
161.949 161.655 163.131 162.567 162.234 161.795 161.69 163.999 163.383 
163.02 162.434 162.128 161.822 161.84 165.032 164.366 164.058 163.328 
162.945 162.331 162.159 161.974 162.244 166.189 165.495 165.277 164.506 
164.238 163.407 163.265 162.631 162.868 162.667 163.277 167.394 166.694 
166.496 165.773 165.624 164.86 164.863 164.1 164.334 163.737 164.232 
163.974 164.637 168.626 167.931 167.763 167.029 166.928 166.246 166.341 
165.722 165.948 165.324 165.592 165.097 165.493 165.291 165.822 169.849 
169.203 169.141 168.396 168.356 167.622 167.741 167.142 167.376 166.801 
166.95 166.364 166.525 166.149 166.537 166.412 166.955 171.001 170.438 
170.469 169.818 169.842 169.124 169.221 168.572 168.78 168.184 168.333 
167.673 167.756 167.194 167.485 167.205 167.752 167.627 168.217 161.723 
161.391 161.452 161.528 161.55 161.393 161.442 161.517 161.924 161.957 
161.799 161.983 161.784 162.147 162.212 162.842 162.504 162.35 162.743 
162.533 162.904 162.718 163.249 163.308 163.973 163.456 163.105 163.545 
163.337 163.746 163.523 163.937 163.85 164.428 164.493 165.1 164.71 
164.226 164.547 164.217 164.581 164.318 164.675 164.516 165.004 165.004 
165.587 165.619 166.141 165.883 165.426 165.647 165.252 165.525 165.184 
165.507 165.261 165.726 165.628 166.204 166.164 166.695 166.64 167.101 
167.006 166.525 166.723 166.302 166.549 166.167 166.48 166.161 166.61 
166.421 166.986 166.867 167.402 167.27 167.743 167.628 168.11 168.221 
167.682 167.87 167.392 167.666 167.245 167.595 167.212 167.64 167.357 
167.873 167.69 168.196 168.025 168.478 168.328 168.813 168.71 169.241 
162.08 161.938 162.218 162.778 162.333 162.335 162.917 163.08 163.593 
163.147 162.926 163.438 163.427 163.963 163.966 164.427 164.124 163.764 
164.082 163.976 164.47 164.467 165.012 164.969 165.58 165.177 164.721 
164.893 164.613 165.016 164.978 165.613 165.65 166.368 166.342 167.077 
166.221 165.776 166.014 165.587 166.039 165.748 166.438 166.342 167.141 
167.131 167.878 167.85 168.545 167.164 166.784 167.115 166.792 167.39 
167.064 167.804 167.469 168.203 167.972 168.676 168.593 169.28 169.26 
169.968 168.14 167.722 168.004 167.778 168.351 168.288 169.008 168.85 
169.441 169.129 169.649 169.428 170.075 170.011 170.743 170.72 171.441 
169.27 168.768 168.955 168.609 168.998 168.967 169.562 169.667 170.197 
170.128 170.532 170.365 170.913 170.843 171.567 171.53 172.221 172.155 
172.749 180.666 179.394 179.801 179.283 178.084 178.488 177.924 178.312 
177.706 176.735 177.147 176.56 176.933 176.305 176.691 176.09 175.429 
175.828 175.258 175.578 174.908 175.263 174.657 175.098 174.596 174.152 
174.558 174.036 174.337 173.668 173.919 173.295 173.679 173.225 173.701 
173.304 172.871 173.258 172.747 173.118 172.509 172.758 172.151 172.438 
172.021 172.425 172.093 172.497 172.117 171.739 171.995 171.438 171.803 
171.258 171.593 171.035 171.344 170.908 171.298 170.959 171.35 170.968 
171.33 170.963 170.813 170.948 170.347 170.581 170.066 170.378 169.88 
170.202 169.728 170.124 169.715 170.159 169.733 170.15 169.743 170.193 
169.914 169.942 170.067 169.47 169.614 169.108 169.325 168.865 169.108 
168.62 168.918 168.453 168.853 168.423 168.858 168.451 168.919 168.613 
169.157 168.954 
POINT_DATA 1002
SCALARS Distance double
LOOKUP_TABLE default
172.595 171.522 171.411 172.62 171.461 173.903 172.773 171.65 174.005 
175.256 173.005 171.867 174.2 175.337 176.479 173.236 172.109 174.447 
175.581 176.615 177.741 173.483 172.43 174.633 175.852 176.952 178.004 
179.1 173.794 172.773 174.845 176.025 177.241 178.341 179.353 180.27 
174.154 173.105 175.227 176.335 177.512 178.642 179.643 180.498 181.225 
174.529 173.456 175.666 176.789 177.901 178.971 179.961 180.838 181.558 
182.164 174.87 173.819 175.987 177.102 178.192 179.223 180.178 181.082 
181.886 182.532 183.06 170.432 170.309 169.286 169.196 168.101 170.379 
167.98 166.884 169.247 170.552 166.684 165.686 167.98 169.357 170.721 
165.519 164.612 166.75 168.133 169.511 170.984 164.572 163.702 165.72 
167.057 168.403 169.861 171.39 163.799 162.93 164.837 166.052 167.395 
168.882 170.42 171.823 163.228 162.334 164.184 165.18 166.372 167.893 
169.54 170.973 172.216 162.901 162.033 163.822 164.676 165.615 166.916 
168.552 170.11 171.393 172.591 162.576 163.432 163.311 163.962 163.989 
164.287 164.55 164.866 164.825 165.172 165.639 166.264 165.677 165.978 
166.276 167.201 167.818 167.016 167.154 167.282 167.719 168.796 169.236 
168.608 168.619 168.537 168.659 169.311 170.379 170.704 170.244 170.216 
170.011 169.798 170.081 170.756 171.904 172.13 171.796 171.704 171.45 
171.104 171.072 171.497 172.079 173.152 173.272 173.084 172.917 172.579 
172.234 172.156 172.438 172.92 173.4 174.846 174.479 175.938 174.056 
175.717 177.182 173.593 175.438 177.192 178.639 173.246 175.025 177.084 
178.689 179.837 173.272 174.655 176.76 178.513 179.577 180.39 173.684 
174.713 176.474 178.185 179.135 179.865 180.745 174.096 175.153 176.567 
177.998 178.804 179.326 180.185 181.207 174.232 175.472 176.878 178.106 
178.787 179.159 179.754 180.617 181.464 174.223 175.469 177.009 178.32 
178.994 179.355 179.833 180.4 180.914 181.428 175.946 177.037 177.061 
178.37 178.189 178.196 179.828 179.608 179.387 179.312 180.734 180.859 
180.73 180.475 180.319 181.147 181.417 181.665 181.632 181.387 181.249 
181.686 181.86 182.128 182.464 182.415 182.228 182.138 182.154 182.517 
182.682 183.032 183.252 183.13 183.028 182.907 182.188 182.919 183.291 
183.541 183.828 183.893 183.805 183.736 183.514 181.786 182.743 182.599 
183.747 184.006 183.62 185.082 185.33 184.561 184.025 186.031 185.934 
185.546 184.781 184.246 186.422 186.231 186.248 185.58 184.945 184.466 
186.946 186.871 186.855 186.406 185.796 185.199 184.531 187.865 187.793 
187.728 187.286 186.656 185.976 185.24 184.475 188.711 188.612 188.608 
188.166 187.43 186.6 185.806 185.045 184.288 189.147 189.133 189.044 
188.707 188.052 187.161 186.251 185.449 184.688 183.884 181.21 181.665 
181.64 182.271 182.415 182.739 183.044 182.77 183.383 184.232 183.284 
182.74 183.935 184.615 185.306 183.288 182.873 184.027 184.93 185.48 
185.783 183.475 183.042 183.984 184.913 185.746 186.01 186.24 183.621 
182.923 184.084 184.723 185.626 186.206 186.456 186.972 183.492 182.596 
184.175 184.702 185.369 186.065 186.546 187.078 187.86 183.144 182.241 
184.015 184.711 185.316 185.957 186.568 187.193 187.948 188.681 174.021 
175.048 174.878 176.107 175.904 176.593 177.338 177.067 177.862 178.271 
178.508 178.216 178.997 179.314 179.245 179.496 179.207 179.875 180.065 
179.942 179.67 180.338 180.033 180.666 180.77 180.667 180.547 180.257 
181.112 180.797 181.467 181.581 181.481 181.503 181.383 180.852 181.874 
181.548 182.235 182.378 182.239 182.225 182.243 181.748 181.083 172.848 
173.741 172.326 173.286 171.601 174.679 172.496 170.985 174.276 175.733 
171.739 170.659 173.553 175.446 176.929 171.172 170.163 172.873 174.982 
176.754 178.092 170.565 169.454 172.295 174.502 176.438 177.9 179.066 
170.211 169.163 171.771 173.904 175.965 177.559 178.866 179.924 170.411 
169.416 171.631 173.306 175.278 177.074 178.576 179.807 180.745 170.813 
169.79 171.86 173.062 174.643 176.463 178.171 179.585 180.654 181.482 