# vtk DataFile Version 4.0
vtk output
ASCII
DATASET POLYDATA
POINTS 1002 float
-119.245 -110.788 54.1152 -118.987 -109.453 53.1879 -118.466 -109.919 53.4969 
-118.729 -111.365 54.5061 -117.996 -110.454 53.9474 -119.492 -112.391 55.1071 
-118.311 -111.949 55.1097 -117.58 -111.038 54.5516 -118.996 -112.974 55.6833 
-119.656 -113.946 56.3974 -117.907 -112.553 55.8762 -117.145 -111.748 55.2505 
-118.539 -113.516 56.5022 -119.13 -114.438 57.2648 -119.693 -115.294 58.1163 
-117.369 -113.286 56.6996 -116.629 -112.603 56.0112 -118.021 -114.12 57.4253 
-118.59 -114.991 58.2413 -119.133 -115.858 59.0661 -119.657 -116.845 59.7406 
-116.708 -114.099 57.5814 -116.065 -113.476 56.8604 -117.386 -114.821 58.3984 
-118.045 -115.665 59.2361 -118.618 -116.571 59.9841 -119.114 -117.618 60.5343 
-119.576 -118.723 60.943 -116.045 -114.892 58.5027 -115.474 -114.308 57.7677 
-116.71 -115.555 59.3838 -117.441 -116.385 60.2338 -118.122 -117.334 60.9152 
-118.628 -118.387 61.4156 -119.026 -119.476 61.8086 -119.424 -120.376 62.1972 
-115.426 -115.707 59.3489 -114.873 -115.094 58.645 -116.068 -116.394 60.2119 
-116.763 -117.196 61.0737 -117.472 -118.121 61.7581 -118.049 -119.132 62.3066 
-118.445 -120.145 62.7955 -118.815 -121.004 63.2363 -119.232 -121.638 63.6296 
-114.886 -116.496 60.0976 -114.376 -115.782 59.4489 -115.467 -117.318 60.8473 
-116.085 -118.152 61.6795 -116.726 -118.97 62.4525 -117.327 -119.874 63.1106 
-117.766 -120.829 63.6851 -118.133 -121.67 64.1609 -118.566 -122.33 64.5319 
-119.038 -122.849 64.8236 -114.476 -117.158 60.8098 -114.049 -116.385 60.1785 
-114.923 -118.098 61.4541 -115.439 -119.042 62.2098 -116.026 -119.799 63.0797 
-116.635 -120.526 63.9171 -117.122 -121.405 64.569 -117.476 -122.29 64.9958 
-117.87 -123.034 65.272 -118.352 -123.631 65.4932 -118.846 -124.088 65.6967 
-118.398 -108.55 52.4407 -117.857 -108.985 52.7621 -117.759 -107.61 51.7187 
-117.111 -108.012 52.0473 -116.951 -106.597 51.0627 -117.285 -109.514 53.2114 
-116.19 -107.015 51.4899 -116.009 -105.635 50.5203 -116.397 -108.619 52.4866 
-116.74 -110.191 53.7885 -115.316 -106.117 51.1435 -115.203 -104.782 50.2093 
-115.486 -107.8 52.0118 -115.761 -109.44 53.0546 -116.255 -111.02 54.495 
-114.617 -105.323 50.9465 -114.611 -103.988 50.2208 -114.706 -107.041 51.7861 
-114.835 -108.715 52.6119 -115.274 -110.254 53.8048 -115.826 -111.911 55.3425 
-113.923 -104.612 50.9332 -114.022 -103.331 50.504 -113.909 -106.29 51.6334 
-113.943 -107.997 52.4091 -114.299 -109.475 53.3625 -114.974 -111.099 54.7553 
-115.401 -112.851 56.3092 -113.244 -104.032 51.2301 -113.376 -102.846 50.9551 
-113.132 -105.589 51.6897 -113.085 -107.333 52.3771 -113.369 -108.879 53.2082 
-114.098 -110.424 54.3627 -114.708 -112.193 55.8333 -114.858 -113.818 57.3023 
-112.761 -103.589 51.8293 -112.816 -102.498 51.5611 -112.661 -105.009 52.1517 
-112.54 -106.73 52.6771 -112.692 -108.4 53.3969 -113.33 -109.968 54.3038 
-113.99 -111.65 55.5028 -114.214 -113.295 56.8743 -114.239 -114.648 58.2184 
-112.452 -103.334 52.6239 -112.404 -102.364 52.3608 -112.457 -104.61 52.9092 
-112.334 -106.225 53.2955 -112.36 -107.882 53.8628 -112.849 -109.439 54.5717 
-113.425 -111.049 55.4482 -113.589 -112.664 56.5384 -113.57 -114.087 57.7702 
-113.746 -115.293 59.0243 -112.103 -103.044 53.5143 -112.228 -104.124 53.7646 
-111.815 -103.932 54.7569 -111.864 -105.244 54.9749 -111.537 -104.974 55.9381 
-112.179 -105.631 54.0538 -111.466 -106.534 56.2172 -111.529 -106.234 57.1945 
-111.735 -106.857 55.2452 -112.101 -107.279 54.4499 -111.705 -107.785 57.526 
-112.121 -107.656 58.4423 -111.692 -108.018 56.476 -112.121 -108.279 55.5867 
-112.538 -108.783 55.0006 -112.94 -108.928 58.4537 -113.422 -108.893 59.0095 
-112.708 -109.145 57.6378 -112.901 -109.354 56.7328 -113.108 -109.681 56.0941 
-113.184 -110.351 55.6993 -114.53 -110.078 58.699 -115.026 -109.94 58.9133 
-114.16 -110.434 58.3466 -114.062 -110.804 57.7887 -113.804 -110.968 57.2222 
-113.329 -111.319 56.8056 -113.206 -112.025 56.5709 -115.529 -111.413 59.0612 
-116.094 -111.207 59.174 -114.972 -111.842 58.8979 -114.614 -112.359 58.6579 
-114.071 -112.547 58.3623 -113.186 -112.562 58.0066 -112.68 -112.947 57.7144 
-112.94 -113.594 57.6533 -115.633 -112.895 60.1474 -116.227 -112.749 60.1888 
-114.988 -113.228 59.9836 -114.503 -113.672 59.7493 -113.951 -113.897 59.5736 
-113.062 -113.888 59.355 -112.388 -114.083 59.0364 -112.5 -114.569 58.8564 
-113.11 -115.023 58.9094 -115.273 -114.327 61.4865 -115.834 -114.269 61.4296 
-114.686 -114.543 61.3921 -114.241 -114.867 61.1528 -113.828 -115.064 60.9574 
-113.152 -115.13 60.8038 -112.494 -115.394 60.5142 -112.456 -115.855 60.2133 
-112.975 -116.188 60.1259 -113.571 -116.317 60.171 -114.024 -117.524 61.3206 
-113.548 -117.635 61.3854 -113.744 -118.864 62.5434 -112.921 -117.72 61.405 
-113.129 -119.154 62.6051 -113.233 -120.307 63.8177 -112.436 -117.423 61.6031 
-112.421 -119.321 62.6255 -112.49 -120.647 63.788 -112.886 -121.776 65.1489 
-112.593 -116.842 61.988 -112.071 -118.929 62.9126 -111.84 -120.661 63.8239 
-112.186 -122.046 65.1279 -112.729 -123.231 66.5529 -113.241 -116.52 62.2495 
-112.441 -118.355 63.3563 -111.749 -120.152 64.2636 -111.733 -121.841 65.3875 
-112.067 -123.445 66.7528 -112.396 -124.65 67.9704 -113.768 -116.419 62.3653 
-113.136 -118.156 63.5716 -112.275 -119.745 64.7759 -111.826 -121.262 66.0459 
-111.772 -123.095 67.3257 -111.773 -124.802 68.4201 -112.014 -125.983 69.3384 
-114.125 -116.158 62.5247 -113.696 -118.002 63.617 -112.995 -119.665 64.9588 
-112.307 -120.911 66.5397 -111.957 -122.424 68.0018 -111.705 -124.305 69.1202 
-111.623 -125.9 69.9959 -111.857 -127.037 70.7581 -114.577 -115.848 62.6425 
-114.176 -117.625 63.6671 -113.679 -119.442 64.958 -112.933 -120.774 66.6401 
-112.359 -121.968 68.265 -112.035 -123.596 69.5614 -111.818 -125.263 70.6689 
-111.726 -126.589 71.635 -111.752 -127.652 72.3 -115.117 -115.71 62.605 
-114.675 -117.294 63.6658 -114.303 -119.041 64.9211 -113.636 -120.521 66.5658 
-112.904 -121.694 68.205 -112.469 -123.121 69.5472 -112.253 -124.68 70.8382 
-112.044 -125.9 72.1856 -111.771 -126.907 73.2546 -111.567 -127.894 73.7631 
-114.332 -118.453 62.0064 -113.973 -119.862 63.3687 -114.705 -119.543 62.731 
-113.611 -121.322 64.8652 -114.398 -120.95 64.2752 -115.248 -120.47 63.6431 
-113.424 -122.81 66.3305 -114.135 -122.387 65.838 -115.018 -121.828 65.2827 
-115.913 -121.153 64.679 -113.18 -124.263 67.7244 -113.872 -123.914 67.1979 
-114.666 -123.426 66.6203 -115.675 -122.648 66.2029 -116.518 -121.954 65.5219 
-112.811 -125.701 69.1029 -113.594 -125.384 68.644 -114.263 -125.147 67.8359 
-115.202 -124.494 67.2582 -116.23 -123.588 66.8096 -116.938 -122.901 65.9743 
-112.502 -127.064 70.4107 -113.351 -126.742 70.1299 -114.032 -126.525 69.4194 
-114.781 -126.177 68.4658 -115.809 -125.331 67.8155 -116.706 -124.448 67.1212 
-117.318 -123.764 66.1601 -112.19 -128.083 71.6908 -113.012 -127.941 71.2737 
-113.836 -127.584 70.822 -114.561 -127.318 69.9485 -115.465 -126.774 69.0202 
-116.44 -125.928 68.2521 -117.193 -125.19 67.3033 -117.789 -124.485 66.2916 
-111.821 -128.628 73.01 -112.561 -128.821 72.2372 -113.515 -128.541 71.6848 
-114.367 -128.257 71.0327 -115.203 -127.936 70.1496 -116.143 -127.261 69.3501 
-117.008 -126.47 68.5151 -117.704 -125.787 67.4523 -118.31 -125.014 66.4522 
-111.51 -128.564 74.5617 -112.035 -129.266 73.6036 -112.049 -129.195 75.002 
-112.919 -129.721 74.0132 -113.361 -129.548 75.1021 -113.06 -129.371 72.665 
-114.323 -129.862 74.1938 -114.978 -129.512 74.8411 -114.075 -129.867 73.0533 
-114.131 -129.23 71.908 -115.779 -129.818 73.9406 -116.664 -129.551 74.4749 
-115.296 -130.169 73.2026 -115.045 -130.03 72.0495 -115.018 -129.103 71.0255 
-117.387 -130.027 73.5897 -118.424 -129.909 74.4178 -116.621 -130.252 72.8841 
-116.158 -130.438 71.9431 -115.895 -129.846 70.9019 -115.924 -128.572 70.1381 
-119.003 -130.271 73.4578 -119.783 -129.939 74.2536 -118.154 -130.356 72.5253 
-117.526 -130.402 71.61 -117.091 -129.966 70.7118 -116.853 -128.868 70.0388 
-116.878 -127.611 69.4111 -120.218 -129.995 73.0187 -120.665 -129.445 73.447 
-119.52 -130.209 72.2239 -118.848 -130.233 71.3149 -118.404 -129.811 70.5163 
-118.064 -128.774 69.9148 -117.815 -127.653 69.3286 -117.727 -126.731 68.4706 
-121.297 -129.544 72.1667 -121.566 -129.013 72.4634 -120.734 -129.708 71.6299 
-119.985 -129.726 70.9138 -119.457 -129.528 70.2211 -119.201 -128.712 69.6663 
-118.932 -127.587 69.1 -118.641 -126.718 68.2982 -118.444 -125.953 67.328 
-122.424 -129.28 71.4677 -122.556 -128.755 71.8596 -122.023 -129.312 70.9572 
-121.284 -129.066 70.3578 -120.538 -128.874 69.7489 -120.133 -128.473 69.2019 
-119.914 -127.605 68.6597 -119.616 -126.67 67.9769 -119.29 -125.892 67.1548 
-119.039 -125.051 66.3617 -111.618 -127.283 74.7843 -111.697 -127.893 75.5379 
-112.099 -126.498 75.1989 -112.536 -126.918 75.7881 -112.987 -125.661 75.0062 
-112.578 -128.581 75.7991 -113.738 -125.897 75.4893 -113.946 -125.058 74.5403 
-113.728 -127.601 75.9662 -114.159 -128.979 75.6669 -114.736 -125.378 74.9485 
-114.736 -125.024 73.7913 -114.957 -126.597 75.7349 -115.333 -128.072 75.9033 
-115.952 -129.009 75.3327 -115.53 -125.454 74.0826 -115.587 -125.128 72.752 
-115.86 -126.071 75.1295 -116.397 -127.103 75.7585 -117.116 -128.21 75.7591 
-117.857 -129.194 75.2028 -116.492 -125.263 73.0363 -116.612 -124.608 71.7635 
-116.724 -125.758 74.174 -117.251 -126.363 75.0277 -118.036 -127.243 75.5568 
-118.897 -128.378 75.6156 -119.476 -129.392 75.1306 -117.484 -124.422 72.043 
-117.517 -123.596 70.9051 -117.678 -125.032 73.1841 -118.093 -125.602 74.0729 
-118.704 -126.349 74.6855 -119.475 -127.328 75.0661 -120.081 -128.304 75.0061 
-120.394 -129.015 74.3922 -118.254 -123.436 71.0238 -118.201 -122.602 70.0369 
-118.468 -124.092 72.1355 -118.828 -124.689 73.125 -119.266 -125.442 73.746 
-119.833 -126.354 74.0649 -120.415 -127.174 74.1452 -120.795 -127.807 73.8562 
-121.114 -128.422 73.2275 -118.906 -122.543 69.9986 -118.818 -121.711 69.1884 
-119.112 -123.269 70.9508 -119.423 -123.885 71.9633 -119.768 -124.546 72.7384 
[...]
CELL_DATA 2000
SCALARS Distance double
LOOKUP_TABLE default
169.651 169.763 170.142 171.082 170.006 170.337 171.297 171.664 172.638 
170.351 170.647 171.614 171.934 172.895 173.232 174.16 170.759 171.024 
171.978 172.272 173.218 173.521 174.45 174.751 175.671 171.194 171.429 
172.349 172.633 173.588 173.879 174.836 175.104 176.055 176.321 177.261 
171.632 171.842 172.726 172.998 173.964 174.27 175.272 175.547 176.525 
176.765 177.705 177.935 178.804 172.061 172.261 173.131 173.386 174.348 
174.653 175.662 175.975 176.956 177.23 178.141 178.376 179.208 179.406 
180.142 172.477 172.681 173.558 173.809 174.766 175.05 176.026 176.333 
177.289 177.598 178.49 178.758 179.559 179.775 180.492 180.662 181.309 
172.899 173.098 173.966 174.223 175.158 175.45 176.386 176.679 177.592 
177.895 178.775 179.061 179.857 180.087 180.792 180.982 181.627 181.785 
182.378 168.799 167.546 168.391 168.865 166.191 167.09 167.544 168.474 
169.042 164.75 165.673 166.126 167.098 167.665 168.679 169.347 163.432 
164.273 164.77 165.699 166.287 167.281 167.981 169.034 169.773 162.368 
163.084 163.616 164.462 165.065 165.961 166.634 167.661 168.459 169.518 
170.27 161.497 162.107 162.584 163.377 163.952 164.793 165.395 166.34 
167.12 168.213 169.082 170.079 170.794 160.789 161.291 161.692 162.374 
162.919 163.704 164.309 165.159 165.933 166.95 167.905 168.944 169.796 
170.648 171.287 160.298 160.689 161.112 161.613 162.185 162.81 163.502 
164.217 165.055 165.922 166.919 167.885 168.819 169.69 170.394 171.138 
171.71 160.078 160.365 160.877 161.233 161.859 162.311 163.05 163.616 
164.483 165.207 166.177 167.023 167.92 168.75 169.447 170.22 170.803 
171.548 172.117 160.24 160.944 160.728 161.078 161.79 161.522 161.892 
161.664 162.089 162.826 162.435 162.808 162.533 162.968 162.753 163.262 
164.302 163.654 163.995 163.54 163.996 163.701 164.275 164.052 164.707 
166.149 165.35 165.711 165.005 165.525 164.971 165.61 165.21 165.915 
165.635 166.382 167.988 167.245 167.669 166.934 167.517 166.815 167.412 
166.76 167.295 166.85 167.44 167.251 167.945 169.666 169.014 169.413 
168.81 169.321 168.763 169.207 168.558 168.773 168.16 168.402 168.126 
168.638 168.645 169.318 171.164 170.587 170.872 170.35 170.694 170.267 
170.569 170.066 170.139 169.494 169.54 169.059 169.451 169.306 169.999 
170.004 170.715 172.425 171.929 172.12 171.64 171.883 171.458 171.721 
171.258 171.406 170.79 170.913 170.307 170.713 170.337 171.062 170.869 
171.645 171.487 172.143 172.968 172.612 173.279 174.166 172.156 172.93 
173.921 174.49 175.314 171.77 172.49 173.547 174.205 175.058 175.597 
176.446 171.778 172.23 173.218 173.816 174.688 175.272 176.144 176.779 
177.755 172.148 172.397 173.269 173.638 174.479 174.931 175.822 176.451 
177.493 178.162 179.153 172.475 172.754 173.605 173.871 174.693 174.933 
175.79 176.227 177.28 177.917 178.981 179.547 180.444 172.638 172.968 
173.841 174.198 175.073 175.302 176.111 176.36 177.302 177.785 178.841 
179.4 180.352 180.829 181.659 172.831 173.106 173.949 174.354 175.285 
175.646 176.477 176.713 177.512 177.852 178.788 179.294 180.255 180.754 
181.607 182.034 182.762 173.112 173.327 174.111 174.458 175.385 175.807 
176.695 177.004 177.752 178.024 178.826 179.25 180.175 180.674 181.543 
181.976 182.682 183.041 183.589 173.428 174.592 174.165 174.505 175.745 
175.348 175.73 175.314 175.71 176.968 176.55 176.999 176.576 177.02 
176.57 176.955 178.337 177.882 178.368 177.903 178.367 177.907 178.326 
177.823 178.168 179.692 179.283 179.758 179.298 179.735 179.27 179.7 
179.217 179.595 179.049 179.353 180.95 180.593 181.094 180.668 181.109 
180.636 181.055 180.584 180.975 180.469 180.768 180.198 180.416 182.159 
181.836 182.385 182 182.481 182.017 182.422 181.934 182.297 181.809 
182.1 181.565 181.758 181.18 181.325 183.208 182.981 183.491 183.218 
183.663 183.311 183.67 183.245 183.55 183.09 183.354 182.852 183.049 
182.49 182.629 182.042 182.154 183.964 183.861 184.287 184.144 184.517 
184.31 184.629 184.341 184.618 184.251 184.491 184.054 184.245 183.743 
183.88 183.325 183.42 182.836 182.902 184.424 185.255 184.814 184.779 
186.261 185.732 185.667 185.155 185.037 187.242 186.765 186.713 186.145 
186.004 185.407 185.207 188.084 187.641 187.642 187.192 187.1 186.479 
186.236 185.559 185.258 189.157 188.531 188.476 188.03 187.993 187.513 
187.268 186.611 186.214 185.538 185.138 190.234 189.672 189.475 188.905 
188.767 188.301 188.057 187.504 187.048 186.415 185.92 185.319 184.864 
190.605 190.447 190.194 189.784 189.472 189.025 188.7 188.199 187.726 
187.129 186.579 186.003 185.505 184.966 184.485 190.56 190.568 190.412 
190.197 189.823 189.508 189.09 188.729 188.252 187.751 187.181 186.607 
186.062 185.536 185.039 184.526 184.017 190.697 190.645 190.621 190.38 
190.045 189.702 189.24 188.942 188.479 188.15 187.618 187.151 186.57 
186.055 185.511 185.021 184.496 184.003 183.473 184.31 184.304 184.574 
185.129 184.221 184.542 185.196 185.514 186.169 184.154 184.457 185.178 
185.596 186.377 186.633 187.202 184.221 184.441 185.156 185.59 186.464 
186.833 187.521 187.635 188.118 184.404 184.575 185.222 185.583 186.422 
186.869 187.679 187.962 188.641 188.682 189.275 184.454 184.722 185.288 
185.615 186.302 186.748 187.518 188.003 188.788 189.143 189.815 189.906 
190.35 184.168 184.601 185.104 185.523 186.07 186.521 187.135 187.686 
188.371 188.988 189.58 190.052 190.347 190.555 190.597 183.648 184.158 
184.628 185.141 185.625 186.135 186.635 187.183 187.715 188.353 188.826 
189.436 189.663 190.102 190.116 190.404 190.404 183.102 183.596 184.055 
184.578 185.047 185.582 186.037 186.58 187.023 187.611 188.033 188.61 
188.9 189.342 189.48 189.814 189.957 190.259 190.467 173.519 174.528 
174.172 174.549 175.664 175.284 175.728 175.349 175.837 176.824 176.471 
176.961 176.597 177.09 176.708 177.144 177.968 177.639 178.139 177.813 
178.29 177.93 178.314 177.909 178.208 179.112 178.802 179.33 178.996 
179.51 179.13 179.573 179.118 179.48 178.975 179.321 180.182 179.942 
180.531 180.229 180.825 180.44 181.009 180.523 181.026 180.438 180.879 
180.266 180.696 181.11 180.961 181.586 181.395 182.01 181.741 182.301 
181.953 182.439 181.997 182.392 181.86 182.204 181.652 182 181.908 
181.823 182.435 182.348 182.923 182.775 183.214 183.009 183.308 183.085 
183.294 183.042 183.218 182.911 183.115 182.755 183.005 182.584 182.545 
183.116 183.091 183.633 183.553 183.94 183.749 183.944 183.708 183.813 
183.621 183.742 183.591 183.767 183.597 183.814 183.581 183.807 173.065 
172.533 173.249 174.058 171.754 172.685 173.671 174.328 175.177 170.786 
171.893 173.095 173.942 174.912 175.49 176.329 169.672 170.888 172.221 
173.322 174.467 175.21 176.106 176.646 177.47 168.574 169.738 171.092 
172.359 173.665 174.672 175.706 176.397 177.26 177.793 178.602 167.821 
168.75 170.073 171.251 172.641 173.789 174.993 175.904 176.886 177.552 
178.385 178.901 179.651 167.469 168.177 169.415 170.383 171.735 172.816 
174.093 175.124 176.245 177.097 178.025 178.647 179.408 179.896 180.576 
167.324 167.901 169.014 169.822 171.057 172.003 173.224 174.234 175.406 
176.386 177.438 178.225 179.072 179.633 180.325 180.78 181.4 167.338 
167.784 168.801 169.455 170.591 171.386 172.526 173.419 174.56 175.536 
176.657 177.578 178.542 179.248 180 180.515 181.135 181.565 182.112 
167.73 168.887 168.558 169.182 170.124 169.815 170.458 170.154 170.909 
171.316 171.071 171.786 171.482 172.204 171.936 172.758 172.583 172.301 
173.062 172.792 173.535 173.251 174.046 173.822 174.731 173.994 173.644 
174.372 174.072 174.837 174.57 175.397 175.157 176.073 175.871 176.82 
175.394 175.062 175.78 175.439 176.212 175.91 176.765 176.52 177.435 
177.228 178.133 177.927 178.727 176.717 176.425 177.187 176.874 177.673 
177.352 178.185 177.9 178.744 178.524 179.334 179.15 179.862 179.646 
180.212 177.987 177.729 178.488 178.239 179.025 178.773 179.545 179.278 
180.001 179.751 180.431 180.234 180.864 180.676 181.205 180.957 181.365 
179.152 178.945 179.644 179.446 180.151 179.979 180.675 180.492 181.135 
180.91 181.505 181.275 181.848 181.634 182.15 181.909 182.317 182.021 
182.339 179.998 181.427 180.632 180.485 182.874 182.062 181.884 181.103 
180.967 184.327 183.52 183.359 182.535 182.393 181.606 181.485 185.726 
184.982 184.896 184.08 183.97 183.107 182.969 182.134 181.967 187.02 
186.364 186.346 185.623 185.562 184.725 184.569 183.676 183.462 182.587 
182.349 188.259 187.656 187.686 187.032 186.964 186.216 186.008 185.198 
184.929 184.086 183.799 182.937 182.666 189.367 188.848 188.84 188.281 
188.139 187.475 187.162 186.443 186.098 185.394 185.074 184.322 183.99 
183.195 182.893 190.118 189.739 189.558 189.178 188.933 188.452 188.078 
187.452 187.03 186.396 186.036 185.418 185.062 184.385 184.007 183.31 
182.975 190.476 190.211 189.9 189.626 189.349 189.035 188.724 188.247 
187.846 187.255 186.854 186.271 185.897 185.306 184.911 184.289 183.901 
183.284 182.943 179.928 180.283 180.568 181.433 180.649 180.992 181.99 
182.145 182.951 180.996 181.397 182.457 182.707 183.586 183.675 184.405 
181.177 181.664 182.652 183.045 183.965 184.258 185.091 185.149 185.816 
181.155 181.686 182.572 183.052 184.001 184.523 185.579 185.855 186.651 
186.553 187.121 181.1 181.589 182.469 182.921 183.925 184.527 185.785 
186.317 187.322 187.381 187.936 187.773 188.275 181.059 181.527 182.42 
182.873 183.897 184.498 185.747 186.433 187.477 187.835 188.385 188.428 
188.857 188.867 189.37 180.903 181.412 182.24 182.78 183.729 184.394 
185.476 186.228 187.12 187.683 188.186 188.53 188.966 189.251 189.793 
189.901 190.277 180.618 181.147 181.895 182.48 183.321 184.032 184.966 
185.746 186.535 187.157 187.647 188.112 188.585 189.095 189.721 190.134 
190.603 190.638 190.743 179.027 177.658 178.645 179.26 176.218 177.214 
177.739 178.797 179.476 174.679 175.752 176.235 177.226 177.771 178.963 
179.734 172.898 174.106 174.665 175.721 176.164 177.222 177.861 179.181 
179.956 171.048 172.198 172.765 174.025 174.567 175.649 176.151 177.304 
178.012 179.344 180.034 169.514 170.398 170.789 172.006 172.638 173.94 
174.554 175.683 176.284 177.46 178.187 179.429 180.061 168.254 168.992 
169.256 170.169 170.674 171.926 172.653 173.98 174.674 175.849 176.528 
177.69 178.41 179.539 180.11 166.984 167.756 168.076 168.839 169.246 
170.168 170.775 172.009 172.771 174.111 174.85 176.092 176.797 177.953 
178.588 179.616 180.056 165.75 166.498 166.911 167.717 168.2 168.966 
169.465 170.351 170.985 172.172 172.952 174.292 175.062 176.325 176.981 
178.087 178.577 179.517 179.837 165.259 165.087 165.549 166.452 165.171 
165.525 166.459 166.925 167.867 165.364 165.682 166.597 167.02 167.974 
168.354 169.186 165.599 165.888 166.768 167.159 168.097 168.488 169.355 
169.673 170.585 166.005 166.191 167.066 167.354 168.302 168.654 169.624 
169.933 170.941 171.276 172.457 166.701 166.753 167.652 167.78 168.743 
168.978 170.056 170.35 171.503 171.785 173.01 173.348 174.613 167.588 
167.579 168.496 168.518 169.464 169.563 170.632 170.891 172.102 172.421 
173.64 173.947 175.128 175.456 176.561 168.462 168.477 169.387 169.415 
170.334 170.362 171.334 171.505 172.635 172.972 174.141 174.49 175.56 
175.891 176.88 177.222 178.131 169.239 169.288 170.175 170.258 171.162 
171.21 172.098 172.194 173.185 173.454 174.545 174.895 175.917 176.233 
177.145 177.46 178.307 178.635 179.4 169.935 171.378 170.721 170.913 
172.921 172.243 172.434 171.76 171.926 174.431 173.786 173.976 173.301 
173.458 172.757 172.88 175.951 175.303 175.532 174.85 175.044 174.328 
174.51 173.765 173.973 177.546 176.885 177.173 176.467 176.733 175.991 
176.264 175.499 175.787 175.006 175.309 179.064 178.48 178.79 178.142 
178.442 177.737 178.055 177.322 177.658 176.886 177.181 176.385 176.643 
180.378 179.902 180.209 179.681 179.985 179.393 179.705 179.072 179.409 
178.727 179.02 178.245 178.444 177.639 177.825 181.544 181.133 181.455 
181.008 181.332 180.837 181.152 180.612 180.933 180.363 180.664 180.003 
180.199 179.415 179.538 178.753 178.919 182.619 182.26 182.603 182.209 
182.554 182.124 182.447 181.97 182.264 181.767 182.049 181.516 181.729 
181.073 181.171 180.419 180.5 179.785 179.937 180.682 181.254 181.283 
181.968 181.923 181.925 182.628 182.642 183.411 182.484 182.581 183.308 
183.354 184.151 184.195 185.04 182.813 183.035 183.804 183.98 184.808 
184.933 185.751 185.814 186.53 183.036 183.303 184.09 184.368 185.238 
185.501 186.347 186.472 187.127 187.122 187.617 183.223 183.519 184.296 
184.6 185.437 185.795 186.657 186.946 187.659 187.715 188.256 188.163 
188.666 183.315 183.662 184.421 184.76 185.526 185.898 186.667 187.068 
187.764 188.067 188.669 188.802 189.39 189.347 189.891 183.325 183.693 
184.418 184.799 185.516 185.904 186.595 186.986 187.597 187.975 188.521 
188.912 189.476 189.821 190.333 190.447 190.745 183.296 183.66 184.329 
184.719 185.376 185.791 186.442 186.858 187.453 187.802 188.296 188.637 
189.117 189.564 190.029 190.453 190.71 190.888 190.851 159.619 159.912 
159.521 159.119 160.477 159.992 159.627 159.146 158.867 161.186 160.669 
160.353 159.797 159.458 159.009 158.937 162.039 161.467 161.225 160.628 
160.285 159.672 159.415 159.129 159.268 163.125 162.447 162.297 161.646 
161.421 160.657 160.357 159.729 159.727 159.552 159.961 164.462 163.679 
163.543 162.84 162.717 161.948 161.757 160.93 160.914 160.34 160.739 
160.535 161.2 165.896 165.091 164.902 164.138 163.984 163.266 163.158 
162.417 162.446 161.77 162.088 161.631 162.189 161.962 162.586 167.255 
166.504 166.31 165.514 165.322 164.556 164.458 163.778 163.844 163.252 
163.492 163.004 163.361 163.004 163.407 163.216 163.655 168.536 167.837 
167.714 166.939 166.797 165.978 165.89 165.137 165.199 164.587 164.8 
164.297 164.572 164.125 164.407 164.045 164.372 164.173 164.598 159.49 
158.886 159.158 159.307 158.6 158.646 158.733 159.122 159.555 158.842 
158.648 158.727 158.766 159.187 159.585 160.202 159.416 159.182 159.417 
159.157 159.522 159.513 160.13 160.42 161.095 160.143 159.882 160.255 
160.023 160.41 160.168 160.66 160.63 161.307 161.48 162.173 161.266 
160.783 161.116 160.849 161.273 161.064 161.498 161.335 161.879 161.88 
162.548 162.667 163.312 162.618 162.06 162.317 161.856 162.244 161.926 
162.381 162.16 162.654 162.536 163.11 163.121 163.728 163.8 164.346 
163.728 163.321 163.582 163.136 163.47 163.039 163.454 163.112 163.609 
163.371 163.931 163.787 164.373 164.303 164.855 164.826 165.333 164.685 
164.333 164.646 164.302 164.642 164.257 164.609 164.237 164.67 164.382 
164.921 164.706 165.295 165.105 165.673 165.494 166.026 165.894 166.43 
159.903 159.804 160.068 160.622 160.065 160.13 160.616 160.843 161.434 
160.626 160.52 160.886 160.917 161.418 161.708 162.454 161.388 161.138 
161.422 161.276 161.717 161.828 162.644 162.982 164.002 162.373 161.974 
162.249 161.947 162.435 162.35 163.234 163.417 164.564 164.81 165.91 
163.471 163.027 163.289 162.91 163.428 163.254 164.14 164.204 165.306 
165.482 166.555 166.737 167.718 164.477 164.09 164.322 163.965 164.395 
164.236 165.001 165.078 166.023 166.187 167.123 167.317 168.254 168.473 
169.396 165.439 165.063 165.321 164.967 165.339 165.123 165.759 165.795 
166.657 166.808 167.71 167.862 168.801 168.999 169.973 170.15 170.997 
166.531 166.1 166.447 166.044 166.49 166.139 166.763 166.598 167.48 
167.504 168.53 168.586 169.626 169.688 170.71 170.796 171.688 171.713 
172.375 178.557 177.358 177.721 177.203 176.053 176.435 175.877 176.282 
175.74 174.724 175.09 174.459 174.863 174.247 174.719 174.124 173.294 
173.692 173.016 173.417 172.741 173.167 172.517 173.002 172.35 171.803 
172.165 171.438 171.892 171.235 171.684 171.064 171.47 170.871 171.266 
170.664 170.531 170.736 169.972 170.312 169.68 170.15 169.599 170.064 
169.527 169.928 169.41 169.752 169.251 169.436 169.599 168.883 169.051 
168.425 168.714 168.175 168.59 168.075 168.546 168.045 168.508 168.023 
168.423 167.949 168.28 168.52 167.875 168.074 167.464 167.646 167.066 
167.306 166.761 167.115 166.628 167.086 166.636 167.11 166.641 167.079 
166.613 167.161 167.381 166.783 167.036 166.458 166.686 166.091 166.289 
165.707 165.94 165.441 165.775 165.376 165.779 165.398 165.787 165.376 
165.764 165.386 
POINT_DATA 1002
SCALARS Distance double
LOOKUP_TABLE default
170.528 169.197 169.231 170.668 169.393 172.052 170.951 169.677 172.274 
173.591 171.315 170.065 172.58 173.835 175.059 171.697 170.52 172.925 
174.153 175.365 176.594 172.075 170.991 173.281 174.562 175.797 177.007 
178.186 172.462 171.446 173.644 174.972 176.287 177.494 178.617 179.613 
172.878 171.863 174.057 175.348 176.669 177.914 179.021 179.991 180.827 
173.304 172.267 174.495 175.749 176.987 178.216 179.345 180.317 181.173 
181.932 173.725 172.707 174.872 176.108 177.306 178.487 179.627 180.604 
181.459 182.252 182.952 167.971 167.973 166.696 166.603 165.277 168.058 
165.143 163.831 166.635 168.303 163.846 162.622 165.323 166.907 168.736 
162.785 161.7 164.219 165.656 167.342 169.301 161.839 160.954 163.131 
164.509 166.023 167.998 169.949 161.085 160.332 162.156 163.475 164.947 
166.831 168.89 170.553 160.654 159.91 161.602 162.803 164.231 165.99 
167.938 169.632 171 160.533 159.794 161.448 162.533 163.817 165.403 
167.142 168.683 170.03 171.379 160.397 161.258 161.181 162.132 162.062 
162.291 163.117 163.303 163.18 163.439 164.544 165.062 164.326 164.485 
164.902 166.444 166.942 166.146 166.103 166.242 166.602 168.351 168.672 
168.211 168.196 167.937 167.708 168.013 170.021 170.308 169.869 169.885 
169.544 168.841 168.661 169.244 171.435 171.753 171.165 171.053 170.774 
170.104 169.679 170.016 170.74 172.606 172.921 172.326 172.162 171.952 
171.498 171.142 171.321 171.853 172.346 173.853 173.641 175.006 173.298 
174.828 176.111 172.854 174.494 175.858 177.374 172.7 174.106 175.468 
177.109 178.787 172.999 174.114 175.222 176.779 178.594 180.082 173.316 
174.505 175.467 176.684 178.383 179.97 181.282 173.432 174.78 175.939 
176.933 178.294 179.852 181.236 182.459 173.564 174.856 176.226 177.273 
178.335 179.739 181.177 182.41 183.421 173.815 174.959 176.344 177.521 
178.468 179.679 181.11 182.346 183.295 184.055 174.92 176.123 176.153 
177.421 177.458 177.454 178.853 178.834 178.814 178.715 180.212 180.211 
180.165 180.125 179.949 181.49 181.584 181.537 181.467 181.338 181.022 
182.739 182.93 182.932 182.802 182.627 182.339 181.916 183.748 183.989 
184.074 184.006 183.845 183.593 183.219 182.754 184.418 184.697 184.869 
184.945 184.905 184.726 184.419 184.004 183.504 184.803 185.224 185.74 
186.234 186.814 185.547 187.252 187.665 186.658 185.808 188.01 188.58 
187.669 186.975 185.927 189.006 189.889 188.416 187.899 186.933 185.785 
190.124 190.692 189.297 188.592 187.685 186.529 185.449 190.528 190.6 
189.934 189.188 188.323 187.176 186.036 185.034 190.58 190.504 190.133 
189.405 188.68 187.757 186.612 185.542 184.543 190.856 190.734 190.432 
189.573 188.745 188.014 187.087 186.014 184.981 183.965 184.074 184.847 
183.995 184.786 183.886 185.956 184.702 183.877 186.048 187.132 184.745 
184.042 186.023 187.323 188.112 184.941 184.23 185.981 187.263 188.456 
189.36 184.999 184.137 185.926 187.002 188.294 189.618 190.472 184.671 
183.699 185.647 186.64 187.766 189.057 190.069 190.504 184.108 183.141 
185.11 186.122 187.145 188.238 189.186 189.738 190.11 183.541 182.626 
184.518 185.516 186.475 187.452 188.411 189.107 189.599 190.167 173.827 
174.878 174.882 176.095 176.018 176.214 177.305 177.153 177.488 177.574 
178.466 178.292 178.652 178.735 178.64 179.654 179.396 179.876 180.008 
179.982 179.821 180.782 180.372 181.161 181.441 181.583 181.516 181.303 
181.733 181.231 182.247 182.625 182.842 182.897 182.766 182.548 182.51 
181.988 183.068 183.458 183.564 183.522 183.468 183.424 183.377 172.455 
173.471 171.679 172.911 170.675 174.638 172.097 169.59 174.283 175.82 
170.98 168.447 173.591 175.532 176.971 169.789 167.487 172.51 174.9 
176.692 178.123 168.975 167.004 171.457 173.961 176.124 177.845 179.19 
168.553 166.852 170.72 173.032 175.291 177.325 178.91 180.13 168.298 
166.824 170.194 172.259 174.385 176.548 178.445 179.865 180.984 168.232 
166.958 169.874 171.707 173.617 175.681 177.746 179.439 180.7 181.725 