# vtk DataFile Version 4.0
vtk output
ASCII
DATASET POLYDATA
POINTS 1002 float
-120.483 -114.094 52.0096 -119.947 -112.874 51.061 -119.483 -113.154 51.4948 
-120.098 -114.349 52.6453 -119.012 -113.387 52.191 -120.855 -115.313 53.2047 
-119.661 -114.612 53.4955 -118.585 -113.702 52.9182 -120.555 -115.675 53.9523 
-121.146 -116.601 54.7009 -119.214 -115.083 54.309 -118.285 -114.24 53.6211 
-120.145 -116.093 54.9143 -120.855 -117.158 55.5836 -121.458 -118.083 56.5251 
-118.832 -115.809 55.181 -118.021 -114.954 54.5515 -119.668 -116.723 55.9509 
-120.421 -117.757 56.72 -121.068 -118.844 57.5653 -121.765 -119.892 58.3846 
-118.442 -116.641 56.2879 -117.678 -115.751 55.6491 -119.211 -117.588 57.0812 
-119.917 -118.605 57.8886 -120.57 -119.693 58.6804 -121.278 -120.831 59.3937 
-122.04 -121.86 59.9662 -118.007 -117.586 57.393 -117.332 -116.698 56.6581 
-118.72 -118.575 58.2182 -119.382 -119.707 58.9609 -120.02 -120.808 59.6379 
-120.73 -121.815 60.3398 -121.498 -122.743 60.9484 -122.22 -123.478 61.4774 
-117.546 -118.723 58.3789 -116.965 -117.816 57.6335 -118.173 -119.671 59.2085 
-118.754 -120.799 59.9454 -119.36 -121.947 60.5371 -120.084 -122.858 61.2136 
-120.852 -123.567 61.9534 -121.556 -124.175 62.5548 -122.187 -124.667 63.0497 
-117.01 -119.86 59.3478 -116.482 -118.945 58.5934 -117.581 -120.781 60.1196 
-118.074 -121.804 60.8511 -118.585 -122.866 61.4739 -119.271 -123.764 62.1163 
-120.036 -124.425 62.8771 -120.732 -124.949 63.5582 -121.361 -125.409 64.0383 
-121.972 -125.804 64.4109 -116.443 -120.801 60.2398 -115.957 -119.957 59.4055 
-116.976 -121.69 61.0101 -117.416 -122.684 61.7029 -117.827 -123.676 62.3463 
-118.403 -124.536 62.9755 -119.102 -125.264 63.641 -119.768 -125.859 64.2965 
-120.409 -126.316 64.8148 -121.073 -126.68 65.1876 -121.721 -126.978 65.4877 
-118.949 -111.796 50.3956 -118.423 -112.14 50.7976 -117.952 -110.619 49.7386 
-117.39 -111.059 50.0932 -117.123 -109.315 49.1594 -117.925 -112.472 51.4118 
-116.447 -109.85 49.5707 -116.27 -108.003 48.6431 -116.855 -111.509 50.6797 
-117.572 -112.835 52.1266 -115.525 -108.684 49.2275 -115.364 -107.002 48.199 
-115.823 -110.45 50.2671 -116.51 -111.893 51.5547 -117.376 -113.346 53.0304 
-114.709 -107.793 48.9979 -114.604 -106.338 48.0061 -114.901 -109.485 50.0497 
-115.403 -110.97 51.2381 -116.288 -112.403 52.6506 -117.136 -114.053 54.138 
-113.885 -107.089 48.9294 -113.837 -105.726 48.0549 -114.075 -108.686 49.9123 
-114.384 -110.243 50.9456 -115.043 -111.677 52.2023 -116.032 -113.199 53.677 
-116.858 -114.912 55.1733 -112.996 -106.5 49.0508 -113.045 -105.167 48.2738 
-113.215 -107.963 49.9706 -113.499 -109.592 50.8459 -113.838 -111.241 51.7917 
-114.708 -112.689 53.0629 -115.877 -114.153 54.5885 -116.644 -115.927 56.1395 
-112.423 -106.142 49.5458 -112.579 -104.855 48.8934 -112.566 -107.414 50.3634 
-112.865 -108.909 51.1546 -112.965 -110.764 51.8778 -113.402 -112.447 52.7664 
-114.637 -113.717 54.0498 -115.834 -115.189 55.5994 -116.346 -117.091 57.1524 
-112.276 -105.993 50.5612 -112.48 -104.787 50.0299 -112.296 -107.109 51.1859 
-112.563 -108.35 51.8204 -112.598 -110.103 52.4298 -112.579 -112.028 53.0474 
-113.405 -113.446 53.898 -114.797 -114.672 55.1454 -115.666 -116.357 56.6104 
-115.88 -118.296 58.0565 -112.295 -105.565 51.8166 -112.118 -106.685 52.2868 
-111.877 -106.309 53.5727 -111.773 -107.431 53.8526 -111.435 -107.186 54.929 
-112.26 -107.803 52.7154 -111.402 -108.569 55.2299 -111.454 -108.418 56.3182 
-111.954 -108.827 54.1594 -112.429 -109.323 53.1889 -111.506 -109.975 56.7278 
-111.981 -109.727 57.8668 -111.664 -110.196 55.5658 -112.123 -110.56 54.5265 
-112.314 -111.285 53.6842 -112.449 -111.128 57.778 -113.066 -110.869 58.5388 
-112.242 -111.391 56.7326 -112.42 -111.651 55.6538 -112.526 -112.241 54.8068 
-112.709 -113 54.2207 -114.203 -112.271 57.9049 -114.851 -112.177 58.1809 
-113.871 -112.462 57.2979 -113.809 -112.639 56.475 -113.679 -113.037 55.7461 
-113.58 -113.759 55.2917 -113.973 -114.369 55.1069 -116 -113.891 58.1 
-116.617 -113.826 58.1254 -115.573 -114.037 57.8584 -115.325 -114.191 57.4213 
-114.988 -114.394 56.9623 -114.582 -114.907 56.5706 -114.551 -115.596 56.3541 
-115.018 -116.075 56.4083 -116.991 -115.726 59.124 -117.535 -115.555 59.0221 
-116.461 -115.966 59.0699 -116.002 -116.242 58.8799 -115.514 -116.41 58.7167 
-114.977 -116.66 58.4737 -114.688 -117.238 58.0418 -114.852 -117.836 57.7666 
-115.324 -118.153 57.8527 -117.218 -117.353 60.559 -117.712 -117.143 60.3645 
-116.652 -117.65 60.6191 -116.085 -118.072 60.5361 -115.535 -118.39 60.5353 
-114.998 -118.549 60.5845 -114.629 -118.937 60.252 -114.612 -119.56 59.611 
-114.916 -119.955 59.2476 -115.4 -120.012 59.2865 -115.777 -121.417 60.7559 
-115.222 -121.657 60.8069 -115.603 -122.931 62.3666 -114.761 -121.703 61.1351 
-114.947 -123.366 62.7476 -115.059 -124.579 64.1011 -114.527 -121.252 61.8704 
-114.362 -123.44 63.4022 -114.052 -125.023 64.6633 -114.154 -126.043 65.5569 
-114.672 -120.628 62.4413 -114.21 -122.894 64.0753 -113.318 -124.877 65.2619 
-113.02 -126.155 66.041 -113.775 -127.058 66.8644 -115.122 -120.291 62.3874 
-114.641 -122.256 64.2236 -113.492 -124.203 65.6317 -112.648 -125.692 66.529 
-113.186 -126.847 67.495 -114.245 -127.957 68.7959 -115.645 -119.952 62.1787 
-115.267 -121.786 64.0115 -114.369 -123.588 65.7157 -113.363 -125.115 66.9208 
-113.453 -126.394 68.1271 -114.165 -127.665 69.7382 -114.477 -128.791 71.242 
-116.191 -119.4 62.1792 -115.795 -121.165 63.92 -115.189 -122.993 65.7579 
-114.419 -124.688 67.2095 -114.258 -126.098 68.5171 -114.476 -127.313 70.2739 
-114.253 -128.341 72.0429 -113.791 -129.121 73.2289 -116.785 -118.965 62.1321 
-116.339 -120.565 63.818 -115.816 -122.31 65.659 -115.229 -124.152 67.2619 
-114.997 -125.789 68.6242 -114.893 -127.008 70.3725 -114.23 -127.817 72.2799 
-113.287 -128.418 73.6675 -112.828 -128.994 74.5355 -117.353 -118.754 61.8945 
-116.947 -120.287 63.4921 -116.469 -121.862 65.2289 -115.939 -123.613 66.8811 
-115.644 -125.332 68.3519 -115.392 -126.615 70.1902 -114.54 -127.316 72.3128 
-113.262 -127.707 73.9128 -112.405 -128.183 74.8918 -112.347 -128.828 75.6541 
-116.282 -122.241 61.7004 -115.99 -123.808 63.3123 -116.724 -123.243 62.4871 
-115.387 -125.448 64.92 -116.328 -124.878 64.0839 -117.084 -124.344 63.1696 
-114.834 -126.791 66.3673 -115.888 -126.325 65.7535 -116.76 -125.886 64.8219 
-117.572 -125.282 63.8318 -114.832 -127.912 68.0487 -115.683 -127.466 67.4649 
-116.557 -127.057 66.6547 -117.384 -126.709 65.4841 -118.222 -126.092 64.4368 
-114.909 -129.011 70.3251 -115.619 -128.677 69.3963 -116.464 -128.11 68.5589 
-117.265 -127.817 67.3575 -118.014 -127.542 65.9854 -118.854 -126.843 65.003 
-114.37 -129.646 72.5969 -115.234 -129.731 71.5311 -116.246 -129.32 70.4595 
-117.173 -128.858 69.3374 -117.904 -128.602 67.8954 -118.629 -128.203 66.5163 
-119.507 -127.372 65.5605 -113.508 -129.66 74.2738 -114.555 -130.077 73.4877 
-115.796 -130.117 72.3273 -116.99 -129.856 71.1486 -117.915 -129.457 69.9096 
-118.645 -129.034 68.4823 -119.425 -128.5 67.1118 -120.279 -127.683 66.039 
-112.979 -129.518 75.5685 -114.037 -129.991 75.086 -115.353 -130.231 74.0679 
-116.718 -130.35 72.7651 -117.885 -130.226 71.5159 -118.764 -129.758 70.3138 
-119.53 -129.214 68.9671 -120.313 -128.675 67.5686 -121.06 -127.924 66.3957 
-112.781 -129.271 76.9157 -113.642 -129.88 76.6467 -113.776 -129.747 78.0558 
-114.779 -130.224 77.3141 -115.134 -130.068 78.3215 -114.901 -130.145 75.8273 
-116.172 -130.579 77.1824 -116.798 -130.339 77.7031 -116.109 -130.418 76.091 
-116.355 -130.361 74.4862 -117.711 -131.051 76.789 -118.663 -130.66 77.1106 
-117.373 -131.014 75.9749 -117.501 -130.838 74.5338 -117.734 -130.683 72.935 
-119.483 -131.505 76.5302 -120.578 -130.975 76.7635 -118.693 -131.713 75.8005 
-118.506 -131.651 74.3775 -118.673 -131.335 72.78 -118.814 -130.61 71.559 
-121.475 -131.843 75.9268 -122.304 -131.26 76.1093 -120.471 -132.11 75.2279 
-119.728 -132.186 73.9151 -119.489 -131.998 72.3731 -119.594 -131.172 71.2689 
-119.673 -130.032 70.3294 -123.109 -131.956 74.8996 -123.566 -131.283 75.0954 
-122.418 -132.209 74.164 -121.56 -132.21 72.9964 -120.784 -132.146 71.6985 
-120.429 -131.602 70.7238 -120.474 -130.479 69.9881 -120.5 -129.419 68.9331 
-124.136 -131.577 73.8247 -124.502 -130.857 74.0321 -123.757 -131.951 73.1166 
-123.278 -131.979 72.0498 -122.542 -131.893 70.9481 -121.754 -131.575 70.0939 
-121.37 -130.748 69.44 -121.347 -129.688 68.612 -121.278 -128.761 67.5001 
-125.019 -130.842 72.8057 -125.42 -130.23 73.0448 -124.662 -131.288 72.2057 
-124.384 -131.498 71.2968 -123.972 -131.494 70.3262 -123.258 -131.234 69.5301 
-122.55 -130.596 68.8931 -122.214 -129.685 68.183 -122.111 -128.748 67.2854 
-121.954 -127.854 66.3371 -112.283 -128.282 76.4106 -112.986 -128.766 77.8374 
-112.899 -127.78 77.0688 -113.854 -128.162 78.2595 -114.149 -127.526 77.0632 
-114.214 -129.175 78.889 -115.221 -127.711 77.7863 -115.629 -127.457 76.3215 
-115.28 -128.421 78.9153 -115.867 -129.429 78.7839 -116.645 -127.361 76.9426 
-116.982 -127.254 75.382 -116.719 -127.847 78.1721 -117.187 -128.745 78.5611 
-117.902 -129.745 77.8817 -117.901 -127.013 76.0233 -118.23 -126.946 74.1354 
-118.042 -127.352 77.3088 -118.622 -128.235 77.8969 -119.312 -129.221 77.7141 
-119.934 -130.075 77.191 -119.137 -126.859 74.3729 -119.444 -126.603 72.3437 
-119.154 -126.977 76.0603 -119.701 -127.615 76.9938 -120.439 -128.666 77.2091 
-121.032 -129.514 76.9667 -121.637 -130.319 76.6203 -120.363 -126.591 72.2711 
-120.476 -125.922 70.6663 -120.298 -126.85 74.0329 -120.583 -127.095 75.4666 
-121.177 -127.866 76.2232 -121.717 -128.811 76.291 -122.279 -129.591 76.0176 
-122.984 -130.456 75.6739 -121.365 -125.771 70.6523 -121.231 -124.901 69.5225 
-121.425 -126.426 72.024 -121.553 -126.748 73.4903 -121.916 -127.164 74.6646 
-122.334 -127.936 75.1619 -122.779 -128.743 75.0504 -123.439 -129.497 74.8068 
-124.104 -130.274 74.5509 -122.09 -124.69 69.5121 -121.814 -123.91 68.5904 
-122.317 -125.483 70.5521 -122.489 -126.1 71.7251 -122.765 -126.554 72.8891 
[...]
CELL_DATA 2000
SCALARS Distance double
LOOKUP_TABLE default
171.92 171.96 172.435 173.396 172.061 172.522 173.557 173.955 174.899 
172.313 172.696 173.784 174.183 175.231 175.549 176.552 172.793 173.067 
174.172 174.505 175.622 175.948 177.044 177.33 178.437 173.415 173.639 
174.758 175.017 176.169 176.44 177.593 177.87 179.032 179.312 180.459 
174.102 174.298 175.435 175.672 176.853 177.091 178.266 178.497 179.661 
179.919 181.054 181.314 182.343 174.874 175.029 176.158 176.368 177.531 
177.78 178.931 179.179 180.289 180.539 181.598 181.854 182.812 183.04 
183.858 175.644 175.805 176.881 177.079 178.162 178.404 179.465 179.744 
180.768 181.065 182.034 182.316 183.194 183.433 184.195 184.392 185.06 
176.287 176.489 177.486 177.717 178.707 178.954 179.913 180.183 181.113 
181.42 182.321 182.639 183.47 183.742 184.473 184.686 185.339 185.515 
186.114 170.903 169.282 170.364 170.905 167.651 168.73 169.295 170.388 
170.981 166.048 167.117 167.685 168.783 169.418 170.523 171.219 164.54 
165.546 166.137 167.207 167.868 168.981 169.742 170.876 171.695 163.321 
164.166 164.783 165.748 166.422 167.472 168.25 169.408 170.292 171.446 
172.32 162.323 163.068 163.646 164.517 165.175 166.115 166.849 167.934 
168.821 170.022 170.969 172.114 173.012 161.409 162.087 162.623 163.436 
164.09 164.957 165.658 166.609 167.442 168.568 169.555 170.755 171.759 
172.872 173.807 160.851 161.321 161.911 162.534 163.247 163.988 164.744 
165.546 166.356 167.3 168.267 169.394 170.472 171.636 172.67 173.728 
174.635 160.853 161.084 161.745 162.101 162.852 163.373 164.187 164.816 
165.641 166.378 167.287 168.23 169.291 170.404 171.497 172.599 173.571 
174.549 175.356 161.243 162.106 161.809 162.078 162.855 162.612 162.933 
162.697 163.113 163.841 163.423 163.814 163.566 164.057 163.841 164.393 
165.353 164.67 165.023 164.585 165.108 164.828 165.401 165.182 165.8 
167.089 166.337 166.632 166.001 166.455 166 166.563 166.244 166.884 
166.66 167.409 168.96 168.147 168.536 167.772 168.262 167.575 168.151 
167.593 168.281 167.891 168.721 168.463 169.401 171.137 170.23 170.764 
169.883 170.503 169.646 170.285 169.477 170.163 169.525 170.356 169.942 
170.9 170.617 171.601 173.315 172.502 173.045 172.213 172.821 171.99 
172.599 171.75 172.339 171.559 172.247 171.681 172.529 172.161 173.07 
172.791 173.66 175.115 174.501 174.949 174.305 174.786 174.132 174.634 
173.931 174.419 173.675 174.222 173.572 174.273 173.795 174.593 174.235 
175.015 174.719 175.437 176.421 176.117 176.805 177.862 175.828 176.571 
177.754 178.356 179.369 175.58 176.336 177.602 178.276 179.297 179.788 
180.568 175.503 176.16 177.413 178.1 179.073 179.598 180.257 180.736 
181.413 175.625 176.162 177.348 177.943 178.886 179.331 179.943 180.344 
181.044 181.633 182.64 175.763 176.265 177.378 177.923 178.906 179.275 
179.986 180.209 181.011 181.444 182.61 183.216 184.398 175.847 176.322 
177.347 177.9 178.914 179.374 180.242 180.484 181.38 181.684 182.836 
183.33 184.436 184.899 185.605 175.967 176.384 177.34 177.828 178.814 
179.348 180.307 180.74 181.689 182.085 183.109 183.557 184.421 184.809 
185.258 185.591 185.779 176.11 176.514 177.448 177.857 178.803 179.273 
180.243 180.743 181.722 182.234 183.193 183.672 184.394 184.696 184.981 
185.155 185.213 185.503 185.673 176.934 178.325 177.781 178.131 179.758 
179.208 179.534 179.001 179.347 180.977 180.587 180.922 180.42 180.759 
180.219 180.539 181.976 181.708 182.16 181.764 182.143 181.641 181.969 
181.407 181.712 183.294 182.85 183.414 182.991 183.448 182.995 183.367 
182.843 183.156 182.587 182.89 184.935 184.407 184.931 184.382 184.829 
184.317 184.716 184.218 184.556 184.019 184.306 183.746 184.008 186 
185.831 186.239 185.867 186.231 185.741 186.098 185.584 185.917 185.387 
185.663 185.118 185.347 184.797 184.989 186.189 186.397 186.806 186.817 
187.182 186.968 187.309 186.93 187.239 186.74 186.984 186.436 186.639 
186.095 186.271 185.715 185.851 186.186 186.427 186.973 187.144 187.621 
187.648 188.059 187.935 188.287 187.971 188.214 187.725 187.892 187.355 
187.516 186.977 187.11 186.54 186.626 186.561 187.746 187.196 187.367 
188.99 188.419 188.434 187.932 188.015 190.03 189.543 189.519 188.981 
188.955 188.491 188.508 191.086 190.57 190.609 190.046 190.025 189.472 
189.454 188.953 188.857 192.313 191.744 191.816 191.198 191.181 190.572 
190.498 189.933 189.773 189.197 188.87 193.481 193.005 193.039 192.418 
192.284 191.665 191.454 190.897 190.62 190.061 189.665 189.05 188.562 
194.192 193.987 193.974 193.501 193.227 192.631 192.257 191.7 191.314 
190.79 190.353 189.788 189.292 188.68 188.172 194.294 194.356 194.296 
194.119 193.802 193.383 192.937 192.408 191.946 191.409 190.937 190.405 
189.906 189.358 188.838 188.263 187.741 194.089 194.214 194.117 194.136 
193.857 193.7 193.3 192.956 192.476 191.996 191.455 190.933 190.372 
189.876 189.323 188.832 188.277 187.76 187.216 186.252 186.367 186.663 
187.523 186.755 186.91 187.742 188.059 188.853 187.243 187.308 187.994 
188.275 189.04 189.302 189.925 187.632 187.699 188.262 188.493 189.233 
189.5 190.19 190.354 190.976 187.821 187.961 188.461 188.695 189.428 
189.735 190.514 190.703 191.382 191.491 192.171 187.798 188.048 188.503 
188.777 189.416 189.833 190.611 190.986 191.647 191.855 192.439 192.646 
193.262 187.526 187.926 188.38 188.706 189.206 189.643 190.287 190.838 
191.433 191.868 192.302 192.666 193.116 193.506 193.929 187.001 187.536 
188.022 188.465 188.909 189.324 189.819 190.345 190.862 191.399 191.778 
192.247 192.57 193.076 193.424 193.887 194.088 186.36 186.931 187.422 
187.977 188.426 188.915 189.34 189.829 190.276 190.783 191.173 191.631 
191.947 192.417 192.752 193.253 193.531 193.903 193.984 176.484 177.592 
177.321 177.881 178.856 178.525 179.115 178.742 179.255 180.154 179.82 
180.407 180.033 180.558 180.153 180.671 181.382 181.069 181.646 181.318 
181.904 181.516 182.077 181.636 182.186 182.575 182.274 182.88 182.565 
183.24 182.906 183.569 183.126 183.684 183.184 183.68 183.668 183.452 
184.087 183.816 184.503 184.242 184.928 184.589 185.081 184.618 184.906 
184.465 184.701 184.521 184.446 185.076 184.933 185.545 185.387 185.962 
185.765 186.137 185.794 185.847 185.421 185.314 185.033 185.01 185.186 
185.186 185.809 185.774 186.335 186.25 186.706 186.578 186.855 186.612 
186.607 186.187 185.958 185.511 185.314 185.094 185.122 185.806 185.811 
186.435 186.434 186.989 186.927 187.334 187.2 187.436 187.22 187.276 
186.907 186.807 186.279 186.163 185.644 185.695 185.392 185.653 175.723 
174.783 175.756 176.788 173.881 174.812 175.902 176.906 178.041 173.171 
174.005 175.066 176.032 177.26 178.265 179.415 172.397 173.326 174.358 
175.263 176.463 177.493 178.764 179.681 180.733 171.278 172.416 173.534 
174.548 175.723 176.732 178.001 179.002 180.167 180.982 181.931 170.108 
171.219 172.459 173.635 174.944 176.018 177.294 178.267 179.446 180.344 
181.371 182.144 183.003 169.398 170.214 171.43 172.562 174.013 175.218 
176.631 177.633 178.817 179.656 180.682 181.498 182.408 183.14 183.88 
169.2 169.733 170.799 171.68 173.075 174.275 175.801 176.952 178.234 
179.096 180.105 180.852 181.768 182.508 183.312 183.952 184.593 169.238 
169.643 170.582 171.205 172.421 173.41 174.884 176.074 177.465 178.474 
179.545 180.315 181.219 181.926 182.772 183.418 184.134 184.669 185.258 
169.563 170.578 170.326 170.94 171.798 171.487 172.189 171.894 172.752 
173.19 172.851 173.672 173.322 174.265 173.991 175.133 174.736 174.368 
175.293 174.936 175.93 175.61 176.707 176.505 177.646 176.41 176.014 
176.954 176.6 177.558 177.245 178.219 178.002 178.993 178.839 179.73 
178.054 177.694 178.577 178.232 179.083 178.763 179.593 179.363 180.235 
180.082 180.928 180.73 181.45 179.524 179.238 180.064 179.763 180.539 
180.205 180.948 180.657 181.477 181.285 182.154 181.951 182.716 182.412 
183.028 180.843 180.603 181.402 181.15 181.918 181.609 182.341 182.015 
182.805 182.557 183.42 183.209 183.987 183.697 184.285 183.919 184.379 
182.056 181.855 182.642 182.43 183.203 182.945 183.676 183.382 184.118 
183.867 184.639 184.439 185.147 184.906 185.442 185.112 185.505 185.138 
185.482 182.953 184.581 183.702 183.591 186.298 185.388 185.266 184.349 
184.173 187.892 187.048 186.875 186.003 185.799 184.886 184.647 189.263 
188.515 188.316 187.52 187.309 186.46 186.229 185.328 185.093 190.59 
189.86 189.733 188.937 188.763 187.931 187.717 186.864 186.644 185.774 
185.571 191.936 191.246 191.174 190.39 190.23 189.398 189.168 188.318 
188.055 187.235 186.993 186.2 185.976 192.99 192.488 192.334 191.709 
191.456 190.762 190.46 189.698 189.357 188.564 188.235 187.485 187.192 
186.477 186.184 193.559 193.268 193.012 192.579 192.21 191.712 191.334 
190.777 190.392 189.733 189.342 188.636 188.281 187.588 187.25 186.562 
186.213 193.852 193.659 193.419 193.063 192.674 192.254 191.861 191.439 
191.067 190.576 190.175 189.599 189.211 188.599 188.239 187.585 187.216 
186.532 186.167 182.867 183.23 183.514 184.48 183.599 183.913 184.964 
185.247 186.258 183.92 184.308 185.475 185.818 186.963 187.12 188.003 
184.109 184.601 185.871 186.358 187.638 187.901 188.855 188.801 189.438 
184.215 184.742 186.012 186.649 187.976 188.477 189.464 189.581 190.183 
190.096 190.65 184.321 184.839 186.027 186.674 187.92 188.584 189.557 
189.936 190.537 190.668 191.218 191.288 191.917 184.277 184.875 185.977 
186.611 187.727 188.389 189.313 189.818 190.472 190.813 191.435 191.71 
192.38 192.517 193.037 183.968 184.67 185.692 186.401 187.404 188.096 
188.96 189.516 190.208 190.659 191.361 191.796 192.51 192.819 193.333 
193.413 193.657 183.552 184.249 185.193 185.935 186.846 187.606 188.428 
189.091 189.787 190.349 191.051 191.612 192.322 192.784 193.276 193.516 
193.74 193.801 193.896 181.918 180.507 181.579 182.244 178.815 180.053 
180.773 181.893 182.565 176.914 178.215 178.946 180.266 180.985 182.165 
182.811 175.107 176.276 176.893 178.261 178.965 180.37 181.056 182.319 
182.936 173.506 174.517 174.977 176.183 176.761 178.176 178.871 180.348 
181.065 182.391 183.037 171.984 172.922 173.296 174.339 174.832 176.047 
176.694 178.103 178.891 180.376 181.166 182.501 183.161 170.544 171.428 
171.811 172.741 173.255 174.302 174.969 176.144 176.913 178.251 179.076 
180.506 181.251 182.571 183.133 169.242 170.093 170.561 171.396 171.942 
172.872 173.57 174.619 175.385 176.504 177.249 178.485 179.198 180.535 
181.142 182.42 182.863 168.032 168.888 169.456 170.278 170.85 171.68 
172.318 173.279 174.016 175.072 175.793 176.852 177.497 178.608 179.202 
180.4 180.921 182.106 182.514 167.55 167.386 168.007 169.057 167.284 
167.911 169.042 169.567 170.537 167.349 167.898 169.085 169.601 170.634 
171.046 171.996 167.737 168.133 169.355 169.758 170.829 171.189 172.199 
172.594 173.652 168.36 168.662 169.876 170.173 171.257 171.51 172.559 
172.887 174.016 174.386 175.47 169.021 169.296 170.451 170.729 171.786 
172.017 173.076 173.366 174.528 174.851 175.958 176.207 177.175 169.737 
169.941 171.044 171.278 172.292 172.521 173.54 173.865 174.996 175.371 
176.447 176.712 177.627 177.841 178.757 170.575 170.687 171.742 171.894 
172.872 173.035 173.992 174.268 175.306 175.71 176.727 177.091 177.974 
178.246 179.111 179.408 180.374 171.455 171.52 172.482 172.592 173.51 
173.638 174.546 174.737 175.688 175.981 176.932 177.275 178.173 178.509 
179.405 179.735 180.683 181.025 181.98 172.248 173.671 173.039 173.208 
175.112 174.443 174.598 173.995 174.188 176.756 175.966 176.141 175.443 
175.685 175.033 175.264 178.681 177.778 178.004 177.157 177.456 176.682 
176.966 176.2 176.433 180.731 179.828 180.091 179.17 179.473 178.605 
178.896 178.03 178.223 177.393 177.599 182.618 181.861 182.143 181.276 
181.543 180.661 180.931 180.032 180.226 179.282 179.431 178.578 178.81 
184.134 183.592 183.912 183.22 183.486 182.676 182.926 182.063 182.304 
181.366 181.57 180.579 180.795 179.879 180.138 185.333 184.941 185.304 
184.817 185.141 184.502 184.769 184.003 184.253 183.417 183.664 182.755 
182.978 182.009 182.218 181.264 181.479 186.378 186.053 186.425 186.068 
186.434 185.994 186.315 185.729 185.981 185.271 185.478 184.707 184.882 
184.061 184.197 183.323 183.449 182.559 182.718 183.661 184.359 184.412 
185.247 185.07 185.105 185.897 185.986 186.843 185.758 185.81 186.583 
186.635 187.456 187.575 188.4 186.392 186.497 187.31 187.345 188.139 
188.199 189.007 189.089 189.812 186.881 187.085 187.918 188.039 188.816 
188.881 189.653 189.719 190.49 190.502 191.179 187.12 187.434 188.206 
188.486 189.225 189.433 190.163 190.316 191.066 191.174 191.89 191.884 
192.465 187.157 187.522 188.221 188.59 189.296 189.651 190.382 190.685 
191.41 191.636 192.284 192.43 192.938 192.98 193.328 187.121 187.487 
188.166 188.534 189.225 189.618 190.358 190.769 191.508 191.846 192.456 
192.668 193.1 193.225 193.512 193.574 193.746 187.059 187.43 188.103 
188.472 189.137 189.521 190.202 190.647 191.338 191.788 192.385 192.716 
193.15 193.324 193.631 193.695 193.903 193.892 193.98 160.246 160.321 
159.947 159.465 160.982 160.363 159.955 159.43 159.134 161.891 161.228 
160.873 160.218 159.882 159.324 159.17 162.83 162.145 161.794 161.183 
160.856 160.209 159.918 159.438 159.468 164.072 163.207 162.894 162.166 
161.947 161.247 161.049 160.367 160.371 159.953 160.367 165.636 164.665 
164.427 163.521 163.404 162.559 162.52 161.711 161.822 161.164 161.574 
161.195 161.882 167.258 166.312 166.112 165.198 165.109 164.222 164.206 
163.35 163.458 162.739 163.079 162.57 163.124 162.813 163.478 168.919 
167.975 167.819 166.903 166.856 165.976 166 165.116 165.2 164.397 
164.655 164.055 164.518 164.095 164.67 164.364 164.99 170.598 169.696 
169.609 168.676 168.692 167.788 167.912 167.003 167.176 166.256 166.515 
165.717 166.155 165.557 166.136 165.673 166.296 165.92 166.552 160.263 
159.337 159.836 160.094 158.897 159.066 159.261 159.79 160.219 159.003 
158.92 159.133 159.306 159.803 160.186 160.793 159.437 159.24 159.588 
159.565 160.144 160.209 160.87 161.071 161.804 160.357 159.911 160.31 
160.185 160.82 160.802 161.461 161.463 162.153 162.292 163.073 161.845 
161.148 161.472 161.081 161.654 161.518 162.163 162.123 162.766 162.792 
163.502 163.642 164.406 163.444 162.743 163.008 162.435 162.899 162.509 
163.101 162.889 163.539 163.454 164.128 164.147 164.859 164.976 165.699 
164.935 164.275 164.526 163.96 164.366 163.877 164.392 164.004 164.613 
164.358 165.01 164.863 165.518 165.493 166.18 166.269 166.967 166.452 
165.765 165.999 165.421 165.794 165.305 165.759 165.335 165.859 165.524 
166.107 165.847 166.436 166.253 166.871 166.823 167.502 167.557 168.228 
160.913 160.8 161.192 161.821 160.865 161.143 161.776 162.062 162.59 
161.304 161.345 161.993 162.147 162.767 162.924 163.607 162.196 161.974 
162.608 162.586 163.329 163.355 164.167 164.261 165.179 163.382 162.994 
163.525 163.36 164.096 164.087 164.952 165.006 165.931 166.009 166.936 
164.656 164.201 164.598 164.311 164.925 164.875 165.727 165.814 166.759 
166.822 167.743 167.779 168.744 165.927 165.454 165.792 165.39 165.925 
165.748 166.628 166.657 167.732 167.747 168.777 168.709 169.723 169.721 
170.845 167.19 166.72 167.068 166.612 167.135 166.85 167.762 167.718 
168.921 168.906 170.053 169.909 170.927 170.808 171.865 171.903 173.008 
168.429 167.981 168.347 167.904 168.421 168.108 168.979 168.917 170.104 
170.152 171.306 171.222 172.158 172.006 172.894 172.872 173.829 173.928 
174.849 181.419 180.155 180.529 179.957 178.773 179.163 178.494 178.913 
178.227 177.241 177.674 176.936 177.366 176.62 177.061 176.348 175.555 
176.027 175.272 175.749 175.012 175.454 174.766 175.219 174.614 173.879 
174.303 173.55 174.047 173.356 173.845 173.196 173.675 173.113 173.599 
173.08 172.379 172.701 171.939 172.364 171.684 172.178 171.538 172.066 
171.492 172.059 171.55 172.085 171.573 171.054 171.296 170.524 170.845 
170.148 170.562 169.908 170.39 169.782 170.356 169.825 170.453 169.957 
170.542 170.069 169.892 170.057 169.284 169.509 168.806 169.124 168.487 
168.857 168.252 168.695 168.152 168.709 168.224 168.844 168.39 169.03 
168.654 168.928 169.005 168.249 168.363 167.664 167.881 167.272 167.559 
166.983 167.305 166.763 167.167 166.687 167.187 166.748 167.331 166.955 
167.637 167.369 
POINT_DATA 1002
SCALARS Distance double
LOOKUP_TABLE default
172.893 171.439 171.429 172.985 171.466 174.311 173.117 171.601 174.571 
175.818 173.372 171.967 174.864 176.262 177.58 173.865 172.55 175.282 
176.723 178.152 179.582 174.505 173.194 175.909 177.321 178.742 180.208 
181.592 175.199 173.916 176.606 178.048 179.433 180.812 182.146 183.294 
175.976 174.736 177.303 178.69 180.06 181.377 182.609 183.685 184.599 
176.708 175.492 177.963 179.224 180.487 181.761 182.967 184.009 184.895 
185.689 177.272 176.101 178.483 179.68 180.841 182.015 183.192 184.254 
185.159 185.965 186.692 169.842 169.821 168.184 168.186 166.584 169.879 
166.584 164.981 168.287 170.091 165.077 163.564 166.753 168.566 170.572 
163.859 162.544 165.416 167.1 169.087 171.221 162.805 161.623 164.279 
165.832 167.618 169.76 171.93 161.839 160.77 163.228 164.765 166.381 
168.33 170.577 172.772 161.357 160.429 162.54 163.975 165.497 167.193 
169.279 171.562 173.68 161.471 160.664 162.41 163.608 164.982 166.447 
168.222 170.375 172.558 174.479 161.601 162.359 162.365 163.118 163.085 
163.325 164.07 164.373 164.259 164.593 165.572 166.118 165.432 165.638 
165.976 167.323 167.827 167.003 166.933 167.119 167.56 169.294 169.761 
168.992 168.793 168.729 168.997 169.608 171.635 172.016 171.364 171.153 
170.91 170.852 171.222 171.872 173.857 174.075 173.644 173.458 173.191 
172.921 172.974 173.395 173.948 175.576 175.699 175.42 175.299 175.151 
174.923 174.83 175.023 175.367 175.734 177.431 177.253 178.905 177.099 
178.915 180.294 176.895 178.822 180.163 181.252 176.763 178.59 179.816 
180.797 182.193 176.807 178.482 179.595 180.423 181.913 183.819 176.844 
178.488 179.757 180.614 181.999 183.921 185.461 176.829 178.375 179.887 
181.088 182.441 184.073 185.321 186.038 176.91 178.286 179.788 181.252 
182.73 184.16 185.038 185.419 185.883 177.06 178.379 179.749 181.196 
182.722 184.131 184.898 185.012 185.211 185.928 178.642 180.082 179.881 
181.39 181.301 181.1 182.487 182.607 182.527 182.285 183.875 183.883 
183.857 183.723 183.466 185.531 185.391 185.216 185.079 184.872 184.583 
186.507 186.686 186.621 186.461 186.216 185.905 185.558 186.65 187.264 
187.602 187.711 187.549 187.192 186.826 186.433 186.75 187.521 188.084 
188.497 188.659 188.437 188.051 187.675 187.225 187.007 187.834 188.399 
189.027 189.546 188.446 190.06 190.489 189.473 188.95 191.164 191.611 
190.608 189.999 189.418 192.46 192.872 191.827 191.114 190.388 189.517 
193.689 193.885 192.974 192.059 191.196 190.281 189.201 194.393 194.303 
193.848 192.869 191.853 190.897 189.886 188.793 194.378 194.205 194.123 
193.441 192.51 191.482 190.436 189.399 188.326 194.064 194.002 193.913 
193.542 192.922 192.001 190.886 189.797 188.775 187.733 185.822 187.163 
186.119 187.449 186.701 188.617 187.777 187.256 188.761 189.746 188.069 
187.576 188.945 189.997 190.834 188.242 187.653 189.077 190.268 191.283 
192.034 188.257 187.491 189.016 190.16 191.411 192.253 193.035 188.039 
187.055 188.851 189.758 190.947 191.945 192.713 193.603 187.52 186.432 
188.513 189.371 190.335 191.309 192.086 192.914 193.759 186.844 185.808 
187.905 188.866 189.788 190.711 191.503 192.256 193.089 193.749 176.699 
178.209 177.873 179.499 179.202 179.642 180.763 180.503 180.963 181.073 
181.947 181.702 182.235 182.518 182.645 183.179 182.848 183.519 183.972 
184.222 184.192 184.334 183.827 184.755 185.241 185.581 185.453 185.083 
185.183 184.558 185.717 186.172 186.484 186.36 185.74 185.13 185.822 
185.181 186.429 186.868 187.088 187.002 186.469 185.671 185.147 174.776 
175.799 173.78 174.862 173.002 177.053 174.153 172.358 176.188 178.546 
173.47 171.369 175.454 177.754 179.999 172.414 170.054 174.723 176.995 
179.26 181.249 171.194 169.077 173.772 176.339 178.553 180.529 182.339 
170.373 168.745 172.723 175.546 178.012 179.889 181.632 183.257 170.081 
168.774 171.944 174.558 177.302 179.391 181.039 182.639 184.043 170.076 