# vtk DataFile Version 4.0
vtk output
ASCII
DATASET POLYDATA
POINTS 1002 float
-121.276 -109.344 50.9458 -121.086 -108.485 49.7554 -120.549 -108.831 49.9458 
-120.765 -109.805 51.2406 -120.059 -109.332 50.2146 -121.447 -110.371 52.3166 
-120.235 -110.299 51.7203 -119.49 -109.787 50.7291 -120.899 -110.88 52.8222 
-121.572 -111.601 53.9259 -119.589 -110.734 52.465 -118.792 -110.196 51.5017 
-120.272 -111.39 53.5316 -120.974 -112.187 54.6565 -121.627 -113.105 55.6615 
-118.895 -111.285 53.3586 -118.128 -110.755 52.351 -119.56 -112.013 54.3768 
-120.274 -112.908 55.4515 -120.99 -113.869 56.4651 -121.553 -114.835 57.3002 
-118.304 -111.978 54.3363 -117.602 -111.39 53.2844 -118.882 -112.803 55.3162 
-119.513 -113.813 56.261 -120.241 -114.786 57.2264 -120.859 -115.707 58.0648 
-121.36 -116.634 58.7093 -117.787 -112.656 55.4475 -117.136 -112.012 54.4119 
-118.329 -113.53 56.4043 -118.842 -114.648 57.2022 -119.468 -115.712 58.0147 
-120.091 -116.572 58.8484 -120.625 -117.464 59.4835 -121.137 -118.367 59.935 
-117.245 -113.433 56.5125 -116.668 -112.772 55.541 -117.834 -114.219 57.4906 
-118.348 -115.24 58.2851 -118.83 -116.432 58.9404 -119.347 -117.419 59.67 
-119.87 -118.244 60.3435 -120.392 -119.113 60.787 -120.887 -119.883 61.1202 
-116.679 -114.329 57.3491 -116.192 -113.638 56.4607 -117.284 -115.06 58.3438 
-117.892 -115.859 59.2863 -118.328 -116.961 59.9839 -118.672 -118.167 60.5583 
-119.107 -119.101 61.171 -119.629 -119.848 61.6909 -120.138 -120.53 62.0408 
-120.583 -121.094 62.3118 -116.165 -115.095 58.0873 -115.746 -114.39 57.2446 
-116.687 -115.877 59.049 -117.31 -116.623 60.0801 -117.798 -117.534 60.9527 
-118.043 -118.728 61.5255 -118.324 -119.839 61.9836 -118.816 -120.605 62.4855 
-119.362 -121.159 62.9349 -119.836 -121.643 63.2391 -120.258 -122.082 63.4237 
-120.51 -107.859 48.6864 -119.91 -108.237 48.841 -119.898 -107.243 47.5492 
-119.181 -107.647 47.701 -119.292 -106.544 46.5417 -119.33 -108.76 49.101 
-118.476 -106.957 46.7688 -118.671 -105.623 45.8401 -118.492 -108.155 47.9923 
-118.653 -109.208 49.6585 -117.881 -106.017 46.2366 -118.002 -104.56 45.3934 
-117.813 -107.409 47.1914 -117.805 -108.569 48.6584 -117.906 -109.669 50.4776 
-117.273 -104.951 45.951 -117.332 -103.629 45.1335 -117.276 -106.405 46.8578 
-117.194 -107.767 48.0633 -117.074 -109.092 49.5711 -117.246 -110.314 51.3239 
-116.512 -104.137 45.6774 -116.695 -102.946 45.0549 -116.513 -105.413 46.6403 
-116.539 -106.794 47.8406 -116.351 -108.362 49.0097 -116.341 -109.843 50.4019 
-116.738 -110.967 52.3108 -115.679 -103.616 45.5079 -116.036 -102.378 45.1196 
-115.535 -104.791 46.3464 -115.63 -105.981 47.5825 -115.555 -107.497 48.6558 
-115.468 -109.208 49.7186 -115.829 -110.568 51.4302 -116.363 -111.621 53.5938 
-114.958 -103.099 45.7042 -115.377 -101.845 45.3969 -114.701 -104.332 46.3575 
-114.804 -105.456 47.4093 -114.878 -106.7 48.4172 -114.785 -108.305 49.3199 
-115.029 -109.967 50.7817 -115.597 -111.299 52.865 -116.016 -112.45 54.8763 
-114.467 -102.581 46.3259 -114.858 -101.472 45.9952 -114.152 -103.773 46.8997 
-114.214 -104.936 47.7126 -114.435 -106.035 48.5386 -114.464 -107.294 49.3228 
-114.561 -108.945 50.5276 -114.958 -110.709 52.3502 -115.363 -112.171 54.2824 
-115.593 -113.338 55.8988 -114.337 -101.987 47.1416 -113.901 -103.023 47.6637 
-113.929 -102.752 48.6324 -113.353 -103.665 49.2058 -113.429 -103.665 50.1063 
-113.679 -104.162 48.3536 -112.64 -104.485 50.6134 -112.924 -104.497 51.4885 
-113.066 -104.718 49.8181 -113.863 -105.32 49.0508 -112.294 -105.298 52.0716 
-112.902 -105.2 53.061 -112.462 -105.466 51.1973 -113.389 -105.8 50.4269 
-114.164 -106.411 49.7425 -112.984 -106.121 53.7563 -113.515 -106.012 54.801 
-112.825 -106.357 52.7467 -113.393 -106.584 51.9246 -114.109 -106.965 51.3069 
-114.404 -107.833 50.7971 -114.265 -107.287 55.3159 -114.453 -107.221 56.22 
-114.146 -107.528 54.3953 -114.339 -107.824 53.5554 -114.605 -108.127 53.0082 
-114.627 -108.822 52.6743 -114.653 -109.877 52.419 -115.313 -108.938 56.5043 
-115.451 -108.873 57.0954 -115.181 -109.109 55.9085 -115.208 -109.401 55.2658 
-115.186 -109.742 54.7129 -114.842 -110.33 54.4027 -114.592 -111.216 54.2546 
-114.833 -111.919 54.2101 -115.945 -110.74 57.5702 -116.275 -110.647 57.8135 
-115.526 -110.861 57.3349 -115.248 -111.051 57.0411 -115.113 -111.314 56.6277 
-114.739 -111.796 56.1924 -114.308 -112.55 55.8847 -114.402 -113.177 55.7704 
-114.97 -113.384 55.8051 -116.254 -112.286 58.7788 -116.707 -112.162 58.7822 
-115.651 -112.421 58.7679 -115.064 -112.578 58.7401 -114.697 -112.752 58.6017 
-114.389 -113.078 58.2459 -114.051 -113.676 57.758 -114.061 -114.248 57.3957 
-114.553 -114.464 57.2608 -115.194 -114.435 57.24 -115.622 -115.449 58.6587 
-115.113 -115.515 58.8207 -115.516 -116.658 60.3611 -114.48 -115.654 58.9759 
-115.016 -116.922 60.6042 -115.179 -118.13 62.0013 -113.918 -115.538 59.2672 
-114.257 -117.261 60.7366 -114.492 -118.557 62.1178 -114.512 -119.615 63.3575 
-113.8 -115.024 59.7903 -113.534 -117.165 61.0472 -113.514 -118.81 62.1286 
-113.654 -119.858 63.3923 -113.809 -120.939 64.7193 -114.123 -114.521 60.2364 
-113.508 -116.636 61.5644 -112.901 -118.497 62.4772 -112.774 -119.717 63.4854 
-113.025 -120.945 64.8421 -113.185 -122.386 66.0809 -114.637 -114.239 60.3399 
-114.19 -116.182 61.8116 -113.362 -118.014 62.9739 -112.601 -119.258 64.0027 
-112.434 -120.542 65.1753 -112.461 -122.296 66.3402 -112.468 -123.82 67.2184 
-115.256 -113.988 60.2736 -114.948 -115.818 61.7258 -114.365 -117.711 63.0821 
-113.344 -119.021 64.4805 -112.491 -120.073 65.8312 -112.027 -121.703 66.9342 
-111.778 -123.532 67.7371 -111.816 -124.798 68.3948 -115.894 -113.73 60.2181 
-115.478 -115.376 61.6546 -115.038 -117.304 62.971 -114.23 -118.91 64.5041 
-113.151 -119.929 66.1975 -112.239 -121.12 67.5651 -111.678 -122.787 68.4428 
-111.487 -124.336 69.0865 -111.606 -125.424 69.7224 -116.444 -113.524 60.1471 
-115.919 -114.965 61.6389 -115.413 -116.724 62.9431 -114.824 -118.501 64.36 
-113.958 -119.784 66.086 -112.997 -120.834 67.671 -112.283 -122.176 68.762 
-111.946 -123.667 69.52 -111.868 -124.94 70.2084 -111.901 -125.916 70.8665 
-116.022 -116.301 59.6295 -115.778 -117.653 61.3611 -116.509 -117.227 60.6589 
-115.283 -119.204 62.9092 -116.133 -118.773 62.2746 -117.052 -118.17 61.6654 
-114.61 -120.726 64.3254 -115.54 -120.43 63.679 -116.53 -119.912 63.0957 
-117.372 -119.271 62.4288 -113.927 -122.209 65.8076 -114.824 -121.947 65.1467 
-115.839 -121.561 64.4158 -116.755 -120.988 63.7442 -117.555 -120.429 62.9003 
-113.26 -123.706 67.0299 -114.139 -123.359 66.6098 -115.1 -123.018 65.8902 
-116.104 -122.518 65.0938 -117.069 -121.914 64.2389 -117.988 -121.32 63.3353 
-112.605 -124.9 68.0786 -113.597 -124.634 67.7521 -114.524 -124.369 67.2281 
-115.473 -124.031 66.4793 -116.574 -123.384 65.611 -117.675 -122.624 64.7172 
-118.609 -121.898 63.8328 -112.093 -125.743 69.3852 -113.071 -125.69 68.9246 
-114.102 -125.521 68.3324 -114.985 -125.363 67.6013 -116.011 -124.901 66.7815 
-117.226 -124.049 65.9606 -118.314 -123.135 65.1352 -119.157 -122.343 64.2217 
-111.928 -126.41 70.7369 -112.565 -126.595 70.2858 -113.598 -126.501 69.5327 
-114.589 -126.329 68.6186 -115.54 -126.037 67.7064 -116.692 -125.396 66.8961 
-117.888 -124.473 66.165 -118.869 -123.557 65.3571 -119.632 -122.773 64.4058 
-112.287 -126.61 71.7964 -112.305 -127.145 71.6297 -112.927 -126.91 72.5601 
-113.15 -127.441 72.1749 -114.158 -126.723 73.1933 -113.008 -127.313 70.9679 
-114.7 -127.243 72.5177 -115.809 -126.577 73.7382 -114.005 -127.592 71.2894 
-114.12 -127.136 69.9153 -116.432 -127.117 72.7749 -117.284 -126.851 73.8214 
-115.602 -127.534 71.4768 -115.184 -127.43 70.1042 -115.238 -126.817 68.7627 
-117.968 -127.25 72.6425 -118.717 -127.142 73.2374 -117.274 -127.505 71.5165 
-116.729 -127.583 70.1975 -116.418 -127.092 68.8759 -116.406 -126.343 67.7437 
-119.755 -127.367 72.1441 -120.473 -127.152 72.5315 -119.021 -127.468 71.2089 
-118.411 -127.581 70.0135 -117.952 -127.259 68.8793 -117.673 -126.514 67.8131 
-117.664 -125.584 66.9199 -121.629 -127.437 71.6413 -122.105 -126.995 72.0386 
-120.969 -127.479 70.7683 -120.224 -127.39 69.6232 -119.551 -127.11 68.6552 
-119.081 -126.506 67.8011 -118.836 -125.685 66.9132 -118.785 -124.661 66.1186 
-122.923 -127.343 71.0509 -123.201 -126.689 71.4508 -122.506 -127.513 70.2883 
-121.898 -127.287 69.2619 -121.123 -126.838 68.3603 -120.439 -126.249 67.6395 
-120.03 -125.601 66.807 -119.796 -124.789 65.9336 -119.664 -123.774 65.1658 
-123.708 -126.925 70.2203 -123.97 -126.236 70.6087 -123.391 -127.207 69.6025 
-123.014 -127.068 68.8023 -122.448 -126.645 68.0066 -121.739 -126.031 67.3226 
-121.175 -125.388 66.5543 -120.82 -124.738 65.6641 -120.545 -123.912 64.8574 
-120.35 -122.964 64.1449 -112.601 -125.696 71.277 -113.098 -126.119 72.2304 
-113.534 -125.287 71.3874 -113.985 -125.333 72.609 -114.297 -124.809 71.3914 
-113.844 -126.043 73.2412 -114.733 -124.684 72.898 -115.091 -124.464 71.1592 
-114.723 -125.139 74.0207 -115.149 -125.878 74.2502 -115.744 -124.435 72.4497 
-116.186 -124.225 70.3592 -115.597 -124.632 74.2867 -116.014 -125.304 75.1041 
-116.684 -126.185 74.7861 -116.938 -124.274 71.1238 -117.179 -123.72 69.2737 
-116.748 -124.375 73.3214 -116.967 -124.77 74.877 -117.499 -125.697 75.1116 
-118.072 -126.629 74.2848 -117.86 -123.787 69.6899 -117.945 -122.839 68.3415 
-117.826 -124.09 71.602 -118.028 -124.144 73.468 -118.427 -124.686 74.3724 
-118.926 -125.736 74.0364 -119.612 -126.652 73.2179 -118.748 -122.981 68.5098 
-118.832 -121.877 67.4557 -118.733 -123.659 69.944 -118.923 -123.788 71.623 
-119.293 -123.905 72.9153 -119.758 -124.559 73.2606 -120.432 -125.541 72.9044 
-121.303 -126.386 72.49 -119.721 -121.988 67.4633 -119.733 -120.946 66.509 
-119.711 -122.893 68.5675 -119.788 -123.411 69.8983 -120.039 -123.648 71.1994 
-120.462 -124.021 72.0352 -121.088 -124.649 72.2848 -121.9 -125.337 72.2412 
-122.675 -126.037 72.0167 -120.429 -120.855 66.5645 -120.353 -119.953 65.6495 
-120.513 -121.76 67.5066 -120.605 -122.519 68.5595 -120.777 -123.064 69.6729 
[...]
CELL_DATA 2000
SCALARS Distance double
LOOKUP_TABLE default
169.33 169.32 169.682 170.459 169.382 169.736 170.527 170.887 171.734 
169.418 169.799 170.611 170.984 171.864 172.253 173.196 169.523 169.869 
170.736 171.096 172.035 172.43 173.44 173.817 174.804 169.806 170.089 
171.017 171.318 172.316 172.673 173.735 174.107 175.13 175.449 176.378 
170.214 170.466 171.43 171.698 172.711 173.027 174.087 174.438 175.454 
175.774 176.693 176.979 177.83 170.704 170.923 171.897 172.152 173.154 
173.445 174.472 174.799 175.793 176.097 177.003 177.279 178.122 178.387 
179.161 171.228 171.426 172.375 172.627 173.612 173.885 174.876 175.174 
176.146 176.439 177.341 177.601 178.428 178.673 179.431 179.653 180.307 
171.699 171.906 172.798 173.069 174.022 174.314 175.269 175.559 176.481 
176.77 177.635 177.912 178.706 178.962 179.678 179.902 180.524 180.707 
181.237 168.611 167.467 168.191 168.547 166.285 167.011 167.35 168.162 
168.58 165.084 165.812 166.104 166.916 167.315 168.168 168.589 163.855 
164.607 164.912 165.681 166.05 166.873 167.304 168.168 168.651 162.646 
163.388 163.746 164.517 164.904 165.667 166.087 166.902 167.414 168.299 
168.889 161.578 162.226 162.551 163.329 163.73 164.533 164.945 165.736 
166.218 167.081 167.688 168.61 169.275 160.675 161.214 161.452 162.141 
162.509 163.32 163.738 164.561 165.019 165.885 166.488 167.427 168.149 
169.074 169.794 159.894 160.352 160.568 161.128 161.497 162.189 162.646 
163.385 163.862 164.674 165.303 166.251 167.059 168.018 168.834 169.684 
170.396 159.334 159.676 159.939 160.372 160.784 161.349 161.866 162.471 
162.979 163.63 164.257 165.118 165.992 166.986 167.91 168.8 169.571 
170.317 170.942 159.284 159.684 159.548 159.862 160.289 160.016 160.23 
160.212 160.701 160.876 160.561 160.673 160.615 161.074 161.179 161.778 
161.645 161.17 161.242 161.059 161.497 161.57 162.184 162.287 162.882 
162.984 162.253 162.45 161.915 162.43 162.196 162.912 162.827 163.541 
163.492 164.215 164.841 163.994 164.421 163.609 164.266 163.623 164.444 
163.967 164.815 164.474 165.348 165.138 166.054 166.883 166.071 166.61 
165.805 166.472 165.744 166.496 165.838 166.588 166.042 166.846 166.493 
167.382 167.152 168.015 168.869 168.134 168.607 167.894 168.398 167.778 
168.322 167.766 168.283 167.763 168.307 167.936 168.612 168.41 169.141 
168.975 169.641 170.598 169.98 170.333 169.695 170.029 169.444 169.814 
169.31 169.696 169.225 169.633 169.235 169.76 169.507 170.138 169.974 
170.592 170.425 170.979 171.759 171.431 172.043 172.96 171.063 171.738 
172.766 173.376 174.339 170.715 171.387 172.483 173.186 174.201 174.744 
175.56 170.544 171.102 172.143 172.852 173.83 174.475 175.242 175.784 
176.484 170.591 171.031 172.01 172.565 173.462 174.019 174.719 175.297 
176 176.645 177.444 170.752 171.143 172.162 172.59 173.526 173.844 
174.529 174.849 175.537 176.111 176.978 177.666 178.496 170.987 171.341 
172.376 172.805 173.84 174.132 174.904 174.983 175.608 175.843 176.636 
177.197 178.059 178.67 179.365 171.275 171.595 172.54 172.966 173.968 
174.412 175.276 175.476 176.092 176.146 176.767 177.024 177.797 178.272 
179.033 179.516 180.166 171.528 171.852 172.693 173.061 173.934 174.415 
175.288 175.706 176.405 176.592 177.154 177.276 177.924 178.189 178.956 
179.325 180.082 180.441 181.117 172.216 173.428 172.968 173.343 174.757 
174.261 174.64 174.183 174.591 175.97 175.571 175.955 175.52 175.95 
175.478 175.865 176.996 176.706 177.149 176.796 177.247 176.836 177.235 
176.736 177.062 178.04 177.753 178.249 177.935 178.397 178.062 178.458 
178.043 178.359 177.877 178.161 179.071 178.836 179.323 179.022 179.464 
179.153 179.549 179.189 179.512 179.097 179.391 178.937 179.204 179.893 
179.772 180.26 180.046 180.486 180.205 180.623 180.278 180.641 180.235 
180.551 180.123 180.405 179.94 180.158 180.652 180.529 181.059 180.911 
181.395 181.185 181.622 181.342 181.721 181.365 181.679 181.272 181.532 
181.095 181.294 180.823 180.965 181.535 181.344 181.882 181.72 182.222 
182.046 182.469 182.256 182.596 182.342 182.623 182.315 182.543 182.167 
182.338 181.902 182.021 181.555 181.645 182.214 183.233 182.678 182.536 
184.134 183.648 183.551 182.993 182.841 185.12 184.567 184.487 183.957 
183.795 183.238 183.041 186.24 185.624 185.505 184.921 184.755 184.16 
183.918 183.357 183.125 187.24 186.698 186.546 185.969 185.808 185.178 
184.919 184.255 183.969 183.4 183.152 188.148 187.657 187.535 186.966 
186.801 186.219 185.976 185.306 184.966 184.293 183.974 183.401 183.099 
189.03 188.627 188.583 187.982 187.771 187.159 186.874 186.272 185.899 
185.263 184.855 184.239 183.852 183.286 182.9 189.556 189.409 189.392 
188.969 188.698 188.101 187.695 187.08 186.628 186.049 185.588 185.03 
184.572 184.011 183.551 183.006 182.563 189.584 189.659 189.586 189.467 
189.15 188.804 188.321 187.808 187.259 186.693 186.163 185.636 185.144 
184.638 184.139 183.614 183.115 182.609 182.157 182.257 182.625 182.726 
183.237 182.841 183.001 183.479 183.615 184.096 182.993 183.149 183.658 
183.827 184.407 184.54 185.131 183.219 183.348 183.901 184.056 184.754 
184.937 185.68 185.742 186.346 183.294 183.559 184.094 184.308 184.96 
185.252 185.996 186.241 186.857 186.901 187.336 183.008 183.465 183.981 
184.344 184.85 185.251 185.812 186.265 186.779 187.126 187.534 187.7 
188.096 182.588 183.083 183.634 184.075 184.547 184.958 185.399 185.852 
186.283 186.758 187.181 187.609 188.058 188.378 188.834 182.191 182.674 
183.226 183.692 184.184 184.599 185.035 185.424 185.858 186.265 186.731 
187.173 187.672 188.128 188.605 188.991 189.334 181.675 182.205 182.676 
183.215 183.659 184.163 184.568 185.027 185.441 185.883 186.346 186.787 
187.264 187.707 188.135 188.577 188.897 189.268 189.416 171.932 172.927 
172.647 173.085 174.003 173.677 174.114 173.801 174.283 175.175 174.83 
175.318 174.929 175.415 175.082 175.606 176.36 176.046 176.601 176.219 
176.712 176.296 176.75 176.392 176.774 177.494 177.21 177.753 177.458 
177.945 177.58 177.973 177.557 177.863 177.437 177.63 178.555 178.29 
178.773 178.52 179.003 178.722 179.141 178.756 179.077 178.6 178.835 
178.292 178.464 179.525 179.293 179.763 179.509 180.027 179.773 180.291 
179.939 180.359 179.881 180.215 179.646 179.908 179.269 179.496 180.397 
180.225 180.72 180.491 181.037 180.826 181.42 181.139 181.618 181.19 
181.542 181.045 181.351 180.784 181.03 180.382 180.599 181.137 181.059 
181.583 181.417 181.939 181.788 182.362 182.205 182.679 182.373 182.648 
182.244 182.462 182.065 182.289 181.821 181.997 181.423 181.583 171.263 
170.443 171.377 172.325 169.604 170.587 171.714 172.518 173.445 168.978 
169.865 171.081 171.946 172.989 173.685 174.587 168.524 169.317 170.493 
171.37 172.477 173.231 174.183 174.844 175.746 168.077 168.818 169.909 
170.791 171.942 172.752 173.778 174.455 175.408 176.038 176.937 167.663 
168.316 169.337 170.189 171.387 172.259 173.403 174.112 175.116 175.736 
176.675 177.246 178.069 167.397 167.921 168.855 169.618 170.796 171.714 
172.941 173.758 174.806 175.455 176.356 176.956 177.787 178.328 179.048 
167.294 167.701 168.529 169.16 170.22 171.094 172.284 173.214 174.291 
175.066 175.938 176.58 177.356 177.962 178.693 179.237 179.887 167.305 
167.627 168.375 168.87 169.81 170.53 171.609 172.489 173.551 174.424 
175.349 176.089 176.878 177.504 178.219 178.802 179.463 180.005 180.593 
167.563 168.418 168.168 168.657 169.587 169.202 169.743 169.448 170.106 
170.956 170.525 171.09 170.692 171.333 171.042 171.824 172.305 171.92 
172.487 172.088 172.671 172.314 173.005 172.806 173.653 173.629 173.255 
173.838 173.455 174.027 173.643 174.289 174.009 174.804 174.647 175.471 
174.986 174.604 175.206 174.813 175.407 175.004 175.664 175.334 176.126 
175.877 176.675 176.426 177.093 176.29 175.952 176.548 176.184 176.762 
176.377 176.999 176.689 177.432 177.199 177.935 177.661 178.252 177.934 
178.434 177.47 177.194 177.776 177.469 178.009 177.666 178.208 177.926 
178.568 178.384 179.032 178.816 179.322 179.033 179.46 179.179 179.626 
178.52 178.3 178.865 178.618 179.136 178.834 179.329 179.046 179.626 
179.43 180.041 179.827 180.309 180.02 180.41 180.139 180.56 180.327 
180.753 179.246 180.446 179.773 179.613 181.736 181.013 180.86 180.133 
179.903 183.191 182.395 182.252 181.439 181.215 180.405 180.133 184.672 
183.905 183.774 182.917 182.714 181.824 181.591 180.71 180.485 185.967 
185.306 185.176 184.41 184.192 183.353 183.129 182.257 182.019 181.128 
180.881 187.099 186.493 186.345 185.689 185.447 184.715 184.433 183.686 
183.39 182.595 182.231 181.407 181.049 188.068 187.531 187.355 186.776 
186.549 185.875 185.553 184.842 184.494 183.788 183.402 182.64 182.219 
181.452 181.102 188.775 188.366 188.166 187.692 187.464 186.9 186.571 
185.899 185.507 184.813 184.444 183.739 183.38 182.623 182.288 181.534 
181.262 189.254 188.96 188.75 188.365 188.07 187.642 187.264 186.757 
186.315 185.738 185.326 184.727 184.383 183.743 183.424 182.726 182.422 
181.713 181.436 179.257 179.706 179.809 180.471 180.227 180.343 181.054 
181.078 181.775 180.728 180.959 181.81 181.789 182.511 182.474 183.23 
181.091 181.495 182.545 182.628 183.389 183.293 183.99 183.965 184.692 
181.315 181.819 182.936 183.259 184.049 184.096 184.702 184.693 185.353 
185.377 186.018 181.371 181.913 182.877 183.396 184.145 184.476 185.077 
185.256 185.933 186.039 186.754 186.708 187.265 181.161 181.74 182.503 
183.098 183.787 184.315 185 185.43 186.239 186.562 187.411 187.497 
188.129 187.941 188.313 180.772 181.339 182.02 182.605 183.31 183.897 
184.69 185.264 186.167 186.712 187.603 187.979 188.608 188.671 188.977 
188.806 188.97 180.424 180.922 181.61 182.14 182.893 183.477 184.334 
184.959 185.852 186.485 187.266 187.839 188.354 188.746 188.975 189.142 
189.241 189.239 189.339 178.528 177.433 178.301 178.926 176.132 177.091 
177.699 178.666 179.329 174.752 175.71 176.265 177.295 177.897 178.965 
179.632 173.456 174.353 174.897 175.851 176.391 177.407 177.973 179.13 
179.822 172.154 173.065 173.602 174.537 175.06 175.96 176.443 177.44 
178.066 179.292 180.057 170.711 171.666 172.141 173.166 173.676 174.636 
175.086 175.993 176.534 177.611 178.372 179.593 180.308 169.316 170.188 
170.638 171.635 172.152 173.169 173.655 174.613 175.122 176.136 176.812 
177.971 178.696 179.813 180.297 168.213 168.926 169.409 170.248 170.808 
171.716 172.276 173.199 173.762 174.727 175.352 176.422 177.078 178.192 
178.715 179.703 180.001 167.363 167.974 168.459 169.182 169.749 170.537 
171.114 171.945 172.536 173.43 174.043 175 175.591 176.599 177.112 
178.114 178.506 179.404 179.678 167.047 166.937 167.373 168.175 166.941 
167.349 168.228 168.618 169.47 167.111 167.461 168.348 168.708 169.576 
169.948 170.804 167.322 167.67 168.524 168.852 169.679 170.043 170.927 
171.316 172.217 167.552 167.859 168.694 169.012 169.806 170.145 171.024 
171.443 172.415 172.801 173.734 167.956 168.147 168.968 169.207 170.008 
170.289 171.151 171.548 172.532 172.981 173.956 174.323 175.225 168.446 
168.61 169.404 169.571 170.351 170.548 171.375 171.697 172.647 173.085 
174.073 174.495 175.415 175.777 176.657 168.831 169.043 169.809 170.007 
170.746 170.922 171.688 171.943 172.843 173.224 174.221 174.632 175.599 
175.961 176.861 177.195 178.042 169.177 169.37 170.114 170.342 171.072 
171.279 172.022 172.255 173.114 173.447 174.429 174.821 175.817 176.184 
177.111 177.426 178.263 178.545 179.283 169.656 170.753 170.302 170.567 
172.036 171.484 171.726 171.261 171.538 173.519 172.878 173.143 172.544 
172.823 172.283 172.56 175.111 174.447 174.75 174.087 174.411 173.747 
174.066 173.42 173.74 176.674 176.053 176.372 175.733 176.088 175.43 
175.781 175.082 175.421 174.726 175.082 178.143 177.588 177.925 177.33 
177.68 177.077 177.421 176.784 177.104 176.441 176.776 176.113 176.455 
179.465 179.004 179.358 178.834 179.182 178.623 178.961 178.363 178.667 
178.045 178.359 177.754 178.09 177.455 177.743 180.576 180.226 180.572 
180.166 180.512 180.052 180.406 179.875 180.195 179.585 179.885 179.281 
179.609 179.024 179.314 178.67 178.874 181.487 181.225 181.563 181.259 
181.599 181.258 181.614 181.222 181.561 181.066 181.354 180.784 181.063 
180.492 180.753 180.16 180.338 179.697 179.823 180.503 181.043 181.081 
181.691 181.533 181.646 182.339 182.346 183.017 181.895 182.104 182.888 
183.01 183.783 183.784 184.516 182.16 182.421 183.201 183.458 184.27 
184.472 185.266 185.309 186.019 182.309 182.619 183.34 183.661 184.424 
184.775 185.547 185.835 186.523 186.664 187.277 182.316 182.672 183.361 
183.719 184.446 184.83 185.576 185.942 186.584 186.877 187.416 187.675 
188.179 182.261 182.623 183.301 183.684 184.396 184.8 185.543 185.935 
186.6 186.884 187.402 187.641 188.113 188.392 188.796 182.183 182.542 
183.192 183.59 184.26 184.683 185.366 185.82 186.496 186.885 187.465 
187.7 188.192 188.366 188.81 188.961 189.239 182.063 182.422 183.022 
183.434 184.052 184.481 185.075 185.536 186.131 186.637 187.234 187.674 
188.211 188.495 188.95 189.091 189.41 189.408 189.51 159.055 159.657 
159.16 158.853 160.441 159.882 159.556 159.024 158.817 161.296 160.698 
160.378 159.794 159.544 159.098 159.135 162.347 161.646 161.384 160.714 
160.535 159.947 159.966 159.599 159.898 163.636 162.872 162.725 161.94 
161.886 161.152 161.244 160.645 160.923 160.543 161.019 164.96 164.265 
164.235 163.459 163.47 162.682 162.786 162.083 162.318 161.756 162.155 
161.797 162.392 166.183 165.586 165.629 164.972 164.999 164.272 164.324 
163.626 163.785 163.18 163.472 163.009 163.48 163.22 163.855 167.357 
166.8 166.887 166.312 166.381 165.725 165.778 165.104 165.255 164.634 
164.9 164.344 164.721 164.322 164.837 164.631 165.207 168.513 167.982 
168.108 167.569 167.696 167.083 167.18 166.531 166.712 166.11 166.413 
165.825 166.176 165.628 166.043 165.652 166.139 165.9 166.373 158.795 
158.486 158.533 158.528 158.501 158.342 158.298 158.438 158.795 158.983 
158.63 158.691 158.518 158.92 159.057 159.762 159.823 159.372 159.573 
159.244 159.696 159.545 160.247 160.326 161.116 160.922 160.371 160.609 
160.262 160.736 160.498 161.079 160.979 161.625 161.683 162.304 162.322 
161.631 161.84 161.369 161.827 161.54 162.052 161.829 162.3 162.197 
162.692 162.742 163.272 163.852 163.148 163.337 162.72 163.09 162.667 
163.139 162.811 163.23 162.941 163.362 163.216 163.743 163.75 164.348 
165.209 164.629 164.797 164.208 164.457 163.955 164.303 163.91 164.288 
163.935 164.328 164.042 164.532 164.379 164.965 164.926 165.521 166.32 
165.849 165.989 165.517 165.706 165.235 165.478 165.049 165.351 164.984 
165.351 165.047 165.491 165.262 165.767 165.624 166.141 166.077 166.571 
158.996 158.899 159.105 159.529 159.22 159.234 159.775 159.864 160.292 
160.055 159.776 160.252 160.238 160.727 160.692 161.003 161.253 160.757 
161.005 160.78 161.195 161.155 161.552 161.435 161.783 162.424 161.94 
162.063 161.624 161.896 161.691 162.145 162.045 162.526 162.381 162.975 
163.436 163.026 163.226 162.748 163.019 162.606 163.069 162.814 163.388 
163.201 163.836 163.755 164.611 164.506 164.072 164.37 163.935 164.311 
163.874 164.369 163.978 164.55 164.217 164.833 164.64 165.44 165.492 
166.532 165.647 165.211 165.519 165.112 165.523 165.157 165.68 165.33 
165.903 165.514 166.098 165.75 166.481 166.365 167.355 167.472 168.557 
166.681 166.314 166.604 166.246 166.631 166.315 166.823 166.554 167.155 
166.854 167.482 167.114 167.817 167.532 168.432 168.371 169.399 169.469 
170.399 178.061 176.979 177.349 176.949 175.784 176.196 175.772 176.155 
175.68 174.453 174.912 174.464 174.911 174.425 174.811 174.305 173.069 
173.512 173.015 173.508 173.014 173.484 172.986 173.421 172.971 171.739 
172.13 171.596 172.038 171.533 172.016 171.555 172.054 171.632 172.113 
171.688 170.397 170.796 170.255 170.665 170.146 170.572 170.105 170.605 
170.215 170.743 170.326 170.789 170.3 169.06 169.44 168.914 169.331 
168.816 169.221 168.706 169.164 168.731 169.283 168.882 169.398 168.925 
169.364 168.901 167.942 168.2 167.706 168.04 167.555 167.914 167.394 
167.782 167.301 167.792 167.399 167.937 167.547 168.019 167.622 168.066 
167.768 167.12 167.248 166.763 166.963 166.484 166.741 166.254 166.548 
166.089 166.455 166.084 166.537 166.234 166.705 166.421 166.866 166.624 
167.082 166.918 
POINT_DATA 1002
SCALARS Distance double
LOOKUP_TABLE default
170.055 169.021 168.916 170.077 168.969 171.246 170.166 169.014 171.341 
172.617 170.221 169.022 171.45 172.806 174.17 170.371 169.182 171.623 
173.038 174.48 175.765 170.72 169.521 171.967 173.363 174.809 176.107 
177.266 171.162 169.963 172.414 173.757 175.147 176.41 177.569 178.659 
171.648 170.505 172.886 174.168 175.497 176.74 177.863 178.937 179.891 
172.131 171.053 173.352 174.605 175.861 177.084 178.203 179.224 180.135 
180.898 172.538 171.509 173.729 174.99 176.217 177.37 178.455 179.464 
180.35 181.091 181.726 167.9 167.759 166.744 166.534 165.58 167.759 
165.325 164.351 166.456 167.734 164.148 163.068 165.265 166.431 167.752 
162.95 161.921 164.142 165.309 166.526 167.968 161.808 161.006 162.899 
164.153 165.379 166.754 168.346 160.831 160.189 161.72 162.911 164.155 
165.527 167.187 168.918 160.041 159.455 160.836 161.938 163.092 164.343 
166.043 167.953 169.635 159.537 159.016 160.244 161.275 162.386 163.46 
164.971 166.966 168.817 170.266 159.303 159.809 159.945 160.298 160.628 
160.589 160.762 161.244 160.963 161.676 161.51 162.186 161.457 162.076 
162.803 163.065 163.705 162.78 163.057 163.606 164.218 165.214 165.604 
164.984 165.036 165.241 165.603 166.231 167.398 167.649 167.219 167.214 
167.241 167.289 167.654 168.267 169.356 169.603 169.071 168.907 168.849 
168.768 168.874 169.315 169.846 170.984 171.211 170.661 170.36 170.181 
170.068 170.073 170.339 170.765 171.167 172.603 172.363 173.919 172.089 
173.85 175.253 171.74 173.625 175.133 176.299 171.499 173.197 174.674 
175.923 177.234 171.533 173.007 174.19 175.297 176.783 178.321 171.723 
173.237 174.34 175.062 176.256 177.899 179.274 171.946 173.462 174.826 
175.552 176.216 177.443 178.841 179.984 172.183 173.494 174.953 176.056 
176.675 177.417 178.536 179.726 180.792 172.392 173.51 174.803 176.114 
177.051 177.742 178.618 179.717 180.807 181.753 173.765 175.102 175.057 
176.362 176.404 176.392 177.46 177.628 177.716 177.604 178.569 178.721 
178.848 178.814 178.663 179.621 179.782 179.895 179.909 179.817 179.696 
180.424 180.737 180.942 181.036 180.983 180.858 180.664 181.182 181.575 
181.877 182.05 182.081 181.978 181.765 181.457 182.06 182.405 182.689 
182.843 182.899 182.892 182.763 182.488 182.121 182.829 183.144 183.726 
184.077 184.602 183.434 185.026 185.737 184.362 183.594 186.113 186.873 
185.381 184.527 183.637 187.112 187.74 186.418 185.63 184.606 183.668 
188.126 188.585 187.374 186.617 185.687 184.611 183.647 189.175 189.334 
188.454 187.493 186.518 185.497 184.462 183.451 189.722 189.615 189.284 
188.363 187.234 186.135 185.135 184.124 183.082 189.643 189.499 189.399 
188.77 187.832 186.714 185.642 184.658 183.64 182.627 182.191 183.159 
182.529 183.318 182.679 183.964 183.456 182.85 184.203 185.058 183.743 
183.069 184.511 185.55 186.432 183.871 182.947 184.676 185.696 186.744 
187.399 183.583 182.497 184.495 185.387 186.358 187.241 187.968 183.172 
182.1 184.152 185.001 185.816 186.681 187.626 188.586 182.755 181.723 
183.757 184.649 185.461 186.301 187.215 188.177 189.056 182.14 181.164 
183.137 184.087 184.974 185.891 186.849 187.73 188.5 189.137 172.197 
173.357 173.23 174.449 174.336 174.542 175.709 175.485 175.802 175.907 
176.947 176.653 177.153 177.186 177.163 178.037 177.799 178.281 178.408 
178.33 178.104 179.04 178.833 179.25 179.484 179.535 179.37 179.035 
180.012 179.737 180.244 180.591 180.803 180.742 180.536 180.157 180.931 
180.527 181.223 181.647 182.026 182.028 181.859 181.661 181.274 170.384 
171.552 169.395 170.817 168.602 172.777 170.18 168.154 172.249 173.948 
169.619 167.801 171.683 173.504 175.105 169.037 167.396 171.074 173.073 
174.763 176.364 168.518 167.078 170.457 172.634 174.506 176.086 177.58 
168.169 166.946 169.881 172.052 174.14 175.778 177.208 178.577 167.991 
166.947 169.43 171.35 173.454 175.284 176.758 178.107 179.401 167.946 