# vtk DataFile Version 4.0
vtk output
ASCII
DATASET POLYDATA
POINTS 1002 float
-119.496 -113.314 51.3478 -119.238 -112.006 50.3071 -118.657 -112.382 50.5992 
-118.887 -113.76 51.6794 -118.033 -112.826 51.0038 -119.883 -114.748 52.4467 
-118.303 -114.329 52.1112 -117.469 -113.524 51.4004 -119.306 -115.297 52.8616 
-120.249 -116.166 53.7574 -117.783 -115.132 52.6331 -116.916 -114.372 51.911 
-118.736 -115.99 53.4347 -119.668 -116.882 54.2516 -120.336 -117.484 55.2825 
-117.169 -115.964 53.3879 -116.295 -115.176 52.6831 -118.133 -116.783 54.2084 
-118.99 -117.643 54.9289 -119.673 -118.326 55.7806 -120.228 -118.814 56.8202 
-116.474 -116.756 54.3016 -115.7 -116.032 53.5902 -117.406 -117.52 55.1321 
-118.252 -118.369 55.8092 -118.907 -119.148 56.4587 -119.498 -119.765 57.3381 
-120.156 -120.345 58.2101 -115.887 -117.632 55.2229 -115.224 -116.923 54.5672 
-116.666 -118.326 56.0079 -117.463 -119.156 56.7132 -118.166 -120.028 57.3157 
-118.752 -120.789 58.0326 -119.368 -121.407 58.8231 -120.065 -121.936 59.426 
-115.391 -118.494 56.2212 -114.828 -117.682 55.6621 -116.002 -119.26 56.889 
-116.624 -120.165 57.5291 -117.344 -121.133 58.1165 -118.033 -121.937 58.7831 
-118.609 -122.508 59.5223 -119.237 -122.919 60.1187 -119.929 -123.24 60.5139 
-114.889 -119.307 57.2557 -114.459 -118.398 56.7565 -115.373 -120.191 57.8433 
-115.8 -121.222 58.3776 -116.374 -122.335 58.8138 -117.146 -123.179 59.3433 
-117.83 -123.606 60.0688 -118.43 -123.819 60.7597 -119.13 -124.024 61.2019 
-119.869 -124.216 61.5017 -114.396 -120.156 58.1791 -114.094 -119.206 57.7087 
-114.794 -121.085 58.7269 -115.126 -122.129 59.2255 -115.502 -123.295 59.5482 
-116.158 -124.24 59.8501 -116.938 -124.665 60.4071 -117.616 -124.724 61.1589 
-118.307 -124.774 61.7647 -119.094 -124.926 62.1048 -119.866 -125.046 62.361 
-118.703 -111.034 49.3298 -118.071 -111.324 49.7408 -118.076 -110.052 48.3016 
-117.381 -110.245 48.8173 -117.33 -109.152 47.331 -117.396 -111.79 50.2507 
-116.604 -109.287 47.9399 -116.632 -108.311 46.6114 -116.674 -110.655 49.5286 
-116.776 -112.543 50.7786 -115.946 -108.426 47.3743 -116.039 -107.271 46.3471 
-115.97 -109.558 48.9128 -116.097 -111.322 50.3766 -116.205 -113.378 51.4505 
-115.364 -107.44 47.2699 -115.359 -106.177 46.3831 -115.406 -108.598 48.5315 
-115.493 -110.119 50.0539 -115.598 -112.153 51.2408 -115.626 -114.243 52.2738 
-114.609 -106.54 47.3157 -114.549 -105.565 46.4149 -114.764 -107.726 48.402 
-114.828 -109.226 49.7094 -114.902 -111.073 50.9543 -115.008 -113.165 52.0027 
-115.071 -115.219 53.1759 -113.715 -106.059 47.3194 -113.787 -105.346 46.5902 
-113.871 -107.061 48.3045 -113.972 -108.586 49.3967 -113.988 -110.366 50.5288 
-114.204 -112.229 51.6671 -114.476 -114.213 52.8936 -114.648 -116.105 54.2682 
-112.94 -105.767 47.5751 -113.2 -105.035 47.1543 -112.931 -106.649 48.2863 
-113.049 -108.062 49.1722 -113.096 -109.825 50.1821 -113.335 -111.573 51.3499 
-113.838 -113.326 52.6747 -114.215 -115.125 54.1057 -114.368 -116.843 55.5078 
-112.43 -105.356 48.2241 -112.773 -104.548 47.9779 -112.244 -106.289 48.6353 
-112.286 -107.6 49.2441 -112.417 -109.253 50.1131 -112.674 -111.006 51.2541 
-113.208 -112.731 52.5675 -113.785 -114.385 53.9775 -114.078 -115.997 55.3917 
-114.118 -117.63 56.6535 -112.217 -104.576 49.044 -111.934 -105.59 49.3352 
-111.858 -104.922 50.3131 -111.733 -106.307 50.6953 -111.839 -105.917 51.8313 
-111.816 -106.928 49.7279 -111.938 -107.501 52.313 -112.174 -107.268 53.4425 
-111.776 -107.922 51.2332 -111.94 -108.534 50.4159 -112.583 -108.797 53.8003 
-112.824 -108.508 54.681 -112.275 -109.15 52.9821 -112.085 -109.648 52.172 
-112.241 -110.336 51.5182 -113.463 -110.32 54.7932 -113.654 -110.105 55.4536 
-113.146 -110.654 54.3429 -112.621 -111.099 53.9624 -112.388 -111.715 53.3667 
-112.682 -112.309 52.8103 -114.106 -112.409 55.7607 -114.328 -112.351 56.3525 
-113.826 -112.606 55.3649 -113.118 -112.915 55.247 -112.439 -113.392 54.9631 
-112.566 -113.887 54.4649 -113.229 -114.16 54.1238 -114.231 -114.42 57.2515 
-114.559 -114.332 57.7304 -113.938 -114.591 56.7981 -113.315 -114.768 56.5476 
-112.428 -114.991 56.2998 -112.202 -115.342 55.8993 -112.894 -115.614 55.6166 
-113.672 -115.75 55.5142 -114.023 -115.752 58.9694 -114.447 -115.573 59.2461 
-113.66 -116.026 58.64 -113.228 -116.275 58.2996 -112.557 -116.402 57.8953 
-112.107 -116.596 57.3941 -112.461 -116.921 57.0402 -113.252 -117.185 56.9395 
-113.818 -117.382 56.8558 -113.855 -116.859 60.4003 -114.314 -116.641 60.5128 
-113.4 -117.17 60.2665 -112.996 -117.493 60.0522 -112.569 -117.705 59.6534 
-112.193 -117.92 59.05 -112.224 -118.296 58.5126 -112.732 -118.705 58.2744 
-113.319 -118.971 58.1688 -113.742 -119.113 57.976 -113.806 -120.739 58.8765 
-113.305 -120.781 59.194 -113.457 -122.217 60.1587 -112.76 -120.694 59.415 
-112.795 -122.279 60.5217 -113.105 -123.443 61.5483 -112.211 -120.379 59.5877 
-112.121 -122.237 60.7207 -112.37 -123.515 61.9114 -112.66 -124.811 62.861 
-111.893 -119.83 60.0261 -111.556 -121.894 60.9931 -111.65 -123.543 62.135 
-111.95 -125.039 63.2834 -111.952 -126.606 64.0617 -111.99 -119.316 60.7417 
-111.34 -121.212 61.6593 -111.103 -123.139 62.6349 -111.271 -125.074 63.7719 
-111.206 -126.901 64.7659 -111.156 -128.198 65.4135 -112.399 -119.047 61.2869 
-111.669 -120.709 62.3531 -111.097 -122.439 63.3747 -110.915 -124.522 64.4761 
-110.642 -126.725 65.5634 -110.392 -128.291 66.3661 -110.782 -129.158 66.8538 
-112.939 -118.838 61.4895 -112.4 -120.616 62.6303 -111.769 -122.131 63.7715 
-111.263 -123.806 64.9638 -110.727 -125.948 66.1609 -110.183 -127.826 67.1367 
-110.257 -128.957 67.7095 -111.012 -129.792 68.0065 -113.51 -118.534 61.5416 
-113.176 -120.496 62.6799 -112.661 -122.082 63.8487 -112.045 -123.387 65.0535 
-111.422 -125.06 66.3166 -110.766 -126.885 67.5116 -110.462 -128.233 68.3255 
-110.823 -129.201 68.703 -111.534 -130.185 68.8857 -114.035 -118.211 61.5741 
-113.794 -120.135 62.7299 -113.351 -121.75 63.9633 -112.697 -122.922 65.1326 
-112.097 -124.277 66.2808 -111.579 -125.894 67.5571 -111.148 -127.227 68.7171 
-111.089 -128.194 69.3978 -111.466 -129.141 69.6556 -112.026 -130.171 69.7535 
-114.149 -121.716 59.4246 -113.867 -123.183 60.7661 -114.527 -122.733 59.9715 
-113.455 -124.569 62.1332 -114.211 -124.31 61.2326 -114.827 -123.891 60.3515 
-112.752 -126.23 63.3663 -113.657 -125.854 62.524 -114.509 -125.441 61.5472 
-115.281 -124.959 60.5809 -111.999 -127.907 64.5984 -112.942 -127.426 63.8318 
-114.02 -126.814 62.9679 -115.076 -126.225 61.9009 -116.031 -125.565 60.9545 
-111.66 -129.112 66.0382 -112.589 -128.774 65.2214 -113.609 -128.113 64.4534 
-114.806 -127.348 63.4997 -115.93 -126.596 62.4131 -116.841 -125.695 61.6222 
-111.746 -130.097 67.4072 -112.622 -130.016 66.6443 -113.511 -129.422 65.8204 
-114.6 -128.52 64.9503 -115.816 -127.653 63.9462 -116.828 -126.732 62.9982 
-117.617 -125.694 62.3172 -112.017 -130.94 68.4402 -112.696 -131.228 67.8579 
-113.481 -130.769 67.0588 -114.453 -129.712 66.1632 -115.648 -128.655 65.2476 
-116.785 -127.783 64.3019 -117.689 -126.816 63.4477 -118.448 -125.791 62.7477 
-112.374 -131.241 69.2955 -112.85 -131.881 68.8072 -113.506 -131.69 68.1225 
-114.386 -130.686 67.2569 -115.494 -129.479 66.3769 -116.654 -128.572 65.4789 
-117.668 -127.788 64.5358 -118.547 -126.855 63.6853 -119.302 -125.884 62.9865 
-112.693 -130.54 70.3514 -113.122 -131.533 69.7984 -113.55 -130.482 70.7762 
-114.149 -131.022 70.0906 -114.598 -129.956 70.8027 -113.702 -131.806 69.1593 
-115.411 -130.116 70.0354 -115.846 -129.333 70.5069 -114.97 -130.878 69.2558 
-114.523 -131.18 68.3126 -116.93 -129.602 69.7781 -117.589 -128.953 70.1008 
-116.463 -130.144 69.0577 -115.962 -130.372 68.2404 -115.563 -130.11 67.3844 
-118.891 -129.402 69.4126 -119.723 -128.605 69.6079 -118.13 -130.084 68.7308 
-117.514 -130.241 67.904 -117.006 -129.807 67.2546 -116.698 -129.168 66.4823 
-121.009 -128.87 68.8943 -121.796 -128.073 69.1448 -120.032 -129.702 68.3508 
-119.134 -130.114 67.5722 -118.498 -129.767 66.931 -118.037 -129.017 66.3411 
-117.768 -128.381 65.4974 -123.111 -128.229 68.4424 -123.933 -127.792 68.9348 
-122.007 -128.651 67.9267 -120.867 -129.008 67.3823 -120.026 -128.996 66.7921 
-119.461 -128.521 66.1725 -119.032 -127.97 65.4009 -118.755 -127.489 64.5101 
-125.318 -128.162 68.2779 -126.153 -128.09 68.911 -124.08 -127.918 67.6315 
-122.736 -127.711 67.2016 -121.641 -127.695 66.7899 -120.902 -127.564 66.188 
-120.377 -127.224 65.4224 -119.976 -126.887 64.5594 -119.648 -126.483 63.7158 
-127.218 -128.549 68.2585 -127.873 -128.539 68.8366 -126.037 -127.962 67.5283 
-124.662 -127.213 67.0087 -123.397 -126.865 66.6305 -122.39 -126.81 66.0911 
-121.67 -126.581 65.4084 -121.159 -126.214 64.6852 -120.735 -125.901 63.8913 
-120.309 -125.536 63.0805 -112.083 -129.156 70.7471 -112.807 -129.377 71.3805 
-112.097 -128.043 71.8566 -113.052 -128.273 72.3117 -112.399 -127.195 72.533 
-113.836 -129.355 71.5952 -113.781 -127.458 72.6429 -113.342 -126.6 72.2944 
-114.451 -128.308 72.1823 -115.04 -129.002 71.302 -114.9 -126.771 72.1065 
-114.542 -126.008 71.2375 -115.478 -127.37 72.2867 -115.947 -127.995 71.6565 
-116.545 -128.578 70.7462 -115.854 -126.064 70.8598 -115.517 -125.374 69.8387 
-116.42 -126.507 71.6543 -117.031 -126.992 71.7071 -117.684 -127.753 70.9033 
-118.582 -128.294 70.1003 -116.766 -125.344 69.4085 -116.542 -124.664 68.5624 
-117.166 -125.757 70.3288 -117.831 -126.137 70.9919 -118.77 -126.904 70.7859 
-119.731 -127.596 70.0284 -120.717 -127.845 69.5251 -117.968 -124.512 68.2633 
-117.75 -123.776 67.621 -118.234 -125.034 68.9584 -118.693 -125.437 69.6541 
-119.646 -126.036 70.0304 -120.777 -126.7 69.8189 -121.731 -127.018 69.4758 
-122.782 -127.3 69.2831 -119.087 -123.589 67.4326 -118.748 -122.845 66.8844 
-119.459 -124.214 67.98 -119.851 -124.734 68.4667 -120.604 -125.194 68.968 
-121.732 -125.632 69.3124 -122.759 -125.992 69.3651 -123.773 -126.471 69.3508 
-125.035 -127.284 69.2695 -119.806 -122.76 66.6438 -119.392 -122.056 66.1633 
-120.327 -123.388 67.1679 -120.843 -123.956 67.618 -121.516 -124.389 68.0905 
[...]
CELL_DATA 2000
SCALARS Distance double
LOOKUP_TABLE default
170.579 170.539 171.017 172.003 170.631 171.036 172.059 172.547 173.598 
170.92 171.247 172.287 172.694 173.787 174.203 175.169 171.274 171.595 
172.642 173.007 174.074 174.447 175.42 175.726 176.549 171.657 171.951 
172.978 173.347 174.379 174.741 175.678 175.984 176.825 177.085 177.902 
172.168 172.381 173.365 173.669 174.682 175.024 175.988 176.28 177.171 
177.41 178.273 178.505 179.343 172.755 172.931 173.878 174.099 175.08 
175.36 176.37 176.656 177.632 177.856 178.752 178.931 179.745 179.926 
180.648 173.339 173.508 174.432 174.625 175.567 175.801 176.79 177.078 
178.075 178.343 179.224 179.41 180.142 180.298 180.941 181.11 181.695 
173.933 174.08 174.979 175.163 176.074 176.285 177.209 177.48 178.41 
178.716 179.547 179.787 180.443 180.611 181.17 181.343 181.889 182.072 
182.594 169.699 168.357 169.224 169.625 166.949 167.827 168.239 169.169 
169.678 165.598 166.404 166.792 167.748 168.305 169.305 169.931 164.398 
165.12 165.458 166.323 166.89 167.916 168.6 169.616 170.283 163.254 
163.974 164.324 165.086 165.613 166.552 167.269 168.291 169.022 169.999 
170.696 162.173 162.852 163.244 163.996 164.5 165.355 166.023 166.998 
167.758 168.759 169.521 170.481 171.229 161.331 161.852 162.202 162.914 
163.417 164.251 164.863 165.78 166.499 167.501 168.301 169.319 170.132 
171.082 171.844 160.752 161.11 161.36 161.93 162.396 163.17 163.787 
164.646 165.358 166.294 167.138 168.143 169.046 170.017 170.859 171.736 
172.479 160.333 160.597 160.794 161.198 161.614 162.242 162.879 163.65 
164.427 165.276 166.192 167.119 168.121 169.044 169.983 170.828 171.644 
172.418 173.132 160.193 160.346 160.36 160.698 161.089 160.78 161.147 
161.051 161.563 162.482 161.879 162.24 161.817 162.325 162.167 162.855 
164.169 163.491 163.877 163.228 163.719 163.238 163.907 163.682 164.483 
165.986 165.276 165.783 165.061 165.594 164.9 165.535 165.021 165.814 
165.5 166.361 168.062 167.249 167.829 167.072 167.617 166.861 167.378 
166.745 167.409 166.991 167.806 167.49 168.324 170.087 169.342 169.801 
169.1 169.535 168.809 169.134 168.458 168.871 168.454 169.125 168.895 
169.671 169.417 170.153 171.597 171.067 171.349 170.827 171.138 170.546 
170.771 170.084 170.326 169.787 170.313 170.067 170.828 170.662 171.4 
171.145 171.791 172.749 172.309 172.554 172.123 172.413 171.95 172.205 
171.619 171.85 171.244 171.671 171.277 171.99 171.786 172.563 172.342 
173 172.704 173.271 174.156 173.922 174.509 175.402 173.531 174.231 
175.141 175.724 176.561 173.009 173.773 174.729 175.396 176.249 176.83 
177.656 172.657 173.283 174.248 174.929 175.833 176.485 177.396 177.985 
178.868 172.713 173.094 173.964 174.492 175.39 176.05 177.052 177.746 
178.746 179.278 180.106 172.995 173.271 174.076 174.389 175.226 175.699 
176.709 177.403 178.492 179.141 180.026 180.458 181.155 173.218 173.544 
174.425 174.681 175.546 175.777 176.717 177.175 178.248 178.872 179.817 
180.323 181.032 181.431 182.111 173.363 173.737 174.722 175.084 176.042 
176.247 177.097 177.335 178.246 178.701 179.626 180.119 180.867 181.274 
181.92 182.357 183.049 173.518 173.887 174.883 175.345 176.326 176.661 
177.407 177.638 178.318 178.689 179.478 179.96 180.705 181.119 181.726 
182.12 182.701 183.193 183.794 174.557 175.823 175.332 175.608 177.024 
176.609 176.935 176.425 176.707 178.154 177.792 178.19 177.749 178.069 
177.539 177.83 179.321 178.936 179.348 178.963 179.32 178.867 179.171 
178.664 178.973 180.485 180.11 180.48 180.102 180.456 180.059 180.372 
179.938 180.222 179.765 180.033 181.566 181.248 181.653 181.259 181.622 
181.197 181.528 181.101 181.388 180.945 181.166 180.711 180.881 182.642 
182.373 182.923 182.52 182.945 182.441 182.764 182.277 182.571 182.109 
182.335 181.836 181.977 181.477 181.597 183.665 183.505 184.165 183.851 
184.319 183.815 184.061 183.514 183.709 183.254 183.464 183.007 183.153 
182.622 182.724 182.199 182.318 184.424 184.44 185.094 184.979 185.417 
185.071 185.214 184.708 184.738 184.287 184.399 184.032 184.173 183.751 
183.841 183.345 183.425 182.923 183.017 184.924 185.714 185.469 185.624 
186.146 186.088 186.227 186.007 185.916 186.356 186.347 186.445 186.382 
186.276 186.029 185.674 186.817 186.626 186.76 186.587 186.539 186.29 
186.005 185.636 185.206 187.665 187.33 187.533 187.155 187.195 186.752 
186.568 186.071 185.733 185.239 184.882 188.5 188.218 188.38 188.031 
188.023 187.565 187.353 186.799 186.44 185.872 185.495 185 184.657 
189.387 188.996 189.025 188.69 188.51 188.192 187.843 187.463 187.001 
186.533 186.053 185.584 185.171 184.739 184.345 190.748 190.063 189.967 
189.32 188.975 188.5 188.071 187.733 187.272 186.921 186.432 186.033 
185.583 185.19 184.788 184.374 183.951 192.261 191.552 191.335 190.436 
189.931 189.118 188.617 188.044 187.636 187.203 186.796 186.377 185.952 
185.558 185.158 184.782 184.378 183.961 183.528 184.56 184.23 184.739 
185.347 183.987 184.423 185.045 185.461 185.886 183.97 184.297 184.924 
185.236 185.68 185.914 186.182 183.972 184.329 184.942 185.21 185.651 
185.808 186.118 186.258 186.623 183.704 184.183 184.74 185.142 185.583 
185.823 186.191 186.329 186.75 186.903 187.433 183.323 183.785 184.279 
184.755 185.202 185.628 186.1 186.423 186.915 187.105 187.594 187.769 
188.283 183.083 183.449 183.94 184.308 184.768 185.186 185.736 186.224 
186.828 187.196 187.69 187.898 188.392 188.602 189.209 182.871 183.245 
183.754 184.082 184.56 184.877 185.42 185.861 186.513 186.992 187.568 
187.897 188.434 188.721 189.469 189.748 190.61 182.539 182.968 183.465 
183.876 184.36 184.715 185.211 185.601 186.191 186.663 187.277 187.704 
188.292 188.694 189.461 189.95 190.924 191.305 192.153 173.888 174.954 
174.701 175.327 176.041 175.822 176.441 176.198 176.735 176.996 176.817 
177.274 177.116 177.498 177.36 177.696 177.852 177.654 177.985 177.784 
178.053 177.925 178.268 178.178 178.569 178.729 178.489 178.873 178.567 
178.939 178.627 179.102 178.871 179.45 179.237 179.776 179.636 179.397 
179.86 179.577 180.091 179.76 180.338 179.992 180.601 180.288 180.848 
180.548 180.995 180.51 180.304 180.752 180.547 181.041 180.868 181.396 
181.198 181.659 181.407 181.78 181.532 181.867 181.629 181.946 181.307 
181.144 181.565 181.378 181.793 181.66 182.115 182.025 182.425 182.259 
182.526 182.299 182.539 182.354 182.665 182.495 182.856 182.015 181.899 
182.325 182.154 182.537 182.363 182.783 182.668 183.128 182.976 183.341 
183.058 183.33 183.038 183.368 183.18 183.606 183.452 183.898 173.314 
172.754 173.41 174.236 172.074 172.802 173.57 174.348 175.284 171.244 
172.11 172.942 173.674 174.587 175.419 176.355 170.367 171.352 172.382 
173.105 174.018 174.767 175.757 176.512 177.351 169.531 170.573 171.784 
172.607 173.589 174.276 175.243 175.974 176.913 177.534 178.275 168.807 
169.805 171.085 172.023 173.118 173.862 174.828 175.523 176.474 177.133 
177.974 178.496 179.19 168.308 169.159 170.445 171.374 172.581 173.387 
174.43 175.127 176.094 176.746 177.638 178.207 178.973 179.434 180.086 
168.09 168.769 170.017 170.842 172.083 172.893 174.004 174.734 175.743 
176.405 177.333 177.914 178.726 179.216 179.906 180.315 180.902 168.1 
168.641 169.801 170.498 171.661 172.422 173.497 174.269 175.284 176.028 
176.984 177.627 178.469 178.988 179.698 180.126 180.727 181.094 181.616 
168.527 169.738 169.454 170.187 170.966 170.667 171.329 171.133 171.91 
172.186 171.857 172.435 172.206 172.918 172.819 173.645 173.532 173.128 
173.76 173.396 174.128 173.879 174.738 174.603 175.471 175.086 174.616 
175.393 174.94 175.776 175.328 176.194 175.852 176.731 176.483 177.253 
176.75 176.267 177.065 176.661 177.512 177.081 177.853 177.414 178.142 
177.8 178.494 178.194 178.768 178.351 177.91 178.606 178.244 178.977 
178.65 179.297 178.932 179.497 179.147 179.709 179.399 179.911 179.58 
179.992 179.747 179.398 180.019 179.668 180.278 179.949 180.524 180.198 
180.742 180.406 180.937 180.591 181.068 180.7 181.075 180.699 181.006 
180.902 180.655 181.245 180.956 181.5 181.173 181.692 181.372 181.92 
181.615 182.168 181.826 182.289 181.878 182.212 181.779 182.039 181.644 
181.886 181.677 182.925 182.224 182.038 184.147 183.452 183.263 182.55 
182.301 185.476 184.707 184.522 183.772 183.539 182.78 182.499 186.958 
186.132 185.949 185.108 184.868 184.049 183.8 183.009 182.751 188.364 
187.588 187.388 186.575 186.283 185.416 185.1 184.303 184.046 183.285 
183.007 189.732 188.905 188.64 187.9 187.573 186.769 186.327 185.524 
185.137 184.456 184.132 183.444 183.069 191.235 190.285 189.849 189.031 
188.603 187.885 187.377 186.622 186.088 185.405 184.977 184.385 183.977 
183.348 182.903 192.429 191.642 190.934 190.092 189.386 188.715 188.106 
187.485 186.885 186.242 185.715 185.133 184.699 184.135 183.699 183.096 
182.666 192.696 192.339 191.414 190.796 189.817 189.249 188.492 188.02 
187.393 186.879 186.291 185.77 185.281 184.792 184.367 183.839 183.42 
182.85 182.466 181.691 182.208 182.296 182.982 182.782 182.884 183.596 
183.607 184.243 183.168 183.423 184.176 184.247 184.908 184.894 185.567 
183.249 183.667 184.464 184.717 185.44 185.56 186.314 186.334 187.07 
183.221 183.678 184.493 184.861 185.66 185.986 186.902 187.109 187.981 
187.921 188.585 183.14 183.643 184.472 184.864 185.676 186.105 187.137 
187.608 188.691 188.857 189.672 189.46 190.066 182.892 183.483 184.331 
184.817 185.611 186.078 187.045 187.675 188.811 189.356 190.32 190.469 
191.209 191.016 191.632 182.564 183.153 183.99 184.577 185.376 185.925 
186.772 187.425 188.391 189.147 190.064 190.692 191.465 191.832 192.493 
192.485 192.875 182.299 182.815 183.585 184.171 184.954 185.573 186.364 
187.014 187.798 188.521 189.249 190.036 190.694 191.494 192.093 192.724 
193.088 193.246 193.157 180.927 179.892 180.73 181.407 178.803 179.699 
180.369 181.239 181.938 177.438 178.542 179.233 180.164 180.784 181.688 
182.277 175.608 176.965 177.723 178.887 179.47 180.435 180.916 181.854 
182.327 173.529 174.944 175.688 177.11 177.757 178.952 179.416 180.415 
180.843 181.818 182.282 171.504 172.82 173.47 174.924 175.605 177.015 
177.591 178.797 179.253 180.3 180.746 181.752 182.188 169.648 170.822 
171.435 172.767 173.455 174.84 175.499 176.84 177.416 178.624 179.098 
180.172 180.586 181.595 181.957 168.106 169.073 169.671 170.858 171.591 
172.857 173.567 174.826 175.482 176.732 177.32 178.478 178.949 179.983 
180.379 181.344 181.69 166.962 167.706 168.229 169.227 169.947 171.124 
171.888 173.066 173.766 174.924 175.588 176.734 177.317 178.374 178.842 
179.814 180.228 181.14 181.498 166.567 166.377 166.863 167.781 166.305 
166.728 167.687 168.255 169.423 166.484 166.756 167.699 168.209 169.423 
170.07 171.358 166.952 167.077 167.977 168.328 169.546 170.131 171.486 
172.066 173.296 167.514 167.62 168.514 168.747 169.944 170.392 171.785 
172.295 173.593 174.015 175.15 168.015 168.156 169.064 169.316 170.502 
170.896 172.26 172.702 173.988 174.371 175.484 175.842 176.863 168.587 
168.67 169.575 169.829 171.008 171.428 172.741 173.178 174.355 174.724 
175.727 176.105 177.06 177.461 178.383 169.348 169.343 170.238 170.386 
171.519 171.886 173.143 173.577 174.662 175.003 175.878 176.233 177.124 
177.573 178.519 178.928 179.802 170.176 170.172 171.056 171.126 172.156 
172.4 173.524 173.9 174.91 175.239 176.052 176.349 177.183 177.601 
178.571 179.04 179.981 180.333 181.118 170.889 172.368 171.693 171.864 
173.936 173.25 173.452 172.741 172.963 175.396 174.768 174.903 174.272 
174.464 173.866 174.182 176.746 176.15 176.242 175.623 175.758 175.229 
175.507 175.058 175.41 178.176 177.555 177.777 177.06 177.263 176.579 
176.888 176.344 176.718 176.232 176.544 179.639 179.075 179.444 178.766 
179.12 178.334 178.709 177.947 178.369 177.684 178.075 177.422 177.762 
180.902 180.477 180.848 180.379 180.783 180.202 180.58 179.872 180.227 
179.485 179.86 179.135 179.524 178.805 179.196 181.935 181.604 181.924 
181.592 181.955 181.614 181.98 181.526 181.814 181.222 181.484 180.863 
181.189 180.576 180.933 180.272 180.588 182.839 182.558 182.862 182.559 
182.883 182.61 182.987 182.698 183.047 182.618 182.879 182.337 182.595 
182.068 182.366 181.844 182.103 181.508 181.684 182.406 182.845 182.971 
183.634 183.154 183.374 184.12 184.255 184.99 183.434 183.695 184.554 
184.759 185.593 185.688 186.444 183.7 183.997 184.888 185.184 186.061 
186.265 187.043 187.126 187.83 183.772 184.163 184.959 185.386 186.191 
186.57 187.3 187.569 188.235 188.412 189.108 183.629 184.064 184.745 
185.248 185.953 186.469 187.161 187.613 188.277 188.63 189.335 189.636 
190.435 183.495 183.865 184.487 184.932 185.576 186.093 186.761 187.313 
187.98 188.493 189.185 189.675 190.495 190.955 191.812 183.458 183.768 
184.349 184.7 185.275 185.706 186.293 186.831 187.409 188.006 188.565 
189.231 189.896 190.671 191.468 192.15 192.795 183.411 183.726 184.26 
184.574 185.069 185.42 185.904 186.346 186.814 187.339 187.755 188.383 
188.837 189.685 190.277 191.286 191.84 192.668 192.871 160.141 160.546 
160.199 159.843 161.058 160.632 160.291 159.85 159.45 161.805 161.211 
160.865 160.371 160.09 159.61 159.502 162.887 162.118 161.731 161.072 
160.869 160.381 160.388 159.989 160.21 164.138 163.348 163.015 162.168 
161.953 161.313 161.357 160.921 161.071 160.762 161.016 165.401 164.664 
164.477 163.619 163.446 162.627 162.648 162.017 162.148 161.639 161.791 
161.477 161.813 166.74 165.998 165.907 165.123 165.054 164.235 164.271 
163.502 163.641 162.918 163.092 162.473 162.803 162.456 163.042 168.125 
167.386 167.302 166.564 166.539 165.812 165.875 165.153 165.278 164.536 
164.694 163.973 164.25 163.699 164.199 163.889 164.53 169.458 168.751 
168.644 167.934 167.882 167.224 167.275 166.652 166.751 166.1 166.195 
165.532 165.697 165.136 165.473 165.087 165.568 165.321 165.835 159.872 
159.525 159.612 159.445 159.085 159.166 159.097 159.289 159.371 159.152 
158.896 158.903 159.023 159.384 159.541 159.888 159.997 159.426 159.465 
159.198 159.691 159.757 160.372 160.346 160.76 160.981 160.514 160.668 
160.19 160.605 160.373 161.005 160.938 161.479 161.326 161.763 161.854 
161.484 161.793 161.444 161.841 161.479 161.944 161.701 162.229 162.072 
162.588 162.43 162.987 163.055 162.511 162.85 162.502 162.955 162.642 
163.068 162.73 163.176 162.917 163.452 163.278 163.85 163.716 164.314 
164.507 163.88 164.131 163.647 164.044 163.7 164.154 163.833 164.271 
163.951 164.421 164.181 164.706 164.549 165.096 164.995 165.585 165.798 
165.262 165.443 164.94 165.237 164.826 165.239 164.91 165.358 165.039 
165.46 165.161 165.597 165.382 165.884 165.755 166.333 166.264 166.926 
159.929 159.569 159.793 160.043 159.479 159.52 159.808 160.106 160.719 
159.856 159.615 159.865 160.016 160.741 161.145 162.118 160.622 160.176 
160.369 160.299 161.067 161.357 162.422 162.778 163.82 161.666 161.093 
161.297 161.021 161.748 161.864 162.908 163.175 164.207 164.496 165.555 
162.972 162.32 162.572 162.123 162.753 162.653 163.562 163.7 164.701 
164.941 166.056 166.381 167.624 164.357 163.745 164.032 163.512 164.062 
163.751 164.529 164.439 165.413 165.537 166.754 167.033 168.377 168.643 
169.826 165.695 165.148 165.498 164.994 165.558 165.146 165.919 165.614 
166.597 166.487 167.735 167.878 169.242 169.462 170.605 170.704 171.494 
167.104 166.553 166.998 166.49 167.121 166.693 167.528 167.166 168.173 
167.909 169.061 168.996 170.193 170.295 171.31 171.4 172.116 172.111 
172.654 180.427 179.253 179.687 179.348 177.83 178.383 178.003 178.534 
178.182 176.157 176.795 176.347 177.001 176.534 177.183 176.701 174.449 
175.037 174.51 175.182 174.621 175.319 174.712 175.445 174.826 172.926 
173.374 172.779 173.327 172.713 173.335 172.697 173.377 172.752 173.468 
172.836 171.576 171.913 171.223 171.642 170.948 171.471 170.827 171.431 
170.837 171.478 170.886 171.527 170.905 170.26 170.54 169.729 170.074 
169.292 169.747 169.086 169.643 169.073 169.663 169.094 169.675 169.075 
169.664 169.088 168.962 169.184 168.328 168.592 167.813 168.168 167.548 
168.012 167.501 168.005 167.486 167.984 167.443 167.953 167.452 167.998 
167.592 167.782 167.932 167.145 167.318 166.635 166.866 166.329 166.657 
166.223 166.603 166.159 166.537 166.066 166.473 166.058 166.527 166.21 
166.728 166.498 
POINT_DATA 1002
SCALARS Distance double
LOOKUP_TABLE default
171.499 170.155 170.084 171.471 170.064 173.04 171.576 170.256 173.131 
174.625 171.912 170.596 173.377 174.855 176.029 172.282 170.947 173.735 
175.113 176.297 177.326 172.629 171.4 174.028 175.379 176.547 177.637 
178.747 173.117 171.989 174.354 175.67 176.919 178.053 179.135 180.151 
173.691 172.588 174.829 176.061 177.383 178.6 179.608 180.497 181.3 
174.248 173.185 175.36 176.518 177.796 179.05 180.027 180.793 181.537 
182.251 174.809 173.808 175.885 176.981 178.133 179.307 180.287 181.017 
181.702 182.431 183.102 168.86 168.729 167.483 167.272 166.095 168.718 
165.849 164.852 167.257 168.944 164.663 163.682 165.867 167.55 169.31 
163.581 162.501 164.733 166.243 168.017 169.744 162.478 161.542 163.677 
165.093 166.738 168.521 170.302 161.539 160.914 162.591 163.987 165.515 
167.248 169.139 170.958 160.882 160.463 161.663 162.937 164.44 166.123 
168.046 169.957 171.666 160.45 160.09 161.054 162.129 163.576 165.267 
167.19 169.131 170.865 172.406 160.041 160.594 160.407 161.344 161.52 
161.509 162.778 163.151 162.603 162.866 164.548 164.811 164.307 164.25 
164.609 166.471 166.677 166.33 166.148 166.21 166.629 168.603 168.91 
168.416 168.109 167.883 168.139 168.655 170.518 170.839 170.287 169.909 
169.39 169.347 169.895 170.468 171.851 172.106 171.683 171.452 170.961 
170.63 170.964 171.629 172.106 172.975 173.169 172.841 172.721 172.45 
172.146 172.24 172.768 173.296 173.604 175.058 174.87 176.281 174.534 
176.025 177.379 174.023 175.635 177.09 178.504 173.592 175.134 176.734 
178.367 179.738 173.55 174.758 176.286 178.141 179.736 180.85 173.819 
174.865 176.06 177.788 179.553 180.795 181.822 174.096 175.365 176.412 
177.683 179.28 180.624 181.678 182.833 174.278 175.796 176.97 177.914 
179.147 180.458 181.522 182.562 183.752 174.412 175.965 177.221 178.033 
179.01 180.282 181.381 182.278 183.267 184.365 176.133 177.416 177.26 
178.583 178.573 178.378 179.727 179.739 179.654 179.484 180.871 180.846 
180.789 180.678 180.508 182.027 182.065 181.96 181.839 181.652 181.342 
183.272 183.471 183.302 183.036 182.842 182.517 182.074 184.411 184.812 
184.676 184.209 183.889 183.667 183.279 182.822 185.156 185.715 185.726 
185.243 184.768 184.544 184.312 183.936 183.519 185.252 186.001 185.892 
186.376 186.175 186.308 186.496 186.4 186.466 186.057 186.985 187.07 
186.803 186.352 185.612 187.939 187.992 187.681 187.104 186.252 185.34 
188.729 188.784 188.479 187.914 187.045 186.027 185.121 189.482 189.899 
188.871 188.189 187.434 186.53 185.607 184.79 190.813 191.537 189.612 
188.448 187.583 186.805 185.967 185.179 184.401 192.31 192.939 190.885 
189.3 188.107 187.224 186.363 185.531 184.769 183.967 184.066 184.901 
183.728 184.645 183.59 185.594 184.658 183.664 185.474 185.975 184.668 
183.588 185.504 185.979 186.404 184.298 183.229 185.258 185.99 186.611 
187.242 183.832 182.913 184.712 185.64 186.674 187.468 188.079 183.607 
182.734 184.386 185.21 186.362 187.454 188.153 188.95 183.4 182.482 
184.259 185.039 186.018 187.166 188.091 189.064 190.398 183.024 182.111 
183.972 184.851 185.749 186.811 187.86 188.93 190.392 191.984 174.087 
175.609 175.168 176.694 176.265 177.024 177.498 177.23 177.636 177.839 
178.241 178.09 178.223 178.304 178.667 179.142 178.962 179.242 179.357 
179.648 180.039 180.091 179.86 180.352 180.685 180.977 181.182 181.327 
180.965 180.708 181.205 181.57 181.938 182.07 182.093 182.184 181.764 
181.454 181.97 182.21 182.57 182.774 182.738 182.787 183.027 172.69 
173.457 172.118 172.836 171.273 174.422 172.226 170.237 173.768 175.576 
171.597 169.269 173.327 174.963 176.736 170.858 168.471 172.902 174.544 
176.228 177.779 170.089 167.866 172.311 174.145 175.802 177.396 178.753 
169.526 167.534 171.724 173.709 175.44 177.045 178.477 179.694 169.25 
167.488 171.279 173.248 175.056 176.736 178.224 179.481 180.546 169.188 
167.627 170.967 172.74 174.505 176.294 177.925 179.263 180.353 181.284 