# vtk DataFile Version 4.0
vtk output
ASCII
DATASET POLYDATA
POINTS 1002 float
-120.827 -111.804 48.5009 -120.475 -110.852 47.4885 -120.141 -110.994 47.8887 
-120.461 -111.952 49.1079 -119.707 -111.155 48.5228 -121.179 -112.909 49.7007 
-119.999 -112.258 49.826 -119.222 -111.486 49.2389 -120.76 -113.146 50.4657 
-121.378 -114.216 51.0247 -119.544 -112.781 50.5566 -118.812 -111.986 49.9951 
-120.332 -113.582 51.2415 -120.977 -114.573 51.868 -121.491 -115.657 52.41 
-119.173 -113.319 51.4247 -118.436 -112.528 50.8721 -119.958 -114.115 52.1027 
-120.655 -115.049 52.7622 -121.149 -116.14 53.2981 -121.718 -117.043 53.9279 
-118.809 -113.817 52.4482 -118.063 -113.069 51.8473 -119.571 -114.645 53.134 
-120.308 -115.557 53.8348 -120.829 -116.659 54.3605 -121.311 -117.624 54.9296 
-121.98 -118.246 55.7039 -118.477 -114.401 53.4989 -117.811 -113.648 52.8535 
-119.117 -115.344 54.1348 -119.803 -116.234 54.8928 -120.379 -117.211 55.5493 
-120.842 -118.189 56.1121 -121.418 -118.889 56.7985 -122.067 -119.424 57.4754 
-118.215 -115.096 54.5437 -117.639 -114.345 53.8399 -118.681 -116.174 55.0933 
-119.202 -117.148 55.7678 -119.766 -117.967 56.5551 -120.279 -118.815 57.2493 
-120.818 -119.545 57.8989 -121.416 -120.137 58.4765 -121.97 -120.709 58.8663 
-117.887 -115.905 55.5164 -117.373 -115.211 54.7528 -118.247 -116.953 56.0995 
-118.618 -117.982 56.6983 -119.095 -118.783 57.4547 -119.618 -119.563 58.2061 
-120.175 -120.298 58.856 -120.75 -120.888 59.3894 -121.286 -121.434 59.7458 
-121.787 -121.93 59.9786 -117.427 -116.786 56.3673 -116.997 -116.145 55.6138 
-117.739 -117.69 57.0326 -118.059 -118.623 57.6968 -118.475 -119.404 58.4384 
-118.937 -120.211 59.1431 -119.458 -121.031 59.734 -120.045 -121.637 60.2418 
-120.597 -122.107 60.6229 -121.095 -122.548 60.8765 -121.606 -122.887 61.094 
-119.956 -110.021 46.7464 -119.513 -110.196 47.1684 -119.264 -109.089 46.09 
-118.679 -109.328 46.545 -118.338 -108.016 45.5508 -118.987 -110.348 47.8413 
-117.751 -108.297 46.0455 -117.538 -106.805 45.095 -118.117 -109.503 47.2054 
-118.497 -110.63 48.6048 -117.078 -107.064 45.7288 -117.073 -105.571 44.8135 
-117.256 -108.564 46.7036 -117.645 -109.804 47.9665 -118.064 -111.151 49.4161 
-116.477 -105.901 45.5679 -116.438 -104.618 44.6781 -116.543 -107.492 46.4491 
-116.777 -108.99 47.4717 -117.137 -110.43 48.795 -117.578 -111.855 50.2946 
-115.523 -105.15 45.337 -115.435 -104.014 44.5328 -115.702 -106.549 46.2137 
-115.973 -108.086 47.1649 -116.228 -109.683 48.2971 -116.586 -111.291 49.6409 
-117.174 -112.587 51.2104 -114.608 -104.605 45.1972 -114.622 -103.43 44.5942 
-114.764 -105.885 45.9306 -115.116 -107.29 46.8442 -115.445 -108.826 47.9597 
-115.729 -110.551 49.1552 -116.233 -112.151 50.5108 -116.979 -113.307 52.1652 
-114.207 -103.969 45.577 -114.255 -102.793 45.1414 -114.226 -105.219 46.1067 
-114.399 -106.608 46.7778 -114.702 -108.097 47.7563 -115.042 -109.693 48.9313 
-115.462 -111.417 50.1036 -116.091 -112.949 51.4826 -116.831 -114.116 53.152 
-114.043 -103.419 46.4109 -114.022 -102.38 46.0302 -114.062 -104.511 46.8681 
-114.063 -105.818 47.3161 -114.162 -107.389 47.9404 -114.468 -108.969 48.9225 
-114.908 -110.528 50.0422 -115.404 -112.212 51.1808 -116.003 -113.786 52.5659 
-116.608 -115.048 54.1556 -113.649 -102.874 47.2605 -113.754 -103.787 47.7254 
-113.049 -103.435 48.54 -113.297 -104.247 48.9244 -112.554 -104.023 49.6317 
-113.85 -104.819 48.1543 -113.126 -105.002 49.9065 -112.71 -104.946 50.6976 
-113.652 -105.361 49.2757 -113.905 -106.325 48.5367 -113.489 -106.232 51.2921 
-113.38 -106.159 52.2704 -113.811 -106.376 50.4814 -113.989 -107.1 49.7946 
-114.113 -108.151 49.208 -113.995 -107.58 53.2288 -114.107 -107.226 54.0709 
-114.139 -107.781 52.2744 -114.311 -108.18 51.3925 -114.41 -108.973 50.694 
-114.569 -109.795 50.2598 -114.699 -108.942 54.6295 -115.026 -108.513 55.1269 
-114.574 -109.303 53.9631 -114.624 -109.556 53.1756 -114.795 -110.004 52.3849 
-114.928 -110.692 51.7891 -115.07 -111.476 51.3945 -115.77 -110.767 55.1953 
-116.146 -110.508 55.5187 -115.458 -111.066 54.8691 -115.203 -111.272 54.513 
-115.167 -111.56 53.9854 -115.278 -112.085 53.415 -115.35 -112.77 52.9637 
-115.538 -113.413 52.6489 -116.633 -112.831 55.9109 -116.987 -112.669 56.142 
-116.3 -113.007 55.7596 -115.888 -113.158 55.7245 -115.519 -113.441 55.5362 
-115.411 -113.952 55.1216 -115.483 -114.524 54.7137 -115.65 -114.96 54.3857 
-116.03 -115.134 54.1697 -116.924 -114.488 57.1775 -117.348 -114.326 57.248 
-116.523 -114.647 57.1677 -116.066 -114.796 57.2816 -115.523 -115.079 57.2678 
-115.148 -115.612 56.9292 -115.167 -116.182 56.5154 -115.466 -116.512 56.2137 
-115.895 -116.559 55.937 -116.427 -116.395 55.7114 -116.79 -117.42 57.0027 
-116.211 -117.62 57.3152 -116.453 -118.658 58.4926 -115.575 -117.758 57.6462 
-115.843 -118.724 58.9194 -116.197 -119.792 60.075 -114.915 -117.736 57.8707 
-115.078 -118.773 59.155 -115.553 -119.862 60.4259 -116.034 -120.959 61.7214 
-114.509 -117.396 58.1761 -114.336 -118.688 59.244 -114.78 -119.919 60.4961 
-115.316 -121.21 61.9788 -115.641 -122.206 63.3804 -114.706 -116.818 58.688 
-114.164 -118.313 59.6215 -114.266 -119.703 60.6648 -114.583 -121.21 62.1866 
-114.808 -122.504 63.6935 -114.989 -123.394 64.9084 -115.344 -116.358 58.9876 
-114.725 -117.876 60.165 -114.501 -119.28 61.1858 -114.3 -120.722 62.7046 
-114.136 -122.229 64.2106 -114.238 -123.494 65.324 -114.482 -124.43 66.2819 
-115.983 -116.096 58.8873 -115.493 -117.59 60.3276 -115.26 -119.039 61.5396 
-114.742 -120.264 63.1945 -114.062 -121.555 64.8497 -113.89 -122.994 65.922 
-114.05 -124.264 66.8328 -114.181 -125.23 67.7864 -116.541 -115.881 58.7091 
-116.144 -117.321 60.1701 -115.983 -118.879 61.4645 -115.534 -120.141 63.1745 
-114.662 -121.169 65.0556 -114.181 -122.41 66.3313 -114.173 -123.715 67.3268 
-114.06 -124.799 68.4997 -113.885 -125.661 69.5207 -117.11 -115.679 58.6038 
-116.769 -117.04 59.9813 -116.579 -118.591 61.2464 -116.262 -119.984 62.8431 
-115.533 -121.008 64.7676 -114.924 -122.086 66.2823 -114.758 -123.276 67.4236 
-114.512 -124.228 68.7942 -114.007 -124.987 70.208 -113.692 -125.729 71.1149 
-117.098 -118.216 57.7332 -116.792 -119.523 59.2892 -117.428 -119.098 58.5086 
-116.667 -120.673 61.0395 -117.274 -120.338 60.2111 -117.874 -119.873 59.3645 
-116.433 -121.824 62.8691 -117.159 -121.549 62.0233 -117.767 -121.182 61.0891 
-118.323 -120.713 60.1301 -115.827 -123.035 64.5883 -116.699 -122.782 63.862 
-117.471 -122.582 62.7941 -118.107 -122.188 61.7256 -118.756 -121.665 60.705 
-115.19 -124.245 66.0262 -116.046 -123.953 65.5458 -116.925 -123.779 64.5842 
-117.761 -123.457 63.3983 -118.558 -122.936 62.285 -119.338 -122.347 61.2236 
-114.749 -125.326 67.3636 -115.594 -125.057 66.8885 -116.484 -124.762 66.1792 
-117.42 -124.41 65.1545 -118.401 -123.841 64.0302 -119.274 -123.282 62.8721 
-119.987 -122.76 61.6846 -114.317 -126.072 68.9313 -115.221 -125.996 68.1727 
-116.211 -125.669 67.4056 -117.159 -125.332 66.5568 -118.222 -124.782 65.604 
-119.246 -124.106 64.5438 -119.992 -123.608 63.2961 -120.558 -123.154 61.9962 
-113.953 -126.387 70.5812 -114.816 -126.589 69.6622 -115.92 -126.373 68.6426 
-116.922 -126.131 67.652 -117.954 -125.796 66.7093 -119.085 -125.128 65.8039 
-120.001 -124.442 64.7635 -120.607 -123.962 63.5014 -121.108 -123.485 62.2125 
-113.867 -126.122 72.0948 -114.413 -126.758 71.3976 -114.742 -126.457 72.5232 
-115.486 -126.874 71.8213 -116.246 -126.592 72.5151 -115.494 -126.798 70.3158 
-117.061 -126.72 71.8442 -118.129 -126.505 72.3119 -116.615 -126.741 70.6676 
-116.661 -126.601 69.0333 -118.957 -126.57 71.5273 -120.099 -126.426 72.0086 
-118.199 -126.629 70.5327 -117.806 -126.697 69.0831 -117.743 -126.497 67.726 
-120.754 -126.651 71.0061 -121.662 -126.453 71.4504 -119.995 -126.776 70.0368 
-119.4 -126.836 68.7368 -118.979 -126.656 67.5243 -118.92 -126.068 66.6309 
-122.132 -126.803 70.2152 -122.817 -126.48 70.5013 -121.494 -127.064 69.4054 
-120.966 -127.158 68.26 -120.46 -126.78 67.178 -120.122 -126.081 66.3773 
-120.038 -125.273 65.682 -123.45 -126.87 69.1969 -124.072 -126.475 69.4827 
-122.761 -127.129 68.5672 -122.19 -127.326 67.672 -121.734 -127.034 66.7447 
-121.342 -126.186 65.9959 -121.055 -125.307 65.3713 -120.825 -124.602 64.5741 
-124.866 -126.829 68.3292 -125.357 -126.387 68.7376 -124.145 -126.971 67.674 
-123.396 -127.082 66.889 -122.819 -127.036 66.0964 -122.402 -126.437 65.4142 
-122.063 -125.484 64.874 -121.731 -124.673 64.2373 -121.387 -124.073 63.2939 
-125.949 -126.575 67.673 -126.225 -126.094 68.1049 -125.403 -126.7 66.9606 
-124.662 -126.682 66.1257 -123.953 -126.667 65.3408 -123.396 -126.395 64.6986 
-122.975 -125.664 64.2253 -122.626 -124.765 63.7603 -122.261 -124.049 63.0235 
-121.892 -123.49 62.0373 -113.937 -125.097 71.8941 -114.345 -125.364 72.7078 
-114.668 -124.422 72.0295 -115.408 -124.493 72.6701 -115.724 -123.998 71.5291 
-115.578 -125.678 72.8604 -116.73 -123.922 72.158 -116.979 -123.889 70.569 
-116.891 -124.642 72.8321 -117.391 -125.856 72.7164 -118.07 -123.839 71.1394 
-118.309 -123.798 69.3047 -118.225 -123.89 72.5128 -118.789 -124.736 72.8606 
-119.475 -125.881 72.5521 -119.278 -123.805 69.635 -119.393 -123.288 68.0953 
-119.379 -123.789 71.3701 -119.944 -123.904 72.5564 -120.764 -124.868 72.6721 
-121.342 -125.93 72.1885 -120.188 -123.202 68.2672 -120.133 -122.393 67.154 
-120.349 -123.721 69.5831 -120.78 -123.741 71.119 -121.537 -124.084 72.0323 
-122.211 -125.059 71.9283 -122.546 -125.94 71.3318 -120.914 -122.256 67.2373 
-120.828 -121.62 66.1296 -121.156 -122.995 68.1461 -121.51 -123.466 69.2613 
-122.029 -123.711 70.4545 -122.647 -124.232 70.9521 -123.146 -125.028 70.7172 
-123.578 -125.822 70.1973 -121.667 -121.566 66.0463 -121.606 -121.119 64.8138 
-121.911 -122.074 67.0465 -122.251 -122.637 67.897 -122.631 -123.135 68.8356 
-123.132 -123.572 69.5638 -123.714 -124.067 69.7548 -124.282 -124.776 69.6206 
-124.854 -125.666 69.306 -122.393 -121.058 64.6421 -122.299 -120.562 63.5318 
-122.638 -121.461 65.7431 -122.977 -121.85 66.687 -123.324 -122.312 67.5318 
[...]
CELL_DATA 2000
SCALARS Distance double
LOOKUP_TABLE default
169.836 169.823 170.224 171.055 169.87 170.249 171.114 171.519 172.411 
170.064 170.383 171.293 171.647 172.579 172.939 173.848 170.387 170.667 
171.607 171.914 172.886 173.198 174.152 174.443 175.362 170.763 171.031 
171.984 172.279 173.274 173.574 174.561 174.827 175.765 176.008 176.908 
171.226 171.45 172.425 172.691 173.701 173.989 174.987 175.26 176.197 
176.436 177.316 177.544 178.379 171.816 171.984 172.971 173.188 174.196 
174.442 175.423 175.68 176.607 176.852 177.717 177.942 178.755 178.964 
179.713 172.466 172.609 173.561 173.756 174.714 174.937 175.861 176.1 
176.991 177.241 178.098 178.33 179.127 179.328 180.053 180.229 180.873 
173.09 173.226 174.102 174.294 175.172 175.397 176.247 176.487 177.321 
177.585 178.417 178.679 179.461 179.677 180.369 180.544 181.155 181.308 
181.852 169.081 167.897 168.683 169.036 166.528 167.427 167.797 168.62 
169.028 165.047 165.995 166.418 167.322 167.756 168.639 169.162 163.697 
164.559 165.022 165.933 166.415 167.335 167.893 168.837 169.458 162.52 
163.294 163.734 164.6 165.111 166.015 166.593 167.551 168.21 169.173 
169.834 161.361 162.109 162.493 163.344 163.848 164.75 165.329 166.268 
166.937 167.92 168.641 169.591 170.296 160.319 160.971 161.346 162.119 
162.629 163.507 164.109 165.03 165.705 166.673 167.434 168.418 169.205 
170.132 170.894 159.637 160.115 160.548 161.127 161.661 162.39 163.031 
163.872 164.582 165.494 166.278 167.249 168.093 169.065 169.903 170.805 
171.584 159.327 159.668 160.156 160.558 161.09 161.614 162.248 162.936 
163.676 164.481 165.288 166.172 167.035 167.985 168.881 169.828 170.686 
171.539 172.285 159.405 159.786 159.807 160.217 160.126 160.164 160.61 
160.643 161.114 160.816 160.62 161.128 161.08 161.632 161.633 162.242 
162.237 161.681 162.223 161.865 162.508 162.322 163.029 162.948 163.694 
164.023 163.37 163.896 163.304 163.927 163.489 164.214 163.94 164.71 
164.545 165.333 165.827 165.183 165.728 165.095 165.663 165.087 165.733 
165.299 166.031 165.716 166.489 166.271 167.088 167.864 167.097 167.722 
166.997 167.608 166.906 167.537 166.941 167.67 167.195 167.99 167.599 
168.428 168.134 168.978 170.049 169.255 169.862 169.096 169.704 168.94 
169.548 168.846 169.549 168.968 169.772 169.269 170.092 169.642 170.446 
170.076 170.837 171.913 171.277 171.719 171.098 171.552 170.923 171.371 
170.758 171.268 170.759 171.396 170.989 171.689 171.296 171.973 171.574 
172.209 171.843 172.437 173.31 173.141 173.648 174.463 172.934 173.467 
174.268 174.757 175.548 172.625 173.192 173.939 174.481 175.261 175.839 
176.702 172.299 172.827 173.511 174.055 174.814 175.477 176.401 177.048 
177.939 172.185 172.58 173.27 173.673 174.423 175.019 175.98 176.699 
177.663 178.255 179.027 172.319 172.624 173.399 173.65 174.444 174.814 
175.743 176.314 177.274 177.904 178.723 179.253 179.933 172.508 172.828 
173.665 173.931 174.804 175.066 175.959 176.268 177.121 177.557 178.372 
178.908 179.671 180.167 180.852 172.678 173.013 173.859 174.19 175.105 
175.454 176.365 176.609 177.376 177.58 178.325 178.68 179.497 179.953 
180.718 181.122 181.741 172.873 173.197 174.04 174.366 175.265 175.672 
176.602 176.946 177.716 177.902 178.584 178.803 179.59 179.929 180.716 
181.05 181.667 181.955 182.423 173.691 174.838 174.405 174.679 175.977 
175.561 175.877 175.429 175.729 177.197 176.763 177.136 176.666 176.991 
176.502 176.795 178.422 178.026 178.438 177.982 178.342 177.821 178.127 
177.589 177.875 179.471 179.182 179.597 179.247 179.634 179.185 179.501 
178.963 179.245 178.694 178.972 180.39 180.154 180.581 180.312 180.715 
180.386 180.713 180.277 180.534 180.04 180.287 179.77 179.996 181.307 
181.078 181.529 181.269 181.679 181.394 181.744 181.392 181.658 181.236 
181.464 181.01 181.214 180.718 180.874 182.14 181.974 182.414 182.197 
182.588 182.329 182.682 182.382 182.688 182.316 182.568 182.138 182.346 
181.876 182.028 181.523 181.629 182.779 182.709 183.132 183.003 183.369 
183.172 183.495 183.265 183.578 183.302 183.577 183.215 183.422 182.983 
183.126 182.64 182.734 182.228 182.298 183.211 184.06 183.63 183.621 
185.015 184.529 184.479 184 183.877 185.999 185.468 185.342 184.838 
184.668 184.186 184.002 187.029 186.434 186.25 185.688 185.492 184.975 
184.792 184.301 184.108 187.991 187.451 187.259 186.653 186.459 185.859 
185.66 185.109 184.905 184.394 184.139 188.626 188.284 188.13 187.645 
187.466 186.886 186.638 186.012 185.712 185.156 184.851 184.345 183.99 
189.081 188.824 188.72 188.368 188.188 187.772 187.497 186.943 186.536 
185.93 185.514 184.99 184.597 184.103 183.678 189.592 189.339 189.247 
188.885 188.645 188.3 187.999 187.612 187.192 186.67 186.174 185.623 
185.164 184.662 184.217 183.728 183.269 189.916 189.807 189.675 189.369 
189.031 188.67 188.287 187.961 187.553 187.172 186.682 186.207 185.691 
185.199 184.709 184.229 183.75 183.279 182.814 183.083 183.114 183.343 
183.899 183.21 183.384 183.965 184.252 184.898 183.467 183.545 184.104 
184.349 185.075 185.338 185.985 183.819 183.876 184.391 184.541 185.248 
185.537 186.322 186.508 187.115 183.951 184.172 184.659 184.822 185.418 
185.695 186.472 186.81 187.532 187.652 188.105 183.659 184.093 184.58 
184.924 185.42 185.752 186.364 186.809 187.469 187.855 188.304 188.435 
188.662 183.185 183.655 184.132 184.622 185.089 185.542 186.013 186.504 
186.994 187.516 187.906 188.308 188.556 188.779 188.999 182.816 183.204 
183.652 184.11 184.566 185.056 185.493 185.996 186.41 186.918 187.276 
187.742 188.053 188.464 188.803 189.115 189.45 182.485 182.861 183.274 
183.677 184.105 184.537 184.959 185.425 185.845 186.327 186.724 187.166 
187.531 187.951 188.345 188.785 189.183 189.536 189.787 173.283 174.339 
174.036 174.468 175.468 175.149 175.639 175.261 175.732 176.634 176.324 
176.867 176.501 176.991 176.599 177.063 177.768 177.484 178.021 177.713 
178.184 177.827 178.225 177.851 178.16 178.823 178.571 179.096 178.831 
179.309 178.97 179.354 178.965 179.283 178.852 179.089 179.796 179.572 
180.108 179.885 180.416 180.106 180.537 180.124 180.498 180.046 180.39 
179.865 180.146 180.683 180.491 180.994 180.835 181.381 181.184 181.65 
181.313 181.666 181.264 181.587 181.165 181.444 180.95 181.181 181.44 
181.3 181.733 181.618 182.113 182.034 182.514 182.327 182.648 182.324 
182.519 182.184 182.341 182.021 182.156 181.809 181.961 182.047 181.968 
182.36 182.265 182.701 182.664 183.151 183.081 183.445 183.2 183.352 
182.996 183.053 182.733 182.811 182.553 182.681 182.436 182.61 172.618 
171.782 172.731 173.698 170.837 171.87 172.964 173.843 174.803 170.005 
170.987 172.155 173.099 174.182 175.006 175.982 169.331 170.249 171.453 
172.375 173.559 174.422 175.521 176.257 177.193 168.767 169.63 170.858 
171.762 172.974 173.848 174.998 175.809 176.826 177.475 178.302 168.378 
169.125 170.341 171.211 172.399 173.258 174.342 175.208 176.229 177.036 
177.934 178.552 179.297 168.184 168.797 169.929 170.726 171.882 172.686 
173.697 174.494 175.454 176.322 177.283 178.088 178.942 179.533 180.224 
168.099 168.606 169.608 170.319 171.425 172.191 173.199 173.902 174.82 
175.575 176.545 177.384 178.337 179.089 179.878 180.422 181.021 168.083 
168.498 169.386 169.989 171.018 171.742 172.757 173.447 174.371 175.042 
175.978 176.726 177.681 178.452 179.292 179.966 180.625 181.136 181.635 
168.361 169.255 169.052 169.662 170.322 170.059 170.707 170.512 171.264 
171.512 171.208 171.864 171.626 172.359 172.192 172.96 172.809 172.452 
173.089 172.805 173.501 173.293 174.035 173.869 174.59 174.216 173.81 
174.439 174.074 174.756 174.467 175.217 174.993 175.765 175.527 176.244 
175.622 175.241 175.874 175.478 176.154 175.796 176.546 176.256 177.043 
176.775 177.515 177.223 177.911 176.89 176.589 177.219 176.885 177.535 
177.2 177.901 177.606 178.327 178.054 178.723 178.452 179.07 178.822 
179.432 178.018 177.778 178.4 178.142 178.766 178.493 179.131 178.875 
179.519 179.266 179.858 179.587 180.126 179.88 180.42 180.22 180.74 
179.07 178.86 179.482 179.262 179.877 179.639 180.239 180.003 180.599 
180.371 180.943 180.682 181.203 180.918 181.413 181.162 181.633 181.411 
181.795 179.858 181.245 180.463 180.298 182.633 181.872 181.695 180.903 
180.703 183.888 183.197 183.026 182.286 182.075 181.284 181.059 185.028 
184.374 184.2 183.543 183.359 182.632 182.411 181.629 181.405 186.117 
185.489 185.317 184.682 184.528 183.863 183.689 182.965 182.761 181.983 
181.749 187.155 186.584 186.477 185.838 185.71 185.035 184.876 184.195 
184.025 183.314 183.092 182.305 182.019 188.15 187.637 187.591 187.001 
186.875 186.222 186.008 185.336 185.103 184.471 184.241 183.573 183.279 
182.513 182.192 189.057 188.612 188.502 187.995 187.771 187.241 186.934 
186.353 185.993 185.414 185.085 184.543 184.23 183.634 183.293 182.617 
182.308 189.68 189.369 189.123 188.701 188.321 187.898 187.501 187.067 
186.655 186.162 185.749 185.251 184.881 184.401 184.047 183.534 183.189 
182.64 182.348 179.841 180.225 180.444 181.242 180.511 180.829 181.712 
181.907 182.67 180.687 181.085 182.072 182.382 183.251 183.344 183.998 
180.843 181.248 182.309 182.736 183.776 183.98 184.769 184.693 185.236 
180.993 181.39 182.437 182.951 184.123 184.521 185.499 185.542 186.163 
185.932 186.353 181.059 181.475 182.435 183.001 184.148 184.755 185.822 
186.168 186.854 186.805 187.164 186.942 187.277 181.021 181.458 182.329 
182.891 183.9 184.592 185.578 186.2 186.887 187.194 187.521 187.54 
187.794 187.753 188.144 180.887 181.346 182.144 182.689 183.563 184.212 
185.06 185.734 186.388 186.917 187.293 187.59 187.864 188.05 188.452 
188.586 189.038 180.651 181.128 181.841 182.397 183.168 183.788 184.538 
185.161 185.798 186.35 186.824 187.237 187.607 187.938 188.369 188.697 
189.182 189.389 189.718 179.042 177.933 178.789 179.368 176.712 177.628 
178.173 179.058 179.597 175.279 176.304 176.842 177.795 178.303 179.221 
179.737 173.672 174.743 175.261 176.334 176.858 177.874 178.421 179.367 
179.912 172.098 173.095 173.554 174.648 175.183 176.32 176.94 178.025 
178.646 179.588 180.122 170.606 171.532 171.953 172.977 173.517 174.629 
175.28 176.454 177.149 178.256 178.852 179.777 180.232 169.172 170.041 
170.457 171.443 172.03 173.079 173.746 174.835 175.517 176.657 177.297 
178.385 178.9 179.822 180.212 167.927 168.686 169.109 170.012 170.632 
171.663 172.377 173.411 174.063 175.08 175.676 176.753 177.321 178.38 
178.852 179.763 180.112 166.93 167.597 168.052 168.806 169.396 170.319 
171.024 172.05 172.715 173.694 174.241 175.206 175.74 176.778 177.318 
178.334 178.774 179.642 179.94 166.565 166.511 166.942 167.762 166.526 
166.958 167.84 168.213 169.093 166.656 167.02 167.925 168.313 169.225 
169.633 170.64 167.024 167.252 168.132 168.44 169.356 169.753 170.764 
171.243 172.291 167.523 167.706 168.564 168.761 169.65 169.937 170.919 
171.349 172.395 172.857 173.828 167.944 168.175 169.038 169.244 170.111 
170.32 171.25 171.562 172.576 172.978 173.984 174.371 175.319 168.343 
168.551 169.411 169.667 170.55 170.788 171.687 171.94 172.898 173.221 
174.227 174.587 175.586 175.93 176.892 168.871 168.984 169.816 170.035 
170.934 171.193 172.096 172.352 173.265 173.557 174.527 174.873 175.876 
176.229 177.193 177.511 178.378 169.501 169.556 170.352 170.499 171.382 
171.599 172.491 172.731 173.611 173.89 174.82 175.165 176.145 176.51 
177.445 177.774 178.591 178.876 179.57 170.104 171.365 170.802 170.996 
172.733 172.152 172.383 171.791 172.03 174.146 173.558 173.814 173.221 
173.461 172.862 173.107 175.64 175.018 175.308 174.692 174.968 174.33 
174.579 173.955 174.219 177.184 176.563 176.887 176.255 176.594 175.923 
176.24 175.534 175.843 175.153 175.475 178.648 178.089 178.405 177.825 
178.164 177.566 177.924 177.268 177.62 176.901 177.239 176.503 176.828 
179.966 179.486 179.783 179.261 179.549 179.032 179.357 178.847 179.187 
178.616 178.913 178.256 178.513 177.822 178.073 181.116 180.725 181.031 
180.568 180.847 180.349 180.648 180.172 180.493 180.018 180.285 179.751 
179.938 179.356 179.524 178.931 179.12 182.091 181.79 182.114 181.746 
182.05 181.612 181.918 181.451 181.768 181.286 181.55 181.025 181.197 
180.644 180.778 180.24 180.393 179.866 180.031 180.692 181.069 181.203 
181.875 181.46 181.597 182.326 182.47 183.207 181.903 182.031 182.78 
182.939 183.723 183.848 184.559 182.308 182.488 183.242 183.405 184.195 
184.354 185.095 185.175 185.791 182.559 182.835 183.584 183.811 184.568 
184.788 185.555 185.702 186.344 186.353 186.833 182.683 183.008 183.735 
184.036 184.744 185.049 185.799 186.085 186.78 186.892 187.391 187.324 
187.685 182.754 183.082 183.775 184.105 184.778 185.116 185.813 186.191 
186.881 187.184 187.737 187.833 188.246 188.166 188.519 182.76 183.097 
183.746 184.096 184.744 185.097 185.746 186.124 186.754 187.133 187.679 
187.98 188.443 188.613 189.035 189.021 189.356 182.69 183.035 183.63 
184.004 184.603 184.993 185.591 185.992 186.567 186.951 187.447 187.796 
188.228 188.574 188.995 189.286 189.629 189.714 189.869 158.848 159.19 
158.743 158.327 159.943 159.292 158.856 158.337 158.072 161.028 160.262 
159.846 159.09 158.747 158.248 158.282 162.181 161.438 161.116 160.29 
159.989 159.203 159.186 158.765 159.211 163.334 162.593 162.386 161.653 
161.561 160.724 160.778 160.026 160.391 159.997 160.626 164.692 163.841 
163.681 162.967 163.052 162.38 162.584 161.819 162.077 161.4 161.79 
161.41 161.915 166.233 165.346 165.205 164.391 164.487 163.862 164.132 
163.527 163.739 163.053 163.227 162.64 162.942 162.597 163.066 167.66 
166.895 166.794 165.992 166.046 165.354 165.583 164.986 165.203 164.561 
164.701 164.052 164.284 163.761 164.182 163.832 164.389 168.873 168.238 
168.182 167.504 167.552 166.898 167.082 166.459 166.67 166.011 166.182 
165.513 165.759 165.179 165.581 165.108 165.605 165.237 165.766 158.647 
158.11 158.325 158.378 157.893 157.942 158.079 158.299 158.649 158.204 
157.991 158.209 158.249 158.744 158.924 159.522 159.185 158.66 158.909 
158.67 159.195 159.228 159.908 160.023 160.654 160.572 159.917 160.122 
159.639 160.081 159.875 160.512 160.512 161.155 161.182 161.765 161.856 
161.297 161.467 160.948 161.288 160.904 161.438 161.253 161.874 161.777 
162.378 162.339 163.002 163.023 162.496 162.703 162.233 162.553 162.127 
162.566 162.261 162.82 162.62 163.223 163.078 163.742 163.705 164.469 
164.331 163.731 163.98 163.479 163.833 163.376 163.768 163.383 163.85 
163.593 164.153 163.984 164.613 164.515 165.213 165.204 165.923 165.686 
165.098 165.344 164.825 165.189 164.698 165.073 164.6 164.989 164.625 
165.114 164.9 165.488 165.369 165.998 165.939 166.57 166.562 167.164 
158.999 158.695 158.994 159.379 158.855 158.824 159.087 159.343 159.712 
159.615 159.223 159.328 159.224 159.541 159.772 160.382 160.705 160.166 
160.22 159.774 160.046 159.916 160.583 160.817 161.807 161.85 161.318 
161.473 160.914 161.241 160.819 161.487 161.38 162.353 162.545 163.628 
163.144 162.566 162.856 162.295 162.736 162.242 162.913 162.581 163.442 
163.321 164.275 164.391 165.43 164.643 164.021 164.368 163.782 164.25 
163.765 164.418 164.061 164.849 164.563 165.405 165.239 166.217 166.293 
167.456 166.094 165.549 165.893 165.334 165.756 165.258 165.843 165.488 
166.248 165.967 166.8 166.525 167.459 167.317 168.447 168.51 169.713 
167.331 166.901 167.254 166.791 167.214 166.738 167.289 166.891 167.622 
167.334 168.181 167.928 168.834 168.64 169.661 169.609 170.698 170.738 
171.71 178.577 177.501 177.85 177.46 176.331 176.703 176.241 176.65 
176.207 175.03 175.439 174.89 175.321 174.792 175.269 174.749 173.621 
174.053 173.471 173.899 173.307 173.768 173.215 173.718 173.177 172.206 
172.613 172.041 172.466 171.889 172.301 171.744 172.196 171.699 172.176 
171.674 170.884 171.222 170.631 171.044 170.485 170.906 170.352 170.778 
170.283 170.751 170.292 170.737 170.236 169.69 169.948 169.315 169.66 
169.062 169.475 168.888 169.345 168.811 169.323 168.863 169.364 168.887 
169.314 168.816 168.656 168.828 168.188 168.417 167.783 168.084 167.451 
167.843 167.273 167.785 167.322 167.889 167.454 167.951 167.487 167.926 
167.524 167.798 167.891 167.264 167.39 166.754 166.919 166.281 166.513 
165.934 166.302 165.846 166.356 165.972 166.503 166.096 166.582 166.195 
166.698 166.435 
POINT_DATA 1002
SCALARS Distance double
LOOKUP_TABLE default
170.615 169.463 169.432 170.627 169.411 171.925 170.71 169.492 172.008 
173.303 170.949 169.754 172.224 173.507 174.737 171.302 170.107 172.571 
173.865 175.086 176.265 171.687 170.499 172.966 174.288 175.534 176.677 
177.786 172.167 171.014 173.424 174.717 175.962 177.101 178.173 179.183 
172.773 171.663 173.977 175.19 176.366 177.498 178.556 179.539 180.419 
173.395 172.344 174.521 175.649 176.748 177.863 178.938 179.891 180.731 
181.473 173.944 172.986 174.972 176.026 177.07 178.15 179.241 180.206 
181.014 181.724 182.362 168.35 168.268 167.074 166.94 165.572 168.185 
165.475 164.095 166.842 168.243 164.11 162.89 165.483 166.923 168.516 
162.886 161.786 164.21 165.641 167.217 168.899 161.658 160.64 162.937 
164.399 165.949 167.648 169.377 160.617 159.701 161.764 163.187 164.743 
166.425 168.232 170.009 160.029 159.183 161.002 162.22 163.688 165.318 
167.094 168.956 170.747 159.797 159.006 160.646 161.625 162.902 164.441 
166.107 167.906 169.784 171.529 159.415 160.213 159.734 160.547 160.099 
161.074 161.216 161.135 161.622 162.203 162.696 162.882 162.76 163.145 
163.742 164.535 164.656 164.461 164.564 164.936 165.455 166.359 166.467 
166.292 166.24 166.401 166.76 167.254 168.466 168.66 168.343 168.19 
168.185 168.427 168.788 169.246 170.64 170.85 170.481 170.29 170.166 
170.299 170.598 170.897 171.201 172.344 172.547 172.176 172.005 171.825 
171.818 172.077 172.4 172.628 172.801 174.148 173.999 175.245 173.779 
175.03 176.372 173.403 174.64 176.118 177.618 173.008 174.127 175.677 
177.413 178.79 172.92 173.889 175.255 177.012 178.569 179.726 173.135 
174.147 175.301 176.68 178.137 179.467 180.61 173.351 174.515 175.755 
176.828 177.861 179.123 180.427 181.524 173.52 174.71 176.094 177.25 
178.058 179.06 180.311 181.419 182.286 173.731 174.873 176.216 177.5 
178.404 179.294 180.418 181.423 182.163 182.823 175.125 176.317 176.192 
177.603 177.493 177.292 178.862 178.854 178.683 178.409 179.901 180.032 
180.022 179.802 179.528 180.838 181.009 181.11 181.013 180.793 180.545 
181.789 181.963 182.068 182.059 181.908 181.696 181.406 182.614 182.843 
182.96 183.022 182.986 182.815 182.531 182.152 183.23 183.554 183.714 
183.815 183.9 183.847 183.609 183.242 182.81 183.581 184.083 184.518 
184.99 185.54 184.367 185.877 186.582 185.162 184.481 186.848 187.66 
186.032 185.287 184.612 187.849 188.466 187.086 186.266 185.433 184.674 
188.541 188.873 188.006 187.312 186.341 185.365 184.517 189.064 189.31 
188.562 188.002 187.18 186.089 185.09 184.187 189.647 189.822 189.036 
188.343 187.657 186.744 185.693 184.71 183.757 189.956 189.974 189.428 
188.636 187.887 187.118 186.188 185.196 184.224 183.272 182.847 183.601 
182.897 183.658 183.077 184.64 183.904 183.425 184.752 185.838 184.304 
183.733 184.969 186.026 187.107 184.484 183.64 185.196 186.092 187.302 
188.192 184.161 183.179 185.099 185.97 187.035 188.075 188.65 183.629 
182.75 184.609 185.564 186.509 187.442 188.204 188.817 183.238 182.463 
184.094 184.998 185.92 186.806 187.584 188.374 189.221 182.886 182.109 
183.703 184.521 185.36 186.258 187.111 187.901 188.763 189.567 173.575 
174.805 174.639 176.006 175.763 176.11 177.207 176.937 177.391 177.476 
178.314 178.059 178.546 178.621 178.584 179.344 179.071 179.637 179.75 
179.697 179.573 180.306 180.017 180.679 180.936 180.931 180.871 180.729 
181.156 180.88 181.526 181.941 182.077 181.995 181.898 181.706 181.871 
181.574 182.179 182.638 182.968 182.904 182.664 182.465 182.302 171.736 
172.885 170.729 172 169.786 174.011 171.178 169.053 173.289 175.25 
170.52 168.424 172.663 174.73 176.588 169.949 167.931 172.108 174.156 
176.113 177.782 169.499 167.704 171.578 173.514 175.36 177.218 178.807 
169.189 167.66 171.102 172.968 174.614 176.391 178.244 179.778 168.969 
167.669 170.668 172.505 174.126 175.725 177.522 179.248 180.612 168.857 