# vtk DataFile Version 4.0
vtk output
ASCII
DATASET POLYDATA
POINTS 1002 float
-119.091 -112.649 52.0214 -118.834 -111.651 50.9503 -118.333 -111.936 51.1408 
-118.639 -112.941 52.3763 -117.879 -112.32 51.413 -119.394 -113.948 53.0722 
-118.133 -113.362 52.8284 -117.346 -112.726 51.8868 -118.865 -114.347 53.5554 
-119.441 -115.507 54.0944 -117.52 -113.854 53.4506 -116.688 -113.18 52.5623 
-118.18 -114.907 54.0981 -118.727 -116.049 54.6652 -119.151 -117.035 55.3695 
-116.911 -114.427 54.2104 -116.068 -113.766 53.3486 -117.52 -115.483 54.8082 
-117.997 -116.627 55.3608 -118.446 -117.593 56.1362 -118.896 -118.461 57.0273 
-116.413 -115.065 55.0912 -115.585 -114.436 54.2125 -117.053 -115.993 55.7734 
-117.501 -117.069 56.3844 -117.939 -118.028 57.1865 -118.383 -119.018 57.9971 
-118.817 -120.033 58.6332 -115.939 -115.701 56.0628 -115.176 -115.084 55.1481 
-116.626 -116.476 56.9108 -117.142 -117.44 57.6799 -117.573 -118.419 58.4998 
-117.981 -119.459 59.2116 -118.302 -120.636 59.6363 -118.619 -121.622 59.9773 
-115.442 -116.305 57.0337 -114.817 -115.671 56.1358 -116.072 -117.036 57.9662 
-116.649 -117.921 58.8687 -117.092 -118.968 59.6928 -117.475 -120.049 60.3561 
-117.762 -121.151 60.752 -117.97 -122.16 61.0252 -118.273 -122.854 61.4034 
-115.008 -116.874 57.9584 -114.53 -116.223 57.117 -115.496 -117.675 58.852 
-116.046 -118.556 59.7779 -116.479 -119.608 60.5884 -116.799 -120.77 61.2117 
-117.106 -121.806 61.711 -117.345 -122.643 62.141 -117.602 -123.295 62.5669 
-117.977 -123.768 63.0107 -114.65 -117.449 58.8073 -114.272 -116.802 57.9978 
-115.006 -118.315 59.6473 -115.479 -119.245 60.5554 -115.898 -120.216 61.4012 
-116.127 -121.316 62.0305 -116.36 -122.39 62.568 -116.651 -123.199 63.1569 
-116.942 -123.763 63.7183 -117.302 -124.218 64.1683 -117.717 -124.624 64.5038 
-118.346 -110.948 49.9304 -117.789 -111.333 50.0464 -117.879 -110.241 48.8589 
-117.18 -110.644 49.0117 -117.247 -109.43 47.8963 -117.209 -111.789 50.2921 
-116.347 -109.753 48.1728 -116.394 -108.534 47.0842 -116.371 -111.103 49.3397 
-116.49 -112.223 50.7941 -115.524 -108.752 47.5614 -115.628 -107.531 46.5162 
-115.529 -110.102 48.7565 -115.561 -111.527 49.9896 -115.733 -112.687 51.556 
-115.02 -107.705 47.3173 -115.142 -106.401 46.3996 -115.03 -108.986 48.4877 
-114.973 -110.478 49.6902 -114.902 -111.992 50.906 -115.13 -113.264 52.458 
-114.623 -106.64 47.4373 -114.765 -105.349 46.6807 -114.615 -107.972 48.3534 
-114.586 -109.413 49.5102 -114.361 -111.054 50.6245 -114.292 -112.612 51.8216 
-114.665 -113.929 53.3979 -114.11 -105.709 47.6142 -114.329 -104.562 47.0757 
-113.935 -107.072 48.2224 -113.85 -108.545 49.1407 -113.696 -110.176 50.2375 
-113.516 -111.879 51.3255 -113.709 -113.391 52.6847 -114.286 -114.624 54.3993 
-113.576 -105.012 47.7826 -113.816 -103.994 47.5299 -113.282 -106.314 48.1804 
-113.039 -107.765 48.8943 -112.925 -109.327 49.8738 -112.836 -111.06 50.9022 
-112.877 -112.793 52.1114 -113.326 -114.226 53.7086 -114.017 -115.3 55.4911 
-113.1 -104.508 48.1957 -113.303 -103.579 48.1609 -112.876 -105.737 48.4739 
-112.625 -107.098 49.1216 -112.509 -108.48 50.017 -112.532 -110.04 50.9254 
-112.52 -111.872 51.9241 -112.635 -113.653 53.2646 -113.146 -114.999 54.9074 
-113.823 -115.945 56.56 -112.745 -103.851 48.9982 -112.609 -104.978 49.151 
-112.387 -104.44 50.2595 -112.279 -105.679 50.7161 -112.203 -105.308 51.8846 
-112.471 -106.343 49.7189 -111.957 -106.586 52.4691 -112.055 -106.414 53.5107 
-112.157 -107.073 51.4805 -112.365 -107.687 50.6089 -111.644 -107.782 54.1065 
-111.954 -107.714 55.095 -111.73 -108.057 53.1418 -112.165 -108.42 52.3171 
-112.454 -109.051 51.4996 -111.721 -109.046 55.779 -112.133 -108.91 56.6001 
-111.584 -109.303 54.6973 -111.916 -109.525 53.8391 -112.43 -109.887 53.1242 
-112.555 -110.783 52.3702 -112.46 -110.105 57.0095 -112.848 -109.959 57.5133 
-112.304 -110.466 56.0853 -112.297 -110.838 55.2122 -112.456 -111.135 54.6604 
-112.544 -111.815 54.0859 -112.474 -112.862 53.4954 -113.603 -111.34 57.436 
-113.945 -111.295 57.8309 -113.53 -111.651 56.8059 -113.44 -112.15 56.1799 
-113.074 -112.561 55.8867 -112.637 -113.097 55.668 -112.428 -113.965 55.2616 
-112.611 -114.704 54.9367 -114.538 -113.004 57.8745 -114.839 -112.968 58.2969 
-114.41 -113.201 57.3847 -114.336 -113.615 56.9561 -113.877 -114.016 56.8378 
-113.056 -114.417 56.8862 -112.506 -115.069 56.7656 -112.613 -115.712 56.5616 
-113.175 -115.963 56.4997 -114.887 -114.676 58.9825 -115.17 -114.548 59.3069 
-114.625 -114.844 58.6306 -114.429 -115.131 58.2947 -114.065 -115.418 58.119 
-113.348 -115.665 58.1024 -112.677 -116.112 58.0476 -112.607 -116.682 57.9386 
-113.107 -116.96 57.9177 -113.751 -116.904 57.971 -114.171 -117.886 59.3279 
-113.631 -118.067 59.3469 -113.827 -119.268 60.7616 -112.983 -118.14 59.3109 
-113.227 -119.51 60.8784 -113.355 -120.711 62.3941 -112.543 -117.795 59.3537 
-112.639 -119.53 60.9488 -112.737 -120.976 62.6633 -112.928 -122.016 64.1908 
-112.668 -117.212 59.5493 -112.339 -119.054 61.1195 -112.251 -120.948 62.8903 
-112.325 -122.329 64.6158 -112.436 -123.399 65.9833 -113.213 -116.861 59.8099 
-112.483 -118.422 61.5002 -112.065 -120.395 63.2139 -111.818 -122.282 65.0035 
-111.733 -123.709 66.5116 -111.625 -124.937 67.6242 -113.723 -116.691 60.0663 
-112.87 -118.097 61.941 -112.225 -119.763 63.6576 -111.623 -121.674 65.4505 
-111.11 -123.456 67.0057 -110.802 -124.964 68.116 -110.654 -126.164 69.0073 
-114.105 -116.465 60.3024 -113.314 -117.933 62.2104 -112.624 -119.466 63.9292 
-111.885 -121.092 65.7632 -111.029 -122.721 67.4781 -110.318 -124.357 68.5742 
-109.922 -125.798 69.3689 -109.901 -126.862 70.1596 -114.495 -116.229 60.4864 
-113.812 -117.7 62.2793 -113.166 -119.262 63.9126 -112.466 -120.831 65.6874 
-111.555 -122.213 67.6161 -110.618 -123.612 68.9645 -109.848 -125.067 69.7436 
-109.419 -126.314 70.5115 -109.454 -127.309 71.2919 -114.872 -116.02 60.6271 
-114.308 -117.426 62.2536 -113.747 -118.935 63.7903 -113.136 -120.527 65.4273 
-112.296 -121.923 67.3729 -111.377 -123.191 69.0232 -110.516 -124.498 70.028 
-109.734 -125.683 70.8561 -109.248 -126.704 71.7517 -109.224 -127.687 72.4953 
-114.448 -118.747 60.2213 -114.1 -120.239 61.8072 -114.831 -119.768 61.184 
-113.665 -121.644 63.5729 -114.514 -121.274 62.9316 -115.284 -120.76 62.1973 
-113.112 -123.042 65.3462 -113.927 -122.748 64.704 -114.802 -122.276 63.9963 
-115.516 -121.746 63.0269 -112.309 -124.699 67.03 -113.047 -124.423 66.2981 
-113.984 -123.914 65.638 -114.889 -123.254 64.7939 -115.639 -122.807 63.6407 
-111.365 -126.243 68.6152 -112.081 -126.119 67.8762 -113.048 -125.69 67.0913 
-114.161 -124.904 66.3924 -115.089 -124.225 65.4573 -115.897 -123.756 64.284 
-110.612 -127.207 69.9591 -111.344 -127.299 69.4239 -112.233 -127.134 68.6244 
-113.416 -126.558 67.8431 -114.505 -125.774 67.0545 -115.382 -125.089 66.0778 
-116.219 -124.429 64.9284 -110.119 -127.813 71.0922 -110.895 -128.044 70.6746 
-111.649 -128.079 70.0238 -112.651 -127.885 69.2356 -113.792 -127.35 68.367 
-114.764 -126.592 67.4494 -115.694 -125.749 66.482 -116.601 -124.915 65.3848 
-109.742 -128.368 72.2363 -110.526 -128.738 71.7551 -111.241 -128.839 71.1144 
-112.014 -128.853 70.3699 -113.042 -128.675 69.4768 -114.093 -128.107 68.4788 
-115.088 -127.223 67.5508 -116.134 -126.242 66.6623 -117.061 -125.348 65.6476 
-109.336 -128.549 73.5645 -109.955 -129.301 73.1074 -109.702 -129.358 74.3898 
-110.372 -130.014 73.7986 -110.56 -129.765 74.7805 -110.758 -129.568 72.3692 
-111.331 -130.251 74.1315 -112.035 -129.774 74.7739 -111.254 -130.141 72.8561 
-111.532 -129.602 71.4832 -112.873 -130.283 74.0919 -113.78 -129.706 74.6321 
-112.381 -130.413 73.0752 -112.275 -130.187 71.7001 -112.49 -129.63 70.4943 
-114.506 -130.231 73.8936 -115.31 -129.534 74.4071 -113.913 -130.558 73.0388 
-113.576 -130.502 71.7719 -113.447 -130.156 70.4538 -113.619 -129.348 69.3835 
-115.949 -129.881 73.5128 -116.559 -129.173 73.854 -115.417 -130.407 72.8038 
-115.003 -130.528 71.6872 -114.687 -130.289 70.3986 -114.542 -129.653 69.2512 
-114.697 -128.555 68.3314 -117.287 -129.459 72.8375 -117.697 -128.858 73.0344 
-116.883 -129.993 72.2896 -116.447 -130.271 71.317 -115.986 -130.163 70.1753 
-115.623 -129.648 69.1386 -115.567 -128.715 68.2361 -115.811 -127.491 67.4418 
-118.525 -129.163 72.0861 -118.81 -128.615 72.262 -118.223 -129.607 71.6238 
-117.868 -129.901 70.7521 -117.421 -129.901 69.7059 -116.894 -129.498 68.8112 
-116.565 -128.7 68.053 -116.643 -127.618 67.301 -116.901 -126.431 66.5246 
-119.625 -128.759 71.424 -119.875 -128.234 71.6037 -119.306 -129.135 71.002 
-118.969 -129.387 70.2235 -118.679 -129.443 69.2426 -118.283 -129.15 68.3719 
-117.763 -128.479 67.6781 -117.491 -127.558 67.0069 -117.586 -126.518 66.2788 
-117.726 -125.495 65.4561 -109.231 -127.286 73.3055 -109.404 -127.982 74.4125 
-109.834 -126.696 73.8463 -110.178 -127.08 74.7892 -110.835 -126.161 73.8455 
-110.046 -128.582 75.0194 -111.335 -126.331 74.6692 -111.88 -125.799 73.3812 
-111.094 -127.451 75.1767 -111.344 -128.844 75.1199 -112.485 -125.916 74.2369 
-112.945 -125.324 72.726 -112.345 -126.558 75.1711 -112.591 -127.679 75.2955 
-113.132 -128.858 75.0787 -113.676 -125.441 73.4222 -114.057 -124.534 71.9476 
-113.519 -125.995 74.8602 -113.766 -126.724 75.4666 -114.339 -127.813 75.4118 
-114.893 -128.843 75.0393 -114.843 -124.753 72.1857 -115.04 -123.703 70.9654 
-114.72 -125.469 73.7492 -114.814 -126.002 74.9419 -115.332 -126.862 75.3598 
-115.958 -127.909 75.2207 -116.294 -128.691 74.6506 -115.806 -124.014 70.8671 
-115.944 -122.994 69.8568 -115.788 -124.905 72.1449 -115.825 -125.442 73.4879 
-116.186 -126.023 74.3848 -116.847 -126.934 74.7251 -117.266 -127.797 74.4917 
-117.405 -128.396 73.8077 -116.723 -123.158 69.753 -116.912 -122.226 68.8086 
-116.691 -124.159 70.7402 -116.728 -124.895 71.8677 -116.968 -125.361 72.8949 
-117.558 -125.967 73.6225 -118.109 -126.758 73.8885 -118.293 -127.486 73.5551 
-118.433 -128.11 72.8975 -117.689 -122.142 68.8014 -117.837 -121.319 67.889 
[...]
CELL_DATA 2000
SCALARS Distance double
LOOKUP_TABLE default
170.181 170.148 170.561 171.441 170.192 170.585 171.474 171.917 172.84 
170.257 170.654 171.552 171.978 172.895 173.314 174.161 170.413 170.773 
171.704 172.086 173.008 173.391 174.26 174.612 175.435 170.736 171.033 
172.005 172.317 173.266 173.576 174.489 174.791 175.692 175.985 176.882 
171.158 171.425 172.401 172.684 173.655 173.925 174.877 175.132 176.081 
176.339 177.272 177.521 178.375 171.598 171.846 172.788 173.075 174.036 
174.332 175.299 175.574 176.528 176.78 177.685 177.918 178.725 178.933 
179.624 172.056 172.267 173.165 173.437 174.379 174.69 175.65 175.962 
176.898 177.189 178.059 178.303 179.061 179.251 179.907 180.072 180.664 
172.539 172.713 173.57 173.811 174.739 175.036 175.984 176.287 177.183 
177.482 178.311 178.597 179.338 179.559 180.199 180.357 180.94 181.081 
181.632 169.429 168.329 169.028 169.367 167.152 167.902 168.226 168.991 
169.379 165.795 166.623 166.926 167.779 168.142 168.976 169.392 164.403 
165.213 165.516 166.4 166.787 167.676 168.1 168.981 169.487 163.211 
163.923 164.291 165.073 165.533 166.362 166.849 167.698 168.234 169.142 
169.771 162.238 162.87 163.277 163.986 164.474 165.238 165.752 166.533 
167.066 167.918 168.551 169.497 170.195 161.409 161.963 162.292 162.975 
163.378 164.169 164.629 165.447 165.932 166.769 167.353 168.283 169 
169.966 170.681 160.718 161.165 161.407 161.982 162.308 163.022 163.449 
164.265 164.768 165.615 166.204 167.105 167.834 168.799 169.593 170.508 
171.214 160.193 160.528 160.778 161.211 161.577 162.1 162.58 163.215 
163.807 164.543 165.226 166.04 166.82 167.714 168.564 169.478 170.281 
171.102 171.771 160.057 160.325 160.296 160.682 161.05 160.788 161.165 
161.088 161.55 162.055 161.648 161.979 161.756 162.203 162.074 162.582 
163.237 162.705 162.95 162.629 163.062 162.858 163.362 163.215 163.805 
164.622 163.987 164.207 163.702 164.117 163.797 164.356 164.125 164.741 
164.568 165.253 166.124 165.475 165.796 165.165 165.626 165.084 165.68 
165.273 165.947 165.647 166.357 166.136 166.89 167.767 167.081 167.524 
166.889 167.466 166.834 167.447 166.835 167.462 166.982 167.671 167.348 
168.101 167.864 168.643 169.586 168.855 169.327 168.684 169.296 168.713 
169.317 168.684 169.18 168.571 169.102 168.683 169.363 169.104 169.854 
169.631 170.354 171.315 170.671 171.076 170.463 170.957 170.432 170.93 
170.397 170.763 170.179 170.519 170.051 170.58 170.31 170.996 170.799 
171.473 171.251 171.847 172.668 172.365 172.965 173.831 171.933 172.628 
173.567 174.171 175.063 171.494 172.162 173.157 173.869 174.848 175.439 
176.336 171.362 171.809 172.753 173.434 174.499 175.203 176.209 176.752 
177.642 171.588 171.848 172.671 173.13 174.152 174.841 175.929 176.594 
177.557 178.062 178.885 171.831 172.124 172.905 173.193 174.089 174.589 
175.62 176.272 177.235 177.855 178.647 179.171 179.829 171.945 172.322 
173.158 173.448 174.292 174.645 175.575 176.051 176.945 177.478 178.214 
178.763 179.359 179.901 180.418 172.078 172.455 173.336 173.662 174.514 
174.854 175.747 176.116 176.97 177.323 178.039 178.396 178.982 179.396 
179.915 180.396 180.901 172.263 172.623 173.487 173.824 174.658 175.021 
175.892 176.279 177.123 177.445 178.175 178.414 179.031 179.242 179.783 
180.043 180.562 180.94 181.48 173.081 174.262 173.808 174.123 175.524 
175.063 175.441 174.955 175.33 176.793 176.357 176.796 176.341 176.759 
176.234 176.591 178.059 177.626 178.066 177.672 178.108 177.65 177.983 
177.45 177.738 179.296 178.889 179.29 178.899 179.317 178.919 179.249 
178.771 179.028 178.529 178.803 180.302 180.056 180.454 180.094 180.483 
180.097 180.451 180.001 180.283 179.789 180.057 179.57 179.819 180.96 
180.916 181.373 181.157 181.542 181.228 181.6 181.21 181.528 181.052 
181.313 180.812 181.035 180.529 180.687 181.465 181.502 182.043 181.957 
182.378 182.178 182.556 182.292 182.63 182.256 182.495 182.028 182.202 
181.709 181.844 181.329 181.422 182.029 182.053 182.661 182.614 183.08 
182.931 183.306 183.131 183.483 183.247 183.499 183.122 183.261 182.808 
182.919 182.448 182.545 182.036 182.104 182.593 183.703 183.195 183.238 
184.731 184.28 184.272 183.737 183.627 185.631 185.227 185.197 184.693 
184.526 183.994 183.823 186.551 186.121 186.114 185.595 185.452 184.887 
184.713 184.18 184.015 187.399 187.037 187.052 186.559 186.45 185.862 
185.681 185.096 184.881 184.331 184.053 187.905 187.733 187.747 187.427 
187.312 186.828 186.587 186.028 185.711 185.148 184.768 184.222 183.808 
188.155 188.089 188.142 187.97 187.881 187.543 187.27 186.798 186.403 
185.874 185.424 184.881 184.422 183.895 183.459 188.383 188.332 188.432 
188.307 188.264 188.01 187.776 187.375 186.979 186.479 186.001 185.474 
184.995 184.485 184.033 183.533 183.091 188.57 188.559 188.622 188.546 
188.456 188.3 188.062 187.792 187.414 187.002 186.5 185.999 185.46 
184.982 184.483 184.043 183.567 183.114 182.636 182.381 182.449 182.741 
183.461 182.579 182.789 183.425 183.805 184.497 182.768 182.908 183.435 
183.743 184.426 184.801 185.44 182.936 183.098 183.606 183.803 184.449 
184.764 185.483 185.783 186.406 182.932 183.227 183.781 183.998 184.608 
184.861 185.584 185.89 186.588 186.803 187.311 182.693 183.123 183.709 
184.072 184.635 184.954 185.588 185.964 186.648 186.965 187.463 187.593 
187.853 182.335 182.8 183.38 183.857 184.387 184.802 185.315 185.782 
186.383 186.872 187.367 187.64 187.863 187.946 188.063 181.984 182.412 
182.943 183.446 183.966 184.43 184.876 185.346 185.843 186.412 186.912 
187.377 187.649 187.861 187.967 188.086 188.229 181.626 182.032 182.489 
182.973 183.468 183.958 184.399 184.854 185.275 185.795 186.252 186.801 
187.148 187.531 187.695 187.919 188.054 188.245 188.411 172.646 173.568 
173.368 173.85 174.571 174.322 174.849 174.578 175.048 175.742 175.425 
175.984 175.658 176.179 175.841 176.321 176.917 176.626 177.164 176.839 
177.335 177.001 177.472 177.13 177.545 177.966 177.728 178.236 177.962 
178.4 178.097 178.508 178.216 178.616 178.287 178.593 178.96 178.726 
179.225 178.973 179.412 179.113 179.506 179.204 179.619 179.323 179.679 
179.278 179.477 179.872 179.673 180.13 179.917 180.359 180.106 180.518 
180.217 180.634 180.339 180.73 180.366 180.585 180.096 180.192 180.605 
180.479 180.878 180.728 181.135 180.979 181.394 181.186 181.571 181.32 
181.654 181.36 181.564 181.153 181.224 180.752 180.862 181.187 181.114 
181.505 181.395 181.797 181.686 182.116 181.981 182.366 182.164 182.44 
182.181 182.346 182.024 182.117 181.727 181.849 181.455 181.695 171.973 
171.155 172.029 172.901 170.287 171.175 172.12 172.973 173.888 169.609 
170.36 171.311 172.183 173.21 174.062 175.062 169.23 169.806 170.68 
171.435 172.48 173.382 174.488 175.316 176.287 168.982 169.496 170.291 
170.899 171.858 172.684 173.811 174.714 175.78 176.525 177.394 168.715 
169.231 170.017 170.563 171.46 172.146 173.225 174.065 175.186 175.998 
176.98 177.629 178.436 168.534 168.986 169.795 170.312 171.224 171.826 
172.875 173.588 174.695 175.453 176.486 177.2 178.095 178.682 179.406 
168.542 168.897 169.701 170.149 171.054 171.613 172.637 173.297 174.361 
175.045 176.035 176.716 177.612 178.277 179.053 179.594 180.188 168.666 
168.968 169.735 170.115 170.954 171.446 172.387 173.019 174.031 174.712 
175.66 176.297 177.14 177.774 178.548 179.162 179.817 180.3 180.791 
168.985 169.851 169.618 170.067 170.859 170.559 171.032 170.772 171.279 
172.031 171.659 172.133 171.805 172.336 172.069 172.686 173.299 172.901 
173.389 172.994 173.534 173.204 173.855 173.602 174.316 174.605 174.211 
174.749 174.325 174.891 174.496 175.155 174.844 175.559 175.283 175.946 
175.937 175.559 176.16 175.743 176.347 175.919 176.569 176.201 176.884 
176.554 177.178 176.846 177.403 177.216 176.891 177.52 177.166 177.786 
177.383 177.989 177.604 178.224 177.874 178.452 178.086 178.599 178.248 
178.76 178.381 178.109 178.72 178.456 179.065 178.748 179.297 178.94 
179.464 179.134 179.651 179.319 179.786 179.431 179.872 179.552 179.994 
179.474 179.215 179.787 179.565 180.149 179.914 180.434 180.133 180.583 
180.27 180.716 180.427 180.856 180.548 180.927 180.606 180.954 180.662 
180.975 180.264 181.569 180.789 180.57 182.888 182.107 181.873 181.116 
180.917 184.114 183.389 183.145 182.408 182.174 181.439 181.191 185.19 
184.547 184.295 183.617 183.36 182.653 182.364 181.636 181.329 186.13 
185.567 185.324 184.694 184.425 183.768 183.478 182.78 182.466 181.742 
181.441 186.955 186.473 186.266 185.68 185.403 184.778 184.5 183.856 
183.57 182.877 182.57 181.859 181.562 187.64 187.249 187.073 186.572 
186.307 185.724 185.436 184.837 184.559 183.936 183.626 182.954 182.614 
181.934 181.607 188.132 187.84 187.667 187.291 187.056 186.573 186.274 
185.719 185.397 184.836 184.505 183.919 183.551 182.918 182.542 181.91 
181.578 188.405 188.209 188.024 187.773 187.579 187.239 186.972 186.49 
186.118 185.58 185.195 184.681 184.307 183.763 183.364 182.775 182.395 
181.829 181.518 180.342 180.883 180.991 181.693 181.322 181.565 182.389 
182.409 183.065 181.628 182.013 183.03 183.163 183.923 183.805 184.352 
181.871 182.334 183.509 183.82 184.741 184.711 185.278 185.038 185.443 
181.984 182.513 183.636 184.168 185.149 185.411 186.011 185.909 186.237 
186.012 186.322 181.778 182.402 183.281 183.984 184.822 185.454 186.072 
186.368 186.695 186.666 186.909 186.789 187.079 181.296 181.961 182.68 
183.375 184.054 184.797 185.448 186.092 186.593 186.901 187.221 187.257 
187.543 187.484 187.751 180.828 181.435 182.203 182.783 183.478 184.053 
184.763 185.415 186.14 186.674 187.203 187.443 187.778 187.842 188.112 
188.08 188.26 180.562 181.081 181.937 182.452 183.232 183.678 184.408 
184.918 185.694 186.264 186.908 187.313 187.677 187.902 188.136 188.281 
188.465 188.475 188.543 179.576 178.432 179.353 180.011 177.067 178.057 
178.649 179.682 180.311 175.602 176.568 177.06 178.151 178.724 179.852 
180.477 174.186 175.068 175.453 176.479 176.997 178.152 178.781 179.978 
180.666 172.826 173.671 174.006 174.907 175.358 176.423 177.067 178.27 
179.023 180.222 180.897 171.461 172.318 172.699 173.542 173.976 174.891 
175.52 176.63 177.447 178.636 179.378 180.441 180.903 170.182 170.992 
171.43 172.28 172.768 173.622 174.244 175.226 176.063 177.173 177.976 
178.992 179.473 180.322 180.532 169.115 169.818 170.258 171.06 171.576 
172.435 173.056 174.012 174.816 175.885 176.71 177.691 178.207 178.972 
179.175 179.886 180.043 168.227 168.856 169.288 169.987 170.483 171.271 
171.857 172.783 173.52 174.597 175.396 176.439 177.014 177.8 178.047 
178.655 178.81 179.486 179.752 167.88 167.788 168.216 168.995 167.822 
168.227 169.061 169.402 170.19 167.937 168.337 169.227 169.547 170.366 
170.669 171.548 168.037 168.443 169.354 169.738 170.612 170.92 171.846 
172.171 173.216 168.175 168.504 169.365 169.808 170.739 171.159 172.134 
172.512 173.583 173.963 175.064 168.519 168.699 169.5 169.837 170.792 
171.251 172.293 172.756 173.818 174.267 175.309 175.728 176.633 169.018 
169.133 169.929 170.116 171.053 171.392 172.463 172.906 173.99 174.44 
175.435 175.856 176.682 177.042 177.669 169.507 169.65 170.467 170.631 
171.534 171.77 172.779 173.134 174.196 174.61 175.606 175.982 176.812 
177.092 177.726 177.945 178.477 169.975 170.127 170.951 171.148 172.029 
172.251 173.17 173.462 174.426 174.805 175.764 176.152 177.008 177.292 
177.986 178.141 178.733 178.851 179.45 170.521 171.798 171.259 171.537 
173.191 172.625 172.898 172.349 172.644 174.492 173.997 174.275 173.742 
174.028 173.479 173.783 175.749 175.256 175.572 175.087 175.404 174.879 
175.196 174.649 175 177.176 176.592 176.931 176.403 176.773 176.26 
176.617 176.078 176.438 175.907 176.292 178.644 178.083 178.409 177.84 
178.206 177.668 178.037 177.499 177.847 177.325 177.685 177.183 177.511 
179.875 179.453 179.77 179.287 179.625 179.114 179.457 178.919 179.228 
178.694 179.009 178.522 178.822 178.313 178.504 180.904 180.564 180.885 
180.514 180.851 180.445 180.786 180.31 180.595 180.051 180.315 179.806 
180.1 179.603 179.818 179.228 179.302 181.863 181.552 181.864 181.538 
181.855 181.539 181.881 181.534 181.828 181.366 181.59 181.082 181.345 
180.872 181.146 180.59 180.728 180.031 180.061 180.759 181.476 181.477 
182.136 181.907 182.098 182.8 182.838 183.419 182.084 182.371 183.106 
183.345 184.007 184.044 184.587 182.298 182.529 183.243 183.533 184.272 
184.508 185.187 185.229 185.826 182.502 182.748 183.415 183.679 184.395 
184.699 185.419 185.672 186.304 186.416 186.928 182.513 182.84 183.468 
183.797 184.476 184.81 185.485 185.791 186.366 186.626 187.084 187.274 
187.618 182.468 182.785 183.398 183.754 184.438 184.83 185.537 185.858 
186.433 186.636 187.077 187.266 187.656 187.819 188.112 182.49 182.777 
183.393 183.698 184.363 184.748 185.482 185.879 186.536 186.77 187.252 
187.357 187.771 187.882 188.249 188.316 188.524 182.487 182.802 183.404 
183.709 184.311 184.661 185.311 185.747 186.397 186.789 187.305 187.534 
187.913 188.045 188.351 188.444 188.625 188.638 188.646 160.018 160.487 
160.122 159.926 161.082 160.606 160.281 159.965 159.754 161.861 161.259 
160.897 160.395 160.153 159.828 159.791 162.923 162.205 161.954 161.249 
161.128 160.534 160.628 160.21 160.544 164.241 163.473 163.388 162.586 
162.595 161.842 162.037 161.417 161.798 161.343 161.885 165.661 164.917 
164.916 164.154 164.204 163.446 163.587 162.932 163.205 162.692 163.074 
162.723 163.238 166.997 166.335 166.338 165.663 165.712 165.013 165.09 
164.422 164.574 164.012 164.271 163.846 164.227 163.971 164.505 168.181 
167.599 167.615 167.016 167.071 166.44 166.523 165.871 166.019 165.39 
165.648 165.089 165.468 165.031 165.527 165.257 165.841 169.302 168.754 
168.807 168.25 168.319 167.738 167.824 167.239 167.411 166.843 167.139 
166.573 166.964 166.418 166.876 166.422 166.93 166.619 167.141 159.785 
159.756 159.719 159.72 159.679 159.72 159.827 159.865 160.164 159.713 
159.674 159.918 160.03 160.44 160.537 161.062 160.366 159.954 160.217 
160.219 160.788 160.897 161.491 161.559 162.148 161.696 160.976 161.165 
160.818 161.425 161.392 162.1 162.09 162.689 162.679 163.269 163.174 
162.468 162.657 162.074 162.578 162.276 162.964 162.821 163.448 163.326 
163.89 163.842 164.446 164.533 163.935 164.203 163.63 164.052 163.583 
164.122 163.806 164.378 164.162 164.711 164.56 165.123 165.057 165.649 
165.853 165.297 165.6 165.104 165.504 165.025 165.447 165.015 165.472 
165.151 165.662 165.436 165.965 165.803 166.342 166.253 166.801 167.094 
166.585 166.836 166.408 166.77 166.363 166.736 166.3 166.675 166.281 
166.725 166.428 166.916 166.679 167.156 166.981 167.469 167.377 167.887 
159.815 159.77 159.799 160.07 160.262 160.012 160.278 160.307 160.823 
161.202 160.775 161.054 160.807 161.303 161.29 161.923 162.287 161.838 
162.128 161.771 162.213 161.992 162.566 162.509 163.173 163.394 162.944 
163.225 162.858 163.236 162.949 163.417 163.256 163.85 163.825 164.524 
164.561 164.082 164.36 163.954 164.305 163.955 164.358 164.108 164.631 
164.534 165.194 165.209 165.957 165.742 165.265 165.54 165.114 165.486 
165.083 165.512 165.137 165.649 165.393 166.044 165.942 166.713 166.713 
167.566 166.882 166.427 166.692 166.282 166.668 166.298 166.782 166.399 
166.932 166.556 167.172 166.915 167.675 167.574 168.456 168.449 169.381 
167.979 167.551 167.813 167.41 167.776 167.446 167.933 167.64 168.174 
167.849 168.391 168.089 168.732 168.573 169.378 169.362 170.25 170.277 
171.126 179.042 177.905 178.307 177.92 176.699 177.115 176.699 177.102 
176.623 175.399 175.836 175.394 175.841 175.386 175.766 175.243 174.072 
174.489 174.012 174.48 174.04 174.5 174.032 174.395 173.872 172.788 
173.167 172.66 173.088 172.63 173.114 172.679 173.136 172.644 173.016 
172.485 171.531 171.889 171.377 171.769 171.296 171.73 171.294 171.758 
171.297 171.725 171.195 171.583 171.067 170.353 170.652 170.143 170.51 
170.054 170.449 170.006 170.418 169.977 170.392 169.917 170.293 169.796 
170.183 169.767 169.347 169.55 169.034 169.329 168.881 169.239 168.798 
169.17 168.724 169.12 168.697 169.079 168.65 168.992 168.594 168.983 
168.695 168.503 168.632 168.107 168.307 167.843 168.123 167.673 167.99 
167.53 167.892 167.482 167.891 167.52 167.897 167.521 167.876 167.554 
167.985 167.776 
POINT_DATA 1002
SCALARS Distance double
LOOKUP_TABLE default
170.985 169.832 169.728 170.972 169.747 172.366 171.039 169.791 172.414 
173.741 171.136 169.847 172.485 173.791 174.955 171.339 170.058 172.642 
173.901 175.094 176.261 171.705 170.449 172.973 174.189 175.383 176.606 
177.784 172.124 170.905 173.377 174.618 175.83 177.034 178.179 179.167 
172.513 171.378 173.73 175.006 176.278 177.48 178.545 179.456 180.252 
172.913 171.88 174.073 175.34 176.608 177.814 178.886 179.757 180.513 
181.23 173.349 172.392 174.451 175.698 176.918 178.028 179.095 180.038 
180.805 181.505 182.166 168.73 168.629 167.629 167.451 166.38 168.6 
166.042 164.965 167.288 168.541 164.635 163.611 165.874 167.202 168.56 
163.527 162.499 164.714 166.014 167.334 168.811 162.588 161.63 163.72 
164.99 166.256 167.612 169.234 161.674 160.927 162.619 163.799 165.101 
166.444 168.007 169.762 160.896 160.332 161.656 162.652 163.9 165.306 
166.867 168.633 170.387 160.358 159.89 161.084 161.995 163.098 164.426 
165.951 167.645 169.417 171.042 159.927 160.608 160.445 161.317 161.392 
161.575 162.242 162.535 162.383 162.657 163.344 163.838 163.268 163.539 
163.895 164.783 165.249 164.499 164.589 164.946 165.386 166.393 166.73 
166.214 166.165 166.288 166.613 167.078 168.119 168.454 168.062 168.123 
168.054 168.048 168.358 168.873 169.992 170.314 169.872 169.954 169.875 
169.614 169.649 170.086 170.606 171.71 171.924 171.528 171.475 171.366 
171.053 170.895 171.198 171.707 172.109 173.506 173.282 174.709 172.898 
174.527 175.958 172.392 174.186 175.839 177.218 172.145 173.728 175.591 
177.205 178.509 172.353 173.525 175.21 176.994 178.478 179.673 172.66 
173.71 175.041 176.619 178.1 179.369 180.449 172.841 173.982 175.192 
176.501 177.722 178.826 179.887 180.92 173.003 174.173 175.395 176.662 
177.754 178.646 179.479 180.383 181.402 173.161 174.302 175.503 176.785 
177.928 178.849 179.604 180.269 181.037 182.002 174.574 175.909 175.846 
177.21 177.274 177.164 178.455 178.537 178.518 178.273 179.711 179.711 
179.709 179.526 179.29 180.79 180.867 180.877 180.775 180.555 180.33 
181.513 181.818 181.945 181.984 181.831 181.557 181.224 182.076 182.543 
182.775 182.953 182.959 182.701 182.353 181.962 182.684 183.224 183.476 
183.668 183.832 183.711 183.376 183.034 182.645 183.095 183.807 184.208 
184.828 185.158 184.183 185.697 186.042 185.071 184.327 186.627 186.989 
186.022 185.267 184.547 187.5 187.712 187.033 186.301 185.48 184.619 
187.991 188.015 187.753 187.156 186.309 185.348 184.341 188.266 188.186 
188.172 187.724 186.936 185.97 184.956 183.973 188.547 188.42 188.486 
188.139 187.471 186.535 185.501 184.531 183.598 188.712 188.582 188.609 
188.279 187.773 187.004 185.964 184.918 184.004 183.102 182.049 183.082 
182.218 183.071 182.452 184.126 183.203 182.651 184.034 185.122 183.443 
182.718 184.174 185.141 186.191 183.523 182.561 184.38 185.272 186.342 
187.235 183.291 182.229 184.317 185.213 186.283 187.323 187.835 182.883 
181.895 183.968 184.881 185.854 187.015 187.766 187.991 182.461 181.599 
183.49 184.444 185.308 186.372 187.354 187.83 188.085 182.039 181.244 
182.973 183.945 184.812 185.709 186.681 187.412 187.846 188.234 172.856 
174.093 173.761 175.118 174.839 175.343 176.322 176.071 176.517 176.682 
177.491 177.195 177.684 177.811 177.931 178.505 178.206 178.719 178.807 
178.914 179.01 179.475 179.206 179.704 179.822 179.897 180.051 179.981 
180.345 180.073 180.578 180.8 180.938 181.072 181.071 180.707 181.027 
180.723 181.269 181.563 181.824 181.955 181.94 181.685 181.283 171.142 
172.092 170.234 171.202 169.427 173.07 170.451 168.951 172.281 174.283 
170.017 168.724 171.576 173.588 175.6 169.75 168.474 171.109 172.892 
174.959 176.785 169.47 168.205 170.833 172.441 174.348 176.257 177.902 
169.285 168.116 170.634 172.207 173.98 175.761 177.445 178.943 169.292 
168.221 170.53 171.999 173.706 175.4 176.948 178.448 179.772 169.391 