# vtk DataFile Version 4.0
vtk output
ASCII
DATASET POLYDATA
POINTS 1002 float
-119.318 -110.554 47.1596 -119.019 -109.336 46.2714 -118.552 -109.613 46.6618 
-118.924 -110.808 47.7501 -118.208 -109.865 47.249 -119.666 -111.685 48.3341 
-118.567 -111.106 48.5042 -117.908 -110.126 48.0502 -119.31 -111.973 49.1363 
-119.905 -112.837 49.883 -118.15 -111.522 49.3551 -117.537 -110.554 48.8833 
-118.862 -112.442 49.9935 -119.525 -113.287 50.85 -120.021 -114.204 51.7002 
-117.695 -112.103 50.2536 -117.091 -111.224 49.6429 -118.315 -113.055 50.9193 
-119.017 -113.916 51.8246 -119.598 -114.792 52.7533 -120.124 -115.716 53.4944 
-117.284 -112.765 51.2945 -116.659 -111.966 50.5639 -117.837 -113.69 52.0401 
-118.479 -114.57 52.9252 -119.097 -115.452 53.8219 -119.643 -116.387 54.5201 
-120.191 -117.266 55.1095 -116.889 -113.416 52.5014 -116.281 -112.689 51.6817 
-117.44 -114.309 53.3129 -118.019 -115.22 54.1446 -118.579 -116.15 54.9396 
-119.097 -117.137 55.5455 -119.652 -118.027 56.0915 -120.191 -118.763 56.6625 
-116.438 -114.151 53.631 -115.892 -113.485 52.7409 -116.975 -114.999 54.4976 
-117.536 -115.935 55.2754 -118.044 -116.925 55.9803 -118.489 -117.958 56.5507 
-119.037 -118.826 57.0891 -119.653 -119.455 57.7041 -120.177 -120.001 58.2265 
-115.923 -115.024 54.559 -115.447 -114.355 53.7045 -116.409 -115.848 55.4519 
-116.952 -116.735 56.2528 -117.472 -117.68 56.9435 -117.875 -118.711 57.5342 
-118.352 -119.582 58.0945 -119.001 -120.133 58.7266 -119.626 -120.553 59.3031 
-120.12 -120.99 59.6663 -115.384 -115.903 55.3836 -114.972 -115.202 54.6442 
-115.813 -116.756 56.2303 -116.307 -117.603 57.0862 -116.845 -118.395 57.8671 
-117.286 -119.286 58.5365 -117.691 -120.164 59.1115 -118.256 -120.765 59.6868 
-118.909 -121.167 60.2403 -119.484 -121.556 60.6354 -119.973 -121.915 60.8716 
-118.452 -108.244 45.6678 -117.978 -108.511 46.0337 -117.838 -107.144 45.0619 
-117.322 -107.404 45.4306 -117.017 -106.158 44.4211 -117.63 -108.761 46.6609 
-116.36 -106.49 44.8255 -116.014 -105.264 43.6796 -116.828 -107.74 46.0878 
-117.259 -109.092 47.5033 -115.311 -105.629 44.2256 -115.194 -104.249 43.0938 
-115.688 -106.973 45.4599 -116.222 -108.289 46.8099 -116.744 -109.712 48.2255 
-114.639 -104.5 43.9147 -114.698 -103.123 42.9996 -114.719 -106.102 44.907 
-115.022 -107.64 46.0508 -115.575 -109.084 47.4088 -116.203 -110.547 48.9217 
-114.172 -103.328 43.9248 -114.253 -102.182 43.0886 -114.143 -104.897 44.7082 
-114.229 -106.697 45.6091 -114.568 -108.341 46.8335 -115.183 -109.879 48.3148 
-115.83 -111.36 49.9449 -113.567 -102.505 43.8662 -113.689 -101.471 43.0274 
-113.538 -103.826 44.6943 -113.64 -105.585 45.5707 -113.953 -107.333 46.7072 
-114.475 -108.954 48.0675 -115.059 -110.633 49.5131 -115.562 -112.179 51.0902 
-112.933 -101.9 43.8388 -113.064 -100.834 43.1589 -112.925 -103.116 44.6634 
-113.011 -104.737 45.6208 -113.308 -106.444 46.746 -113.867 -107.966 47.9585 
-114.455 -109.66 49.1962 -114.906 -111.512 50.589 -115.236 -113.084 52.1627 
-112.437 -101.336 44.2724 -112.502 -100.326 43.8 -112.567 -102.517 44.9062 
-112.672 -104.067 45.7684 -112.755 -105.783 46.8252 -113.114 -107.245 47.8649 
-113.753 -108.717 48.8668 -114.317 -110.602 50.1194 -114.651 -112.518 51.6885 
-114.846 -114.016 53.2773 -112.054 -100.611 45.0905 -112.279 -101.649 45.5357 
-112.013 -101.093 46.5642 -112.391 -102.198 47.0363 -112.142 -101.757 48.0102 
-112.6 -103.074 46.163 -112.299 -102.936 48.6142 -112.138 -102.513 49.4665 
-112.596 -103.803 47.7498 -112.607 -104.89 47.0818 -112.129 -103.905 50.1005 
-112.338 -103.58 50.8069 -112.285 -104.701 49.3814 -112.386 -105.746 48.6122 
-112.545 -106.619 48.0272 -112.71 -105.5 51.2304 -113.196 -105.422 51.7326 
-112.431 -106.053 50.7044 -112.347 -106.859 50.0566 -112.477 -107.563 49.2892 
-112.998 -108.108 48.8287 -113.93 -107.853 52.2122 -114.306 -107.883 52.5736 
-113.463 -108.098 51.8408 -113.075 -108.53 51.4126 -113.005 -108.968 50.7873 
-113.269 -109.397 50.1742 -113.764 -109.946 49.9654 -114.743 -110.292 53.5695 
-114.975 -110.176 53.8596 -114.337 -110.424 53.3045 -113.813 -110.518 53.0434 
-113.592 -110.715 52.643 -113.729 -111.124 52.1511 -113.953 -111.645 51.8013 
-114.24 -112.141 51.6731 -114.838 -112.187 55.1793 -115.127 -111.909 55.3961 
-114.424 -112.402 54.987 -113.786 -112.351 54.8568 -113.33 -112.325 54.5945 
-113.409 -112.756 54.1786 -113.731 -113.427 53.8558 -114.018 -113.864 53.6487 
-114.369 -114.008 53.4387 -114.684 -113.584 56.5524 -115.09 -113.276 56.6895 
-114.238 -113.901 56.3779 -113.574 -113.925 56.3094 -112.849 -113.77 56.1873 
-112.565 -114.052 55.789 -112.849 -114.836 55.3635 -113.352 -115.426 55.1822 
-113.869 -115.504 55.062 -114.416 -115.349 54.8456 -114.702 -116.48 55.9738 
-114.053 -116.69 56.1589 -114.398 -117.891 57.3379 -113.342 -116.936 56.2282 
-113.718 -118.139 57.4812 -114.089 -119.342 58.9204 -112.652 -116.823 56.2703 
-112.99 -118.407 57.5214 -113.449 -119.648 59.2027 -113.707 -120.72 60.7331 
-112.22 -116.104 56.6335 -112.439 -118.217 57.7676 -112.792 -119.883 59.4662 
-113.027 -121.046 61.1717 -113.266 -121.916 62.4621 -112.38 -115.43 57.1824 
-112.429 -117.544 58.3409 -112.431 -119.568 59.9608 -112.291 -121.067 61.5762 
-112.456 -122.108 62.8694 -112.857 -122.948 64.0248 -113.076 -115.359 57.4024 
-112.998 -117.113 58.6788 -112.689 -118.956 60.4151 -111.994 -120.495 62.0979 
-111.722 -121.764 63.3396 -112.03 -122.923 64.4847 -112.379 -123.96 65.6337 
-113.807 -115.397 57.3991 -113.68 -117.007 58.601 -113.349 -118.621 60.3643 
-112.455 -119.951 62.309 -111.727 -121.092 63.8344 -111.646 -122.365 65.0845 
-111.77 -123.72 66.2979 -111.865 -124.87 67.2487 -114.322 -115.116 57.5211 
-114.159 -116.722 58.5754 -113.948 -118.34 60.1231 -113.286 -119.755 62.0368 
-112.498 -120.858 63.8072 -112.096 -121.902 65.3451 -111.893 -123.119 66.7768 
-111.681 -124.371 67.9397 -111.676 -125.397 68.635 -114.778 -114.749 57.6694 
-114.569 -116.293 58.6709 -114.413 -117.868 60.0331 -114.029 -119.442 61.7234 
-113.43 -120.855 63.3736 -112.953 -121.941 64.9312 -112.615 -122.829 66.532 
-112.229 -123.742 68.0079 -111.931 -124.678 69.0793 -111.978 -125.505 69.6794 
-115.108 -117.375 56.7743 -114.778 -118.914 58.2875 -115.539 -118.346 57.6833 
-114.354 -120.368 59.971 -115.146 -119.903 59.2346 -116.048 -119.152 58.6036 
-113.889 -121.664 61.7434 -114.594 -121.387 60.8263 -115.579 -120.736 60.1249 
-116.563 -119.909 59.4457 -113.544 -122.788 63.5272 -114.123 -122.704 62.5845 
-114.969 -122.362 61.6294 -116.074 -121.548 60.9432 -117.014 -120.751 60.1363 
-113.159 -123.882 65.24 -113.846 -123.753 64.5247 -114.557 -123.651 63.4492 
-115.56 -123.125 62.4595 -116.649 -122.243 61.6309 -117.54 -121.441 60.7042 
-112.544 -125.014 66.7443 -113.435 -124.779 66.1538 -114.302 -124.515 65.3366 
-115.241 -124.171 64.2822 -116.295 -123.53 63.1957 -117.299 -122.73 62.1774 
-118.177 -121.926 61.206 -112.084 -125.86 68.0661 -112.946 -125.818 67.3274 
-113.972 -125.424 66.6346 -115.006 -124.933 65.9027 -116.043 -124.39 64.9195 
-117.034 -123.815 63.7278 -117.961 -123.161 62.5821 -118.807 -122.361 61.5856 
-112.162 -126.18 69.2763 -112.822 -126.486 68.4643 -113.775 -126.334 67.588 
-114.819 -125.861 66.911 -115.88 -125.209 66.2597 -116.882 -124.578 65.2909 
-117.79 -124.086 64.0479 -118.642 -123.507 62.8576 -119.398 -122.713 61.8373 
-112.636 -125.881 70.4446 -113.024 -126.557 69.9575 -113.633 -126.184 71.1469 
-114.205 -126.773 70.5973 -114.91 -126.371 71.6514 -113.795 -126.848 68.9896 
-115.555 -126.699 70.9816 -116.387 -126.253 71.8082 -115.028 -126.956 69.508 
-114.769 -126.724 67.9502 -116.976 -126.251 70.935 -117.757 -125.853 71.5652 
-116.411 -126.643 69.7697 -116.038 -126.809 68.2825 -115.85 -126.199 67.168 
-118.432 -125.878 70.5495 -119.059 -125.621 71.024 -117.923 -126.129 69.6488 
-117.51 -126.455 68.3825 -117.165 -126.204 67.293 -116.947 -125.362 66.4264 
-120.129 -126.117 70.0956 -120.72 -125.817 70.5032 -119.599 -126.123 69.3026 
-119.074 -126.167 68.1905 -118.593 -125.966 67.1634 -118.217 -125.302 66.3611 
-117.93 -124.65 65.3432 -121.904 -126.613 69.7215 -122.435 -126.04 70.1441 
-121.33 -126.645 68.9112 -120.646 -126.413 67.8219 -119.956 -126.043 66.7681 
-119.472 -125.345 66.0092 -119.113 -124.65 65.1865 -118.8 -124.156 64.0319 
-123.162 -126.617 69.2601 -123.576 -125.838 69.697 -122.658 -126.854 68.4463 
-122.01 -126.647 67.4019 -121.235 -126.313 66.2912 -120.615 -125.697 65.4461 
-120.231 -124.824 64.8086 -119.884 -124.114 63.9203 -119.573 -123.499 62.8202 
-123.874 -126.053 68.5574 -124.214 -125.292 68.9924 -123.445 -126.397 67.7991 
-122.947 -126.301 66.9219 -122.331 -126.114 65.9252 -121.7 -125.811 64.9536 
-121.228 -125.062 64.2855 -120.861 -124.117 63.6595 -120.494 -123.353 62.742 
-120.183 -122.665 61.7354 -112.53 -124.933 70.0908 -113.22 -125.218 70.919 
-113.393 -124.353 70.0859 -114.012 -124.447 71.0278 -114.363 -123.906 69.908 
-114.227 -125.459 71.6484 -114.886 -123.741 70.9538 -115.348 -123.608 69.5233 
-115.017 -124.418 71.8808 -115.693 -125.571 72.1677 -115.846 -123.34 70.3701 
-116.352 -123.359 68.587 -115.903 -123.46 71.8059 -116.638 -124.342 72.528 
-117.339 -125.438 72.3369 -116.935 -123.121 69.0917 -117.295 -122.898 67.3473 
-116.891 -123.116 70.868 -117.484 -123.419 72.278 -118.209 -124.329 72.6105 
-118.596 -125.164 71.9319 -117.989 -122.623 67.7544 -118.091 -122.164 66.2774 
-117.996 -122.941 69.3321 -118.323 -123.163 70.9516 -118.853 -123.623 71.9556 
-119.327 -124.328 71.8022 -119.887 -125.049 71.1109 -118.814 -121.886 66.627 
-118.805 -121.437 65.2174 -118.935 -122.3 68.0305 -119.221 -122.716 69.3644 
-119.577 -123.176 70.4675 -120.025 -123.714 70.8662 -120.737 -124.324 70.6722 
-121.644 -125.129 70.4496 -119.49 -121.231 65.3792 -119.515 -120.816 63.9796 
-119.567 -121.51 66.875 -119.884 -121.838 68.1364 -120.321 -122.361 69.0686 
-120.766 -123.041 69.6284 -121.448 -123.673 69.8044 -122.386 -124.285 69.9196 
-123.177 -125.065 70.0133 -120.156 -120.61 64.0203 -120.173 -120.127 62.79 
-120.139 -120.892 65.5092 -120.346 -121.118 66.8709 -120.827 -121.506 67.8415 
[...]
CELL_DATA 2000
SCALARS Distance double
LOOKUP_TABLE default
167.513 167.546 167.948 168.817 167.69 168.048 168.944 169.311 170.185 
167.915 168.239 169.154 169.501 170.427 170.745 171.648 168.229 168.511 
169.438 169.757 170.725 171.048 172.007 172.289 173.225 168.655 168.893 
169.845 170.108 171.098 171.397 172.397 172.684 173.646 173.905 174.828 
169.17 169.377 170.351 170.581 171.581 171.836 172.846 173.109 174.089 
174.339 175.271 175.501 176.376 169.728 169.915 170.874 171.103 172.096 
172.345 173.341 173.588 174.556 174.793 175.719 175.947 176.817 177.016 
177.801 170.293 170.463 171.389 171.614 172.581 172.835 173.803 174.061 
174.997 175.244 176.133 176.37 177.205 177.424 178.18 178.358 179.018 
170.831 170.995 171.881 172.105 173.038 173.289 174.216 174.477 175.37 
175.633 176.474 176.728 177.509 177.749 178.463 178.676 179.312 179.477 
180.032 166.67 165.374 166.224 166.665 164.02 164.903 165.351 166.263 
166.786 162.576 163.507 163.957 164.918 165.463 166.419 166.999 161.122 
162.039 162.494 163.481 164.023 165.044 165.656 166.654 167.287 159.855 
160.652 161.105 162.031 162.569 163.575 164.192 165.252 165.944 166.98 
167.684 158.824 159.489 159.895 160.715 161.252 162.18 162.814 163.82 
164.564 165.628 166.433 167.453 168.217 157.905 158.5 158.831 159.561 
160.076 160.948 161.621 162.56 163.345 164.344 165.221 166.247 167.116 
168.066 168.833 157.056 157.598 157.92 158.558 159.072 159.861 160.569 
161.459 162.261 163.209 164.078 165.092 166.004 167.002 167.852 168.732 
169.458 156.4 156.843 157.248 157.783 158.369 159.022 159.766 160.525 
161.313 162.159 162.967 163.937 164.835 165.887 166.814 167.781 168.599 
169.395 170.067 156.292 156.753 156.686 157.198 157.595 157.361 157.885 
157.79 158.426 158.514 158.261 158.781 158.639 159.274 159.157 159.845 
159.559 159.185 159.682 159.53 160.157 160.044 160.672 160.59 161.299 
161.264 160.519 161.063 160.6 161.287 160.996 161.655 161.445 162.125 
162.061 162.883 163.728 162.702 163.355 162.461 163.224 162.513 163.291 
162.724 163.505 163.117 164.005 163.835 164.816 166.255 165.335 165.974 
165.02 165.664 164.762 165.45 164.69 165.487 164.868 165.78 165.304 
166.285 165.966 166.912 168.234 167.596 168.081 167.379 167.754 166.992 
167.323 166.681 167.207 166.771 167.533 167.159 167.99 167.591 168.381 
168.021 168.741 169.673 169.21 169.558 169.068 169.293 168.682 168.765 
168.168 168.376 168.057 168.594 168.505 169.198 169.057 169.682 169.405 
169.953 169.65 170.179 170.985 170.775 171.277 172.115 170.499 171.044 
171.869 172.438 173.349 169.984 170.66 171.51 172.174 173.142 173.749 
174.698 169.349 170.046 170.985 171.774 172.855 173.56 174.582 175.114 
175.967 169.145 169.58 170.621 171.33 172.535 173.273 174.326 174.93 
175.762 176.267 177.001 169.559 169.729 170.79 171.247 172.477 173.057 
174.067 174.599 175.346 175.904 176.62 177.212 177.952 170.087 170.268 
171.237 171.589 172.718 173.151 174.095 174.433 175.118 175.5 176.213 
176.774 177.592 178.178 178.93 170.35 170.652 171.509 171.912 172.911 
173.366 174.296 174.594 175.325 175.512 176.246 176.566 177.424 177.889 
178.71 179.165 179.823 170.472 170.801 171.615 172.02 172.939 173.428 
174.372 174.786 175.624 175.864 176.636 176.831 177.637 177.91 178.689 
179.023 179.678 180.023 180.564 171.382 172.569 172.128 172.464 173.845 
173.387 173.778 173.296 173.646 175.144 174.691 175.083 174.628 174.995 
174.495 174.814 176.358 175.951 176.304 175.889 176.255 175.815 176.149 
175.648 175.943 177.465 177.121 177.498 177.088 177.465 177.048 177.417 
176.959 177.276 176.762 177.029 178.5 178.223 178.675 178.294 178.696 
178.278 178.666 178.222 178.557 178.069 178.336 177.811 178.037 179.443 
179.239 179.711 179.424 179.821 179.475 179.836 179.446 179.759 179.314 
179.566 179.077 179.289 178.774 178.96 180.265 180.12 180.572 180.367 
180.745 180.486 180.82 180.517 180.806 180.439 180.675 180.247 180.451 
179.982 180.159 179.652 179.792 180.982 180.882 181.347 181.182 181.581 
181.349 181.697 181.427 181.733 181.415 181.658 181.285 181.487 181.081 
181.257 180.805 180.932 180.426 180.501 181.521 182.554 182.012 181.939 
183.663 183.1 183.012 182.392 182.2 184.645 184.156 184.041 183.46 
183.234 182.593 182.323 185.3 184.956 184.791 184.365 184.153 183.603 
183.313 182.673 182.353 185.793 185.484 185.339 184.989 184.828 184.418 
184.171 183.615 183.251 182.628 182.251 186.636 186.169 186.181 185.66 
185.568 185.087 184.888 184.382 184.026 183.45 183.027 182.45 182.058 
187.787 187.303 187.422 186.768 186.666 185.988 185.739 185.12 184.757 
184.169 183.747 183.181 182.772 182.226 181.831 188.523 188.337 188.359 
187.928 187.677 187.07 186.661 186.007 185.557 184.926 184.48 183.889 
183.456 182.905 182.471 181.942 181.495 188.547 188.644 188.51 188.411 
188.013 187.711 187.175 186.732 186.19 185.668 185.151 184.594 184.085 
183.538 183.026 182.51 182.001 181.515 181.027 181.414 181.523 181.762 
182.411 181.649 181.84 182.465 182.798 183.504 181.83 181.933 182.44 
182.781 183.532 183.922 184.571 181.994 182.072 182.449 182.713 183.419 
183.897 184.67 184.955 185.372 181.995 182.165 182.514 182.72 183.33 
183.765 184.55 184.978 185.497 185.608 185.844 181.763 182.076 182.482 
182.75 183.291 183.666 184.335 184.784 185.316 185.601 185.925 186.057 
186.474 181.38 181.776 182.203 182.596 183.081 183.509 184.043 184.495 
184.97 185.342 185.737 186.035 186.538 186.845 187.491 180.967 181.368 
181.75 182.189 182.595 183.095 183.537 184.058 184.496 184.957 185.387 
185.795 186.312 186.757 187.366 187.793 188.275 180.54 180.938 181.273 
181.684 182.026 182.499 182.891 183.43 183.869 184.415 184.867 185.38 
185.849 186.374 186.86 187.408 187.799 188.239 188.39 170.827 171.88 
171.548 172.007 173.067 172.7 173.175 172.813 173.341 174.242 173.918 
174.436 174.059 174.584 174.227 174.771 175.392 175.1 175.669 175.328 
175.869 175.501 176.034 175.66 176.099 176.544 176.274 176.896 176.582 
177.154 176.781 177.301 176.922 177.38 176.931 177.228 177.629 177.411 
178.07 177.824 178.449 178.092 178.599 178.18 178.612 178.19 178.527 
178.014 178.228 178.602 178.431 179.057 178.914 179.559 179.339 179.871 
179.488 179.877 179.419 179.72 179.25 179.47 178.962 179.149 179.444 
179.319 179.86 179.769 180.337 180.27 180.794 180.616 180.989 180.633 
180.859 180.403 180.556 180.093 180.24 179.804 179.998 180.101 180.046 
180.514 180.453 180.918 180.893 181.342 181.311 181.65 181.507 181.68 
181.388 181.459 181.082 181.169 180.79 180.953 180.597 180.819 170.257 
169.662 170.417 171.318 168.971 169.832 170.822 171.554 172.482 168.176 
169.138 170.205 171.029 172.004 172.725 173.634 167.32 168.34 169.5 
170.403 171.458 172.235 173.21 173.888 174.788 166.563 167.53 168.77 
169.721 170.882 171.716 172.781 173.497 174.463 175.077 175.95 166.044 
166.875 168.12 169.049 170.275 171.158 172.277 173.066 174.076 174.757 
175.657 176.237 177.049 165.738 166.436 167.619 168.473 169.697 170.57 
171.69 172.514 173.517 174.29 175.208 175.895 176.732 177.307 178.058 
165.579 166.165 167.269 168.025 169.214 170.033 171.146 171.93 172.911 
173.674 174.584 175.345 176.215 176.915 177.708 178.275 178.944 165.562 
166.04 167.074 167.717 168.852 169.593 170.695 171.43 172.41 173.107 
173.996 174.71 175.577 176.32 177.147 177.835 178.547 179.089 179.644 
165.916 166.996 166.747 167.427 168.174 167.907 168.616 168.385 169.167 
169.431 169.136 169.862 169.609 170.38 170.169 170.956 170.813 170.464 
171.19 170.883 171.63 171.381 172.133 171.92 172.639 172.222 171.882 
172.581 172.238 172.933 172.632 173.341 173.091 173.786 173.546 174.206 
173.495 173.22 173.881 173.582 174.22 173.914 174.57 174.298 174.977 
174.714 175.376 175.107 175.764 174.667 174.412 175.053 174.797 175.425 
175.147 175.783 175.512 176.182 175.919 176.589 176.308 176.959 176.683 
177.323 175.811 175.558 176.198 175.947 176.595 176.329 176.968 176.7 
177.354 177.107 177.767 177.512 178.136 177.864 178.452 178.186 178.723 
176.897 176.68 177.319 177.089 177.733 177.49 178.107 177.851 178.452 
178.223 178.836 178.627 179.209 178.974 179.485 179.235 179.684 179.438 
179.816 177.703 179.166 178.33 178.163 180.706 179.829 179.611 178.781 
178.581 182.165 181.328 181.055 180.215 179.97 179.166 178.936 183.514 
182.74 182.49 181.642 181.371 180.539 180.291 179.492 179.264 184.781 
184.069 183.88 183.076 182.822 181.965 181.707 180.864 180.638 179.837 
179.637 185.894 185.264 185.052 184.38 184.134 183.379 183.099 182.283 
182.011 181.208 180.973 180.203 179.984 186.803 186.258 185.992 185.417 
185.149 184.537 184.226 183.541 183.182 182.467 182.124 181.432 181.136 
180.457 180.193 187.552 187.091 186.846 186.293 186.001 185.433 185.09 
184.493 184.073 183.446 183.005 182.399 182.018 181.447 181.141 180.567 
180.307 188.158 187.81 187.601 187.099 186.749 186.205 185.791 185.244 
184.79 184.215 183.747 183.164 182.747 182.207 181.879 181.383 181.119 
180.618 180.373 177.658 178.03 178.292 179.173 178.415 178.74 179.782 
179.953 180.823 178.809 179.189 180.343 180.611 181.579 181.62 182.34 
179.092 179.563 180.707 181.106 182.079 182.284 183.01 183.026 183.625 
179.12 179.711 180.796 181.319 182.235 182.595 183.317 183.528 184.185 
184.267 184.87 178.951 179.592 180.666 181.278 182.212 182.645 183.412 
183.725 184.515 184.765 185.539 185.561 186.103 178.753 179.359 180.421 
181.086 182.106 182.619 183.474 183.836 184.711 185.078 185.999 186.21 
186.869 186.739 187.076 178.548 179.122 180.102 180.794 181.827 182.472 
183.373 183.862 184.693 185.181 186.058 186.51 187.19 187.339 187.668 
187.535 187.723 178.289 178.846 179.717 180.399 181.351 182.086 182.962 
183.603 184.341 184.942 185.651 186.279 186.868 187.327 187.631 187.822 
187.976 188.01 188.187 176.821 175.59 176.497 177.072 174.18 175.161 
175.675 176.678 177.312 172.605 173.635 174.115 175.174 175.755 176.89 
177.613 171.032 172.014 172.436 173.507 174.044 175.232 175.926 177.172 
177.896 169.561 170.479 170.859 171.835 172.306 173.444 174.09 175.382 
176.1 177.368 177.972 168.118 169.024 169.442 170.359 170.841 171.811 
172.409 173.549 174.259 175.518 176.184 177.369 177.876 166.784 167.617 
168.091 169.011 169.604 170.517 171.147 172.068 172.741 173.793 174.504 
175.636 176.256 177.31 177.778 165.702 166.413 166.913 167.758 168.423 
169.349 170.054 170.938 171.577 172.459 173.099 174.093 174.743 175.774 
176.316 177.266 177.668 164.815 165.461 165.988 166.729 167.399 168.248 
168.96 169.839 170.464 171.317 171.868 172.768 173.331 174.312 174.848 
175.821 176.249 177.145 177.469 164.48 164.449 164.887 165.749 164.492 
164.969 165.967 166.309 167.218 164.607 165.096 166.2 166.594 167.554 
167.836 168.73 164.865 165.286 166.403 166.828 167.797 168.129 168.98 
169.298 170.154 165.248 165.577 166.593 166.999 167.95 168.324 169.184 
169.509 170.357 170.684 171.545 165.655 165.917 166.803 167.15 168.081 
168.475 169.435 169.77 170.687 170.948 171.832 172.102 172.988 166.086 
166.287 167.131 167.385 168.321 168.67 169.725 170.097 171.108 171.363 
172.229 172.436 173.279 173.561 174.44 166.602 166.747 167.619 167.803 
168.751 169.015 170.058 170.42 171.442 171.76 172.602 172.817 173.568 
173.823 174.64 174.975 175.811 167.2 167.309 168.179 168.344 169.259 
169.483 170.424 170.735 171.661 172.007 172.831 173.109 173.842 174.087 
174.854 175.152 175.966 176.289 177.051 167.833 169.122 168.573 168.81 
170.449 169.88 170.119 169.598 169.881 171.883 171.244 171.466 170.909 
171.195 170.688 171.007 173.475 172.774 173.009 172.339 172.612 172.025 
172.338 171.828 172.171 175.093 174.419 174.693 173.983 174.258 173.556 
173.851 173.22 173.54 173.002 173.316 176.633 176.022 176.317 175.661 
175.935 175.242 175.52 174.83 175.138 174.479 174.78 174.156 174.404 
178.048 177.519 177.837 177.245 177.536 176.882 177.153 176.485 176.787 
176.131 176.441 175.75 175.999 175.277 175.482 179.256 178.843 179.184 
178.707 179.047 178.468 178.771 178.11 178.401 177.746 178.052 177.403 
177.66 176.947 177.131 176.388 176.573 180.26 179.942 180.28 179.935 
180.297 179.887 180.232 179.695 179.985 179.352 179.613 178.969 179.208 
178.548 178.725 178.021 178.158 177.453 177.608 178.383 178.964 179.035 
179.812 179.543 179.645 180.462 180.558 181.415 180.057 180.215 181.046 
181.191 182.049 182.177 182.988 180.5 180.704 181.538 181.722 182.54 
182.722 183.51 183.648 184.36 180.848 181.102 181.897 182.129 182.892 
183.119 183.864 184.073 184.799 184.948 185.638 181.011 181.338 182.063 
182.369 183.083 183.374 184.092 184.356 185.047 185.282 185.946 186.153 
186.755 181 181.369 182.053 182.42 183.129 183.486 184.219 184.534 
185.211 185.461 186.05 186.3 186.834 187.082 187.498 180.937 181.295 
181.965 182.353 183.067 183.475 184.214 184.601 185.283 185.578 186.152 
186.373 186.891 187.102 187.564 187.712 187.998 180.878 181.219 181.853 
182.241 182.904 183.341 184.011 184.475 185.106 185.528 186.094 186.423 
186.961 187.208 187.724 187.869 188.257 188.238 188.394 156.062 156.726 
156.175 155.823 157.576 156.939 156.481 155.916 155.582 158.476 157.824 
157.376 156.67 156.217 155.695 155.609 159.501 158.787 158.457 157.698 
157.374 156.599 156.519 156.051 156.487 160.79 159.966 159.745 158.95 
158.841 158.025 158.115 157.384 157.835 157.406 158.185 162.287 161.419 
161.259 160.41 160.371 159.598 159.756 159.09 159.497 158.973 159.58 
159.222 159.899 163.776 162.975 162.893 162.046 162.025 161.199 161.29 
160.621 160.894 160.437 160.863 160.53 161.005 160.733 161.234 165.157 
164.442 164.437 163.689 163.751 162.934 163.035 162.216 162.406 161.753 
162.092 161.659 162.093 161.771 162.229 161.964 162.46 166.469 165.805 
165.83 165.175 165.287 164.61 164.778 164.019 164.228 163.433 163.742 
163.054 163.498 162.971 163.476 163.056 163.552 163.222 163.712 155.749 
155.52 155.559 155.609 155.402 155.433 155.595 155.732 156.201 155.587 
155.493 155.841 155.913 156.496 156.647 157.338 156.499 156.041 156.489 
156.384 157.054 157.095 157.799 157.891 158.543 158.111 157.343 157.701 
157.305 157.926 157.781 158.447 158.425 159.066 159.093 159.705 159.781 
159.029 159.239 158.679 159.151 158.795 159.372 159.17 159.788 159.707 
160.345 160.317 160.95 161.154 160.534 160.7 160.158 160.536 160.089 
160.589 160.228 160.792 160.555 161.169 161.04 161.65 161.587 162.183 
162.404 161.828 162.021 161.514 161.867 161.432 161.887 161.49 161.986 
161.65 162.179 161.936 162.475 162.317 162.852 162.781 163.343 163.628 
163.082 163.275 162.79 163.103 162.688 163.079 162.714 163.14 162.809 
163.252 162.959 163.416 163.176 163.655 163.489 164.017 163.943 164.534 
155.918 155.831 155.95 156.391 156.425 156.177 156.564 156.658 157.255 
157.508 157.041 157.339 157.11 157.599 157.649 158.243 158.641 158.158 
158.37 158.017 158.399 158.21 158.714 158.697 159.342 159.759 159.244 
159.398 159.005 159.329 159.075 159.563 159.391 160.046 160.014 160.977 
161.004 160.425 160.583 160.071 160.382 160.033 160.571 160.355 161.1 
160.963 161.958 162.004 163.317 162.275 161.734 161.96 161.388 161.73 
161.237 161.817 161.5 162.354 162.17 163.228 163.154 164.392 164.508 
165.839 163.478 163.007 163.325 162.819 163.238 162.72 163.323 162.913 
163.793 163.551 164.643 164.505 165.67 165.631 166.79 166.883 167.937 
164.7 164.243 164.645 164.198 164.706 164.251 164.892 164.481 165.322 
165.044 166.076 165.918 166.998 166.889 167.9 167.841 168.743 168.747 
169.506 176.373 175.281 175.626 175.167 174.093 174.454 173.949 174.317 
173.759 172.849 173.192 172.595 172.99 172.394 172.796 172.186 171.516 
171.869 171.191 171.574 170.932 171.357 170.768 171.196 170.633 170.086 
170.449 169.749 170.138 169.483 169.893 169.298 169.748 169.215 169.672 
169.153 168.704 169.01 168.314 168.69 168.06 168.464 167.863 168.287 
167.732 168.21 167.703 168.189 167.692 167.456 167.691 166.989 167.306 
166.697 167.075 166.504 166.888 166.331 166.75 166.258 166.732 166.292 
166.765 166.358 166.303 166.497 165.797 166.054 165.459 165.785 165.262 
165.603 165.1 165.444 164.984 165.379 164.991 165.429 165.083 165.539 
165.255 165.27 165.409 164.746 164.942 164.378 164.638 164.156 164.454 
164.007 164.312 163.888 164.217 163.834 164.213 163.874 164.306 164.02 
164.512 164.314 
POINT_DATA 1002
SCALARS Distance double
LOOKUP_TABLE default
168.361 167.111 167.069 168.416 167.155 169.675 168.575 167.342 169.843 
171.041 168.802 167.603 170.088 171.355 172.553 169.132 167.955 170.385 
171.707 172.965 174.162 169.595 168.418 170.812 172.104 173.385 174.593 
175.733 170.122 168.974 171.34 172.597 173.844 175.042 176.182 177.217 
170.653 169.563 171.853 173.101 174.328 175.499 176.62 177.651 178.536 
171.179 170.142 172.341 173.555 174.758 175.91 176.995 178.003 178.89 
179.631 171.669 170.687 172.801 173.977 175.122 176.234 177.283 178.252 
179.138 179.912 180.555 165.833 165.772 164.519 164.421 163.122 165.863 
162.98 161.628 164.472 166.056 161.512 160.229 162.993 164.606 166.308 
160.217 159.122 161.588 163.126 164.846 166.682 159.13 158.222 160.341 
161.828 163.491 165.358 167.263 158.151 157.345 159.214 160.676 162.363 
164.185 166.123 167.965 157.302 156.524 158.311 159.695 161.341 163.081 
164.969 166.922 168.672 156.706 155.973 157.738 159.062 160.544 162.057 
163.764 165.773 167.752 169.376 156.2 157.154 156.908 158.024 157.856 
158.481 158.907 158.784 159.415 159.932 159.87 160.028 160.272 160.79 
161.298 161.66 162.106 161.662 161.931 162.25 162.83 164.344 164.737 
164.065 163.949 163.996 164.273 164.913 166.929 167.104 166.654 166.276 
166.13 166.34 166.73 167.216 168.761 168.843 168.561 168.055 167.646 
167.852 168.414 168.834 169.1 170.032 170.146 169.887 169.437 168.811 
168.68 169.257 169.93 170.287 170.478 171.793 171.565 172.991 171.285 
172.761 174.301 170.769 172.481 174.189 175.61 170.117 172.075 174.015 
175.548 176.748 169.948 171.802 173.736 175.233 176.509 177.752 170.432 
171.995 173.641 174.835 175.975 177.379 178.731 170.94 172.343 173.822 
174.832 175.695 176.972 178.429 179.635 171.134 172.457 173.938 175.135 
176.014 177.033 178.27 179.435 180.402 171.242 172.472 173.892 175.292 
176.45 177.449 178.432 179.368 180.233 181.06 172.926 174.249 174.164 
175.527 175.477 175.349 176.722 176.67 176.625 176.479 177.899 177.878 
177.853 177.777 177.576 179.022 179.109 179.108 179.042 178.858 178.579 
179.969 180.146 180.212 180.194 180.047 179.798 179.494 180.76 180.99 
181.102 181.148 181.081 180.902 180.659 180.329 181.486 181.798 181.957 
182.034 182.019 181.877 181.685 181.431 181.039 182.018 182.535 183.111 
183.657 184.224 182.846 184.591 185.124 183.881 182.979 185.158 185.621 
184.629 183.954 183.008 185.678 186.084 185.187 184.676 183.888 182.861 
186.75 187.08 186.12 185.405 184.587 183.607 182.616 188.084 188.2 
187.438 186.445 185.371 184.316 183.323 182.38 188.731 188.642 188.267 
187.332 186.21 185.094 184.032 183.017 182.019 188.563 188.439 188.24 
187.538 186.659 185.704 184.659 183.567 182.498 181.488 181.165 182.106 
181.301 182.114 181.535 183.177 182.153 181.805 183.053 184.368 182.263 
181.919 182.935 184.272 185.376 182.32 181.751 182.966 184.092 185.289 
185.83 182.163 181.379 182.969 183.943 184.975 185.687 186.262 181.79 
180.975 182.66 183.62 184.572 185.369 186.159 187.196 181.344 180.587 
182.121 183.009 183.986 184.935 185.862 186.92 187.986 180.887 180.148 
181.592 182.37 183.297 184.326 185.345 186.342 187.32 188.093 171.095 
172.309 172.237 173.558 173.408 173.662 174.793 174.53 174.961 175.133 
175.982 175.668 176.237 176.415 176.56 177.177 176.791 177.533 177.697 
177.795 177.788 178.269 177.832 178.768 179.052 179.053 178.991 178.807 
179.197 178.781 179.711 180.201 180.365 180.217 179.957 179.652 179.983 
179.572 180.404 180.901 181.286 181.322 181.041 180.675 180.396 169.533 
170.626 168.832 170.042 168.044 171.803 169.334 167.154 171.246 172.966 
168.536 166.274 170.634 172.498 174.17 167.782 165.636 169.996 172.022 
173.828 175.396 167.208 165.291 169.374 171.46 173.353 175.052 176.529 
166.812 165.113 168.839 170.881 172.735 174.468 176.107 177.564 166.571 
165.056 168.425 170.382 172.181 173.822 175.464 177.078 178.485 166.494 
165.138 168.158 169.975 171.732 173.321 174.848 176.422 177.945 179.215 