# vtk DataFile Version 4.0
vtk output
ASCII
DATASET POLYDATA
POINTS 1002 float
-120.557 -111.236 55.0101 -120.679 -110.711 53.596 -120.083 -110.919 53.8975 
-119.834 -111.432 55.5446 -119.279 -111.09 54.4551 -120.367 -111.871 56.6851 
-119.038 -111.723 56.1637 -118.464 -111.414 55.0693 -119.666 -112.269 57.2464 
-120.301 -113.06 58.218 -118.406 -112.281 56.6689 -117.859 -111.951 55.6226 
-119.05 -112.848 57.7409 -119.733 -113.725 58.68 -120.413 -114.767 59.4093 
-117.915 -113.036 57.1776 -117.334 -112.538 56.2451 -118.556 -113.64 58.2053 
-119.237 -114.488 59.162 -119.903 -115.52 59.9488 -120.519 -116.562 60.5919 
-117.355 -113.855 57.8201 -116.73 -113.188 56.9581 -117.998 -114.525 58.8296 
-118.689 -115.326 59.7804 -119.375 -116.342 60.5814 -119.974 -117.322 61.3602 
-120.494 -118.218 62.0935 -116.796 -114.776 58.4617 -116.197 -114.053 57.6619 
-117.429 -115.459 59.4777 -118.07 -116.185 60.5136 -118.763 -117.238 61.28 
-119.396 -118.277 62.0424 -119.902 -119.035 62.9391 -120.363 -119.751 63.719 
-116.374 -115.721 59.1319 -115.843 -115.03 58.3483 -117.013 -116.398 60.0814 
-117.609 -117.057 61.2006 -118.172 -118.081 62.0782 -118.743 -119.27 62.7554 
-119.243 -120.077 63.6057 -119.676 -120.645 64.484 -120.104 -121.297 65.1094 
-116.032 -116.543 59.9067 -115.582 -115.934 58.999 -116.615 -117.21 60.8611 
-117.224 -117.898 61.961 -117.696 -118.853 62.9698 -118.075 -120.056 63.6934 
-118.485 -121.016 64.4063 -118.916 -121.634 65.1983 -119.326 -122.234 65.8143 
-119.726 -122.894 66.1797 -115.735 -117.288 60.6742 -115.352 -116.741 59.6165 
-116.152 -117.935 61.7445 -116.67 -118.687 62.8443 -117.151 -119.619 63.8874 
-117.438 -120.717 64.6845 -117.698 -121.702 65.3305 -118.114 -122.432 66.0001 
-118.573 -123.077 66.5649 -118.968 -123.732 66.8893 -119.351 -124.327 67.0527 
-120.387 -110.153 52.4988 -119.769 -110.43 52.7107 -120.04 -109.439 51.4096 
-119.36 -109.801 51.5404 -119.621 -108.783 50.3218 -118.903 -110.691 53.2313 
-118.774 -109.155 50.5038 -119.012 -108.205 49.388 -118.438 -110.177 52.0282 
-118.047 -111.115 53.8789 -118.041 -108.476 49.8394 -118.216 -107.414 48.8567 
-117.833 -109.538 51.0889 -117.556 -110.736 52.72 -117.371 -111.657 54.5619 
-117.407 -107.565 49.6306 -117.509 -106.357 48.7617 -117.25 -108.736 50.6682 
-116.937 -110.189 51.8557 -116.724 -111.408 53.4715 -116.695 -112.163 55.324 
-116.94 -106.504 49.6525 -117.044 -105.405 48.9656 -116.82 -107.75 50.6304 
-116.36 -109.397 51.4932 -115.945 -111.088 52.5399 -115.927 -112.056 54.2316 
-116.059 -112.802 56.1237 -116.451 -105.674 49.8068 -116.672 -104.791 49.4243 
-116.322 -106.83 50.6518 -115.873 -108.462 51.468 -115.294 -110.437 52.0903 
-115.207 -111.95 53.2314 -115.464 -112.783 55.0782 -115.661 -113.728 56.9043 
-115.945 -105.197 50.2388 -116.276 -104.404 50.0962 -115.703 -106.228 50.8093 
-115.345 -107.672 51.5666 -114.851 -109.507 52.135 -114.702 -111.329 52.8558 
-114.983 -112.643 54.2535 -115.244 -113.641 56.012 -115.389 -114.756 57.6046 
-115.568 -104.898 50.9475 -115.889 -104.105 50.8492 -115.225 -105.871 51.3101 
-114.855 -107.128 51.8743 -114.5 -108.639 52.4244 -114.376 -110.293 53.0583 
-114.568 -111.885 54.1037 -114.796 -113.269 55.4753 -114.92 -114.523 56.8582 
-115.093 -115.695 58.2142 -115.38 -104.37 51.7475 -115.038 -105.333 52.0377 
-114.86 -104.834 52.9156 -114.334 -105.982 53.2864 -114.067 -105.568 54.1388 
-114.559 -106.513 52.4402 -113.27 -106.804 54.453 -113.128 -106.475 55.275 
-113.707 -107.24 53.5746 -114.149 -107.846 52.8564 -112.381 -107.628 55.6754 
-112.731 -107.323 56.5371 -112.771 -107.986 54.7066 -113.514 -108.488 53.9127 
-114.055 -109.265 53.4299 -112.517 -108.345 57.1001 -113.2 -108.155 57.8715 
-112.49 -108.7 56.1059 -113.16 -109.174 55.1813 -113.818 -109.846 54.7283 
-114.218 -110.834 54.4316 -113.584 -109.348 58.3124 -114.151 -109.361 58.8903 
-113.264 -109.591 57.5694 -113.527 -110.076 56.6583 -113.895 -110.714 56.1265 
-114.055 -111.564 55.9431 -114.343 -112.554 55.6566 -114.754 -111.002 59.2222 
-115.087 -111.022 59.7128 -114.401 -111.132 58.7456 -114.358 -111.474 58.0862 
-114.413 -112.02 57.4996 -114.148 -112.742 57.2458 -114.001 -113.576 57.0121 
-114.374 -114.252 56.7738 -115.472 -112.94 60.2853 -115.692 -112.774 60.715 
-115.137 -113.161 59.9174 -114.915 -113.386 59.4956 -114.86 -113.704 58.9895 
-114.521 -114.225 58.6138 -114.009 -114.893 58.3178 -114.019 -115.466 58.0092 
-114.545 -115.723 57.9471 -115.704 -114.638 61.6032 -115.912 -114.328 61.8921 
-115.384 -115.002 61.3316 -115.05 -115.259 61.0667 -114.882 -115.432 60.6973 
-114.659 -115.729 60.2986 -114.202 -116.214 59.9687 -113.992 -116.695 59.6182 
-114.342 -116.939 59.3531 -114.904 -116.903 59.3837 -115.373 -117.893 61.0722 
-114.934 -118.115 61.0722 -115.264 -119.244 62.847 -114.347 -118.163 61.2968 
-114.784 -119.455 63.1488 -114.83 -120.731 64.686 -113.965 -117.939 61.638 
-114.074 -119.465 63.5243 -114.182 -120.875 65.1482 -114.018 -122.133 66.3914 
-114.101 -117.539 61.9294 -113.566 -119.284 63.7621 -113.311 -120.897 65.4314 
-113.178 -122.278 66.7762 -113.088 -123.403 67.9312 -114.448 -117.174 62.2833 
-113.64 -118.953 64.0431 -112.757 -120.755 65.6336 -112.289 -122.306 66.9364 
-112.255 -123.582 68.1588 -112.448 -124.655 69.3057 -114.725 -116.968 62.6539 
-114.056 -118.596 64.4912 -112.887 -120.349 66.1675 -111.826 -121.983 67.3697 
-111.555 -123.414 68.396 -111.763 -124.756 69.5797 -112.037 -125.827 70.6406 
-115.069 -116.772 62.8382 -114.529 -118.354 64.7005 -113.462 -119.925 66.6392 
-112.048 -121.413 68.1089 -111.277 -122.808 69.0434 -111.257 -124.364 70.0449 
-111.325 -125.813 71.183 -111.416 -126.754 72.0126 -115.456 -116.411 62.9335 
-115.002 -118.102 64.5968 -114.152 -119.686 66.5391 -112.777 -121.065 68.3622 
-111.623 -122.261 69.6265 -111.191 -123.705 70.6406 -110.91 -125.372 71.7724 
-110.603 -126.633 72.7169 -110.672 -127.333 73.2186 -115.756 -115.982 63.0612 
-115.422 -117.718 64.4828 -114.806 -119.426 66.1866 -113.683 -120.911 68.028 
-112.447 -122.068 69.5934 -111.713 -123.259 70.8459 -111.148 -124.77 72.0918 
-110.415 -126.167 73.1994 -110.032 -127.034 73.8568 -110.339 -127.557 74.1255 
-115.654 -118.568 62.2939 -115.34 -120.142 64.04 -115.931 -119.39 63.4952 
-114.742 -121.766 65.7312 -115.471 -121.144 65.1853 -116.35 -120.364 64.6318 
-113.946 -123.14 67.4047 -114.846 -122.772 66.7728 -115.799 -122.181 66.2141 
-116.707 -121.432 65.5484 -113.24 -124.406 68.9817 -114.178 -124.129 68.3908 
-115.143 -123.774 67.6859 -116.059 -123.172 66.9713 -116.914 -122.414 66.2138 
-112.795 -125.667 70.3149 -113.668 -125.41 69.8566 -114.56 -125.161 69.1979 
-115.45 -124.74 68.3576 -116.391 -124.028 67.5625 -117.309 -123.213 66.8365 
-112.29 -126.733 71.5496 -113.243 -126.549 71.0641 -114.141 -126.333 70.5473 
-115.024 -126.043 69.8046 -116.031 -125.515 68.9043 -117.057 -124.755 68.1387 
-117.897 -123.932 67.4065 -111.585 -127.5 72.7374 -112.657 -127.486 72.1946 
-113.698 -127.305 71.6681 -114.691 -127.016 71.0464 -115.74 -126.631 70.2081 
-116.823 -126.071 69.3485 -117.722 -125.373 68.5756 -118.383 -124.606 67.746 
-111.111 -127.957 73.7326 -112.107 -128.222 73.2511 -113.189 -128.202 72.6959 
-114.322 -127.902 72.0286 -115.446 -127.516 71.2281 -116.516 -127.074 70.3971 
-117.466 -126.502 69.6115 -118.202 -125.871 68.7728 -118.785 -125.18 67.8701 
-111.009 -127.902 74.7353 -111.761 -128.527 74.3288 -112.071 -128.255 75.4567 
-112.696 -128.94 74.9342 -113.107 -128.422 76.0969 -112.699 -128.889 73.8098 
-113.925 -128.915 75.3761 -114.412 -128.465 76.3227 -113.728 -129.162 74.2299 
-113.895 -128.766 73.0667 -115.79 -128.922 75.6087 -116.5 -128.879 76.2503 
-115.342 -129 74.4969 -115.141 -128.972 73.2014 -115.204 -128.396 72.1104 
-117.945 -129.52 75.6324 -118.694 -129.478 76.0599 -117.26 -129.166 74.6613 
-116.717 -129.042 73.2793 -116.391 -128.815 72.042 -116.343 -128.024 71.1835 
-119.531 -130.042 75.2002 -120.102 -129.469 75.5671 -118.851 -129.831 74.4545 
-118.156 -129.397 73.2602 -117.639 -129.173 72.008 -117.371 -128.55 71.103 
-117.336 -127.49 70.3957 -120.555 -129.811 74.4495 -120.954 -128.882 74.8946 
-120.112 -130.182 73.8299 -119.493 -129.834 72.9475 -118.909 -129.391 71.885 
-118.581 -128.866 70.9716 -118.358 -127.892 70.2657 -118.213 -126.82 69.549 
-121.454 -129.172 73.8965 -121.757 -128.288 74.4127 -121.301 -129.907 73.2765 
-120.96 -129.93 72.5782 -120.328 -129.406 71.6987 -119.84 -128.851 70.7653 
-119.541 -128.124 69.9855 -119.186 -127.151 69.2885 -118.89 -126.174 68.5697 
-122.299 -128.521 73.5884 -122.596 -127.827 74.0981 -122.267 -129.273 72.9473 
-122.219 -129.594 72.3081 -121.707 -129.227 71.5566 -120.975 -128.614 70.6314 
-120.495 -128.056 69.7395 -120.131 -127.34 68.9971 -119.731 -126.425 68.3141 
-119.451 -125.415 67.6576 -110.259 -127.206 74.8037 -111.298 -127.392 75.628 
-110.879 -126.708 75.3802 -112.07 -126.87 76.5185 -112.036 -126.344 75.5538 
-112.55 -127.622 76.6086 -113.053 -126.621 76.7721 -113.248 -126.196 75.013 
-113.245 -127.091 77.6109 -113.589 -127.77 77.1662 -114.066 -126.474 75.9083 
-114.312 -125.899 74.0338 -114.114 -126.773 77.5534 -114.368 -127.206 77.7376 
-115.114 -127.996 76.9208 -115.174 -126.028 74.5175 -115.406 -125.15 73.1857 
-115.205 -126.433 76.2364 -115.473 -126.714 77.21 -116.178 -127.402 76.9801 
-117.454 -128.503 76.4762 -116.327 -125.277 73.3794 -116.511 -124.191 72.4776 
-116.367 -125.979 74.6087 -116.636 -126.301 75.8556 -117.238 -126.765 76.4306 
-118.354 -127.688 76.4084 -119.496 -128.732 76.1586 -117.334 -124.412 72.4798 
-117.447 -123.315 71.6636 -117.377 -125.4 73.3254 -117.619 -125.982 74.3799 
-118.041 -126.306 75.4191 -118.87 -126.839 76.0013 -119.967 -127.631 76.0402 
-120.689 -128.348 75.6329 -118.202 -123.459 71.6095 -118.226 -122.488 70.7844 
-118.251 -124.523 72.3243 -118.489 -125.417 73.107 -118.841 -125.888 74.1391 
-119.34 -126.178 75.0923 -120.19 -126.685 75.501 -121.083 -127.315 75.3978 
-121.56 -127.838 74.9999 -119.01 -122.453 70.757 -118.921 -121.615 69.9542 
-119.09 -123.395 71.4565 -119.306 -124.397 72.0835 -119.696 -125.155 72.8895 
[...]
CELL_DATA 2000
SCALARS Distance double
LOOKUP_TABLE default
171.485 171.262 171.648 172.215 171.064 171.434 172.078 172.473 173.222 
171.079 171.358 172.094 172.443 173.311 173.696 174.646 171.3 171.534 
172.343 172.623 173.568 173.906 174.927 175.282 176.291 171.582 171.841 
172.711 172.978 173.944 174.253 175.294 175.629 176.663 176.969 177.935 
171.961 172.196 173.132 173.388 174.363 174.651 175.696 176.03 177.094 
177.391 178.371 178.609 179.502 172.512 172.681 173.653 173.87 174.865 
175.103 176.144 176.449 177.537 177.848 178.85 179.076 179.946 180.134 
180.933 173.135 173.279 174.218 174.423 175.418 175.643 176.671 176.935 
177.992 178.29 179.282 179.533 180.383 180.571 181.33 181.504 182.216 
173.738 173.877 174.762 174.96 175.917 176.17 177.177 177.453 178.448 
178.723 179.638 179.9 180.713 180.946 181.684 181.88 182.563 182.725 
183.347 170.952 170.006 170.588 170.734 168.964 169.592 169.782 170.341 
170.498 167.877 168.515 168.709 169.348 169.567 170.158 170.444 166.725 
167.392 167.572 168.251 168.534 169.212 169.552 170.192 170.592 165.548 
166.234 166.471 167.142 167.458 168.172 168.567 169.269 169.658 170.341 
170.789 164.517 165.131 165.454 166.108 166.447 167.127 167.529 168.255 
168.68 169.381 169.819 170.544 171.103 163.774 164.226 164.529 165.144 
165.5 166.149 166.529 167.229 167.705 168.428 168.96 169.65 170.247 
170.975 171.664 163.316 163.598 163.817 164.297 164.647 165.236 165.628 
166.272 166.775 167.507 168.149 168.878 169.557 170.236 170.932 171.632 
172.337 163.051 163.234 163.424 163.726 164.054 164.496 164.907 165.449 
165.954 166.635 167.3 168.082 168.811 169.557 170.242 170.938 171.604 
172.303 172.963 163.004 163.217 163.189 163.427 163.532 163.481 163.72 
163.694 164.02 163.8 163.753 163.969 163.986 164.299 164.359 164.804 
164.252 164.029 164.212 164.198 164.56 164.645 165.149 165.249 165.856 
165.274 164.724 164.92 164.63 165.088 165.032 165.678 165.711 166.44 
166.485 167.249 166.905 166.11 166.401 165.761 166.316 165.933 166.692 
166.494 167.303 167.217 168.032 168.018 168.799 168.892 168.028 168.452 
167.62 168.231 167.566 168.347 167.856 168.646 168.292 169.045 168.871 
169.629 169.569 170.267 170.898 170.128 170.629 169.816 170.405 169.651 
170.345 169.705 170.407 169.838 170.476 170.036 170.698 170.464 171.167 
171.029 171.669 172.636 172.046 172.537 171.89 172.397 171.724 172.258 
171.632 172.186 171.599 172.123 171.567 172.116 171.686 172.334 172.049 
172.72 172.479 173.072 173.95 173.696 174.332 175.336 173.385 174.076 
175.178 175.801 176.793 173.169 173.791 174.887 175.583 176.616 177.203 
178.035 173.152 173.65 174.646 175.262 176.243 176.901 177.742 178.29 
178.976 173.248 173.69 174.631 175.09 175.972 176.509 177.312 177.887 
178.615 179.156 179.864 173.378 173.814 174.789 175.164 176.012 176.361 
177.072 177.486 178.186 178.739 179.524 180.108 180.894 173.521 173.968 
174.975 175.36 176.234 176.511 177.169 177.382 177.967 178.356 179.123 
179.738 180.598 181.17 181.874 173.609 174.086 175.078 175.521 176.423 
176.751 177.442 177.584 178.105 178.275 178.945 179.403 180.269 180.85 
181.587 182.039 182.525 173.631 174.112 175.073 175.563 176.487 176.904 
177.675 177.885 178.449 178.527 179.123 179.371 180.167 180.607 181.35 
181.75 182.233 182.556 182.904 174.366 175.737 175.149 175.407 177.173 
176.582 176.836 176.248 176.561 178.426 177.975 178.265 177.718 178.057 
177.487 177.85 179.411 179.116 179.483 179.084 179.461 178.981 179.355 
178.794 179.114 180.361 180.088 180.538 180.228 180.659 180.292 180.664 
180.208 180.498 179.967 180.215 181.409 181.119 181.614 181.306 181.78 
181.443 181.844 181.432 181.738 181.261 181.52 181.006 181.243 182.329 
182.141 182.608 182.37 182.83 182.547 182.966 182.6 182.951 182.502 
182.817 182.313 182.593 182.037 182.245 182.926 182.895 183.339 183.24 
183.674 183.502 183.904 183.651 184.007 183.674 183.999 183.592 183.876 
183.381 183.582 183.002 183.124 183.316 183.369 183.867 183.867 184.348 
184.254 184.668 184.49 184.842 184.612 184.921 184.642 184.899 184.54 
184.715 184.251 184.347 183.8 183.861 183.718 184.745 184.253 184.35 
185.833 185.349 185.401 184.894 184.891 186.77 186.346 186.391 185.93 
185.885 185.354 185.225 187.995 187.362 187.429 186.882 186.855 186.32 
186.169 185.604 185.399 189.647 188.864 188.874 188.072 187.984 187.314 
187.169 186.559 186.331 185.735 185.487 190.822 190.396 190.297 189.559 
189.265 188.492 188.23 187.576 187.322 186.686 186.372 185.769 185.46 
191.07 191.074 191.011 190.661 190.316 189.658 189.241 188.586 188.263 
187.653 187.293 186.647 186.237 185.652 185.266 190.977 191.07 191.165 
191.103 190.975 190.538 190.138 189.499 189.074 188.494 188.102 187.511 
187.041 186.411 185.926 185.365 184.909 190.98 191.012 191.153 191.213 
191.268 191.093 190.809 190.291 189.754 189.177 188.664 188.17 187.672 
187.135 186.586 186.007 185.473 184.936 184.435 183.518 183.662 183.875 
184.567 184.08 184.181 184.893 185.065 185.728 184.568 184.689 185.385 
185.488 186.088 186.155 186.684 184.78 185.058 185.711 185.918 186.45 
186.516 187.004 187.105 187.824 184.684 185.07 185.67 186.033 186.553 
186.762 187.246 187.422 188.173 188.474 189.428 184.47 184.874 185.448 
185.857 186.4 186.732 187.251 187.557 188.26 188.701 189.575 190.001 
190.647 184.189 184.616 185.179 185.607 186.167 186.55 187.079 187.449 
188.053 188.56 189.269 189.843 190.375 190.752 190.925 183.813 184.27 
184.795 185.277 185.826 186.287 186.81 187.219 187.717 188.182 188.728 
189.309 189.799 190.291 190.536 190.792 190.845 183.373 183.839 184.31 
184.809 185.313 185.848 186.368 186.868 187.33 187.771 188.188 188.681 
189.118 189.655 190.028 190.416 190.627 190.8 190.901 173.964 174.994 
174.774 175.402 176.163 175.883 176.523 176.262 176.857 177.386 177.101 
177.739 177.441 178 177.677 178.077 178.564 178.302 178.89 178.612 
179.093 178.778 179.102 178.725 178.886 179.659 179.423 179.936 179.666 
180.074 179.779 180.098 179.736 179.957 179.484 179.643 180.612 180.436 
180.919 180.656 181.05 180.739 181.111 180.765 181.115 180.669 180.953 
180.399 180.676 181.414 181.298 181.794 181.592 182.016 181.737 182.145 
181.829 182.223 181.855 182.155 181.699 181.906 181.436 181.671 182.149 
182.055 182.565 182.421 182.873 182.671 183.089 182.842 183.22 182.917 
183.174 182.78 182.882 182.463 182.532 182.21 182.372 182.842 182.766 
183.271 183.165 183.625 183.477 183.896 183.71 184.094 183.851 184.151 
183.777 183.917 183.416 183.46 182.994 183.096 182.795 183.005 173.223 
172.46 173.321 174.282 171.679 172.607 173.648 174.462 175.453 170.779 
171.807 172.929 173.842 174.876 175.673 176.668 169.885 170.874 172.051 
173.079 174.192 175.076 176.101 176.896 177.877 169.356 170.093 171.255 
172.224 173.433 174.373 175.47 176.314 177.341 178.108 179.032 169.24 
169.749 170.828 171.597 172.823 173.691 174.852 175.691 176.741 177.547 
178.509 179.227 180.03 169.26 169.684 170.659 171.294 172.443 173.203 
174.347 175.128 176.172 176.946 177.899 178.656 179.505 180.162 180.861 
169.313 169.675 170.549 171.109 172.137 172.836 173.904 174.656 175.678 
176.414 177.351 178.062 178.926 179.612 180.387 180.978 181.627 169.455 
169.731 170.507 170.962 171.854 172.468 173.425 174.162 175.157 175.921 
176.869 177.563 178.422 179.073 179.877 180.505 181.232 181.762 182.361 
169.792 170.664 170.397 170.835 171.642 171.33 171.762 171.534 172.097 
172.726 172.358 172.758 172.474 173.018 172.869 173.583 173.911 173.505 
173.923 173.544 174.1 173.858 174.62 174.494 175.331 175.145 174.747 
175.236 174.819 175.41 175.069 175.844 175.637 176.503 176.323 177.097 
176.366 176.004 176.543 176.173 176.788 176.442 177.165 176.907 177.71 
177.512 178.262 178.026 178.657 177.57 177.232 177.803 177.476 178.127 
177.809 178.522 178.224 178.971 178.715 179.447 179.191 179.842 179.543 
180.113 178.772 178.452 179.06 178.749 179.447 179.152 179.912 179.6 
180.361 180.031 180.764 180.436 181.108 180.769 181.348 180.99 181.482 
179.942 179.659 180.283 180.005 180.702 180.455 181.211 180.962 181.699 
181.411 182.088 181.771 182.377 182.042 182.559 182.204 182.627 182.263 
182.612 180.78 182.2 181.375 181.162 183.698 182.848 182.67 181.809 
181.628 185.282 184.415 184.271 183.377 183.216 182.328 182.158 186.84 
186.03 185.91 185.018 184.812 183.903 183.691 182.832 182.623 188.181 
187.481 187.349 186.587 186.336 185.453 185.125 184.271 184.01 183.22 
182.973 189.331 188.678 188.456 187.826 187.576 186.848 186.486 185.647 
185.289 184.507 184.238 183.495 183.216 190.294 189.731 189.422 188.8 
188.495 187.901 187.594 186.907 186.533 185.755 185.395 184.662 184.353 
183.651 183.329 190.838 190.522 190.221 189.684 189.283 188.716 188.369 
187.84 187.508 186.887 186.481 185.767 185.359 184.679 184.32 183.673 
183.326 190.95 190.852 190.63 190.315 189.924 189.43 188.996 188.502 
188.132 187.666 187.282 186.718 186.265 185.62 185.188 184.568 184.194 
183.599 183.249 180.815 181.293 181.469 182.259 181.705 181.976 182.871 
182.978 183.769 182.043 182.394 183.42 183.627 184.506 184.541 185.337 
182.359 182.726 183.821 184.164 185.172 185.307 186.151 186.146 186.9 
182.598 182.989 184.011 184.475 185.551 185.906 186.87 186.981 187.777 
187.702 188.341 182.58 183.068 183.958 184.509 185.523 186.101 187.156 
187.57 188.481 188.576 189.254 189.093 189.586 182.316 182.882 183.733 
184.321 185.262 185.913 186.94 187.605 188.558 189.019 189.703 189.842 
190.283 190.188 190.496 182.017 182.579 183.466 184.055 184.988 185.607 
186.555 187.237 188.105 188.76 189.381 189.864 190.226 190.507 190.726 
190.811 190.926 181.778 182.316 183.193 183.781 184.676 185.294 186.155 
186.797 187.546 188.171 188.71 189.264 189.61 190.089 190.341 190.698 
190.849 190.992 191.003 179.985 178.797 179.72 180.373 177.574 178.474 
179.076 180.052 180.701 176.405 177.257 177.825 178.743 179.36 180.342 
180.995 175.245 176.085 176.636 177.523 178.13 179.049 179.7 180.665 
181.345 174.082 174.9 175.407 176.303 176.88 177.82 178.46 179.421 
180.101 181.06 181.682 172.963 173.728 174.187 175.048 175.575 176.511 
177.098 178.106 178.747 179.781 180.374 181.317 181.744 171.898 172.607 
173.032 173.847 174.366 175.233 175.765 176.694 177.253 178.298 178.853 
179.895 180.306 181.213 181.484 170.936 171.57 171.968 172.721 173.243 
174.073 174.596 175.422 175.892 176.795 177.28 178.294 178.73 179.701 
180.01 180.886 181.156 170.111 170.684 171.077 171.726 172.21 172.974 
173.48 174.273 174.698 175.492 175.89 176.775 177.202 178.143 178.519 
179.415 179.731 180.596 180.919 169.794 169.681 170.1 170.81 169.532 
170.011 170.782 171.161 171.912 169.417 169.872 170.67 171.101 171.858 
172.291 173.095 169.528 169.847 170.615 170.982 171.723 172.168 172.964 
173.458 174.269 169.798 170.049 170.778 171.025 171.736 172.067 172.861 
173.312 174.165 174.628 175.455 170.042 170.304 171.037 171.26 171.965 
172.195 172.972 173.307 174.181 174.586 175.472 175.877 176.74 170.36 
170.55 171.288 171.514 172.232 172.46 173.221 173.503 174.35 174.692 
175.572 175.946 176.816 177.204 178.042 170.853 170.933 171.609 171.775 
172.47 172.7 173.455 173.748 174.576 174.896 175.743 176.077 176.925 
177.29 178.13 178.495 179.287 171.352 171.413 171.986 172.103 172.724 
172.926 173.657 173.956 174.794 175.122 175.97 176.272 177.1 177.419 
178.263 178.609 179.442 179.755 180.521 171.745 172.51 172.204 172.384 
173.538 173.084 173.306 172.914 173.138 174.967 174.332 174.59 174.018 
174.299 173.812 174.13 176.605 175.916 176.199 175.507 175.812 175.176 
175.529 174.971 175.336 178.234 177.581 177.887 177.193 177.494 176.805 
177.14 176.5 176.845 176.239 176.546 179.79 179.195 179.534 178.879 
179.194 178.504 178.829 178.154 178.487 177.818 178.106 177.439 177.692 
181.22 180.708 181.074 180.494 180.831 180.187 180.524 179.857 180.208 
179.513 179.828 179.09 179.352 178.621 178.874 182.493 182.067 182.438 
181.955 182.289 181.744 182.07 181.494 181.832 181.214 181.523 180.832 
181.095 180.353 180.588 179.84 180.062 183.608 183.263 183.63 183.231 
183.557 183.097 183.399 182.917 183.22 182.711 182.973 182.404 182.619 
182.001 182.204 181.533 181.712 180.988 181.134 181.924 182.539 182.605 
183.337 182.998 183.154 183.916 184.032 184.784 183.372 183.548 184.302 
184.514 185.324 185.478 186.232 183.744 183.927 184.693 184.891 185.73 
185.951 186.759 186.886 187.558 184.018 184.28 185.082 185.311 186.146 
186.366 187.166 187.338 187.982 188.076 188.602 184.186 184.502 185.309 
185.627 186.43 186.72 187.485 187.71 188.366 188.466 188.97 189.012 
189.466 184.321 184.648 185.435 185.78 186.545 186.877 187.612 187.93 
188.671 188.882 189.52 189.508 189.974 189.89 190.286 184.366 184.731 
185.482 185.859 186.597 186.938 187.626 187.969 188.714 189.099 189.876 
190.086 190.628 190.528 190.809 190.651 190.857 184.291 184.682 185.362 
185.798 186.487 186.909 187.546 187.921 188.541 188.992 189.693 190.191 
190.771 190.997 191.211 191.122 191.119 191.012 191.014 162.914 163.212 
162.993 162.824 163.6 163.32 163.181 162.904 162.631 164.246 163.781 
163.63 163.311 163.162 162.759 162.547 165.313 164.625 164.458 163.929 
163.92 163.472 163.499 162.977 163.093 166.603 165.878 165.758 165.027 
165.022 164.444 164.604 164.106 164.335 163.844 164.189 167.761 167.154 
167.072 166.401 166.337 165.688 165.73 165.222 165.393 165.004 165.266 
164.942 165.318 168.789 168.224 168.114 167.568 167.508 166.947 166.921 
166.352 166.401 165.95 166.159 165.863 166.226 166.003 166.475 169.842 
169.254 169.137 168.563 168.546 168.037 168.122 167.567 167.671 167.074 
167.29 166.826 167.253 166.947 167.492 167.242 167.805 170.854 170.327 
170.264 169.663 169.679 169.137 169.311 168.805 169.031 168.452 168.698 
168.133 168.533 168.117 168.66 168.341 168.883 168.597 169.089 162.729 
162.572 162.556 162.414 162.323 162.345 162.25 162.336 162.472 162.183 
162.085 162.115 162.258 162.626 162.754 163.251 162.698 162.217 162.306 
162.3 162.891 163.074 163.74 163.79 164.322 163.869 163.129 163.169 
162.827 163.407 163.477 164.193 164.273 164.752 164.751 165.141 165.138 
164.442 164.447 163.914 164.3 164.135 164.74 164.727 165.193 165.138 
165.505 165.508 165.966 166.376 165.724 165.776 165.195 165.453 165.091 
165.56 165.374 165.873 165.705 166.172 166.027 166.54 166.476 167.004 
167.716 167.054 167.168 166.541 166.788 166.28 166.687 166.33 166.836 
166.566 167.094 166.868 167.393 167.21 167.701 167.559 167.99 169.003 
168.422 168.56 167.969 168.207 167.652 167.997 167.539 167.973 167.627 
168.09 167.827 168.267 168.059 168.456 168.28 168.641 168.492 168.858 
162.793 162.52 162.726 162.965 162.567 162.537 162.764 162.986 163.289 
163.249 162.846 162.951 162.898 163.192 163.361 163.65 164.292 163.758 
163.742 163.338 163.522 163.429 163.787 163.839 164.211 165.23 164.811 
164.856 164.321 164.402 164.008 164.328 164.199 164.71 164.67 165.261 
166.111 165.743 165.932 165.465 165.566 165.038 165.251 164.935 165.45 
165.353 166.052 165.999 166.808 167.059 166.676 166.886 166.511 166.666 
166.189 166.337 165.927 166.347 166.185 166.909 166.872 167.728 167.717 
168.677 167.974 167.599 167.755 167.425 167.607 167.223 167.394 166.986 
167.347 167.118 167.827 167.779 168.683 168.668 169.62 169.64 170.624 
168.864 168.483 168.655 168.302 168.544 168.179 168.451 168.05 168.446 
168.152 168.853 168.757 169.695 169.669 170.626 170.591 171.498 171.512 
172.375 179.456 178.296 178.697 178.303 177.116 177.522 177.136 177.517 
177.111 175.91 176.322 175.922 176.33 175.919 176.319 175.93 174.681 
175.084 174.635 175.061 174.613 175.063 174.649 175.117 174.75 173.473 
173.845 173.356 173.744 173.245 173.688 173.245 173.756 173.397 173.924 
173.601 172.297 172.638 172.134 172.481 171.971 172.347 171.897 172.351 
172.021 172.555 172.298 172.816 172.532 171.191 171.478 170.971 171.287 
170.817 171.155 170.752 171.119 170.812 171.259 171.046 171.55 171.33 
171.795 171.517 170.226 170.441 169.972 170.215 169.808 170.094 169.754 
170.074 169.771 170.141 169.883 170.34 170.112 170.599 170.346 170.8 
170.547 169.409 169.576 169.174 169.355 168.997 169.208 168.874 169.133 
168.789 169.107 168.753 169.159 168.836 169.332 169.048 169.575 169.325 
169.843 169.659 
POINT_DATA 1002
SCALARS Distance double
LOOKUP_TABLE default
172.013 171.316 171.128 171.808 170.854 172.829 171.645 170.696 172.786 
174.055 171.738 170.807 172.901 174.251 175.636 172.062 171.034 173.234 
174.571 175.962 177.278 172.431 171.284 173.644 174.957 176.359 177.671 
178.861 172.875 171.727 174.094 175.356 176.777 178.149 179.298 180.35 
173.445 172.367 174.643 175.861 177.218 178.621 179.785 180.758 181.695 
174.028 173.014 175.186 176.428 177.729 179.034 180.196 181.173 182.062 
182.895 174.592 173.611 175.671 176.9 178.207 179.413 180.473 181.474 
182.408 183.221 183.928 170.415 170.225 169.381 169.175 168.338 169.95 
168.035 167.26 168.922 169.835 166.883 166.033 167.8 168.886 169.939 
165.787 164.826 166.745 167.834 168.987 170.053 164.782 163.947 165.795 
166.806 167.95 169.108 170.301 163.951 163.428 164.859 165.852 166.936 
168.231 169.545 170.9 163.419 163.104 164.086 165.003 166.035 167.358 
168.862 170.268 171.632 163.181 162.872 163.676 164.406 165.316 166.516 
168.031 169.545 170.916 172.265 162.962 163.429 163.265 163.754 163.581 
163.981 163.931 163.895 164.227 164.694 164.267 164.599 164.442 165.017 
165.74 165.311 165.916 165.185 165.641 166.379 167.204 167.103 167.696 
166.789 166.974 167.463 168.07 168.825 169.286 169.695 168.968 168.936 
169.133 169.346 169.723 170.343 171.406 171.595 171.198 171.052 171.05 
171.041 171.045 171.331 171.831 173.139 173.176 173.071 172.927 172.801 
172.713 172.621 172.685 172.988 173.344 174.897 174.759 176.356 174.486 
176.293 177.736 174.206 175.976 177.585 178.79 174.129 175.612 177.148 
178.5 179.643 174.236 175.538 176.775 178.02 179.331 180.622 174.411 
175.729 176.78 177.672 178.871 180.374 181.688 174.572 175.949 177.035 
177.703 178.531 179.972 181.453 182.483 174.62 176.049 177.278 178.022 
178.598 179.711 181.128 182.185 182.911 174.58 176.025 177.392 178.363 
178.967 179.809 180.986 181.942 182.575 183.229 175.961 177.434 177.118 
178.759 178.607 178.45 179.805 179.89 179.893 179.729 180.82 180.994 
181.097 181.006 180.765 181.918 182.107 182.242 182.198 182.015 181.785 
182.82 183.089 183.296 183.364 183.296 183.144 182.855 183.386 183.814 
184.122 184.296 184.366 184.34 184.148 183.746 183.811 184.404 184.829 
185.055 185.176 185.225 185.137 184.863 184.436 184.115 184.835 185.288 
185.926 186.287 185.444 186.829 187.199 186.422 185.793 188.064 188.727 
187.4 186.749 185.969 189.806 190.411 188.758 187.798 186.963 186.064 
190.973 191.087 190.116 188.925 187.97 187.034 186.022 191.165 190.963 
190.899 189.937 188.865 187.957 186.889 185.801 191.087 190.885 191.248 
190.783 189.698 188.663 187.69 186.547 185.431 191.068 190.99 191.308 
191.252 190.397 189.172 188.159 187.169 186.045 184.944 183.212 184.299 
183.476 184.771 183.996 185.612 185.301 184.412 186.083 186.57 185.465 
184.47 186.372 186.896 187.55 185.282 184.303 186.269 187.021 187.825 
189.151 185.04 184.071 186.026 186.91 187.828 189.132 190.446 184.739 
183.76 185.76 186.718 187.614 188.722 189.955 190.728 184.316 183.367 
185.334 186.387 187.329 188.214 189.25 190.194 190.688 183.837 182.919 
184.782 185.828 186.893 187.773 188.582 189.525 190.367 190.829 174.139 
175.606 175.239 176.807 176.447 177.161 178.053 177.663 178.362 178.484 
179.195 178.84 179.428 179.496 179.335 180.241 179.903 180.382 180.421 
180.384 180.157 181.168 180.77 181.354 181.422 181.494 181.471 181.237 
181.96 181.518 182.26 182.441 182.576 182.603 182.395 182.09 182.69 
182.244 183.048 183.317 183.513 183.575 183.348 182.909 182.6 172.356 
173.471 171.555 172.797 170.688 174.679 171.939 169.714 174.055 175.898 
170.971 168.972 173.246 175.279 177.131 170.34 168.758 172.458 174.599 
176.537 178.358 170.151 168.814 171.994 174.02 175.939 177.751 179.423 
170.089 168.878 171.74 173.597 175.428 177.152 178.799 180.299 170.059 
169.003 171.5 173.172 174.945 176.665 178.241 179.743 181.123 170.133 
169.23 171.33 172.735 174.372 176.157 177.789 179.24 180.653 181.923 