# vtk DataFile Version 4.0
vtk output
ASCII
DATASET POLYDATA
POINTS 1002 float
-120.818 -113.388 54.2412 -120.661 -112.238 53.4232 -120.162 -112.468 53.7366 
-120.334 -113.635 54.7351 -119.583 -112.792 54.1673 -120.9 -114.527 55.3247 
-119.791 -113.932 55.3744 -118.974 -113.155 54.7751 -120.439 -114.768 56.0265 
-120.97 -115.562 56.7744 -119.232 -114.262 56.147 -118.447 -113.498 55.5512 
-119.938 -115.091 56.8275 -120.465 -115.923 57.5709 -121.015 -116.637 58.525 
-118.676 -114.718 56.9853 -117.95 -113.976 56.3473 -119.356 -115.587 57.6815 
-119.858 -116.451 58.4478 -120.334 -117.236 59.3599 -120.896 -117.943 60.3815 
-118.025 -115.418 57.8508 -117.333 -114.747 57.0778 -118.642 -116.266 58.6196 
-119.135 -117.157 59.4174 -119.561 -117.958 60.3333 -120.073 -118.732 61.2453 
-120.636 -119.519 61.9928 -117.331 -116.28 58.7598 -116.677 -115.664 57.8387 
-117.867 -116.978 59.712 -118.335 -117.833 60.5191 -118.805 -118.714 61.3408 
-119.29 -119.58 62.1417 -119.816 -120.459 62.7215 -120.356 -121.29 63.125 
-116.753 -117.134 59.6865 -116.174 -116.521 58.7392 -117.22 -117.699 60.7874 
-117.594 -118.439 61.6623 -118.051 -119.41 62.2965 -118.564 -120.463 62.8838 
-119.038 -121.454 63.3559 -119.521 -122.303 63.7056 -120.04 -122.99 64.044 
-116.244 -117.94 60.5878 -115.795 -117.311 59.7336 -116.637 -118.528 61.6082 
-116.93 -119.244 62.5102 -117.285 -120.212 63.1059 -117.76 -121.352 63.5426 
-118.22 -122.425 63.9339 -118.657 -123.263 64.294 -119.154 -123.876 64.6851 
-119.681 -124.338 65.0762 -115.685 -118.741 61.3966 -115.388 -118.107 60.64 
-115.949 -119.423 62.213 -116.172 -120.25 62.9793 -116.467 -121.219 63.6069 
-116.888 -122.251 64.1356 -117.335 -123.231 64.6024 -117.774 -124.014 65.0044 
-118.277 -124.576 65.4071 -118.832 -124.996 65.8196 -119.363 -125.327 66.1517 
-120.114 -111.25 52.7971 -119.52 -111.468 53.1101 -119.483 -110.235 52.1 
-118.875 -110.401 52.5081 -118.858 -109.239 51.3728 -118.895 -111.847 53.5577 
-118.324 -109.361 51.9513 -118.203 -108.344 50.7112 -118.323 -110.778 53.0912 
-118.3 -112.282 54.2226 -117.714 -108.428 51.4879 -117.549 -107.446 50.3236 
-117.768 -109.658 52.7159 -117.719 -111.242 53.8301 -117.774 -112.706 55.0213 
-117.058 -107.553 51.2498 -117.077 -106.418 50.3023 -117.013 -108.66 52.364 
-117.007 -110.121 53.4575 -117.079 -111.796 54.5616 -117.211 -113.307 55.7664 
-116.437 -106.708 51.212 -116.621 -105.405 50.4974 -116.199 -107.923 52.0776 
-116.16 -109.229 53.058 -116.305 -110.852 54.1399 -116.431 -112.529 55.298 
-116.527 -114.141 56.4824 -115.712 -105.897 51.251 -115.946 -104.581 50.7875 
-115.403 -107.283 51.8578 -115.335 -108.633 52.7092 -115.55 -110.117 53.8055 
-115.736 -111.7 55.0076 -115.794 -113.338 56.1445 -115.925 -115.03 57.3198 
-115.043 -105.175 51.4551 -115.291 -103.992 51.2032 -114.72 -106.521 51.824 
-114.586 -107.931 52.5033 -114.773 -109.462 53.5628 -115.059 -111.004 54.7942 
-115.227 -112.525 55.9501 -115.356 -114.207 57.0571 -115.571 -115.909 58.3173 
-114.708 -104.674 51.9989 -114.912 -103.638 51.8179 -114.426 -105.808 52.24 
-114.19 -107.05 52.6998 -114.16 -108.586 53.5382 -114.343 -110.291 54.6326 
-114.624 -111.877 55.7297 -114.897 -113.473 56.8164 -115.128 -115.205 58.0271 
-115.307 -116.816 59.3552 -114.618 -104.09 52.8681 -114.457 -105.139 53.1493 
-114.282 -104.733 54.397 -114.153 -105.721 54.7909 -113.634 -105.475 56.0098 
-114.232 -106.16 53.4703 -113.491 -106.473 56.4003 -112.888 -106.304 57.2492 
-114.024 -106.763 55.1289 -114.013 -107.492 53.985 -112.951 -107.421 57.6228 
-112.776 -107.309 58.3464 -113.678 -107.727 56.679 -113.937 -108.353 55.544 
-113.922 -109.34 54.7827 -113.319 -108.712 58.6505 -113.585 -108.719 59.4423 
-113.702 -108.964 57.8749 -114.023 -109.558 57.0153 -113.913 -110.44 56.1734 
-114.061 -111.288 55.7286 -114.362 -110.561 59.517 -114.741 -110.627 60.1203 
-114.321 -110.664 58.8346 -114.373 -111.094 58.2799 -114.127 -111.831 57.7099 
-114.013 -112.592 57.0944 -114.391 -113.106 56.7923 -115.218 -112.66 60.2656 
-115.587 -112.657 60.5386 -114.978 -112.787 59.7842 -114.775 -113.131 59.3995 
-114.353 -113.65 59.2277 -113.996 -114.219 58.8497 -114.192 -114.673 58.3172 
-114.703 -114.953 58.0605 -115.584 -114.493 61.1998 -115.979 -114.415 61.2722 
-115.251 -114.721 60.9644 -114.972 -115.175 60.6459 -114.507 -115.671 60.5653 
-113.92 -116.05 60.4951 -113.801 -116.374 60.0638 -114.276 -116.619 59.607 
-114.861 -116.736 59.4226 -115.676 -116.025 62.3216 -116.092 -115.901 62.3413 
-115.261 -116.269 62.2571 -114.938 -116.75 62.0456 -114.552 -117.294 61.8774 
-113.909 -117.642 61.7956 -113.406 -117.892 61.4696 -113.578 -118.159 60.9761 
-114.232 -118.284 60.7168 -114.881 -118.221 60.6764 -114.967 -119.401 61.8179 
-114.302 -119.666 61.7458 -114.284 -120.855 62.837 -113.497 -119.748 61.7022 
-113.521 -121.113 62.6916 -113.509 -122.266 63.8916 -112.926 -119.483 62.0374 
-112.697 -121.007 62.7225 -112.735 -122.299 63.8742 -112.825 -123.437 65.1996 
-113.135 -119.124 62.6551 -112.39 -120.536 63.2918 -112.066 -121.914 64.1927 
-112.125 -123.236 65.4342 -112.32 -124.584 66.683 -113.889 -118.911 63.0517 
-112.956 -120.246 64.0048 -112.135 -121.474 64.9112 -111.783 -122.76 65.9992 
-111.777 -124.331 67.1836 -111.992 -125.846 68.3016 -114.477 -118.597 63.2276 
-113.772 -120.244 64.3488 -112.912 -121.515 65.4486 -112.192 -122.537 66.6255 
-111.739 -123.848 67.8934 -111.585 -125.532 69.1008 -111.761 -126.891 70.0766 
-114.865 -118.105 63.3929 -114.332 -120.036 64.4954 -113.679 -121.628 65.6834 
-112.972 -122.659 66.9938 -112.246 -123.578 68.3938 -111.668 -124.897 69.8447 
-111.464 -126.396 71.0385 -111.595 -127.58 71.7674 -115.329 -117.711 63.4683 
-114.837 -119.596 64.6013 -114.245 -121.293 65.879 -113.628 -122.475 67.32 
-112.925 -123.391 68.6989 -112.158 -124.427 70.125 -111.638 -125.636 71.5899 
-111.488 -126.903 72.6514 -111.543 -128.073 73.1562 -115.825 -117.477 63.4649 
-115.401 -119.219 64.6083 -114.807 -120.803 65.9428 -114.174 -121.943 67.5425 
-113.563 -122.925 68.9924 -112.855 -124.059 70.1926 -112.185 -125.154 71.5477 
-111.808 -126.139 72.936 -111.672 -127.224 73.8619 -111.655 -128.363 74.2479 
-115.121 -120.143 62.5832 -114.323 -121.758 63.6459 -115.234 -121.081 63.271 
-113.572 -123.24 64.8705 -114.424 -122.843 64.3432 -115.47 -122.16 63.8978 
-113.037 -124.484 66.3343 -113.84 -124.234 65.7669 -114.835 -123.846 65.0838 
-115.921 -123.142 64.5923 -112.686 -125.73 67.8791 -113.498 -125.373 67.4109 
-114.408 -125.043 66.6736 -115.431 -124.598 65.958 -116.429 -123.967 65.3173 
-112.419 -126.869 69.4954 -113.251 -126.463 69.0328 -114.081 -126.153 68.3275 
-114.99 -125.804 67.4671 -115.981 -125.24 66.7208 -116.92 -124.652 65.8971 
-112.134 -127.767 71.0938 -112.98 -127.426 70.5452 -113.817 -127.189 69.8735 
-114.613 -127.061 68.9058 -115.585 -126.502 68.0286 -116.619 -125.756 67.2634 
-117.509 -125.175 66.3473 -111.853 -128.579 72.5029 -112.614 -128.431 71.8561 
-113.569 -128.113 71.2051 -114.417 -128.035 70.2966 -115.315 -127.685 69.3099 
-116.403 -126.887 68.4985 -117.403 -126.162 67.6793 -118.168 -125.609 66.7418 
-111.74 -129.183 73.7046 -112.296 -129.396 73.0169 -113.29 -129.077 72.298 
-114.336 -128.76 71.4644 -115.25 -128.457 70.5474 -116.24 -127.862 69.6889 
-117.284 -127.173 68.8388 -118.129 -126.587 67.9362 -118.772 -125.991 67.0292 
-111.932 -129.026 74.9169 -112.175 -129.795 74.3286 -112.713 -129.288 75.4373 
-113.281 -129.835 74.8288 -114.218 -129.214 75.7105 -112.996 -129.863 73.5362 
-115.04 -129.632 75.0943 -116.063 -129.417 75.7743 -114.341 -129.831 73.8694 
-114.207 -129.475 72.5753 -116.809 -129.918 75.1381 -117.664 -129.992 75.7369 
-116.024 -129.851 73.9854 -115.538 -129.613 72.6578 -115.329 -129.058 71.5925 
-118.267 -130.426 74.9234 -119.115 -130.283 75.5011 -117.522 -130.297 73.8966 
-116.94 -129.972 72.6229 -116.526 -129.329 71.6023 -116.289 -128.586 70.7239 
-119.797 -130.545 74.3861 -120.691 -130.205 74.9972 -118.941 -130.561 73.5234 
-118.278 -130.33 72.4674 -117.763 -129.768 71.4894 -117.405 -128.932 70.6738 
-117.281 -128.053 69.7981 -121.405 -130.432 73.7757 -122.085 -130.053 74.3986 
-120.551 -130.458 72.999 -119.753 -130.24 72.165 -119.103 -129.855 71.2953 
-118.587 -129.246 70.4299 -118.29 -128.431 69.5835 -118.198 -127.503 68.7668 
-122.625 -130.153 73.2853 -123.012 -129.707 73.8082 -122.029 -130.228 72.5796 
-121.287 -130.002 71.8169 -120.541 -129.632 71.0301 -119.883 -129.151 70.1945 
-119.372 -128.51 69.3227 -119.07 -127.706 68.5267 -118.911 -126.822 67.8099 
-123.413 -129.576 72.773 -123.684 -129.091 73.1879 -123.066 -129.764 72.1701 
-122.558 -129.693 71.4291 -121.879 -129.438 70.632 -121.17 -128.992 69.8759 
-120.547 -128.356 69.1284 -120.053 -127.613 68.3561 -119.722 -126.831 67.6314 
-119.516 -126.06 66.9234 -111.965 -127.713 74.9853 -112.406 -128.177 75.6805 
-112.495 -127.012 75.4365 -113.143 -127.3 76.1265 -113.246 -126.536 75.5193 
-113.46 -128.374 76.0654 -114.127 -126.732 76.1586 -114.32 -126.263 75.0763 
-114.437 -127.548 76.4272 -115.162 -128.605 76.1402 -115.372 -126.405 75.5627 
-115.622 -126.033 74.0843 -115.573 -126.919 76.4721 -116.174 -127.977 76.4586 
-116.958 -129.194 76.0984 -116.651 -126.099 74.4379 -116.824 -125.657 72.9943 
-116.811 -126.412 75.8415 -117.261 -127.167 76.4907 -117.877 -128.501 76.3261 
-118.533 -129.668 76.0178 -117.712 -125.581 73.3581 -117.761 -124.98 72.1576 
-117.939 -125.986 74.6858 -118.387 -126.465 75.7726 -118.899 -127.463 76.1156 
-119.49 -128.719 76.0243 -120.127 -129.653 75.741 -118.555 -124.808 72.4764 
-118.503 -124.127 71.3866 -118.841 -125.412 73.5833 -119.343 -125.948 74.6513 
-119.863 -126.66 75.3072 -120.392 -127.681 75.5151 -121.016 -128.699 75.5488 
-121.632 -129.506 75.2084 -119.255 -123.989 71.5415 -119.146 -123.312 70.5254 
-119.555 -124.65 72.5558 -120.05 -125.262 73.5816 -120.566 -125.914 74.3704 
-121.041 -126.784 74.7058 -121.58 -127.746 74.8589 -122.188 -128.589 74.8929 
-122.701 -129.278 74.5258 -119.863 -123.219 70.5702 -119.729 -122.555 69.6846 
-120.149 -123.863 71.4812 -120.596 -124.438 72.4722 -121.076 -124.997 73.3959 
[...]
CELL_DATA 2000
SCALARS Distance double
LOOKUP_TABLE default
172.572 172.513 172.935 173.717 172.504 172.917 173.739 174.118 174.899 
172.571 172.954 173.815 174.188 175.011 175.344 176.152 172.749 173.081 
173.974 174.325 175.196 175.509 176.345 176.656 177.506 173.037 173.323 
174.231 174.55 175.457 175.752 176.613 176.893 177.756 178.057 178.924 
173.421 173.67 174.574 174.848 175.749 176.038 176.921 177.201 178.08 
178.355 179.236 179.504 180.348 173.903 174.109 175.012 175.228 176.094 
176.34 177.216 177.507 178.413 178.706 179.599 179.854 180.692 180.918 
181.683 174.456 174.622 175.498 175.682 176.515 176.712 177.554 177.812 
178.716 179.026 179.927 180.207 181.018 181.247 181.97 182.18 182.832 
175.002 175.146 175.937 176.122 176.9 177.109 177.908 178.156 179.012 
179.314 180.179 180.482 181.256 181.513 182.183 182.412 183.02 183.23 
183.775 171.798 170.526 171.334 171.686 169.213 170.025 170.387 171.241 
171.654 167.957 168.74 169.123 169.959 170.412 171.254 171.721 166.77 
167.528 167.914 168.727 169.189 170.038 170.534 171.375 171.892 165.686 
166.387 166.731 167.5 167.906 168.781 169.281 170.185 170.726 171.592 
172.162 164.719 165.358 165.658 166.33 166.671 167.477 167.976 168.904 
169.494 170.411 171.007 171.892 172.517 163.772 164.385 164.643 165.277 
165.592 166.313 166.821 167.678 168.327 169.215 169.86 170.735 171.393 
172.291 172.988 162.943 163.452 163.688 164.266 164.574 165.266 165.773 
166.607 167.283 168.147 168.832 169.658 170.348 171.208 171.967 172.85 
173.598 162.479 162.799 163.093 163.473 163.809 164.332 164.832 165.581 
166.267 167.135 167.865 168.698 169.426 170.25 171.05 171.907 172.733 
173.542 174.255 162.519 163.046 162.874 163.129 163.693 163.495 163.687 
163.493 163.794 164.22 164.106 164.373 164.152 164.412 164.248 164.763 
164.908 164.666 165.086 164.907 165.317 165.044 165.541 165.424 166.178 
166.323 165.687 166.199 165.84 166.476 166.133 166.718 166.4 167.089 
166.985 167.803 168.426 167.519 168.035 167.35 168.062 167.545 168.247 
167.762 168.434 168.079 168.842 168.67 169.459 170.593 169.743 170.227 
169.425 170.065 169.386 170.092 169.469 170.137 169.586 170.297 169.907 
170.692 170.415 171.182 172.422 171.751 172.178 171.504 172.046 171.409 
172.03 171.392 171.976 171.343 171.923 171.427 172.11 171.764 172.496 
172.191 172.885 173.946 173.39 173.755 173.214 173.67 173.175 173.699 
173.191 173.642 173.065 173.427 172.917 173.372 173.06 173.658 173.44 
174.054 173.804 174.366 175.154 174.858 175.396 176.112 174.435 175.021 
175.738 176.291 176.965 174.112 174.578 175.239 175.814 176.489 177.087 
177.77 174.2 174.432 175.028 175.37 175.997 176.542 177.257 177.887 
178.665 174.524 174.721 175.366 175.441 176.033 176.248 176.956 177.421 
178.281 178.896 179.823 174.656 175.031 175.819 175.958 176.627 176.627 
177.308 177.423 178.251 178.646 179.629 180.192 181.144 174.622 175.085 
175.981 176.341 177.149 177.298 178 178.01 178.706 178.834 179.671 
180.073 181.003 181.511 182.328 174.679 175.091 176.02 176.448 177.331 
177.673 178.421 178.599 179.217 179.314 179.944 180.174 180.931 181.359 
182.148 182.61 183.289 174.847 175.214 176.136 176.53 177.409 177.781 
178.529 178.826 179.44 179.652 180.214 180.409 181.025 181.316 182.003 
182.407 183.078 183.499 184.08 175.529 176.495 176.153 176.417 177.395 
177.104 177.41 177.065 177.363 178.281 178.029 178.408 178.08 178.446 
178.074 178.41 179.252 178.985 179.449 179.125 179.555 179.204 179.621 
179.199 179.552 180.42 180.079 180.594 180.232 180.688 180.335 180.777 
180.413 180.807 180.368 180.692 181.673 181.318 181.81 181.428 181.87 
181.492 181.909 181.545 181.927 181.552 181.872 181.451 181.712 182.788 
182.5 182.932 182.598 183.006 182.66 183.063 182.689 183.045 182.646 
182.953 182.554 182.818 182.398 182.612 183.73 183.51 183.925 183.634 
184.02 183.726 184.129 183.812 184.164 183.772 184.054 183.634 183.896 
183.479 183.711 183.264 183.444 184.525 184.384 184.823 184.584 184.962 
184.69 185.065 184.8 185.14 184.822 185.083 184.708 184.943 184.552 
184.778 184.355 184.528 184.063 184.185 185.056 185.952 185.502 185.409 
186.858 186.397 186.334 185.796 185.589 187.954 187.36 187.283 186.718 
186.527 185.936 185.685 189.269 188.566 188.421 187.732 187.51 186.871 
186.601 186.006 185.727 190.443 189.838 189.637 188.924 188.636 187.913 
187.59 186.918 186.591 185.995 185.669 191.294 190.832 190.603 190.013 
189.677 189.014 188.636 187.935 187.547 186.875 186.514 185.904 185.554 
191.951 191.582 191.354 190.837 190.475 189.906 189.497 188.89 188.451 
187.809 187.377 186.753 186.357 185.768 185.384 192.308 192.127 191.924 
191.52 191.151 190.623 190.187 189.63 189.165 188.593 188.099 187.525 
187.042 186.498 186.047 185.522 185.09 192.251 192.276 192.094 191.922 
191.572 191.205 190.753 190.263 189.77 189.229 188.708 188.15 187.613 
187.079 186.568 186.08 185.609 185.144 184.703 184.934 184.955 185.234 
185.807 185.027 185.253 185.844 186.118 186.725 185.254 185.392 185.987 
186.212 186.919 187.158 187.884 185.535 185.665 186.258 186.442 187.182 
187.434 188.278 188.49 189.263 185.686 185.893 186.459 186.694 187.38 
187.684 188.494 188.836 189.644 189.859 190.47 185.607 185.924 186.453 
186.78 187.401 187.766 188.471 188.895 189.643 190.05 190.698 190.903 
191.338 185.302 185.714 186.223 186.645 187.24 187.668 188.304 188.743 
189.4 189.876 190.52 190.935 191.452 191.65 191.976 184.862 185.318 
185.809 186.301 186.862 187.379 187.958 188.455 189.006 189.512 190.057 
190.588 191.088 191.537 191.888 192.13 192.286 184.397 184.848 185.306 
185.811 186.316 186.875 187.385 187.951 188.412 188.971 189.394 189.975 
190.372 190.955 191.274 191.759 191.928 192.213 192.21 175.251 176.324 
176.047 176.565 177.451 177.164 177.685 177.363 177.812 178.614 178.314 
178.804 178.461 178.839 178.511 178.856 179.716 179.454 179.906 179.555 
179.872 179.498 179.78 179.465 179.752 180.63 180.457 180.907 180.618 
180.953 180.558 180.854 180.45 180.751 180.368 180.618 181.46 181.307 
181.822 181.596 182.031 181.678 182.049 181.621 181.964 181.499 181.773 
181.276 181.488 182.348 182.175 182.76 182.56 183.096 182.794 183.222 
182.831 183.176 182.738 182.996 182.497 182.686 182.173 182.397 183.202 
183.069 183.643 183.507 184.058 183.847 184.276 183.953 184.249 183.863 
184.068 183.639 183.79 183.335 183.517 183.093 183.37 183.898 183.832 
184.346 184.289 184.788 184.693 185.099 184.893 185.163 184.842 185.006 
184.619 184.737 184.336 184.488 184.124 184.365 184.036 184.326 174.6 
173.916 174.726 175.654 173.217 174.068 175.039 175.814 176.771 172.502 
173.431 174.467 175.224 176.187 176.958 177.939 171.712 172.747 173.899 
174.69 175.641 176.38 177.369 178.156 179.092 170.937 171.973 173.241 
174.131 175.147 175.865 176.829 177.593 178.573 179.286 180.083 170.356 
171.244 172.52 173.481 174.629 175.404 176.4 177.107 178.09 178.793 
179.665 180.243 180.943 170.048 170.716 171.875 172.792 174.015 174.892 
175.965 176.698 177.666 178.352 179.259 179.869 180.652 181.147 181.837 
170.021 170.47 171.486 172.222 173.405 174.281 175.396 176.203 177.16 
177.89 178.781 179.464 180.3 180.876 181.613 182.078 182.722 170.221 
170.517 171.426 171.945 173.018 173.741 174.821 175.6 176.552 177.306 
178.183 178.928 179.789 180.477 181.261 181.821 182.48 182.917 183.461 
170.644 171.693 171.365 171.851 172.812 172.485 173.022 172.716 173.364 
174.009 173.656 174.211 173.905 174.532 174.297 175.031 175.292 174.909 
175.456 175.111 175.716 175.443 176.119 175.942 176.684 176.584 176.211 
176.767 176.394 177 176.666 177.338 177.065 177.792 177.589 178.334 
177.87 177.505 178.085 177.719 178.347 178 178.698 178.37 179.108 
178.803 179.546 179.28 179.989 179.154 178.806 179.406 179.05 179.702 
179.365 180.082 179.762 180.498 180.171 180.873 180.553 181.21 180.912 
181.495 180.33 180.058 180.681 180.376 181.044 180.725 181.435 181.129 
181.843 181.531 182.183 181.851 182.423 182.102 182.607 182.298 182.724 
181.377 181.175 181.833 181.611 182.296 182.034 182.713 182.433 183.093 
182.81 183.411 183.095 183.597 183.256 183.676 183.348 183.708 183.392 
183.693 182.177 183.69 182.839 182.698 185.264 184.425 184.271 183.395 
183.216 186.651 185.947 185.817 184.98 184.77 183.882 183.641 187.934 
187.281 187.223 186.463 186.259 185.402 185.132 184.258 183.991 189.295 
188.599 188.547 187.823 187.639 186.834 186.545 185.699 185.396 184.561 
184.264 190.491 189.881 189.684 189.046 188.788 188.105 187.767 187.012 
186.641 185.87 185.512 184.741 184.389 191.23 190.811 190.491 189.973 
189.611 189.065 188.675 188.061 187.63 186.965 186.546 185.862 185.462 
184.76 184.388 191.671 191.374 191.116 190.652 190.303 189.78 189.407 
188.848 188.443 187.839 187.421 186.793 186.383 185.735 185.338 184.692 
184.34 192.039 191.823 191.708 191.298 191.032 190.501 190.161 189.59 
189.221 188.633 188.247 187.64 187.239 186.61 186.197 185.572 185.186 
184.6 184.268 182.164 182.716 182.847 183.711 183.351 183.512 184.418 
184.485 185.303 183.83 184.161 185.13 185.227 185.973 185.983 186.648 
184.028 184.555 185.664 185.908 186.646 186.615 187.179 187.202 187.858 
184.095 184.707 185.983 186.412 187.29 187.28 187.798 187.729 188.382 
188.489 189.261 184.086 184.739 186.038 186.67 187.681 187.871 188.388 
188.325 188.888 189.014 189.825 189.964 190.609 183.871 184.576 185.701 
186.509 187.472 188.012 188.527 188.713 189.128 189.366 190.046 190.379 
191.018 191.109 191.409 183.472 184.167 185.08 185.908 186.726 187.482 
188.014 188.519 188.904 189.326 189.853 190.334 190.888 191.238 191.549 
191.63 191.748 183.042 183.667 184.458 185.176 185.905 186.627 187.2 
187.832 188.311 188.877 189.389 189.941 190.436 190.901 191.231 191.53 
191.711 191.849 191.988 181.345 180.227 181.099 181.786 178.978 179.888 
180.497 181.523 182.292 177.606 178.529 179.046 180.103 180.785 181.948 
182.675 176.198 177.095 177.526 178.553 179.184 180.357 181.058 182.213 
182.839 174.789 175.667 176.042 177.004 177.591 178.744 179.514 180.654 
181.314 182.345 182.921 173.441 174.284 174.683 175.563 176.093 177.16 
177.929 179.13 179.893 180.936 181.498 182.452 182.972 172.253 173.023 
173.49 174.307 174.847 175.752 176.418 177.528 178.279 179.443 180.049 
181.06 181.501 182.46 182.867 171.225 171.923 172.39 173.187 173.761 
174.604 175.227 176.136 176.794 177.827 178.455 179.513 179.999 180.976 
181.345 182.278 182.586 170.316 170.944 171.351 172.099 172.637 173.502 
174.141 175.023 175.673 176.534 177.155 178.043 178.6 179.499 179.935 
180.805 181.134 181.983 182.244 169.973 169.834 170.238 170.989 169.814 
170.166 170.939 171.358 172.258 169.941 170.26 171.111 171.437 172.407 
172.809 173.828 170.174 170.502 171.493 171.783 172.827 173.125 174.208 
174.509 175.472 170.446 170.78 171.829 172.214 173.302 173.626 174.696 
174.98 175.957 176.147 176.97 170.777 171.051 172.031 172.474 173.541 
173.983 174.988 175.376 176.304 176.601 177.405 177.584 178.327 171.222 
171.403 172.321 172.675 173.718 174.14 175.101 175.506 176.361 176.771 
177.558 177.896 178.605 178.857 179.567 171.758 171.883 172.778 173.034 
174.062 174.391 175.344 175.633 176.414 176.737 177.469 177.88 178.599 
178.985 179.672 180.001 180.698 172.322 172.428 173.267 173.49 174.442 
174.757 175.67 175.929 176.653 176.85 177.494 177.79 178.498 178.896 
179.626 180.016 180.727 181.079 181.776 172.889 174.029 173.564 173.835 
175.192 174.723 175.022 174.6 174.983 176.436 175.92 176.199 175.769 
176.142 175.778 176.15 177.806 177.24 177.503 176.978 177.287 176.881 
177.213 176.847 177.091 179.233 178.667 178.962 178.365 178.66 178.108 
178.428 177.94 178.208 177.726 177.932 180.645 180.11 180.442 179.86 
180.193 179.59 179.952 179.343 179.676 179.03 179.286 178.671 178.941 
181.975 181.505 181.86 181.332 181.679 181.122 181.495 180.929 181.298 
180.655 180.938 180.216 180.454 179.794 180.082 183.121 182.761 183.133 
182.702 183.051 182.556 182.887 182.383 182.719 182.2 182.496 181.877 
182.101 181.4 181.615 180.957 181.212 184.049 183.793 184.163 183.864 
184.226 183.844 184.159 183.697 183.976 183.502 183.787 183.3 183.563 
182.983 183.193 182.526 182.721 182.065 182.276 183.065 183.55 183.682 
184.451 184.021 184.183 184.939 185.075 185.811 184.341 184.588 185.339 
185.528 186.22 186.367 187.036 184.526 184.817 185.564 185.839 186.553 
186.746 187.415 187.557 188.202 184.735 185 185.754 186.027 186.77 
187.021 187.743 187.945 188.642 188.756 189.377 184.913 185.209 185.964 
186.244 186.988 187.241 187.976 188.228 188.954 189.167 189.802 189.898 
190.404 184.906 185.277 185.965 186.355 187.061 187.415 188.116 188.425 
189.123 189.4 190.033 190.222 190.705 190.791 191.154 184.77 185.15 
185.747 186.19 186.826 187.308 187.965 188.42 189.065 189.459 190.063 
190.359 190.858 191.015 191.383 191.435 191.694 184.62 184.971 185.519 
185.915 186.492 186.962 187.571 188.093 188.693 189.209 189.765 190.224 
190.719 191.057 191.458 191.627 191.913 191.928 192.084 162.18 162.669 
162.225 162.027 163.454 162.86 162.585 162.196 162.178 164.343 163.691 
163.335 162.824 162.72 162.463 162.66 165.322 164.617 164.279 163.649 
163.533 163.115 163.299 163.102 163.501 166.482 165.734 165.54 164.789 
164.77 164.143 164.367 163.942 164.342 164.099 164.579 167.759 167.041 
167.015 166.261 166.351 165.611 165.832 165.216 165.57 165.122 165.544 
165.244 165.705 169.067 168.395 168.454 167.792 167.913 167.226 167.363 
166.71 166.935 166.411 166.759 166.34 166.752 166.416 166.885 170.375 
169.727 169.777 169.176 169.269 168.668 168.744 168.127 168.248 167.709 
167.982 167.555 167.94 167.556 167.98 167.645 168.122 171.634 171.018 
171.036 170.442 170.502 169.93 170.024 169.439 169.587 169.013 169.266 
168.773 169.12 168.713 169.088 168.739 169.132 168.85 169.286 161.974 
161.805 161.797 161.775 162.043 161.839 161.864 161.809 161.995 162.61 
162.279 162.389 162.179 162.474 162.346 162.742 163.461 163.012 163.146 
162.855 163.198 163.027 163.48 163.323 163.797 164.519 163.999 164.137 
163.732 164.042 163.798 164.238 164.09 164.539 164.402 164.867 165.62 
165.1 165.275 164.831 165.145 164.76 165.156 164.878 165.314 165.123 
165.57 165.452 165.968 166.771 166.218 166.406 165.983 166.337 165.942 
166.336 165.935 166.348 166.005 166.458 166.214 166.727 166.599 167.168 
168.018 167.427 167.598 167.131 167.474 167.104 167.5 167.127 167.512 
167.133 167.546 167.213 167.688 167.445 167.976 167.826 168.367 169.22 
168.68 168.835 168.344 168.631 168.229 168.591 168.233 168.597 168.249 
168.619 168.295 168.705 168.43 168.889 168.678 169.17 169.008 169.502 
162.221 162.003 162.272 162.742 162.08 162.121 162.527 162.879 163.38 
162.677 162.365 162.626 162.746 163.237 163.52 163.945 163.694 163.155 
163.316 163.098 163.596 163.615 164.146 164.194 164.71 164.822 164.254 
164.38 163.98 164.438 164.272 164.904 164.758 165.4 165.303 166.137 
165.985 165.424 165.544 165.067 165.382 165.152 165.716 165.633 166.32 
166.231 167.079 167.08 168.172 167.199 166.648 166.795 166.253 166.469 
166.075 166.505 166.377 167.07 167.095 167.979 168.051 169.095 169.215 
170.318 168.378 167.869 168.052 167.53 167.787 167.269 167.707 167.337 
168.091 167.952 168.961 168.963 170.055 170.115 171.174 171.257 172.204 
169.508 169.026 169.242 168.777 169.133 168.666 169.22 168.78 169.609 
169.289 170.356 170.167 171.277 171.164 172.175 172.125 173.016 173.011 
173.786 180.872 179.835 180.175 179.777 178.649 179.058 178.633 179.012 
178.551 177.332 177.763 177.278 177.739 177.265 177.699 177.202 176.039 
176.421 175.882 176.308 175.804 176.3 175.841 176.309 175.817 174.757 
175.13 174.595 174.963 174.447 174.861 174.404 174.887 174.441 174.902 
174.405 173.457 173.821 173.287 173.687 173.195 173.587 173.116 173.519 
173.061 173.499 173.031 173.475 173.017 172.254 172.545 171.983 172.36 
171.871 172.306 171.845 172.263 171.79 172.186 171.722 172.13 171.708 
172.151 171.805 171.179 171.413 170.852 171.13 170.632 170.996 170.551 
170.964 170.523 170.93 170.492 170.889 170.489 170.901 170.573 171.033 
170.783 170.191 170.399 169.871 170.09 169.6 169.864 169.428 169.751 
169.351 169.71 169.326 169.701 169.33 169.722 169.385 169.824 169.561 
170.06 169.874 
POINT_DATA 1002
SCALARS Distance double
LOOKUP_TABLE default
173.345 172.236 172.135 173.326 172.08 174.483 173.347 172.088 174.546 
175.669 173.427 172.199 174.672 175.818 176.973 173.619 172.43 174.88 
176.04 177.181 178.368 173.924 172.759 175.154 176.341 177.464 178.628 
179.78 174.331 173.177 175.472 176.626 177.804 178.976 180.109 181.159 
174.825 173.712 175.887 176.929 178.098 179.343 180.481 181.488 182.407 
175.334 174.325 176.339 177.324 178.414 179.642 180.801 181.776 182.65 
183.441 175.783 174.901 176.698 177.669 178.735 179.891 181.008 181.964 
182.812 183.601 184.285 171.022 170.846 169.712 169.52 168.41 170.798 
168.291 167.173 169.561 170.879 167.12 166.018 168.332 169.677 171.049 
166.024 165.019 167.051 168.338 169.831 171.3 165.033 164.108 165.919 
167.046 168.548 170.106 171.619 164.016 163.195 164.882 165.978 167.443 
168.994 170.483 172.08 163.148 162.488 163.904 164.939 166.404 168.007 
169.499 171.065 172.761 162.764 162.189 163.371 164.156 165.403 166.998 
168.592 170.19 171.899 173.542 162.607 163.255 163.282 163.954 163.848 
163.858 164.523 164.293 164.648 164.735 165.186 165.247 165.555 165.755 
166.137 166.63 167.092 166.783 167.093 167.312 167.822 168.838 169.349 
168.64 168.764 168.888 169.106 169.599 171.046 171.387 170.801 170.758 
170.76 170.77 171.02 171.46 172.822 173.059 172.669 172.673 172.667 
172.509 172.498 172.817 173.217 174.291 174.491 174.157 174.189 174.24 
174.025 173.752 173.871 174.291 174.658 175.906 175.628 176.807 175.149 
176.442 177.649 174.719 175.854 177.175 178.491 174.829 175.54 176.602 
177.999 179.509 175.313 175.96 176.605 177.666 179.183 180.782 175.545 
176.605 177.321 178.001 179.093 180.616 182.037 175.527 176.877 177.971 
178.711 179.412 180.514 181.884 183.067 175.593 176.944 178.176 179.121 
179.823 180.601 181.682 182.881 183.923 175.761 177.059 178.228 179.188 
180.017 180.807 181.669 182.662 183.695 184.625 176.775 177.733 177.726 
178.708 178.787 178.832 179.759 179.884 180 180.036 180.972 181.056 
181.127 181.207 181.181 182.203 182.26 182.297 182.306 182.271 182.169 
183.263 183.333 183.428 183.469 183.365 183.225 183.063 184.204 184.31 
184.421 184.542 184.486 184.316 184.151 183.921 185.028 185.24 185.34 
185.438 185.442 185.325 185.192 184.995 184.67 185.518 185.962 186.378 
186.854 187.346 186.19 187.886 188.634 187.113 186.281 189.181 189.994 
188.2 187.223 186.303 190.342 190.996 189.393 188.319 187.232 186.241 
191.163 191.729 190.308 189.334 188.258 187.155 186.147 191.859 192.271 
191.043 190.079 189.081 188.018 186.96 185.967 192.255 192.4 191.661 
190.752 189.735 188.682 187.601 186.57 185.606 192.175 192.181 191.854 
191.205 190.305 189.273 188.171 187.07 186.066 185.156 184.66 185.526 
184.682 185.553 184.847 186.454 185.778 185.139 186.631 187.677 186.079 
185.39 186.919 187.999 189.161 186.215 185.456 187.087 188.136 189.35 
190.423 186.105 185.264 187.043 188.078 189.204 190.38 191.294 185.776 
184.867 186.792 187.888 188.951 190.048 191.135 191.931 185.315 184.406 
186.338 187.459 188.53 189.542 190.585 191.546 192.19 184.823 183.962 
185.782 186.831 187.867 188.843 189.8 190.735 191.543 192.052 175.504 
176.88 176.593 178.025 177.74 178.154 179.181 178.925 179.21 179.157 
180.263 179.966 180.279 180.134 180.055 181.148 180.783 181.318 181.267 
181.166 181.035 181.995 181.605 182.328 182.452 182.433 182.298 181.99 
182.929 182.514 183.359 183.604 183.614 183.488 183.208 182.864 183.767 
183.327 184.236 184.581 184.647 184.494 184.228 183.937 183.755 173.81 
174.869 173.072 174.267 172.314 175.984 173.714 171.48 175.425 177.155 
173.051 170.609 174.936 176.565 178.391 172.264 169.944 174.411 176.098 
177.828 179.506 171.528 169.6 173.772 175.709 177.398 179.049 180.446 
171.022 169.522 173.079 175.198 176.991 178.614 180.118 181.395 170.868 
169.673 172.57 174.57 176.424 178.069 179.665 181.121 182.328 171.012 
169.979 172.4 174.088 175.808 177.428 179.055 180.649 182.016 183.097 