# vtk DataFile Version 4.0
vtk output
ASCII
DATASET POLYDATA
POINTS 1002 float
-119.491 -112.17 51.8088 -119.494 -111.078 50.9751 -118.98 -111.239 51.416 
-118.962 -112.482 52.2797 -118.474 -111.484 51.9036 -119.445 -113.433 52.8319 
-118.451 -112.836 52.8841 -117.961 -111.794 52.539 -118.866 -113.888 53.4098 
-119.418 -114.827 54.1481 -118.001 -113.17 53.7433 -117.384 -112.268 53.2885 
-118.375 -114.275 54.2324 -118.783 -115.375 54.8827 -119.335 -116.359 55.6041 
-117.511 -113.629 54.7075 -116.79 -112.859 54.0252 -118.014 -114.637 55.2737 
-118.289 -115.822 55.8552 -118.649 -116.943 56.4971 -119.07 -117.912 57.144 
-116.889 -114.284 55.5602 -116.272 -113.47 54.7962 -117.496 -115.222 56.269 
-117.889 -116.341 56.9165 -118.132 -117.466 57.6026 -118.403 -118.48 58.269 
-118.717 -119.387 58.9208 -116.249 -115.113 56.3653 -115.78 -114.263 55.6728 
-116.768 -116.003 57.1608 -117.279 -117.003 57.9643 -117.669 -118.045 58.7681 
-117.941 -119.03 59.5354 -118.182 -119.977 60.1787 -118.484 -120.863 60.712 
-115.664 -116.027 57.2375 -115.217 -115.219 56.5478 -116.16 -116.775 58.1175 
-116.632 -117.614 59.0849 -117.064 -118.586 59.9635 -117.445 -119.593 60.7275 
-117.748 -120.562 61.3852 -118.021 -121.46 61.8925 -118.328 -122.249 62.244 
-115.092 -116.8 58.1512 -114.66 -116.012 57.3749 -115.677 -117.427 59.1396 
-116.177 -118.144 60.2153 -116.498 -119.094 61.1195 -116.782 -120.15 61.7915 
-117.108 -121.165 62.3779 -117.432 -122.043 62.9313 -117.742 -122.749 63.3664 
-118.049 -123.344 63.6367 -114.594 -117.368 59.0841 -114.273 -116.539 58.2468 
-115.143 -118.003 60.1161 -115.673 -118.708 61.1849 -115.964 -119.699 62.0574 
-116.115 -120.793 62.6931 -116.331 -121.775 63.2414 -116.632 -122.626 63.8005 
-116.962 -123.284 64.335 -117.296 -123.755 64.745 -117.621 -124.173 64.9835 
-119.036 -110.157 50.4222 -118.474 -110.28 50.8783 -118.401 -109.261 49.8208 
-117.864 -109.314 50.3388 -117.839 -108.219 49.3952 -117.972 -110.417 51.4674 
-117.313 -108.215 50.0138 -117.424 -106.91 49.3312 -117.397 -109.32 51.1103 
-117.387 -110.755 52.1477 -116.64 -107.023 49.874 -116.831 -105.601 49.4178 
-116.753 -108.205 50.8716 -116.762 -109.676 51.8328 -116.682 -111.409 52.7331 
-115.728 -105.97 49.7109 -116.041 -104.515 49.4619 -115.849 -107.215 50.5588 
-116.042 -108.582 51.559 -115.991 -110.385 52.2691 -116.076 -112.051 53.3189 
-114.987 -105.014 49.8245 -115.353 -103.551 49.69 -114.953 -106.348 50.3402 
-115.208 -107.582 51.2801 -115.265 -109.216 52.0117 -115.359 -111.009 52.8223 
-115.649 -112.631 54.1942 -114.48 -104.078 50.4822 -114.745 -102.761 50.254 
-114.367 -105.39 50.7425 -114.556 -106.581 51.3641 -114.62 -108.032 52.0452 
-114.65 -109.822 52.6725 -114.976 -111.634 53.7788 -115.231 -113.469 55.2224 
-113.915 -103.368 51.2806 -114.157 -102.304 50.99 -113.796 -104.462 51.522 
-113.998 -105.551 51.934 -114.164 -106.865 52.4823 -114.173 -108.561 52.9194 
-114.427 -110.466 53.6053 -114.75 -112.455 54.807 -114.761 -114.408 56.1261 
-113.375 -102.973 51.9078 -113.723 -102.125 51.759 -113.159 -103.838 52.1166 
-113.321 -104.784 52.4987 -113.649 -105.944 53.0614 -113.857 -107.401 53.4824 
-114.146 -109.161 53.8101 -114.508 -111.172 54.5558 -114.565 -113.258 55.7247 
-114.371 -115.112 56.9761 -113.171 -102.524 52.5915 -112.757 -103.294 52.6319 
-112.667 -102.887 53.6554 -112.416 -103.837 53.7852 -112.395 -103.484 55.306 
-112.681 -104.227 52.903 -112.335 -104.921 55.588 -112.414 -104.568 57.0728 
-112.479 -105.187 54.2011 -112.977 -105.395 53.4992 -112.434 -106.23 57.2332 
-112.816 -105.832 58.0893 -112.43 -106.535 55.8998 -112.805 -106.527 54.7937 
-113.394 -106.67 54.1079 -113.157 -107.268 57.9847 -113.827 -106.977 58.4106 
-112.821 -107.603 57.1481 -113.004 -107.646 56.0599 -113.497 -107.618 55.1479 
-113.926 -108.124 54.3943 -114.67 -108.408 58.1693 -115.274 -108.29 58.5423 
-114.121 -108.602 57.6612 -113.948 -108.704 56.8994 -114.113 -108.758 56.0964 
-114.358 -109.14 55.3755 -114.467 -110.057 54.804 -116.077 -110.046 58.3754 
-116.46 -109.927 58.7403 -115.622 -110.16 57.995 -115.261 -110.249 57.5264 
-115.001 -110.433 57.0304 -114.815 -110.779 56.5696 -114.696 -111.4 56.1039 
-114.583 -112.322 55.7788 -116.605 -111.791 59.0159 -116.924 -111.595 59.3142 
-116.243 -111.955 58.7428 -115.901 -112.072 58.4703 -115.511 -112.35 58.2044 
-115.034 -112.777 58.002 -114.659 -113.176 57.747 -114.442 -113.696 57.373 
-114.319 -114.425 57.0765 -116.451 -113.267 60.2106 -116.824 -113.069 60.395 
-116.045 -113.46 60.0675 -115.681 -113.616 59.9438 -115.336 -113.911 59.7891 
-114.905 -114.396 59.6549 -114.489 -114.813 59.528 -114.254 -115.131 59.2361 
-114.137 -115.576 58.7977 -114.108 -116.119 58.4344 -114.162 -117.629 59.8113 
-113.998 -117.376 60.173 -113.962 -119.051 61.5973 -113.95 -116.939 60.6712 
-113.652 -118.941 62.0338 -113.331 -120.744 63.2168 -113.947 -116.495 61.1222 
-113.378 -118.414 62.5162 -112.75 -120.535 63.613 -112.47 -122.074 64.6167 
-114.121 -116.113 61.3791 -113.286 -117.808 62.9179 -112.363 -119.806 64.0305 
-111.851 -121.653 65.0026 -111.991 -122.818 66.2385 -114.481 -115.674 61.5459 
-113.562 -117.453 63.1967 -112.527 -119.235 64.4227 -111.764 -120.979 65.4605 
-111.65 -122.44 66.7348 -111.766 -123.591 68.1993 -114.864 -115.241 61.6953 
-114.045 -117.167 63.3916 -113.158 -119.089 64.6889 -112.322 -120.648 65.8843 
-111.887 -122.015 67.2901 -111.607 -123.349 68.8057 -111.18 -124.635 70.0318 
-115.283 -114.963 61.7501 -114.569 -116.801 63.4655 -113.865 -118.885 64.7834 
-113.075 -120.54 66.0732 -112.437 -121.737 67.6846 -111.864 -122.987 69.3371 
-111.094 -124.343 70.6468 -110.36 -125.584 71.4726 -115.774 -114.767 61.7435 
-115.126 -116.467 63.4127 -114.518 -118.462 64.7579 -113.756 -120.24 66.0566 
-112.979 -121.462 67.7634 -112.277 -122.585 69.5871 -111.431 -123.9 71.0444 
-110.508 -125.184 72.0419 -109.871 -126.212 72.671 -116.253 -114.573 61.766 
-115.661 -116.205 63.3201 -115.105 -118.031 64.6785 -114.385 -119.772 65.9867 
-113.543 -121.079 67.659 -112.777 -122.166 69.5347 -111.986 -123.388 71.1295 
-111.097 -124.658 72.3132 -110.326 -125.736 73.1632 -109.884 -126.541 73.7196 
-114.471 -118.51 60.8257 -114.064 -120.107 62.5677 -114.89 -119.305 61.8814 
-113.314 -121.791 64.0806 -114.24 -121.069 63.4318 -115.205 -120.328 62.7583 
-112.703 -122.861 65.7344 -113.543 -122.561 65.0533 -114.467 -122.108 64.2488 
-115.381 -121.502 63.4711 -112.338 -123.673 67.7312 -113.121 -123.508 67.1104 
-113.939 -123.274 66.2374 -114.785 -122.98 65.202 -115.583 -122.453 64.1729 
-111.663 -124.856 69.5649 -112.531 -124.722 69.0203 -113.473 -124.292 68.342 
-114.35 -123.91 67.3633 -115.126 -123.647 66.0925 -115.855 -123.24 64.8332 
-110.654 -126.026 70.9735 -111.536 -126.168 70.3537 -112.668 -125.774 69.7723 
-113.733 -125.093 69.0987 -114.645 -124.664 68.0151 -115.404 -124.414 66.6457 
-116.162 -123.945 65.3895 -109.899 -126.728 72.2209 -110.604 -127.095 71.5396 
-111.771 -127.056 70.8582 -112.95 -126.52 70.2742 -113.997 -125.913 69.466 
-114.914 -125.534 68.2627 -115.715 -125.085 66.9899 -116.516 -124.418 65.8481 
-109.7 -127.058 73.4078 -110.116 -127.483 72.8093 -111.127 -127.712 72.0628 
-112.31 -127.575 71.3789 -113.379 -127.123 70.6643 -114.392 -126.639 69.6387 
-115.321 -126.127 68.4194 -116.131 -125.444 67.2785 -116.903 -124.734 66.1658 
-110.037 -127.039 74.511 -110.012 -127.593 74.1338 -110.567 -127.58 75.0491 
-110.709 -128.293 74.591 -111.515 -128.347 75.299 -110.64 -128.045 73.4372 
-111.775 -129.203 74.7646 -112.861 -129.1 75.4632 -111.448 -128.871 73.7341 
-111.752 -128.299 72.573 -113.196 -129.773 74.8329 -114.457 -129.369 75.448 
-112.487 -129.705 73.711 -112.493 -129.102 72.6677 -112.88 -128.167 71.7412 
-114.975 -129.748 74.5863 -116.148 -129.337 74.9162 -113.909 -129.899 73.5848 
-113.434 -129.621 72.4749 -113.574 -128.77 71.699 -113.965 -127.683 70.8059 
-116.942 -129.724 73.8348 -117.712 -129.433 74.1046 -115.862 -129.727 73.1578 
-114.924 -129.55 72.2453 -114.604 -128.989 71.482 -114.788 -128.036 70.7022 
-115.072 -127.044 69.6176 -118.597 -129.77 73.0716 -118.963 -129.357 73.5025 
-117.872 -129.739 72.4541 -116.878 -129.409 71.8252 -116.123 -128.895 71.2241 
-115.893 -128.134 70.4922 -115.941 -127.212 69.5081 -116.018 -126.298 68.3904 
-119.715 -129.319 72.6201 -119.987 -128.769 73.0769 -119.269 -129.493 71.9468 
-118.54 -129.233 71.3404 -117.726 -128.68 70.8347 -117.161 -128.022 70.1679 
-116.904 -127.28 69.2517 -116.803 -126.422 68.2327 -116.802 -125.538 67.201 
-120.563 -128.429 72.1816 -120.94 -127.95 72.5478 -120.128 -128.691 71.5916 
-119.583 -128.631 70.9703 -118.941 -128.218 70.4074 -118.338 -127.644 69.7358 
-117.906 -127.099 68.8551 -117.647 -126.493 67.8821 -117.531 -125.734 66.9018 
-117.543 -124.925 65.9233 -110.415 -126.226 74.329 -110.719 -126.646 75.083 
-111.156 -125.701 74.696 -111.647 -126.043 75.3708 -112.042 -125.133 74.7068 
-111.481 -127.187 75.475 -112.763 -125.469 75.3673 -113.187 -124.737 74.2933 
-112.719 -126.581 75.7122 -112.739 -127.934 75.6582 -114.075 -125.027 74.9696 
-114.501 -124.386 73.5124 -114.054 -125.955 75.8005 -114.216 -127.216 75.9243 
-114.287 -128.484 75.7754 -115.338 -124.502 74.0595 -115.652 -123.851 72.5059 
-115.267 -125.338 75.3597 -115.479 -126.409 75.9745 -115.692 -127.536 75.8688 
-115.825 -128.584 75.4852 -116.386 -123.9 72.781 -116.62 -123.214 71.3887 
-116.276 -124.672 74.1524 -116.378 -125.672 75.2514 -116.664 -126.642 75.6075 
-116.921 -127.612 75.2528 -117.201 -128.646 74.7335 -117.366 -123.361 71.4537 
-117.55 -122.555 70.2685 -117.262 -124.049 72.6546 -117.244 -124.927 73.828 
-117.413 -125.873 74.6849 -117.711 -126.727 74.7841 -117.987 -127.717 74.4176 
-118.386 -128.729 74.0269 -118.286 -122.72 70.2777 -118.382 -121.783 69.2481 
-118.271 -123.411 71.3612 -118.284 -124.077 72.4315 -118.348 -124.904 73.4243 
-118.564 -125.746 73.969 -118.81 -126.616 73.9426 -119.071 -127.593 73.7548 
-119.501 -128.4 73.5313 -119.037 -121.837 69.2684 -119.048 -120.906 68.3472 
-119.128 -122.575 70.2911 -119.27 -123.14 71.3064 -119.376 -123.768 72.2646 
[...]
CELL_DATA 2000
SCALARS Distance double
LOOKUP_TABLE default
170.205 170.143 170.518 171.246 170.163 170.518 171.287 171.64 172.45 
170.284 170.612 171.425 171.746 172.586 172.937 173.816 170.495 170.809 
171.681 171.97 172.841 173.137 174.028 174.356 175.222 170.759 171.065 
171.984 172.286 173.206 173.473 174.375 174.634 175.51 175.769 176.591 
171.142 171.384 172.311 172.605 173.555 173.855 174.792 175.046 175.943 
176.148 177.004 177.187 178.008 171.65 171.837 172.747 172.979 173.92 
174.203 175.154 175.445 176.368 176.612 177.486 177.672 178.5 178.653 
179.429 172.122 172.333 173.215 173.442 174.36 174.607 175.538 175.803 
176.71 176.985 177.848 178.105 178.905 179.114 179.833 179.994 180.626 
172.519 172.747 173.607 173.864 174.763 175.032 175.938 176.197 177.063 
177.311 178.123 178.386 179.145 179.407 180.082 180.298 180.868 181.034 
181.519 169.524 168.382 169.104 169.41 167.177 167.918 168.233 169.003 
169.381 165.995 166.716 167.022 167.798 168.182 168.996 169.451 164.771 
165.504 165.78 166.577 166.949 167.779 168.234 169.093 169.612 163.49 
164.209 164.44 165.278 165.646 166.52 166.961 167.845 168.361 169.269 
169.845 162.365 162.972 163.198 163.948 164.334 165.194 165.642 166.534 
167.038 167.98 168.597 169.554 170.225 161.517 162.009 162.278 162.861 
163.256 163.979 164.443 165.245 165.749 166.65 167.299 168.304 169.071 
170.036 170.766 160.905 161.304 161.576 162.057 162.412 163.028 163.48 
164.172 164.676 165.451 166.103 167.05 167.878 168.895 169.713 170.619 
171.293 160.545 160.802 161.014 161.389 161.682 162.225 162.672 163.313 
163.845 164.516 165.153 165.964 166.787 167.754 168.628 169.571 170.312 
171.128 171.73 160.532 160.654 160.648 160.873 161.142 160.889 161.095 
161.086 161.521 162.242 161.714 161.974 161.608 162.04 161.962 162.571 
163.652 163.058 163.349 162.792 163.156 162.77 163.289 163.168 163.801 
165.119 164.505 164.778 164.215 164.516 164.015 164.408 164.069 164.627 
164.48 165.16 166.867 166.102 166.431 165.72 166.085 165.443 165.867 
165.333 165.889 165.521 166.234 166.02 166.835 168.832 168.033 168.451 
167.614 168.073 167.254 167.778 167.034 167.644 167.033 167.741 167.31 
168.101 167.84 168.667 170.576 169.942 170.332 169.64 170.05 169.319 
169.794 169.071 169.625 168.941 169.545 168.955 169.602 169.178 169.87 
169.619 170.322 171.951 171.466 171.76 171.259 171.556 171.037 171.381 
170.867 171.289 170.769 171.234 170.693 171.181 170.679 171.214 170.828 
171.413 171.158 171.75 172.586 172.351 172.932 173.921 172.203 172.756 
173.778 174.363 175.336 172.147 172.634 173.559 174.151 175.05 175.65 
176.418 172.159 172.584 173.387 173.875 174.624 175.208 175.917 176.527 
177.208 172.178 172.582 173.384 173.763 174.483 174.856 175.558 176.034 
176.816 177.38 178.202 172.218 172.593 173.455 173.842 174.695 174.958 
175.74 175.967 176.817 177.19 178.116 178.565 179.388 172.348 172.667 
173.54 173.953 174.918 175.273 176.15 176.354 177.171 177.408 178.278 
178.614 179.41 179.736 180.338 172.539 172.831 173.684 174.074 175.044 
175.475 176.385 176.704 177.465 177.728 178.467 178.78 179.495 179.789 
180.365 180.589 181.037 172.733 173.028 173.863 174.228 175.155 175.58 
176.469 176.842 177.58 177.884 178.55 178.871 179.533 179.844 180.429 
180.657 181.133 181.289 181.699 173.046 174.354 173.825 174.158 175.751 
175.211 175.502 174.978 175.326 176.88 176.527 176.82 176.335 176.653 
176.168 176.51 177.752 177.533 177.923 177.563 177.9 177.475 177.822 
177.342 177.636 178.751 178.473 178.974 178.643 179.058 178.675 179.051 
178.623 178.93 178.423 178.662 179.842 179.568 180.088 179.773 180.227 
179.843 180.223 179.814 180.132 179.676 179.918 179.412 179.632 180.677 
180.528 180.995 180.829 181.272 180.986 181.33 180.951 181.24 180.83 
181.078 180.623 180.826 180.341 180.529 181.294 181.186 181.593 181.551 
182 181.888 182.248 181.976 182.243 181.886 182.128 181.73 181.924 
181.476 181.615 181.153 181.276 181.911 181.758 182.119 182.062 182.516 
182.496 182.931 182.796 183.114 182.834 183.078 182.729 182.923 182.516 
182.629 182.178 182.25 181.81 181.887 182.382 183.22 182.706 182.596 
184.284 183.654 183.559 183.016 182.992 185.595 184.861 184.76 184.088 
184.031 183.478 183.437 186.866 186.197 186.029 185.324 185.168 184.546 
184.412 183.855 183.667 187.834 187.324 187.089 186.462 186.166 185.577 
185.319 184.776 184.508 183.956 183.647 188.636 188.209 188.01 187.399 
187.039 186.433 186.093 185.568 185.252 184.735 184.382 183.845 183.47 
189.291 188.999 188.889 188.326 187.983 187.307 186.923 186.316 185.967 
185.429 185.048 184.518 184.087 183.575 183.142 189.556 189.491 189.388 
189.078 188.725 188.193 187.717 187.123 186.656 186.108 185.654 185.133 
184.651 184.135 183.65 183.169 182.729 189.454 189.514 189.338 189.276 
188.885 188.644 188.093 187.698 187.094 186.647 186.078 185.635 185.107 
184.644 184.137 183.659 183.196 182.747 182.345 182.457 182.775 182.832 
183.271 182.993 183.122 183.633 183.725 184.304 183.228 183.357 183.96 
184.106 184.797 184.903 185.617 183.517 183.655 184.311 184.486 185.253 
185.417 186.176 186.27 186.917 183.612 183.877 184.496 184.793 185.529 
185.813 186.514 186.714 187.293 187.402 187.861 183.429 183.799 184.331 
184.763 185.4 185.869 186.484 186.844 187.315 187.565 187.975 188.163 
188.561 183.166 183.544 184.03 184.446 184.993 185.515 186.091 186.591 
187.042 187.406 187.764 188.084 188.479 188.769 189.135 182.853 183.268 
183.751 184.135 184.615 185.057 185.577 186.09 186.568 187.021 187.382 
187.761 188.105 188.502 188.857 189.199 189.42 182.407 182.887 183.354 
183.804 184.239 184.666 185.097 185.566 186.006 186.495 186.875 187.309 
187.626 188.041 188.36 188.778 189.039 189.339 189.415 173.105 174.139 
173.825 174.289 175.292 174.946 175.441 175.098 175.599 176.471 176.133 
176.619 176.273 176.745 176.413 176.858 177.603 177.301 177.761 177.416 
177.824 177.498 177.886 177.577 177.926 178.621 178.385 178.841 178.518 
178.89 178.541 178.91 178.58 178.94 178.594 178.915 179.506 179.334 
179.817 179.559 179.966 179.621 180.005 179.644 180.035 179.66 180.005 
179.606 179.903 180.332 180.182 180.695 180.503 180.981 180.702 181.124 
180.773 181.145 180.768 181.083 180.695 180.952 180.559 180.775 181.136 
181.003 181.523 181.366 181.866 181.673 182.122 181.851 182.183 181.827 
182.053 181.686 181.879 181.533 181.705 181.34 181.47 181.864 181.781 
182.29 182.165 182.626 182.485 182.91 182.74 183.071 182.785 182.966 
182.59 182.714 182.37 182.52 182.201 182.327 181.962 182.034 172.546 
171.938 172.693 173.564 171.175 172.078 173.061 173.792 174.712 170.245 
171.289 172.409 173.278 174.273 174.976 175.894 169.312 170.356 171.59 
172.6 173.719 174.523 175.49 176.158 177.038 168.62 169.503 170.746 
171.789 173.049 173.968 175.043 175.76 176.676 177.286 178.087 168.239 
168.924 170.075 171.013 172.32 173.314 174.528 175.337 176.327 176.949 
177.775 178.303 179.01 168.134 168.639 169.694 170.444 171.689 172.628 
173.902 174.809 175.899 176.608 177.474 178.02 178.749 179.211 179.858 
168.284 168.634 169.616 170.171 171.322 172.091 173.322 174.195 175.337 
176.134 177.074 177.706 178.471 178.968 179.629 180.057 180.664 168.586 
168.845 169.737 170.158 171.197 171.806 172.941 173.689 174.805 175.58 
176.575 177.273 178.11 178.675 179.365 179.821 180.421 180.835 181.39 
169.026 170.021 169.718 170.17 171.066 170.761 171.281 170.993 171.599 
172.233 171.888 172.469 172.167 172.843 172.562 173.295 173.545 173.169 
173.821 173.467 174.192 173.87 174.628 174.334 175.095 174.934 174.561 
175.285 174.921 175.675 175.3 176.046 175.697 176.429 176.121 176.826 
176.361 175.987 176.727 176.398 177.157 176.798 177.504 177.127 177.808 
177.46 178.109 177.784 178.369 177.779 177.415 178.117 177.803 178.53 
178.213 178.872 178.522 179.133 178.795 179.374 179.037 179.541 179.199 
179.629 179.057 178.763 179.412 179.129 179.794 179.509 180.113 179.794 
180.333 180.022 180.528 180.217 180.649 180.31 180.671 180.332 180.668 
180.133 179.924 180.528 180.309 180.905 180.673 181.211 180.937 181.404 
181.12 181.559 181.278 181.667 181.349 181.673 181.335 181.644 181.316 
181.625 180.892 182.22 181.46 181.305 183.59 182.803 182.59 181.851 
181.67 184.795 184.102 183.82 183.094 182.848 182.162 181.935 185.772 
185.198 184.938 184.253 183.96 183.28 183.02 182.361 182.105 186.754 
186.184 186.027 185.355 185.094 184.384 184.115 183.431 183.178 182.511 
182.249 187.811 187.244 187.113 186.466 186.227 185.528 185.242 184.539 
184.257 183.58 183.296 182.633 182.332 188.641 188.217 188.007 187.47 
187.173 186.578 186.243 185.606 185.265 184.62 184.295 183.649 183.315 
182.662 182.321 189.084 188.834 188.585 188.181 187.832 187.362 186.998 
186.474 186.103 185.531 185.175 184.585 184.247 183.624 183.279 182.629 
182.29 189.315 189.159 188.959 188.634 188.296 187.898 187.547 187.117 
186.763 186.272 185.896 185.37 185.011 184.478 184.137 183.56 183.212 
182.592 182.254 180.846 181.186 181.44 182.245 181.453 181.828 182.782 
182.945 183.707 181.568 182.072 183.12 183.456 184.288 184.376 184.952 
181.562 182.113 183.12 183.623 184.438 184.768 185.338 185.433 185.85 
181.496 182.027 182.891 183.434 184.151 184.653 185.233 185.588 186.084 
186.251 186.742 181.281 181.829 182.553 183.084 183.72 184.244 184.874 
185.36 186.023 186.391 187.063 187.247 187.826 180.896 181.464 182.128 
182.669 183.306 183.827 184.535 185.058 185.86 186.338 187.143 187.499 
188.162 188.305 188.714 180.511 181.042 181.73 182.248 182.927 183.445 
184.198 184.767 185.611 186.181 186.98 187.463 188.083 188.426 188.811 
188.957 189.132 180.224 180.719 181.452 181.932 182.624 183.102 183.807 
184.385 185.176 185.833 186.576 187.153 187.676 188.123 188.436 188.781 
188.969 189.174 189.281 180.027 178.644 179.653 180.218 176.905 178.067 
178.607 179.75 180.343 175.113 176.229 176.771 177.987 178.577 179.79 
180.396 173.678 174.561 175.079 176.173 176.773 177.961 178.586 179.807 
180.428 172.498 173.252 173.657 174.602 175.157 176.233 176.844 178.008 
178.681 179.88 180.483 171.222 172.003 172.275 173.175 173.636 174.674 
175.262 176.355 177.022 178.184 178.865 179.965 180.429 169.893 170.659 
170.919 171.754 172.168 173.15 173.734 174.808 175.479 176.599 177.289 
178.392 178.933 179.87 180.153 168.728 169.413 169.76 170.501 170.961 
171.793 172.364 173.323 173.968 175.049 175.727 176.846 177.427 178.411 
178.768 179.573 179.785 167.762 168.368 168.762 169.469 170.001 170.752 
171.323 172.102 172.66 173.566 174.172 175.251 175.864 176.921 177.366 
178.229 178.492 179.242 179.474 167.37 167.166 167.613 168.399 167.15 
167.533 168.428 168.847 169.741 167.342 167.661 168.624 169.008 169.983 
170.297 171.127 167.659 167.95 168.946 169.301 170.294 170.592 171.407 
171.629 172.382 168.064 168.312 169.297 169.64 170.627 170.927 171.736 
171.919 172.646 172.888 173.771 168.578 168.753 169.656 169.952 170.89 
171.223 172.066 172.279 173.035 173.219 174.099 174.409 175.423 169.12 
169.262 170.068 170.286 171.132 171.441 172.299 172.592 173.412 173.642 
174.497 174.77 175.699 176.042 176.928 169.598 169.742 170.486 170.669 
171.452 171.696 172.538 172.832 173.697 173.984 174.827 175.109 175.929 
176.245 177.022 177.361 178.063 170.031 170.161 170.862 171.042 171.795 
172.021 172.842 173.114 173.981 174.271 175.112 175.381 176.148 176.413 
177.126 177.419 178.11 178.415 179.075 170.502 171.533 171.101 171.331 
172.746 172.223 172.466 172.006 172.29 174.121 173.538 173.787 173.238 
173.538 173.051 173.376 175.512 174.952 175.197 174.616 174.899 174.37 
174.719 174.213 174.545 176.852 176.321 176.589 176.026 176.304 175.758 
176.11 175.6 175.954 175.405 175.683 178.245 177.685 177.991 177.425 
177.741 177.182 177.55 177.024 177.396 176.836 177.1 176.495 176.691 
179.655 179.117 179.428 178.862 179.176 178.62 178.967 178.456 178.825 
178.291 178.57 177.939 178.11 177.466 177.637 180.858 180.453 180.754 
180.268 180.532 180.006 180.26 179.777 180.069 179.627 179.916 179.392 
179.605 178.953 179.116 178.443 178.623 181.755 181.501 181.81 181.467 
181.72 181.27 181.458 180.973 181.16 180.738 180.98 180.599 180.863 
180.393 180.608 179.984 180.14 179.453 179.6 180.327 180.923 180.963 
181.593 181.348 181.505 182.139 182.186 182.738 181.505 181.774 182.399 
182.606 183.199 183.283 183.875 181.602 181.863 182.533 182.8 183.513 
183.705 184.436 184.521 185.244 181.835 182.035 182.789 183.026 183.867 
184.088 184.94 185.096 185.886 185.949 186.624 182.152 182.342 183.096 
183.343 184.165 184.452 185.268 185.534 186.252 186.447 187.026 187.139 
187.614 182.375 182.62 183.289 183.576 184.26 184.603 185.271 185.649 
186.255 186.591 187.086 187.325 187.734 187.908 188.284 182.395 182.708 
183.29 183.626 184.21 184.557 185.128 185.499 186.076 186.454 187.009 
187.305 187.786 187.975 188.39 188.524 188.863 182.273 182.605 183.126 
183.498 184.046 184.421 184.975 185.334 185.909 186.28 186.897 187.248 
187.839 188.082 188.577 188.696 189.065 189.099 189.312 160.288 160.568 
160.208 159.888 161.231 160.681 160.357 159.923 159.872 162.218 161.576 
161.381 160.711 160.649 160.243 160.58 163.394 162.728 162.633 161.928 
161.843 161.233 161.374 161.127 161.576 164.606 163.948 163.812 163.162 
163.009 162.394 162.347 161.936 162.156 162.042 162.469 165.787 165.131 
164.949 164.288 164.097 163.468 163.384 162.877 163.025 162.714 163.103 
162.972 163.503 166.997 166.327 166.212 165.489 165.369 164.639 164.625 
164 164.199 163.732 164.119 163.803 164.309 164.142 164.712 168.245 
167.601 167.593 166.874 166.869 166.087 166.137 165.406 165.608 165.028 
165.364 164.923 165.316 165.019 165.464 165.325 165.81 169.413 168.856 
168.91 168.291 168.357 167.654 167.733 166.998 167.155 166.496 166.753 
166.201 166.499 166.054 166.386 166.093 166.49 166.346 166.779 160.198 
159.805 160.035 160.222 159.806 159.775 160.04 160.257 160.642 160.583 
160.18 160.459 160.351 160.828 160.901 161.391 161.658 161.213 161.467 
161.117 161.535 161.354 161.858 161.822 162.361 162.539 162.194 162.393 
162.111 162.4 162.173 162.569 162.435 162.943 162.905 163.465 163.525 
163.064 163.225 162.899 163.141 162.923 163.264 163.136 163.61 163.551 
164.102 164.055 164.58 164.743 164.194 164.375 163.867 164.146 163.746 
164.135 163.871 164.367 164.234 164.798 164.726 165.268 165.169 165.646 
165.867 165.413 165.611 165.122 165.41 164.941 165.351 164.945 165.431 
165.117 165.64 165.453 165.993 165.879 166.389 166.256 166.736 166.822 
166.447 166.643 166.262 166.513 166.15 166.508 166.177 166.608 166.268 
166.699 166.384 166.84 166.635 167.141 167.01 167.519 167.379 167.874 
160.386 160.459 160.461 160.613 160.823 160.676 160.825 160.761 161.056 
161.478 161.169 161.293 161.097 161.383 161.405 162.019 162.417 161.965 
162.101 161.738 162.025 161.866 162.45 162.581 163.397 163.512 163.007 
163.18 162.726 163.03 162.692 163.225 163.143 163.922 164.045 164.914 
164.572 164.094 164.25 163.841 164.133 163.776 164.226 164.014 164.697 
164.688 165.557 165.66 166.63 165.595 165.111 165.229 164.848 165.114 
164.809 165.199 164.973 165.555 165.491 166.317 166.393 167.378 167.512 
168.548 166.692 166.162 166.285 165.838 166.113 165.771 166.181 165.914 
166.482 166.349 167.16 167.192 168.187 168.296 169.31 169.428 170.346 
167.863 167.325 167.487 166.977 167.275 166.858 167.317 166.981 167.598 
167.366 168.196 168.123 169.129 169.16 170.163 170.204 171.076 171.1 
171.816 179.601 178.499 178.835 178.252 177.195 177.622 177.016 177.311 
176.541 175.75 176.22 175.636 176.006 175.265 175.506 174.753 174.309 
174.75 174.194 174.609 173.978 174.264 173.607 173.856 173.333 172.953 
173.344 172.797 173.205 172.647 173.004 172.442 172.759 172.287 172.612 
172.203 171.69 172.033 171.492 171.865 171.32 171.694 171.14 171.531 
171.028 171.468 171.018 171.429 170.941 170.546 170.824 170.271 170.597 
170.055 170.406 169.86 170.22 169.675 170.093 169.59 170.076 169.592 
170.047 169.562 169.522 169.741 169.166 169.418 168.866 169.177 168.678 
169.011 168.524 168.83 168.34 168.684 168.244 168.667 168.275 168.715 
168.361 168.573 168.765 168.206 168.388 167.833 168.058 167.572 167.881 
167.464 167.775 167.351 167.61 167.199 167.489 167.161 167.525 167.257 
167.654 167.415 
POINT_DATA 1002
SCALARS Distance double
LOOKUP_TABLE default
170.886 169.926 169.805 170.865 169.76 171.991 170.929 169.802 172.068 
173.294 171.106 169.948 172.243 173.452 174.706 171.377 170.162 172.565 
173.721 174.914 176.051 171.66 170.458 172.92 174.137 175.273 176.349 
177.379 172.039 170.933 173.239 174.512 175.734 176.829 177.839 178.813 
172.543 171.478 173.664 174.862 176.095 177.281 178.355 179.312 180.165 
172.984 171.91 174.123 175.299 176.457 177.585 178.684 179.68 180.51 
181.206 173.351 172.299 174.49 175.68 176.839 177.897 178.893 179.861 
180.709 181.389 181.966 168.843 168.666 167.639 167.451 166.444 168.583 
166.255 165.288 167.361 168.606 164.971 164.055 166.116 167.372 168.729 
163.602 162.815 164.748 166.076 167.438 168.919 162.501 161.783 163.494 
164.761 166.092 167.586 169.288 161.747 161.024 162.59 163.685 164.885 
166.273 168.04 169.89 161.146 160.549 161.839 162.811 163.949 165.198 
166.84 168.759 170.493 160.715 160.374 161.184 162.027 163.183 164.406 
165.857 167.666 169.465 170.983 160.508 160.722 160.736 161.212 161.482 
161.355 162.456 162.795 162.26 162.507 163.93 164.234 163.667 163.547 
163.817 165.353 165.771 165.051 164.833 164.846 165.22 167.182 167.648 
166.759 166.447 166.324 166.499 166.986 169.27 169.58 168.904 168.557 
168.332 168.278 168.45 168.874 170.98 171.171 170.748 170.5 170.328 
170.219 170.145 170.219 170.523 172.25 172.436 172.055 171.87 171.78 
171.767 171.724 171.68 171.75 171.972 173.491 173.338 174.94 173.185 
174.818 176.255 173.044 174.456 175.884 177.12 172.993 174.132 175.292 
176.582 177.924 172.996 174.173 175.152 176.235 177.636 179.049 173.014 
174.366 175.555 176.519 177.702 179.015 180.106 173.126 174.49 175.907 
176.993 178.006 179.131 180.091 180.821 173.32 174.613 176.035 177.218 
178.191 179.21 180.15 180.86 181.434 173.519 174.757 176.099 177.28 
178.249 179.218 180.177 180.965 181.577 182.089 174.636 176.062 175.813 
177.268 177.135 177.016 178.215 178.291 178.279 178.176 179.284 179.429 
179.461 179.419 179.201 180.375 180.611 180.646 180.57 180.413 180.146 
181.11 181.506 181.706 181.642 181.512 181.315 181.021 181.63 182.042 
182.458 182.585 182.508 182.368 182.095 181.734 182.212 182.517 182.991 
183.347 183.414 183.317 183.088 182.709 182.311 182.845 183.061 183.754 
184.147 184.953 183.472 185.486 186.348 184.648 183.976 186.761 187.492 
185.842 185.018 184.244 187.725 188.291 186.786 185.873 185.069 184.215 
188.619 189.002 187.693 186.644 185.767 184.926 184.009 189.381 189.495 
188.673 187.59 186.54 185.598 184.625 183.631 189.601 189.575 189.184 
188.321 187.244 186.19 185.179 184.152 183.17 189.368 189.424 189.046 
188.428 187.532 186.51 185.54 184.605 183.658 182.762 182.438 183.216 
182.673 183.479 182.828 184.205 183.765 183.093 184.636 185.551 184.109 
183.354 185.061 186.066 186.914 184.171 183.314 185.213 186.315 187.165 
187.805 183.917 183.061 184.908 186.083 187.056 187.728 188.397 183.658 
182.782 184.519 185.557 186.637 187.437 188.131 188.912 183.367 182.415 
184.232 185.099 186.079 186.992 187.72 188.467 189.195 182.882 181.927 
183.817 184.671 185.525 186.418 187.221 187.942 188.676 189.25 173.364 
174.598 174.46 175.787 175.635 175.945 176.983 176.801 177.093 177.202 
178.125 177.888 178.18 178.207 178.255 179.148 178.831 179.255 179.244 
179.286 179.286 180.027 179.666 180.281 180.369 180.41 180.415 180.32 
180.857 180.479 181.206 181.46 181.547 181.483 181.356 181.187 181.678 
181.254 182.039 182.359 182.55 182.457 182.225 182.061 181.873 171.843 
172.876 171.099 172.264 170.165 174.048 171.439 169.135 173.529 175.25 
170.496 168.308 172.838 174.797 176.43 169.709 167.844 172.037 174.277 
176.06 177.545 169.222 167.651 171.297 173.632 175.68 177.248 178.538 
169.046 167.706 170.815 172.959 175.121 176.902 178.28 179.435 169.15 
167.998 170.653 172.502 174.511 176.384 177.943 179.194 180.262 169.389 