# vtk DataFile Version 4.0
vtk output
ASCII
DATASET POLYDATA
POINTS 1002 float
-119.988 -114.133 52.2521 -119.746 -113.112 51.2705 -119.148 -113.277 51.7002 
-119.374 -114.41 52.7617 -118.591 -113.505 52.2732 -120.233 -115.244 53.5003 
-118.78 -114.79 53.3632 -118.079 -113.918 52.8702 -119.612 -115.662 54.0795 
-120.467 -116.439 54.9799 -118.212 -115.41 53.938 -117.46 -114.562 53.4327 
-118.961 -116.207 54.7251 -119.85 -117.069 55.5828 -120.597 -117.908 56.4502 
-117.577 -116.141 54.6154 -116.792 -115.256 54.1212 -118.347 -116.923 55.3961 
-119.146 -117.786 56.3239 -119.93 -118.768 57.1097 -120.493 -119.649 57.9408 
-116.984 -116.752 55.5717 -116.322 -115.839 55.0322 -117.763 -117.65 56.2413 
-118.515 -118.549 57.1733 -119.17 -119.608 58.001 -119.745 -120.629 58.7078 
-120.278 -121.472 59.5105 -116.571 -117.39 56.5667 -115.989 -116.48 55.9256 
-117.248 -118.393 57.2318 -117.975 -119.366 58.0934 -118.539 -120.405 58.9829 
-118.994 -121.526 59.6236 -119.526 -122.498 60.2197 -120.143 -123.316 60.7906 
-116.227 -118.276 57.3539 -115.624 -117.352 56.6453 -116.813 -119.289 58.1463 
-117.431 -120.299 59.0129 -117.976 -121.262 59.9096 -118.393 -122.322 60.5737 
-118.823 -123.396 61.0011 -119.379 -124.261 61.4088 -119.989 -124.947 61.7441 
-115.869 -119.26 58.1178 -115.305 -118.342 57.3688 -116.404 -120.185 59.0285 
-116.881 -121.16 59.9616 -117.332 -122.095 60.8156 -117.788 -123.037 61.4924 
-118.218 -124.08 61.9054 -118.646 -124.99 62.2073 -119.151 -125.615 62.5165 
-119.72 -126.077 62.7857 -115.526 -120.135 59.0255 -115.095 -119.28 58.2319 
-115.976 -120.916 59.9803 -116.363 -121.783 60.9466 -116.698 -122.712 61.7572 
-117.106 -123.601 62.3959 -117.58 -124.543 62.8536 -117.991 -125.463 63.1672 
-118.375 -126.099 63.4623 -118.863 -126.479 63.7529 -119.452 -126.802 63.9961 
-119.133 -112.267 50.5754 -118.512 -112.381 51.0822 -118.523 -111.437 49.882 
-117.892 -111.539 50.4703 -117.953 -110.516 49.3509 -117.967 -112.563 51.762 
-117.291 -110.636 49.9806 -117.363 -109.424 49.0752 -117.281 -111.643 51.2843 
-117.368 -112.912 52.4583 -116.626 -109.622 49.6647 -116.666 -108.375 48.904 
-116.584 -110.761 50.853 -116.539 -111.942 52.0405 -116.626 -113.569 53.0015 
-115.834 -108.664 49.4885 -115.918 -107.527 48.8115 -115.847 -109.939 50.5422 
-115.735 -111.232 51.6052 -115.725 -112.757 52.4563 -116.002 -114.396 53.5835 
-115.082 -107.812 49.5263 -115.259 -106.711 48.9556 -115.056 -109.119 50.4325 
-114.927 -110.634 51.3543 -114.782 -112.249 51.9915 -115.066 -113.781 52.9422 
-115.595 -115.114 54.4501 -114.535 -106.994 49.802 -114.704 -105.829 49.3295 
-114.39 -108.268 50.5187 -114.171 -109.831 51.3181 -113.868 -111.628 51.848 
-113.95 -113.274 52.5295 -114.552 -114.542 53.87 -115.19 -115.807 55.3859 
-114.106 -106.256 50.2075 -114.2 -105.018 49.8278 -113.898 -107.524 50.751 
-113.596 -108.945 51.4219 -113.237 -110.715 51.9519 -113.075 -112.57 52.4549 
-113.436 -113.983 53.4735 -114.159 -115.162 54.8865 -114.83 -116.654 56.1853 
-113.69 -105.697 50.6827 -113.755 -104.455 50.3987 -113.464 -106.988 51.1116 
-113.127 -108.276 51.6963 -112.833 -109.833 52.2792 -112.638 -111.73 52.7292 
-112.707 -113.386 53.3655 -113.233 -114.565 54.4577 -114.017 -115.886 55.7417 
-114.684 -117.611 56.9819 -113.311 -104.937 51.1932 -113.105 -106.282 51.5363 
-112.754 -105.67 52.2218 -112.421 -107.012 52.6646 -112.152 -106.441 53.544 
-112.743 -107.618 52.0634 -111.877 -107.832 53.9607 -111.724 -107.315 54.9097 
-112.105 -108.426 53.2815 -112.45 -109.044 52.7506 -111.558 -108.904 55.1951 
-111.607 -108.487 56.1552 -111.673 -109.511 54.5092 -111.922 -110.17 54.0293 
-112.305 -110.909 53.3558 -111.526 -110.12 56.4958 -111.948 -109.8 57.3968 
-111.362 -110.729 55.6503 -111.389 -111.453 55.1786 -111.735 -112.184 54.5883 
-112.239 -112.838 53.7963 -112.153 -111.343 57.8228 -112.874 -111.226 58.4054 
-111.617 -111.777 56.9655 -111.284 -112.425 56.2481 -111.306 -113.121 55.6871 
-111.858 -113.734 54.9711 -112.571 -114.187 54.4739 -113.387 -112.929 58.7281 
-114.108 -113.015 58.9493 -112.734 -113.047 58.2532 -112.294 -113.4 57.5298 
-111.997 -113.883 56.8659 -112.135 -114.436 56.236 -112.763 -114.976 55.73 
-113.43 -115.453 55.6108 -114.568 -114.929 59.3506 -115.142 -114.985 59.4433 
-113.991 -114.95 59.2369 -113.677 -115.087 58.8648 -113.46 -115.33 58.3148 
-113.262 -115.718 57.7665 -113.423 -116.248 57.2951 -113.873 -116.799 57.0367 
-114.29 -117.268 56.9814 -115.255 -116.834 60.2152 -115.71 -116.697 60.3022 
-114.737 -117.028 60.2054 -114.405 -117.225 60.1255 -114.248 -117.41 59.852 
-114.012 -117.69 59.4426 -113.857 -118.138 59.0274 -114.057 -118.63 58.7186 
-114.425 -119.001 58.5298 -114.757 -119.206 58.3764 -115.039 -120.712 59.7434 
-114.576 -120.858 59.9621 -114.635 -122.038 61.3457 -114.039 -120.868 60.1509 
-113.921 -122.332 61.5244 -113.939 -123.358 62.7796 -113.542 -120.613 60.3767 
-113.127 -122.43 61.694 -113.132 -123.602 63.0007 -113.195 -124.699 64.2454 
-113.441 -120.14 60.7491 -112.54 -122.175 62.0088 -112.344 -123.61 63.2715 
-112.527 -124.781 64.6549 -112.578 -125.845 65.9034 -113.778 -119.71 61.1838 
-112.584 -121.694 62.5358 -111.856 -123.295 63.7358 -111.872 -124.658 65.026 
-112.021 -125.812 66.3733 -112.167 -126.829 67.4718 -114.189 -119.443 61.4508 
-113.199 -121.31 62.9836 -112.068 -122.813 64.3491 -111.456 -124.206 65.5492 
-111.39 -125.47 66.7917 -111.573 -126.691 67.9771 -111.733 -127.922 68.9291 
-114.606 -119.16 61.4873 -113.941 -121.055 63.072 -112.848 -122.478 64.6802 
-111.7 -123.646 66.1153 -111.051 -124.786 67.3879 -111.046 -126.077 68.5804 
-111.116 -127.616 69.6262 -110.931 -129.001 70.421 -115.114 -118.749 61.4514 
-114.586 -120.682 62.9513 -113.683 -122.28 64.5624 -112.464 -123.378 66.2489 
-111.395 -124.265 67.8187 -111.023 -125.369 69.1363 -110.983 -126.889 70.2667 
-110.596 -128.514 71.1654 -110.074 -129.68 71.7459 -115.601 -118.334 61.4705 
-115.116 -120.154 62.8592 -114.342 -121.966 64.2979 -113.306 -123.31 65.9412 
-112.216 -124.166 67.7081 -111.58 -125.07 69.2017 -111.421 -126.343 70.4176 
-111.064 -127.795 71.5026 -110.317 -129.037 72.3074 -109.785 -129.829 72.7279 
-115.368 -121.432 60.7113 -114.873 -122.771 62.3214 -115.718 -122.208 61.7214 
-114.103 -124.327 63.7068 -115.164 -123.74 63.2167 -116.037 -123.167 62.5902 
-113.295 -125.738 65.2403 -114.412 -125.366 64.5864 -115.563 -124.712 64.0152 
-116.409 -124.093 63.2821 -112.759 -126.764 66.9275 -113.705 -126.543 66.205 
-114.957 -126.066 65.506 -116.052 -125.447 64.7622 -116.88 -124.957 63.8398 
-112.43 -127.867 68.4631 -113.276 -127.531 67.8581 -114.327 -127.12 67.1271 
-115.469 -126.651 66.2956 -116.49 -126.223 65.3189 -117.327 -125.872 64.2383 
-111.712 -129.109 69.9195 -112.81 -128.732 69.3324 -113.851 -128.254 68.5966 
-114.829 -127.846 67.7066 -115.898 -127.435 66.712 -116.922 -127.016 65.6609 
-117.725 -126.582 64.5605 -110.618 -129.971 71.2886 -111.933 -129.732 70.6899 
-113.356 -129.3 69.9023 -114.419 -128.955 68.9407 -115.421 -128.569 67.936 
-116.547 -128.052 66.9579 -117.505 -127.487 65.9614 -118.217 -126.956 64.8727 
-109.963 -130.255 72.3761 -111.122 -130.228 71.8578 -112.779 -129.945 71.1036 
-114.144 -129.706 70.1069 -115.182 -129.42 69.0823 -116.311 -128.932 68.1441 
-117.419 -128.338 67.2099 -118.231 -127.751 66.2063 -118.851 -127.238 65.1109 
-110.121 -129.987 73.3512 -110.719 -130.366 72.9607 -111.308 -130.089 73.9335 
-112.246 -130.515 73.5616 -112.872 -130.267 74.5663 -112.185 -130.35 72.3736 
-113.833 -130.604 74.1921 -114.497 -130.263 75.1323 -113.608 -130.576 72.8407 
-113.789 -130.217 71.411 -115.5 -130.368 74.4731 -116.438 -130.133 75.2349 
-115.011 -130.606 73.1266 -114.917 -130.495 71.6052 -115.027 -130.031 70.2646 
-117.611 -130.279 74.0481 -118.453 -130.267 74.665 -116.874 -130.422 72.8921 
-116.372 -130.53 71.5453 -116.167 -130.2 70.363 -116.209 -129.606 69.2546 
-119.533 -130.673 73.2349 -120.017 -130.464 73.8009 -119.005 -130.662 72.2502 
-118.363 -130.587 71.1511 -117.735 -130.279 70.2048 -117.472 -129.717 69.2876 
-117.468 -129.053 68.26 -120.824 -130.976 72.5735 -121.267 -130.346 73.1062 
-120.479 -131.23 71.7062 -120.083 -131.003 70.7542 -119.403 -130.464 69.8631 
-118.803 -129.885 68.9821 -118.598 -129.265 68.079 -118.466 -128.509 67.1647 
-121.874 -130.827 72.0702 -122.417 -130.038 72.5616 -121.419 -131.403 71.3017 
-121.136 -131.361 70.4738 -120.688 -130.71 69.5894 -120.035 -129.997 68.5876 
-119.62 -129.449 67.6503 -119.431 -128.777 66.8645 -119.16 -127.957 66.0483 
-122.906 -130.45 71.4647 -123.378 -129.76 71.9377 -122.375 -131.044 70.7412 
-122.028 -131.21 70.0066 -121.729 -130.759 69.2286 -121.209 -130.032 68.2402 
-120.67 -129.442 67.2566 -120.352 -128.885 66.5128 -120.08 -128.171 65.8002 
-119.743 -127.432 64.9234 -110.369 -129.23 73.3416 -110.88 -129.23 74.1064 
-111.399 -128.417 73.7995 -111.865 -128.222 74.838 -112.396 -127.745 73.9461 
-112.019 -129.321 74.7572 -112.816 -127.513 75.1267 -113.473 -127.493 73.4936 
-112.826 -128.308 75.5032 -113.533 -129.562 75.2809 -114.146 -127.411 74.4288 
-114.925 -127.436 72.4188 -113.919 -127.639 75.645 -114.543 -128.635 75.7821 
-115.488 -129.699 75.6319 -115.763 -127.409 72.9936 -116.256 -127.044 71.2639 
-115.493 -127.508 74.7313 -115.975 -127.907 75.7076 -116.843 -128.885 75.8467 
-117.633 -129.81 75.5046 -116.89 -126.879 71.7253 -117.011 -126.195 70.4631 
-116.879 -127.36 73.2158 -117.338 -127.54 74.6933 -118.062 -127.992 75.5025 
-118.672 -128.999 75.3998 -119.302 -129.92 74.7372 -117.535 -125.931 70.887 
-117.554 -125.241 69.7817 -117.696 -126.722 71.9205 -118.182 -127.195 73.1284 
-118.819 -127.368 74.2915 -119.323 -127.94 74.7225 -119.895 -128.947 74.3819 
-120.645 -129.772 73.7926 -118.209 -125.025 70.0327 -118.243 -124.475 68.8659 
-118.375 -125.778 70.9433 -118.798 -126.513 71.7443 -119.371 -126.905 72.6914 
-119.885 -127.217 73.4696 -120.454 -127.912 73.6144 -121.247 -128.765 73.3798 
-121.997 -129.451 73.0776 -118.986 -124.346 68.9299 -119.007 -123.888 67.7582 
-119.122 -124.912 69.9353 -119.453 -125.619 70.6598 -119.937 -126.26 71.3357 
[...]
CELL_DATA 2000
SCALARS Distance double
LOOKUP_TABLE default
171.835 171.726 172.183 173.045 171.749 172.142 173.034 173.481 174.404 
171.909 172.252 173.15 173.538 174.515 174.934 175.901 172.131 172.467 
173.396 173.735 174.723 175.114 176.152 176.519 177.486 172.43 172.735 
173.71 174.035 175.053 175.402 176.462 176.821 177.845 178.142 179.083 
172.871 173.116 174.129 174.418 175.494 175.804 176.89 177.199 178.239 
178.526 179.495 179.754 180.674 173.435 173.645 174.698 174.937 176.047 
176.315 177.413 177.678 178.708 178.96 179.919 180.168 181.068 181.315 
182.139 174.084 174.271 175.342 175.559 176.64 176.889 177.932 178.188 
179.162 179.417 180.331 180.582 181.425 181.662 182.407 182.637 183.277 
174.8 174.952 175.969 176.173 177.167 177.417 178.36 178.626 179.504 
179.783 180.624 180.917 181.703 181.96 182.631 182.841 183.403 183.61 
184.114 171.062 169.871 170.598 170.914 168.707 169.415 169.719 170.492 
170.91 167.535 168.256 168.538 169.294 169.675 170.518 171.013 166.32 
167.063 167.35 168.104 168.424 169.239 169.688 170.619 171.178 165.135 
165.839 166.152 166.92 167.262 168.012 168.418 169.279 169.859 170.827 
171.475 164.095 164.706 165.013 165.756 166.166 166.904 167.317 168.08 
168.63 169.547 170.249 171.209 171.919 163.219 163.756 164.05 164.696 
165.109 165.836 166.262 167.004 167.489 168.351 169.006 169.986 170.724 
171.697 172.439 162.477 162.978 163.303 163.837 164.212 164.837 165.259 
165.957 166.433 167.223 167.821 168.741 169.458 170.461 171.243 172.249 
173.058 161.9 162.35 162.737 163.188 163.555 164.045 164.466 165.054 
165.59 166.27 166.895 167.656 168.349 169.232 170.03 171.039 171.932 
172.946 173.82 161.817 162.118 162.178 162.648 162.548 162.517 162.921 
162.991 163.447 163.157 163.005 163.398 163.345 163.805 163.837 164.366 
164.069 163.742 164.167 163.976 164.508 164.39 164.991 164.935 165.57 
165.349 164.816 165.198 164.875 165.399 165.222 165.838 165.724 166.363 
166.265 166.909 167.05 166.288 166.601 166.044 166.474 166.152 166.676 
166.539 167.131 167.069 167.691 167.63 168.309 169.144 168.212 168.565 
167.717 168.171 167.485 168.027 167.541 168.178 167.905 168.647 168.496 
169.299 169.174 170.012 171.371 170.445 170.88 169.932 170.491 169.577 
170.253 169.388 170.146 169.422 170.314 169.812 170.814 170.453 171.441 
171.127 172.038 173.369 172.615 173.067 172.258 172.822 172.003 172.679 
171.842 172.564 171.732 172.53 171.835 172.772 172.252 173.229 172.78 
173.666 173.238 174.006 175.091 174.872 175.53 176.482 174.535 175.293 
176.282 176.813 177.572 174.132 174.918 175.924 176.529 177.292 177.803 
178.512 173.905 174.572 175.551 176.117 176.887 177.456 178.22 178.765 
179.513 173.945 174.49 175.449 175.844 176.581 177.058 177.848 178.441 
179.256 179.783 180.526 174.065 174.61 175.63 175.925 176.644 176.905 
177.608 178.074 178.851 179.44 180.211 180.77 181.517 174.158 174.725 
175.831 176.191 176.977 177.135 177.732 177.944 178.56 179.001 179.725 
180.346 181.143 181.755 182.47 174.281 174.807 175.915 176.372 177.244 
177.489 178.09 178.176 178.669 178.842 179.477 179.92 180.757 181.358 
182.163 182.663 183.208 174.448 174.908 175.928 176.409 177.305 177.682 
178.367 178.529 179.039 179.093 179.669 179.88 180.695 181.129 182.002 
182.435 183.064 183.337 183.686 175.541 176.868 176.366 176.642 177.968 
177.596 177.91 177.459 177.78 178.967 178.653 179.052 178.681 179.051 
178.602 178.932 179.964 179.67 180.119 179.814 180.247 179.856 180.209 
179.735 180.041 180.966 180.675 181.106 180.845 181.3 181.008 181.393 
180.987 181.302 180.831 181.135 182.026 181.719 182.157 181.835 182.266 
181.991 182.395 182.089 182.425 182.045 182.351 181.913 182.188 182.976 
182.769 183.226 182.921 183.319 182.985 183.36 183.045 183.394 183.081 
183.395 183.045 183.3 182.882 183.067 183.568 183.529 183.935 183.84 
184.215 184 184.332 184.026 184.341 184.025 184.339 184.022 184.282 
183.91 184.078 183.654 183.78 183.91 183.921 184.273 184.326 184.73 
184.715 185.083 184.916 185.216 184.947 185.235 184.943 185.219 184.875 
185.071 184.646 184.775 184.332 184.46 184.201 184.974 184.542 184.602 
186.165 185.547 185.579 185.066 185.14 187.424 186.823 186.817 186.19 
186.153 185.617 185.575 188.522 187.965 187.885 187.338 187.198 186.64 
186.475 185.946 185.754 189.625 189.018 188.868 188.292 188.131 187.584 
187.377 186.825 186.591 186.049 185.799 190.635 190.126 190.02 189.37 
189.227 188.564 188.371 187.731 187.49 186.902 186.649 186.087 185.799 
191.293 191.022 191.027 190.536 190.415 189.758 189.499 188.776 188.44 
187.795 187.483 186.925 186.6 186.035 185.651 191.668 191.546 191.592 
191.345 191.238 190.799 190.465 189.821 189.317 188.659 188.205 187.674 
187.298 186.782 186.36 185.793 185.342 191.894 191.832 191.825 191.706 
191.572 191.35 191.017 190.569 190.012 189.403 188.83 188.291 187.857 
187.396 186.984 186.464 185.996 185.44 185.001 184.168 184.377 184.428 
184.893 184.581 184.641 185.102 185.302 186.001 184.814 184.836 185.26 
185.466 186.168 186.503 187.268 185.211 185.157 185.568 185.65 186.344 
186.656 187.53 187.806 188.52 185.535 185.595 186.032 186.059 186.716 
186.919 187.826 188.123 188.984 189.104 189.713 185.387 185.726 186.179 
186.424 187.002 187.268 188.01 188.365 189.126 189.449 190.044 190.19 
190.61 184.878 185.355 185.803 186.287 186.809 187.279 187.825 188.291 
188.798 189.279 189.728 190.172 190.548 190.841 191.139 184.382 184.813 
185.254 185.767 186.273 186.83 187.322 187.847 188.253 188.739 189.116 
189.624 190.04 190.52 190.909 191.234 191.511 184.013 184.379 184.798 
185.241 185.717 186.236 186.724 187.253 187.699 188.175 188.596 189.052 
189.515 189.995 190.469 190.902 191.278 191.561 191.781 174.896 175.969 
175.711 176.284 177.062 176.77 177.306 177.077 177.617 178.206 177.895 
178.433 178.136 178.65 178.36 178.732 179.37 179.075 179.652 179.322 
179.823 179.448 179.781 179.354 179.499 180.538 180.256 180.831 180.523 
180.996 180.626 180.947 180.476 180.653 180.102 180.217 181.632 181.394 
181.927 181.646 182.083 181.742 182.069 181.644 181.901 181.381 181.62 
181.007 181.273 182.486 182.355 182.853 182.662 183.116 182.817 183.178 
182.77 183.065 182.621 182.923 182.443 182.74 182.182 182.478 183.092 
183.038 183.497 183.443 183.931 183.794 184.214 183.896 184.167 183.744 
183.953 183.576 183.787 183.431 183.598 183.202 183.356 183.6 183.551 
183.966 183.966 184.447 184.466 184.929 184.814 185.08 184.751 184.82 
184.445 184.493 184.211 184.277 184.021 184.06 183.791 183.848 174.148 
173.319 174.302 175.308 172.319 173.475 174.682 175.532 176.484 171.298 
172.494 173.895 174.927 176.035 176.742 177.63 170.531 171.562 172.995 
174.133 175.382 176.252 177.19 177.862 178.733 170.072 170.883 172.173 
173.255 174.551 175.54 176.565 177.346 178.256 178.972 179.891 169.782 
170.419 171.53 172.474 173.751 174.746 175.88 176.71 177.701 178.466 
179.457 180.166 181.05 169.661 170.123 171.091 171.861 173.092 174.038 
175.262 176.109 177.171 177.934 178.952 179.71 180.652 181.283 181.995 
169.762 170.067 170.931 171.493 172.627 173.455 174.68 175.541 176.621 
177.405 178.393 179.178 180.131 180.847 181.627 182.145 182.69 169.985 
170.224 171.021 171.422 172.436 173.079 174.211 174.985 176.022 176.799 
177.736 178.546 179.487 180.286 181.139 181.765 182.403 182.81 183.262 
170.349 171.33 171.01 171.442 172.478 172.121 172.638 172.279 172.871 
173.71 173.357 173.939 173.577 174.194 173.847 174.545 174.984 174.63 
175.243 174.905 175.51 175.16 175.768 175.499 176.203 176.275 175.914 
176.507 176.19 176.783 176.441 177.003 176.679 177.321 177.114 177.87 
177.497 177.165 177.713 177.416 178.013 177.699 178.306 177.952 178.624 
178.317 179.105 178.866 179.672 178.645 178.34 178.904 178.609 179.249 
178.951 179.64 179.309 180.042 179.709 180.499 180.202 180.981 180.69 
181.358 179.806 179.509 180.144 179.845 180.551 180.25 181.002 180.691 
181.45 181.131 181.862 181.563 182.232 181.947 182.497 182.199 182.618 
180.967 180.706 181.377 181.113 181.826 181.563 182.301 182.042 182.766 
182.485 183.127 182.823 183.355 183.063 183.49 183.208 183.527 183.235 
183.471 181.815 183.273 182.45 182.274 184.75 183.921 183.747 182.923 
182.74 186.247 185.401 185.205 184.38 184.216 183.399 183.223 187.672 
186.889 186.675 185.836 185.64 184.844 184.69 183.886 183.688 188.811 
188.185 187.963 187.236 186.968 186.211 185.991 185.265 185.049 184.275 
183.995 189.757 189.185 188.961 188.365 188.089 187.42 187.114 186.441 
186.144 185.476 185.146 184.438 184.102 190.696 190.117 189.891 189.307 
189.067 188.446 188.127 187.464 187.094 186.446 186.063 185.431 185.057 
184.435 184.115 191.444 190.998 190.736 190.208 189.906 189.349 188.983 
188.382 187.953 187.327 186.89 186.274 185.865 185.279 184.917 184.373 
184.067 191.796 191.561 191.262 190.883 190.466 190.017 189.541 189.064 
188.583 188.072 187.61 187.054 186.614 186.041 185.633 185.094 184.735 
184.252 183.948 181.818 182.275 182.468 183.288 182.679 182.966 183.896 
184.025 184.839 182.935 183.384 184.492 184.717 185.634 185.627 186.384 
183.01 183.601 184.86 185.302 186.33 186.436 187.195 187.149 187.795 
182.984 183.609 184.851 185.511 186.596 186.973 187.746 187.861 188.489 
188.468 188.971 182.921 183.523 184.642 185.345 186.413 187.005 187.862 
188.227 188.961 189.108 189.716 189.6 190.011 182.793 183.393 184.449 
185.096 186.137 186.751 187.691 188.211 189.092 189.477 190.252 190.344 
190.865 190.648 190.972 182.633 183.221 184.249 184.878 185.896 186.508 
187.448 188.016 188.886 189.442 190.233 190.658 191.222 191.337 191.636 
191.489 191.659 182.511 183.05 183.996 184.608 185.538 186.197 187.059 
187.696 188.433 189.054 189.683 190.305 190.799 191.29 191.575 191.807 
191.918 191.918 191.938 180.998 179.952 180.784 181.412 178.85 179.727 
180.298 181.15 181.726 177.437 178.477 179.043 179.986 180.462 181.35 
181.853 175.787 176.846 177.37 178.527 179.036 180.027 180.436 181.375 
181.866 174.369 175.197 175.562 176.676 177.214 178.417 178.932 179.96 
180.415 181.383 181.902 173.215 173.921 174.2 175.012 175.446 176.534 
177.131 178.326 178.891 179.953 180.438 181.42 181.9 172.028 172.797 
173.166 173.864 174.247 175.017 175.527 176.554 177.168 178.311 178.832 
179.898 180.319 181.339 181.759 170.874 171.633 172.098 172.862 173.314 
174.001 174.44 175.196 175.721 176.666 177.192 178.216 178.639 179.676 
180.085 181.147 181.594 169.923 170.582 171.05 171.807 172.304 173.047 
173.495 174.201 174.644 175.407 175.864 176.704 177.111 178.023 178.436 
179.461 179.956 181.026 181.527 169.577 169.419 169.886 170.7 169.335 
169.786 170.648 171.095 171.942 169.403 169.786 170.659 171.07 171.919 
172.344 173.153 169.598 169.913 170.748 171.11 171.921 172.318 173.133 
173.543 174.328 169.858 170.111 170.876 171.197 171.95 172.312 173.08 
173.505 174.309 174.723 175.495 170.201 170.375 171.093 171.341 172.082 
172.37 173.109 173.458 174.235 174.662 175.456 175.876 176.652 170.636 
170.755 171.471 171.634 172.418 172.619 173.414 173.616 174.395 174.665 
175.487 175.851 176.712 177.093 177.965 171.122 171.228 171.961 172.084 
172.887 173.057 173.915 174.071 174.892 175.014 175.844 176.047 176.987 
177.288 178.288 178.584 179.55 171.634 171.743 172.488 172.6 173.37 
173.534 174.368 174.578 175.423 175.581 176.399 176.54 177.45 177.693 
178.729 179.023 180.044 180.275 181.181 172.182 173.385 172.87 173.067 
174.716 174.132 174.311 173.761 173.951 176.175 175.52 175.681 175.055 
175.242 174.689 174.942 177.74 177.047 177.236 176.525 176.737 176.08 
176.357 175.773 176.044 179.356 178.669 178.948 178.207 178.507 177.747 
178.061 177.328 177.614 176.914 177.111 180.981 180.335 180.691 179.991 
180.375 179.632 179.997 179.186 179.47 178.63 178.856 178.038 178.235 
182.451 181.934 182.296 181.699 182.06 181.438 181.801 181.104 181.384 
180.56 180.781 179.917 180.168 179.305 179.555 183.582 183.253 183.593 
183.152 183.432 182.937 183.223 182.709 182.981 182.352 182.559 181.811 
182.033 181.253 181.506 180.671 180.866 184.424 184.224 184.583 184.281 
184.551 184.143 184.378 183.953 184.217 183.759 183.989 183.418 183.596 
182.96 183.152 182.478 182.642 181.865 181.949 182.753 183.431 183.458 
184.163 183.928 184.044 184.766 184.858 185.621 184.36 184.5 185.23 
185.381 186.166 186.315 187.093 184.735 184.928 185.678 185.841 186.61 
186.785 187.555 187.714 188.417 184.947 185.235 186.033 186.283 187.073 
187.237 187.954 188.097 188.762 188.923 189.568 185.081 185.385 186.194 
186.553 187.393 187.664 188.388 188.515 189.116 189.221 189.816 190.003 
190.612 185.208 185.503 186.24 186.625 187.406 187.815 188.536 188.838 
189.436 189.586 190.111 190.236 190.773 190.963 191.435 185.19 185.545 
186.184 186.583 187.223 187.661 188.269 188.735 189.329 189.727 190.264 
190.496 190.948 191.1 191.49 191.636 191.887 184.982 185.389 185.963 
186.403 186.955 187.377 187.866 188.321 188.851 189.394 189.981 190.453 
190.93 191.193 191.501 191.646 191.835 191.931 191.983 161.46 162.095 
161.528 161.158 162.947 162.325 161.973 161.374 161.22 163.903 163.292 
163.021 162.325 162.075 161.569 161.719 164.943 164.321 164.135 163.447 
163.194 162.518 162.504 162.212 162.689 166.105 165.432 165.287 164.613 
164.459 163.728 163.676 163.128 163.455 163.309 163.946 167.347 166.66 
166.557 165.858 165.811 165.086 165.117 164.437 164.669 164.235 164.729 
164.586 165.199 168.572 167.933 167.913 167.225 167.257 166.542 166.645 
165.944 166.143 165.547 165.893 165.509 166.013 165.846 166.439 169.764 
169.171 169.221 168.602 168.688 168.031 168.157 167.486 167.671 167.029 
167.295 166.755 167.15 166.792 167.318 167.132 167.703 170.95 170.379 
170.442 169.877 169.965 169.395 169.512 168.93 169.102 168.513 168.756 
168.18 168.511 168.021 168.461 168.117 168.623 168.396 168.882 161.097 
160.778 160.786 160.735 160.928 160.702 160.713 160.738 161.101 161.634 
161.192 161.296 161.043 161.473 161.506 162.196 162.781 162.218 162.405 
161.925 162.3 162.1 162.759 162.821 163.556 164.052 163.508 163.716 
163.176 163.455 163.058 163.566 163.466 164.155 164.182 164.791 165.256 
164.751 164.943 164.453 164.706 164.247 164.653 164.368 164.97 164.856 
165.474 165.382 165.91 166.481 165.946 166.15 165.653 165.938 165.48 
165.879 165.51 166.029 165.774 166.324 166.137 166.653 166.517 167.045 
167.716 167.187 167.396 166.894 167.183 166.723 167.098 166.712 167.153 
166.839 167.281 167.021 167.453 167.272 167.753 167.662 168.193 168.838 
168.364 168.541 168.102 168.363 167.946 168.269 167.881 168.244 167.903 
168.276 167.968 168.342 168.087 168.515 168.361 168.857 168.78 169.282 
161.339 160.987 161.28 161.697 161.288 161.177 161.523 161.75 162.201 
162.303 161.8 161.981 161.815 162.186 162.345 162.845 163.607 162.98 
163.033 162.538 162.763 162.577 163.043 163.152 163.791 164.779 164.221 
164.257 163.697 163.861 163.422 163.829 163.636 164.292 164.339 165.149 
165.875 165.335 165.426 164.906 165.134 164.649 165.036 164.655 165.249 
165.079 165.9 165.923 166.886 167.061 166.498 166.66 166.128 166.43 
165.956 166.358 165.924 166.42 166.126 166.854 166.798 167.786 167.85 
168.947 168.251 167.735 167.929 167.417 167.724 167.27 167.677 167.24 
167.698 167.312 167.956 167.792 168.76 168.811 169.962 170.034 171.156 
169.333 168.89 169.079 168.634 168.911 168.513 168.923 168.541 169.054 
168.647 169.315 169.01 169.963 169.879 171.039 171.073 172.197 172.208 
173.176 180.476 179.336 179.744 179.434 178.208 178.601 178.266 178.69 
178.331 177.044 177.449 177.05 177.474 177.035 177.468 176.947 175.746 
176.183 175.696 176.158 175.658 176.111 175.589 175.992 175.423 174.405 
174.807 174.265 174.717 174.196 174.675 174.21 174.671 174.228 174.578 
174.113 173.144 173.486 172.947 173.325 172.813 173.233 172.79 173.289 
172.92 173.399 172.987 173.351 172.901 171.941 172.254 171.716 172.068 
171.558 171.926 171.445 171.89 171.489 172.02 171.616 172.103 171.616 
172.05 171.596 170.832 171.087 170.53 170.846 170.328 170.688 170.196 
170.586 170.146 170.604 170.212 170.692 170.265 170.703 170.272 170.731 
170.405 169.906 170.07 169.522 169.728 169.216 169.5 169.053 169.389 
168.986 169.353 168.984 169.384 169.032 169.433 169.087 169.489 169.203 
169.66 169.471 
POINT_DATA 1002
SCALARS Distance double
LOOKUP_TABLE default
172.648 171.517 171.339 172.562 171.278 173.927 172.589 171.381 173.955 
175.333 172.79 171.558 174.073 175.518 176.856 173.057 171.782 174.345 
175.753 177.187 178.42 173.369 172.142 174.707 176.112 177.527 178.825 
180.008 173.84 172.634 175.181 176.599 177.963 179.231 180.435 181.583 
174.464 173.21 175.794 177.17 178.477 179.69 180.842 181.929 182.906 
175.143 173.904 176.422 177.707 178.924 180.09 181.219 182.219 183.077 
183.852 175.813 174.686 176.957 178.125 179.252 180.34 181.446 182.447 
183.231 183.905 184.588 170.332 170.126 169.159 168.961 168.004 170.073 
167.806 166.798 168.85 170.103 166.587 165.577 167.659 168.766 170.198 
165.357 164.474 166.516 167.613 168.877 170.505 164.288 163.526 165.398 
166.587 167.754 169.262 170.983 163.458 162.677 164.406 165.528 166.675 
168.041 169.716 171.475 162.803 161.952 163.651 164.582 165.672 166.957 
168.468 170.193 172.063 162.298 161.454 163.113 163.906 164.915 166.186 
167.544 169.037 170.862 172.873 161.702 162.538 162.116 162.902 162.63 
163.327 163.487 163.36 163.811 164.282 164.384 164.467 164.635 165.082 
165.614 165.603 165.982 165.612 165.955 166.481 167 167.283 167.888 
166.921 166.891 167.186 167.729 168.347 169.466 170.08 168.947 168.644 
168.548 168.801 169.414 170.139 171.792 172.242 171.385 171.141 170.973 
170.918 171.224 171.807 172.381 173.814 174.053 173.599 173.486 173.413 
173.308 173.368 173.728 174.157 174.462 176.129 176.002 177.319 175.726 
177.125 178.278 175.308 176.744 178.013 179.251 175.048 176.305 177.617 
179.036 180.257 175.123 176.187 177.258 178.676 180.061 181.263 175.301 
176.474 177.278 178.294 179.587 180.99 182.302 175.393 176.806 177.659 
178.267 179.125 180.466 181.977 183.137 175.434 176.924 178.01 178.609 
179.139 180.172 181.635 182.88 183.61 175.48 176.876 178.12 178.977 
179.538 180.333 181.581 182.792 183.524 183.927 177.161 178.311 178.262 
179.376 179.474 179.422 180.39 180.599 180.675 180.535 181.382 181.552 
181.754 181.755 181.622 182.515 182.577 182.674 182.763 182.763 182.674 
183.493 183.676 183.707 183.701 183.723 183.703 183.527 183.963 184.355 
184.619 184.672 184.654 184.645 184.503 184.207 184.194 184.664 185.174 
185.461 185.518 185.535 185.481 185.232 184.889 184.483 184.95 185.491 
186.203 186.803 185.587 187.467 188.005 186.784 186.094 188.426 189.139 
187.767 187.049 186.287 189.494 190.247 188.691 187.943 187.143 186.346 
190.643 191.02 189.932 189.067 188.111 187.221 186.384 191.406 191.459 
191.037 190.28 189.155 188.058 187.175 186.243 191.777 191.772 191.596 
191.084 190.032 188.768 187.792 186.931 185.908 191.952 191.963 191.75 
191.374 190.595 189.412 188.314 187.467 186.555 185.527 184.097 184.706 
184.33 184.891 184.526 185.711 185.094 184.828 185.798 186.998 185.554 
185.258 186.06 187.176 188.419 185.982 185.371 186.568 187.526 188.78 
189.759 185.832 184.962 186.728 187.716 188.793 189.811 190.567 185.274 
184.402 186.306 187.397 188.367 189.237 190.141 190.941 184.767 183.981 
185.724 186.792 187.781 188.616 189.499 190.483 191.305 184.394 183.668 
185.236 186.195 187.189 188.129 189.045 190.005 190.922 191.609 175.158 
176.5 176.254 177.562 177.374 177.862 178.754 178.496 178.991 179.104 
179.981 179.64 180.228 180.256 179.989 181.152 180.827 181.367 181.4 
181.19 180.785 182.21 181.865 182.424 182.463 182.347 182.171 181.906 
182.995 182.603 183.358 183.569 183.504 183.349 183.253 183.062 183.52 
183.158 183.981 184.458 184.618 184.383 184.132 183.98 183.756 173.235 
174.514 172.209 173.703 171.049 175.83 172.733 170.117 175.252 177.027 
171.838 169.641 174.418 176.48 178.069 171.171 169.407 173.513 175.725 
177.495 179.211 170.681 169.259 172.74 175.003 176.916 178.699 180.465 
170.43 169.298 172.164 174.374 176.412 178.191 179.972 181.523 170.477 
169.512 171.889 173.83 175.839 177.616 179.376 181.049 182.314 170.685 