# vtk DataFile Version 4.0
vtk output
ASCII
DATASET POLYDATA
POINTS 1002 float
-119.043 -110.575 49.3868 -118.865 -109.414 48.4975 -118.375 -109.703 48.8256 
-118.571 -110.91 49.8537 -117.962 -110.022 49.2881 -119.251 -111.655 50.7347 
-118.189 -111.239 50.5829 -117.605 -110.276 50.0349 -118.818 -111.998 51.5099 
-119.457 -112.732 52.5914 -117.807 -111.536 51.6086 -117.215 -110.637 50.9594 
-118.395 -112.411 52.49 -119.049 -113.168 53.5516 -119.596 -114.024 54.4938 
-117.338 -112.011 52.6783 -116.727 -111.291 51.8605 -117.864 -112.91 53.5488 
-118.493 -113.815 54.4774 -119.126 -114.688 55.3583 -119.593 -115.64 56.1245 
-116.786 -112.716 53.7085 -116.189 -112.051 52.8454 -117.29 -113.576 54.563 
-117.799 -114.591 55.3748 -118.404 -115.574 56.1528 -118.962 -116.515 56.9157 
-119.39 -117.46 57.6329 -116.192 -113.469 54.7969 -115.687 -112.759 53.9876 
-116.717 -114.363 55.6005 -117.196 -115.411 56.3503 -117.677 -116.446 57.0803 
-118.18 -117.421 57.7975 -118.638 -118.388 58.4472 -119.046 -119.276 58.9963 
-115.598 -114.242 55.8074 -115.178 -113.519 55.0669 -116.094 -115.186 56.5888 
-116.62 -116.239 57.357 -117.11 -117.236 58.1074 -117.554 -118.18 58.8325 
-117.942 -119.169 59.4072 -118.296 -120.133 59.8023 -118.69 -120.9 60.159 
-115.025 -115.058 56.6351 -114.586 -114.34 55.9327 -115.496 -115.998 57.4215 
-115.994 -117.025 58.2682 -116.5 -117.967 59.0695 -116.984 -118.869 59.8004 
-117.386 -119.83 60.402 -117.683 -120.8 60.766 -117.987 -121.628 61.0085 
-118.396 -122.218 61.315 -114.501 -115.837 57.3641 -113.993 -115.118 56.6249 
-115.004 -116.726 58.1876 -115.46 -117.697 59.1139 -115.88 -118.608 59.9874 
-116.31 -119.509 60.6822 -116.736 -120.48 61.2591 -117.084 -121.411 61.7075 
-117.373 -122.191 61.9884 -117.721 -122.802 62.2236 -118.167 -123.249 62.5028 
-118.353 -108.277 47.9482 -117.849 -108.557 48.3219 -117.737 -107.037 47.3848 
-117.173 -107.337 47.763 -116.968 -105.906 46.7082 -117.377 -108.875 48.802 
-116.324 -106.289 47.0414 -116.119 -104.898 46.033 -116.565 -107.761 48.2139 
-116.919 -109.227 49.4886 -115.418 -105.354 46.4524 -115.28 -103.865 45.6399 
-115.601 -106.871 47.5225 -115.97 -108.328 48.8356 -116.435 -109.828 50.2518 
-114.51 -104.394 46.1607 -114.459 -102.926 45.4692 -114.676 -106.004 47.0621 
-114.993 -107.533 48.2457 -115.474 -109.058 49.547 -115.938 -110.641 51.0565 
-113.612 -103.572 45.9108 -113.653 -102.254 45.3223 -113.812 -105.093 46.7939 
-114.163 -106.668 47.9264 -114.6 -108.183 49.1002 -115.11 -109.818 50.4114 
-115.52 -111.419 52.1298 -112.831 -102.944 45.8147 -112.883 -101.716 45.3674 
-113.052 -104.315 46.6343 -113.416 -105.869 47.751 -113.806 -107.359 48.9088 
-114.329 -108.905 50.0752 -114.877 -110.643 51.5937 -115.157 -112.215 53.4162 
-112.259 -102.387 46.1631 -112.233 -101.217 45.7662 -112.521 -103.666 46.8649 
-112.811 -105.205 47.8016 -113.036 -106.75 48.8292 -113.503 -108.192 49.9044 
-114.192 -109.873 51.2447 -114.611 -111.647 52.9201 -114.642 -113.114 54.5765 
-111.907 -101.935 46.8055 -111.814 -100.845 46.4125 -112.214 -103.131 47.4418 
-112.439 -104.594 48.198 -112.461 -106.176 48.9704 -112.751 -107.629 49.8402 
-113.492 -109.198 51.0043 -114.05 -111.013 52.4941 -114.079 -112.669 54.0605 
-113.945 -113.979 55.4457 -111.667 -101.324 47.4374 -111.95 -102.505 47.9572 
-111.766 -102.129 48.6798 -112.036 -103.473 49.2819 -111.845 -103.316 50.268 
-112.214 -103.868 48.6757 -111.913 -104.675 51.0275 -111.74 -104.589 52.3405 
-112.024 -104.848 50.0399 -112.152 -105.416 49.3663 -111.849 -105.876 53.0333 
-111.779 -105.794 54.2215 -111.946 -105.917 51.7302 -112.021 -106.273 50.6869 
-112.245 -106.966 50.0505 -112.417 -107.265 54.3771 -112.58 -107.227 55.0884 
-112.518 -107.288 53.3503 -112.624 -107.465 52.3015 -112.729 -107.962 51.4813 
-112.993 -108.62 51.0554 -113.617 -108.906 55.0398 -114.041 -108.859 55.4227 
-113.553 -109.026 54.4531 -113.569 -109.211 53.8603 -113.5 -109.509 53.2636 
-113.463 -109.984 52.7044 -113.638 -110.543 52.4456 -114.664 -110.441 55.9598 
-115.196 -110.308 56.1333 -114.352 -110.665 55.5753 -114.051 -110.916 55.2702 
-113.608 -111.138 55.0166 -113.249 -111.438 54.5146 -113.215 -111.912 54.0251 
-113.541 -112.386 53.9192 -115.003 -111.82 57.2446 -115.519 -111.608 57.238 
-114.573 -112.086 56.9911 -114.063 -112.29 56.7343 -113.308 -112.38 56.6053 
-112.609 -112.542 56.2124 -112.375 -112.974 55.5541 -112.648 -113.519 55.2007 
-113.249 -113.874 55.2722 -114.897 -113.248 58.4159 -115.374 -112.993 58.3487 
-114.456 -113.535 58.2727 -113.961 -113.702 58.07 -113.241 -113.653 57.9962 
-112.46 -113.628 57.7648 -112.058 -113.963 57.1206 -112.177 -114.549 56.5232 
-112.657 -114.993 56.3902 -113.318 -115.142 56.5229 -113.866 -116.354 57.8185 
-113.265 -116.472 57.7906 -113.842 -117.768 59.2948 -112.73 -116.413 57.7831 
-113.293 -118.07 59.3873 -113.535 -119.291 60.9179 -112.35 -115.988 58.1166 
-112.777 -118.163 59.5584 -112.856 -119.731 61.1228 -112.905 -120.839 62.4868 
-112.302 -115.417 58.7936 -112.39 -117.788 60.023 -112.208 -119.837 61.4173 
-112.146 -121.221 62.7908 -112.396 -122.301 64.0908 -112.741 -115.195 59.2428 
-112.415 -117.25 60.5885 -111.87 -119.397 61.8984 -111.515 -121.129 63.1358 
-111.675 -122.478 64.4725 -111.902 -123.54 65.7982 -113.414 -115.295 59.2682 
-112.901 -117.018 60.8015 -112.141 -118.818 62.3873 -111.391 -120.555 63.6485 
-111.103 -122.146 64.8701 -111.04 -123.516 66.2144 -110.959 -124.548 67.3624 
-113.978 -115.272 59.2836 -113.494 -116.942 60.715 -112.776 -118.472 62.5612 
-111.881 -120 64.1529 -111.127 -121.552 65.412 -110.518 -123.061 66.6939 
-110.041 -124.395 67.8327 -109.919 -125.366 68.6211 -114.448 -115.012 59.4116 
-114.033 -116.72 60.6573 -113.417 -118.197 62.4391 -112.579 -119.663 64.2623 
-111.719 -121.166 65.7305 -110.809 -122.567 67.1127 -109.91 -123.916 68.346 
-109.39 -125.115 69.1608 -109.451 -125.934 69.6683 -114.924 -114.698 59.4559 
-114.563 -116.402 60.6558 -114.047 -117.855 62.2512 -113.274 -119.302 64.0295 
-112.471 -120.897 65.5686 -111.626 -122.307 67.0429 -110.642 -123.474 68.5173 
-109.811 -124.596 69.5938 -109.46 -125.563 70.2055 -109.607 -126.218 70.6189 
-114.432 -117.197 58.7623 -114.275 -118.642 60.4213 -114.92 -118.142 59.8011 
-113.776 -120.194 62.051 -114.641 -119.611 61.5443 -115.308 -119.108 60.8361 
-113.163 -121.825 63.5974 -114.089 -121.254 63.0838 -114.964 -120.672 62.4814 
-115.644 -120.095 61.617 -112.656 -123.285 65.3135 -113.474 -122.869 64.6078 
-114.416 -122.374 63.8884 -115.249 -121.807 63.0851 -115.996 -121.175 62.1497 
-111.903 -124.464 67.0256 -112.803 -124.191 66.3382 -113.737 -123.854 65.4009 
-114.683 -123.423 64.471 -115.535 -122.867 63.5556 -116.363 -122.17 62.629 
-110.878 -125.425 68.3614 -111.976 -125.276 67.8886 -112.993 -125.061 67.0382 
-114.006 -124.731 66.001 -114.998 -124.234 65.007 -115.919 -123.607 64.0432 
-116.735 -122.899 63.0317 -110.153 -126.112 69.4016 -111.247 -126.087 69.0353 
-112.343 -126.01 68.3976 -113.377 -125.828 67.4886 -114.473 -125.392 66.4829 
-115.541 -124.772 65.467 -116.447 -124.107 64.4137 -117.158 -123.453 63.3079 
-110.002 -126.516 70.3866 -110.876 -126.606 70.0307 -111.914 -126.626 69.456 
-112.905 -126.603 68.6689 -113.98 -126.363 67.7681 -115.161 -125.848 66.7712 
-116.218 -125.207 65.6884 -117.026 -124.56 64.5923 -117.644 -123.917 63.5206 
-110.156 -126.63 71.477 -110.669 -127.01 71.1976 -110.874 -127.238 72.3013 
-111.48 -127.845 71.8554 -111.784 -128.081 72.6926 -111.55 -127.18 70.6361 
-112.438 -128.803 72.0322 -112.949 -128.513 72.4862 -112.298 -128.087 70.9997 
-112.501 -127.225 69.7835 -113.604 -129.066 71.7157 -114.236 -128.147 72.0341 
-113.225 -128.955 70.9503 -113.19 -127.983 69.8843 -113.511 -127.114 68.839 
-114.93 -128.618 71.1934 -115.511 -127.696 71.604 -114.522 -129.161 70.5674 
-114.215 -128.593 69.7268 -114.295 -127.588 68.8166 -114.736 -126.744 67.8494 
-116.358 -128.21 70.6549 -116.929 -127.592 71.0902 -116.064 -128.836 70.0836 
-115.706 -128.722 69.4227 -115.414 -127.881 68.6117 -115.589 -127.02 67.6681 
-115.99 -126.174 66.6877 -117.969 -127.868 70.128 -118.632 -127.431 70.4795 
-117.576 -128.304 69.5932 -117.282 -128.412 69.0218 -116.861 -127.895 68.2727 
-116.632 -127.142 67.2788 -116.8 -126.405 66.3156 -117.003 -125.521 65.4766 
-119.735 -127.403 69.5868 -120.361 -127.077 69.8814 -119.115 -127.638 69.0154 
-118.673 -127.816 68.376 -118.302 -127.673 67.6632 -117.922 -127.156 66.7229 
-117.75 -126.497 65.7883 -117.781 -125.719 65.0874 -117.758 -124.815 64.3908 
-121.316 -127.004 68.9775 -121.708 -126.706 69.2774 -120.712 -127.119 68.3228 
-120.086 -127.242 67.4964 -119.626 -127.317 66.7196 -119.245 -127.091 65.9425 
-118.887 -126.53 65.176 -118.662 -125.777 64.6067 -118.527 -124.925 64.1032 
-118.356 -124.064 63.3866 -109.98 -125.911 71.2995 -110.519 -126.247 72.2646 
-110.652 -125.325 71.8851 -111.13 -125.478 72.9438 -111.382 -124.709 72.1744 
-111.23 -126.77 73.0207 -111.915 -124.731 73.2176 -112.266 -124.438 71.7941 
-111.885 -125.785 73.5199 -112.291 -127.353 73.0718 -113.03 -124.484 72.531 
-113.518 -124.464 70.5591 -112.868 -124.904 73.5044 -113.176 -126.174 73.2237 
-113.731 -127.442 72.5951 -114.454 -124.553 70.8765 -114.929 -124.28 69.0198 
-114.177 -124.585 72.4996 -114.39 -125.289 73.0383 -114.902 -126.434 72.701 
-115.217 -127.18 72.2191 -115.865 -124.36 69.1296 -116.187 -123.62 67.8069 
-115.584 -124.503 70.7571 -115.685 -124.76 72.134 -116.193 -125.689 72.6367 
-116.525 -126.59 72.4056 -116.589 -127.119 71.8462 -117.089 -123.687 67.8397 
-117.258 -122.676 66.8711 -116.872 -124.184 69.1121 -116.84 -124.275 70.6605 
-117.215 -124.779 71.8716 -117.675 -125.728 72.1652 -117.871 -126.508 71.7619 
-118.099 -127.058 71.1377 -118.105 -122.66 66.8672 -118.169 -121.667 66.0008 
-117.985 -123.44 67.8829 -117.89 -123.723 69.1729 -118.035 -123.898 70.4864 
-118.438 -124.484 71.196 -118.858 -125.317 71.1304 -119.26 -126.106 70.7373 
-119.781 -126.741 70.3362 -118.908 -121.505 66.0523 -118.911 -120.689 65.2119 
-118.883 -122.347 66.9389 -118.849 -122.947 67.9383 -118.917 -123.244 69.0109 
[...]
CELL_DATA 2000
SCALARS Distance double
LOOKUP_TABLE default
168.036 168.041 168.423 169.238 168.159 168.504 169.352 169.704 170.579 
168.364 168.683 169.577 169.902 170.822 171.147 172.074 168.671 168.947 
169.858 170.169 171.12 171.449 172.412 172.712 173.648 169.073 169.309 
170.22 170.492 171.446 171.763 172.746 173.067 174.027 174.307 175.221 
169.525 169.736 170.656 170.903 171.871 172.142 173.133 173.42 174.392 
174.678 175.603 175.865 176.722 170.001 170.189 171.097 171.353 172.339 
172.61 173.608 173.86 174.827 175.072 175.993 176.238 177.089 177.312 
178.074 170.456 170.647 171.525 171.787 172.764 173.06 174.044 174.321 
175.259 175.513 176.41 176.644 177.475 177.676 178.417 178.592 179.252 
170.855 171.072 171.945 172.208 173.169 173.463 174.418 174.703 175.6 
175.88 176.743 177.018 177.828 178.05 178.759 178.925 179.55 179.702 
180.277 167.238 165.934 166.798 167.213 164.503 165.436 165.884 166.798 
167.281 163.038 163.976 164.425 165.4 165.918 166.885 167.444 161.628 
162.528 162.973 163.931 164.463 165.474 166.094 167.096 167.74 160.309 
161.151 161.604 162.526 163.071 164.05 164.694 165.727 166.446 167.456 
168.15 159.136 159.877 160.317 161.203 161.784 162.73 163.386 164.371 
165.112 166.155 166.944 167.93 168.641 158.164 158.787 159.214 160.002 
160.631 161.527 162.226 163.138 163.878 164.867 165.722 166.756 167.603 
168.503 169.198 157.427 157.944 158.422 159.07 159.747 160.52 161.261 
162.071 162.813 163.708 164.583 165.608 166.567 167.528 168.334 169.103 
169.716 156.972 157.383 157.953 158.476 159.194 159.818 160.557 161.228 
161.947 162.722 163.584 164.55 165.561 166.554 167.44 168.259 168.896 
169.583 170.107 157.026 157.763 157.566 158.083 158.883 158.497 158.975 
158.757 159.346 160.2 159.707 160.055 159.709 160.165 160.019 160.607 
161.605 161.048 161.318 160.819 161.154 160.848 161.361 161.266 161.936 
163.247 162.561 162.959 162.272 162.716 162.099 162.698 162.268 163.042 
162.805 163.679 165.262 164.431 164.974 164.187 164.817 164.033 164.732 
164.015 164.8 164.258 165.133 164.79 165.707 167.316 166.531 167.012 
166.286 166.849 166.166 166.703 166.052 166.54 166.005 166.552 166.222 
166.899 166.727 167.468 168.971 168.381 168.724 168.139 168.495 167.93 
168.187 167.641 167.781 167.329 167.52 167.277 167.68 167.632 168.212 
168.219 168.828 170.267 169.802 170.103 169.615 169.889 169.354 169.516 
168.914 168.97 168.383 168.516 168.105 168.492 168.311 168.918 168.866 
169.523 169.478 170.069 170.844 170.387 171.117 172.132 169.871 170.683 
171.851 172.57 173.621 169.448 170.22 171.508 172.327 173.486 174.061 
174.965 169.381 169.926 171.189 171.999 173.219 173.887 174.825 175.327 
176.167 169.77 170.048 171.174 171.771 172.937 173.576 174.515 175.096 
175.951 176.519 177.361 170.326 170.523 171.522 171.896 172.949 173.394 
174.288 174.771 175.594 176.193 177.016 177.616 178.299 170.721 170.995 
171.918 172.248 173.207 173.534 174.388 174.697 175.471 175.885 176.65 
177.182 177.847 178.364 178.863 170.929 171.272 172.16 172.532 173.431 
173.776 174.613 174.898 175.669 175.933 176.659 176.963 177.621 177.974 
178.53 178.902 179.373 171.064 171.425 172.306 172.698 173.575 173.936 
174.751 175.083 175.87 176.17 176.913 177.139 177.792 177.971 178.549 
178.754 179.282 179.529 180.016 171.354 172.659 172.154 172.529 174.081 
173.558 173.935 173.411 173.788 175.376 174.933 175.316 174.842 175.219 
174.689 175.025 176.616 176.187 176.604 176.177 176.591 176.107 176.442 
175.889 176.18 177.854 177.46 177.879 177.452 177.877 177.444 177.818 
177.3 177.597 177.031 177.314 178.796 178.605 179.008 178.676 179.043 
178.672 179.038 178.617 178.929 178.427 178.695 178.149 178.387 179.339 
179.338 179.781 179.642 180.007 179.741 180.075 179.743 180.049 179.655 
179.909 179.451 179.655 179.137 179.286 179.789 179.794 180.284 180.272 
180.712 180.586 180.952 180.708 181.024 180.697 180.965 180.571 180.779 
180.321 180.465 179.949 180.046 180.37 180.299 180.789 180.769 181.253 
181.208 181.621 181.492 181.833 181.61 181.898 181.581 181.81 181.403 
181.566 181.087 181.196 180.672 180.751 180.907 181.972 181.38 181.332 
183.237 182.569 182.476 181.831 181.772 184.412 183.879 183.764 183.029 
182.827 182.214 182.108 185.095 184.881 184.841 184.258 183.946 183.251 
183 182.471 182.325 185.419 185.357 185.461 185.16 184.924 184.293 
183.928 183.331 183.111 182.634 182.431 185.86 185.694 185.877 185.706 
185.668 185.186 184.831 184.204 183.871 183.375 183.142 182.675 182.372 
186.5 186.224 186.334 186.152 186.188 185.874 185.6 185.039 184.606 
184.066 183.739 183.311 183.002 182.531 182.132 187.155 186.859 186.826 
186.577 186.497 186.289 186.062 185.687 185.255 184.736 184.305 183.848 
183.505 183.087 182.7 182.217 181.76 187.67 187.444 187.337 187.016 
186.8 186.531 186.289 186.029 185.694 185.296 184.864 184.393 183.987 
183.556 183.167 182.729 182.279 181.793 181.308 180.882 181.14 181.287 
181.905 181.3 181.49 182.089 182.357 183.091 181.44 181.598 182.125 
182.426 183.107 183.505 184.183 181.693 181.773 182.229 182.423 183.009 
183.393 184.025 184.418 184.861 181.946 182.051 182.468 182.565 183.095 
183.345 184.004 184.3 184.817 184.985 185.28 181.997 182.231 182.639 
182.771 183.237 183.464 184.149 184.439 185.093 185.175 185.569 185.507 
185.811 181.81 182.173 182.607 182.84 183.22 183.486 184.034 184.471 
185.11 185.442 185.864 185.91 186.182 186.145 186.47 181.444 181.889 
182.34 182.695 183.039 183.331 183.687 184.124 184.577 185.126 185.498 
185.904 186.142 186.374 186.649 186.783 187.109 180.976 181.439 181.859 
182.315 182.67 183.039 183.335 183.691 184.014 184.464 184.803 185.289 
185.587 186.034 186.348 186.732 187.077 187.32 187.594 171.409 172.456 
172.179 172.716 173.645 173.322 173.86 173.53 173.997 174.823 174.505 
174.987 174.665 175.091 174.752 175.145 175.944 175.628 176.079 175.756 
176.192 175.849 176.272 175.907 176.299 177.062 176.742 177.23 176.883 
177.38 177.012 177.498 177.101 177.531 177.094 177.408 178.129 177.852 
178.363 178.062 178.576 178.242 178.713 178.338 178.724 178.314 178.589 
178.12 178.279 179.059 178.852 179.33 179.118 179.593 179.354 179.752 
179.446 179.723 179.376 179.577 179.199 179.336 178.884 178.974 179.848 
179.702 180.161 179.996 180.454 180.264 180.647 180.375 180.606 180.261 
180.406 180.068 180.21 179.855 179.97 179.542 179.644 180.503 180.427 
180.904 180.784 181.245 181.08 181.469 181.227 181.469 181.121 181.24 
180.87 180.99 180.667 180.82 180.478 180.609 180.203 180.329 170.812 
170.229 170.913 171.786 169.628 170.343 171.218 171.976 172.968 168.853 
169.728 170.67 171.445 172.477 173.242 174.237 167.821 168.889 169.995 
170.901 171.989 172.791 173.85 174.531 175.433 166.783 167.857 169.111 
170.18 171.383 172.286 173.376 174.138 175.105 175.719 176.55 166.064 
166.947 168.215 169.303 170.617 171.628 172.779 173.624 174.635 175.354 
176.265 176.847 177.636 165.726 166.384 167.55 168.498 169.821 170.852 
172.082 172.997 174.075 174.868 175.858 176.537 177.409 177.926 178.626 
165.635 166.138 167.187 167.941 169.184 170.118 171.374 172.307 173.45 
174.303 175.351 176.114 177.051 177.668 178.419 178.861 179.44 165.657 
166.077 167.041 167.647 168.8 169.582 170.806 171.664 172.829 173.682 
174.759 175.576 176.548 177.261 178.057 178.599 179.199 179.599 180.083 
165.965 166.966 166.735 167.391 168.197 167.89 168.629 168.362 169.164 
169.582 169.232 170.01 169.714 170.55 170.267 171.127 171.041 170.664 
171.431 171.126 171.965 171.685 172.527 172.25 173.095 172.597 172.18 
172.953 172.58 173.418 173.108 173.96 173.658 174.483 174.196 175.007 
174.185 173.787 174.587 174.17 175.004 174.626 175.494 175.139 175.971 
175.617 176.393 176.071 176.795 175.628 175.316 176.079 175.749 176.528 
176.2 177.025 176.697 177.501 177.13 177.833 177.451 178.068 177.734 
178.283 176.904 176.638 177.323 177.076 177.769 177.552 178.284 178.085 
178.812 178.556 179.163 178.811 179.28 178.919 179.327 179.025 179.399 
178.103 177.839 178.471 178.22 178.855 178.651 179.31 179.161 179.811 
179.661 180.201 179.959 180.331 180.004 180.289 179.974 180.263 179.991 
180.276 178.975 180.409 179.577 179.337 181.837 181.022 180.792 179.939 
179.709 183.219 182.424 182.215 181.398 181.162 180.325 180.132 184.536 
183.764 183.511 182.756 182.52 181.743 181.509 180.734 180.563 185.628 
184.996 184.718 184.005 183.756 183.026 182.769 182.029 181.773 181.082 
180.87 186.353 185.932 185.726 185.144 184.895 184.22 183.932 183.211 
182.879 182.181 181.858 181.238 180.941 186.886 186.553 186.368 185.962 
185.668 185.182 184.815 184.24 183.826 183.187 182.776 182.145 181.78 
181.197 180.872 187.387 187.064 186.794 186.432 186.033 185.676 185.224 
184.849 184.391 183.943 183.514 182.986 182.609 182.034 181.704 181.125 
180.831 187.682 187.465 187.133 186.784 186.345 185.956 185.513 185.138 
184.727 184.354 183.981 183.587 183.264 182.814 182.515 181.98 181.679 
181.11 180.826 178.993 179.419 179.656 180.47 179.708 180.08 181 
181.153 181.907 179.895 180.365 181.408 181.671 182.535 182.62 183.344 
180.044 180.561 181.682 182.059 183.054 183.268 184.14 184.132 184.778 
180.099 180.663 181.761 182.263 183.294 183.709 184.669 184.887 185.583 
185.482 185.872 179.951 180.574 181.567 182.189 183.138 183.741 184.638 
185.151 185.823 186.036 186.358 186.294 186.471 179.593 180.252 181.142 
181.833 182.696 183.379 184.164 184.821 185.452 185.94 186.311 186.516 
186.732 186.752 186.967 179.149 179.788 180.623 181.317 182.151 182.838 
183.582 184.225 184.857 185.427 185.944 186.34 186.745 186.934 187.275 
187.289 187.532 178.776 179.343 180.147 180.788 181.608 182.276 183.027 
183.645 184.298 184.867 185.483 185.99 186.554 186.912 187.342 187.517 
187.777 187.778 187.85 178.089 176.626 177.726 178.393 174.892 176.085 
176.691 177.899 178.552 173.033 174.254 174.802 176.045 176.654 177.952 
178.638 171.101 172.337 172.898 174.143 174.728 175.996 176.687 178.03 
178.77 169.237 170.375 170.926 172.214 172.852 174.122 174.806 176.103 
176.883 178.206 178.916 167.735 168.635 169.103 170.257 170.906 172.215 
172.941 174.262 175.043 176.366 177.135 178.362 178.921 166.566 167.312 
167.74 168.631 169.216 170.338 171.073 172.367 173.177 174.531 175.323 
176.604 177.225 178.315 178.686 165.501 166.21 166.649 167.433 167.999 
168.892 169.593 170.652 171.453 172.683 173.486 174.772 175.428 176.599 
177.029 178.024 178.293 164.535 165.175 165.604 166.369 166.963 167.811 
168.529 169.418 170.182 171.157 171.909 173.007 173.663 174.798 175.289 
176.348 176.704 177.652 177.942 164.167 164.043 164.446 165.243 164.17 
164.482 165.372 165.729 166.685 164.512 164.785 165.772 166.046 167.089 
167.371 168.367 164.891 165.194 166.21 166.515 167.563 167.864 168.886 
169.108 170.033 165.274 165.56 166.518 166.866 167.846 168.239 169.226 
169.572 170.488 170.727 171.627 165.791 165.979 166.88 167.134 168.043 
168.407 169.37 169.795 170.736 171.083 171.964 172.27 173.208 166.451 
166.567 167.461 167.586 168.456 168.659 169.594 169.942 170.934 171.304 
172.231 172.545 173.442 173.8 174.747 167.137 167.244 168.133 168.235 
169.085 169.181 170.041 170.252 171.206 171.54 172.514 172.834 173.753 
174.048 174.961 175.302 176.2 167.763 167.878 168.723 168.872 169.71 
169.822 170.618 170.743 171.578 171.831 172.761 173.109 174.064 174.388 
175.311 175.589 176.464 176.733 177.526 168.354 169.554 169.057 169.312 
170.879 170.32 170.593 170.082 170.331 172.343 171.717 171.986 171.421 
171.68 171.101 171.277 173.901 173.235 173.498 172.875 173.141 172.511 
172.699 172.044 172.221 175.487 174.827 175.105 174.442 174.734 174.056 
174.292 173.565 173.778 173.089 173.375 177.002 176.41 176.718 176.073 
176.39 175.714 176.016 175.272 175.55 174.783 175.104 174.387 174.727 
178.346 177.863 178.191 177.638 177.958 177.354 177.679 177.017 177.335 
176.612 176.945 176.205 176.538 175.778 176.037 179.513 179.124 179.469 
179.018 179.342 178.836 179.155 178.602 178.913 178.308 178.61 177.97 
178.256 177.564 177.781 177.015 177.162 180.538 180.224 180.581 180.215 
180.547 180.125 180.442 179.978 180.279 179.767 180.034 179.482 179.715 
179.13 179.31 178.653 178.761 178.037 178.131 178.882 179.499 179.526 
180.225 180.053 180.134 180.845 180.908 181.651 180.485 180.642 181.384 
181.505 182.256 182.339 183.047 180.827 181.045 181.821 182.003 182.777 
182.909 183.633 183.688 184.322 181.066 181.347 182.134 182.39 183.178 
183.383 184.146 184.264 184.96 184.963 185.556 181.2 181.524 182.29 
182.619 183.393 183.697 184.457 184.701 185.419 185.561 186.195 186.187 
186.677 181.269 181.606 182.327 182.686 183.411 183.788 184.49 184.854 
185.482 185.803 186.347 186.597 187.047 187.135 187.442 181.267 181.623 
182.286 182.653 183.291 183.688 184.301 184.725 185.255 185.649 186.05 
186.427 186.765 187.135 187.426 187.644 187.805 181.183 181.555 182.166 
182.541 183.092 183.474 183.98 184.409 184.887 185.309 185.685 186.032 
186.301 186.658 186.915 187.313 187.519 187.792 187.838 156.509 157.045 
156.537 156.178 157.856 157.253 156.948 156.381 156.191 158.811 158.154 
157.878 157.275 157.108 156.591 156.646 159.932 159.175 158.861 158.22 
158.049 157.538 157.554 157.18 157.409 161.263 160.409 160.102 159.312 
159.127 158.505 158.497 158.057 158.212 157.939 158.285 162.715 161.841 
161.614 160.731 160.591 159.778 159.776 159.117 159.271 158.805 159.149 
158.902 159.472 164.205 163.355 163.201 162.335 162.265 161.404 161.437 
160.621 160.786 160.094 160.447 159.967 160.533 160.286 160.991 165.678 
164.882 164.79 163.959 163.943 163.115 163.196 162.379 162.565 161.789 
162.105 161.455 161.919 161.477 162.051 161.812 162.405 167.048 166.351 
166.326 165.561 165.58 164.792 164.888 164.12 164.319 163.581 163.867 
163.168 163.509 162.91 163.297 162.881 163.314 163.077 163.527 156.245 
155.833 155.928 155.942 155.805 155.65 155.65 155.848 156.205 156.321 
155.879 155.878 155.804 156.252 156.456 157.082 157.221 156.665 156.694 
156.347 156.808 156.787 157.485 157.577 158.253 158.232 157.698 157.816 
157.367 157.774 157.562 158.211 158.155 158.794 158.8 159.444 159.491 
158.867 159.098 158.581 158.981 158.624 159.172 158.971 159.547 159.426 
160.005 160.017 160.721 161.009 160.323 160.59 159.988 160.398 159.908 
160.4 160.021 160.546 160.273 160.834 160.688 161.348 161.369 162.124 
162.397 161.823 162.031 161.484 161.82 161.335 161.766 161.321 161.79 
161.394 161.913 161.627 162.236 162.103 162.788 162.788 163.481 163.508 
163.052 163.208 162.762 163.004 162.609 162.958 162.599 163.009 162.645 
163.091 162.756 163.266 163.031 163.608 163.498 164.107 164.09 164.696 
156.584 156.333 156.657 157.295 156.564 156.597 157.193 157.566 158.42 
157.32 157.052 157.518 157.626 158.434 158.855 159.81 158.415 157.978 
158.345 158.154 158.83 159.004 159.931 160.318 161.264 159.662 159.18 
159.595 159.198 159.794 159.618 160.427 160.569 161.542 161.852 162.878 
160.995 160.51 161.007 160.574 161.169 160.786 161.492 161.31 162.257 
162.348 163.499 163.72 164.92 162.36 161.879 162.34 161.953 162.499 
162.149 162.786 162.512 163.405 163.331 164.523 164.599 165.861 165.961 
167.088 163.66 163.204 163.575 163.191 163.647 163.343 163.93 163.723 
164.575 164.529 165.667 165.735 166.927 166.977 167.99 168.001 168.818 
164.865 164.439 164.789 164.382 164.815 164.465 165.056 164.825 165.669 
165.625 166.702 166.79 167.874 167.943 168.823 168.819 169.51 169.498 
170.116 177.553 176.297 176.682 176.118 174.927 175.33 174.693 175.096 
174.41 173.418 173.847 173.126 173.569 172.848 173.287 172.548 171.85 
172.273 171.529 171.953 171.22 171.672 170.948 171.385 170.635 170.324 
170.717 169.997 170.386 169.673 170.083 169.407 169.82 169.137 169.515 
168.843 168.846 169.212 168.496 168.888 168.195 168.591 167.936 168.343 
167.721 168.102 167.503 167.867 167.36 167.462 167.763 167.046 167.414 
166.757 167.146 166.52 166.915 166.318 166.718 166.156 166.56 166.075 
166.511 166.14 166.291 166.48 165.795 166.061 165.455 165.783 165.228 
165.576 165.043 165.39 164.879 165.245 164.792 165.218 164.861 165.347 
165.063 165.362 165.456 164.807 164.956 164.367 164.6 164.075 164.376 
163.901 164.221 163.776 164.086 163.678 164.018 163.693 164.109 163.867 
164.335 164.133 
POINT_DATA 1002
SCALARS Distance double
LOOKUP_TABLE default
168.815 167.678 167.616 168.84 167.669 170.061 169.004 167.806 170.215 
171.466 169.242 168.047 170.49 171.764 172.995 169.557 168.412 170.779 
172.096 173.382 174.571 169.964 168.847 171.144 172.419 173.729 174.975 
176.123 170.402 169.331 171.607 172.868 174.117 175.337 176.502 177.548 
170.839 169.836 172.055 173.361 174.601 175.768 176.879 177.892 178.787 
171.269 170.266 172.471 173.771 175.005 176.176 177.29 178.261 179.101 
179.872 171.683 170.619 172.887 174.152 175.337 176.463 177.594 178.603 
179.416 180.137 180.826 166.423 166.356 165.025 164.928 163.558 166.37 
163.443 162.114 164.905 166.481 162.03 160.742 163.449 165.039 166.764 
160.683 159.506 162.102 163.665 165.382 167.196 159.445 158.459 160.825 
162.427 164.069 165.888 167.75 158.459 157.578 159.739 161.332 162.921 
164.647 166.632 168.431 157.796 156.91 159.012 160.491 161.964 163.557 
165.547 167.527 169.048 157.445 156.564 158.621 159.952 161.231 162.649 
164.548 166.592 168.207 169.438 157.071 158.186 158.034 159.273 159.345 
159.468 160.509 160.754 160.389 160.641 161.888 162.177 161.562 161.517 
161.929 163.622 163.944 163.369 163.22 163.359 163.841 165.73 166.115 
165.572 165.511 165.468 165.578 165.985 167.75 168.083 167.558 167.419 
167.182 166.975 167.109 167.61 169.313 169.52 169.113 168.818 168.329 
167.839 167.753 168.184 168.846 170.578 170.707 170.424 170.136 169.6 
168.987 168.728 169 169.572 170.154 171.762 171.437 173.199 171.044 
173.077 174.59 170.62 172.864 174.523 175.789 170.434 172.518 174.282 
175.675 177.04 170.728 172.366 173.935 175.335 176.846 178.203 171.246 
172.6 173.888 175.048 176.403 177.804 178.895 171.608 172.905 174.123 
175.162 176.209 177.344 178.401 179.299 171.789 173.088 174.308 175.417 
176.434 177.341 178.184 179.009 179.811 171.911 173.223 174.419 175.533 
176.666 177.646 178.394 179.073 179.767 180.471 173.02 174.459 174.33 
175.754 175.741 175.59 177.023 177.041 176.996 176.745 178.323 178.297 
178.3 178.163 177.889 179.295 179.413 179.426 179.394 179.234 178.968 
179.828 180.223 180.389 180.415 180.342 180.156 179.844 180.259 180.769 
181.148 181.324 181.339 181.219 180.966 180.59 180.827 181.283 181.711 
182.007 182.172 182.189 182.026 181.709 181.293 181.424 181.889 182.604 
183.216 183.891 182.324 184.53 184.816 183.549 182.61 185.299 185.174 
184.697 183.596 182.798 185.602 185.484 185.488 184.589 183.602 182.935 
186.001 186.099 186.033 185.486 184.423 183.592 182.905 186.577 186.829 
186.428 186.107 185.212 184.188 183.441 182.664 187.177 187.464 186.731 
186.338 185.746 184.813 183.919 183.158 182.282 187.694 187.856 187.146 
186.529 186.007 185.333 184.451 183.594 182.751 181.806 180.75 181.689 
180.983 181.799 181.12 182.78 181.877 181.327 182.7 183.845 182.12 
181.637 182.694 183.637 184.598 182.403 181.806 182.886 183.708 184.671 
185.187 182.491 181.7 183.031 183.801 184.943 185.67 185.854 182.332 
181.402 183.003 183.632 184.674 185.716 186.21 186.488 181.936 180.997 
182.755 183.365 184.071 184.991 185.792 186.429 187.037 181.389 180.544 
182.256 183.002 183.643 184.333 185.089 185.886 186.734 187.463 171.612 
173.019 172.742 174.211 173.987 174.354 175.321 175.167 175.436 175.49 
176.403 176.27 176.519 176.628 176.704 177.559 177.364 177.734 177.894 
177.977 177.918 178.64 178.389 178.897 179.103 179.148 179.053 178.803 
179.534 179.26 179.821 180.067 180.093 179.934 179.749 179.46 180.316 
179.971 180.638 180.909 180.971 180.763 180.527 180.359 180.095 170.123 
171.011 169.557 170.467 168.863 172.184 169.857 167.84 171.691 173.564 
168.971 166.654 171.158 173.125 174.869 167.949 165.746 170.414 172.583 
174.428 176.023 167.149 165.299 169.548 171.893 173.867 175.616 177.161 
166.706 165.174 168.798 171.12 173.238 175.124 176.839 178.233 166.535 
165.196 168.319 170.437 172.567 174.551 176.384 177.936 179.093 166.5 