# vtk DataFile Version 4.0
vtk output
ASCII
DATASET POLYDATA
POINTS 1002 float
-79.9211 -114.892 77.2372 -79.5303 -115.956 76.8698 -79.7062 -115.508 75.8671 
-80.1952 -114.452 76.2962 -79.7637 -114.917 74.8376 -80.5286 -113.866 77.6172 
-80.4064 -113.913 75.3162 -79.8697 -114.284 73.8918 -80.9217 -113.434 76.7411 
-81.3061 -112.741 77.9348 -80.7458 -113.297 74.3245 -80.3975 -113.829 72.9652 
-81.2618 -112.8 75.8167 -81.6727 -112.085 77.0696 -81.9209 -111.184 78.2009 
-81.4353 -112.791 73.4121 -81.2363 -113.511 72.1533 -81.74 -112.08 74.8943 
-82.063 -111.286 76.223 -82.2504 -110.333 77.3473 -82.4039 -109.424 78.5322 
-82.2098 -112.321 72.8097 -82.0027 -113.039 71.663 -82.4446 -111.511 74.1662 
-82.666 -110.623 75.4581 -82.822 -109.664 76.5893 -82.9754 -108.769 77.7265 
-83.1847 -108.04 78.899 -82.8911 -111.665 72.4061 -82.7445 -112.378 71.3417 
-83.1648 -110.922 73.6712 -83.4111 -110.063 74.818 -83.5647 -109.112 75.8812 
-83.7257 -108.229 77.0004 -83.9219 -107.494 78.1135 -84.0577 -106.836 79.1582 
-83.6838 -110.953 71.9979 -83.6171 -111.748 71.0825 -83.9116 -110.201 73.1678 
-84.1694 -109.392 74.2339 -84.3176 -108.443 75.1829 -84.4147 -107.507 76.2709 
-84.5577 -106.741 77.3829 -84.6375 -106.062 78.3746 -84.6047 -105.411 79.3251 
-84.6496 -110.417 71.7772 -84.5662 -111.256 71.0479 -84.8005 -109.596 72.7244 
-84.9882 -108.766 73.7056 -85.111 -107.809 74.5856 -85.1369 -106.793 75.5751 
-85.1781 -105.949 76.6766 -85.2175 -105.274 77.6752 -85.146 -104.62 78.5791 
-85.0321 -104.04 79.4889 -85.6483 -110.003 71.8079 -85.5034 -110.829 71.1979 
-85.7543 -109.153 72.5181 -85.8497 -108.297 73.338 -85.9296 -107.355 74.148 
-85.9425 -106.322 75.0069 -85.9375 -105.414 76.0016 -85.9606 -104.747 77.0049 
-85.9073 -104.147 77.9288 -85.7444 -103.532 78.8031 -85.5976 -103.045 79.6578 
-79.3274 -116.826 75.8728 -79.3919 -116.3 74.733 -79.109 -117.779 74.8133 
-79.0837 -117.124 73.6664 -78.862 -118.683 73.7938 -79.3016 -115.522 73.7099 
-78.8547 -117.869 72.6293 -78.5647 -119.487 72.7372 -78.9604 -116.169 72.6588 
-79.4444 -114.829 72.8018 -78.6621 -118.598 71.4027 -78.2916 -120.344 71.5854 
-78.7381 -116.779 71.2705 -79.1035 -115.398 71.474 -80.1045 -114.461 71.8017 
-78.563 -119.492 70.2528 -78.3024 -121.259 70.6132 -78.6105 -117.489 69.6089 
-78.771 -115.915 69.4794 -79.7122 -115.003 70.2118 -81.0036 -114.16 71.0195 
-78.8619 -120.378 69.6816 -78.7979 -121.961 70.0588 -78.8574 -118.386 68.7523 
-78.7876 -116.574 67.8551 -79.4569 -115.502 68.3543 -80.8148 -114.74 69.741 
-81.9625 -113.673 70.7194 -79.6807 -120.996 69.5203 -79.7236 -122.392 69.7877 
-79.6761 -119.195 68.945 -79.5127 -117.365 67.8658 -79.8354 -116.122 67.5377 
-81.0303 -115.347 68.6282 -82.246 -114.368 69.8705 -82.9854 -113.064 70.5381 
-80.7646 -121.433 69.4009 -80.8619 -122.711 69.6526 -80.787 -119.803 69.2501 
-80.6751 -118.081 68.6944 -80.7479 -116.759 68.0184 -81.6086 -115.893 68.1766 
-82.7729 -114.968 69.0193 -83.475 -113.751 69.7598 -83.9384 -112.451 70.3659 
-81.8131 -121.787 69.3768 -81.9889 -122.941 69.6702 -81.8204 -120.303 69.3107 
-81.8189 -118.72 69.1192 -81.8034 -117.396 68.5858 -82.2655 -116.374 68.1579 
-83.2055 -115.335 68.2598 -83.9198 -114.163 68.7631 -84.3038 -113.004 69.5089 
-84.8042 -111.903 70.3915 -82.8606 -122.386 69.6475 -82.7209 -121.032 69.4758 
-83.6966 -121.534 69.8916 -83.7038 -120.059 69.621 -84.7261 -120.466 70.069 
-82.8125 -119.506 69.2662 -84.9638 -119.163 69.3901 -86.035 -119.577 69.8463 
-84.0046 -118.825 68.8875 -82.9163 -118.19 68.738 -86.3432 -118.617 68.933 
-87.3729 -119.013 69.5706 -85.4531 -118.39 68.2252 -84.3294 -117.891 67.9386 
-83.1308 -117.055 68.0719 -87.5677 -118.024 68.9644 -88.6014 -118.264 69.7338 
-86.8009 -117.833 68.0237 -85.9055 -117.393 67.4314 -84.6878 -116.494 67.3851 
-83.7311 -115.696 67.7077 -88.7017 -116.942 69.5054 -89.7394 -117.035 70.1442 
-87.8639 -116.748 68.5847 -87.1724 -116.328 67.8012 -86.1699 -115.494 67.4139 
-85.0535 -114.615 67.3721 -84.3496 -114.232 67.861 -89.8389 -115.657 70.0238 
-90.7675 -115.693 70.4914 -88.8748 -115.459 69.3634 -88.0826 -115.068 68.6628 
-87.2641 -114.452 68.1973 -86.2259 -113.707 67.8978 -85.2957 -113.206 67.9612 
-84.7217 -113.078 68.6301 -91.0095 -114.457 70.375 -91.7834 -114.522 70.7591 
-90.0462 -114.261 69.9859 -89.0768 -113.949 69.5336 -88.1919 -113.582 69.1727 
-87.2964 -113.138 68.9234 -86.4065 -112.652 68.8167 -85.7055 -112.304 69.139 
-85.2193 -112.108 69.8003 -92.2623 -113.286 70.5887 -92.8911 -113.498 70.9147 
-91.4038 -112.991 70.3882 -90.41 -112.697 70.2044 -89.4166 -112.478 70.0075 
-88.487 -112.261 69.8432 -87.6534 -111.928 69.7347 -86.9674 -111.54 69.8646 
-86.4299 -111.244 70.3257 -85.9642 -111.036 70.8447 -86.5557 -109.779 71.6524 
-87.0875 -109.818 71.2159 -87.5081 -108.392 71.7899 -87.6028 -109.871 70.672 
-88.0571 -108.154 71.19 -88.2844 -106.799 71.7774 -88.2111 -110.061 70.3228 
-88.6785 -107.95 70.6773 -88.9602 -106.455 71.2275 -89.2129 -105.344 72.0169 
-89.0443 -110.392 70.3052 -89.5646 -108.001 70.4756 -89.8955 -106.176 70.861 
-90.2301 -105.128 71.6793 -90.4297 -104.033 72.3493 -90.067 -110.694 70.419 
-90.7147 -108.382 70.4982 -91.0845 -106.228 70.6451 -91.4036 -104.868 71.3039 
-91.6613 -103.852 72.022 -91.5165 -102.608 72.3969 -91.1356 -110.901 70.5054 
-91.8888 -108.83 70.5477 -92.2983 -106.715 70.506 -92.4793 -104.86 70.8521 
-92.7045 -103.501 71.455 -92.687 -102.389 71.9418 -92.302 -101.232 72.3877 
-92.1745 -111.197 70.5167 -92.9656 -109.215 70.5052 -93.4369 -107.334 70.4006 
-93.5255 -105.347 70.4946 -93.5653 -103.405 70.811 -93.619 -102.062 71.2561 
-93.4403 -101.123 71.8861 -93.0848 -100.192 72.6365 -93.0979 -111.691 70.5213 
-93.9293 -109.779 70.3821 -94.4942 -107.968 70.2465 -94.6905 -106.125 70.2694 
-94.655 -103.954 70.385 -94.5778 -102.09 70.6022 -94.4686 -101.002 71.2016 
-94.24 -100.227 72.1315 -93.9257 -99.4431 73.0359 -93.7864 -112.229 70.6903 
-94.6728 -110.571 70.3921 -95.3217 -108.782 70.1642 -95.6963 -106.992 70.1597 
-95.8372 -104.942 70.2605 -95.7434 -102.835 70.3407 -95.5275 -101.307 70.7018 
-95.2904 -100.355 71.5405 -94.9872 -99.5881 72.5493 -94.6092 -98.9103 73.4233 
-86.6768 -108.865 72.2333 -87.5453 -107.396 72.4011 -86.7121 -107.931 72.9243 
-88.3334 -105.72 72.4786 -87.5383 -106.316 73.1085 -86.7348 -106.936 73.6858 
-89.2864 -104.128 72.6265 -88.3286 -104.479 73.1157 -87.5083 -105.179 73.8094 
-86.7358 -105.867 74.4679 -90.3135 -102.636 72.7158 -89.2075 -102.833 73.1404 
-88.2543 -103.354 73.8035 -87.4547 -104.14 74.6143 -86.7233 -104.882 75.3725 
-91.1867 -101.189 72.7952 -90.142 -101.445 73.327 -89.155 -101.916 74.027 
-88.2048 -102.504 74.8041 -87.4639 -103.358 75.6253 -86.7645 -104.181 76.3926 
-92.0405 -100.002 73.0843 -91.0735 -100.207 73.6456 -90.179 -100.781 74.4169 
-89.134 -101.249 75.1929 -88.1752 -101.849 75.9364 -87.5001 -102.833 76.7285 
-86.7635 -103.647 77.423 -92.9919 -99.1624 73.5279 -92.0398 -99.1892 74.0384 
-91.1418 -99.7118 74.7303 -90.1068 -100.258 75.4957 -88.9457 -100.619 76.2252 
-88.0599 -101.358 77.0337 -87.3988 -102.371 77.8275 -86.5993 -103.065 78.4016 
-93.8277 -98.5779 73.9625 -92.9622 -98.4268 74.4931 -92.0219 -98.7074 75.1047 
-90.9761 -99.2887 75.7786 -89.7961 -99.7317 76.4577 -88.6832 -100.182 77.2574 
-87.8595 -101.009 78.1435 -87.1555 -101.902 78.8434 -86.3628 -102.519 79.294 
-94.6408 -98.3823 74.2202 -93.8938 -98.001 74.8673 -94.5783 -98.1373 75.3035 
-93.8722 -97.633 76.1009 -94.6111 -98.1863 76.6734 -93.0209 -97.8513 75.5685 
-93.8743 -97.652 77.4553 -94.8258 -98.5087 78.0592 -92.9433 -97.4438 76.9318 
-91.9362 -98.2021 76.2807 -93.9064 -98.2418 78.7594 -95.0523 -98.9899 79.5745 
-92.8192 -97.6597 78.2577 -91.7723 -97.9842 77.6807 -90.7401 -98.8813 76.9371 
-93.9434 -98.9698 80.4331 -95.1466 -99.3181 81.4462 -92.7133 -98.552 79.6018 
-91.6492 -98.4972 79.0664 -90.6009 -98.9162 78.3952 -89.525 -99.4665 77.6811 
-93.9872 -99.362 82.3122 -95.07 -99.6109 83.0601 -92.7333 -99.3143 81.3097 
-91.5652 -99.3195 80.5391 -90.4851 -99.396 79.9656 -89.3461 -99.5857 79.2589 
-88.3966 -100.077 78.6001 -93.8841 -99.8861 83.5546 -94.7962 -100.334 83.9274 
-92.7974 -99.8061 82.8649 -91.5789 -99.8542 82.0977 -90.3123 -99.8095 81.5201 
-89.0754 -99.8178 80.8921 -88.0774 -100.151 80.0988 -87.49 -100.905 79.4 
-93.5937 -100.852 84.2596 -94.4177 -101.384 84.4931 -92.6756 -100.587 83.8533 
-91.5933 -100.46 83.3185 -90.2641 -100.237 82.8527 -88.864 -100.083 82.3556 
-87.7697 -100.326 81.5669 -87.1202 -100.934 80.6658 -86.7174 -101.705 79.9173 
-93.3055 -101.824 85.0304 -94.0759 -102.323 85.1743 -92.4354 -101.517 84.7148 
-91.4812 -101.33 84.2544 -90.3171 -101.035 83.8286 -88.9437 -100.709 83.4718 
-87.7226 -100.747 82.893 -86.9315 -101.198 82.0034 -86.4183 -101.772 81.0913 
-85.9745 -102.365 80.3224 -95.4209 -98.9837 73.3271 -95.4091 -98.6739 74.2856 
-96.3248 -99.3665 73.4002 -96.4337 -99.232 74.5789 -97.2333 -100.061 73.7926 
-95.3831 -98.7152 75.6262 -97.4345 -99.9501 75.1723 -97.6677 -101.073 74.5104 
-96.5524 -99.3296 76.2061 -95.5736 -98.9184 77.2437 -97.6668 -101.197 76.0492 
-97.479 -102.771 75.5714 -97.4826 -100.055 76.9686 -96.7615 -99.4285 78.0221 
-95.9261 -99.1529 78.8371 -97.3648 -103.374 77.1209 -97.347 -104.962 76.7643 
-97.5165 -101.705 77.8176 -97.4316 -100.332 78.7867 -96.9228 -99.635 79.6866 
-96.1395 -99.433 80.5546 -97.5642 -105.448 77.9828 -97.7256 -106.555 77.514 
-97.4544 -104.027 78.6176 -97.4463 -102.325 79.4642 -97.3301 -100.884 80.3548 
-96.8936 -100.116 81.3226 -96.1069 -99.766 82.3306 -98.2689 -106.489 78.408 
-98.3302 -107.441 77.7183 -98.0912 -105.531 79.1876 -97.7507 -104.313 80.0448 
-97.4517 -102.859 80.8974 -97.2088 -101.589 81.8343 -96.7369 -100.782 82.8314 
-95.8772 -100.383 83.5694 -98.8402 -107.369 78.7461 -98.8355 -108.53 77.8742 
-98.8536 -106.346 79.6631 -98.4983 -105.438 80.5182 -97.8528 -104.458 81.3144 
-97.3953 -103.322 82.2184 -97.0817 -102.279 83.1936 -96.4675 -101.623 83.9045 
-95.4873 -101.371 84.2608 -99.0904 -108.829 79.2146 -99.1125 -110 78.2361 
[...]
CELL_DATA 2000
SCALARS Distance double
LOOKUP_TABLE default
158.878 158.133 158.535 158.56 157.305 157.779 157.922 158.3 158.345 
156.611 157 157.185 157.632 157.694 158.029 157.907 156.243 156.444 
156.558 156.909 156.96 157.299 157.136 157.409 157.154 156.058 156.17 
156.214 156.401 156.425 156.633 156.526 156.691 156.509 156.699 156.59 
155.826 155.944 155.954 156.113 156.106 156.23 156.139 156.227 156.108 
156.225 156.17 156.345 156.333 155.623 155.677 155.649 155.809 155.787 
155.925 155.791 155.881 155.703 155.842 155.72 155.931 155.828 156.055 
155.909 155.649 155.564 155.52 155.552 155.539 155.614 155.498 155.537 
155.327 155.403 155.23 155.408 155.278 155.486 155.313 155.509 155.315 
155.877 155.714 155.66 155.552 155.518 155.474 155.384 155.334 155.153 
155.108 154.942 154.988 154.909 155.021 154.957 155.041 154.937 155.016 
154.931 159.029 159.039 158.751 158.198 159.078 158.727 158.037 157.796 
157.256 159.078 158.722 157.947 157.613 156.98 156.864 156.523 159.027 
158.662 157.799 157.44 156.699 156.573 156.217 156.283 156.17 159.147 
158.658 157.706 157.212 156.28 156.125 155.693 155.912 155.864 156.056 
156.018 159.6 158.969 158.069 157.295 156.255 155.733 155.199 155.314 
155.411 155.743 155.883 155.966 155.888 160.264 159.601 158.89 157.989 
157.082 156.122 155.548 155.147 155.338 155.487 155.913 155.977 156.068 
155.897 155.782 161.006 160.361 159.811 159.004 158.324 157.303 156.745 
155.95 155.989 155.777 156.216 156.202 156.407 156.209 156.12 155.863 
155.791 161.764 161.143 160.652 159.966 159.427 158.593 158.073 157.247 
157.021 156.558 156.669 156.538 156.607 156.489 156.358 156.187 156.076 
155.936 155.958 162.016 161.965 161.635 160.892 161.816 161.527 160.784 
160.478 159.7 161.698 161.378 160.68 160.375 159.651 159.282 158.49 
161.781 161.366 160.743 160.376 159.747 159.327 158.623 158.156 157.513 
161.983 161.55 160.942 160.55 159.962 159.525 158.807 158.325 157.649 
157.305 156.924 162.036 161.712 161.05 160.712 160.066 159.707 158.94 
158.476 157.64 157.295 156.753 156.726 156.539 161.903 161.68 161.033 
160.727 160.045 159.721 159.005 158.582 157.793 157.314 156.683 156.466 
156.217 156.317 156.253 161.761 161.561 161.015 160.711 160.095 159.734 
159.135 158.73 158.163 157.649 157.152 156.665 156.415 156.184 156.176 
156.145 156.14 161.7 161.491 161.007 160.732 160.182 159.849 159.315 
158.962 158.499 158.105 157.697 157.257 156.956 156.601 156.493 156.3 
156.3 156.17 156.129 156.137 156.314 156.193 156.005 156.496 156.316 
156.028 155.837 155.45 156.9 156.547 156.152 155.812 155.365 155.194 
154.898 157.577 157.081 156.636 156.058 155.565 155.211 155.018 154.876 
154.785 158.352 157.839 157.455 156.747 156.233 155.628 155.398 155.142 
155.14 154.925 154.726 159.129 158.629 158.332 157.672 157.203 156.471 
156.072 155.603 155.434 155.227 155.029 154.743 154.35 159.945 159.426 
159.153 158.56 158.175 157.479 157.005 156.33 155.888 155.461 155.131 
154.905 154.598 154.328 154.038 160.78 160.268 160.011 159.416 159.091 
158.443 158.051 157.309 156.795 156.049 155.558 155.066 154.783 154.539 
154.401 154.169 154.084 161.537 161.101 160.911 160.332 160.051 159.404 
159.092 158.387 157.982 157.133 156.629 155.801 155.447 154.92 154.832 
154.556 154.565 154.325 154.32 155.984 155.863 155.898 155.738 155.366 
155.611 155.532 155.625 155.513 154.805 155.016 154.972 155.242 155.187 
155.364 155.28 154.526 154.523 154.331 154.569 154.5 154.847 154.81 
155.066 154.99 154.302 154.242 153.863 153.955 153.77 154.078 154.075 
154.46 154.496 154.771 154.768 153.924 153.892 153.513 153.544 153.369 
153.503 153.504 153.768 153.912 154.256 154.424 154.662 154.757 153.703 
153.567 153.299 153.278 153.249 153.309 153.371 153.431 153.538 153.755 
154.008 154.334 154.563 154.748 154.836 153.823 153.573 153.37 153.232 
153.255 153.293 153.413 153.43 153.451 153.498 153.619 153.912 154.193 
154.518 154.679 154.812 154.829 154.093 153.836 153.658 153.442 153.403 
153.355 153.447 153.467 153.49 153.456 153.456 153.571 153.768 154.096 
154.348 154.606 154.692 154.783 154.806 154.2 154.366 154.093 153.807 
154.833 154.356 154.025 153.749 153.562 155.637 154.941 154.493 154.054 
153.815 153.6 153.534 156.719 155.852 155.307 154.644 154.333 153.943 
153.812 153.618 153.555 157.959 157.036 156.485 155.623 155.282 154.655 
154.506 154.053 153.93 153.625 153.56 159.093 158.289 157.79 156.909 
156.534 155.77 155.575 154.939 154.756 154.2 154.059 153.723 153.816 
159.964 159.325 158.888 158.157 157.754 157.013 156.685 156.012 155.7 
155.08 154.804 154.339 154.295 154.108 154.311 160.719 160.141 159.769 
159.154 158.791 158.121 157.723 157.029 156.604 155.949 155.586 155.061 
154.894 154.593 154.643 154.549 154.673 161.492 160.932 160.617 160.032 
159.726 159.099 158.739 158.032 157.61 156.876 156.514 155.879 155.695 
155.235 155.213 154.923 154.962 154.807 154.85 154.508 155.18 154.758 
154.722 156.225 155.636 155.66 155.168 155.288 157.484 156.853 156.942 
156.337 156.525 155.968 156.209 158.835 158.167 158.304 157.71 157.922 
157.341 157.607 157.031 157.326 160.526 159.674 159.813 159.112 159.324 
158.728 158.971 158.43 158.725 158.197 158.513 162.316 161.498 161.614 
160.781 160.952 160.197 160.402 159.773 160.04 159.534 159.841 159.349 
159.599 163.63 163.089 163.207 162.551 162.677 161.912 162.036 161.282 
161.473 160.861 161.137 160.624 160.86 160.327 160.461 164.692 164.222 
164.398 163.925 164.084 163.493 163.563 162.871 162.95 162.306 162.496 
161.939 162.151 161.584 161.705 161.114 161.195 165.925 165.379 165.62 
165.109 165.324 164.771 164.839 164.221 164.23 163.65 163.76 163.25 
163.418 162.875 162.972 162.368 162.41 161.829 161.912 161.885 162.289 
161.857 161.32 162.71 162.254 161.674 161.171 160.481 163.14 162.645 
162.001 161.487 160.744 160.241 159.499 163.586 163.047 162.322 161.771 
160.967 160.454 159.651 159.199 158.387 164.056 163.481 162.723 162.103 
161.243 160.657 159.805 159.312 158.453 157.981 157.072 164.596 163.98 
163.262 162.579 161.725 161.008 160.12 159.503 158.658 158.102 157.23 
156.672 155.876 165.144 164.539 163.868 163.207 162.422 161.622 160.707 
159.922 159.062 158.415 157.626 156.996 156.258 155.695 155.178 165.559 
165.013 164.344 163.803 163.118 162.398 161.506 160.615 159.679 158.912 
158.14 157.501 156.814 156.2 155.636 155.176 154.839 165.912 165.366 
164.692 164.215 163.623 163.067 162.301 161.46 160.503 159.614 158.797 
158.092 157.447 156.809 156.217 155.658 155.209 154.85 154.572 162.229 
162.847 162.562 162.648 163.637 163.237 163.331 163.028 163.124 164.659 
164.137 164.209 163.803 163.951 163.575 163.656 165.766 165.216 165.287 
164.802 164.963 164.518 164.659 164.173 164.196 166.842 166.303 166.361 
165.895 166.046 165.598 165.724 165.229 165.273 164.726 164.69 167.874 
167.341 167.332 166.89 167.002 166.623 166.718 166.266 166.289 165.79 
165.81 165.258 165.24 168.871 168.351 168.274 167.787 167.821 167.477 
167.583 167.202 167.236 166.776 166.846 166.379 166.472 165.884 165.846 
169.831 169.361 169.287 168.719 168.639 168.228 168.314 168.013 168.109 
167.713 167.775 167.369 167.5 167.07 167.111 166.475 166.319 170.682 
170.33 170.322 169.749 169.563 169.021 168.968 168.673 168.792 168.529 
168.574 168.215 168.221 167.912 167.948 167.578 167.495 166.872 166.658 
171.137 171.657 171.272 170.81 171.867 171.618 171.083 170.66 169.986 
171.83 171.654 171.101 170.779 170.14 169.77 169.294 171.778 171.603 
171.158 170.832 170.355 169.985 169.652 169.331 169.124 171.718 171.6 
171.309 171.042 170.745 170.383 170.129 169.767 169.527 169.205 168.918 
171.555 171.505 171.225 171.148 170.9 170.765 170.472 170.197 169.765 
169.457 169.013 168.796 168.457 171.353 171.295 170.916 170.897 170.588 
170.669 170.371 170.309 169.782 169.513 168.932 168.74 168.398 168.332 
168.132 171.097 171.068 170.674 170.579 170.254 170.282 170.075 170.082 
169.704 169.466 168.947 168.682 168.379 168.287 168.161 168.071 167.804 
170.691 170.768 170.468 170.402 170.149 170.096 169.981 169.931 169.719 
169.484 169.085 168.786 168.508 168.366 168.259 168.146 167.891 167.638 
167.115 170.338 169.86 170.147 170.2 169.409 169.684 169.787 170.016 
170.033 168.79 169.146 169.257 169.624 169.77 169.949 169.95 167.879 
168.363 168.438 168.976 169.158 169.584 169.604 169.791 169.609 166.711 
167.313 167.399 168.041 168.19 168.768 168.746 169.155 168.931 169.199 
168.909 165.459 166.089 166.224 166.932 167.084 167.7 167.627 168.094 
167.894 168.322 168.197 168.515 168.413 164.354 164.901 165.034 165.726 
165.887 166.537 166.461 166.935 166.731 167.224 167.216 167.76 167.863 
168.197 168.185 163.407 163.884 163.965 164.568 164.686 165.313 165.261 
165.759 165.56 166.059 166.013 166.677 166.785 167.427 167.407 167.831 
167.65 162.471 162.939 162.961 163.509 163.562 164.136 164.088 164.586 
164.426 164.903 164.817 165.428 165.459 166.152 166.083 166.697 166.448 
166.977 166.695 170.212 169.794 169.916 169.755 169.49 169.547 169.456 
169.543 169.373 169.267 169.276 169.13 169.253 169.135 169.169 168.849 
168.828 168.925 168.588 168.785 168.584 168.811 168.51 168.513 167.97 
167.999 168.253 167.805 168.043 167.681 168.025 167.72 167.978 167.461 
167.451 166.758 166.933 167.271 166.885 167.165 166.789 167.066 166.74 
167.049 166.639 166.794 166.154 166.129 165.452 165.913 166.212 165.885 
166.22 165.93 166.218 165.897 166.141 165.752 165.94 165.416 165.476 
164.854 164.856 164.316 165.065 165.284 164.939 165.241 164.949 165.303 
164.979 165.285 164.849 165.072 164.545 164.701 164.145 164.239 163.717 
163.792 163.353 164.315 164.498 164.132 164.354 164.012 164.304 163.954 
164.275 163.837 164.105 163.568 163.786 163.25 163.454 162.974 163.144 
162.698 162.832 162.418 170.473 170.685 170.389 170.007 170.887 170.618 
170.288 169.972 169.702 171.093 170.87 170.64 170.327 170.093 169.783 
169.562 171.223 171.071 170.839 170.631 170.376 170.15 169.882 169.604 
169.212 171.16 171.107 170.803 170.686 170.333 170.23 169.876 169.754 
169.293 169.029 168.391 170.802 170.884 170.56 170.531 170.115 170.033 
169.606 169.552 169.087 168.95 168.32 168.026 167.295 170.161 170.35 
170.026 170.154 169.758 169.748 169.278 169.218 168.744 168.668 168.12 
167.91 167.239 166.92 166.258 169.448 169.625 169.29 169.502 169.161 
169.289 168.85 168.85 168.347 168.302 167.784 167.679 167.093 166.863 
166.237 165.951 165.387 168.869 168.967 168.637 168.783 168.472 168.639 
168.288 168.371 167.931 167.907 167.411 167.333 166.802 166.667 166.099 
165.897 165.338 165.113 164.607 168.5 167.832 168.198 168.237 166.954 
167.437 167.472 167.907 167.997 165.946 166.466 166.526 167.05 167.157 
167.669 167.794 164.923 165.445 165.482 166.042 166.186 166.778 166.94 
167.444 167.497 163.678 164.332 164.311 164.938 165.031 165.719 165.899 
166.527 166.59 167.055 166.992 162.268 162.979 163.021 163.7 163.758 
164.463 164.589 165.337 165.417 166.041 165.972 166.457 166.345 161.134 
161.699 161.89 162.501 162.666 163.244 163.344 163.984 164.076 164.762 
164.772 165.358 165.267 165.769 165.658 160.325 160.768 160.979 161.534 
161.779 162.3 162.418 162.884 162.944 163.497 163.571 164.161 164.156 
164.676 164.588 165.067 164.948 159.611 160.009 160.125 160.65 160.848 
161.422 161.552 162.028 162.042 162.493 162.517 163.043 163.06 163.583 
163.512 163.996 163.883 164.356 164.24 159.253 158.908 159.259 159.732 
158.656 158.959 159.385 159.808 160.398 158.245 158.678 159.084 159.489 
160.018 160.505 161.085 157.499 158.091 158.545 159.104 159.578 160.087 
160.588 161.099 161.58 156.854 157.308 157.736 158.381 158.859 159.497 
159.934 160.517 160.975 161.528 162.013 156.548 156.824 157.154 157.612 
158.075 158.678 159.144 159.763 160.214 160.843 161.349 161.967 162.487 
156.137 156.498 156.783 157.163 157.584 158.038 158.546 159.05 159.548 
160.093 160.597 161.223 161.758 162.404 162.905 155.518 155.94 156.237 
156.719 157.136 157.62 158.127 158.599 159.129 159.575 160.081 160.558 
161.082 161.655 162.197 162.801 163.294 155.074 155.362 155.669 156.123 
156.567 157.098 157.601 158.145 158.679 159.191 159.72 160.164 160.68 
161.12 161.661 162.165 162.705 163.23 163.702 163.761 162.809 163.392 
163.58 161.819 162.426 162.651 163.221 163.431 160.845 161.443 161.675 
162.276 162.478 163.063 163.294 159.797 160.406 160.573 161.244 161.429 
162.063 162.229 162.875 163.098 158.654 159.243 159.296 160.017 160.179 
160.921 161.075 161.75 161.893 162.595 162.798 157.543 158.062 158.053 
158.697 158.835 159.595 159.798 160.535 160.697 161.38 161.559 162.275 
162.51 156.507 156.98 156.969 157.523 157.625 158.292 158.491 159.237 
159.463 160.185 160.406 161.097 161.353 162.05 162.31 155.606 156 
155.99 156.486 156.542 157.126 157.248 157.946 158.166 158.938 159.218 
159.963 160.242 160.94 161.202 161.875 162.093 155.019 155.244 155.23 
155.582 155.605 156.069 156.137 156.731 156.924 157.661 157.984 158.769 
159.102 159.829 160.093 160.768 160.986 161.639 161.829 162.338 161.593 
162.303 162.985 160.891 161.574 162.298 162.999 163.692 160.292 160.92 
161.691 162.387 163.192 163.796 164.509 159.871 160.385 161.152 161.83 
162.736 163.401 164.235 164.738 165.49 159.732 160.086 160.789 161.341 
162.237 162.953 163.868 164.483 165.254 165.759 166.468 159.752 160.04 
160.683 161.077 161.893 162.501 163.403 164.054 164.834 165.419 166.087 
166.633 167.226 159.702 160.02 160.588 160.961 161.688 162.225 163.09 
163.661 164.433 164.955 165.627 166.174 166.792 167.299 167.801 159.582 
159.894 160.369 160.744 161.345 161.915 162.732 163.371 164.147 164.639 
165.269 165.735 166.355 166.865 167.414 167.843 168.248 159.493 159.758 
160.192 160.49 160.988 161.467 162.183 162.877 163.663 164.294 164.9 
165.383 165.906 166.413 166.94 167.432 167.842 168.229 168.521 162.961 
163.63 163.572 164.103 164.288 164.241 164.802 164.723 165.207 165.025 
164.91 165.498 165.438 166.002 165.849 166.31 165.985 165.749 166.355 
166.219 166.87 166.712 167.279 167.029 167.484 167.004 166.789 167.392 
167.194 167.836 167.648 168.256 168.043 168.579 168.27 168.653 167.761 
167.702 168.294 168.197 168.78 168.617 169.168 168.995 169.548 169.345 
169.772 169.389 169.575 168.276 168.308 168.896 168.94 169.546 169.481 
170.024 169.874 170.416 170.262 170.713 170.425 170.59 170.123 170.099 
168.671 168.741 169.323 169.446 170.106 170.161 170.755 170.683 171.204 
171.087 171.505 171.284 171.427 171.02 170.945 170.491 170.439 168.925 
169.056 169.607 169.803 170.445 170.624 171.191 171.266 171.706 171.716 
172.04 171.946 172.046 171.747 171.649 171.253 171.186 170.826 170.865 
162.752 163.873 163.132 162.726 164.961 164.247 163.848 163.068 162.596 
166.018 165.312 164.948 164.199 163.753 162.93 162.469 167.106 166.359 
165.966 165.262 164.866 164.106 163.679 162.865 162.508 168.184 167.423 
166.929 166.22 165.784 165.135 164.755 164.06 163.707 162.969 162.674 
169.066 168.411 167.873 167.151 166.643 165.985 165.59 165.01 164.675 
164.067 163.707 163.052 162.685 169.643 169.158 168.695 168.064 167.579 
166.88 166.441 165.81 165.442 164.887 164.486 163.915 163.45 162.875 
162.45 170.077 169.674 169.306 168.812 168.387 167.785 167.31 166.666 
166.198 165.605 165.136 164.572 164.058 163.507 163.031 162.549 162.203 
170.541 170.141 169.782 169.35 168.909 168.44 167.925 167.397 166.847 
166.292 165.749 165.186 164.646 164.081 163.594 163.094 162.748 162.338 
162.105 170.807 171.294 171.081 171.042 171.568 171.48 171.449 171.223 
171.135 171.726 171.68 171.648 171.504 171.404 171.26 171.237 171.906 
171.863 171.883 171.714 171.648 171.483 171.474 171.372 171.381 172.076 
172.085 172.217 172.058 172.045 171.805 171.76 171.594 171.575 171.464 
171.358 172.168 172.239 172.415 172.384 172.404 172.224 172.098 171.874 
171.736 171.602 171.453 171.321 171.04 172.116 172.241 172.338 172.441 
172.471 172.465 172.349 172.161 171.953 171.752 171.571 171.406 171.135 
170.902 170.475 171.805 172.015 172.013 172.211 172.253 172.411 172.409 
172.353 172.202 171.991 171.799 171.581 171.326 171.045 170.62 170.283 
169.792 171.249 171.532 171.509 171.78 171.853 172.13 172.223 172.346 
172.262 172.175 171.943 171.779 171.467 171.232 170.777 170.446 169.918 
169.601 169.16 
POINT_DATA 1002
SCALARS Distance double
LOOKUP_TABLE default
158.854 159.25 158.534 158.222 157.647 158.608 157.474 156.798 158.075 
158.358 156.735 156.305 157.352 157.661 157.708 156.299 156.131 156.647 
156.889 156.864 156.897 156.085 155.965 156.266 156.369 156.327 156.344 
156.536 155.789 155.733 155.995 156.064 155.992 156.012 156.161 156.308 
155.516 155.627 155.649 155.722 155.595 155.528 155.627 155.701 155.722 
155.555 155.771 155.497 155.479 155.301 155.092 155.077 155.135 155.109 
155.119 155.821 156.045 155.611 155.451 155.228 154.938 154.8 154.856 
154.883 154.823 154.854 159.306 158.418 159.397 158.371 159.47 157.327 
158.331 159.438 157.144 156.472 158.222 159.427 156.85 156.107 156.079 
158.33 159.69 156.571 155.424 155.555 155.965 158.892 160.22 156.989 
155.209 154.97 155.717 155.973 159.693 160.883 158.089 156.171 155.267 
155.783 156.246 155.989 160.51 161.629 159.234 157.653 156.415 156.288 
156.584 156.397 155.978 161.292 162.373 160.157 158.895 157.675 156.975 
156.749 156.493 156.19 156.064 162.386 161.23 162.281 161.073 162.096 
160.051 160.969 162.032 160.002 158.903 161.102 162.213 160.162 159.08 
157.892 161.339 162.4 160.389 159.337 158.009 157.054 161.402 162.311 
160.413 159.4 158.088 156.828 156.382 161.33 162.073 160.372 159.355 
158.265 157.033 156.193 156.081 161.283 161.931 160.437 159.481 158.573 
157.655 156.773 156.283 156.171 161.262 161.91 160.482 159.634 158.837 
158.093 157.348 156.752 156.452 156.283 156.091 156.213 155.718 156.291 
155.587 155.052 156.607 155.565 154.949 154.701 157.298 156.013 155.128 
154.985 154.675 158.136 156.943 155.753 155.321 155.122 154.387 158.925 
157.948 156.728 155.742 155.245 154.724 153.944 159.729 158.817 157.768 
156.526 155.401 154.752 154.321 153.853 160.603 159.71 158.752 157.64 
156.226 155.052 154.549 154.337 154.066 161.445 160.691 159.757 158.773 
157.538 156.13 155.165 154.787 154.576 154.323 155.787 155.333 155.481 
154.668 154.92 155.166 154.207 154.125 154.461 154.809 153.849 153.538 
153.654 154.115 154.571 153.446 153.252 153.323 153.541 154.087 154.62 
153.316 153.142 153.36 153.435 153.643 154.301 154.772 153.555 153.245 
153.383 153.501 153.421 153.798 154.485 154.784 153.893 153.529 153.441 
153.523 153.452 153.499 154.012 154.552 154.744 154.386 154.002 154.714 
154.357 155.431 153.721 155.037 156.446 154.088 153.644 156.076 157.638 
154.811 154.104 153.695 157.398 158.845 155.986 155.054 154.366 153.734 
158.63 159.809 157.348 156.274 155.402 154.506 153.943 159.539 160.546 
158.497 157.422 156.365 155.338 154.576 154.373 160.34 161.273 159.431 
158.448 157.303 156.15 155.276 154.835 154.726 161.186 162.018 160.328 
159.423 158.351 157.18 156.215 155.598 155.21 154.955 154.82 155.07 
155.652 156.19 156.835 155.723 157.539 158.08 157.102 156.753 158.885 
159.546 158.494 158.174 157.898 160.598 161.439 159.963 159.521 159.222 
159.059 162.461 163.051 161.788 161.114 160.579 160.323 160.146 163.756 
164.084 163.406 162.84 162.16 161.686 161.407 161.028 164.827 165.168 
164.614 164.234 163.617 163.077 162.729 162.319 161.769 166.146 166.464 
165.891 165.469 164.815 164.261 163.948 163.581 163.018 162.446 162.304 
161.828 162.739 162.2 163.196 160.998 162.543 163.685 161.266 159.972 
162.918 164.16 161.511 160.129 158.856 163.37 164.642 161.885 160.338 
158.955 157.553 163.931 165.219 162.488 160.807 159.221 157.802 156.337 
164.47 165.746 163.205 161.578 159.743 158.226 156.853 155.586 164.827 
166.108 163.737 162.415 160.53 158.771 157.428 156.166 155.159 162.478 
162.908 163.161 163.647 164.108 163.442 164.661 165.212 164.325 164.091 
165.779 166.312 165.427 165.143 164.748 166.825 167.393 166.485 166.231 
165.803 165.274 167.811 168.423 167.365 167.159 166.771 166.299 165.861 
168.824 169.369 168.191 167.913 167.681 167.263 166.982 166.575 169.893 
170.233 169.147 168.585 168.451 168.2 167.868 167.656 167.106 170.866 