# vtk DataFile Version 4.0
vtk output
ASCII
DATASET POLYDATA
POINTS 1002 float
-76.7479 -108.963 69.3443 -76.2735 -110.22 68.9136 -76.4509 -109.733 68.0956 
-77.0903 -108.496 68.5731 -76.8051 -109.249 67.279 -77.4704 -107.826 69.8573 
-77.6382 -108.053 67.7946 -77.3239 -108.736 66.428 -77.9983 -107.353 69.0965 
-78.3298 -106.605 70.3553 -78.371 -107.577 67.0329 -78.0999 -108.294 65.737 
-78.6844 -106.852 68.3402 -78.96 -106.002 69.5914 -79.0823 -105.013 70.8007 
-79.3655 -107.179 66.4891 -79.2568 -108.011 65.3919 -79.4996 -106.309 67.697 
-79.6837 -105.384 68.9008 -79.7578 -104.329 70.0998 -79.7105 -103.333 71.255 
-80.5163 -106.78 66.147 -80.4919 -107.582 65.1627 -80.4719 -105.775 67.2205 
-80.4751 -104.736 68.3143 -80.5113 -103.693 69.4706 -80.4583 -102.693 70.6368 
-80.4182 -101.902 71.7225 -81.4972 -106.06 65.7604 -81.4833 -106.8 64.8521 
-81.4238 -105.084 66.7366 -81.3104 -103.953 67.7079 -81.2934 -102.961 68.7947 
-81.2714 -102.037 69.9732 -81.2177 -101.198 71.0987 -81.2093 -100.534 72.1419 
-82.3734 -105.144 65.3701 -82.4254 -105.972 64.6274 -82.2857 -104.238 66.2139 
-82.1341 -103.089 67.0674 -82.0703 -102.068 68.0632 -82.0881 -101.268 69.23 
-82.065 -100.457 70.3894 -82.0109 -99.7283 71.4818 -81.9317 -99.1501 72.5077 
-83.3676 -104.367 65.1114 -83.4694 -105.317 64.5464 -83.2442 -103.491 65.8158 
-83.0629 -102.422 66.5691 -82.9223 -101.33 67.45 -82.9007 -100.503 68.5505 
-82.9041 -99.7523 69.7017 -82.866 -99.02 70.8038 -82.7618 -98.4408 71.8645 
-82.5818 -97.9639 72.8331 -84.3681 -103.736 64.9037 -84.4484 -104.72 64.4587 
-84.2634 -102.879 65.5326 -84.1052 -101.935 66.2516 -83.9249 -100.88 67.0271 
-83.8063 -99.964 67.9885 -83.7441 -99.1777 69.0838 -83.6951 -98.44 70.1695 
-83.6246 -97.8738 71.2338 -83.4652 -97.4472 72.2282 -83.2235 -97.0318 73.102 
-75.9846 -111.233 67.9972 -76.1813 -110.723 67.0501 -75.7138 -112.173 66.985 
-75.933 -111.588 65.8015 -75.3796 -112.9 65.8076 -76.478 -110.103 66.0301 
-75.5236 -112.191 64.3159 -74.9417 -113.556 64.5795 -76.0511 -110.789 64.4923 
-76.8824 -109.457 65.0651 -75.067 -112.865 62.8695 -74.7181 -114.409 63.6024 
-75.5107 -111.371 62.7474 -76.374 -110.113 63.5236 -77.7567 -109.042 64.5491 
-75.1928 -113.906 62.0323 -75.1321 -115.417 63.0943 -75.4184 -112.273 61.362 
-76.2 -110.899 61.9924 -77.6194 -109.832 63.3898 -79.207 -108.783 64.4559 
-76.0996 -114.913 62.1437 -76.0382 -116.233 63.0698 -76.2381 -113.373 61.1764 
-76.8148 -111.929 61.1541 -78.0253 -110.737 62.3629 -79.441 -109.596 63.5941 
-80.6036 -108.263 64.2945 -77.2346 -115.48 62.8213 -77.0635 -116.731 63.3496 
-77.4682 -114.076 62.1211 -77.881 -112.781 61.5561 -78.7422 -111.585 61.8749 
-79.8965 -110.393 62.7677 -80.904 -109.071 63.4858 -81.7011 -107.53 64.0556 
-78.2971 -115.823 63.3971 -78.1632 -117.075 63.6873 -78.5488 -114.446 63.0882 
-78.8618 -113.318 62.4793 -79.4054 -112.253 61.9967 -80.2987 -110.997 62.1072 
-81.2705 -109.754 62.6334 -82.0893 -108.449 63.3234 -82.8084 -106.888 64.0129 
-79.3723 -116.188 63.6712 -79.3377 -117.344 63.9816 -79.5371 -114.881 63.4459 
-79.7897 -113.878 62.9139 -80.1901 -113.005 62.1344 -80.8751 -111.676 61.6632 
-81.7522 -110.198 61.8176 -82.5804 -109.062 62.5139 -83.2924 -107.856 63.4052 
-83.9182 -106.29 64.0811 -80.507 -116.875 63.9878 -80.5897 -115.677 63.5939 
-81.7274 -116.305 63.9623 -81.9797 -115.345 63.2766 -83.1434 -115.837 63.9008 
-80.8198 -114.666 63.0115 -83.6131 -115.132 62.9581 -84.8072 -115.506 63.8261 
-82.4503 -114.736 62.2435 -81.2475 -113.981 62.0938 -85.2493 -114.671 62.9149 
-86.3735 -114.92 63.8282 -84.2115 -114.461 61.9119 -83.1744 -113.9 61.3222 
-81.9218 -112.759 61.3465 -86.6362 -113.692 63.2125 -87.6098 -113.813 64.0639 
-85.5975 -113.474 62.3696 -84.8555 -113.017 61.6009 -83.9489 -111.966 61.161 
-82.7156 -110.813 61.265 -87.9777 -112.422 63.7415 -88.7544 -112.544 64.4977 
-86.8554 -112.121 63.177 -85.9467 -111.674 62.6578 -85.3397 -110.838 62.0298 
-84.4738 -109.818 61.6432 -83.412 -109.269 61.8758 -89.4112 -111.228 64.2564 
-89.992 -111.481 64.8955 -88.4532 -110.797 63.8227 -87.3255 -110.328 63.5296 
-86.4327 -109.768 63.0734 -85.6733 -108.99 62.5541 -84.8292 -108.416 62.4751 
-84.0054 -108.186 62.8872 -90.7745 -110.187 64.6023 -91.2392 -110.566 65.1515 
-90.0825 -109.614 64.1847 -89.1369 -108.994 63.9241 -88.1128 -108.526 63.6331 
-87.094 -108.013 63.2624 -86.1047 -107.426 63.1119 -85.2628 -107.044 63.3459 
-84.5663 -106.741 63.7403 -91.9761 -109.23 64.8458 -92.3665 -109.679 65.343 
-91.4275 -108.602 64.4219 -90.7004 -107.807 64.1229 -89.8839 -107.147 63.8798 
-88.9392 -106.677 63.6465 -87.785 -106.145 63.5267 -86.6369 -105.622 63.6159 
-85.7449 -105.281 63.8613 -85.062 -105.008 64.1573 -85.2987 -103.396 64.51 
-85.9997 -103.48 64.1533 -86.2287 -102.075 64.6094 -86.9381 -103.681 63.9291 
-87.1513 -102.086 64.2518 -87.3837 -100.868 64.9222 -88.2141 -104.13 63.8334 
-88.4118 -102.333 64.102 -88.5485 -100.9 64.5938 -88.7056 -99.7066 65.3216 
-89.5656 -104.741 63.8177 -89.8753 -102.877 64.0456 -89.9479 -101.175 64.3911 
-89.9824 -99.6802 64.9905 -89.9556 -98.5999 65.6821 -90.5973 -105.315 63.915 
-91.1418 -103.52 64.0215 -91.435 -101.737 64.2043 -91.4574 -99.9464 64.6793 
-91.3176 -98.5914 65.3754 -91.0964 -97.7477 66.1454 -91.3746 -106.035 64.1333 
-92.0717 -104.232 64.1608 -92.7591 -102.422 64.151 -93.0936 -100.566 64.3921 
-92.9329 -98.9871 65.0449 -92.5775 -97.959 65.8736 -92.2371 -97.1495 66.7665 
-92.1294 -107 64.4172 -92.8752 -105.231 64.4527 -93.7491 -103.309 64.3843 
-94.4462 -101.36 64.3759 -94.5321 -99.6826 64.8057 -94.1592 -98.4546 65.5928 
-93.7109 -97.5166 66.514 -93.2859 -96.6518 67.4685 -92.7677 -107.854 64.7901 
-93.5497 -106.293 64.8137 -94.3804 -104.468 64.7954 -95.1566 -102.438 64.7331 
-95.5349 -100.59 64.9497 -95.4263 -99.1428 65.5593 -95.0649 -97.9838 66.3773 
-94.5806 -97.041 67.3182 -94.0369 -96.3004 68.2598 -93.1798 -108.451 65.2658 
-93.9518 -107.083 65.2702 -94.6841 -105.533 65.2986 -95.3806 -103.713 65.3068 
-95.9069 -101.83 65.4701 -96.1236 -100.173 65.9409 -96.0587 -98.7457 66.6023 
-95.7136 -97.5663 67.387 -95.1125 -96.7442 68.2862 -94.459 -96.1895 69.1482 
-85.253 -102.47 65.0717 -86.2323 -101.157 65.3596 -85.1762 -101.564 65.846 
-87.3988 -99.8768 65.7346 -86.1768 -100.142 66.2118 -85.034 -100.538 66.6336 
-88.6258 -98.7191 66.0708 -87.2631 -98.8079 66.5454 -86.0213 -99.0903 67.0075 
-84.8651 -99.5398 67.4803 -89.7565 -97.7034 66.4977 -88.3496 -97.6768 66.963 
-87.0328 -97.77 67.4417 -85.8434 -98.1569 67.9386 -84.7159 -98.6609 68.5209 
-90.885 -96.8029 67.119 -89.4383 -96.5864 67.5551 -88.066 -96.5907 68.052 
-86.8468 -96.8686 68.5219 -85.6674 -97.3184 69.0572 -84.5851 -97.846 69.6542 
-92.0474 -96.0992 67.8051 -90.6038 -95.5953 68.1488 -89.1265 -95.4535 68.6099 
-87.8344 -95.7195 69.1447 -86.6412 -96.1367 69.6757 -85.4838 -96.6273 70.2482 
-84.4818 -97.2331 70.7964 -93.0229 -95.7162 68.5282 -91.7566 -95.0257 68.7408 
-90.2421 -94.5861 69.0549 -88.7815 -94.6691 69.6111 -87.534 -95.0515 70.2585 
-86.3707 -95.5229 70.8575 -85.2919 -96.1426 71.4098 -84.3367 -96.8271 71.8726 
-93.6528 -95.6216 69.3486 -92.6875 -94.8836 69.4842 -91.3625 -94.1937 69.6702 
-89.8118 -93.9133 70.1191 -88.3946 -94.0571 70.783 -87.1683 -94.4209 71.4162 
-86.038 -94.9993 71.9511 -85.0145 -95.7398 72.4194 -84.0779 -96.4331 72.8011 
-94.2686 -95.8838 70.2535 -93.5486 -95.12 70.4067 -94.1829 -95.434 71.4594 
-93.4797 -94.48 71.6908 -94.1744 -94.9055 72.8109 -92.5763 -94.2406 70.5685 
-93.2609 -94.0578 73.2238 -93.9314 -94.7748 74.3192 -92.373 -93.6677 72.0234 
-91.1274 -93.5978 70.9041 -92.7164 -94.2728 74.8166 -93.3676 -95.1027 75.8183 
-91.9423 -93.6424 73.6511 -90.8091 -93.3152 72.4669 -89.4821 -93.4147 71.4707 
-92.0813 -94.7447 76.2432 -92.782 -95.496 77.0927 -91.3458 -94.096 75.2259 
-90.3557 -93.6092 74.0667 -89.0936 -93.3112 72.9616 -87.9688 -93.5657 72.0771 
-91.5661 -95.2185 77.442 -92.2827 -96.0104 78.1685 -90.7896 -94.4411 76.7081 
-89.7988 -93.9562 75.7666 -88.5362 -93.6325 74.5974 -87.3778 -93.5004 73.4664 
-86.5998 -94.0052 72.5975 -91.0229 -95.9359 78.5459 -91.7435 -96.6928 79.2374 
-90.2265 -94.9543 77.9625 -89.2267 -94.1755 77.3715 -87.913 -93.8932 76.4546 
-86.6549 -93.7963 75.1908 -85.8598 -93.9738 73.9626 -85.4095 -94.7292 73.0679 
-90.3979 -96.6223 79.6883 -91.1512 -97.2374 80.2981 -89.5775 -95.8173 79.034 
-88.6483 -94.9043 78.4723 -87.4304 -94.3406 77.8748 -86.1226 -94.1985 76.9335 
-85.2031 -94.2472 75.6334 -84.7197 -94.6655 74.3849 -84.3961 -95.5123 73.4774 
-89.808 -97.0293 80.7438 -90.5539 -97.6537 81.1578 -88.9726 -96.5046 80.0887 
-88.0963 -95.9236 79.3524 -87.0444 -95.3113 78.7088 -85.8314 -94.8993 78.0683 
-84.8279 -94.7522 77.13 -84.2128 -94.888 75.8803 -83.8092 -95.4127 74.6953 
-83.4859 -96.213 73.8017 -95.1642 -96.5787 69.6599 -94.9408 -96.362 70.9424 
-95.9711 -97.19 70.3067 -95.8116 -96.9494 71.7214 -96.7516 -97.9711 70.9856 
-94.8993 -95.9575 72.2738 -96.6542 -97.6288 72.5117 -97.1725 -98.8234 71.6602 
-95.7681 -96.547 73.1457 -94.9049 -95.5879 73.6822 -97.0455 -98.5767 73.2859 
-97.0969 -99.8778 72.4098 -96.4381 -97.2858 74.0517 -95.5967 -96.3666 74.605 
-94.5977 -95.6665 75.2189 -96.9551 -99.9574 74.0595 -96.7938 -101.246 73.22 
-96.6685 -98.4772 74.9827 -96.0116 -97.3333 75.6367 -95.1583 -96.6212 76.1717 
-94.02 -95.9822 76.7281 -96.7711 -101.545 74.878 -96.6368 -102.819 74.0667 
-96.7103 -100.078 75.9118 -96.2707 -98.7046 76.7326 -95.5739 -97.7723 77.2113 
-94.6024 -96.9704 77.6614 -93.4304 -96.314 78.0079 -96.7733 -103.173 75.7973 
-96.715 -104.481 74.9765 -96.7887 -101.73 76.804 -96.5004 -100.286 77.6735 
-95.9042 -99.1985 78.1343 -95.034 -98.2588 78.505 -93.9551 -97.353 78.9059 
-92.8453 -96.8576 79.1193 -96.8395 -104.803 76.6398 -96.7709 -106.017 75.7776 
-96.8103 -103.368 77.5312 -96.4836 -101.85 78.2634 -95.9153 -100.648 78.6842 
-95.191 -99.7091 79.0689 -94.2685 -98.7122 79.593 -93.2545 -97.911 79.9758 
-92.2303 -97.5091 80.1493 -96.6765 -106.184 77.1227 -96.5423 -107.161 76.2462 
-96.6071 -104.908 77.9086 -96.1477 -103.405 78.4723 -95.4946 -102.067 78.8519 
[...]
CELL_DATA 2000
SCALARS Distance double
LOOKUP_TABLE default
149.342 148.776 149.011 148.994 148.302 148.527 148.551 148.784 148.821 
147.963 148.132 148.203 148.398 148.414 148.605 148.506 147.972 147.954 
148.017 148.097 148.091 148.213 148.079 148.182 147.953 148.199 148.097 
148.05 147.988 147.882 147.904 147.743 147.796 147.579 147.633 147.449 
148.18 148.189 147.996 147.96 147.67 147.655 147.385 147.451 147.226 
147.301 147.113 147.205 147.091 147.956 147.972 147.714 147.728 147.342 
147.321 146.938 147.018 146.775 146.918 146.736 146.856 146.707 146.849 
146.746 147.891 147.767 147.51 147.441 147.112 146.999 146.63 146.59 
146.366 146.471 146.353 146.476 146.361 146.473 146.387 146.518 146.451 
147.96 147.769 147.493 147.359 147.102 146.924 146.632 146.451 146.245 
146.199 146.118 146.167 146.107 146.178 146.138 146.235 146.229 146.314 
146.292 149.562 149.698 149.389 148.935 149.673 149.452 148.929 148.721 
148.338 149.406 149.257 148.655 148.548 148.077 148.075 147.87 149.247 
148.925 148.213 148.091 147.605 147.698 147.569 147.744 147.855 149.708 
149.02 148.286 147.8 147.377 147.303 147.374 147.548 147.849 147.982 
148.201 150.737 149.863 149.267 148.378 148.034 147.518 147.72 147.65 
148.118 148.143 148.418 148.344 148.332 151.855 151.067 150.632 149.706 
149.392 148.609 148.688 148.315 148.696 148.569 148.829 148.653 148.625 
148.379 148.21 152.854 152.176 151.816 151.06 150.749 150.007 149.87 
149.335 149.392 149.125 149.23 149.06 149.06 148.801 148.698 148.354 
148.224 153.792 153.152 152.803 152.145 151.849 151.209 151.005 150.408 
150.243 149.762 149.65 149.383 149.38 149.226 149.245 148.976 148.905 
148.498 148.357 154.183 154.404 153.928 153.187 154.712 154.183 153.486 
152.968 152.287 155.237 154.619 153.999 153.396 152.768 152.177 151.535 
155.761 155.195 154.573 153.995 153.394 152.768 152.064 151.421 150.726 
155.95 155.569 154.878 154.448 153.796 153.319 152.559 151.929 151.08 
150.52 149.925 155.925 155.631 154.963 154.59 153.899 153.534 152.801 
152.302 151.46 150.868 150.21 149.827 149.548 155.987 155.672 155.106 
154.69 154.038 153.619 152.962 152.509 151.799 151.25 150.634 150.187 
149.878 149.623 149.473 156.147 155.829 155.309 154.901 154.276 153.828 
153.2 152.753 152.123 151.623 151.01 150.57 150.139 149.895 149.624 
149.457 149.158 156.289 155.996 155.474 155.105 154.469 154.047 153.391 
152.99 152.372 151.952 151.316 150.874 150.274 149.979 149.512 149.4 
148.998 148.922 148.527 148.173 148.566 148.135 147.745 149.128 148.584 
148.173 147.764 147.546 150.012 149.333 148.988 148.371 148.147 147.73 
147.654 151.109 150.404 150.134 149.396 149.145 148.513 148.355 147.913 
147.84 152.148 151.52 151.281 150.6 150.344 149.628 149.377 148.738 
148.582 148.126 148.095 153.169 152.544 152.347 151.711 151.52 150.835 
150.62 149.879 149.694 149.037 149.003 148.516 148.595 154.294 153.651 
153.535 152.856 152.748 152.049 151.918 151.175 151.025 150.286 150.215 
149.589 149.644 149.136 149.236 155.348 154.803 154.747 154.121 154.049 
153.356 153.232 152.494 152.339 151.613 151.499 150.84 150.808 150.238 
150.274 149.78 149.847 156.193 155.774 155.729 155.246 155.172 154.6 
154.459 153.784 153.606 152.898 152.773 152.099 152.045 151.414 151.4 
150.831 150.858 150.369 150.438 147.852 147.502 147.572 147.404 147.316 
147.291 147.152 147.196 147.028 147.363 147.21 147 146.968 146.785 
146.802 146.584 147.513 147.296 146.991 146.849 146.593 146.563 146.365 
146.37 146.212 147.749 147.454 147.119 146.874 146.554 146.416 146.205 
146.185 146.068 146.09 146.043 148.182 147.757 147.38 147.036 146.69 
146.453 146.216 146.106 145.989 145.972 145.927 145.976 145.991 148.781 
148.268 147.807 147.343 146.923 146.613 146.349 146.189 146.061 145.971 
145.924 145.897 145.925 145.971 146.046 149.423 148.9 148.431 147.851 
147.35 146.886 146.546 146.319 146.173 146.075 146.015 145.954 145.97 
145.968 146.052 146.086 146.171 150.057 149.565 149.172 148.561 148.073 
147.442 147.024 146.592 146.379 146.187 146.101 146.027 145.994 145.998 
146.036 146.092 146.15 146.196 146.232 150.322 150.499 150.101 149.444 
150.729 150.266 149.544 149.121 148.36 151.108 150.532 149.778 149.253 
148.46 147.991 147.286 151.663 151.002 150.253 149.604 148.826 148.208 
147.477 147.025 146.55 152.241 151.598 150.882 150.198 149.459 148.736 
147.978 147.338 146.756 146.42 146.163 152.799 152.174 151.492 150.844 
150.143 149.443 148.68 147.939 147.223 146.68 146.272 146.091 145.996 
153.43 152.785 152.123 151.455 150.763 150.099 149.373 148.654 147.904 
147.214 146.655 146.256 146.066 145.988 146.024 154.041 153.445 152.803 
152.126 151.433 150.738 150.048 149.347 148.672 147.948 147.357 146.754 
146.429 146.141 146.107 146.069 146.139 154.491 153.992 153.38 152.787 
152.136 151.46 150.807 150.092 149.477 148.759 148.218 147.54 147.141 
146.633 146.457 146.221 146.222 146.179 146.225 150.885 151.934 151.297 
151.131 153.185 152.463 152.287 151.592 151.422 154.426 153.759 153.592 
152.842 152.679 151.955 151.837 155.519 154.969 154.867 154.157 154.007 
153.278 153.187 152.469 152.401 156.588 156.085 156.104 155.436 155.337 
154.618 154.558 153.856 153.8 153.063 152.969 157.806 157.259 157.417 
156.765 156.789 156.029 156.019 155.268 155.237 154.472 154.363 153.596 
153.494 159.25 158.616 158.844 158.192 158.318 157.566 157.579 156.792 
156.74 155.936 155.804 154.996 154.865 154.129 154.08 160.731 160.12 
160.303 159.661 159.716 159.025 158.927 158.233 158.078 157.373 157.186 
156.421 156.241 155.493 155.394 154.717 154.663 161.821 161.429 161.492 
160.977 160.833 160.213 159.888 159.293 159.002 158.482 158.295 157.704 
157.533 156.835 156.683 155.99 155.874 155.224 155.101 156.616 157.154 
156.639 156.171 157.789 157.196 156.659 156.151 155.634 158.489 157.866 
157.274 156.66 156.077 155.56 154.956 159.167 158.579 157.999 157.317 
156.676 156.05 155.418 154.842 154.166 159.846 159.259 158.669 157.997 
157.289 156.65 155.991 155.385 154.725 154.083 153.397 160.546 159.942 
159.252 158.566 157.707 157.102 156.349 155.876 155.246 154.701 154.027 
153.365 152.686 161.093 160.554 159.767 159.069 158.088 157.412 156.544 
156.085 155.478 155.112 154.537 153.997 153.308 152.658 152.003 161.453 
160.984 160.205 159.528 158.578 157.837 156.988 156.371 155.791 155.357 
154.916 154.463 153.894 153.279 152.606 151.98 151.404 161.783 161.351 
160.691 160.015 159.185 158.426 157.681 156.985 156.438 155.862 155.446 
154.934 154.464 153.877 153.265 152.609 151.999 151.42 150.943 156.974 
157.713 157.429 157.586 158.468 158.221 158.466 158.115 158.276 159.208 
158.983 159.258 158.987 159.177 158.817 158.952 159.957 159.709 159.961 
159.735 159.935 159.648 159.773 159.438 159.563 160.778 160.457 160.685 
160.436 160.683 160.408 160.577 160.23 160.375 160.044 160.235 161.754 
161.332 161.496 161.169 161.408 161.171 161.421 161.102 161.284 160.904 
161.124 160.787 161.002 162.786 162.36 162.442 162 162.079 161.814 
162.014 161.857 162.054 161.798 161.945 161.65 161.823 161.513 161.596 
163.6 163.317 163.396 162.947 162.879 162.453 162.447 162.271 162.392 
162.33 162.405 162.274 162.299 162.144 162.181 161.945 161.91 164.129 
163.986 164.129 163.821 163.771 163.277 163.108 162.703 162.642 162.506 
162.526 162.486 162.44 162.383 162.334 162.288 162.289 162.148 162.123 
164.44 164.927 164.637 164.47 165.261 165.076 164.877 164.561 164.17 
165.323 165.287 165.093 164.869 164.421 164.038 163.47 165.252 165.287 
165.143 164.985 164.534 164.195 163.601 163.259 162.836 164.994 165.153 
165.022 164.977 164.565 164.28 163.721 163.382 162.953 162.75 162.576 
164.356 164.661 164.445 164.646 164.262 164.225 163.749 163.53 163.126 
162.889 162.644 162.534 162.438 163.693 163.911 163.637 163.865 163.505 
163.701 163.361 163.446 163.163 163.063 162.8 162.618 162.443 162.373 
162.326 163.331 163.413 163.213 163.219 162.914 162.972 162.747 162.94 
162.842 162.979 162.832 162.753 162.563 162.435 162.368 162.329 162.339 
163.009 163.165 163.08 163.046 162.815 162.677 162.467 162.479 162.442 
162.612 162.581 162.663 162.512 162.491 162.391 162.396 162.396 162.378 
162.303 162.725 162.384 162.71 162.909 162.083 162.364 162.556 162.774 
162.715 161.665 161.982 162.058 162.35 162.341 162.488 162.378 160.801 
161.335 161.382 161.789 161.864 162.124 162.157 162.264 162.317 159.561 
160.271 160.501 161.078 161.319 161.699 161.838 162.036 162.091 162.265 
162.359 158.364 159.067 159.47 160.193 160.598 161.146 161.288 161.601 
161.531 161.824 161.817 162.179 162.25 157.343 157.994 158.389 159.161 
159.578 160.291 160.396 160.845 160.646 161.019 160.952 161.457 161.644 
162.075 162.238 156.393 157.012 157.322 158.048 158.374 159.132 159.255 
159.806 159.66 160.051 160.024 160.551 160.88 161.468 161.848 162.186 
162.34 155.5 156.07 156.32 156.954 157.2 157.895 158.076 158.679 
158.727 159.157 159.246 159.721 160.073 160.704 161.138 161.694 161.903 
162.21 162.191 162.413 161.701 162.012 161.998 161.142 161.321 161.32 
161.687 161.79 160.758 160.865 160.812 161.089 161.243 161.578 161.554 
160.17 160.427 160.252 160.53 160.478 160.915 160.825 161.129 160.707 
159.141 159.617 159.346 159.724 159.366 159.842 159.518 160.065 159.608 
159.945 159.329 157.828 158.393 158.11 158.588 158.127 158.527 158.037 
158.552 158.147 158.655 158.189 158.526 158.055 156.525 157.022 156.725 
157.25 156.853 157.252 156.769 157.152 156.787 157.266 156.981 157.397 
157.042 157.364 157.022 155.423 155.777 155.442 155.894 155.541 155.977 
155.55 155.941 155.557 156.018 155.745 156.229 155.925 156.323 155.966 
156.343 156.046 154.52 154.763 154.4 154.725 154.38 154.745 154.356 
154.725 154.329 154.769 154.456 154.971 154.676 155.146 154.8 155.222 
154.913 155.36 155.137 162.567 162.657 162.402 161.937 162.63 162.503 
162.133 161.821 161.407 162.366 162.394 162.122 161.987 161.61 161.342 
160.971 162.058 162.111 161.88 161.861 161.5 161.384 160.927 160.783 
160.312 161.766 161.845 161.614 161.596 161.195 161.117 160.608 160.534 
159.974 159.897 159.279 161.249 161.446 161.16 161.249 160.786 160.75 
160.215 160.15 159.607 159.505 158.885 158.736 158.033 160.542 160.77 
160.424 160.617 160.143 160.223 159.695 159.722 159.229 159.178 158.615 
158.423 157.741 157.5 156.799 159.898 160.05 159.718 159.865 159.454 
159.539 159.053 159.129 158.652 158.724 158.204 158.145 157.503 157.291 
156.606 156.355 155.727 159.352 159.464 159.16 159.262 158.907 158.952 
158.492 158.509 157.994 158.062 157.537 157.606 157.035 156.99 156.379 
156.206 155.611 155.383 154.835 158.922 158.047 158.592 158.718 156.907 
157.595 157.781 158.359 158.445 155.702 156.393 156.578 157.278 157.392 
157.982 157.985 154.58 155.217 155.338 156.009 156.086 156.77 156.78 
157.404 157.398 153.496 154.101 154.169 154.77 154.786 155.432 155.453 
156.116 156.149 156.806 156.877 152.553 153.049 153.068 153.584 153.56 
154.16 154.229 154.875 155.003 155.614 155.735 156.342 156.43 151.795 
152.19 152.15 152.534 152.444 152.954 153.033 153.706 153.934 154.585 
154.77 155.309 155.392 155.906 155.899 151 151.415 151.354 151.694 
151.579 151.946 151.967 152.543 152.772 153.489 153.717 154.347 154.413 
154.918 154.862 155.33 155.214 150.131 150.555 150.536 150.92 150.893 
151.212 151.239 151.627 151.789 152.357 152.567 153.21 153.286 153.858 
153.774 154.273 154.127 154.601 154.451 149.683 149.318 149.675 150.104 
149.112 149.398 149.805 150.154 150.559 148.73 149.119 149.5 149.9 
150.327 150.637 150.998 148.084 148.536 148.843 149.416 149.855 150.364 
150.776 151.099 151.501 147.545 147.861 148.054 148.583 148.971 149.668 
150.15 150.748 151.189 151.619 152.117 147.228 147.44 147.584 147.884 
148.158 148.716 149.201 149.938 150.47 151.124 151.609 152.172 152.699 
146.903 147.144 147.311 147.54 147.761 148.08 148.472 149.035 149.587 
150.285 150.818 151.487 151.98 152.629 153.132 146.561 146.786 146.961 
147.247 147.509 147.795 148.15 148.509 148.994 149.511 150.059 150.668 
151.19 151.833 152.349 153 153.495 146.34 146.472 146.615 146.88 
147.184 147.528 147.935 148.272 148.729 149.093 149.61 150.059 150.612 
151.134 151.692 152.264 152.807 153.388 153.869 153.917 152.897 153.524 
153.765 151.825 152.486 152.76 153.411 153.701 150.756 151.411 151.689 
152.377 152.655 153.329 153.618 149.747 150.341 150.553 151.246 151.491 
152.212 152.473 153.204 153.547 148.852 149.354 149.463 150.069 150.24 
150.97 151.247 152.03 152.41 153.195 153.664 147.999 148.459 148.51 
149.012 149.112 149.735 150.031 150.813 151.289 152.103 152.619 153.395 
153.892 147.165 147.574 147.609 148.084 148.195 148.72 149.005 149.693 
150.22 151.034 151.618 152.389 152.884 153.61 154.048 146.553 146.8 
146.816 147.217 147.368 147.87 148.164 148.774 149.256 150.015 150.611 
151.401 151.937 152.648 153.106 153.781 154.224 146.286 146.356 146.339 
146.553 146.673 147.087 147.38 147.954 148.393 149.084 149.628 150.396 
150.962 151.712 152.235 152.918 153.413 154.044 154.511 154.24 153.282 
154.027 154.575 152.303 153.051 153.588 154.366 154.989 151.295 152.073 
152.63 153.396 154.038 154.853 155.565 150.399 151.112 151.723 152.464 
153.123 153.931 154.674 155.493 156.224 149.931 150.396 150.999 151.614 
152.278 153.046 153.818 154.637 155.416 156.184 156.889 149.96 150.164 
150.652 151.024 151.62 152.26 153.038 153.827 154.651 155.42 156.18 
156.88 157.541 150.16 150.298 150.706 150.856 151.344 151.736 152.464 
153.126 153.958 154.693 155.465 156.183 156.876 157.534 158.114 150.204 
150.445 150.896 151.019 151.469 151.645 152.274 152.702 153.489 154.084 
154.833 155.479 156.163 156.843 157.464 158.077 158.563 150.064 150.397 
150.91 151.168 151.639 151.817 152.337 152.619 153.283 153.727 154.419 
154.93 155.577 156.163 156.803 157.423 157.979 158.506 158.904 154.931 
155.326 155.47 156.116 155.777 155.906 156.632 156.698 157.288 156.36 
156.436 157.194 157.261 157.932 157.894 158.43 157.002 157.066 157.836 
157.887 158.591 158.57 159.161 159.059 159.579 157.618 157.691 158.47 
158.551 159.288 159.277 159.901 159.805 160.367 160.243 160.774 158.195 
158.263 158.996 159.13 159.886 159.964 160.625 160.572 161.172 161.063 
161.654 161.49 161.996 158.704 158.777 159.423 159.574 160.279 160.458 
161.132 161.222 161.853 161.856 162.489 162.397 162.932 162.695 163.051 
159.095 159.198 159.785 159.937 160.589 160.781 161.441 161.614 162.269 
162.419 163.105 163.172 163.748 163.599 163.918 163.606 163.76 159.359 
159.492 160.033 160.222 160.848 161.062 161.707 161.893 162.534 162.737 
163.445 163.664 164.321 164.338 164.692 164.421 164.509 164.16 164.202 
154.895 156.036 155.354 155.119 157.137 156.466 156.217 155.552 155.366 
158.246 157.559 157.321 156.65 156.508 155.89 155.854 159.426 158.722 
158.541 157.827 157.736 157.088 157.084 156.468 156.417 160.617 159.932 
159.789 159.101 159.005 158.353 158.277 157.656 157.495 156.871 156.596 
161.763 161.1 160.893 160.267 160.091 159.517 159.305 158.717 158.37 
157.768 157.352 156.803 156.451 162.765 162.176 161.886 161.266 160.967 
160.417 160.114 159.576 159.154 158.536 158.048 157.465 157.101 156.636 
156.425 163.489 163.049 162.768 162.194 161.823 161.216 160.837 160.285 
159.901 159.309 158.89 158.246 157.914 157.351 157.172 156.712 156.592 
163.967 163.654 163.429 162.984 162.623 162.036 161.593 161.002 160.607 
160.06 159.729 159.152 158.879 158.284 158.098 157.549 157.41 156.913 
156.762 162.942 163.353 163.12 163 163.803 163.545 163.468 163.156 
162.94 164.453 164.118 164.07 163.678 163.425 162.999 162.661 164.981 
164.746 164.674 164.333 164.063 163.547 163.091 162.63 162.282 165.203 
165.091 164.994 164.812 164.567 164.158 163.646 163.094 162.576 162.225 
161.922 165.358 165.273 165.245 165.078 164.91 164.58 164.147 163.622 
163.046 162.553 162.099 161.819 161.465 165.365 165.426 165.497 165.4 
165.295 164.972 164.59 164.096 163.56 163.037 162.519 162.075 161.619 
161.289 160.844 165.023 165.276 165.37 165.53 165.451 165.313 164.882 
164.483 163.88 163.452 162.889 162.48 161.942 161.525 161.002 160.651 
160.197 164.497 164.791 164.844 165.171 165.106 165.226 164.795 164.589 
163.896 163.585 162.932 162.663 162.079 161.767 161.181 160.832 160.31 
160.025 159.615 
POINT_DATA 1002
SCALARS Distance double
LOOKUP_TABLE default
149.239 149.716 149.077 148.722 148.536 149.027 148.33 148.048 148.609 
148.834 148.025 147.824 148.262 148.379 148.313 148.021 148.078 148.013 
148.005 147.862 147.69 148.199 148.329 147.939 147.704 147.528 147.354 
147.308 148.047 148.17 147.749 147.331 147.129 147.03 146.961 147.009 
147.708 147.999 147.394 146.89 146.601 146.603 146.584 146.585 146.651 
147.601 148.081 147.229 146.72 146.287 146.216 146.248 146.258 146.325 
146.382 147.633 148.174 147.253 146.83 146.353 146.102 146.044 146.034 
146.128 146.239 146.259 149.898 149.197 150.005 149.159 149.862 148.438 
148.757 149.605 148.055 147.746 148.419 149.723 147.468 147.301 147.67 
148.922 150.482 147.521 147.149 147.681 148.205 150.189 151.544 148.694 
147.891 148.13 148.554 148.505 151.471 152.552 150.241 149.247 148.934 
149.033 148.908 148.469 152.508 153.506 151.473 150.538 149.83 149.418 
149.246 149.033 148.599 153.447 154.428 152.458 151.62 150.859 150.045 
149.494 149.406 149.302 148.821 154.678 153.661 154.876 154.013 155.251 
152.788 154.597 155.868 153.391 152.129 155.126 156.293 154.003 152.791 
151.28 155.294 156.268 154.22 153.169 151.724 150.244 155.339 156.173 
154.262 153.221 152.022 150.644 149.751 155.509 156.283 154.478 153.383 
152.29 151.091 150.173 149.718 155.699 156.462 154.724 153.633 152.593 
151.494 150.451 149.801 149.359 155.831 156.578 154.896 153.793 152.754 
151.778 150.686 149.695 149.049 148.594 147.755 148.063 147.422 148.65 
147.813 147.409 149.664 148.659 147.977 147.583 150.873 149.874 148.911 
148.187 147.755 151.919 151.059 150.106 149.124 148.443 148.092 152.967 
152.161 151.348 150.415 149.552 149.02 148.678 154.198 153.446 152.646 
151.769 150.897 150.201 149.716 149.319 155.321 154.726 153.983 153.074 
152.179 151.425 150.803 150.308 149.918 156.174 155.697 155.097 154.303 
153.447 152.696 152.016 151.385 150.884 150.514 147.333 147.124 147.007 
147.105 146.78 146.576 147.207 146.669 146.339 146.187 147.406 146.752 
146.249 146.036 145.99 147.781 146.959 146.366 146.042 145.897 145.902 
148.35 147.296 146.521 146.167 145.982 145.899 145.982 149.037 147.911 
146.847 146.276 146.083 145.988 146.029 146.153 149.744 148.74 147.572 
146.657 146.21 146.017 145.984 146.099 146.202 150.71 149.852 150.936 
150.012 151.241 148.772 150.348 151.738 148.98 147.635 150.925 152.332 
149.489 148.015 146.789 151.541 152.855 150.186 148.709 147.216 146.269 
152.128 153.417 150.809 149.44 147.898 146.562 145.993 152.813 154.064 
151.431 150.052 148.633 147.191 146.219 145.994 153.46 154.601 152.139 
150.734 149.362 148.028 146.86 146.215 146.12 153.919 154.958 152.765 
151.51 150.183 148.892 147.738 146.829 146.333 146.219 151.434 151.749 
152.621 153.023 153.914 152.093 154.343 155.025 153.413 152.535 155.544 
155.992 154.72 153.891 153.139 156.724 157.054 156.051 155.247 154.541 
153.724 158.006 158.363 157.528 156.793 156.021 155.155 154.213 159.484 
159.909 159.05 158.383 157.565 156.637 155.625 154.761 160.973 161.317 
160.457 159.648 158.753 157.919 157.006 156.096 155.328 162.001 162.149 
161.507 160.539 159.482 158.777 158.193 157.406 156.549 155.747 157.099 
156.646 157.722 157.223 158.425 156.113 157.953 159.093 156.65 155.475 
158.694 159.718 157.354 156.031 154.754 159.369 160.457 157.948 156.572 
155.375 154.053 160.006 161.181 158.387 156.794 155.688 154.682 153.351 
160.481 161.623 158.821 157.065 155.782 154.971 153.965 152.613 160.854 
161.887 159.289 157.633 156.273 155.325 154.457 153.264 151.945 157.249 
157.942 157.952 158.774 158.682 158.687 159.499 159.449 159.506 159.344 
160.185 160.242 160.206 160.1 159.883 160.951 161.144 160.925 160.927 
160.713 160.536 161.907 162.214 161.637 161.669 161.674 161.47 161.372 
162.964 163.184 162.462 162.144 162.236 162.258 162.113 161.991 163.807 
163.812 163.42 162.762 162.442 162.504 162.458 162.333 162.226 164.343 