# vtk DataFile Version 4.0
vtk output
ASCII
DATASET POLYDATA
POINTS 1002 float
-80.2278 -114.134 76.3249 -79.7049 -115.065 75.9896 -79.7455 -114.48 75.0177 
-80.3747 -113.558 75.3904 -79.854 -113.841 74.0557 -81.0163 -113.29 76.6723 
-80.5995 -113.001 74.4996 -80.2187 -113.376 73.1089 -81.2671 -112.742 75.8284 
-81.7135 -112.212 77.1763 -81.0801 -112.522 73.6185 -80.8839 -113.037 72.1753 
-81.5068 -112.05 74.9952 -81.9565 -111.487 76.3904 -82.0737 -110.615 77.7421 
-81.7832 -111.979 72.7978 -81.6574 -112.573 71.4579 -81.9214 -111.266 74.1442 
-82.1742 -110.523 75.5426 -82.3542 -109.712 76.9367 -82.3596 -108.802 78.1129 
-82.5377 -111.351 72.232 -82.4554 -111.986 71.0647 -82.5855 -110.577 73.4508 
-82.6313 -109.686 74.7313 -82.7815 -108.859 76.1229 -82.8754 -108.048 77.3379 
-82.8868 -107.259 78.3793 -83.3219 -110.708 71.8449 -83.3116 -111.351 70.7786 
-83.4007 -110.016 72.9956 -83.4018 -109.158 74.1333 -83.4453 -108.278 75.4 
-83.5757 -107.476 76.6403 -83.5904 -106.675 77.708 -83.5568 -105.985 78.8079 
-84.1125 -109.979 71.4697 -84.1386 -110.62 70.5037 -84.1862 -109.317 72.571 
-84.2309 -108.539 73.6483 -84.1865 -107.654 74.7594 -84.223 -106.805 75.9211 
-84.2818 -106.02 77.0232 -84.2079 -105.298 78.1438 -84.1541 -104.758 79.2981 
-84.8583 -109.196 71.1942 -84.8768 -109.847 70.3431 -84.8724 -108.469 72.1637 
-84.9164 -107.666 73.1564 -84.8695 -106.79 74.1562 -84.7587 -105.89 75.1804 
-84.7549 -105.109 76.2238 -84.7647 -104.482 77.359 -84.6863 -103.958 78.5453 
-84.6402 -103.564 79.5995 -85.6027 -108.516 71.0764 -85.5873 -109.169 70.3091 
-85.5776 -107.745 71.9017 -85.5712 -106.887 72.7522 -85.5676 -106.029 73.6469 
-85.4311 -105.137 74.5673 -85.2608 -104.281 75.4856 -85.235 -103.662 76.5262 
-85.2409 -103.236 77.712 -85.1651 -102.848 78.813 -85.0781 -102.511 79.7034 
-79.4922 -115.895 74.922 -79.5228 -115.249 73.8715 -79.4411 -116.918 73.7335 
-79.5098 -116.229 72.6352 -79.2992 -117.848 72.6112 -79.6483 -114.528 72.8157 
-79.3918 -117.132 71.3867 -79.0553 -118.586 71.5471 -79.5785 -115.393 71.4458 
-80.0148 -113.991 71.7172 -79.252 -117.935 70.0897 -79.1528 -119.326 70.5289 
-79.4006 -116.215 69.9698 -79.786 -114.666 70.2169 -80.6545 -113.585 70.7536 
-79.5656 -118.772 69.0056 -79.7643 -120.027 69.8321 -79.4336 -117.062 68.5043 
-79.6168 -115.349 68.7008 -80.4334 -114.15 69.4125 -81.535 -113.141 70.2511 
-80.3405 -119.482 68.5449 -80.589 -120.496 69.5391 -80.0288 -118.009 67.5905 
-79.931 -116.184 67.413 -80.5442 -114.763 68.188 -81.643 -113.772 69.2385 
-82.5967 -112.625 70.072 -81.2368 -119.86 68.6016 -81.473 -120.777 69.415 
-80.9369 -118.779 67.5798 -80.7245 -117.163 66.9387 -81.1059 -115.481 67.2733 
-82.0767 -114.333 68.2936 -82.9941 -113.276 69.2224 -83.6128 -111.945 69.8722 
-82.1475 -119.966 68.8531 -82.4388 -120.967 69.398 -81.8786 -119.096 68.0899 
-81.6913 -117.936 67.3408 -81.9165 -116.307 67.1053 -82.6746 -114.834 67.582 
-83.4947 -113.72 68.3771 -84.0234 -112.481 69.0624 -84.4264 -111.092 69.6665 
-83.0891 -119.966 69.1836 -83.4219 -121.065 69.547 -82.847 -119.062 68.6351 
-82.7417 -118.241 67.9494 -82.9009 -117.027 67.4267 -83.4145 -115.466 67.3346 
-84.0532 -114.088 67.685 -84.4965 -112.872 68.2651 -84.7842 -111.552 68.8973 
-85.1351 -110.26 69.5793 -84.1897 -120.353 69.6518 -83.9453 -119.202 69.2287 
-85.1279 -119.6 69.7052 -85.1321 -118.518 68.9809 -86.2961 -118.963 69.4597 
-83.9134 -118.348 68.4921 -86.5152 -118.032 68.4382 -87.4714 -118.348 69.2038 
-85.415 -117.791 67.8869 -84.1045 -117.548 67.6906 -87.6869 -117.426 68.2939 
-88.4885 -117.492 69.3147 -86.9266 -117.292 67.2683 -85.789 -116.904 67.0016 
-84.4633 -116.229 67.2152 -88.64 -116.4 68.7156 -89.5376 -116.418 69.5038 
-88.0304 -116.369 67.5047 -87.2373 -115.999 66.6795 -86.0557 -115.291 66.761 
-84.8894 -114.567 67.2116 -89.6929 -115.228 69.1073 -90.7138 -115.325 69.5718 
-88.9004 -115.093 68.3475 -88.2208 -114.691 67.3966 -87.3197 -114.062 66.9189 
-86.2204 -113.484 67.1062 -85.2157 -113.091 67.624 -90.9145 -114.085 69.4242 
-91.8861 -114.187 69.8097 -89.9007 -113.9 69.0662 -89.0254 -113.46 68.5404 
-88.2336 -112.855 67.9559 -87.3504 -112.372 67.6646 -86.3275 -112.019 67.8131 
-85.4081 -111.737 68.2927 -92.212 -112.813 69.8272 -93.0074 -112.99 70.1645 
-91.181 -112.626 69.5632 -90.0965 -112.308 69.3374 -89.1605 -111.853 69.071 
-88.3568 -111.443 68.7565 -87.4515 -111.08 68.5519 -86.4546 -110.69 68.661 
-85.6542 -110.394 69.0667 -93.4731 -111.51 70.0521 -94.0725 -111.899 70.3092 
-92.5993 -111.157 69.8214 -91.5253 -110.862 69.6699 -90.4676 -110.62 69.6403 
-89.5552 -110.421 69.6297 -88.6537 -110.158 69.4976 -87.6569 -109.764 69.3743 
-86.7421 -109.397 69.5022 -86.0705 -109.211 69.8683 -86.429 -108.162 70.7991 
-87.0698 -108.168 70.4057 -87.4719 -107.071 71.2865 -87.8791 -108.294 70.1436 
-88.2714 -106.961 70.9392 -88.5775 -105.812 71.6917 -88.9176 -108.588 70.1162 
-89.1905 -106.909 70.6968 -89.4479 -105.52 71.3379 -89.5147 -104.369 72.0016 
-90.0441 -108.864 70.1391 -90.3142 -107.024 70.5501 -90.3702 -105.267 70.9501 
-90.3971 -103.937 71.554 -90.2998 -102.857 72.2305 -91.0895 -108.953 69.9779 
-91.4977 -107.18 70.3525 -91.4365 -105.264 70.6122 -91.2885 -103.555 70.9789 
-91.2746 -102.396 71.705 -91.1334 -101.486 72.4601 -92.1239 -109.026 69.7596 
-92.5672 -107.286 70.0621 -92.5618 -105.505 70.4248 -92.3297 -103.524 70.5961 
-92.2588 -101.984 71.066 -92.2056 -101.116 71.9717 -91.9205 -100.374 72.8077 
-93.2011 -109.335 69.7058 -93.6046 -107.561 69.7814 -93.6633 -105.891 70.2411 
-93.5355 -103.878 70.5143 -93.428 -101.896 70.626 -93.2937 -100.777 71.3129 
-92.9858 -100.16 72.368 -92.5315 -99.4329 73.2351 -94.1467 -109.894 69.8292 
-94.6131 -108.176 69.6513 -94.7476 -106.486 69.9667 -94.7498 -104.486 70.4191 
-94.723 -102.21 70.4584 -94.5057 -100.625 70.7181 -94.0956 -99.9457 71.6829 
-93.622 -99.3562 72.7792 -93.1415 -98.5774 73.6151 -94.8017 -110.552 70.0579 
-95.3879 -108.996 69.7765 -95.6577 -107.292 69.8777 -95.7535 -105.302 70.3209 
-95.8326 -102.948 70.4836 -95.6865 -100.907 70.4941 -95.2368 -99.8406 71.1002 
-94.7422 -99.2928 72.1883 -94.31 -98.622 73.1802 -93.86 -97.8897 73.9624 
-86.4556 -107.395 71.57 -87.4829 -106.197 71.9923 -86.4093 -106.491 72.3363 
-88.4843 -104.833 72.3234 -87.4031 -105.233 72.702 -86.403 -105.588 73.1541 
-89.2564 -103.255 72.5927 -88.2657 -103.753 73.002 -87.3499 -104.319 73.541 
-86.3548 -104.717 74.0675 -90.0002 -101.702 72.8286 -88.9067 -102.042 73.2596 
-88.0727 -102.726 73.8663 -87.1889 -103.393 74.4787 -86.1138 -103.775 74.9727 
-90.8602 -100.453 73.154 -89.7008 -100.625 73.5958 -88.7059 -101.098 74.2187 
-87.8687 -101.852 74.8656 -86.8949 -102.491 75.4197 -85.9116 -102.988 75.9421 
-91.5922 -99.4194 73.63 -90.6073 -99.6136 74.1186 -89.5832 -99.9812 74.7659 
-88.5964 -100.514 75.3784 -87.6656 -101.203 75.9291 -86.7339 -101.891 76.5182 
-85.8898 -102.534 77.1243 -92.1886 -98.4563 74.1041 -91.2944 -98.6408 74.6775 
-90.4099 -99.0478 75.3788 -89.3997 -99.4726 76.005 -88.3899 -100.009 76.5079 
-87.5121 -100.761 77.0895 -86.6626 -101.525 77.7286 -85.8372 -102.179 78.301 
-92.8667 -97.6693 74.4931 -91.8758 -97.7255 75.1118 -90.9763 -98.0269 75.8255 
-90.0199 -98.3891 76.5014 -88.987 -98.8397 77.0459 -88.0969 -99.5577 77.602 
-87.315 -100.422 78.2236 -86.4724 -101.161 78.7764 -85.6693 -101.796 79.2476 
-93.9988 -97.2515 74.7814 -92.8818 -97.0905 75.4095 -94.0397 -96.9243 76.0158 
-92.8672 -96.7875 76.7046 -94.019 -96.8216 77.6996 -91.7523 -97.1604 76.1122 
-92.8639 -96.7067 78.4046 -93.9832 -96.8401 79.4899 -91.6295 -96.8071 77.4029 
-90.6697 -97.3569 76.8359 -92.8162 -96.8884 80.1885 -93.8353 -97.1558 80.9584 
-91.5899 -96.8844 79.1035 -90.4086 -97.0439 78.1274 -89.5624 -97.7269 77.5139 
-92.6261 -97.4062 81.5886 -93.6092 -97.8897 82.1082 -91.521 -97.3638 80.7911 
-90.3601 -97.4348 79.7744 -89.2993 -97.6814 78.8596 -88.5721 -98.4498 78.1676 
-92.4012 -98.2339 82.6842 -93.3972 -98.8445 83.2065 -91.3058 -97.9931 82.0268 
-90.2881 -98.0731 81.2143 -89.2882 -98.2367 80.371 -88.3736 -98.6183 79.5573 
-87.754 -99.41 78.8252 -92.1866 -99.2013 83.8308 -93.074 -99.7568 84.2636 
-91.092 -98.7895 83.2104 -90.0551 -98.6723 82.4068 -89.1684 -98.7917 81.6668 
-88.2527 -99.0467 80.9843 -87.4288 -99.5106 80.1696 -86.8814 -100.268 79.385 
-91.9073 -100.045 84.9463 -92.6482 -100.528 85.1627 -90.9588 -99.6457 84.5666 
-89.9051 -99.4259 83.8312 -88.9577 -99.3912 82.9878 -88.0435 -99.5058 82.3518 
-87.1122 -99.7577 81.6259 -86.4042 -100.232 80.6634 -85.9821 -100.964 79.8336 
-91.6429 -100.726 85.8398 -92.3464 -101.227 85.9457 -90.8334 -100.334 85.7011 
-89.8916 -100.163 85.2325 -88.9125 -100.136 84.4011 -87.9251 -100.134 83.6646 
-86.9135 -100.193 83.0676 -86.0787 -100.445 82.1648 -85.5877 -100.98 81.0888 
-85.3109 -101.724 80.2741 -94.9133 -97.8369 73.949 -95.0556 -97.3613 75.0211 
-95.8517 -98.0656 74.1993 -95.8316 -97.8563 75.57 -96.5619 -98.6364 74.776 
-95.0078 -97.2054 76.6263 -96.3699 -98.6388 76.329 -97.0875 -99.4187 75.4856 
-95.6855 -97.8644 77.4236 -94.9386 -97.1917 78.5514 -96.9167 -99.484 77.1091 
-97.3914 -100.392 76.2275 -96.3048 -98.7152 78.2028 -95.6664 -97.9384 79.3004 
-94.8617 -97.3487 80.2072 -97.4069 -100.572 77.9188 -97.4698 -101.817 77.0766 
-97.0334 -99.6315 78.9231 -96.3828 -98.8813 79.9037 -95.5796 -98.2972 80.7314 
-94.6536 -97.9388 81.4683 -97.6206 -102.147 78.7118 -97.4724 -103.543 77.8619 
-97.5465 -100.925 79.6419 -97.0274 -99.9982 80.5095 -96.2273 -99.3907 81.284 
-95.3692 -99.0222 82.0305 -94.4425 -98.8277 82.6985 -97.5909 -103.844 79.3236 
-97.4681 -105.108 78.4254 -97.606 -102.607 80.2638 -97.3012 -101.52 81.1078 
-96.7333 -100.656 81.9024 -96.054 -100.072 82.7192 -95.2128 -99.7704 83.4222 
-94.1743 -99.6957 83.897 -97.5289 -105.385 79.8461 -97.4712 -106.501 78.9376 
-97.4862 -104.276 80.7913 -97.2652 -103.246 81.6306 -96.949 -102.253 82.4341 
-96.5746 -101.328 83.3022 -95.917 -100.697 84.0659 -94.8678 -100.472 84.548 
-93.6904 -100.489 84.8454 -97.552 -106.884 80.4015 -97.5181 -107.901 79.5091 
-97.4916 -105.848 81.3237 -97.2889 -104.872 82.1377 -97.0271 -103.924 82.8837 
[...]
CELL_DATA 2000
SCALARS Distance double
LOOKUP_TABLE default
157.899 157.062 157.555 157.748 156.341 156.77 157.028 157.513 157.708 
155.861 156.166 156.365 156.799 156.974 157.398 157.346 155.526 155.747 
155.811 156.124 156.145 156.561 156.472 156.832 156.559 155.273 155.42 
155.415 155.585 155.496 155.742 155.646 155.959 155.799 156.038 155.804 
155.096 155.181 155.179 155.266 155.2 155.26 155.185 155.324 155.288 
155.45 155.352 155.467 155.362 154.898 154.977 154.929 155.045 154.98 
155.047 154.917 154.995 154.886 155.04 154.937 155.087 154.954 155.113 
155.048 154.668 154.731 154.613 154.732 154.599 154.731 154.519 154.638 
154.369 154.539 154.299 154.542 154.351 154.612 154.475 154.752 154.689 
154.52 154.527 154.402 154.425 154.261 154.317 154.114 154.185 153.924 
153.99 153.706 153.844 153.649 153.911 153.827 154.13 154.083 154.365 
154.313 157.978 158 157.659 157.087 158.134 157.73 157.041 156.739 
156.285 158.162 157.821 157.089 156.713 156.113 155.987 155.739 158.175 
157.798 157.035 156.666 155.952 155.775 155.413 155.503 155.404 158.5 
157.931 157.119 156.598 155.816 155.538 155.124 155.177 155.112 155.25 
155.225 159.128 158.449 157.667 156.905 156.094 155.525 155.1 154.978 
155.02 155.102 155.208 155.193 155.156 159.794 159.156 158.505 157.695 
156.954 156.113 155.625 155.181 155.224 155.185 155.403 155.343 155.345 
155.172 155.034 160.419 159.826 159.287 158.605 158.025 157.184 156.671 
155.953 155.809 155.524 155.673 155.589 155.599 155.414 155.213 155.005 
154.806 161.048 160.459 159.947 159.369 158.914 158.253 157.823 157.082 
156.773 156.218 156.135 155.874 155.822 155.63 155.417 155.185 154.935 
154.763 154.618 161.232 161.153 160.816 160.121 161.157 160.77 160.078 
159.765 159.138 161.244 160.838 160.173 159.798 159.197 158.849 158.196 
161.302 160.954 160.327 159.951 159.345 158.964 158.319 157.899 157.216 
161.241 160.974 160.365 160.066 159.413 159.067 158.353 157.985 157.285 
156.937 156.41 161.138 160.89 160.292 160.033 159.36 159.039 158.271 
157.931 157.199 156.921 156.361 156.198 155.87 161.094 160.829 160.268 
159.979 159.355 158.994 158.282 157.881 157.205 156.863 156.32 156.096 
155.701 155.638 155.377 161.069 160.822 160.288 159.998 159.415 159.06 
158.441 158.023 157.454 157.037 156.558 156.183 155.763 155.506 155.18 
155.114 154.904 161 160.785 160.233 159.983 159.376 159.098 158.507 
158.204 157.705 157.371 156.942 156.546 156.112 155.705 155.318 155.051 
154.811 154.73 154.616 154.546 154.752 154.601 154.58 155.243 154.916 
154.854 154.669 154.609 156.035 155.553 155.38 155.008 154.852 154.638 
154.451 156.862 156.389 156.139 155.612 155.258 154.87 154.562 154.357 
154.063 157.529 157.116 156.85 156.345 155.866 155.306 154.78 154.424 
154.076 153.921 153.663 158.194 157.716 157.419 156.964 156.536 155.942 
155.321 154.72 154.222 153.934 153.731 153.615 153.472 159.024 158.434 
158.099 157.562 157.225 156.653 156.149 155.412 154.814 154.227 153.926 
153.717 153.667 153.538 153.436 159.933 159.331 159.019 158.376 158.076 
157.461 157.095 156.356 155.786 154.983 154.498 154.028 153.901 153.748 
153.735 153.553 153.442 160.77 160.256 160.017 159.382 159.1 158.436 
158.119 157.393 156.906 156.04 155.46 154.721 154.411 154.061 154.048 
153.876 153.87 153.618 153.542 154.48 154.465 154.42 154.335 154.447 
154.392 154.223 154.211 154.114 154.264 154.289 154.093 154.082 153.922 
153.967 153.911 153.852 153.959 153.738 153.846 153.707 153.794 153.697 
153.77 153.712 153.436 153.483 153.194 153.343 153.199 153.455 153.406 
153.56 153.436 153.516 153.444 153.247 153.163 152.874 152.859 152.697 
152.889 152.906 153.167 153.143 153.258 153.166 153.273 153.339 153.198 
153.074 152.858 152.743 152.649 152.618 152.669 152.764 152.866 152.984 
153.049 153.116 153.219 153.336 153.56 153.172 153.045 152.86 152.797 
152.766 152.734 152.775 152.74 152.802 152.832 152.962 153.061 153.241 
153.333 153.527 153.639 153.858 153.257 153.064 152.871 152.793 152.741 
152.777 152.771 152.802 152.757 152.791 152.824 152.965 153.137 153.315 
153.491 153.612 153.744 153.879 154.051 153.337 153.532 153.205 152.932 
154.071 153.521 153.128 152.866 152.752 154.887 154.186 153.656 153.148 
152.853 152.719 152.703 155.8 155.08 154.548 153.825 153.364 152.9 
152.707 152.643 152.666 156.7 156.007 155.565 154.826 154.387 153.648 
153.327 152.849 152.798 152.678 152.802 157.668 156.939 156.496 155.815 
155.434 154.745 154.423 153.744 153.575 153.105 153.172 152.989 153.183 
158.683 157.961 157.504 156.767 156.357 155.705 155.399 154.806 154.583 
154.03 153.912 153.524 153.566 153.409 153.539 159.548 158.949 158.574 
157.85 157.461 156.704 156.385 155.732 155.517 154.96 154.77 154.276 
154.127 153.806 153.792 153.682 153.766 160.261 159.754 159.463 158.882 
158.575 157.877 157.564 156.828 156.576 155.918 155.72 155.129 154.931 
154.424 154.311 154 154.055 153.931 154.081 153.7 154.457 154.002 
153.966 155.443 154.908 154.947 154.461 154.577 156.58 156.01 156.097 
155.57 155.74 155.233 155.428 157.762 157.203 157.337 156.801 157.001 
156.467 156.659 156.127 156.306 159.056 158.46 158.665 158.101 158.327 
157.763 157.953 157.383 157.547 157.003 157.19 160.502 159.871 160.116 
159.506 159.736 159.121 159.303 158.699 158.884 158.303 158.522 157.954 
158.193 161.87 161.318 161.536 160.965 161.164 160.545 160.703 160.076 
160.27 159.683 159.925 159.346 159.571 158.986 159.183 163.077 162.594 
162.804 162.298 162.486 161.923 162.079 161.478 161.664 161.082 161.298 
160.728 160.892 160.314 160.413 159.867 159.966 164.279 163.793 164.044 
163.537 163.757 163.211 163.394 162.825 163.004 162.443 162.606 162.043 
162.132 161.552 161.575 161.015 161.051 160.548 160.638 161.141 161.551 
161.066 160.456 161.981 161.473 160.82 160.288 159.567 162.315 161.825 
161.085 160.587 159.797 159.308 158.524 162.558 162.058 161.22 160.736 
159.868 159.427 158.543 158.129 157.237 162.854 162.301 161.43 160.85 
159.948 159.451 158.556 158.09 157.135 156.696 155.785 163.182 162.649 
161.828 161.163 160.264 159.629 158.8 158.224 157.371 156.748 155.885 
155.362 154.725 163.437 162.971 162.232 161.623 160.747 160.054 159.231 
158.612 157.887 157.221 156.471 155.758 155.142 154.633 154.306 163.727 
163.238 162.575 162.035 161.252 160.575 159.74 159.09 158.384 157.8 
157.15 156.486 155.856 155.226 154.776 154.366 154.103 164.176 163.615 
163.001 162.449 161.801 161.145 160.398 159.67 158.959 158.323 157.723 
157.133 156.549 155.936 155.4 154.871 154.464 154.106 153.797 161.576 
162.293 161.956 162.006 163.032 162.696 162.807 162.453 162.506 163.863 
163.492 163.657 163.307 163.446 162.999 162.964 164.841 164.397 164.589 
164.22 164.413 163.989 164.027 163.449 163.3 165.93 165.414 165.529 
165.147 165.338 164.973 165.07 164.549 164.461 163.79 163.601 167.026 
166.478 166.438 166.004 166.105 165.821 165.999 165.614 165.639 165.008 
164.85 164.114 163.9 168.068 167.532 167.42 166.874 166.832 166.496 
166.685 166.472 166.682 166.235 166.198 165.445 165.216 164.406 164.154 
169.014 168.547 168.476 167.884 167.753 167.246 167.299 167.073 167.339 
167.16 167.314 166.8 166.66 165.829 165.558 164.692 164.463 169.828 
169.451 169.433 168.925 168.794 168.214 168.124 167.716 167.848 167.697 
167.922 167.718 167.738 167.195 166.984 166.177 165.926 165.077 164.903 
170.263 170.794 170.325 169.872 171.248 170.811 170.309 169.838 169.269 
171.431 171.151 170.646 170.241 169.681 169.18 168.615 171.278 171.159 
170.732 170.5 170.049 169.636 169.151 168.632 168.273 171.099 170.953 
170.564 170.463 170.162 169.981 169.644 169.226 168.871 168.437 168.237 
171.04 170.855 170.404 170.26 169.963 169.967 169.744 169.602 169.238 
168.924 168.577 168.324 168.029 170.808 170.765 170.311 170.136 169.76 
169.731 169.516 169.524 169.181 169.037 168.581 168.434 168.03 167.878 
167.375 170.357 170.44 170.104 170.018 169.675 169.592 169.383 169.335 
169.059 168.896 168.456 168.285 167.869 167.761 167.312 167.078 166.435 
169.989 170.049 169.84 169.812 169.562 169.51 169.333 169.289 169.087 
168.905 168.535 168.248 167.845 167.636 167.253 167.036 166.5 166.133 
165.45 169.824 169.563 169.699 169.655 169.129 169.374 169.313 169.457 
169.392 168.312 168.778 168.718 169.007 168.943 169.183 169.176 167.097 
167.748 167.685 168.189 168.11 168.574 168.602 168.964 168.92 165.805 
166.432 166.369 166.971 166.88 167.514 167.564 168.188 168.212 168.583 
168.38 164.702 165.2 165.103 165.645 165.559 166.192 166.25 166.988 
167.107 167.707 167.624 167.926 167.678 163.612 164.103 163.944 164.445 
164.357 164.929 164.973 165.662 165.784 166.491 166.499 167.032 166.857 
167.201 166.984 162.386 162.923 162.763 163.293 163.223 163.785 163.817 
164.434 164.483 165.145 165.114 165.762 165.603 166.166 165.919 166.393 
166.126 161.227 161.713 161.626 162.139 162.124 162.677 162.709 163.286 
163.272 163.853 163.748 164.347 164.171 164.78 164.548 165.124 164.839 
165.367 165.057 169.825 169.655 169.692 169.554 169.233 169.375 169.167 
169.309 169.072 168.642 168.805 168.52 168.74 168.452 168.643 168.234 
168.117 168.216 167.937 168.078 167.752 167.906 167.454 167.592 167.019 
167.535 167.684 167.388 167.541 167.192 167.261 166.733 166.771 166.182 
166.292 165.742 166.665 166.937 166.528 166.829 166.401 166.611 166.016 
166.068 165.423 165.498 165.008 165.142 164.707 165.663 165.951 165.499 
165.804 165.306 165.602 165 165.204 164.564 164.73 164.234 164.438 
164.041 164.176 163.68 164.74 164.988 164.581 164.804 164.316 164.512 
163.949 164.139 163.574 163.794 163.308 163.583 163.151 163.406 162.896 
163.034 162.429 163.887 164.115 163.708 163.926 163.451 163.618 163.092 
163.226 162.716 162.873 162.405 162.62 162.159 162.416 161.914 162.138 
161.584 161.737 161.207 169.946 170.133 169.976 169.818 170.405 170.195 
170.042 169.822 169.518 170.681 170.465 170.249 170.036 169.722 169.423 
168.976 170.716 170.619 170.281 170.127 169.737 169.545 169.123 168.852 
168.419 170.385 170.45 170.084 170.013 169.545 169.423 169.022 168.914 
168.557 168.333 167.881 169.868 169.991 169.699 169.728 169.288 169.176 
168.729 168.696 168.39 168.359 167.946 167.693 167.074 169.369 169.457 
169.167 169.286 168.923 168.896 168.402 168.347 167.943 168.019 167.637 
167.594 166.988 166.721 166.024 168.904 168.955 168.583 168.706 168.361 
168.458 168.01 167.981 167.487 167.504 167.087 167.143 166.634 166.521 
165.87 165.64 165.03 168.431 168.474 168.055 168.113 167.737 167.862 
167.503 167.554 167.11 167.072 166.622 166.619 166.186 166.144 165.621 
165.46 164.895 164.695 164.177 168.025 167.203 167.637 167.624 166.186 
166.731 166.76 167.217 167.273 165.075 165.671 165.794 166.338 166.464 
166.942 167.047 164.025 164.601 164.756 165.352 165.52 166.088 166.202 
166.684 166.696 162.931 163.557 163.663 164.287 164.393 165.03 165.111 
165.715 165.73 166.23 166.194 161.657 162.352 162.442 163.128 163.201 
163.842 163.874 164.507 164.538 165.158 165.179 165.716 165.711 160.444 
161.056 161.172 161.863 162.014 162.665 162.743 163.311 163.341 163.936 
164.001 164.625 164.663 165.211 165.163 159.492 159.974 160.09 160.676 
160.872 161.519 161.681 162.254 162.298 162.817 162.845 163.435 163.49 
164.094 164.075 164.596 164.489 158.714 159.143 159.266 159.731 159.889 
160.445 160.609 161.199 161.283 161.809 161.813 162.33 162.346 162.916 
162.92 163.475 163.403 163.896 163.784 158.377 158.215 158.499 158.959 
158.079 158.35 158.721 159.046 159.511 157.647 158.069 158.355 158.735 
159.125 159.576 160.119 156.837 157.412 157.723 158.244 158.635 159.136 
159.66 160.192 160.766 156.02 156.532 156.89 157.506 157.987 158.595 
159.158 159.722 160.296 160.809 161.329 155.551 155.872 156.209 156.715 
157.208 157.863 158.449 159.135 159.715 160.312 160.833 161.337 161.837 
155.313 155.567 155.907 156.228 156.652 157.127 157.641 158.308 158.884 
159.606 160.147 160.777 161.279 161.835 162.348 155.003 155.331 155.704 
156.026 156.434 156.74 157.179 157.607 158.154 158.765 159.352 160.013 
160.548 161.184 161.699 162.307 162.807 154.569 154.936 155.288 155.728 
156.156 156.54 156.983 157.317 157.838 158.249 158.841 159.335 159.888 
160.441 160.968 161.59 162.125 162.734 163.218 163.281 162.157 162.83 
163.029 160.972 161.627 161.806 162.536 162.74 159.954 160.511 160.67 
161.309 161.536 162.236 162.421 159.022 159.581 159.755 160.286 160.472 
161.082 161.3 161.938 162.099 158.023 158.614 158.76 159.342 159.423 
160.022 160.139 160.807 160.96 161.613 161.762 157.037 157.557 157.575 
158.188 158.172 158.825 158.84 159.556 159.66 160.396 160.535 161.247 
161.429 156.067 156.506 156.377 156.928 156.866 157.497 157.533 158.223 
158.377 159.099 159.3 160.001 160.196 160.913 161.14 155.12 155.472 
155.264 155.731 155.667 156.251 156.347 156.997 157.213 157.903 158.186 
158.861 159.117 159.752 159.973 160.644 160.863 154.402 154.601 154.404 
154.716 154.678 155.163 155.303 155.903 156.122 156.783 157.039 157.752 
158.026 158.715 158.952 159.575 159.779 160.396 160.588 161.698 161.049 
161.738 162.488 160.417 161.078 161.805 162.526 163.274 159.801 160.452 
161.164 161.856 162.621 163.318 164.08 159.208 159.831 160.567 161.249 
162.045 162.725 163.538 164.197 165.027 158.836 159.302 160.025 160.668 
161.518 162.212 163.074 163.72 164.559 165.207 166.007 158.782 159.081 
159.732 160.212 161.054 161.718 162.617 163.279 164.11 164.743 165.502 
166.117 166.734 158.77 159.077 159.672 160.029 160.785 161.331 162.199 
162.823 163.619 164.245 164.976 165.6 166.24 166.759 167.232 158.626 
158.991 159.562 159.936 160.596 161.088 161.875 162.44 163.175 163.731 
164.389 165.009 165.661 166.269 166.821 167.265 167.68 158.522 158.829 
159.371 159.739 160.331 160.814 161.529 162.097 162.805 163.319 163.913 
164.428 165.014 165.628 166.203 166.789 167.244 167.691 168.037 162.293 
163.118 162.963 163.441 163.903 163.786 164.274 164.085 164.494 164.698 
164.566 165.07 164.895 165.334 165.121 165.549 165.681 165.469 166.023 
165.756 166.225 165.977 166.47 166.254 166.734 166.701 166.556 167.231 
166.911 167.418 167 167.465 167.184 167.703 167.47 167.862 167.338 
167.416 168.157 168.117 168.717 168.339 168.705 168.25 168.648 168.383 
168.8 168.514 168.739 167.67 167.801 168.429 168.706 169.363 169.413 
169.768 169.438 169.631 169.296 169.615 169.384 169.669 169.31 169.411 
168.05 168.073 168.556 168.781 169.387 169.692 170.141 170.168 170.336 
170.13 170.321 170.141 170.43 170.188 170.344 169.925 169.927 168.437 
168.461 168.892 168.964 169.488 169.687 170.2 170.35 170.674 170.634 
170.869 170.763 171.062 170.909 171.124 170.802 170.816 170.361 170.277 
161.995 163.131 162.356 161.93 164.194 163.475 163.082 162.311 161.921 
165.245 164.518 164.157 163.439 163.072 162.324 161.965 166.393 165.61 
165.205 164.48 164.118 163.428 163.058 162.342 161.97 167.465 166.731 
166.248 165.505 165.066 164.405 164.031 163.374 162.973 162.284 161.883 
168.293 167.671 167.162 166.473 165.957 165.294 164.853 164.251 163.854 
163.233 162.811 162.15 161.755 168.944 168.399 167.922 167.308 166.805 
166.144 165.628 165 164.534 163.99 163.569 163.011 162.592 161.998 
161.645 169.468 168.999 168.555 168.024 167.558 166.954 166.421 165.757 
165.193 164.599 164.119 163.634 163.222 162.738 162.359 161.861 161.556 
169.833 169.458 169.016 168.582 168.1 167.607 167.069 166.487 165.896 
165.267 164.727 164.174 163.753 163.286 162.936 162.493 162.185 161.747 
161.474 170.074 170.485 170.262 170.291 171.027 170.786 170.785 170.513 
170.566 171.34 171.283 171.31 171.052 171.038 170.824 170.879 171.425 
171.481 171.58 171.466 171.453 171.282 171.277 171.088 170.987 171.645 
171.646 171.839 171.717 171.785 171.635 171.648 171.46 171.305 171.021 
170.686 171.862 171.957 172.233 172.114 172.222 172.016 172.042 171.824 
171.68 171.349 170.977 170.598 170.175 171.673 172.007 172.29 172.421 
172.473 172.394 172.276 172.131 171.908 171.674 171.292 170.925 170.472 
170.101 169.705 171.152 171.594 171.823 172.185 172.179 172.335 172.073 
172.093 171.728 171.689 171.266 171.103 170.62 170.355 169.904 169.625 
169.238 170.556 170.976 171.152 171.557 171.544 171.804 171.537 171.649 
171.28 171.339 170.968 170.935 170.491 170.339 169.85 169.679 169.245 
169.083 168.705 
POINT_DATA 1002
SCALARS Distance double
LOOKUP_TABLE default
158.024 158.271 157.407 157.238 156.546 157.987 156.53 155.953 157.319 
157.823 156.019 155.617 156.553 157.056 157.163 155.612 155.355 155.808 
156.082 156.284 156.235 155.298 155.173 155.342 155.345 155.518 155.601 
155.583 155.079 155.043 155.165 155.1 155.117 155.237 155.223 155.286 
154.815 154.843 154.898 154.884 154.775 154.772 154.809 154.837 155.027 
154.542 154.624 154.488 154.418 154.262 154.077 154.053 154.197 154.398 
154.646 154.421 154.52 154.25 154.049 153.88 153.637 153.409 153.49 
153.799 154.056 154.24 158.261 157.314 158.429 157.452 158.527 156.362 
157.49 158.472 156.331 155.652 157.437 158.619 156.182 155.348 155.246 
157.743 159.142 156.182 155.09 154.942 155.154 158.465 159.778 156.795 
155.309 154.909 155.217 155.259 159.225 160.38 157.828 156.24 155.332 
155.437 155.561 155.221 159.876 161.004 158.763 157.484 156.292 155.81 
155.777 155.466 154.957 160.5 161.643 159.469 158.513 157.475 156.557 
156.042 155.652 155.138 154.713 161.555 160.396 161.511 160.408 161.554 
159.434 160.556 161.624 159.559 158.603 160.685 161.601 159.744 158.736 
157.623 160.641 161.484 159.773 158.726 157.602 156.636 160.549 161.386 
159.69 158.622 157.471 156.53 155.921 160.557 161.343 159.703 158.677 
157.554 156.595 155.842 155.345 160.573 161.297 159.741 158.807 157.844 
156.968 156.118 155.336 154.865 160.49 161.217 159.641 158.753 157.968 
157.307 156.557 155.668 154.957 154.618 154.504 154.687 154.555 155.11 
154.772 154.505 155.888 155.149 154.642 154.21 156.73 155.806 154.827 
154.225 153.761 157.319 156.508 155.292 154.227 153.783 153.451 157.871 
157.075 156.031 154.647 153.799 153.617 153.354 158.686 157.747 156.86 
155.563 154.241 153.743 153.646 153.313 159.675 158.703 157.782 156.651 
155.153 154.106 153.86 153.705 153.311 160.608 159.773 158.828 157.753 
156.322 154.909 154.221 154.069 153.842 153.475 154.34 154.287 154.047 
154.081 153.916 153.809 153.59 153.547 153.664 153.625 153.102 152.896 
153.161 153.399 153.291 152.941 152.584 152.617 152.947 153.089 153.125 
152.931 152.708 152.66 152.735 152.924 153.141 153.397 152.895 152.758 
152.839 152.831 152.845 153.123 153.465 153.724 152.99 152.731 152.739 
152.742 152.702 152.932 153.362 153.651 153.861 153.551 153.079 153.972 
153.518 154.728 152.791 154.317 155.62 153.139 152.634 155.309 156.476 
154.025 152.932 152.559 156.24 157.388 155.151 153.992 153.061 152.778 
157.192 158.426 156.06 155.096 154.185 153.483 153.261 158.27 159.358 
157.054 155.962 155.142 154.426 153.833 153.61 159.224 160.066 158.23 
157.102 156.096 155.317 154.573 153.98 153.791 159.974 160.745 159.195 
158.304 157.292 156.345 155.502 154.724 154.235 154.144 154.078 154.38 
154.917 155.43 155.987 155.035 156.617 157.14 156.25 155.94 157.858 
158.293 157.541 157.217 156.825 159.232 159.648 158.909 158.536 158.109 
157.709 160.739 161.125 160.382 159.922 159.454 159.093 158.767 162.095 
162.396 161.781 161.334 160.855 160.503 160.18 159.769 163.296 163.543 
163.026 162.658 162.249 161.891 161.503 160.997 160.477 164.545 164.753 
164.294 163.955 163.573 163.194 162.739 162.158 161.573 161.105 161.602 
160.992 162.063 161.368 162.517 160.104 161.597 162.837 160.296 158.998 
161.747 163.096 160.323 158.994 157.643 162.065 163.406 160.485 159.041 
157.639 156.13 162.482 163.664 160.945 159.367 157.998 156.48 155.049 
162.774 163.878 161.448 159.857 158.478 157.189 155.748 154.633 163.068 
164.238 161.888 160.428 158.942 157.739 156.525 155.299 154.401 161.913 
162.357 162.612 163.125 163.364 162.942 163.992 164.239 163.858 163.543 
164.964 165.323 164.815 164.571 163.972 165.96 166.511 165.667 165.538 
165.107 164.308 166.967 167.605 166.391 166.264 166.202 165.614 164.635 
168.03 168.572 167.27 166.84 166.957 166.893 166.092 164.926 169.044 
169.429 168.359 167.635 167.428 167.636 167.418 166.475 165.277 169.882 