# vtk DataFile Version 4.0
vtk output
ASCII
DATASET POLYDATA
POINTS 1002 float
-77.504 -113.745 75.1223 -76.9462 -114.544 74.934 -77.3427 -114.278 73.9156 
-77.9414 -113.364 74.1564 -77.8894 -114.031 72.8819 -78.124 -112.641 75.386 
-78.4398 -112.882 73.2768 -78.329 -113.578 71.9713 -78.6095 -112.14 74.5723 
-78.8693 -111.324 75.7886 -78.9547 -112.26 72.5168 -78.828 -112.934 71.1887 
-79.2463 -111.624 73.9156 -79.5455 -110.889 75.1448 -79.7839 -110.113 76.2749 
-79.72 -111.74 71.8606 -79.6501 -112.388 70.6042 -80.0486 -111.18 73.2903 
-80.3893 -110.485 74.5906 -80.5589 -109.646 75.6889 -80.6761 -108.857 76.7923 
-80.7264 -111.361 71.415 -80.6368 -111.949 70.265 -80.9973 -110.809 72.7137 
-81.2544 -110.014 73.9578 -81.3136 -109.008 75.0796 -81.3276 -108.084 76.199 
-81.3869 -107.276 77.3018 -81.7366 -110.811 71.1316 -81.625 -111.387 70.0543 
-81.9248 -110.214 72.3016 -82.0651 -109.343 73.3849 -82.0207 -108.209 74.4194 
-81.9707 -107.241 75.5506 -82.0123 -106.482 76.7106 -81.9648 -105.726 77.7026 
-82.7608 -110.111 70.9116 -82.6792 -110.758 69.9596 -82.8276 -109.398 71.955 
-82.8543 -108.505 72.92 -82.7917 -107.421 73.8466 -82.7374 -106.5 74.8918 
-82.7904 -105.876 76.0273 -82.7632 -105.243 77.0862 -82.5553 -104.542 77.9723 
-83.8496 -109.515 70.8325 -83.772 -110.217 70.0422 -83.8324 -108.731 71.6896 
-83.7392 -107.816 72.4925 -83.644 -106.797 73.2974 -83.6052 -105.9 74.2546 
-83.65 -105.291 75.3122 -83.6492 -104.759 76.3438 -83.481 -104.133 77.3036 
-83.2498 -103.554 78.1761 -84.9077 -108.985 70.8818 -84.7968 -109.716 70.2191 
-84.8963 -108.232 71.5866 -84.7516 -107.362 72.2261 -84.5766 -106.349 72.8351 
-84.4707 -105.375 73.6231 -84.4569 -104.643 74.6168 -84.4408 -104.079 75.6223 
-84.3094 -103.513 76.5606 -84.1076 -102.981 77.4641 -83.9586 -102.605 78.3354 
-76.6319 -115.13 74.0338 -77.12 -114.926 72.8528 -76.49 -115.953 72.8254 
-76.88 -115.634 71.5324 -76.5193 -116.982 71.4326 -77.6686 -114.743 71.743 
-76.5847 -116.333 70.0365 -76.5084 -118.026 70.1393 -77.2574 -115.31 70.3789 
-78.1271 -114.331 70.7933 -76.3359 -117.209 68.5482 -76.4084 -119.066 69.0515 
-76.7883 -115.784 68.7528 -77.8342 -114.908 69.4152 -78.8097 -113.729 70.0166 
-76.462 -118.475 67.4 -76.6434 -120.052 68.2498 -76.6929 -116.68 67.2481 
-77.6482 -115.421 67.8885 -78.8386 -114.432 68.7786 -79.7675 -113.164 69.522 
-77.2237 -119.624 67.0324 -77.5022 -120.685 68.026 -77.2737 -118.011 66.5883 
-77.9469 -116.278 66.8721 -79.0178 -115.009 67.645 -79.9574 -113.858 68.4949 
-80.7463 -112.579 69.2576 -78.4262 -120.137 67.4325 -78.7035 -120.943 68.3654 
-78.3638 -118.984 66.8701 -78.7971 -117.313 66.7932 -79.6211 -115.685 67.0417 
-80.4028 -114.392 67.5888 -81.0339 -113.142 68.3251 -81.7763 -111.895 69.1165 
-79.6807 -120.296 68.036 -79.8962 -121.136 68.8263 -79.5831 -119.377 67.4038 
-79.8769 -118.064 67.0907 -80.5567 -116.469 66.8945 -81.2373 -114.996 66.9111 
-81.6979 -113.677 67.4284 -82.1801 -112.422 68.2729 -82.9117 -111.273 69.1733 
-80.8181 -120.487 68.4478 -80.9796 -121.385 69.1205 -80.7376 -119.61 67.726 
-80.9483 -118.566 67.1965 -81.508 -117.224 66.7824 -82.1474 -115.747 66.4597 
-82.5787 -114.328 66.6491 -82.8778 -113.03 67.4622 -83.3321 -111.87 68.4838 
-84.0272 -110.786 69.4205 -81.9421 -121.012 68.9404 -81.8781 -120.092 68.1447 
-83.0231 -120.536 68.7178 -83.1882 -119.676 67.7731 -84.2829 -120.042 68.5326 
-82.0212 -119.176 67.3234 -84.6414 -119.251 67.5816 -85.5633 -119.555 68.4551 
-83.5529 -118.779 66.9131 -82.4471 -118.055 66.698 -85.8967 -118.67 67.7247 
-86.6567 -118.861 68.633 -85.0112 -118.239 66.8884 -83.9473 -117.496 66.3394 
-82.9871 -116.598 66.2262 -86.8836 -117.729 68.2787 -87.6882 -117.848 69.1381 
-86.1366 -117.353 67.3681 -85.2012 -116.618 66.5807 -84.2246 -115.756 66.1325 
-83.411 -114.99 66.1742 -87.8842 -116.478 69.1008 -88.8559 -116.661 69.7142 
-87.0677 -116.178 68.2865 -86.2868 -115.536 67.4163 -85.3615 -114.707 66.7957 
-84.4947 -114.057 66.6175 -83.7068 -113.532 66.8976 -89.0986 -115.111 69.7667 
-90.1014 -115.392 70.1263 -88.1071 -114.884 69.2695 -87.3456 -114.479 68.5621 
-86.5913 -113.782 67.9034 -85.7169 -113.167 67.6065 -84.8616 -112.747 67.708 
-84.0592 -112.308 68.0535 -90.5044 -113.81 70.0828 -91.295 -114.139 70.4139 
-89.5033 -113.583 69.8222 -88.5981 -113.339 69.4734 -87.858 -112.844 68.9923 
-87.0749 -112.279 68.6422 -86.2008 -111.899 68.6251 -85.3569 -111.551 68.8391 
-84.6251 -111.139 69.1218 -91.8978 -112.735 70.2049 -92.3693 -113.078 70.6463 
-91.1511 -112.424 69.9319 -90.2301 -112.092 69.8106 -89.3169 -111.608 69.6381 
-88.4596 -111.066 69.406 -87.6115 -110.701 69.3402 -86.7734 -110.451 69.4855 
-86.0038 -110.158 69.7133 -85.3498 -109.888 69.958 -85.9013 -108.577 70.7364 
-86.5838 -108.553 70.4515 -87.0657 -107.139 71.1076 -87.3515 -108.674 70.2025 
-87.9021 -106.932 70.7894 -88.1658 -105.641 71.2968 -88.179 -108.871 69.969 
-88.7725 -106.979 70.5247 -89.0606 -105.414 70.943 -89.0042 -104.281 71.2887 
-89.0668 -109.085 69.7786 -89.6579 -107.145 70.1764 -89.9652 -105.443 70.5527 
-89.8537 -104.012 70.8403 -89.6233 -102.917 71.1297 -90.0865 -109.515 69.7482 
-90.6842 -107.371 69.8263 -90.965 -105.557 69.9847 -90.8426 -103.861 70.2577 
-90.5501 -102.438 70.6105 -90.3604 -101.524 71.116 -91.1935 -110.228 69.7836 
-91.8927 -107.945 69.7155 -92.1518 -105.83 69.6353 -92.0701 -103.919 69.706 
-91.7916 -102.142 70.0485 -91.5123 -101 70.6486 -91.292 -100.393 71.4767 
-92.1767 -110.966 69.7885 -92.9988 -108.942 69.7219 -93.3271 -106.59 69.7151 
-93.3487 -104.385 69.7041 -93.2299 -102.381 69.8353 -92.9369 -100.884 70.2799 
-92.5542 -100.106 71.0686 -92.1934 -99.5713 72.0344 -92.8545 -111.544 69.9844 
-93.7255 -109.997 69.8167 -94.1971 -107.819 69.8659 -94.3689 -105.389 70.0188 
-94.4507 -103.184 70.1326 -94.3242 -101.419 70.3294 -93.9171 -100.276 70.8405 
-93.4192 -99.5574 71.6947 -92.9985 -98.9047 72.6163 -93.223 -111.978 70.4703 
-94.0809 -110.782 70.2061 -94.7033 -109.057 70.0863 -95.0587 -106.762 70.2181 
-95.268 -104.415 70.4517 -95.2937 -102.433 70.6663 -95.0576 -100.957 70.9859 
-94.6305 -99.9288 71.6076 -94.1541 -99.1214 72.4681 -93.7332 -98.4271 73.2887 
-85.9836 -107.785 71.3788 -87.0683 -106.336 71.7062 -85.8945 -106.992 72.0124 
-88.04 -104.803 71.8151 -86.8967 -105.451 72.2953 -85.6746 -105.99 72.5452 
-88.7753 -103.333 71.6992 -87.7726 -103.751 72.3549 -86.5953 -104.277 72.8053 
-85.4361 -104.846 73.1275 -89.434 -101.916 71.6103 -88.4678 -102.179 72.2563 
-87.4018 -102.564 72.9336 -86.2871 -103.184 73.473 -85.2865 -103.912 74.0129 
-90.2484 -100.625 71.9324 -89.1637 -100.777 72.4195 -88.1219 -101.129 73.0704 
-87.1289 -101.802 73.8242 -86.1196 -102.518 74.5147 -85.2073 -103.257 75.0928 
-91.1477 -99.5642 72.5327 -89.9723 -99.5318 72.9676 -88.8477 -99.7654 73.4636 
-87.9554 -100.542 74.192 -87.038 -101.406 75.0152 -85.9804 -102.004 75.6433 
-85.0553 -102.673 76.0942 -92.0266 -98.7096 73.0557 -90.8507 -98.5664 73.4837 
-89.593 -98.5934 73.9494 -88.6418 -99.1493 74.5962 -87.8804 -100.141 75.4065 
-86.8432 -100.934 76.1099 -85.7035 -101.463 76.5804 -84.8244 -102.149 76.9975 
-92.8753 -98.0936 73.5679 -91.7826 -97.9214 73.8921 -90.418 -97.8878 74.3632 
-89.2127 -98.1078 75.0412 -88.4448 -98.7984 75.8246 -87.6117 -99.7392 76.5153 
-86.444 -100.469 77.0163 -85.3905 -101.061 77.4383 -84.6448 -101.804 77.8965 
-93.8853 -97.9364 74.2785 -92.9954 -97.6043 74.4896 -93.8859 -97.7582 75.537 
-92.957 -97.408 75.9443 -93.7153 -97.8045 77.1772 -91.6799 -97.5108 74.8995 
-92.7428 -97.3239 77.9496 -93.4834 -97.9319 78.9141 -91.4156 -97.3059 76.678 
-90.0805 -97.58 75.6369 -92.4529 -97.484 79.7443 -93.171 -98.2977 80.3435 
-91.1393 -97.2496 78.7661 -89.7569 -97.4755 77.5432 -88.9151 -97.9012 76.4986 
-92.0904 -98.1565 81.0138 -92.7668 -98.886 81.6675 -90.9672 -97.7346 80.2084 
-89.6693 -97.7487 79.2394 -88.7281 -98.0187 78.173 -88.1465 -98.6646 77.1846 
-91.6729 -98.906 82.386 -92.4372 -99.4194 83.1118 -90.7133 -98.615 81.4064 
-89.6335 -98.4939 80.426 -88.6306 -98.527 79.5732 -87.772 -98.8519 78.6063 
-87.0554 -99.5753 77.6631 -91.2733 -99.4287 83.8287 -92.1253 -100.001 84.3075 
-90.3065 -99.2131 82.9879 -89.3242 -99.1407 81.9241 -88.3218 -99.0647 81.0209 
-87.2954 -99.1693 80.1264 -86.4348 -99.6233 79.0391 -85.8367 -100.305 78.0886 
-90.8467 -100.1 84.8245 -91.6438 -100.824 85.0854 -89.8916 -99.7044 84.3352 
-88.9059 -99.5509 83.5417 -87.8767 -99.4315 82.6708 -86.7838 -99.4312 81.7865 
-85.8945 -99.7592 80.6674 -85.3694 -100.357 79.4817 -85.0003 -101.046 78.5602 
-90.3892 -101.017 85.5145 -91.0838 -101.712 85.7303 -89.5209 -100.515 85.1482 
-88.5887 -100.212 84.5723 -87.607 -99.996 83.8765 -86.526 -99.903 83.1325 
-85.5873 -100.104 82.1757 -85.0589 -100.611 80.994 -84.7368 -101.247 79.8843 
-84.3518 -101.901 79.0145 -94.6611 -98.6192 73.7033 -94.6655 -98.3267 74.9529 
-95.5229 -99.1065 74.3235 -95.3179 -98.9929 75.7106 -96.0816 -99.874 75.0634 
-94.4035 -98.3728 76.3882 -95.8225 -99.8394 76.5094 -96.1317 -101.131 75.9021 
-94.9234 -99.1238 77.2247 -94.1143 -98.5843 77.9867 -96.0013 -101.18 77.4428 
-95.8924 -102.988 76.7828 -95.6779 -99.9184 78.2096 -94.7862 -99.3545 78.8628 
-93.9361 -98.8588 79.5347 -95.9026 -103.068 78.3591 -95.9489 -104.839 77.5623 
-96.1548 -101.237 79.3038 -95.7935 -100.148 80.0138 -94.6841 -99.7094 80.4258 
-93.6317 -99.2725 80.9638 -96.0241 -104.808 79.0769 -96.4115 -106.14 78.2407 
-96.0837 -103.093 80.0928 -96.1863 -101.538 80.9683 -95.4555 -100.671 81.4672 
-94.2481 -100.199 81.8714 -93.2937 -99.747 82.4689 -96.427 -106.12 79.704 
-96.7609 -107.213 78.9012 -96.1042 -104.859 80.6204 -95.9301 -103.46 81.4437 
-95.5222 -102.228 82.0595 -94.7121 -101.363 82.6382 -93.8786 -100.768 83.2754 
-93.0874 -100.308 83.8575 -96.6217 -107.389 80.2769 -96.7179 -108.468 79.5082 
-96.359 -106.345 81.1367 -95.9104 -105.301 81.8889 -95.3276 -104.163 82.4188 
-94.7432 -102.986 83.0007 -94.218 -102.066 83.7636 -93.5857 -101.504 84.4102 
-92.6968 -101.11 84.808 -96.4558 -108.747 80.6966 -96.4675 -109.786 79.9847 
-96.3852 -107.708 81.5312 -96.078 -106.778 82.3596 -95.4521 -105.877 82.9391 
[...]
CELL_DATA 2000
SCALARS Distance double
LOOKUP_TABLE default
155.789 155.323 155.543 155.51 154.842 155.066 154.996 155.22 155.147 
154.289 154.535 154.522 154.759 154.765 154.93 154.922 153.919 154.064 
154.176 154.389 154.537 154.677 154.717 154.797 154.781 153.864 153.9 
154.078 154.209 154.392 154.506 154.497 154.568 154.428 154.561 154.418 
153.884 153.928 154.051 154.165 154.227 154.323 154.16 154.219 153.954 
154.091 153.895 154.089 153.908 153.892 153.916 153.947 154.037 153.968 
154.043 153.786 153.807 153.506 153.593 153.453 153.617 153.553 153.65 
153.516 154.036 153.961 153.953 153.915 153.796 153.759 153.509 153.461 
153.206 153.229 153.131 153.267 153.271 153.392 153.333 153.359 153.248 
154.284 154.158 154.131 154 153.876 153.71 153.471 153.308 153.057 
153.003 152.869 152.973 152.933 153.095 153.018 153.134 153.004 153.092 
153.01 155.81 155.705 155.604 155.363 155.672 155.481 155.211 155.193 
154.928 155.681 155.357 154.905 154.95 154.723 154.72 154.388 155.788 
155.278 154.558 154.509 154.27 154.439 154.256 154.208 153.964 156.216 
155.492 154.676 154.252 153.925 153.992 154.004 154.099 154.014 153.928 
153.847 157.018 156.199 155.548 154.749 154.366 153.967 153.997 153.968 
154.063 154.015 153.962 153.88 153.853 157.98 157.214 156.761 155.914 
155.558 154.81 154.687 154.273 154.328 154.147 154.135 153.998 153.93 
153.867 153.874 158.935 158.241 157.856 157.142 156.814 156.078 155.822 
155.18 155.039 154.6 154.521 154.237 154.168 153.998 154.003 153.943 
154.036 159.828 159.183 158.785 158.151 157.812 157.19 156.891 156.26 
155.987 155.408 155.198 154.75 154.638 154.34 154.346 154.179 154.287 
154.203 154.33 160.156 160.269 159.845 159.119 160.44 159.984 159.278 
158.836 158.164 160.722 160.242 159.575 159.066 158.385 157.923 157.274 
160.962 160.554 159.914 159.415 158.687 158.166 157.432 157.002 156.346 
161.044 160.725 160.087 159.683 158.897 158.4 157.546 157.099 156.366 
156.043 155.474 161.056 160.753 160.117 159.769 159.008 158.539 157.676 
157.18 156.435 156.067 155.541 155.27 154.883 161.04 160.746 160.121 
159.794 159.139 158.701 157.984 157.427 156.78 156.284 155.851 155.476 
155.181 154.859 154.621 160.993 160.721 160.139 159.832 159.277 158.911 
158.34 157.851 157.289 156.774 156.358 155.931 155.658 155.284 155.064 
154.723 154.555 160.98 160.717 160.219 159.913 159.419 159.09 158.564 
158.181 157.61 157.207 156.707 156.372 156.008 155.721 155.434 155.15 
154.921 154.667 154.525 154.545 154.871 154.636 154.487 155.327 154.993 
154.759 154.488 154.244 155.862 155.468 155.193 154.817 154.505 154.203 
153.887 156.496 156.015 155.701 155.272 154.916 154.524 154.108 153.773 
153.349 157.358 156.745 156.374 155.811 155.401 154.933 154.433 153.999 
153.448 153.133 152.721 158.37 157.735 157.391 156.644 156.186 155.504 
154.979 154.374 153.783 153.291 152.849 152.594 152.424 159.308 158.785 
158.574 157.816 157.391 156.508 155.991 155.143 154.619 153.864 153.454 
152.931 152.793 152.542 152.581 160.123 159.705 159.622 159.015 158.701 
157.835 157.349 156.388 155.915 154.995 154.632 153.846 153.678 153.148 
153.175 152.86 152.931 160.851 160.492 160.461 160.008 159.814 159.114 
158.704 157.804 157.344 156.417 156.049 155.184 154.951 154.23 154.165 
153.639 153.691 153.298 153.369 154.392 154.339 154.335 154.2 154.091 
154.187 154.075 154.093 153.899 153.688 153.851 153.723 153.851 153.643 
153.674 153.412 153.121 153.346 153.157 153.371 153.134 153.278 152.999 
153.103 152.911 152.542 152.726 152.514 152.72 152.479 152.679 152.448 
152.624 152.49 152.674 152.686 152.291 152.282 152.087 152.134 151.937 
152.075 151.985 152.157 152.159 152.316 152.392 152.579 152.722 152.411 
152.239 152.025 151.882 151.664 151.67 151.669 151.845 152.013 152.154 
152.278 152.36 152.455 152.631 152.765 152.683 152.442 152.187 151.943 
151.653 151.517 151.437 151.582 151.793 152.048 152.236 152.325 152.345 
152.394 152.436 152.632 152.755 153.065 152.745 152.494 152.177 151.892 
151.612 151.444 151.406 151.534 151.776 152.022 152.228 152.294 152.323 
152.3 152.366 152.466 152.659 152.828 153.302 153.621 153.171 152.683 
154.217 153.592 152.993 152.534 152.06 155.001 154.293 153.648 152.972 
152.387 151.934 151.598 155.805 155.113 154.482 153.724 153.1 152.438 
152.045 151.658 151.632 156.617 155.934 155.362 154.602 154.028 153.284 
152.877 152.3 152.182 151.901 152.049 157.495 156.802 156.301 155.544 
155.037 154.281 153.888 153.228 152.991 152.521 152.449 152.258 152.298 
158.347 157.695 157.221 156.52 156.039 155.313 154.884 154.215 153.862 
153.297 153.024 152.646 152.507 152.35 152.325 159.068 158.485 158.002 
157.39 156.915 156.265 155.795 155.14 154.699 154.09 153.722 153.221 
153.007 152.672 152.633 152.443 152.519 159.708 159.165 158.71 158.131 
157.685 157.081 156.633 155.998 155.556 154.913 154.545 153.963 153.759 
153.304 153.278 152.943 153.014 152.78 152.895 153.797 154.816 154.229 
154.185 155.979 155.348 155.299 154.722 154.782 157.19 156.544 156.5 
155.886 155.929 155.403 155.544 158.557 157.831 157.857 157.173 157.248 
156.619 156.749 156.201 156.35 160.109 159.318 159.407 158.673 158.837 
158.097 158.224 157.505 157.612 157.005 157.143 161.637 160.894 160.958 
160.262 160.424 159.735 159.838 159.068 159.085 158.349 158.431 157.833 
158 162.987 162.351 162.401 161.749 161.833 161.203 161.238 160.563 
160.518 159.811 159.831 159.188 159.327 158.738 158.884 164.161 163.627 
163.723 163.133 163.215 162.566 162.565 161.866 161.797 161.124 161.126 
160.54 160.656 160.086 160.196 159.583 159.63 165.17 164.724 164.822 
164.355 164.459 163.908 163.931 163.237 163.152 162.411 162.357 161.746 
161.812 161.308 161.381 160.839 160.835 160.239 160.221 161.227 161.681 
161.253 160.846 162.219 161.718 161.244 160.8 160.221 162.829 162.253 
161.662 161.154 160.475 159.985 159.168 163.376 162.795 162.079 161.522 
160.744 160.205 159.332 158.785 157.861 163.794 163.238 162.46 161.883 
161.043 160.462 159.55 158.959 158.017 157.467 156.582 164.175 163.619 
162.871 162.268 161.454 160.806 159.896 159.221 158.268 157.656 156.786 
156.262 155.496 164.57 164.026 163.342 162.743 162.009 161.323 160.47 
159.69 158.766 158.02 157.187 156.565 155.866 155.32 154.71 164.927 
164.433 163.79 163.243 162.564 161.929 161.132 160.359 159.467 158.654 
157.846 157.126 156.476 155.838 155.268 154.686 154.192 165.214 164.782 
164.176 163.678 163.024 162.457 161.706 161.015 160.16 159.385 158.573 
157.847 157.191 156.54 155.975 155.341 154.813 154.246 153.816 161.579 
162.303 161.958 162.033 163.062 162.711 162.807 162.474 162.623 163.866 
163.505 163.646 163.298 163.504 163.161 163.333 164.804 164.391 164.534 
164.15 164.336 164.037 164.265 163.903 163.98 165.796 165.381 165.484 
165.05 165.132 164.802 164.988 164.75 164.915 164.506 164.459 166.679 
166.307 166.386 165.979 166.017 165.605 165.714 165.428 165.647 165.372 
165.474 164.969 164.861 167.52 167.125 167.166 166.799 166.862 166.488 
166.586 166.225 166.409 166.117 166.315 165.947 165.966 165.385 165.244 
168.426 167.991 167.976 167.546 167.556 167.239 167.333 167.054 167.155 
166.871 166.975 166.71 166.769 166.393 166.306 165.738 165.559 169.28 
168.909 168.872 168.375 168.264 167.876 167.889 167.662 167.709 167.48 
167.434 167.212 167.164 166.985 166.929 166.626 166.474 165.975 165.776 
169.713 170.122 169.77 169.3 170.275 170.026 169.532 169.159 168.62 
170.267 170.071 169.626 169.336 168.877 168.534 168.191 170.178 170.026 
169.663 169.458 169.139 168.848 168.539 168.224 167.969 169.992 169.904 
169.564 169.474 169.211 169.081 168.751 168.5 168.097 167.88 167.574 
169.703 169.68 169.303 169.274 168.942 168.969 168.611 168.524 168.039 
167.863 167.467 167.395 167.207 169.28 169.344 168.964 168.947 168.565 
168.589 168.272 168.267 167.907 167.767 167.427 167.303 167.14 167.116 
167.017 168.764 168.892 168.595 168.604 168.281 168.259 168.022 168.01 
167.821 167.722 167.504 167.349 167.175 167.091 166.956 166.906 166.666 
168.349 168.459 168.293 168.301 168.068 168.038 167.843 167.848 167.701 
167.685 167.483 167.401 167.146 167.075 166.831 166.795 166.509 166.43 
166.038 168.212 168.1 168.169 168.14 167.707 167.933 167.825 167.964 
167.884 166.937 167.345 167.276 167.531 167.449 167.663 167.652 166.109 
166.565 166.624 166.926 166.886 167.154 167.162 167.446 167.49 165.215 
165.778 165.917 166.306 166.288 166.565 166.508 166.837 166.846 167.215 
167.225 164.023 164.73 164.831 165.455 165.446 165.89 165.795 166.136 
166.069 166.451 166.46 166.865 166.869 162.756 163.419 163.464 164.169 
164.179 164.833 164.818 165.336 165.322 165.714 165.732 166.096 166.148 
166.517 166.549 161.677 162.222 162.281 162.859 162.895 163.51 163.549 
164.203 164.288 164.889 164.972 165.422 165.46 165.821 165.835 166.195 
166.191 160.726 161.23 161.322 161.827 161.883 162.372 162.374 162.936 
162.985 163.684 163.797 164.485 164.534 165.058 165.006 165.422 165.342 
165.751 165.677 168.106 167.867 168.051 168.088 167.542 167.78 167.84 
167.965 167.751 167.139 167.366 167.301 167.537 167.254 167.344 166.891 
166.535 166.796 166.531 166.809 166.425 166.633 166.143 166.312 165.9 
165.561 165.934 165.563 165.899 165.485 165.732 165.25 165.452 165.021 
165.3 164.946 164.395 164.783 164.413 164.82 164.472 164.801 164.365 
164.566 164.085 164.337 163.927 164.256 163.818 163.37 163.652 163.271 
163.645 163.332 163.752 163.365 163.65 163.115 163.349 162.858 163.184 
162.766 163.071 162.613 162.51 162.721 162.29 162.558 162.187 162.587 
162.224 162.582 162.069 162.318 161.791 162.097 161.706 162.048 161.675 
161.935 161.533 161.693 161.895 161.44 161.624 161.186 161.481 161.122 
161.464 161.048 161.294 160.816 161.063 160.691 161.026 160.721 161.028 
160.67 160.917 160.556 168.151 168.296 168.037 167.808 168.69 168.26 
167.836 167.644 167.465 168.9 168.633 168.128 167.762 167.432 167.327 
167.177 168.512 168.6 168.182 167.977 167.525 167.347 167.108 167.043 
166.744 167.813 168.025 167.737 167.805 167.377 167.302 166.914 166.898 
166.534 166.444 165.862 167.255 167.361 167.113 167.277 166.965 166.997 
166.54 166.533 166.049 166.067 165.501 165.387 164.698 166.854 166.871 
166.547 166.684 166.404 166.522 166.092 166.079 165.518 165.496 164.937 
164.926 164.36 164.247 163.663 166.433 166.448 166.02 166.103 165.727 
165.891 165.482 165.565 165.028 164.994 164.423 164.388 163.877 163.861 
163.377 163.292 162.788 165.892 165.956 165.483 165.532 165.07 165.181 
164.757 164.893 164.439 164.491 163.974 163.94 163.42 163.393 162.916 
162.917 162.457 162.413 161.934 165.378 164.447 164.946 164.987 163.554 
164.03 164.085 164.542 164.575 162.586 163.129 163.182 163.661 163.695 
164.152 164.221 161.388 162.037 162.087 162.689 162.724 163.251 163.295 
163.808 163.89 160.218 160.794 160.796 161.441 161.441 162.122 162.153 
162.798 162.853 163.431 163.463 159.252 159.727 159.641 160.135 160.022 
160.684 160.697 161.484 161.574 162.297 162.346 162.933 162.924 158.253 
158.782 158.701 159.085 158.905 159.349 159.34 160.025 160.215 160.976 
161.127 161.773 161.811 162.375 162.395 157.219 157.768 157.817 158.221 
158.144 158.443 158.451 158.904 159.147 159.773 160.035 160.628 160.731 
161.269 161.315 161.878 161.938 156.411 156.848 156.999 157.419 157.487 
157.807 157.86 158.204 158.385 158.876 159.109 159.643 159.756 160.252 
160.288 160.813 160.872 161.435 161.475 156.127 155.828 156.199 156.634 
155.425 155.815 156.245 156.692 157.125 155.11 155.396 155.784 156.242 
156.726 157.162 157.576 154.954 155.159 155.484 155.823 156.296 156.74 
157.239 157.64 158.104 154.647 154.964 155.302 155.618 156.047 156.386 
156.846 157.254 157.75 158.198 158.713 154.056 154.467 154.78 155.299 
155.751 156.183 156.606 156.929 157.351 157.763 158.273 158.774 159.284 
153.511 153.794 153.95 154.525 154.953 155.66 156.157 156.671 157.083 
157.439 157.897 158.318 158.859 159.323 159.831 153.248 153.355 153.414 
153.726 154.043 154.694 155.235 155.991 156.515 157.093 157.551 157.998 
158.506 158.944 159.487 159.909 160.424 153.141 153.223 153.351 153.436 
153.702 153.997 154.476 155.063 155.654 156.349 156.898 157.521 158.023 
158.559 159.061 159.55 160.053 160.506 160.992 161.11 160.129 160.698 
160.828 159.104 159.669 159.776 160.366 160.541 158.016 158.596 158.697 
159.312 159.517 160.155 160.441 156.819 157.437 157.537 158.217 158.468 
159.152 159.45 160.101 160.365 155.6 156.217 156.346 157.049 157.348 
158.087 158.412 159.092 159.337 159.959 160.164 154.58 155.113 155.332 
155.949 156.271 156.968 157.297 158.002 158.258 158.914 159.145 159.773 
160.053 153.903 154.301 154.566 155.064 155.34 155.931 156.188 156.857 
157.095 157.79 158.045 158.744 159.055 159.735 160.068 153.476 153.761 
153.932 154.339 154.483 154.986 155.123 155.735 155.933 156.623 156.894 
157.62 157.944 158.68 159.015 159.722 160.018 153.116 153.323 153.336 
153.661 153.675 154.09 154.149 154.68 154.872 155.513 155.829 156.519 
156.882 157.58 157.936 158.634 158.962 159.639 159.93 160.353 159.464 
160.238 160.891 158.546 159.337 160.038 160.817 161.523 157.717 158.479 
159.234 160.001 160.776 161.518 162.267 157.126 157.808 158.617 159.28 
160.068 160.796 161.579 162.308 163.081 156.793 157.408 158.267 158.794 
159.517 160.128 160.898 161.622 162.389 163.12 163.86 156.523 157.125 
157.973 158.5 159.141 159.63 160.322 160.979 161.762 162.449 163.136 
163.817 164.43 156.249 156.775 157.543 158.139 158.77 159.244 159.833 
160.421 161.183 161.867 162.562 163.146 163.678 164.281 164.774 156.12 
156.473 157.154 157.698 158.394 158.871 159.442 159.929 160.596 161.261 
161.978 162.595 163.122 163.621 164.067 164.617 165.08 156.182 156.392 
156.991 157.4 158.113 158.564 159.173 159.575 160.144 160.678 161.345 
161.981 162.572 163.097 163.534 164.006 164.442 164.966 165.403 161.023 
161.604 161.621 162.226 162.233 162.24 162.926 162.895 163.485 162.963 
162.924 163.65 163.644 164.356 164.227 164.756 163.81 163.733 164.452 
164.408 165.145 165.099 165.713 165.499 165.909 164.636 164.625 165.351 
165.256 165.907 165.841 166.436 166.356 166.796 166.563 166.857 165.181 
165.344 166.073 166.091 166.683 166.594 167.151 167.059 167.558 167.375 
167.693 167.407 167.614 165.433 165.692 166.33 166.547 167.088 167.205 
167.795 167.829 168.45 168.27 168.665 168.27 168.45 168.079 168.233 
165.656 165.852 166.37 166.59 167.025 167.306 167.885 168.256 168.994 
169.153 169.637 169.329 169.443 168.959 169.034 168.679 168.846 165.933 
166.072 166.537 166.64 167.008 167.175 167.673 168.102 168.84 169.361 
169.943 170.06 170.173 169.865 169.821 169.475 169.585 169.311 169.464 
160.888 162.054 161.313 161.005 163.237 162.475 162.146 161.417 161.137 
164.41 163.633 163.286 162.562 162.282 161.587 161.369 165.532 164.776 
164.409 163.695 163.435 162.746 162.494 161.812 161.573 166.538 165.867 
165.505 164.802 164.511 163.857 163.567 162.892 162.556 161.919 161.627 
167.344 166.818 166.495 165.853 165.482 164.842 164.447 163.824 163.405 
162.811 162.464 161.917 161.637 167.976 167.552 167.267 166.738 166.331 
165.717 165.223 164.592 164.096 163.531 163.158 162.685 162.422 161.921 
161.634 168.581 168.157 167.865 167.399 167.002 166.464 165.981 165.355 
164.845 164.217 163.812 163.317 163.054 162.632 162.367 161.87 161.549 
169.157 168.739 168.379 167.929 167.504 167.043 166.612 166.089 165.644 
165.027 164.603 164.015 163.692 163.226 162.957 162.522 162.218 161.742 
161.449 168.367 168.92 168.633 168.676 169.511 169.279 169.374 169.06 
169.11 169.948 169.818 169.851 169.639 169.578 169.363 169.21 170.281 
170.213 170.225 169.993 169.786 169.582 169.296 169.138 168.74 170.524 
170.539 170.639 170.393 170.183 169.808 169.487 169.178 168.816 168.535 
168.096 170.605 170.711 170.833 170.746 170.587 170.271 169.961 169.552 
169.226 168.799 168.43 168.007 167.619 170.545 170.68 170.719 170.766 
170.623 170.531 170.24 169.987 169.591 169.239 168.796 168.414 167.98 
167.608 167.228 170.311 170.485 170.44 170.539 170.441 170.479 170.321 
170.174 169.777 169.447 168.864 168.565 168.027 167.824 167.397 167.173 
166.784 169.838 170.085 169.984 170.165 170.111 170.289 170.307 170.301 
170.05 169.673 169.045 168.566 167.932 167.692 167.267 167.174 166.813 
166.647 166.232 
POINT_DATA 1002
SCALARS Distance double
LOOKUP_TABLE default
155.806 156.023 155.54 155.287 155.146 155.443 154.771 154.613 154.936 
155.069 154.226 154.035 154.575 154.791 154.911 153.936 153.791 154.372 
154.67 154.695 154.742 153.978 153.829 154.327 154.484 154.344 154.251 
154.267 153.983 153.846 154.198 154.164 153.838 153.687 153.755 153.707 
153.927 153.911 153.938 153.776 153.425 153.262 153.416 153.494 153.351 
154.053 154.15 153.886 153.57 153.19 153.008 153.128 153.273 153.236 
153.161 154.278 154.431 154.068 153.681 153.17 152.817 152.788 152.888 
152.898 152.883 152.991 155.871 155.407 155.842 155.201 155.98 155.031 
154.897 156.173 154.622 154.522 154.769 156.427 154.014 154.179 154.073 
155.287 156.939 153.979 153.791 154.051 153.927 156.375 157.742 154.987 
154.139 154.07 154.075 153.889 157.527 158.673 156.384 155.31 154.619 
154.301 154.035 153.871 158.528 159.606 157.517 156.546 155.618 154.887 
154.382 154.092 154.052 159.418 160.461 158.411 157.512 156.623 155.724 
154.988 154.55 154.4 154.413 160.59 159.53 160.691 159.735 160.896 
158.571 160.097 161.175 158.897 157.692 160.393 161.321 159.255 157.913 
156.696 160.465 161.35 159.405 158.035 156.692 155.714 160.449 161.374 
159.441 158.183 156.817 155.801 155.115 160.421 161.331 159.498 158.485 
157.289 156.242 155.518 154.918 160.417 161.237 159.584 158.756 157.786 
156.799 156.04 155.423 154.856 160.503 161.203 159.743 158.937 158.008 
157.044 156.285 155.708 155.178 154.737 154.472 154.705 154.292 155.105 
154.475 153.973 155.602 154.881 154.167 153.526 156.168 155.344 154.53 
153.631 152.895 157.032 155.933 154.932 153.841 152.879 152.394 158.174 
156.977 155.656 154.355 153.161 152.515 152.369 159.252 158.306 156.898 
155.426 154.083 153.124 152.747 152.633 160.127 159.494 158.309 156.845 
155.482 154.336 153.577 153.204 152.961 160.851 160.409 159.544 158.264 
156.931 155.739 154.78 154.14 153.731 153.419 154.26 154.016 153.955 
153.571 153.588 153.392 152.947 152.96 152.86 152.752 152.341 152.258 
152.225 152.267 152.458 152.116 151.81 151.748 151.987 152.229 152.497 
152.238 151.728 151.46 151.805 152.252 152.36 152.514 152.459 151.869 
151.368 151.488 152.093 152.37 152.312 152.487 152.82 152.208 151.602 
151.366 151.752 152.227 152.291 152.302 152.612 153.672 153.024 154.168 
153.586 154.899 152.374 154.401 155.708 152.964 151.831 155.237 156.475 
153.816 152.528 151.783 156.094 157.284 154.758 153.514 152.595 152.174 
157.031 158.174 155.783 154.575 153.58 152.801 152.38 157.884 158.985 
156.752 155.587 154.496 153.516 152.763 152.385 158.588 159.635 157.537 
156.461 155.344 154.264 153.392 152.873 152.646 159.273 160.218 158.272 
157.25 156.193 155.136 154.238 153.653 153.314 153.086 154.302 154.717 
155.431 155.899 156.611 155.283 157.125 157.839 156.479 156.03 158.534 
159.304 157.917 157.351 156.87 160.123 160.905 159.573 159.026 158.297 
157.673 161.661 162.348 161.096 160.61 159.883 159.08 158.544 163.05 
163.568 162.497 161.91 161.2 160.475 159.942 159.496 164.265 164.654 
163.856 163.296 162.494 161.701 161.207 160.822 160.271 165.258 165.603 
164.947 164.577 163.925 163.041 162.333 161.899 161.425 160.812 161.628 
161.282 162.136 161.739 162.786 160.715 162.238 163.466 161.013 159.702 
162.685 163.981 161.32 159.906 158.395 163.053 164.353 161.649 160.168 
158.583 157.08 163.457 164.72 162.109 160.609 158.919 157.311 155.971 
163.905 165.089 162.668 161.256 159.55 157.837 156.42 155.213 164.31 
165.388 163.16 161.867 160.276 158.58 157.129 155.885 154.71 161.911 
162.339 162.665 163.135 163.39 162.951 163.994 164.22 163.813 163.752 
164.965 165.233 164.648 164.552 164.496 165.949 166.21 165.543 165.211 
165.207 165.046 166.767 167.064 166.449 166.064 165.872 165.867 165.514 
167.55 167.949 167.188 166.956 166.744 166.619 166.464 165.926 168.479 
168.854 167.905 167.582 167.468 167.257 167.053 166.794 166.203 169.397 