# vtk DataFile Version 4.0
vtk output
ASCII
DATASET POLYDATA
POINTS 1002 float
-78.2887 -110.504 72.9529 -77.8393 -111.739 72.4535 -77.8827 -111.253 71.6647 
-78.3793 -109.851 72.0982 -78.1331 -110.738 70.8473 -78.6972 -108.935 73.5586 
-78.655 -109.178 71.3515 -78.5732 -110.161 70.0648 -78.9006 -108.196 72.6998 
-79.2451 -107.336 74.2603 -79.2135 -108.584 70.7223 -79.1459 -109.552 69.3909 
-79.3979 -107.607 72.033 -79.7517 -106.779 73.4806 -80.0856 -106.013 74.9478 
-80.0371 -108.076 70.1344 -79.926 -108.995 68.8995 -80.2235 -107.154 71.4786 
-80.5819 -106.362 72.8178 -80.8418 -105.539 74.2065 -80.9493 -104.611 75.4567 
-81.0136 -107.516 69.6392 -80.8933 -108.369 68.5965 -81.1688 -106.62 70.9357 
-81.4423 -105.769 72.2143 -81.6212 -104.851 73.4495 -81.5731 -103.799 74.6842 
-81.4721 -102.756 75.7667 -81.952 -106.733 69.2753 -81.8473 -107.513 68.3872 
-82.0622 -105.861 70.4349 -82.1749 -104.908 71.6592 -82.2024 -103.862 72.7438 
-82.0785 -102.763 73.8752 -81.9432 -101.759 74.9974 -81.8823 -100.945 76.0223 
-82.806 -105.851 68.991 -82.7702 -106.598 68.2222 -82.8762 -104.976 69.9703 
-82.924 -103.97 71.1057 -82.8758 -102.901 72.1236 -82.6961 -101.825 73.1076 
-82.5469 -100.9 74.2039 -82.5379 -100.201 75.2829 -82.58 -99.6737 76.3408 
-83.7469 -105.135 68.8253 -83.7835 -105.868 68.1506 -83.7379 -104.208 69.6059 
-83.7537 -103.137 70.5559 -83.7684 -102.126 71.5357 -83.6623 -101.166 72.4454 
-83.4682 -100.281 73.4283 -83.3876 -99.6137 74.5016 -83.4303 -99.1287 75.5881 
-83.4781 -98.749 76.6891 -84.8211 -104.596 68.8139 -84.8516 -105.302 68.1886 
-84.7536 -103.628 69.4374 -84.6796 -102.47 70.1451 -84.6852 -101.469 71.0019 
-84.6958 -100.64 71.8994 -84.5544 -99.7879 72.8031 -84.3577 -99.0489 73.7827 
-84.2742 -98.5391 74.8207 -84.2701 -98.1535 75.8872 -84.2643 -97.8568 76.9631 
-77.2579 -112.457 71.5373 -77.4124 -112.046 70.6227 -76.6638 -113.13 70.4892 
-76.9248 -112.721 69.2332 -76.2753 -113.882 69.1884 -77.8121 -111.601 69.5772 
-76.4658 -113.328 67.6 -76.1621 -114.764 67.8839 -77.2246 -112.147 67.8683 
-78.246 -110.97 68.6222 -76.3484 -114.123 66.2301 -76.3937 -115.734 66.9411 
-76.5672 -112.574 66.0425 -77.504 -111.37 66.8484 -78.7794 -110.288 68.0139 
-76.9157 -115.217 65.4273 -76.9985 -116.64 66.438 -76.704 -113.474 64.6312 
-77.0587 -111.824 65.0002 -78.266 -110.755 66.397 -79.7022 -109.741 67.7364 
-77.7895 -116.188 65.2107 -77.7751 -117.358 66.2718 -77.7003 -114.704 64.1049 
-77.7153 -112.816 63.7817 -78.3816 -111.345 64.7443 -79.6245 -110.376 66.3365 
-80.8662 -109.09 67.6033 -78.5562 -116.771 65.4536 -78.651 -117.96 66.2949 
-78.6358 -115.498 64.5739 -78.7889 -113.821 64.0046 -79.1667 -112.138 64.1576 
-79.9905 -111.015 65.1536 -81.0423 -109.82 66.4799 -81.9844 -108.163 67.5183 
-79.4592 -117.186 65.869 -79.7191 -118.479 66.4066 -79.4219 -115.837 65.4235 
-79.5988 -114.367 65.13 -79.9242 -112.805 64.9556 -80.528 -111.598 65.0892 
-81.4277 -110.532 65.7686 -82.3318 -108.959 66.6924 -83.0914 -107.211 67.4846 
-80.6158 -117.53 66.2711 -80.8748 -118.789 66.6124 -80.4758 -116.114 66.0474 
-80.5179 -114.73 65.9155 -80.7086 -113.37 65.7362 -81.1346 -112.154 65.525 
-81.9114 -111.136 65.6475 -82.82 -109.805 66.2021 -83.5803 -108.034 66.8734 
-84.2217 -106.437 67.5234 -81.8811 -118.12 66.7466 -81.7682 -116.727 66.4893 
-82.9654 -117.217 66.9167 -83.056 -115.881 66.4168 -84.1633 -116.386 66.775 
-81.7665 -115.327 66.1854 -84.3888 -115.227 65.9295 -85.5096 -115.759 66.4812 
-83.2172 -114.717 65.6103 -81.8642 -114.081 65.7548 -85.7298 -114.607 65.7374 
-86.8206 -115.001 66.5841 -84.6614 -114.167 64.9026 -83.4628 -113.615 64.7298 
-82.1252 -112.855 65.3206 -86.9919 -113.679 66.28 -87.9441 -113.805 67.1593 
-86.0085 -113.374 65.1911 -85.0721 -112.932 64.2745 -83.9181 -112.315 64.4743 
-82.7328 -111.666 65.3132 -88.193 -112.374 67.1215 -89.0519 -112.309 67.8664 
-87.2322 -112.287 66.2533 -86.4064 -111.971 65.2299 -85.581 -111.463 64.7291 
-84.5676 -110.901 65.2093 -83.5847 -110.358 65.877 -89.525 -110.86 67.8068 
-90.3076 -110.838 68.4098 -88.5477 -110.868 67.1904 -87.6079 -110.741 66.559 
-86.8267 -110.376 66.0167 -86.0398 -109.825 65.9279 -85.1789 -109.211 66.2456 
-84.3356 -108.593 66.5724 -91.0073 -109.411 68.1237 -91.6379 -109.592 68.6073 
-90.1452 -109.227 67.6686 -89.134 -109.065 67.3494 -88.1679 -108.852 67.0995 
-87.2951 -108.427 66.8903 -86.4737 -107.816 66.831 -85.6943 -107.214 66.9423 
-84.938 -106.749 67.1805 -92.4271 -108.214 68.0714 -92.8886 -108.567 68.5165 
-91.8003 -107.762 67.7099 -90.9352 -107.298 67.5645 -89.9091 -106.951 67.5293 
-88.8538 -106.621 67.4131 -87.8587 -106.168 67.2683 -86.9918 -105.725 67.2847 
-86.2458 -105.467 67.5076 -85.54 -105.366 67.8426 -85.9454 -104.278 68.6809 
-86.6997 -104.166 68.3241 -87.0548 -102.911 69.0983 -87.4739 -104.002 67.879 
-87.8937 -102.672 68.7014 -88.0447 -101.2 69.2195 -88.3816 -104.002 67.5122 
-88.8251 -102.364 68.1459 -89.0504 -101 68.8404 -89.0295 -99.497 69.1773 
-89.4807 -104.268 67.42 -89.914 -102.243 67.6433 -90.1729 -100.772 68.325 
-90.2719 -99.4272 68.9189 -90.1742 -98.0171 69.3137 -90.6886 -104.681 67.5203 
-91.1273 -102.481 67.4444 -91.3119 -100.708 67.7885 -91.4793 -99.3053 68.4813 
-91.4889 -97.9448 69.0364 -91.2353 -96.6367 69.5644 -91.8526 -105.226 67.5135 
-92.4047 -103.072 67.417 -92.5266 -101.026 67.4346 -92.5898 -99.2843 67.8507 
-92.6327 -97.827 68.4885 -92.4108 -96.4633 69.076 -91.9994 -95.3419 69.7638 
-92.7841 -105.974 67.4287 -93.5312 -103.974 67.2925 -93.8295 -101.792 67.2436 
-93.8639 -99.6338 67.3335 -93.8181 -97.8775 67.7877 -93.5923 -96.4657 68.4927 
-93.17 -95.2404 69.25 -92.7161 -94.3718 70.1207 -93.3972 -106.739 67.5908 
-94.2628 -104.991 67.2758 -94.8495 -102.892 67.1982 -95.1327 -100.503 67.1886 
-95.1546 -98.3428 67.385 -94.9382 -96.765 68.0247 -94.5418 -95.5386 68.9038 
-94.0465 -94.5471 69.8122 -93.5411 -93.8553 70.7747 -93.8041 -107.31 68.049 
-94.661 -105.805 67.6484 -95.3821 -103.979 67.4851 -95.9295 -101.75 67.4577 
-96.1989 -99.3839 67.5301 -96.1308 -97.4466 67.96 -95.8503 -96.0819 68.7669 
-95.4443 -95.0551 69.6847 -94.9059 -94.269 70.6145 -94.3057 -93.6543 71.57 
-85.9174 -103.34 69.274 -86.9419 -101.644 69.52 -85.7693 -102.064 69.7908 
-87.8284 -99.771 69.487 -86.7069 -100.272 69.9439 -85.6363 -100.887 70.4604 
-88.8178 -98.1192 69.5699 -87.6052 -98.5502 70.0558 -86.5654 -99.3146 70.7304 
-85.6263 -100.062 71.3674 -89.9644 -96.742 69.9914 -88.6611 -97.0355 70.4643 
-87.5193 -97.7129 71.0846 -86.5177 -98.5388 71.7775 -85.5635 -99.2238 72.3416 
-90.939 -95.5298 70.4291 -89.7571 -95.8119 71.0707 -88.5646 -96.2408 71.6055 
-87.4306 -96.9004 72.2172 -86.3547 -97.6284 72.8579 -85.3391 -98.3499 73.3408 
-91.7115 -94.475 70.797 -90.6773 -94.8201 71.5796 -89.5514 -95.1626 72.1815 
-88.3817 -95.5707 72.7043 -87.201 -96.1679 73.3675 -86.0827 -96.9055 73.9531 
-85.1222 -97.7384 74.376 -92.506 -93.6604 71.3435 -91.5125 -93.8099 72.0767 
-90.4429 -94.1434 72.7422 -89.2667 -94.5142 73.2533 -88.0578 -95.0017 73.8445 
-86.8608 -95.6463 74.4857 -85.813 -96.4329 74.9758 -84.995 -97.3224 75.4117 
-93.2934 -93.1655 72.0823 -92.3198 -92.8607 72.7034 -91.3086 -92.9209 73.3351 
-90.1426 -93.3225 73.856 -88.8768 -93.8914 74.3522 -87.612 -94.5068 74.9179 
-86.4544 -95.1951 75.4508 -85.5616 -96.0442 75.9436 -84.9014 -96.9953 76.4688 
-94.3029 -93.179 72.7373 -93.288 -92.44 73.2992 -94.2265 -92.6863 73.988 
-93.1917 -91.8201 74.5116 -94.1471 -92.5269 75.2493 -92.2881 -91.9017 73.8951 
-93.0262 -91.9512 75.7689 -94.0757 -92.8762 76.6951 -92.1221 -91.4451 75.0853 
-91.1667 -92.0481 74.4664 -92.8649 -92.7107 77.3581 -94.0251 -93.2942 78.487 
-91.8448 -92.1215 76.4451 -90.8867 -92.0712 75.7049 -89.8265 -92.7904 74.9818 
-92.7677 -93.2456 79.2323 -93.9485 -93.6311 80.2351 -91.562 -93.0587 78.1682 
-90.5078 -92.9756 77.2458 -89.3972 -93.0386 76.3359 -88.3671 -93.5585 75.504 
-92.5846 -93.6782 80.8764 -93.6607 -94.3117 81.5031 -91.277 -93.4267 79.9752 
-90.0815 -93.5145 79.067 -88.9127 -93.5585 78.0853 -87.7811 -93.6209 76.96 
-86.9779 -94.1957 76.0442 -92.1964 -94.5179 82.0859 -93.1561 -95.2461 82.46 
-90.9244 -93.9708 81.4395 -89.6434 -93.7282 80.7139 -88.4414 -93.7422 79.9482 
-87.2762 -93.8317 78.8342 -86.3941 -94.1811 77.5609 -85.9004 -94.996 76.6044 
-91.7365 -95.4626 83.0386 -92.6045 -96.062 83.3414 -90.588 -94.9929 82.5349 
-89.3097 -94.5365 81.9388 -88.0619 -94.1795 81.3929 -86.9146 -94.1499 80.6112 
-86.0255 -94.4926 79.3901 -85.5077 -95.1558 78.1512 -85.2048 -96.0483 77.2146 
-91.2811 -96.2774 83.8133 -92.0496 -96.8306 84.077 -90.3006 -95.9506 83.4083 
-89.1156 -95.6302 82.9198 -87.8262 -95.1413 82.4577 -86.6384 -94.8055 81.9034 
-85.7763 -94.9999 80.9752 -85.2787 -95.6069 79.7853 -84.9632 -96.3495 78.6966 
-84.6442 -97.1154 77.7862 -95.3595 -93.9252 71.8102 -95.3194 -93.5015 73.1044 
-96.325 -94.1492 72.1385 -96.3314 -93.7471 73.6565 -97.0955 -94.5681 72.7115 
-95.2649 -93.1918 74.5434 -97.1752 -94.3391 74.4861 -97.5901 -95.68 73.568 
-96.3247 -93.6172 75.3532 -95.2412 -93.2491 76.0373 -97.5778 -95.704 75.406 
-97.6405 -97.2822 74.4558 -97.0785 -94.4613 76.2918 -96.2219 -93.8553 77.0256 
-95.1663 -93.5434 77.7399 -97.4945 -97.3722 76.1833 -97.4215 -98.8988 75.2471 
-97.3334 -95.9625 77.0965 -96.8011 -94.8952 77.9305 -95.9834 -94.2246 78.7791 
-95.0224 -93.8193 79.5871 -97.4436 -99.0851 76.9243 -97.4365 -100.682 76.0298 
-97.368 -97.6472 77.8126 -97.0959 -96.4817 78.6685 -96.5003 -95.5034 79.5723 
-95.6526 -94.7638 80.4035 -94.738 -94.4058 81.0188 -97.6793 -101.056 77.6791 
-97.592 -102.521 76.7396 -97.5375 -99.4869 78.58 -97.2835 -98.2011 79.4039 
-96.8829 -97.215 80.2266 -96.1027 -96.3232 80.9843 -95.1584 -95.6979 81.5228 
-94.2356 -95.397 81.9811 -97.7411 -102.866 78.278 -97.4365 -103.91 77.2786 
-97.6816 -101.466 79.2378 -97.3313 -100.002 80.0752 -96.9951 -98.8763 80.8172 
-96.446 -97.9832 81.5159 -95.5248 -97.2189 82.05 -94.5778 -96.6953 82.4525 
-93.6555 -96.3217 82.9098 -97.4098 -104.142 78.6815 -97.0347 -104.902 77.7029 
-97.5239 -103.115 79.6585 -97.2194 -101.779 80.5291 -96.8454 -100.503 81.251 
[...]
CELL_DATA 2000
SCALARS Distance double
LOOKUP_TABLE default
152.877 152.159 152.458 152.341 151.535 151.743 151.557 151.855 151.754 
151.057 151.185 151.024 151.189 151.149 151.416 151.473 150.766 150.823 
150.764 150.837 150.883 151.031 151.15 151.326 151.357 150.634 150.647 
150.617 150.677 150.71 150.842 150.868 151.028 150.915 151.068 150.801 
150.473 150.515 150.414 150.503 150.416 150.563 150.396 150.569 150.26 
150.447 150.054 150.255 149.89 150.241 150.284 150.118 150.207 150.025 
150.145 149.877 149.981 149.603 149.709 149.338 149.496 149.237 149.429 
149.305 150.154 150.097 149.93 149.908 149.696 149.725 149.482 149.513 
149.226 149.211 148.941 148.962 148.823 148.94 148.94 149.113 149.203 
150.304 150.156 150.014 149.844 149.608 149.483 149.253 149.223 149.047 
149.018 148.844 148.781 148.657 148.678 148.673 148.818 148.893 149.105 
149.216 152.953 152.743 152.672 152.296 152.442 152.399 152.079 152.047 
151.702 152.201 152.023 151.557 151.656 151.36 151.438 151.143 152.328 
151.836 151.09 150.988 150.569 150.843 150.676 150.899 150.756 152.979 
152.21 151.365 150.735 150.106 150.042 149.935 150.297 150.412 150.649 
150.646 153.88 153.078 152.38 151.435 150.738 150.038 149.813 149.774 
150.057 150.333 150.564 150.641 150.587 154.776 154.034 153.473 152.621 
152.03 151.092 150.713 150.134 150.28 150.241 150.588 150.634 150.696 
150.572 150.416 155.718 154.959 154.436 153.692 153.224 152.415 152.022 
151.258 151.167 150.767 151.003 150.863 151.006 150.793 150.688 150.435 
150.318 156.685 155.939 155.427 154.682 154.259 153.546 153.202 152.488 
152.268 151.71 151.752 151.444 151.579 151.281 151.232 150.853 150.725 
150.443 150.427 157.012 157.054 156.635 155.796 157.035 156.659 155.881 
155.437 154.646 157.075 156.66 155.92 155.517 154.772 154.345 153.615 
157.253 156.778 156.017 155.575 154.848 154.447 153.757 153.352 152.719 
157.403 156.991 156.256 155.758 155.029 154.562 153.917 153.513 152.99 
152.602 152.192 157.382 157.102 156.48 156.045 155.38 154.862 154.259 
153.781 153.329 152.941 152.607 152.246 151.94 157.293 157.072 156.541 
156.229 155.653 155.239 154.675 154.213 153.732 153.325 152.928 152.597 
152.199 151.903 151.493 157.248 157.024 156.511 156.249 155.69 155.406 
154.848 154.531 153.976 153.638 153.086 152.782 152.249 151.997 151.509 
151.301 150.912 157.229 157.002 156.483 156.217 155.636 155.37 154.779 
154.541 153.931 153.682 153.025 152.766 152.138 151.924 151.434 151.271 
150.945 150.794 150.591 150.587 150.849 150.694 150.608 151.167 150.908 
150.763 150.618 150.341 151.72 151.24 150.955 150.736 150.511 150.26 
149.846 152.561 151.885 151.447 150.996 150.743 150.475 150.225 149.846 
149.485 153.518 152.806 152.316 151.632 151.252 150.812 150.599 150.28 
150.031 149.615 149.302 154.449 153.798 153.394 152.623 152.161 151.472 
151.12 150.687 150.43 150.094 149.759 149.383 149.041 155.37 154.774 
154.496 153.767 153.357 152.521 152.047 151.334 150.964 150.493 150.187 
149.789 149.463 149.092 148.873 156.262 155.73 155.528 154.889 154.582 
153.779 153.324 152.428 151.97 151.219 150.927 150.366 150.186 149.682 
149.573 149.136 149.159 157.051 156.602 156.438 155.896 155.661 154.985 
154.634 153.776 153.337 152.428 152.092 151.342 151.212 150.617 150.614 
150.074 150.148 149.67 149.813 150.42 150.415 150.334 150.076 150.051 
150.134 149.803 149.826 149.529 149.433 149.557 149.202 149.366 149.092 
149.233 149.082 149.009 148.957 148.605 148.726 148.574 148.776 148.746 
148.912 148.907 148.882 148.72 148.384 148.321 148.215 148.346 148.405 
148.602 148.647 148.785 148.752 148.752 148.674 148.435 148.308 148.176 
148.146 148.154 148.281 148.321 148.49 148.476 148.599 148.567 148.652 
148.582 148.488 148.419 148.341 148.225 148.162 148.121 148.123 148.196 
148.22 148.331 148.368 148.481 148.566 148.894 148.651 148.596 148.503 
148.487 148.393 148.316 148.2 148.141 148.105 148.116 148.158 148.213 
148.313 148.439 148.579 148.762 149.48 149.072 148.921 148.688 148.61 
148.501 148.412 148.32 148.218 148.154 148.101 148.099 148.096 148.168 
148.248 148.419 148.619 148.822 149.063 149.81 150.029 149.626 149.145 
150.324 149.809 149.234 148.972 148.67 150.98 150.221 149.557 149.085 
148.709 148.556 148.406 152.04 151.107 150.456 149.666 149.243 148.759 
148.552 148.352 148.256 153.177 152.279 151.679 150.79 150.349 149.593 
149.271 148.714 148.485 148.225 148.135 154.163 153.375 152.753 151.955 
151.445 150.729 150.291 149.589 149.135 148.587 148.303 148.11 148.073 
155.023 154.315 153.691 152.918 152.318 151.644 151.146 150.509 149.986 
149.314 148.863 148.4 148.264 148.13 148.233 155.76 155.145 154.602 
153.856 153.269 152.504 151.982 151.298 150.839 150.164 149.757 149.128 
148.948 148.547 148.656 148.476 148.691 156.366 155.842 155.382 154.758 
154.263 153.52 153.005 152.231 151.769 151.06 150.72 150.092 149.94 
149.425 149.495 149.127 149.319 149.063 149.232 150.353 151.304 150.777 
150.636 152.293 151.764 151.732 151.131 151.037 153.528 152.883 152.952 
152.329 152.388 151.698 151.744 154.987 154.291 154.373 153.679 153.797 
153.129 153.269 152.574 152.744 156.335 155.733 155.824 155.16 155.248 
154.579 154.718 154.076 154.254 153.616 153.81 157.716 157.063 157.207 
156.57 156.712 156.054 156.201 155.534 155.689 155.05 155.215 154.613 
154.768 159.332 158.61 158.792 158.043 158.234 157.541 157.754 157.073 
157.228 156.511 156.611 155.954 156.068 155.484 155.588 160.706 160.215 
160.413 159.713 159.815 159.085 159.221 158.583 158.723 158.05 158.087 
157.365 157.387 156.747 156.815 156.24 156.29 161.526 161.325 161.557 
161.136 161.171 160.549 160.514 159.916 159.958 159.404 159.428 158.785 
158.75 158.075 158.076 157.456 157.478 156.888 156.883 157.426 157.856 
157.372 156.833 158.328 157.786 157.171 156.702 156.072 158.787 158.211 
157.517 157.02 156.346 155.868 155.105 159.292 158.66 157.928 157.361 
156.663 156.146 155.361 154.798 153.888 159.903 159.251 158.525 157.835 
157.09 156.486 155.686 155.078 154.165 153.537 152.65 160.381 159.878 
159.177 158.477 157.637 156.941 156.073 155.423 154.514 153.863 153.011 
152.425 151.737 160.592 160.257 159.612 159.035 158.149 157.451 156.529 
155.847 154.951 154.267 153.447 152.84 152.199 151.682 151.154 160.826 
160.488 159.968 159.426 158.616 157.915 157.044 156.355 155.556 154.833 
154.057 153.353 152.718 152.17 151.688 151.189 150.723 161.286 160.89 
160.511 159.927 159.239 158.47 157.669 156.944 156.263 155.563 154.89 
154.106 153.441 152.756 152.253 151.733 151.312 150.801 150.369 157.823 
158.574 158.244 158.33 159.444 159.083 159.286 158.864 158.931 160.451 
160.041 160.299 159.906 160.085 159.532 159.505 161.466 161.052 161.255 
160.912 161.129 160.695 160.733 160.096 160.009 162.37 161.992 162.12 
161.796 161.971 161.647 161.733 161.254 161.189 160.582 160.518 163.182 
162.833 162.962 162.625 162.768 162.437 162.559 162.18 162.195 161.683 
161.583 161.024 160.913 163.996 163.641 163.801 163.47 163.601 163.236 
163.343 162.997 163.132 162.709 162.697 162.083 161.887 161.276 161.079 
164.871 164.482 164.629 164.303 164.411 164.04 164.052 163.72 163.859 
163.616 163.803 163.306 163.189 162.385 162.09 161.397 161.248 165.748 
165.35 165.429 165.098 165.166 164.805 164.739 164.356 164.355 164.19 
164.447 164.302 164.421 163.805 163.533 162.624 162.338 161.656 161.631 
166.195 166.555 166.215 165.846 166.629 166.47 166.164 165.88 165.531 
166.554 166.488 166.293 166.129 165.811 165.497 165.065 166.621 166.504 
166.427 166.283 166.056 165.748 165.335 164.966 164.639 166.835 166.698 
166.637 166.483 166.286 166.004 165.634 165.274 165.025 164.759 164.732 
166.829 166.832 166.689 166.631 166.362 166.171 165.778 165.524 165.279 
165.141 165.12 164.977 164.812 166.515 166.623 166.446 166.509 166.231 
166.142 165.752 165.579 165.299 165.254 165.157 165.162 164.895 164.686 
164.025 166.226 166.282 166.161 166.217 166.029 165.981 165.675 165.535 
165.264 165.201 165.045 165.046 164.752 164.595 163.962 163.6 162.823 
166.067 166.094 166.022 166.033 165.899 165.839 165.575 165.459 165.182 
165.127 164.929 164.91 164.63 164.47 163.959 163.608 162.993 162.57 
162.06 165.904 165.502 165.816 165.908 164.799 165.308 165.483 165.768 
165.748 163.891 164.495 164.692 165.17 165.167 165.461 165.347 162.826 
163.506 163.717 164.298 164.362 164.754 164.702 165.002 164.953 161.575 
162.332 162.612 163.317 163.513 163.977 164.018 164.351 164.387 164.688 
164.721 160.362 161.062 161.37 162.162 162.459 163.105 163.199 163.647 
163.644 164.051 164.048 164.417 164.345 159.337 159.94 160.182 160.912 
161.171 161.925 162.018 162.647 162.567 163.116 163.019 163.545 163.422 
163.854 163.628 158.354 158.935 159.091 159.736 159.887 160.592 160.666 
161.338 161.27 161.871 161.767 162.367 162.31 162.84 162.701 163.058 
162.774 157.373 157.923 158.023 158.61 158.686 159.318 159.384 160.027 
160.037 160.608 160.554 161.113 161.115 161.713 161.733 162.192 162.05 
162.276 161.984 165.821 165.342 165.514 165.283 164.623 164.863 164.567 
164.815 164.525 163.904 164.128 163.9 164.099 163.851 164.028 163.697 
163.264 163.499 163.4 163.577 163.436 163.511 163.191 163.199 162.713 
162.513 162.85 162.735 163.05 162.896 163.107 162.748 162.757 162.142 
162.089 161.444 161.557 161.976 161.732 162.154 161.805 162.235 161.765 
162.069 161.409 161.472 160.729 160.754 160.185 160.505 160.921 160.603 
160.994 160.508 160.898 160.332 160.771 160.197 160.531 159.891 160.026 
159.422 159.556 159.131 159.506 159.855 159.522 159.855 159.393 159.656 
159.107 159.393 158.904 159.267 158.813 159.102 158.582 158.768 158.279 
158.509 158.133 158.658 158.909 158.559 158.824 158.411 158.647 158.178 
158.375 157.916 158.158 157.756 158.047 157.619 157.866 157.39 157.618 
157.2 157.486 157.157 166.003 166.216 165.991 165.637 166.264 166.142 
165.778 165.498 164.964 165.993 166.02 165.66 165.54 165.032 164.735 
164.171 165.557 165.628 165.305 165.31 164.894 164.736 164.204 163.934 
163.432 165.142 165.189 164.883 164.928 164.591 164.553 164.103 163.911 
163.363 163.153 162.647 164.684 164.748 164.388 164.476 164.127 164.197 
163.779 163.723 163.164 162.996 162.393 162.255 161.701 164.15 164.214 
163.784 163.896 163.491 163.634 163.212 163.287 162.767 162.7 162.091 
161.952 161.353 161.24 160.679 163.639 163.659 163.197 163.258 162.829 
162.95 162.549 162.668 162.23 162.254 161.738 161.642 161.073 160.922 
160.363 160.233 159.71 163.171 163.169 162.707 162.714 162.29 162.344 
161.966 162.05 161.672 161.733 161.302 161.283 160.772 160.659 160.1 
159.955 159.432 159.317 158.862 162.737 161.881 162.311 162.283 160.943 
161.443 161.472 161.882 161.881 159.796 160.441 160.51 161.041 161.074 
161.505 161.537 158.42 159.174 159.266 159.958 160.016 160.602 160.641 
161.144 161.195 157.153 157.824 157.958 158.647 158.74 159.418 159.482 
160.118 160.18 160.754 160.8 156.163 156.723 156.864 157.429 157.524 
158.147 158.236 158.894 158.969 159.619 159.669 160.276 160.267 155.259 
155.802 155.883 156.388 156.394 156.966 157.03 157.677 157.746 158.381 
158.397 159.035 159.025 159.651 159.598 154.394 154.896 154.946 155.391 
155.318 155.817 155.822 156.461 156.54 157.177 157.183 157.768 157.749 
158.369 158.381 158.985 158.964 153.645 154.071 154.134 154.507 154.443 
154.808 154.778 155.292 155.385 155.993 156.064 156.616 156.636 157.184 
157.261 157.839 157.928 158.45 158.462 153.28 152.76 153.28 153.709 
152.176 152.698 153.159 153.651 154.011 151.794 152.159 152.619 153.098 
153.526 153.949 154.35 151.556 151.845 152.218 152.626 153.105 153.526 
153.997 154.399 154.92 150.993 151.459 151.776 152.245 152.724 153.175 
153.697 154.098 154.616 155.036 155.572 150.109 150.668 150.997 151.64 
152.145 152.76 153.326 153.812 154.353 154.756 155.284 155.68 156.191 
149.513 149.857 150.178 150.76 151.277 152.018 152.622 153.314 153.888 
154.44 155.002 155.443 155.998 156.35 156.872 149.426 149.544 149.85 
150.14 150.608 151.164 151.755 152.471 153.061 153.786 154.367 155.031 
155.622 156.148 156.687 157.059 157.537 149.488 149.601 149.921 150.051 
150.467 150.735 151.268 151.733 152.318 152.93 153.52 154.233 154.843 
155.568 156.141 156.734 157.205 157.636 158.039 158.149 157.247 157.787 
157.946 156.11 156.744 156.851 157.513 157.712 154.795 155.489 155.603 
156.331 156.553 157.272 157.501 153.519 154.184 154.355 155.081 155.342 
156.086 156.356 157.051 157.27 152.396 153.007 153.205 153.888 154.127 
154.855 155.079 155.836 156.062 156.801 157.045 151.443 151.986 152.166 
152.774 152.921 153.591 153.712 154.472 154.663 155.497 155.772 156.582 
156.865 150.695 151.138 151.29 151.774 151.834 152.373 152.417 153.085 
153.279 154.097 154.448 155.29 155.643 156.409 156.688 150.092 150.45 
150.529 150.926 150.919 151.343 151.343 151.878 152.068 152.802 153.217 
154.046 154.493 155.249 155.596 156.268 156.553 149.539 149.823 149.773 
150.121 150.035 150.436 150.411 150.894 151.051 151.69 152.068 152.862 
153.336 154.139 154.551 155.252 155.589 156.218 156.536 157.301 156.381 
157.218 157.937 155.421 156.267 157.043 157.875 158.603 154.512 155.31 
156.058 156.944 157.77 158.597 159.378 153.714 154.445 155.175 155.989 
156.846 157.74 158.639 159.45 160.276 153.138 153.756 154.537 155.226 
156.101 156.907 157.874 158.711 159.619 160.373 161.155 152.876 153.322 
154.087 154.685 155.544 156.272 157.242 158.038 158.97 159.713 160.498 
161.187 161.852 152.924 153.181 153.84 154.301 155.068 155.713 156.592 
157.393 158.3 159.081 159.843 160.517 161.146 161.793 162.346 153.166 
153.305 153.897 154.176 154.869 155.301 156.052 156.698 157.529 158.331 
159.114 159.846 160.463 161.089 161.613 162.222 162.677 153.41 153.552 
154.111 154.317 154.965 155.238 155.894 156.277 156.976 157.583 158.355 
159.085 159.773 160.419 160.944 161.512 161.949 162.505 162.863 157.987 
158.612 158.58 159.107 159.251 159.198 159.752 159.693 160.22 160.018 
159.886 160.446 160.365 160.979 160.894 161.454 160.932 160.747 161.312 
161.144 161.783 161.7 162.341 162.181 162.639 161.831 161.704 162.317 
162.111 162.766 162.606 163.29 163.108 163.61 163.301 163.609 162.53 
162.539 163.208 163.113 163.828 163.688 164.446 164.208 164.782 164.367 
164.702 164.253 164.516 162.99 163.114 163.768 163.853 164.57 164.64 
165.434 165.38 166.003 165.643 165.968 165.442 165.665 165.188 165.384 
163.262 163.452 164.03 164.223 164.843 165.105 165.819 166.077 166.666 
166.647 166.911 166.592 166.705 166.303 166.42 165.978 166.01 163.387 
163.614 164.122 164.35 164.868 165.169 165.766 166.153 166.69 166.944 
167.197 167.183 167.243 167.083 167.136 166.874 166.869 166.447 166.322 
157.802 158.908 158.195 157.823 159.996 159.269 158.898 158.166 157.772 
161.17 160.385 159.994 159.234 158.87 158.14 157.819 162.295 161.552 
161.113 160.339 159.965 159.255 158.973 158.266 157.999 163.252 162.6 
162.174 161.429 160.996 160.306 159.985 159.362 159.057 158.401 158.067 
164.153 163.533 163.178 162.471 162.039 161.309 160.907 160.274 159.904 
159.31 158.896 158.309 157.925 164.957 164.397 164.024 163.425 163.008 
162.329 161.887 161.194 160.76 160.103 159.647 159.034 158.605 158.083 
157.761 165.502 165.042 164.556 164.097 163.628 163.138 162.68 162.108 
161.644 160.989 160.5 159.816 159.355 158.757 158.414 157.94 157.696 
165.806 165.423 164.885 164.478 163.978 163.586 163.145 162.73 162.303 
161.79 161.331 160.697 160.232 159.574 159.197 158.635 158.374 157.909 
157.688 166.142 166.354 166.296 166.382 166.669 166.564 166.671 166.547 
166.503 166.931 166.879 166.914 166.811 166.719 166.534 166.268 166.88 
166.979 166.942 166.93 166.748 166.64 166.351 166.164 165.818 166.721 
166.841 166.889 166.89 166.755 166.625 166.384 166.218 165.954 165.741 
165.432 166.777 166.826 167.038 166.979 167.017 166.792 166.673 166.395 
166.227 165.951 165.706 165.4 165.047 166.931 167.012 167.277 167.253 
167.357 167.179 167.122 166.842 166.687 166.35 166.084 165.716 165.344 
164.98 164.554 166.889 167.106 167.336 167.426 167.482 167.437 167.366 
167.229 167.065 166.803 166.477 166.095 165.651 165.268 164.824 164.473 
164.048 166.542 166.896 167.097 167.321 167.354 167.426 167.367 167.353 
167.243 167.092 166.791 166.438 165.949 165.544 165.061 164.723 164.303 
163.98 163.572 
POINT_DATA 1002
SCALARS Distance double
LOOKUP_TABLE default
152.826 153.254 152.554 151.999 151.929 152.203 151.307 151.376 151.371 
151.694 150.878 150.924 150.895 151.189 151.544 150.675 150.708 150.747 
151.016 151.252 151.283 150.567 150.635 150.618 150.773 150.825 150.678 
150.45 150.351 150.443 150.334 150.306 150.117 149.847 149.646 149.579 
150.066 150.223 149.945 149.806 149.529 149.172 149.003 149.068 149.274 
150.01 150.236 149.72 149.433 149.214 148.941 148.716 148.756 149.002 
149.337 150.229 150.453 149.81 149.303 149.03 148.905 148.691 148.569 
148.701 148.982 149.332 153.055 152.41 152.768 152.025 152.539 151.809 
151.512 152.557 151.14 151.138 151.445 152.985 150.318 150.258 150.643 
152.205 153.751 150.45 149.558 149.999 150.604 153.283 154.608 151.656 
150.114 149.776 150.405 150.691 154.212 155.511 152.926 151.511 150.521 
150.552 150.816 150.59 155.157 156.488 153.94 152.811 151.749 151.235 
151.228 150.982 150.501 156.176 157.395 154.952 153.89 152.909 152.15 
151.874 151.641 151.083 150.597 157.468 156.265 157.433 156.283 157.392 
155.098 156.307 157.53 155.173 154.048 156.499 157.734 155.25 154.127 
153.103 156.745 157.733 155.528 154.313 153.318 152.558 156.833 157.586 
155.867 154.752 153.719 152.958 152.314 156.805 157.494 155.994 155.105 
154.177 153.308 152.529 151.764 156.778 157.477 155.958 155.128 154.321 
153.438 152.52 151.708 151.063 156.756 157.46 155.923 155.036 154.185 
153.297 152.349 151.554 151.049 150.729 150.584 150.775 150.472 150.907 
150.614 149.946 151.268 150.698 150.228 149.371 152.049 151.032 150.508 
149.946 149.144 153.083 151.825 150.906 150.393 149.763 149.006 154.137 
152.973 151.692 150.77 150.135 149.388 148.736 155.16 154.2 152.907 
151.549 150.582 149.852 149.156 148.731 156.114 155.316 154.238 152.836 
151.534 150.671 150.042 149.525 149.226 156.941 156.263 155.409 154.262 
152.921 151.825 151.145 150.661 150.262 149.954 150.195 149.743 149.48 
148.989 148.882 148.922 148.519 148.314 148.532 148.792 148.504 148.137 
148.2 148.49 148.666 148.52 148.289 148.109 148.162 148.321 148.447 
148.495 148.455 148.284 148.101 148.114 148.231 148.434 148.732 148.566 
148.447 148.223 148.106 148.135 148.28 148.609 149.264 148.773 148.498 
148.297 148.141 148.064 148.095 148.374 148.88 150.216 149.402 150.472 
149.558 150.946 148.745 150.162 151.835 148.955 148.431 151.327 152.964 
149.883 148.896 148.336 152.553 154.019 151.164 150.007 148.918 148.207 
153.559 154.916 152.154 151.024 149.851 148.644 148.066 154.473 155.683 
153.046 151.76 150.662 149.454 148.498 148.236 155.282 156.319 154.054 
152.712 151.478 150.382 149.44 148.913 148.824 155.928 156.855 154.941 
153.798 152.508 151.324 150.458 149.927 149.649 149.489 150.895 151.226 
151.796 152.276 152.811 151.699 153.568 154.212 153.016 152.454 155.099 
155.656 154.46 153.921 153.436 156.45 156.905 155.928 155.361 154.876 
154.453 157.841 158.409 157.337 156.877 156.369 155.826 155.371 159.585 
160.009 158.957 158.414 157.976 157.343 156.668 156.168 161.056 161.059 
160.604 159.891 159.362 158.836 158.087 157.409 156.871 161.865 161.659 
161.755 161.159 160.498 160.018 159.436 158.731 158.091 157.476 157.881 
157.298 158.393 157.671 158.924 156.55 158.042 159.399 156.843 155.651 
158.545 159.938 157.202 155.95 154.488 159.274 160.503 157.762 156.312 
154.803 153.21 159.863 160.783 158.4 156.755 155.16 153.585 152.245 
160.131 160.868 158.848 157.206 155.635 154.065 152.696 151.661 160.472 
161.145 159.307 157.7 156.234 154.807 153.305 152.157 151.249 158.132 
158.723 158.872 159.66 159.807 159.482 160.661 160.892 160.582 160.197 
161.61 161.902 161.499 161.313 160.697 162.47 162.742 162.285 162.134 
161.759 161.119 163.294 163.516 163.127 162.898 162.654 162.179 161.456 
164.119 164.357 163.993 163.69 163.448 163.3 162.619 161.592 164.972 
165.288 164.801 164.444 164.028 164.108 164.006 162.949 161.737 165.795 