# vtk DataFile Version 4.0
vtk output
ASCII
DATASET POLYDATA
POINTS 1002 float
-78.0645 -112.962 72.4739 -77.6484 -114.056 71.9885 -77.4806 -113.4 71.2752 
-78.195 -112.44 71.7938 -77.5601 -112.873 70.6205 -78.6107 -111.687 73.2593 
-78.6646 -112.041 71.2422 -78.0718 -112.533 70.0142 -79.069 -111.262 72.6616 
-79.2588 -110.379 74.1212 -79.3837 -111.632 70.7082 -78.9036 -112.13 69.379 
-79.803 -110.873 72.1697 -79.9103 -109.952 73.5832 -80.0544 -109.128 74.8187 
-80.1438 -111.049 70.1675 -79.8913 -111.579 68.9141 -80.5081 -110.332 71.6196 
-80.6701 -109.432 73.0225 -80.7591 -108.556 74.1972 -80.9593 -107.774 75.3096 
-81.0678 -110.468 69.9132 -81.0529 -111.073 68.835 -81.2146 -109.682 71.1446 
-81.3233 -108.735 72.4084 -81.4253 -107.777 73.5294 -81.5927 -106.909 74.5731 
-81.6386 -106.094 75.6537 -82.1731 -109.917 69.8973 -82.2546 -110.546 68.8647 
-82.1888 -109.062 70.9378 -82.1583 -108.006 71.9466 -82.1086 -106.929 72.9613 
-82.1911 -105.963 73.9677 -82.2091 -105.074 74.9639 -82.0277 -104.257 75.9011 
-83.1683 -109.202 69.8008 -83.272 -109.885 68.8212 -83.1751 -108.339 70.7808 
-83.1793 -107.281 71.6356 -83.053 -106.158 72.5064 -82.9553 -105.162 73.4926 
-82.9366 -104.291 74.4817 -82.7785 -103.461 75.3722 -82.5419 -102.733 76.1597 
-84.0876 -108.46 69.7538 -84.1692 -109.271 68.9376 -84.0603 -107.558 70.6161 
-84.0923 -106.568 71.3854 -84.0501 -105.491 72.1168 -83.9054 -104.481 72.9787 
-83.8229 -103.663 73.9522 -83.7458 -102.948 74.9052 -83.5435 -102.266 75.7564 
-83.3225 -101.674 76.504 -85.121 -107.901 69.9355 -85.0951 -108.831 69.2894 
-85.1107 -106.931 70.6085 -85.0825 -105.98 71.2517 -85.0223 -104.968 71.8665 
-84.8703 -103.922 72.5467 -84.7207 -103.047 73.3582 -84.6583 -102.386 74.2862 
-84.553 -101.823 75.2521 -84.3327 -101.299 76.1277 -84.086 -100.834 76.8637 
-77.1207 -114.536 71.3168 -76.8452 -113.777 70.4779 -76.6237 -115.072 70.5966 
-76.4175 -114.389 69.4647 -76.3502 -116.153 69.5529 -76.9289 -113.272 69.6451 
-76.3463 -115.613 68.136 -76.402 -117.637 68.5397 -76.6733 -113.975 68.3363 
-77.5929 -113.002 68.8358 -76.6368 -117.077 67.1592 -76.9045 -118.791 68.1625 
-76.8131 -115.157 66.9106 -77.5297 -113.712 67.44 -78.6653 -112.626 68.1463 
-77.3937 -118.205 67.0443 -77.8273 -119.503 68.213 -77.323 -116.45 66.2709 
-77.8086 -114.721 66.3833 -78.7741 -113.309 67.0465 -79.935 -112.105 67.8643 
-78.5213 -119.041 67.3051 -78.877 -120.19 68.1496 -78.329 -117.54 66.5844 
-78.5246 -115.821 66.3081 -79.2295 -114.225 66.5327 -80.2771 -112.794 67.1014 
-81.3496 -111.59 67.9146 -79.7611 -119.766 67.4468 -79.9578 -120.871 68.0208 
-79.6455 -118.42 67.0323 -79.7122 -116.808 66.7293 -80.1357 -115.218 66.5456 
-80.9518 -113.677 66.6808 -81.8875 -112.209 67.1858 -82.6662 -110.993 67.9401 
-81.0445 -120.335 67.5588 -81.1345 -121.358 68.0759 -81.0008 -119.118 67.2265 
-81.0424 -117.612 66.9131 -81.2894 -116.082 66.5039 -81.8635 -114.606 66.3251 
-82.6071 -113.002 66.614 -83.2225 -111.525 67.2167 -83.6868 -110.358 68.0168 
-82.2758 -120.715 67.7824 -82.2908 -121.651 68.3017 -82.2713 -119.632 67.3859 
-82.3003 -118.264 66.9559 -82.4316 -116.788 66.3709 -82.7949 -115.407 65.9763 
-83.3592 -113.88 66.1363 -83.851 -112.241 66.6973 -84.1796 -110.916 67.4493 
-84.5507 -109.881 68.3587 -83.3553 -121.26 68.2561 -83.384 -120.233 67.7861 
-84.3077 -120.662 68.3112 -84.4029 -119.505 67.8536 -85.2 -119.813 68.4908 
-83.4551 -119.004 67.2821 -85.4767 -118.636 67.9531 -86.2292 -118.903 68.732 
-84.6704 -118.224 67.1693 -83.5847 -117.556 66.566 -86.6694 -117.812 68.0952 
-87.3771 -118.022 68.9951 -85.9779 -117.442 67.1914 -84.9812 -116.845 66.4062 
-83.8121 -116.129 65.9385 -87.7356 -116.836 68.4954 -88.4676 -116.924 69.3733 
-87.1253 -116.546 67.5156 -86.329 -116.022 66.7311 -85.2472 -115.356 66.1639 
-84.2062 -114.628 65.9341 -88.6835 -115.495 69.1921 -89.5544 -115.572 69.7897 
-87.9627 -115.28 68.2951 -87.3101 -114.858 67.4593 -86.4931 -114.283 66.9008 
-85.5185 -113.606 66.5485 -84.6114 -112.884 66.4752 -89.9026 -114.076 69.7147 
-90.8241 -114.26 70.0198 -88.9808 -113.847 69.1769 -88.1934 -113.51 68.4417 
-87.4946 -113.054 67.822 -86.6779 -112.51 67.4196 -85.7268 -111.916 67.2231 
-84.8606 -111.354 67.2493 -91.4508 -112.859 69.8369 -92.2202 -113.141 70.0856 
-90.5092 -112.57 69.6103 -89.5315 -112.271 69.2308 -88.6618 -111.916 68.7732 
-87.8475 -111.506 68.3876 -86.9118 -111.085 68.154 -85.9411 -110.663 68.1152 
-85.1508 -110.245 68.2018 -92.9466 -111.798 69.8591 -93.4853 -112.164 70.1725 
-92.1701 -111.418 69.6998 -91.1961 -111.073 69.5655 -90.1681 -110.749 69.4063 
-89.2102 -110.416 69.2371 -88.2551 -110.106 69.0683 -87.258 -109.831 69.0033 
-86.3757 -109.53 69.0778 -85.6841 -109.172 69.1826 -86.2021 -107.754 70.0197 
-86.872 -107.997 69.871 -87.3772 -106.239 70.3588 -87.6347 -108.21 69.6852 
-88.0459 -106.185 70.012 -88.2342 -104.325 70.1973 -88.6172 -108.401 69.6098 
-88.9356 -106.213 69.7655 -89.0159 -104.038 69.7484 -88.9406 -102.424 70.0334 
-89.7111 -108.64 69.6706 -90.1178 -106.411 69.7818 -90.2473 -104.061 69.6252 
-90.1407 -102.159 69.7037 -90.0936 -100.922 70.2254 -90.7942 -108.948 69.6821 
-91.3386 -106.731 69.8318 -91.6743 -104.392 69.7604 -91.6546 -102.267 69.7047 
-91.5508 -100.717 69.9522 -91.5075 -99.7668 70.5489 -91.9032 -109.319 69.6612 
-92.4915 -107.124 69.7511 -92.9892 -104.854 69.7614 -93.1246 -102.717 69.7996 
-92.9069 -100.848 69.9199 -92.7233 -99.5719 70.2649 -92.5036 -98.791 70.9309 
-92.9518 -109.781 69.7323 -93.5565 -107.684 69.7892 -94.1343 -105.447 69.7138 
-94.5121 -103.38 69.7201 -94.3272 -101.417 69.956 -93.885 -99.7698 70.266 
-93.5491 -98.7059 70.7469 -93.1611 -97.9927 71.4467 -93.7685 -110.33 69.8798 
-94.389 -108.437 70.0134 -94.9555 -106.288 69.9672 -95.5346 -104.235 69.7928 
-95.7048 -102.291 69.9479 -95.3161 -100.443 70.3846 -94.8043 -99.0214 70.8214 
-94.3701 -98.097 71.3423 -93.897 -97.4102 71.9772 -94.3038 -110.889 70.1351 
-94.9335 -109.255 70.2841 -95.4228 -107.29 70.4067 -95.9523 -105.263 70.295 
-96.3895 -103.328 70.2626 -96.4146 -101.424 70.5976 -96.0818 -99.7312 71.038 
-95.6494 -98.516 71.4324 -95.1901 -97.687 71.9228 -94.6877 -97.0441 72.5226 
-86.3264 -106.626 70.5469 -87.4564 -105.019 70.7368 -86.3206 -105.578 71.0721 
-88.1449 -103.116 70.6071 -87.3557 -103.919 71.2172 -86.1891 -104.545 71.6252 
-88.8334 -101.326 70.6556 -87.9703 -101.966 71.2155 -87.0847 -102.755 71.8161 
-85.9413 -103.414 72.2369 -90.0723 -99.9819 70.9677 -88.7043 -100.257 71.3723 
-87.6985 -100.833 71.9242 -86.7104 -101.646 72.5287 -85.6574 -102.385 72.9468 
-91.3195 -98.9128 71.3456 -89.8145 -99.0269 71.699 -88.4731 -99.3272 72.132 
-87.4115 -100.021 72.8151 -86.4069 -100.848 73.3956 -85.4909 -101.634 73.8087 
-92.074 -97.9448 71.8034 -90.7429 -97.9847 72.1286 -89.3913 -98.1792 72.4948 
-88.2373 -98.7135 73.1728 -87.1717 -99.4678 73.9216 -86.1999 -100.243 74.4103 
-85.3785 -101.067 74.8253 -92.7412 -97.1753 72.2956 -91.4427 -97.0923 72.6094 
-90.1542 -97.2022 72.9655 -89.0152 -97.5859 73.5868 -87.9211 -98.2085 74.3836 
-86.8323 -98.9088 75.0002 -85.9255 -99.7102 75.4421 -85.1608 -100.586 75.8424 
-93.5976 -96.6891 72.801 -92.3083 -96.5007 73.1129 -90.9568 -96.5196 73.4963 
-89.7039 -96.739 74.0717 -88.5468 -97.1582 74.7796 -87.3962 -97.7162 75.3931 
-86.3548 -98.3984 75.8898 -85.5513 -99.2638 76.3519 -84.8531 -100.153 76.6981 
-94.7849 -96.5733 73.4435 -93.6468 -96.2374 73.7324 -94.7309 -96.2745 74.7744 
-93.5437 -96.0277 75.1212 -94.4148 -96.2117 76.4243 -92.2445 -96.132 74.1231 
-93.1289 -96.0105 76.8679 -93.9197 -96.341 78.0699 -92.0046 -95.9602 75.6424 
-90.7101 -96.2096 74.6915 -92.5798 -96.0939 78.6012 -93.4388 -96.5719 79.5268 
-91.4857 -95.8523 77.449 -90.2486 -95.9952 76.2669 -89.2287 -96.431 75.3442 
-92.0736 -96.2919 80.1371 -92.8923 -96.8997 80.8118 -90.9411 -95.8804 79.1983 
-89.6631 -95.8706 77.9892 -88.5864 -96.2173 76.7529 -87.8817 -96.8229 75.8729 
-91.4764 -96.7076 81.4362 -92.1917 -97.4119 81.9459 -90.45 -96.216 80.7172 
-89.1738 -96.0444 79.715 -87.9977 -96.1855 78.4063 -87.1746 -96.6002 77.1285 
-86.6748 -97.3578 76.3341 -90.8674 -97.3918 82.476 -91.5744 -98.0773 82.9518 
-89.9713 -96.8875 81.8419 -88.7856 -96.6015 81.1132 -87.5391 -96.4632 80.1512 
-86.5739 -96.5522 78.82 -85.9905 -97.1085 77.5888 -85.7064 -98.1156 76.8538 
-90.4443 -98.2072 83.3417 -91.146 -98.7804 83.7914 -89.6251 -97.7548 82.6752 
-88.5379 -97.4217 81.9891 -87.2624 -97.1054 81.3749 -86.1458 -96.8785 80.455 
-85.4305 -97.1145 79.151 -85.1053 -97.9626 78.0231 -84.9849 -99.0942 77.291 
-90.0871 -99.0235 84.0758 -90.7209 -99.5396 84.401 -89.3434 -98.6158 83.475 
-88.3672 -98.2923 82.7297 -87.1821 -97.9724 82.1091 -86.0289 -97.6683 81.4962 
-85.1504 -97.6451 80.5104 -84.6547 -98.1536 79.2979 -84.4542 -99.0531 78.2844 
-84.3125 -100.003 77.5206 -95.6764 -97.2349 72.8773 -95.6795 -96.8414 74.146 
-96.4191 -97.6573 73.5946 -96.3183 -97.3492 75.1759 -96.938 -98.3577 74.6227 
-95.4896 -96.6125 75.8069 -96.7909 -98.1205 76.2033 -97.2755 -99.4005 75.5851 
-96.1202 -97.1754 76.8988 -95.1229 -96.603 77.5081 -96.9514 -99.291 76.9097 
-97.2117 -100.851 76.285 -96.6206 -98.0425 77.7304 -95.8583 -97.1917 78.467 
-94.6818 -96.7926 79.0084 -96.7201 -100.913 77.5232 -96.8532 -102.561 77.0087 
-96.7267 -99.3878 78.3839 -96.4142 -98.1603 79.2954 -95.4222 -97.4422 79.9018 
-94.1491 -97.1485 80.3178 -96.604 -102.653 78.3488 -96.7847 -104.144 77.8461 
-96.6301 -101.066 79.1718 -96.5773 -99.5923 80.1128 -95.8763 -98.53 80.756 
-94.6721 -98.0003 81.085 -93.4182 -97.7036 81.4544 -96.8574 -104.187 79.1653 
-97.0879 -105.448 78.5308 -96.7365 -102.734 80.0173 -96.6023 -101.219 80.8692 
-96.0221 -99.9882 81.4167 -94.9606 -99.2382 81.7145 -93.8135 -98.7849 82.0487 
-92.684 -98.3826 82.5216 -97.0686 -105.57 79.7271 -97.2905 -106.654 79.0103 
-96.8713 -104.333 80.6211 -96.6052 -102.915 81.4263 -96.0247 -101.603 81.8632 
-95.0957 -100.678 82.1343 -94.1259 -100.039 82.5553 -93.1896 -99.4814 83.075 
-92.1617 -99.0215 83.5206 -96.9546 -106.883 80.0996 -97.1399 -107.838 79.4119 
[...]
CELL_DATA 2000
SCALARS Distance double
LOOKUP_TABLE default
154.208 153.484 153.876 153.959 153.077 153.348 153.528 153.748 153.8 
152.877 153.098 153.324 153.483 153.562 153.658 153.664 152.699 152.896 
153.081 153.288 153.345 153.459 153.396 153.504 153.452 152.718 152.754 
152.869 153 153.001 153.139 152.997 153.14 152.959 153.163 152.982 
152.939 152.868 152.907 152.872 152.795 152.792 152.588 152.654 152.41 
152.572 152.318 152.523 152.21 153.041 153.014 152.945 152.91 152.736 
152.656 152.377 152.311 152.039 152.072 151.858 151.942 151.705 151.767 
151.493 153.078 153.01 152.876 152.839 152.633 152.565 152.27 152.162 
151.86 151.803 151.604 151.626 151.496 151.492 151.354 151.294 151.18 
153.316 153.115 152.992 152.821 152.656 152.505 152.277 152.11 151.828 
151.687 151.451 151.424 151.3 151.349 151.282 151.291 151.233 151.182 
151.148 154.257 153.989 153.824 153.383 153.922 153.556 153.018 153.011 
152.842 154.313 153.643 152.974 152.716 152.476 152.609 152.623 155.134 
154.24 153.45 152.853 152.476 152.357 152.332 152.466 152.524 156.181 
155.223 154.432 153.551 153.045 152.566 152.459 152.345 152.424 152.47 
152.61 157.29 156.388 155.744 154.746 154.232 153.411 153.217 152.743 
152.794 152.59 152.745 152.719 152.899 158.369 157.568 157.092 156.172 
155.73 154.789 154.511 153.759 153.7 153.208 153.272 153.013 153.121 
153.033 153.101 159.402 158.683 158.306 157.517 157.119 156.254 155.878 
155.076 154.846 154.22 154.119 153.662 153.619 153.337 153.335 153.188 
153.196 160.364 159.719 159.383 158.689 158.302 157.522 157.069 156.29 
155.918 155.275 155.046 154.515 154.347 153.907 153.807 153.518 153.533 
153.359 153.443 160.742 160.913 160.503 159.789 160.912 160.602 159.899 
159.496 158.704 160.864 160.567 159.897 159.54 158.735 158.302 157.448 
160.914 160.578 159.96 159.576 158.833 158.349 157.511 157.043 156.292 
160.939 160.649 160.037 159.684 158.997 158.529 157.746 157.211 156.465 
156.014 155.412 160.81 160.596 159.956 159.687 158.987 158.649 157.901 
157.465 156.708 156.242 155.572 155.192 154.658 160.667 160.444 159.84 
159.566 158.895 158.584 157.899 157.553 156.869 156.459 155.797 155.376 
154.816 154.478 154.067 160.658 160.388 159.873 159.548 158.984 158.606 
158.032 157.636 157.09 156.669 156.142 155.681 155.207 154.763 154.402 
154.044 153.799 160.739 160.463 159.998 159.678 159.175 158.806 158.287 
157.892 157.398 156.993 156.535 156.106 155.692 155.254 154.924 154.516 
154.274 153.915 153.733 153.785 154.312 154.006 153.818 154.896 154.525 
154.202 153.801 153.267 155.597 155.13 154.723 154.165 153.484 152.986 
152.311 156.404 155.88 155.487 154.796 154.122 153.367 152.678 152.119 
151.706 157.243 156.707 156.354 155.658 155.086 154.241 153.6 152.792 
152.356 151.829 151.703 158.115 157.565 157.23 156.555 156.067 155.293 
154.743 153.895 153.381 152.65 152.359 151.939 151.862 159.013 158.473 
158.185 157.493 157.062 156.311 155.872 155.077 154.617 153.769 153.349 
152.671 152.464 152.075 152.006 159.864 159.383 159.177 158.52 158.159 
157.393 157.018 156.248 155.904 155.067 154.69 153.821 153.532 152.853 
152.759 152.3 152.286 160.627 160.218 160.084 159.525 159.239 158.53 
158.174 157.428 157.107 156.354 156.04 155.213 154.903 154.091 153.907 
153.254 153.219 152.71 152.736 153.497 153.502 153.402 153.099 152.999 
153.218 152.977 152.958 152.687 152.066 152.475 152.372 152.656 152.446 
152.496 152.238 151.411 151.58 151.472 151.856 151.76 152.066 151.845 
151.967 151.724 151.405 151.237 150.996 151.063 150.933 151.246 151.14 
151.432 151.259 151.429 151.297 151.604 151.383 151.064 150.846 150.572 
150.591 150.518 150.753 150.745 150.958 150.93 151.1 151.13 151.708 
151.519 151.18 150.946 150.587 150.431 150.288 150.356 150.423 150.576 
150.652 150.793 150.881 151.048 151.151 151.907 151.624 151.268 151.013 
150.654 150.462 150.268 150.25 150.275 150.38 150.45 150.569 150.634 
150.805 150.921 151.1 151.173 152.337 151.932 151.597 151.216 150.909 
150.603 150.417 150.275 150.244 150.262 150.272 150.355 150.345 150.506 
150.565 150.81 150.916 151.1 151.126 152.574 152.845 152.384 151.812 
153.335 152.747 152.107 151.632 151.11 153.926 153.298 152.63 152.027 
151.426 150.983 150.597 154.521 153.896 153.203 152.566 151.888 151.351 
150.85 150.538 150.328 155.099 154.493 153.799 153.134 152.407 151.799 
151.188 150.776 150.423 150.287 150.213 155.634 155.067 154.43 153.767 
153.076 152.38 151.735 151.151 150.676 150.36 150.163 150.153 150.202 
156.197 155.629 155.071 154.439 153.84 153.139 152.531 151.821 151.275 
150.713 150.385 150.152 150.151 150.211 150.413 156.841 156.268 155.777 
155.148 154.622 153.946 153.392 152.677 152.119 151.424 150.989 150.511 
150.398 150.271 150.46 150.542 150.8 157.469 156.951 156.517 155.917 
155.431 154.766 154.248 153.551 153.043 152.325 151.891 151.249 151.04 
150.667 150.753 150.673 150.883 150.928 151.071 153.127 154.133 153.546 
153.453 155.304 154.653 154.599 153.985 153.965 156.582 155.893 155.846 
155.203 155.184 154.56 154.558 157.816 157.146 157.076 156.466 156.454 
155.816 155.795 155.162 155.155 159.016 158.331 158.266 157.681 157.729 
157.113 157.107 156.428 156.387 155.747 155.718 160.358 159.607 159.596 
158.941 159.061 158.435 158.481 157.77 157.689 156.985 156.904 156.277 
156.225 161.775 161.052 161.095 160.39 160.502 159.829 159.857 159.136 
159.01 158.274 158.138 157.471 157.405 156.786 156.763 163.031 162.44 
162.498 161.875 161.928 161.259 161.188 160.459 160.261 159.534 159.364 
158.704 158.64 158.009 157.991 157.365 157.373 164.019 163.566 163.603 
163.125 163.133 162.558 162.417 161.715 161.457 160.732 160.539 159.899 
159.843 159.245 159.225 158.603 158.563 157.959 157.945 161.012 161.439 
160.996 160.477 161.861 161.387 160.797 160.331 159.652 162.267 161.763 
161.089 160.598 159.855 159.376 158.607 162.605 162.103 161.363 160.853 
160.064 159.557 158.762 158.29 157.537 162.903 162.385 161.646 161.126 
160.365 159.813 159.017 158.472 157.696 157.232 156.488 163.306 162.721 
162.017 161.46 160.787 160.213 159.488 158.845 158.044 157.44 156.657 
156.169 155.41 163.755 163.182 162.474 161.894 161.231 160.682 160.016 
159.397 158.609 157.9 157.05 156.412 155.639 155.125 154.434 164.036 
163.581 162.863 162.329 161.586 161.069 160.341 159.837 159.067 158.458 
157.6 156.902 156.086 155.461 154.787 154.273 153.712 164.146 163.793 
163.13 162.654 161.889 161.356 160.547 160.05 159.27 158.79 158.022 
157.44 156.671 156.015 155.337 154.734 154.18 153.672 153.206 161.363 
162.02 161.742 161.834 162.681 162.402 162.536 162.246 162.325 163.406 
163.066 163.212 162.961 163.145 162.799 162.839 164.298 163.844 163.963 
163.671 163.932 163.657 163.826 163.354 163.284 165.323 164.797 164.855 
164.474 164.699 164.448 164.686 164.34 164.372 163.788 163.627 166.321 
165.804 165.775 165.352 165.421 165.148 165.292 165.081 165.178 164.815 
164.766 164.161 164.022 167.197 166.71 166.59 166.173 166.101 165.773 
165.737 165.529 165.572 165.432 165.501 165.198 165.162 164.591 164.447 
167.973 167.49 167.284 166.87 166.744 166.392 166.288 165.961 165.898 
165.716 165.789 165.714 165.783 165.535 165.423 164.908 164.669 168.681 
168.201 167.901 167.466 167.275 166.967 166.903 166.576 166.502 166.151 
166.113 165.932 165.977 165.902 165.855 165.625 165.402 164.961 164.681 
168.943 168.825 168.639 168.078 168.426 168.37 167.884 167.776 167.409 
168.115 168.003 167.663 167.599 167.414 167.331 167.133 168.099 167.9 
167.637 167.512 167.453 167.419 167.35 167.148 166.843 168 167.931 
167.633 167.538 167.406 167.446 167.381 167.319 167.023 166.75 166.371 
167.632 167.7 167.382 167.384 167.113 167.23 167.072 167.183 166.894 
166.795 166.407 166.255 166.042 167.326 167.351 167.094 167.057 166.754 
166.809 166.618 166.764 166.557 166.576 166.259 166.188 165.95 165.955 
165.842 167.139 167.155 166.963 166.876 166.617 166.533 166.352 166.382 
166.263 166.291 166.093 166.042 165.814 165.792 165.615 165.66 165.45 
166.806 166.926 166.747 166.768 166.555 166.491 166.311 166.255 166.118 
166.095 165.922 165.892 165.673 165.646 165.427 165.417 165.17 165.158 
164.829 166.46 165.77 166.242 166.411 164.871 165.469 165.737 166.206 
166.33 163.871 164.536 164.948 165.551 165.866 166.175 166.22 162.998 
163.607 164.136 164.813 165.276 165.725 165.862 166.048 166.001 162.287 
162.826 163.306 164.009 164.472 165.062 165.2 165.551 165.474 165.738 
165.682 161.455 162.037 162.337 163.067 163.401 164.104 164.206 164.712 
164.628 165.04 165.009 165.388 165.409 160.403 161.029 161.207 161.931 
162.138 162.877 162.958 163.584 163.561 164.1 164.15 164.648 164.758 
165.14 165.185 159.347 159.925 160.08 160.736 160.889 161.566 161.632 
162.285 162.327 162.977 163.115 163.749 163.931 164.442 164.524 164.885 
164.88 158.414 158.921 159.056 159.637 159.766 160.362 160.419 161.012 
161.078 161.739 161.926 162.652 162.884 163.53 163.637 164.121 164.094 
164.492 164.454 166.323 165.907 165.996 165.66 165.494 165.635 165.352 
165.288 164.8 164.936 165.241 165.096 165.067 164.525 164.322 163.728 
164.074 164.556 164.485 164.72 164.226 164.06 163.329 163.2 162.735 
163.059 163.552 163.434 163.885 163.487 163.593 162.914 162.816 162.267 
162.314 162.038 162.119 162.513 162.326 162.755 162.425 162.707 162.189 
162.29 161.8 161.873 161.516 161.633 161.299 161.234 161.578 161.326 
161.681 161.339 161.655 161.223 161.476 161.048 161.27 160.872 161.044 
160.594 160.732 160.262 160.314 160.651 160.323 160.653 160.238 160.57 
160.119 160.456 160.014 160.353 159.913 160.209 159.719 159.931 159.415 
159.607 159.171 159.409 159.707 159.344 159.622 159.17 159.456 158.985 
159.317 158.867 159.227 158.77 159.117 158.64 158.946 158.477 158.733 
158.32 158.565 158.235 166.617 166.918 166.572 166.189 167.291 166.915 
166.447 166.067 165.644 167.483 167.257 166.762 166.328 165.718 165.414 
164.959 167.164 167.21 166.766 166.543 165.906 165.515 164.887 164.636 
164.131 166.594 166.702 166.314 166.331 165.829 165.627 165.016 164.668 
164.048 163.763 163.213 166.196 166.197 165.838 165.847 165.438 165.403 
164.915 164.731 164.109 163.774 163.113 162.838 162.29 165.906 165.874 
165.494 165.458 165.032 165.003 164.552 164.498 163.944 163.738 163.038 
162.747 162.09 161.908 161.392 165.566 165.542 165.1 165.084 164.616 
164.599 164.13 164.111 163.608 163.493 162.852 162.603 161.902 161.68 
161.091 160.985 160.489 165.176 165.15 164.67 164.644 164.158 164.145 
163.674 163.675 163.2 163.151 162.583 162.398 161.725 161.479 160.843 
160.677 160.151 160.068 159.595 164.761 163.883 164.316 164.251 162.876 
163.389 163.357 163.787 163.719 161.687 162.29 162.259 162.814 162.763 
163.24 163.207 160.369 161.015 160.98 161.621 161.596 162.183 162.165 
162.711 162.703 159.118 159.738 159.797 160.392 160.417 160.979 160.958 
161.555 161.538 162.139 162.068 158.017 158.603 158.745 159.319 159.374 
159.877 159.804 160.323 160.243 160.862 160.787 161.392 161.234 157.015 
157.57 157.639 158.23 158.21 158.781 158.647 159.167 159.015 159.572 
159.482 160.078 159.977 160.528 160.384 156.046 156.573 156.556 157.068 
156.961 157.512 157.388 157.952 157.848 158.391 158.324 158.858 158.8 
159.323 159.247 159.756 159.69 155.12 155.612 155.622 156.04 155.96 
156.368 156.316 156.783 156.792 157.293 157.303 157.791 157.763 158.238 
158.192 158.677 158.645 159.148 159.137 154.697 154.322 154.727 155.161 
154.04 154.351 154.73 155.135 155.516 153.834 154.07 154.401 154.751 
155.146 155.508 155.898 153.637 153.86 154.097 154.403 154.739 155.133 
155.515 155.92 156.346 153.219 153.585 153.771 154.06 154.234 154.607 
154.888 155.403 155.804 156.343 156.799 152.404 152.956 153.191 153.641 
153.802 154.106 154.292 154.701 155.087 155.675 156.179 156.763 157.239 
151.548 152.017 152.262 152.885 153.209 153.677 153.962 154.274 154.679 
155.083 155.66 156.168 156.735 157.222 157.699 151.144 151.313 151.481 
151.961 152.355 152.98 153.424 153.938 154.4 154.829 155.402 155.829 
156.427 156.826 157.342 157.728 158.189 151.117 151.114 151.209 151.406 
151.728 152.197 152.659 153.261 153.75 154.373 154.914 155.513 156.075 
156.562 157.051 157.432 157.875 158.245 158.69 158.845 157.991 158.516 
158.717 157.128 157.626 157.729 158.296 158.47 156.09 156.653 156.675 
157.253 157.354 158.004 158.233 154.826 155.44 155.415 156.087 156.18 
156.868 157.075 157.79 158.092 153.599 154.135 154.113 154.779 154.947 
155.676 155.921 156.632 156.898 157.644 157.961 152.559 153.011 153.035 
153.601 153.832 154.512 154.813 155.493 155.743 156.437 156.714 157.492 
157.824 151.728 152.097 152.147 152.633 152.82 153.454 153.715 154.395 
154.623 155.291 155.549 156.277 156.629 157.396 157.744 151.243 151.441 
151.453 151.79 151.843 152.387 152.536 153.231 153.44 154.153 154.426 
155.154 155.534 156.281 156.684 157.379 157.699 151.101 151.133 151.058 
151.181 151.086 151.411 151.451 152.032 152.263 152.976 153.322 154.059 
154.477 155.224 155.661 156.374 156.745 157.375 157.664 160.833 159.913 
160.698 161.347 158.939 159.764 160.467 161.264 161.935 157.947 158.795 
159.509 160.356 161.069 161.85 162.5 156.967 157.83 158.559 159.391 
160.107 160.938 161.624 162.405 163.067 156.019 156.894 157.693 158.495 
159.261 160.041 160.785 161.537 162.218 162.967 163.604 155.192 156.004 
156.853 157.667 158.509 159.301 160.146 160.85 161.562 162.178 162.775 
163.452 164.01 154.727 155.327 156.151 156.865 157.681 158.511 159.378 
160.219 160.977 161.615 162.154 162.697 163.203 163.838 164.359 154.701 
155.072 155.847 156.327 157.05 157.691 158.443 159.299 160.054 160.889 
161.463 162.089 162.541 163.111 163.606 164.219 164.695 154.857 155.136 
155.833 156.174 156.829 157.227 157.861 158.436 159.108 159.869 160.509 
161.268 161.798 162.445 162.919 163.51 163.962 164.533 164.899 161.513 
162.046 162.078 162.702 162.605 162.634 163.263 163.299 163.919 163.189 
163.209 163.86 163.884 164.559 164.557 165.144 163.834 163.86 164.615 
164.594 165.379 165.32 166.013 165.839 166.31 164.387 164.516 165.334 
165.406 166.276 166.269 167.04 166.843 167.33 166.971 167.249 164.723 
164.947 165.67 165.928 166.715 166.99 167.743 167.8 168.234 167.961 
168.125 167.772 167.932 164.998 165.19 165.772 166.028 166.627 167.056 
167.739 168.151 168.622 168.647 168.771 168.521 168.607 168.37 168.546 
165.272 165.436 165.94 166.084 166.546 166.833 167.42 167.898 168.465 
168.777 169.045 169.013 169.138 168.982 169.175 168.975 169.107 165.415 
165.627 166.086 166.236 166.636 166.802 167.274 167.605 168.133 168.515 
168.873 169.091 169.29 169.369 169.579 169.542 169.681 169.447 169.365 
161.432 162.587 161.881 161.601 163.803 163.067 162.74 161.98 161.602 
164.98 164.277 163.965 163.164 162.73 161.929 161.536 166.005 165.37 
165.054 164.352 163.939 163.118 162.665 161.884 161.548 166.872 166.289 
165.912 165.312 164.917 164.245 163.787 163.027 162.584 161.886 161.543 
167.647 167.111 166.731 166.116 165.689 165.091 164.651 164.018 163.53 
162.856 162.394 161.779 161.39 168.319 167.859 167.523 166.931 166.465 
165.838 165.359 164.769 164.281 163.675 163.169 162.562 162.116 161.558 
161.201 168.791 168.433 168.054 167.605 167.099 166.551 165.991 165.426 
164.885 164.33 163.81 163.256 162.796 162.263 161.906 161.401 161.137 
168.937 168.703 168.219 167.929 167.389 167.009 166.427 165.958 165.371 
164.863 164.316 163.818 163.362 162.895 162.554 162.098 161.843 161.387 
161.184 166.898 167.236 167.114 167.179 167.437 167.363 167.46 167.397 
167.513 167.791 167.621 167.706 167.619 167.755 167.711 167.715 168.213 
168.072 168.143 167.946 168.031 167.926 167.926 167.758 167.479 168.347 
168.393 168.447 168.338 168.33 168.22 168.172 167.983 167.711 167.375 
166.95 168.455 168.488 168.564 168.478 168.394 168.356 168.282 168.209 
167.986 167.677 167.279 166.889 166.531 168.902 168.819 169.006 168.718 
168.625 168.388 168.316 168.249 168.153 167.963 167.656 167.281 166.914 
166.555 166.253 169.352 169.374 169.631 169.347 169.267 168.834 168.708 
168.427 168.362 168.155 167.939 167.63 167.274 166.934 166.6 166.278 
165.956 169.399 169.623 169.823 169.808 169.704 169.447 169.243 168.936 
168.765 168.471 168.197 167.872 167.476 167.188 166.82 166.573 166.239 
165.945 165.58 
POINT_DATA 1002
SCALARS Distance double
LOOKUP_TABLE default
154.264 154.629 153.735 153.634 153.088 153.986 153.327 152.821 153.632 
153.788 153.153 152.663 153.499 153.563 153.646 152.878 152.564 153.221 
153.322 153.31 153.406 152.828 152.77 152.908 152.882 152.794 152.779 
152.767 153.013 153.041 152.889 152.596 152.294 152.15 152.031 151.837 
152.994 153.095 152.836 152.492 152.051 151.781 151.652 151.439 151.209 
152.948 153.198 152.693 152.376 151.95 151.586 151.451 151.389 151.24 
151.096 153.205 153.552 152.83 152.453 152.01 151.531 151.243 151.212 
151.25 151.213 151.138 154.41 153.329 154.231 153.11 154.43 152.62 
153.395 155.12 152.424 152.39 154.212 156.073 152.748 152.263 152.352 
155.388 157.086 153.698 152.694 152.426 152.502 156.691 158.096 155.156 
153.846 153.115 152.849 152.892 157.918 159.094 156.671 155.368 154.323 
153.668 153.307 153.172 159.04 160.074 157.964 156.727 155.543 154.677 
154.019 153.538 153.301 160.046 160.975 159.066 157.88 156.606 155.61 
154.857 154.17 153.719 153.582 161.207 160.257 161.276 160.274 161.189 
159.167 160.24 161.165 159.18 157.861 160.333 161.248 159.311 158.011 
156.665 160.369 161.205 159.413 158.27 156.962 155.773 160.219 161.011 
159.285 158.268 157.169 155.998 154.952 160.109 160.886 159.2 158.207 
157.229 156.216 155.183 154.318 160.176 160.918 159.342 158.416 157.48 
156.568 155.648 154.794 154.1 160.302 161.002 159.522 158.666 157.786 
156.937 156.107 155.327 154.658 154.069 153.74 154.216 153.506 154.709 
153.69 152.612 155.363 154.107 152.664 151.662 156.178 154.93 153.341 
152.037 151.426 157.016 155.878 154.462 153.006 152.032 151.658 157.901 
156.783 155.551 154.226 152.919 152.132 151.8 158.858 157.806 156.609 
155.464 154.168 152.967 152.296 151.926 159.775 158.906 157.774 156.68 
155.575 154.332 153.301 152.683 152.252 160.582 159.9 158.918 157.835 
156.812 155.738 154.642 153.78 153.197 152.762 153.267 152.887 152.783 
151.931 152.304 152.259 151.153 151.34 151.643 151.639 151.138 150.703 
150.761 151.023 151.122 151.359 150.703 150.316 150.483 150.735 150.941 
151.403 150.782 150.28 150.276 150.516 150.71 150.996 151.547 150.858 
150.328 150.201 150.354 150.486 150.713 151.059 152.001 151.246 150.628 
150.301 150.236 150.231 150.323 150.664 151.031 152.963 152.192 153.382 
152.672 153.957 151.462 153.272 154.555 151.954 150.867 153.866 155.146 
152.479 151.239 150.452 154.473 155.682 153.064 151.686 150.646 150.178 
155.052 156.174 153.771 152.398 151.128 150.261 150.057 155.666 156.753 
154.5 153.253 151.946 150.756 150.144 150.257 156.387 157.386 155.281 
154.088 152.838 151.577 150.64 150.417 150.71 157.083 157.94 156.084 
154.931 153.73 152.564 151.536 150.95 150.896 151.048 153.66 154.018 
154.723 155.223 155.971 154.56 156.49 157.291 155.83 155.167 157.661 
158.501 157.082 156.455 155.767 158.838 159.716 158.305 157.805 157.066 
156.331 160.272 161.091 159.686 159.2 158.443 157.562 156.822 161.799 
162.44 161.219 160.608 159.769 158.822 158.033 157.365 163.085 163.57 
162.613 161.955 161.005 160.014 159.259 158.632 157.98 164.046 164.443 
163.68 163.11 162.19 161.182 160.427 159.848 159.198 158.512 161.456 
160.954 161.911 161.299 162.377 160.143 161.618 162.811 160.356 159.073 
161.885 163.124 160.593 159.25 157.968 162.152 163.44 160.907 159.602 
158.204 156.92 162.578 163.904 161.327 160.134 158.733 157.202 155.855 
163.067 164.296 161.783 160.59 159.329 157.771 156.184 154.881 163.384 
164.429 162.14 160.84 159.599 158.278 156.756 155.321 154.16 161.635 
162.141 162.289 162.781 162.978 162.69 163.444 163.802 163.416 163.332 
164.291 164.805 164.159 164.226 163.924 165.3 165.869 164.979 164.964 
164.875 164.323 166.248 166.851 165.784 165.508 165.411 165.254 164.726 
167.035 167.709 166.493 166.034 165.676 165.636 165.62 165.145 167.732 
168.483 167.09 166.656 166.181 165.843 165.892 165.844 165.286 168.394 
169.171 167.582 167.16 166.899 166.435 166.066 165.976 165.751 165.173 