# vtk DataFile Version 4.0
vtk output
ASCII
DATASET POLYDATA
POINTS 1002 float
-81.9072 -117.004 73.5825 -81.9511 -118.606 72.9615 -81.7958 -117.895 72.1634 
-81.7994 -116.161 72.8903 -81.6441 -116.959 71.4238 -81.7302 -115.182 74.2302 
-81.8299 -115.248 72.1931 -81.7848 -115.974 70.7744 -81.8822 -114.446 73.5708 
-81.816 -113.524 74.7693 -82.2318 -114.482 71.5148 -82.2697 -115.192 70.2345 
-82.313 -113.835 72.9172 -82.3336 -113.012 74.1062 -82.3673 -112.174 75.2827 
-82.9744 -113.997 70.9802 -82.9773 -114.676 69.8138 -83.0456 -113.401 72.3206 
-83.0964 -112.655 73.5656 -83.0632 -111.733 74.6699 -83.1418 -111.035 75.9179 
-83.8363 -113.564 70.604 -83.7969 -114.171 69.4541 -83.9117 -112.952 71.8529 
-83.9374 -112.233 73.0965 -83.83 -111.274 74.193 -83.7867 -110.458 75.3423 
-83.918 -109.935 76.5857 -84.5452 -112.808 70.2213 -84.562 -113.423 69.1515 
-84.6236 -112.137 71.4009 -84.6687 -111.43 72.5923 -84.5261 -110.53 73.6684 
-84.3713 -109.657 74.7479 -84.4446 -109.087 75.9663 -84.565 -108.586 77.0959 
-85.0906 -111.794 69.87 -85.259 -112.533 69.0331 -85.0809 -111.003 70.8735 
-85.1703 -110.284 72.0032 -85.1158 -109.507 73.0868 -84.9238 -108.665 74.1051 
-84.8813 -108.02 75.2425 -84.9624 -107.511 76.4194 -84.9128 -106.934 77.3989 
-85.771 -110.907 69.7462 -86.0405 -111.751 69.1313 -85.6278 -110.016 70.4829 
-85.6603 -109.267 71.4598 -85.6849 -108.577 72.564 -85.5575 -107.794 73.5947 
-85.4265 -107.076 74.6087 -85.3904 -106.508 75.6831 -85.2947 -105.939 76.6992 
-85.0779 -105.372 77.5664 -86.6644 -110.282 69.8176 -86.9003 -111.134 69.3037 
-86.4904 -109.385 70.3747 -86.4375 -108.629 71.154 -86.4166 -107.961 72.1623 
-86.3139 -107.199 73.1914 -86.1606 -106.426 74.1507 -86.0276 -105.797 75.0936 
-85.8651 -105.239 76.0142 -85.6157 -104.683 76.8817 -85.3549 -104.217 77.6941 
-81.6867 -119.552 71.8729 -81.5428 -118.851 70.962 -81.3424 -120.323 70.8408 
-81.3921 -119.631 69.9973 -81.2092 -121.017 70.042 -81.557 -117.9 70.2468 
-81.4324 -120.289 69.2735 -81.2855 -121.857 69.3445 -81.6305 -118.707 69.3332 
-81.8599 -116.887 69.6802 -81.4815 -121.123 68.3403 -81.5231 -122.914 68.5311 
-81.6472 -119.366 68.3091 -81.932 -117.679 68.6031 -82.3269 -116.02 69.1482 
-81.7259 -122.184 67.2924 -82.1347 -123.832 67.8123 -81.6106 -120.19 66.9695 
-81.8785 -118.342 67.2063 -82.3383 -116.732 67.8899 -82.9981 -115.335 68.6671 
-82.5033 -122.973 66.8224 -83.1021 -124.277 67.4659 -82.0276 -121.123 66.1795 
-82.086 -119.177 66.0773 -82.5364 -117.483 66.692 -83.1512 -115.959 67.5279 
-83.9045 -114.647 68.3364 -83.6081 -123.26 66.9538 -84.0994 -124.37 67.4252 
-83.0258 -121.705 66.3828 -82.8541 -119.966 65.9804 -83.1982 -118.386 66.2177 
-83.6791 -116.773 66.8601 -84.2332 -115.166 67.5006 -84.8265 -113.816 68.2309 
-84.6781 -123.303 67.2196 -84.9751 -124.308 67.5743 -84.2312 -121.961 66.874 
-83.9708 -120.415 66.4159 -84.1809 -119.023 66.2482 -84.5443 -117.588 66.5944 
-84.8484 -115.849 67.0659 -85.2564 -114.242 67.5947 -85.6998 -112.967 68.3459 
-85.6099 -123.254 67.4688 -85.7686 -124.136 67.865 -85.3649 -122.136 67.1666 
-85.1599 -120.744 66.6969 -85.2614 -119.357 66.2128 -85.5348 -118.043 66.2177 
-85.6786 -116.459 66.6327 -85.8423 -114.748 67.1143 -86.1949 -113.365 67.7551 
-86.5829 -112.244 68.5704 -86.5008 -123.355 67.9137 -86.4259 -122.457 67.4745 
-87.3408 -122.507 67.9288 -87.4172 -121.633 67.3221 -88.2968 -121.633 67.8393 
-86.3453 -121.306 66.9538 -88.5328 -120.723 67.1076 -89.3625 -120.686 67.7149 
-87.5244 -120.446 66.5709 -86.3869 -119.866 66.2388 -89.6174 -119.582 67.1081 
-90.3713 -119.534 67.7533 -88.6654 -119.377 66.5027 -87.6441 -118.869 65.9419 
-86.5818 -118.362 65.8357 -90.5054 -118.109 67.4127 -91.1171 -118.073 68.0955 
-89.638 -117.945 66.8772 -88.6684 -117.578 66.344 -87.6983 -117.117 65.9478 
-86.6646 -116.766 66.1194 -91.2422 -116.46 67.9064 -91.7657 -116.48 68.6294 
-90.5962 -116.268 67.2848 -89.6965 -115.996 66.9124 -88.689 -115.682 66.6024 
-87.6517 -115.331 66.449 -86.6581 -115.024 66.6933 -92.0877 -115.002 68.4549 
-92.6872 -115.104 69.0645 -91.6166 -114.757 67.6941 -90.953 -114.437 67.1835 
-89.9345 -114.185 67.0548 -88.7694 -113.949 67.0169 -87.7116 -113.699 67.0678 
-86.8644 -113.504 67.3586 -93.1789 -113.828 68.8706 -93.8818 -114.008 69.2443 
-92.6372 -113.575 68.2611 -92.111 -113.204 67.6264 -91.2568 -112.85 67.3749 
-90.0673 -112.613 67.4745 -88.8965 -112.465 67.6214 -87.9737 -112.382 67.8425 
-87.2413 -112.327 68.2027 -94.356 -112.717 69.0382 -95.0198 -112.992 69.2655 
-93.6701 -112.438 68.7401 -93.0108 -112.088 68.3234 -92.2331 -111.699 68.0065 
-91.207 -111.386 68.0065 -90.0697 -111.222 68.1847 -89.0718 -111.2 68.39 
-88.2801 -111.24 68.6813 -87.5822 -111.23 69.0253 -87.6634 -110.014 69.7443 
-88.3755 -110.028 69.4562 -88.4739 -108.722 70.0787 -89.1398 -109.954 69.1474 
-89.192 -108.571 69.7533 -89.2394 -107.235 70.3714 -90.0569 -109.886 68.9359 
-90.0986 -108.441 69.5222 -90.0575 -106.93 70.0402 -89.9764 -105.639 70.687 
-91.0965 -109.926 68.778 -91.155 -108.4 69.3983 -91.1448 -106.769 69.8815 
-90.9381 -105.257 70.3964 -90.7386 -104.149 70.9989 -92.1308 -110.088 68.6637 
-92.1499 -108.389 69.2374 -92.2497 -106.693 69.7029 -92.0642 -105.04 70.2114 
-91.7297 -103.732 70.7302 -91.466 -102.82 71.3089 -93.1261 -110.365 68.7129 
-93.142 -108.405 69.0893 -93.24 -106.577 69.3985 -93.156 -104.916 69.8552 
-92.8183 -103.451 70.4221 -92.465 -102.377 71.0067 -92.1102 -101.59 71.6854 
-94.0903 -110.744 68.8486 -94.2884 -108.64 69.0089 -94.3517 -106.595 69.1766 
-94.2484 -104.885 69.4785 -93.9588 -103.35 69.9591 -93.6135 -102.063 70.5732 
-93.2147 -101.185 71.3297 -92.7207 -100.596 72.1623 -94.9563 -111.165 68.9543 
-95.3878 -109.169 68.9465 -95.5584 -107.047 69.0779 -95.4183 -105.18 69.3696 
-95.0923 -103.532 69.7223 -94.771 -102.035 70.1563 -94.4105 -100.929 70.8598 
-93.9042 -100.301 71.7906 -93.3262 -99.9359 72.7325 -95.6247 -111.594 69.1235 
-96.1374 -109.826 69.0298 -96.464 -107.851 69.1077 -96.4501 -105.915 69.4376 
-96.1362 -104.104 69.8429 -95.7911 -102.427 70.1536 -95.472 -101.062 70.6031 
-95.0296 -100.199 71.4076 -94.4654 -99.7598 72.4034 -93.8949 -99.4726 73.3723 
-87.5334 -109.099 70.265 -88.4336 -107.812 70.7124 -87.4604 -108.267 70.9305 
-89.1667 -106.291 71.1342 -88.3554 -106.98 71.5369 -87.3717 -107.529 71.8175 
-89.8329 -104.689 71.4595 -88.988 -105.358 71.9825 -88.1291 -106.078 72.3805 
-87.1968 -106.698 72.7744 -90.5639 -103.242 71.7462 -89.6051 -103.75 72.2914 
-88.6816 -104.379 72.7229 -87.8404 -105.118 73.1679 -86.9942 -105.821 73.7133 
-91.2194 -101.888 72.1161 -90.2919 -102.309 72.6769 -89.2884 -102.867 73.1552 
-88.3708 -103.545 73.5476 -87.592 -104.339 74.1061 -86.8028 -105.113 74.6786 
-91.7576 -100.734 72.5961 -90.868 -101.001 73.1312 -89.9388 -101.516 73.7082 
-88.9306 -102.154 74.1585 -88.0527 -102.877 74.6181 -87.3256 -103.734 75.1541 
-86.5751 -104.541 75.6121 -92.3272 -99.9743 73.1905 -91.3932 -100.064 73.6603 
-90.5304 -100.399 74.2041 -89.5503 -100.922 74.731 -88.5158 -101.483 75.2026 
-87.7058 -102.257 75.6741 -87.0287 -103.205 76.0991 -86.2885 -104.006 76.4787 
-92.9608 -99.4318 73.8808 -92.0026 -99.4107 74.3541 -91.1218 -99.5811 74.8065 
-90.1953 -99.9721 75.2407 -89.0961 -100.376 75.6718 -88.0979 -100.906 76.1404 
-87.4022 -101.809 76.5914 -86.7484 -102.8 76.9702 -85.9977 -103.554 77.3289 
-93.8847 -98.9405 74.4573 -92.9153 -98.7373 75.0494 -93.7979 -98.2219 75.6946 
-92.7804 -97.8448 76.3094 -93.5591 -97.6831 76.8737 -91.9276 -98.7033 75.567 
-92.5297 -97.3792 77.367 -93.307 -97.857 77.901 -91.7537 -97.9533 76.7933 
-90.9558 -99.0407 75.9514 -92.2972 -97.9068 78.3618 -93.1933 -98.5805 79.1444 
-91.4557 -97.8298 77.8597 -90.6229 -98.6032 77.1312 -89.8095 -99.5239 76.263 
-92.089 -98.8423 79.813 -93.0771 -99.2008 80.776 -91.0935 -98.505 79.1057 
-90.1255 -98.6476 78.4206 -89.2476 -99.2254 77.4841 -88.567 -99.9432 76.6685 
-91.826 -99.4413 81.4671 -92.8302 -99.6582 82.238 -90.7311 -99.2382 80.6545 
-89.6348 -99.0539 79.9327 -88.6581 -99.2115 79.0076 -88.0139 -99.7767 77.9709 
-87.6625 -100.672 77.1772 -91.5711 -99.9563 82.6779 -92.5241 -100.276 83.1892 
-90.4965 -99.827 81.9427 -89.3886 -99.6273 81.2631 -88.328 -99.5238 80.5137 
-87.5961 -99.8984 79.4913 -87.2707 -100.734 78.4604 -87.0369 -101.763 77.6326 
-91.3361 -100.714 83.5287 -92.2035 -101.081 83.9042 -90.374 -100.589 82.8633 
-89.3831 -100.481 82.191 -88.3529 -100.328 81.6115 -87.4692 -100.448 80.8228 
-86.9757 -101.04 79.8024 -86.6716 -101.881 78.8241 -86.315 -102.726 77.9986 
-91.0725 -101.607 84.3078 -91.8687 -101.958 84.5751 -90.2159 -101.459 83.7505 
-89.3588 -101.4 83.0808 -88.4541 -101.344 82.5159 -87.5305 -101.382 81.8889 
-86.8335 -101.667 80.9969 -86.382 -102.19 80.005 -85.9492 -102.803 79.1014 
-85.5555 -103.457 78.3271 -94.7752 -99.2926 73.4908 -94.7842 -98.8125 74.7132 
-95.6558 -99.3241 73.7703 -95.6943 -98.9625 75.1415 -96.5242 -99.6055 74.3133 
-94.6655 -98.3662 76.0738 -96.5989 -99.3014 75.8181 -97.2188 -100.108 75.0489 
-95.6008 -98.8461 76.6886 -94.409 -98.3191 77.4133 -97.2918 -99.8922 76.6537 
-97.5357 -101.052 75.8735 -96.5659 -99.3212 77.5268 -95.4273 -99.0367 78.285 
-94.233 -98.6998 78.7445 -97.5717 -101.096 77.5324 -97.5747 -102.54 76.7172 
-97.2433 -100.047 78.3876 -96.4367 -99.5313 79.2102 -95.3006 -99.2606 79.8363 
-94.1681 -99.1332 80.2774 -97.5721 -102.747 78.3161 -97.5564 -104.14 77.4405 
-97.4163 -101.428 79.1362 -97.0036 -100.448 79.9029 -96.1899 -99.8671 80.6691 
-95.0977 -99.6329 81.2911 -93.9741 -99.6038 81.7914 -97.5495 -104.346 78.9232 
-97.5424 -105.578 78.0123 -97.3536 -103.103 79.7277 -97.0704 -101.987 80.4055 
-96.638 -101.103 81.1889 -95.808 -100.603 81.9411 -94.7245 -100.427 82.445 
-93.6252 -100.308 82.8507 -97.5891 -105.871 79.4333 -97.5485 -107 78.5335 
-97.3788 -104.741 80.2177 -97.0409 -103.684 80.8399 -96.7854 -102.685 81.6108 
-96.3236 -101.903 82.4857 -95.404 -101.545 82.9997 -94.3068 -101.362 83.2442 
-93.2436 -101.142 83.5699 -97.626 -107.4 79.8709 -97.574 -108.424 79.0056 
-97.4646 -106.356 80.6371 -97.1091 -105.362 81.2423 -96.8569 -104.335 81.9757 
[...]
CELL_DATA 2000
SCALARS Distance double
LOOKUP_TABLE default
159.95 158.936 159.318 158.964 157.936 158.302 158.06 158.34 157.999 
157.218 157.449 157.347 157.592 157.437 157.564 157.375 156.9 156.976 
156.994 157.133 157.16 157.219 157.123 157.151 157.112 156.797 156.836 
156.891 156.972 157.042 157.091 157.014 156.987 156.871 156.967 157.003 
156.566 156.685 156.635 156.802 156.744 156.903 156.72 156.782 156.513 
156.629 156.51 156.788 156.776 156.177 156.29 156.062 156.289 156.073 
156.361 156.09 156.289 155.925 156.087 155.817 156.125 156.005 156.377 
156.201 155.938 155.884 155.571 155.636 155.384 155.595 155.396 155.603 
155.342 155.465 155.2 155.39 155.232 155.539 155.375 155.665 155.39 
155.973 155.777 155.488 155.334 155.135 155.119 155.042 155.108 155.017 
155.044 154.886 154.919 154.788 154.91 154.8 154.959 154.783 154.924 
154.713 160.279 160.299 159.973 159.262 160.341 159.994 159.344 158.939 
158.247 160.565 160.121 159.516 159.086 158.442 158.008 157.467 160.961 
160.393 159.685 159.25 158.592 158.213 157.645 157.332 157.007 161.546 
160.828 159.94 159.363 158.577 158.239 157.646 157.43 157.05 156.939 
156.792 162.273 161.489 160.562 159.731 158.87 158.292 157.738 157.431 
157.11 156.945 156.775 156.733 156.618 162.965 162.26 161.45 160.537 
159.726 158.89 158.413 157.839 157.63 157.208 157.053 156.784 156.662 
156.538 156.374 163.537 162.955 162.298 161.499 160.775 159.916 159.428 
158.762 158.553 157.994 157.781 157.261 157.03 156.699 156.554 156.352 
156.21 164.008 163.523 162.991 162.348 161.722 160.948 160.389 159.729 
159.39 158.88 158.569 158.027 157.64 157.162 156.903 156.625 156.528 
156.314 156.238 164.08 163.903 163.723 163.119 163.734 163.556 162.95 
162.693 161.939 163.564 163.394 162.791 162.524 161.757 161.429 160.654 
163.332 163.2 162.588 162.349 161.575 161.25 160.469 160.2 159.596 
162.921 162.874 162.235 162.081 161.316 161.05 160.247 159.991 159.324 
159.198 158.681 162.377 162.364 161.722 161.639 160.912 160.742 159.984 
159.755 159.039 158.865 158.272 158.213 157.714 161.991 161.878 161.311 
161.168 160.532 160.359 159.707 159.501 158.854 158.621 158.03 157.855 
157.399 157.317 156.984 161.888 161.668 161.186 160.942 160.407 160.14 
159.577 159.317 158.76 158.502 157.98 157.741 157.337 157.171 156.92 
156.814 156.636 161.863 161.647 161.17 160.929 160.414 160.136 159.585 
159.294 158.749 158.476 157.983 157.745 157.356 157.188 156.936 156.834 
156.66 156.568 156.383 156.23 156.513 156.267 156.004 156.773 156.523 
156.231 155.957 155.611 157.16 156.828 156.547 156.199 155.809 155.495 
155.115 157.738 157.304 157.034 156.609 156.241 155.789 155.357 154.996 
154.645 158.457 157.938 157.605 157.135 156.754 156.285 155.821 155.345 
154.905 154.565 154.264 159.275 158.69 158.263 157.696 157.219 156.746 
156.25 155.794 155.289 154.875 154.483 154.211 153.96 160.121 159.533 
159.087 158.402 157.853 157.236 156.72 156.207 155.714 155.251 154.82 
154.466 154.185 153.952 153.792 160.909 160.375 159.991 159.291 158.775 
158.022 157.524 156.838 156.386 155.775 155.353 154.86 154.558 154.237 
154.099 153.887 153.857 161.626 161.149 160.835 160.21 159.779 159.044 
158.598 157.831 157.406 156.647 156.234 155.551 155.221 154.722 154.567 
154.265 154.262 154.066 154.133 155.954 155.75 155.738 155.467 155.436 
155.529 155.361 155.313 155.134 154.964 155.169 155.12 155.22 155.123 
155.087 155.011 154.465 154.665 154.61 154.86 154.806 154.97 154.879 
154.956 154.897 154.082 154.203 154.093 154.3 154.205 154.462 154.375 
154.628 154.565 154.757 154.719 153.777 153.847 153.716 153.841 153.731 
153.888 153.803 154.033 154.036 154.315 154.359 154.571 154.607 153.6 
153.577 153.429 153.498 153.417 153.524 153.461 153.583 153.582 153.805 
153.907 154.182 154.279 154.492 154.562 153.689 153.527 153.384 153.308 
153.249 153.288 153.269 153.336 153.294 153.419 153.454 153.718 153.838 
154.125 154.208 154.433 154.495 153.992 153.756 153.636 153.425 153.36 
153.259 153.259 153.23 153.184 153.182 153.13 153.277 153.364 153.662 
153.815 154.075 154.164 154.359 154.435 154.164 154.281 154.078 153.785 
154.332 154.127 153.835 153.696 153.481 154.547 154.176 153.86 153.723 
153.557 153.454 153.333 155.27 154.59 154.211 153.851 153.694 153.536 
153.402 153.301 153.182 156.39 155.557 155.122 154.456 154.197 153.794 
153.597 153.363 153.176 153.095 153.045 157.427 156.697 156.227 155.485 
155.074 154.452 154.115 153.663 153.423 153.17 153.128 153.085 153.257 
158.227 157.62 157.154 156.492 156.028 155.353 154.93 154.315 154.032 
153.592 153.565 153.354 153.544 153.492 153.752 158.955 158.384 157.982 
157.358 156.968 156.299 155.941 155.247 154.984 154.384 154.333 153.953 
154.097 153.899 154.079 153.985 154.137 159.698 159.152 158.827 158.227 
157.92 157.283 157.022 156.348 156.141 155.471 155.369 154.831 154.866 
154.511 154.587 154.353 154.41 154.288 154.391 154.438 155.022 154.691 
154.618 155.859 155.4 155.365 154.915 154.781 156.908 156.371 156.403 
155.856 155.83 155.205 155.127 158.065 157.497 157.597 157.04 157.148 
156.485 156.518 155.784 155.885 159.366 158.741 158.875 158.299 158.467 
157.873 157.987 157.295 157.397 156.72 156.938 160.749 160.122 160.245 
159.624 159.761 159.18 159.309 158.709 158.811 158.191 158.33 157.754 
157.936 162.031 161.481 161.589 160.98 161.061 160.463 160.579 160.005 
160.14 159.546 159.673 159.078 159.196 158.63 158.728 163.235 162.727 
162.871 162.283 162.354 161.741 161.851 161.287 161.469 160.897 161.051 
160.422 160.508 159.876 159.931 159.349 159.418 164.422 163.941 164.125 
163.562 163.653 163.033 163.134 162.564 162.754 162.224 162.397 161.797 
161.853 161.193 161.19 160.559 160.582 160.024 160.107 161.953 162.173 
161.773 161.133 162.332 161.924 161.233 160.84 160.112 162.5 162.056 
161.344 160.928 160.198 159.775 158.996 162.755 162.256 161.512 161.043 
160.281 159.852 159.056 158.623 157.801 163.062 162.55 161.767 161.228 
160.385 159.907 159.071 158.648 157.802 157.387 156.579 163.3 162.834 
162.048 161.493 160.602 160.033 159.177 158.692 157.902 157.435 156.654 
156.213 155.538 163.496 163.039 162.305 161.781 160.949 160.325 159.491 
158.912 158.202 157.676 156.998 156.443 155.794 155.33 154.858 163.825 
163.297 162.638 162.104 161.405 160.775 160.013 159.354 158.664 158.092 
157.485 156.917 156.314 155.746 155.253 154.829 154.535 164.323 163.744 
163.137 162.559 161.96 161.341 160.679 159.982 159.297 158.638 158.032 
157.452 156.896 156.326 155.826 155.321 154.975 154.612 154.407 162.425 
163.22 162.829 162.756 163.971 163.654 163.686 163.179 163.004 164.675 
164.395 164.535 164.143 164.077 163.445 163.216 165.443 165.109 165.307 
165.013 165.116 164.572 164.419 163.696 163.478 166.316 165.906 166.095 
165.83 166.079 165.659 165.649 164.953 164.742 163.991 163.779 167.225 
166.758 166.867 166.613 166.899 166.63 166.765 166.204 166.061 165.295 
165.05 164.284 164.033 168.189 167.632 167.598 167.301 167.51 167.363 
167.579 167.251 167.233 166.605 166.398 165.608 165.335 164.525 164.249 
169.223 168.586 168.413 167.982 168.063 167.889 168.106 167.944 168.029 
167.646 167.524 166.904 166.66 165.881 165.604 164.782 164.558 170.194 
169.581 169.326 168.795 168.749 168.448 168.592 168.425 168.523 168.29 
168.213 167.83 167.627 167.078 166.825 166.13 165.898 165.147 164.994 
170.558 170.754 170.351 169.732 170.925 170.561 170.047 169.622 169.17 
171.102 170.75 170.282 169.944 169.556 169.208 168.931 171.249 170.907 
170.353 170.081 169.646 169.46 169.142 168.961 168.721 171.255 170.987 
170.358 170.065 169.549 169.402 169.058 168.984 168.705 168.623 168.348 
171.07 170.916 170.352 170.061 169.576 169.355 169.076 168.925 168.691 
168.544 168.269 168.154 167.817 170.806 170.72 170.251 170.036 169.607 
169.436 169.219 169.078 168.88 168.643 168.326 168.098 167.739 167.572 
167.129 170.573 170.512 170.096 169.922 169.479 169.379 169.117 169.127 
168.895 168.787 168.373 168.148 167.683 167.501 167.06 166.855 166.318 
170.314 170.308 169.949 169.798 169.36 169.215 168.893 168.895 168.636 
168.625 168.191 168.046 167.507 167.369 166.906 166.779 166.309 166.053 
165.479 170.022 169.395 169.754 169.688 168.573 169.069 169.075 169.335 
169.158 167.465 168.144 168.29 168.724 168.669 168.843 168.723 166.135 
166.902 167.144 167.852 167.998 168.381 168.31 168.479 168.39 164.894 
165.557 165.766 166.586 166.872 167.576 167.626 167.977 167.768 168.012 
167.825 163.843 164.393 164.505 165.215 165.465 166.301 166.471 167.091 
166.92 167.246 166.944 167.279 167.106 162.797 163.342 163.386 163.999 
164.136 164.891 165.058 165.801 165.752 166.251 165.995 166.363 166.183 
166.592 166.53 161.705 162.247 162.26 162.854 162.932 163.601 163.71 
164.412 164.401 164.998 164.813 165.312 165.136 165.639 165.557 166.04 
165.946 160.67 161.159 161.154 161.713 161.773 162.397 162.474 163.119 
163.097 163.677 163.508 164.047 163.863 164.453 164.343 164.944 164.816 
165.335 165.124 169.991 169.566 169.644 169.315 169.011 169.093 168.696 
168.841 168.425 168.423 168.463 167.971 168.122 167.675 167.832 167.3 
167.759 167.81 167.277 167.399 166.96 167.084 166.573 166.631 166.028 
166.985 167.076 166.567 166.718 166.352 166.472 166.032 166.008 165.429 
165.39 164.835 166.209 166.298 165.798 165.977 165.657 165.882 165.538 
165.567 165.008 164.894 164.295 164.275 163.785 165.481 165.573 165.037 
165.174 164.759 165.063 164.741 164.99 164.496 164.485 163.832 163.757 
163.174 163.222 162.736 164.714 164.857 164.314 164.403 163.853 164.072 
163.654 164.019 163.602 163.83 163.231 163.244 162.591 162.596 162.042 
162.134 161.654 163.894 164.074 163.572 163.668 163.095 163.191 162.685 
162.929 162.521 162.828 162.338 162.512 161.893 161.959 161.367 161.444 
160.944 161.061 160.624 170.271 170.581 170.28 169.923 170.952 170.616 
170.315 169.923 169.484 171.325 170.987 170.648 170.312 169.945 169.51 
168.997 171.44 171.24 170.775 170.521 170.117 169.879 169.449 169.002 
168.378 171.169 171.168 170.707 170.513 170.012 169.871 169.48 169.297 
168.769 168.296 167.586 170.717 170.805 170.494 170.397 169.916 169.725 
169.281 169.178 168.744 168.518 167.891 167.431 166.741 170.327 170.372 
170.112 170.147 169.767 169.633 169.137 168.976 168.503 168.375 167.835 
167.577 166.921 166.545 165.922 170.039 170.003 169.657 169.72 169.371 
169.383 168.905 168.793 168.256 168.128 167.602 167.438 166.845 166.587 
165.956 165.668 165.083 169.791 169.712 169.293 169.273 168.886 168.921 
168.489 168.461 167.95 167.857 167.348 167.22 166.695 166.483 165.891 
165.622 165.026 164.775 164.226 169.506 168.839 169.117 168.983 168.039 
168.391 168.264 168.577 168.5 167.155 167.552 167.45 167.81 167.713 
168.09 168.044 166.183 166.642 166.551 166.962 166.863 167.254 167.173 
167.586 167.52 164.984 165.573 165.488 166.006 165.911 166.356 166.258 
166.683 166.611 167.034 166.955 163.677 164.293 164.251 164.858 164.796 
165.331 165.226 165.708 165.617 166.095 166.013 166.45 166.318 162.616 
163.094 163.085 163.627 163.593 164.157 164.056 164.59 164.465 165.01 
164.905 165.43 165.274 165.725 165.51 161.802 162.183 162.117 162.541 
162.44 162.951 162.827 163.368 163.219 163.781 163.657 164.235 164.093 
164.606 164.395 164.848 164.633 160.954 161.353 161.175 161.559 161.333 
161.791 161.612 162.137 161.99 162.531 162.412 162.976 162.877 163.416 
163.265 163.731 163.544 163.992 163.837 160.358 159.315 160.077 160.496 
158.26 158.952 159.374 160.156 160.61 157.58 158.031 158.455 159.107 
159.646 160.368 160.912 157.318 157.563 157.969 158.41 158.966 159.55 
160.136 160.777 161.33 157.237 157.408 157.705 158.022 158.439 158.941 
159.44 160.05 160.583 161.222 161.763 157.031 157.278 157.441 157.697 
157.898 158.323 158.668 159.282 159.775 160.465 161.029 161.687 162.236 
156.434 156.865 156.984 157.312 157.423 157.752 158.009 158.499 158.984 
159.646 160.259 160.952 161.532 162.158 162.648 155.554 156.062 156.205 
156.695 156.887 157.287 157.578 157.971 158.433 158.956 159.563 160.205 
160.806 161.442 161.944 162.525 162.954 154.819 155.195 155.365 155.867 
156.17 156.701 157.087 157.564 158.002 158.478 158.991 159.553 160.108 
160.72 161.236 161.825 162.287 162.836 163.27 163.297 162.28 162.856 
162.951 161.206 161.787 161.856 162.444 162.492 160.084 160.665 160.722 
161.332 161.41 161.982 162.079 158.976 159.513 159.525 160.153 160.242 
160.889 161.007 161.625 161.823 157.956 158.417 158.34 158.911 158.932 
159.635 159.731 160.456 160.592 161.34 161.548 156.956 157.388 157.246 
157.737 157.685 158.309 158.377 159.097 159.21 159.98 160.141 160.96 
161.131 155.948 156.348 156.196 156.662 156.615 157.147 157.229 157.836 
157.987 158.641 158.82 159.55 159.761 160.524 160.693 155.115 155.394 
155.269 155.671 155.666 156.144 156.233 156.787 156.949 157.542 157.726 
158.349 158.559 159.241 159.461 160.15 160.323 154.605 154.731 154.639 
154.898 154.904 155.27 155.308 155.794 155.889 156.491 156.641 157.283 
157.456 158.109 158.311 158.981 159.19 159.843 160.026 164.558 164.129 
164.664 165.332 163.628 164.209 164.873 165.46 166.181 163.027 163.676 
164.341 164.956 165.667 166.304 167.053 162.345 163.042 163.736 164.386 
165.081 165.746 166.492 167.161 167.912 161.69 162.357 163.091 163.774 
164.509 165.165 165.898 166.56 167.283 167.966 168.625 161.182 161.74 
162.469 163.154 163.977 164.649 165.424 166.017 166.706 167.311 167.943 
168.575 169.076 160.922 161.319 161.98 162.572 163.408 164.128 164.972 
165.596 166.274 166.791 167.376 167.924 168.458 168.978 169.372 160.902 
161.177 161.755 162.16 162.867 163.523 164.342 165.072 165.771 166.349 
166.874 167.384 167.872 168.399 168.832 169.285 169.6 160.892 161.189 
161.7 161.991 162.525 162.996 163.67 164.361 165.059 165.741 166.275 
166.83 167.251 167.783 168.174 168.697 169.008 169.459 169.677 164.978 
165.823 165.576 165.961 166.718 166.488 166.924 166.644 167.042 167.624 
167.412 167.874 167.616 168.03 167.735 168.077 168.567 168.388 168.946 
168.644 169.106 168.75 169.116 168.738 168.973 169.322 169.318 170.021 
169.828 170.406 169.986 170.36 169.846 170.062 169.567 169.668 169.651 
169.846 170.523 170.702 171.341 171.238 171.584 171.127 171.194 170.643 
170.657 170.178 170.214 169.795 169.976 170.481 170.832 171.408 171.738 
172.111 172.06 172.05 171.641 171.511 171.078 171.081 170.696 170.737 
169.985 170.092 170.504 170.711 171.211 171.556 172.023 172.248 172.424 
172.277 172.206 171.849 171.827 171.492 171.549 171.178 171.116 170.081 
170.247 170.652 170.802 171.259 171.462 171.951 172.168 172.543 172.575 
172.722 172.5 172.524 172.208 172.222 171.897 171.813 171.401 171.13 
164.67 165.576 164.882 164.473 166.622 165.839 165.334 164.661 164.268 
167.654 166.892 166.335 165.559 165.055 164.437 164.072 168.501 167.843 
167.282 166.536 165.955 165.25 164.785 164.224 163.848 169.153 168.58 
168.015 167.375 166.795 166.121 165.582 164.951 164.478 163.936 163.467 
169.729 169.177 168.61 168.021 167.462 166.876 166.339 165.72 165.159 
164.549 163.991 163.451 162.918 170.263 169.738 169.149 168.573 167.969 
167.448 166.894 166.372 165.774 165.181 164.55 163.97 163.42 162.909 
162.481 170.585 170.174 169.516 169.017 168.313 167.842 167.201 166.775 
166.155 165.676 165.051 164.518 163.993 163.476 163.1 162.618 162.347 
170.551 170.292 169.576 169.211 168.46 168.061 167.383 166.994 166.394 
165.98 165.44 164.989 164.559 164.096 163.788 163.31 163.06 162.58 
162.337 170.484 170.789 170.695 170.783 171.081 171.003 171.144 171.019 
171.154 171.446 171.371 171.565 171.417 171.606 171.469 171.605 171.749 
171.786 172.039 171.892 172.038 171.9 172 171.842 171.761 171.778 
172.01 172.343 172.335 172.428 172.278 172.22 172.079 171.888 171.728 
171.407 171.602 171.936 172.359 172.534 172.726 172.628 172.542 172.284 
172.034 171.778 171.465 171.253 170.928 171.439 171.764 172.253 172.514 
172.863 172.9 172.968 172.707 172.538 172.123 171.886 171.483 171.245 
170.902 170.646 171.319 171.641 172.123 172.41 172.773 172.965 173.118 
173.083 172.986 172.701 172.464 172.063 171.803 171.388 171.12 170.721 
170.436 171.135 171.493 171.899 172.206 172.444 172.724 172.817 173.019 
172.948 172.95 172.692 172.491 172.126 171.839 171.462 171.158 170.805 
170.483 170.163 
POINT_DATA 1002
SCALARS Distance double
LOOKUP_TABLE default
159.665 160.576 159.616 158.68 158.52 158.552 157.714 157.581 157.793 
157.657 157.059 157.02 157.275 157.248 157.225 156.856 156.829 157.072 
157.14 156.986 157.13 156.83 156.737 156.994 157.066 156.842 156.79 
157.093 156.495 156.472 156.588 156.655 156.444 156.26 156.486 156.753 
155.908 156.157 155.791 155.847 155.774 155.563 155.635 155.899 155.958 
155.594 156.068 155.216 155.152 155.194 155.064 154.979 155.088 155.144 
155.071 155.676 156.18 155.199 154.996 154.984 154.881 154.72 154.669 
154.648 154.562 154.509 160.651 159.656 160.594 159.736 160.697 158.645 
159.934 161.065 158.881 157.805 160.185 161.636 158.94 157.958 157.177 
160.667 162.337 158.971 157.826 157.162 156.817 161.464 163.019 159.559 
158.083 157.311 156.863 156.651 162.298 163.581 160.592 159.031 158.129 
157.457 156.845 156.497 162.989 164.044 161.609 160.127 159.131 158.404 
157.488 156.763 156.408 163.538 164.444 162.45 161.111 159.934 159.11 
158.197 157.242 156.709 156.471 164.261 163.372 164.078 163.222 163.904 
162.259 163.06 163.731 162.094 160.921 162.813 163.456 161.896 160.74 
159.75 162.357 162.953 161.538 160.519 159.489 158.74 161.786 162.397 
161.028 160.176 159.262 158.373 157.708 161.456 162.125 160.695 159.879 
159.071 158.235 157.49 157.006 161.427 162.115 160.681 159.851 159.008 
158.207 157.505 157.025 156.734 161.403 162.076 160.684 159.882 159.027 
158.219 157.531 157.04 156.749 156.503 156.01 156.291 155.714 156.535 
155.871 155.254 156.916 156.196 155.366 154.731 157.47 156.721 155.814 
154.899 154.311 158.13 157.22 156.328 155.33 154.491 153.994 158.92 
157.747 156.698 155.733 154.81 154.154 153.737 159.803 158.547 157.272 
156.197 155.217 154.438 153.969 153.674 160.645 159.531 158.255 157.049 
155.916 154.932 154.31 154.024 153.878 161.405 160.46 159.353 158.192 
156.981 155.808 154.927 154.466 154.3 154.225 155.531 155.347 155.212 
154.913 155.106 155.058 154.359 154.566 154.751 154.833 153.946 153.981 
154.074 154.304 154.563 153.606 153.602 153.615 153.726 154.083 154.437 
153.392 153.293 153.361 153.414 153.612 154.031 154.375 153.519 153.245 
153.214 153.238 153.238 153.517 153.972 154.28 153.877 153.517 153.323 
153.243 153.077 153.08 153.501 153.976 154.238 154.395 153.967 154.484 
153.936 154.579 153.608 154.017 155.048 153.632 153.437 154.709 156.058 
153.91 153.546 153.23 155.909 157.206 154.754 153.932 153.32 152.984 
156.98 158.099 155.798 154.677 153.743 153.212 153.195 157.784 158.802 
156.701 155.588 154.529 153.828 153.66 153.784 158.57 159.496 157.594 
156.611 155.628 154.798 154.378 154.258 154.199 159.393 160.209 158.521 
157.649 156.809 155.989 155.323 154.902 154.605 154.429 154.7 154.981 
155.389 155.835 156.356 155.284 156.926 157.447 156.452 155.756 158.123 
158.63 157.745 157.251 156.551 159.474 160 159.032 158.627 158.087 
157.555 160.897 161.356 160.37 159.885 159.417 158.933 158.506 162.196 
162.546 161.679 161.139 160.717 160.29 159.797 159.287 163.445 163.719 
162.976 162.409 162.009 161.685 161.18 160.548 159.96 164.665 164.887 
164.268 163.717 163.278 162.981 162.527 161.853 161.171 160.618 162.381 
161.537 162.603 161.637 162.761 160.528 161.776 162.966 160.622 159.449 
162.031 163.273 160.735 159.491 158.233 162.352 163.566 160.925 159.503 
158.226 156.953 162.59 163.75 161.211 159.679 158.355 157.131 155.881 
162.783 163.961 161.549 160.093 158.709 157.547 156.321 155.184 163.151 
164.368 161.984 160.688 159.265 158.024 156.888 155.737 154.841 162.822 
163.287 163.554 164.124 164.238 163.652 164.827 164.964 164.657 163.926 
165.54 165.83 165.558 165.137 164.2 166.352 166.77 166.396 166.288 
165.526 164.504 167.158 167.753 167.096 167.21 166.802 165.861 164.789 
167.989 168.828 167.653 167.786 167.746 167.158 166.18 165.042 168.945 
169.899 168.309 168.233 168.306 168.041 167.379 166.427 165.348 169.903 