# vtk DataFile Version 4.0
vtk output
ASCII
DATASET POLYDATA
POINTS 1002 float
-80.5194 -114.944 76.0514 -79.8488 -115.82 75.4609 -80.1736 -115.524 74.7918 
-81.0312 -114.668 75.4395 -80.7113 -115.224 74.1187 -81.1784 -113.836 76.5605 
-81.5612 -114.132 74.747 -81.2228 -114.664 73.3255 -81.6516 -113.291 75.9288 
-81.6041 -112.206 76.9162 -81.9033 -113.217 73.9321 -81.6481 -113.837 72.5807 
-82.059 -112.435 75.2364 -82.0036 -111.386 76.2657 -81.9838 -110.329 77.2438 
-82.3442 -112.342 73.2895 -82.3425 -113.131 72.2286 -82.5064 -111.53 74.5376 
-82.57 -110.602 75.6864 -82.5374 -109.577 76.6547 -82.5678 -108.662 77.6742 
-83.2562 -111.808 72.9854 -83.4026 -112.614 72.1112 -83.2728 -110.9 73.9739 
-83.3829 -110.003 75.1171 -83.3643 -109.021 76.1558 -83.2915 -108.041 77.1262 
-83.2206 -107.167 78.1321 -84.3734 -111.262 72.7458 -84.4849 -111.988 71.8924 
-84.2376 -110.301 73.5306 -84.2239 -109.327 74.4798 -84.1861 -108.359 75.53 
-84.0497 -107.365 76.5238 -83.9503 -106.492 77.5312 -83.8334 -105.753 78.5023 
-85.3568 -110.539 72.4889 -85.4268 -111.244 71.6967 -85.1491 -109.535 73.1741 
-84.9505 -108.43 73.9098 -84.8288 -107.442 74.821 -84.6646 -106.494 75.7911 
-84.5609 -105.655 76.8163 -84.5513 -105.021 77.8585 -84.4716 -104.488 78.7811 
-86.2477 -109.844 72.3541 -86.3087 -110.538 71.6631 -86.0506 -108.834 72.9401 
-85.7644 -107.63 73.5241 -85.5642 -106.605 74.2902 -85.3952 -105.736 75.1643 
-85.2217 -104.889 76.1113 -85.1811 -104.227 77.1688 -85.1756 -103.74 78.1683 
-85.0619 -103.297 79.0075 -87.1317 -109.215 72.2947 -87.1724 -109.887 71.6677 
-86.9782 -108.25 72.7699 -86.6981 -107.035 73.1997 -86.4738 -105.99 73.8711 
-86.3529 -105.224 74.7357 -86.1623 -104.417 75.5922 -85.9597 -103.624 76.532 
-85.8551 -103.051 77.5563 -85.7253 -102.587 78.4646 -85.513 -102.15 79.2239 
-79.4129 -116.536 74.3796 -79.6498 -116.109 73.5819 -79.116 -117.368 73.2178 
-79.1979 -116.767 72.2804 -78.9351 -118.267 72.0635 -80.1326 -115.742 72.7883 
-78.7664 -117.489 70.9948 -78.6044 -119.144 70.9539 -79.5423 -116.297 71.3881 
-80.7389 -115.223 71.9641 -78.3401 -118.338 69.8056 -78.3095 -120.12 69.9772 
-79.0376 -116.95 70.0707 -80.3606 -115.809 70.6636 -81.5133 -114.505 71.4093 
-78.522 -119.464 68.9949 -78.8008 -121.216 69.3875 -78.9457 -117.835 69.0937 
-80.2602 -116.449 69.6356 -81.6033 -115.099 70.3739 -82.5409 -113.803 71.2521 
-79.7029 -120.564 68.8988 -80.0695 -122.04 69.3865 -79.7543 -118.9 68.8059 
-80.6936 -117.234 69.1231 -81.9294 -115.64 69.6057 -82.8277 -114.287 70.2511 
-83.635 -113.139 71.0946 -81.1422 -121.145 69.3747 -81.2869 -122.345 69.807 
-81.1477 -119.683 69.132 -81.7003 -118.027 69.0642 -82.5803 -116.292 69.0971 
-83.2541 -114.79 69.3641 -83.8749 -113.58 70.0249 -84.6655 -112.417 70.8889 
-82.1966 -121.301 69.9018 -82.1691 -122.376 70.2616 -82.3509 -120.02 69.5744 
-82.8115 -118.572 69.1264 -83.4659 -116.983 68.6213 -83.9369 -115.469 68.5203 
-84.332 -114.184 69.0984 -84.9492 -112.933 70.0053 -85.6716 -111.671 70.8828 
-83.0758 -121.413 70.181 -83.0218 -122.401 70.545 -83.2723 -120.229 69.8122 
-83.7139 -118.939 69.1909 -84.3164 -117.581 68.2914 -84.7471 -116.196 67.7509 
-85.0084 -114.891 68.207 -85.4386 -113.593 69.27 -86.0466 -112.221 70.2204 
-86.6406 -110.951 70.976 -84.0947 -121.9 70.4317 -84.2218 -120.804 70.002 
-85.3727 -121.318 70.2675 -85.5454 -120.155 69.7497 -86.5804 -120.559 70.2223 
-84.5203 -119.535 69.4397 -86.7853 -119.399 69.6787 -87.6871 -119.671 70.3033 
-85.8508 -118.882 69.0697 -85.0462 -118.24 68.486 -87.994 -118.519 69.7984 
-88.8883 -118.686 70.4473 -87.0689 -118.162 69.1031 -86.2844 -117.618 68.151 
-85.5394 -116.92 67.5201 -89.2878 -117.374 70.0971 -90.0534 -117.451 70.7921 
-88.31 -117.18 69.4862 -87.4072 -116.822 68.6004 -86.6005 -116.216 67.6932 
-85.7945 -115.526 67.574 -90.4508 -115.91 70.6543 -91.0161 -116.005 71.3452 
-89.6272 -115.806 70.0404 -88.6574 -115.631 69.4012 -87.6994 -115.192 68.6764 
-86.8463 -114.594 68.3554 -86.1125 -114.07 68.6922 -91.4823 -114.442 71.2624 
-92.0045 -114.651 71.8271 -90.8751 -114.29 70.6066 -90.0602 -114.17 70.0594 
-89.0497 -113.889 69.6321 -88.0543 -113.39 69.3475 -87.2877 -112.914 69.4286 
-86.6555 -112.547 69.8049 -92.6124 -113.233 71.656 -93.1455 -113.545 72.076 
-92.1256 -112.979 71.0076 -91.5063 -112.777 70.4224 -90.5785 -112.529 70.1745 
-89.461 -112.123 70.0664 -88.5176 -111.661 69.9808 -87.836 -111.31 70.1393 
-87.225 -111.087 70.5342 -93.7646 -112.225 71.8325 -94.2414 -112.631 72.1659 
-93.3748 -111.865 71.2493 -92.9295 -111.544 70.6104 -92.145 -111.2 70.3505 
-90.9819 -110.785 70.4324 -89.8262 -110.358 70.4302 -88.9869 -110.037 70.4156 
-88.3512 -109.881 70.7008 -87.7447 -109.859 71.1977 -88.0599 -108.772 72.0128 
-88.724 -108.629 71.5119 -89.0016 -107.399 72.2044 -89.379 -108.499 70.9815 
-89.7612 -107.173 71.7054 -89.8743 -105.896 72.2118 -90.1224 -108.498 70.6928 
-90.4919 -106.859 71.0728 -90.7382 -105.659 71.6401 -90.6758 -104.502 72.2387 
-91.2274 -108.749 70.606 -91.4347 -106.672 70.6034 -91.6295 -105.242 70.854 
-91.6537 -104.284 71.6191 -91.4921 -103.145 72.4635 -92.6206 -109.273 70.4442 
-92.8044 -106.998 70.4162 -92.8103 -105.119 70.4 -92.7466 -104.004 71.0022 
-92.5951 -102.996 72.0009 -92.3369 -101.773 72.7313 -93.7207 -109.868 70.4438 
-94.1559 -107.794 70.4416 -94.161 -105.766 70.5124 -93.9795 -104.244 70.9238 
-93.8416 -103.033 71.7334 -93.6599 -101.797 72.4372 -93.292 -100.713 72.9898 
-94.2553 -110.373 70.9234 -94.9101 -108.572 70.7671 -95.1338 -106.755 70.8836 
-95.036 -105.132 71.2608 -94.9616 -103.552 71.795 -95.0064 -102.03 72.2501 
-94.8352 -100.837 72.711 -94.334 -100.034 73.4689 -94.5489 -110.86 71.574 
-95.2196 -109.202 71.332 -95.6336 -107.523 71.325 -95.7742 -106.051 71.6373 
-95.8103 -104.456 72.0592 -95.9723 -102.622 72.3148 -96.0962 -101.112 72.5782 
-95.801 -100.166 73.2312 -95.1722 -99.492 74.2031 -94.9133 -111.405 72.0357 
-95.5162 -109.882 71.8722 -96.0034 -108.205 71.8254 -96.3444 -106.726 72.0611 
-96.5162 -105.329 72.4911 -96.6353 -103.595 72.783 -96.799 -101.829 72.9336 
-96.7549 -100.598 73.3559 -96.2959 -99.7822 74.158 -95.651 -99.0387 75.0135 
-87.9832 -107.879 72.5123 -88.8016 -106.252 72.5073 -87.7192 -106.653 72.8019 
-89.5605 -104.663 72.5461 -88.4244 -104.951 72.8066 -87.4215 -105.463 73.3111 
-90.4128 -103.28 72.8491 -89.2395 -103.507 73.1643 -88.2013 -104.023 73.656 
-87.3109 -104.69 74.2661 -91.2896 -101.868 73.1305 -90.2297 -102.206 73.6327 
-89.101 -102.72 74.2212 -88.1267 -103.354 74.7986 -87.1949 -103.957 75.2417 
-92.0869 -100.626 73.353 -91.0943 -100.888 73.8739 -90.0035 -101.376 74.5555 
-88.8296 -101.867 75.1878 -87.8454 -102.438 75.6779 -86.9017 -103.05 76.1073 
-93.0056 -99.8795 73.9215 -91.8975 -99.9387 74.4046 -90.8402 -100.215 74.951 
-89.5621 -100.524 75.4957 -88.3888 -100.967 76.0101 -87.4881 -101.643 76.5703 
-86.6387 -102.356 77.1153 -93.9936 -99.3162 74.7245 -92.8755 -99.3406 75.3 
-91.8116 -99.4834 75.8171 -90.5293 -99.6179 76.2154 -89.1955 -99.9212 76.5874 
-88.1489 -100.547 77.1061 -87.2628 -101.239 77.6964 -86.424 -101.875 78.1515 
-94.7602 -98.6787 75.3877 -93.8184 -98.6747 75.9396 -92.8139 -98.8885 76.5668 
-91.5743 -99.0162 77.0761 -90.2061 -99.174 77.4242 -89.0315 -99.6938 77.8219 
-88.0003 -100.349 78.3339 -86.981 -100.846 78.7575 -86.1265 -101.388 79.0144 
-95.517 -98.3029 75.937 -94.7719 -97.9232 76.211 -95.5548 -97.6586 76.922 
-94.7797 -97.4279 77.2469 -95.6341 -97.4473 78.4889 -93.8393 -98.1026 76.7913 
-94.5129 -97.3477 79.0897 -95.3602 -97.6391 80.5255 -93.4903 -97.7161 77.9636 
-92.5662 -98.404 77.5374 -93.9035 -97.4113 81.2039 -94.6706 -97.9532 82.084 
-92.8081 -97.4468 79.8276 -91.8469 -97.9001 78.7393 -91.0947 -98.5079 78.1283 
-93.2857 -97.614 82.6109 -94.011 -98.4167 83.0682 -92.2843 -97.3112 81.6728 
-91.2048 -97.5248 80.3167 -90.4515 -98.0499 79.2792 -89.8241 -98.8515 78.5768 
-92.8779 -98.2574 83.6178 -93.614 -99.1262 84.1162 -92.029 -97.7024 82.9844 
-91.0219 -97.6842 81.8896 -90.0704 -98.0005 80.6572 -89.3532 -98.634 79.7777 
-88.688 -99.5211 79.0748 -92.5149 -99.1852 84.6803 -93.2554 -99.9214 85.1608 
-91.669 -98.59 84.0953 -90.7961 -98.3948 83.2579 -89.8375 -98.5069 82.1547 
-88.8637 -98.7572 81.1103 -88.051 -99.2674 80.271 -87.4346 -100.024 79.4952 
-92.0506 -100.039 85.6236 -92.7816 -100.651 85.9678 -91.1216 -99.512 85.1012 
-90.2285 -99.1963 84.3802 -89.3876 -99.1395 83.4776 -88.4071 -99.1786 82.476 
-87.4109 -99.2954 81.4873 -86.6995 -99.7038 80.5532 -86.3242 -100.461 79.7147 
-91.5497 -100.742 86.4442 -92.2745 -101.31 86.6778 -90.5896 -100.282 85.9969 
-89.6381 -99.9339 85.3048 -88.8558 -99.7323 84.4856 -88.0322 -99.6605 83.6227 
-87.0675 -99.6661 82.6889 -86.2534 -99.8476 81.683 -85.7981 -100.373 80.7053 
-85.613 -101.212 79.8776 -96.2712 -99.3558 75.5061 -96.1177 -98.743 76.5995 
-96.7737 -100.111 76.2606 -96.6778 -99.6319 77.4635 -97.3607 -100.925 76.9699 
-96.1883 -98.2315 77.9098 -97.2904 -100.498 78.1644 -98.1131 -101.605 77.5578 
-96.6878 -99.1935 78.9384 -96.2413 -98.1214 79.7112 -97.8628 -101.403 78.7948 
-98.6914 -102.594 78.2914 -97.1306 -100.175 79.6786 -96.6126 -99.0486 80.6484 
-95.8768 -98.3714 81.4393 -98.0238 -102.696 79.508 -98.6219 -103.958 79.0322 
-97.5032 -101.387 80.346 -97.0345 -100.066 81.3627 -96.3273 -99.2166 82.1118 
-95.2184 -98.7951 82.6052 -97.7252 -104.056 80.0819 -98.0648 -105.226 79.5202 
-97.5605 -102.841 80.9732 -97.4166 -101.416 82.0846 -96.9143 -100.211 82.9293 
-95.8943 -99.6531 83.3701 -94.6764 -99.3819 83.714 -97.51 -105.329 80.6663 
-97.646 -106.442 80.0488 -97.4669 -104.224 81.5509 -97.4281 -102.986 82.6625 
-97.1645 -101.664 83.6481 -96.454 -100.74 84.2519 -95.3509 -100.334 84.5979 
-94.2368 -100.103 84.8807 -97.5803 -106.789 81.5034 -97.5434 -107.833 80.8002 
-97.5552 -105.686 82.3165 -97.3333 -104.563 83.2011 -96.9629 -103.391 84.0463 
-96.5032 -102.306 84.7358 -95.7365 -101.567 85.228 -94.6994 -101.148 85.5363 
-93.708 -100.86 85.7494 -97.5836 -108.303 82.2939 -97.4876 -109.208 81.4955 
-97.609 -107.273 83.097 -97.3299 -106.168 83.8004 -96.7966 -105.064 84.4064 
[...]
CELL_DATA 2000
SCALARS Distance double
LOOKUP_TABLE default
158.51 158.224 158.428 158.472 157.819 158.117 158.098 158.25 157.998 
157.12 157.511 157.421 157.71 157.376 157.512 157.084 156.544 156.751 
156.655 156.932 156.707 156.861 156.502 156.588 156.281 156.471 156.402 
156.306 156.351 156.27 156.348 156.171 156.17 155.937 155.961 155.77 
156.558 156.465 156.286 156.196 156.02 156.048 155.866 155.91 155.646 
155.673 155.422 155.494 155.298 156.5 156.475 156.216 156.12 155.744 
155.734 155.381 155.485 155.123 155.239 154.899 155.055 154.833 155.005 
154.856 156.432 156.386 156.127 155.982 155.542 155.4 154.975 154.967 
154.631 154.683 154.382 154.481 154.289 154.485 154.392 154.591 154.492 
156.437 156.362 156.123 155.936 155.501 155.252 154.824 154.689 154.441 
154.391 154.216 154.154 154.006 154.042 153.986 154.14 154.093 154.246 
154.135 158.447 158.22 158.191 158.05 158.098 157.918 157.625 157.785 
157.661 158.024 157.733 157.247 157.318 157.152 157.335 157.1 158.037 
157.607 157.002 156.933 156.737 156.885 156.787 156.819 156.631 158.553 
157.816 157.22 156.837 156.665 156.635 156.661 156.666 156.643 156.576 
156.558 159.697 158.737 158.23 157.45 157.276 156.875 156.915 156.732 
156.739 156.645 156.635 156.614 156.621 160.905 160.065 159.617 158.742 
158.47 157.784 157.664 157.196 157.077 156.802 156.706 156.632 156.605 
156.614 156.576 161.756 161.149 160.714 160.024 159.632 158.954 158.612 
158.008 157.692 157.228 157.025 156.777 156.726 156.627 156.623 156.562 
156.533 162.383 161.878 161.466 160.91 160.483 159.896 159.451 158.845 
158.406 157.856 157.56 157.193 157.116 156.898 156.902 156.726 156.708 
156.576 156.551 162.616 162.729 162.346 161.703 162.834 162.452 161.747 
161.381 160.717 162.866 162.527 161.825 161.426 160.689 160.346 159.667 
162.873 162.56 161.912 161.515 160.776 160.348 159.595 159.257 158.6 
162.836 162.577 161.973 161.62 160.934 160.486 159.731 159.267 158.589 
158.261 157.77 162.66 162.488 161.909 161.653 161.021 160.654 159.95 
159.474 158.801 158.38 157.917 157.635 157.35 162.445 162.281 161.744 
161.544 160.974 160.708 160.087 159.697 159.045 158.625 158.115 157.828 
157.515 157.318 157.089 162.365 162.141 161.654 161.421 160.914 160.667 
160.136 159.823 159.231 158.844 158.271 157.963 157.548 157.388 157.108 
157.007 156.802 162.384 162.137 161.672 161.413 160.93 160.665 160.161 
159.879 159.318 158.984 158.375 158.05 157.526 157.334 156.994 156.929 
156.731 156.706 156.587 156.499 156.586 156.474 156.296 156.756 156.545 
156.34 156.203 155.906 157.2 156.769 156.424 156.205 155.92 155.757 
155.413 158.008 157.356 156.846 156.344 155.921 155.715 155.445 155.305 
155.018 158.995 158.294 157.778 156.981 156.438 155.88 155.6 155.371 
155.236 155.024 154.776 159.917 159.313 158.939 158.106 157.628 156.757 
156.45 155.852 155.796 155.41 155.327 154.906 154.701 160.727 160.219 
159.95 159.275 158.917 158.102 157.805 157.024 156.887 156.258 156.181 
155.636 155.509 154.995 154.911 161.487 161.024 160.789 160.222 159.91 
159.279 159.017 158.357 158.16 157.471 157.269 156.609 156.429 155.875 
155.788 155.338 155.352 162.226 161.794 161.606 161.063 160.787 160.2 
159.979 159.426 159.291 158.684 158.492 157.766 157.53 156.855 156.74 
156.227 156.231 155.806 155.817 156.404 156.138 156.219 156.015 155.638 
155.777 155.458 155.614 155.288 155.102 155.178 154.781 154.921 154.608 
154.819 154.603 154.744 154.72 154.365 154.35 154.122 154.239 154.201 
154.354 154.327 154.447 154.42 154.15 154.119 153.959 153.977 153.99 
154.097 154.146 154.223 154.161 154.277 154.153 153.895 153.92 153.788 
153.858 153.763 153.878 153.811 153.973 153.888 153.999 153.905 154.527 
154.187 153.967 153.798 153.719 153.684 153.567 153.576 153.412 153.533 
153.455 153.648 153.639 153.786 153.831 155.041 154.643 154.494 154.158 
154.141 153.87 153.826 153.558 153.443 153.288 153.288 153.334 153.46 
153.572 153.688 153.8 153.908 155.468 155.145 154.977 154.725 154.696 
154.449 154.413 154.061 153.945 153.595 153.589 153.436 153.592 153.569 
153.692 153.697 153.74 153.838 153.912 155.565 155.542 155.345 155.08 
155.874 155.424 155.148 155.002 154.87 156.666 155.958 155.494 155.135 
154.945 154.826 154.616 157.435 156.769 156.102 155.536 155.062 154.83 
154.551 154.455 154.137 157.927 157.377 156.703 156.095 155.435 154.97 
154.541 154.354 154.134 154.012 153.813 158.542 157.904 157.354 156.704 
156.151 155.49 155.028 154.544 154.326 154.103 154.041 153.873 153.805 
159.379 158.691 158.2 157.501 157.064 156.364 155.963 155.288 154.963 
154.485 154.301 154.079 153.964 153.856 153.765 160.115 159.532 159.028 
158.383 157.895 157.274 156.844 156.233 155.805 155.21 154.801 154.368 
154.066 153.881 153.718 153.71 153.679 160.681 160.187 159.699 159.122 
158.586 158.003 157.512 156.973 156.523 155.966 155.502 154.932 154.533 
154.099 153.894 153.697 153.705 153.696 153.83 156.033 157.007 156.321 
156.049 158.232 157.463 157.219 156.492 156.435 159.445 158.725 158.547 
157.81 157.779 157.131 157.278 160.685 159.942 159.789 159.115 159.087 
158.489 158.575 158.013 158.066 161.941 161.212 161.054 160.375 160.355 
159.742 159.791 159.223 159.225 158.631 158.55 162.892 162.345 162.214 
161.652 161.689 161.071 161.144 160.477 160.506 159.822 159.805 159.127 
159.142 163.715 163.227 163.227 162.761 162.903 162.394 162.519 161.887 
161.925 161.211 161.215 160.492 160.522 159.85 159.938 164.842 164.276 
164.467 163.907 164.129 163.592 163.736 163.172 163.201 162.587 162.558 
161.9 161.865 161.209 161.201 160.602 160.626 166.098 165.595 165.864 
165.302 165.501 164.889 164.959 164.343 164.335 163.756 163.738 163.154 
163.11 162.478 162.404 161.782 161.73 161.173 161.157 162.618 163.081 
162.581 162.002 163.564 163.044 162.409 161.866 161.195 163.94 163.483 
162.859 162.304 161.616 161.049 160.419 164.2 163.794 163.211 162.733 
162.097 161.534 160.91 160.362 159.786 164.531 164.101 163.612 163.129 
162.566 162.012 161.408 160.868 160.241 159.706 159.02 164.933 164.524 
164.197 163.716 163.272 162.605 161.983 161.339 160.676 160.117 159.376 
158.813 158.05 165.235 164.884 164.584 164.306 163.984 163.43 162.789 
162.008 161.245 160.556 159.836 159.215 158.486 157.884 157.25 165.527 
165.107 164.629 164.457 164.099 163.904 163.318 162.757 161.905 161.175 
160.392 159.742 159.073 158.439 157.811 157.224 156.717 165.978 165.433 
164.8 164.415 163.897 163.753 163.236 162.997 162.248 161.718 160.885 
160.289 159.593 159.027 158.386 157.804 157.194 156.694 156.219 163.03 
163.845 163.475 163.563 164.747 164.361 164.477 164.049 164.086 165.6 
165.264 165.392 164.991 165.038 164.561 164.496 166.332 166.03 166.146 
165.844 165.939 165.534 165.51 164.949 164.799 167.149 166.753 166.801 
166.495 166.623 166.369 166.492 166.039 165.96 165.281 165.113 168.157 
167.679 167.674 167.192 167.212 166.949 167.164 166.961 167.103 166.554 
166.416 165.653 165.48 169.126 168.72 168.74 168.172 168.052 167.575 
167.656 167.509 167.815 167.612 167.701 167.053 166.854 166.044 165.848 
169.861 169.589 169.657 169.214 169.1 168.507 168.407 168.033 168.243 
168.172 168.45 168.182 168.135 167.454 167.207 166.41 166.218 170.351 
170.182 170.266 170.013 170.009 169.539 169.409 168.871 168.853 168.598 
168.794 168.717 168.797 168.483 168.286 167.691 167.446 166.768 166.623 
170.555 170.772 170.628 170.51 170.884 170.838 170.786 170.602 170.354 
170.775 170.845 170.806 170.794 170.575 170.319 169.844 170.622 170.657 
170.553 170.633 170.408 170.362 169.942 169.68 169.226 170.589 170.565 
170.431 170.385 170.146 170.089 169.762 169.661 169.346 169.174 168.996 
170.348 170.473 170.363 170.344 170.129 169.978 169.734 169.576 169.384 
169.256 169.119 169.031 168.908 169.879 170.074 169.952 170.115 169.907 
169.941 169.737 169.682 169.531 169.392 169.2 169.055 168.823 168.764 
168.456 169.611 169.669 169.548 169.636 169.418 169.527 169.336 169.513 
169.418 169.491 169.275 169.123 168.767 168.612 168.266 168.169 167.754 
169.51 169.537 169.465 169.419 169.24 169.152 168.97 169.046 169.025 
169.221 169.136 169.117 168.775 168.577 168.201 168.045 167.711 167.517 
167.063 169.339 168.959 169.289 169.388 168.352 168.853 169.085 169.291 
169.189 167.5 168.117 168.437 168.904 168.948 169.027 168.897 166.43 
167.082 167.369 168.106 168.402 168.777 168.817 168.858 168.911 165.376 
165.941 166.162 166.937 167.377 168.103 168.391 168.729 168.778 168.918 
168.948 164.494 164.982 165.204 165.819 166.218 166.999 167.373 168.038 
168.126 168.528 168.416 168.696 168.543 163.587 164.133 164.339 164.923 
165.192 165.873 166.119 166.838 166.925 167.548 167.478 167.945 167.815 
168.133 167.989 162.572 163.149 163.288 163.932 164.099 164.776 164.885 
165.548 165.562 166.219 166.214 166.849 166.851 167.35 167.293 167.614 
167.491 161.617 162.123 162.219 162.807 162.939 163.587 163.684 164.305 
164.315 164.908 164.91 165.558 165.599 166.256 166.229 166.766 166.6 
167.004 166.771 169.211 168.691 168.857 168.656 168.134 168.248 167.967 
168.209 168.011 167.656 167.751 167.533 167.636 167.471 167.604 167.328 
167.031 167.258 167.112 167.292 167.173 167.248 166.974 166.921 166.44 
166.129 166.472 166.245 166.658 166.489 166.822 166.489 166.565 165.994 
165.923 165.348 165.142 165.456 165.115 165.562 165.326 165.838 165.496 
165.813 165.209 165.315 164.67 164.775 164.314 164.208 164.46 164.076 
164.417 164.16 164.621 164.351 164.713 164.201 164.38 163.765 163.949 
163.469 163.729 163.364 163.337 163.555 163.158 163.426 163.117 163.51 
163.237 163.618 163.173 163.395 162.817 163.008 162.53 162.806 162.443 
162.74 162.386 162.535 162.726 162.334 162.547 162.178 162.48 162.123 
162.487 162.039 162.345 161.801 162.052 161.565 161.852 161.483 161.798 
161.469 161.761 161.441 169.416 169.781 169.452 169.081 170.11 169.874 
169.54 169.075 168.572 170.065 170.077 169.81 169.508 168.982 168.511 
167.979 169.77 169.895 169.778 169.68 169.241 168.845 168.226 167.832 
167.282 169.603 169.639 169.62 169.633 169.369 169.073 168.463 168.012 
167.359 167.024 166.43 169.442 169.461 169.298 169.421 169.223 169.158 
168.618 168.219 167.465 167.057 166.392 166.101 165.487 169.019 169.106 
168.729 168.903 168.606 168.805 168.371 168.25 167.502 167.117 166.339 
166.023 165.388 165.143 164.546 168.458 168.563 168.156 168.235 167.844 
168.041 167.684 167.816 167.251 167.059 166.286 165.952 165.253 165.005 
164.424 164.21 163.654 167.923 168.037 167.711 167.725 167.313 167.353 
166.969 167.103 166.683 166.699 166.08 165.86 165.155 164.882 164.278 
164.067 163.539 163.339 162.832 167.53 166.79 167.256 167.323 165.857 
166.409 166.493 166.941 166.917 164.836 165.417 165.492 166.017 166.018 
166.47 166.483 163.707 164.355 164.432 164.988 164.989 165.493 165.501 
166.037 166.104 162.498 163.159 163.261 163.886 163.884 164.43 164.394 
164.96 164.971 165.578 165.539 161.474 161.993 162.027 162.635 162.61 
163.233 163.168 163.782 163.739 164.362 164.306 164.876 164.712 160.602 
161.043 160.961 161.427 161.31 161.884 161.816 162.475 162.462 163.111 
163.089 163.66 163.562 164.044 163.882 159.701 160.153 160.079 160.447 
160.289 160.686 160.601 161.157 161.21 161.857 161.922 162.505 162.471 
162.956 162.842 163.285 163.153 158.968 159.324 159.358 159.661 159.582 
159.841 159.758 160.12 160.163 160.698 160.799 161.377 161.379 161.89 
161.782 162.249 162.116 162.576 162.455 158.767 158.618 158.831 159.066 
158.142 158.54 158.727 159.04 159.253 157.293 157.866 158.138 158.601 
158.835 159.174 159.42 156.469 156.985 157.324 157.904 158.236 158.704 
159.003 159.38 159.762 155.863 156.242 156.496 157.062 157.418 158.012 
158.359 158.882 159.277 159.779 160.283 155.358 155.647 155.756 156.226 
156.508 157.134 157.501 158.132 158.528 159.149 159.625 160.256 160.774 
154.958 155.167 155.235 155.535 155.755 156.259 156.659 157.276 157.728 
158.349 158.824 159.478 159.997 160.663 161.159 154.627 154.829 154.953 
155.15 155.372 155.678 156.074 156.553 157.07 157.63 158.164 158.737 
159.283 159.889 160.437 161.043 161.532 154.243 154.49 154.66 154.922 
155.185 155.438 155.783 156.114 156.578 157.055 157.622 158.171 158.763 
159.302 159.879 160.409 160.942 161.46 161.922 161.971 161.03 161.597 
161.769 160.012 160.629 160.815 161.387 161.583 158.879 159.551 159.722 
160.369 160.52 161.162 161.4 157.665 158.33 158.461 159.182 159.324 
160.015 160.181 160.924 161.199 156.605 157.127 157.213 157.883 158.086 
158.806 159.028 159.712 159.959 160.703 160.999 155.843 156.202 156.246 
156.736 156.929 157.61 157.928 158.626 158.915 159.563 159.854 160.545 
160.86 155.176 155.489 155.453 155.85 155.919 156.508 156.765 157.504 
157.808 158.52 158.781 159.466 159.771 160.473 160.809 154.509 154.763 
154.612 154.989 154.958 155.491 155.659 156.344 156.636 157.361 157.646 
158.355 158.662 159.393 159.757 160.472 160.817 154.035 154.13 153.935 
154.164 154.13 154.548 154.746 155.324 155.681 156.308 156.686 157.3 
157.675 158.329 158.749 159.447 159.861 160.517 160.85 162.849 162.251 
162.838 163.432 161.442 162.181 162.78 163.444 164.121 160.344 161.249 
161.883 162.675 163.335 164.116 164.836 159.356 160.189 160.921 161.71 
162.384 163.217 163.971 164.808 165.519 158.917 159.5 160.308 160.897 
161.604 162.301 163.098 163.934 164.754 165.501 166.145 158.842 159.305 
160.094 160.515 161.166 161.666 162.427 163.161 164.025 164.781 165.49 
166.106 166.606 158.763 159.216 159.951 160.365 160.926 161.305 161.923 
162.545 163.354 164.1 164.812 165.446 165.95 166.495 166.873 158.7 
159.063 159.746 160.181 160.743 161.074 161.579 162.05 162.752 163.435 
164.154 164.785 165.321 165.853 166.288 166.764 167.123 158.765 158.989 
159.569 159.963 160.545 160.89 161.379 161.738 162.339 162.883 163.591 
164.18 164.777 165.288 165.787 166.256 166.708 167.099 167.455 163.352 
163.961 163.871 164.343 164.725 164.578 165.054 164.91 165.365 165.514 
165.399 165.895 165.697 166.128 165.94 166.365 166.177 166.144 166.663 
166.529 166.965 166.763 167.185 166.975 167.394 166.729 166.744 167.284 
167.237 167.75 167.613 168.103 167.877 168.317 168.043 168.399 167.154 
167.238 167.806 167.838 168.437 168.398 168.973 168.815 169.278 169.006 
169.345 169.013 169.243 167.372 167.542 168.084 168.265 168.863 169.004 
169.565 169.573 169.958 169.82 170.065 169.862 170.053 169.767 169.892 
167.524 167.663 168.113 168.363 168.887 169.206 169.716 169.934 170.236 
170.252 170.363 170.313 170.423 170.364 170.475 170.288 170.326 167.784 
167.829 168.207 168.351 168.806 169.091 169.589 169.895 170.25 170.373 
170.498 170.473 170.543 170.543 170.654 170.644 170.696 170.564 170.534 
163.218 164.202 163.595 163.376 165.185 164.589 164.358 163.752 163.486 
166.156 165.553 165.286 164.687 164.384 163.789 163.475 167.174 166.547 
166.278 165.62 165.277 164.64 164.301 163.731 163.434 168.121 167.546 
167.296 166.655 166.299 165.578 165.174 164.533 164.201 163.672 163.369 
168.88 168.371 168.069 167.57 167.221 166.591 166.116 165.42 164.97 
164.391 164.027 163.534 163.173 169.522 169.033 168.645 168.19 167.817 
167.346 166.888 166.288 165.772 165.151 164.714 164.168 163.794 163.291 
162.942 170.033 169.625 169.244 168.753 168.355 167.874 167.458 166.943 
166.489 165.919 165.5 164.917 164.558 163.98 163.655 163.12 162.846 
170.327 170.065 169.768 169.354 168.984 168.476 168.054 167.518 167.091 
166.577 166.214 165.708 165.395 164.829 164.517 163.921 163.635 163.095 
162.861 169.577 169.722 169.715 169.882 169.993 169.894 170.078 170.074 
170.208 170.441 170.282 170.417 170.313 170.38 170.279 170.168 170.7 
170.678 170.789 170.688 170.657 170.454 170.23 170.045 169.817 170.752 
170.806 170.959 170.964 170.94 170.735 170.474 170.173 169.938 169.766 
169.683 170.85 170.861 171.028 171.072 171.135 170.998 170.816 170.497 
170.285 170.026 169.96 169.788 169.688 170.903 170.939 171.027 171.105 
171.17 171.156 171.046 170.842 170.615 170.376 170.198 170.04 169.843 
169.664 169.33 170.812 170.896 170.909 171.004 170.981 171.069 170.966 
170.956 170.737 170.6 170.291 170.128 169.768 169.641 169.23 169.099 
168.683 170.65 170.763 170.779 170.84 170.768 170.813 170.7 170.764 
170.632 170.614 170.357 170.172 169.758 169.517 169.063 168.903 168.501 
168.412 168.073 
POINT_DATA 1002
SCALARS Distance double
LOOKUP_TABLE default
158.623 158.639 158.272 158.393 158.012 158.406 157.952 157.499 157.956 
157.637 157.09 156.776 157.227 156.949 156.672 156.394 156.467 156.487 
156.414 156.148 156.029 156.352 156.601 156.18 156.15 155.956 155.713 
155.573 156.449 156.631 156.064 155.823 155.633 155.357 155.203 155.123 
156.351 156.523 155.853 155.321 155.006 154.735 154.61 154.693 154.755 
156.288 156.491 155.748 155.031 154.579 154.313 154.104 154.158 154.329 
154.396 156.31 156.514 155.776 154.985 154.462 154.288 154.052 153.868 
153.938 154.015 153.995 158.435 157.871 158.36 157.529 158.409 157.48 
157.266 158.4 156.95 157.032 157.158 158.556 156.589 156.68 156.655 
157.738 159.367 156.77 156.643 156.669 156.611 159.11 160.615 157.847 
157.219 156.893 156.662 156.638 160.471 161.631 159.275 158.296 157.486 
156.859 156.604 156.579 161.347 162.292 160.329 159.298 158.25 157.346 
156.875 156.705 156.589 161.997 162.863 161.059 160.065 158.995 157.978 
157.362 157.118 156.888 156.653 162.988 162.056 163.147 162.157 163.201 
161.032 162.227 163.173 161.093 159.947 162.284 163.166 161.23 160.008 
158.832 162.287 163.061 161.352 160.225 158.963 157.976 162.121 162.803 
161.326 160.391 159.24 158.206 157.575 161.925 162.612 161.191 160.413 
159.466 158.436 157.711 157.268 161.891 162.596 161.153 160.405 159.598 
158.638 157.748 157.192 156.872 161.93 162.631 161.201 160.443 159.64 
158.724 157.771 157.067 156.729 156.599 156.391 156.437 156.065 156.477 
156.114 155.544 156.77 156.032 155.619 155.081 157.537 156.239 155.5 
155.221 154.759 158.629 157.176 155.908 155.398 155.097 154.479 159.676 
158.521 157.192 156.255 155.741 155.148 154.48 160.544 159.636 158.598 
157.628 156.783 156.024 155.361 154.896 161.334 160.493 159.606 158.848 
158.007 157.024 156.244 155.761 155.405 162.122 161.367 160.505 159.828 
159.202 158.273 157.299 156.679 156.254 155.796 155.962 155.309 155.108 
154.687 154.353 154.369 154.397 154.018 154.002 154.237 154.11 153.95 
153.917 154.059 154.149 153.875 153.706 153.714 153.664 153.718 153.802 
154.211 153.819 153.637 153.357 153.222 153.43 153.693 154.828 154.449 
154.16 153.687 153.291 153.355 153.599 153.775 155.206 154.902 154.743 
154.341 153.813 153.667 153.759 153.721 153.728 155.695 155.137 155.796 
155.341 156.488 154.971 156.049 157.466 155.1 154.769 156.801 158.045 
155.466 154.628 154.261 157.289 158.45 156.024 154.821 154.179 153.966 
157.974 159.204 156.803 155.631 154.636 154.169 153.993 158.899 160.038 
157.73 156.663 155.601 154.656 154.083 153.82 159.663 160.647 158.525 
157.433 156.44 155.38 154.372 153.747 153.592 160.254 161.146 159.183 
158.056 157.05 156.082 155.05 154.182 153.756 153.771 156.61 156.659 
157.755 157.977 158.967 157.024 159.234 160.137 158.434 157.884 160.457 
161.466 159.68 159.153 158.693 161.717 162.645 160.993 160.397 159.827 
159.159 162.68 163.355 162.251 161.829 161.21 160.484 159.775 163.649 
164.144 163.356 163.108 162.626 161.943 161.221 160.574 165.038 165.347 
164.718 164.317 163.789 163.194 162.54 161.836 161.194 166.405 166.546 
166.153 165.635 164.929 164.291 163.732 163.06 162.318 161.679 163.104 
162.519 163.623 162.994 164.078 161.717 163.38 164.367 162.207 160.928 
163.641 164.598 162.618 161.472 160.333 164.068 164.932 163.132 161.953 
160.804 159.589 164.577 165.295 163.953 162.734 161.265 159.962 158.582 
164.785 165.63 164.395 163.61 162.029 160.446 159.104 157.776 164.912 
166.045 164.195 163.714 162.637 161.054 159.677 158.439 157.221 163.359 
163.967 164.213 164.908 165.124 164.562 165.765 165.917 165.509 165.048 
166.415 166.669 166.264 166.052 165.437 167.181 167.602 166.813 166.797 
166.634 165.814 168.259 168.615 167.587 167.243 167.459 167.221 166.219 
169.291 169.476 168.674 167.9 167.831 168.161 167.725 166.622 170.003 
170.106 169.68 168.951 168.375 168.528 168.666 168.02 166.982 170.44 