# vtk DataFile Version 4.0
vtk output
ASCII
DATASET POLYDATA
POINTS 1002 float
-78.7855 -111.736 72.6392 -78.4439 -113.008 72.4339 -78.3956 -112.457 71.4415 
-78.7648 -111.127 71.6397 -78.5398 -111.908 70.5099 -79.2199 -110.466 72.8848 
-79.0645 -110.688 70.7451 -78.9903 -111.544 69.7078 -79.4105 -109.974 71.9765 
-79.9481 -109.294 73.2636 -79.7716 -110.41 69.9855 -79.5892 -111.215 68.9963 
-79.9509 -109.605 71.1215 -80.4214 -108.895 72.4957 -80.8151 -108.057 73.6509 
-80.6194 -110.037 69.3511 -80.3661 -110.758 68.3835 -80.7929 -109.179 70.3162 
-81.057 -108.38 71.6548 -81.3491 -107.539 72.9098 -81.4712 -106.613 73.8212 
-81.5544 -109.576 68.8924 -81.4531 -110.279 67.9273 -81.684 -108.662 69.7451 
-81.8249 -107.749 70.8457 -81.945 -106.876 72.0872 -81.9441 -105.902 73.0421 
-81.9765 -104.98 73.9241 -82.5975 -109.106 68.4979 -82.5345 -109.809 67.5604 
-82.6323 -108.199 69.3925 -82.6793 -107.208 70.334 -82.7403 -106.296 71.3907 
-82.6572 -105.297 72.3235 -82.5516 -104.261 73.2026 -82.5993 -103.426 74.1897 
-83.5182 -108.52 68.0517 -83.3811 -109.291 67.2409 -83.5976 -107.658 68.9291 
-83.6068 -106.705 69.8837 -83.6477 -105.786 70.8764 -83.6033 -104.833 71.7429 
-83.4277 -103.783 72.5678 -83.3556 -102.911 73.5311 -83.3731 -102.275 74.4746 
-84.3131 -107.879 67.6899 -84.211 -108.779 67.0426 -84.4342 -106.973 68.4007 
-84.4863 -106.085 69.2716 -84.5163 -105.192 70.2837 -84.5247 -104.294 71.1956 
-84.3937 -103.35 71.9776 -84.2358 -102.501 72.8647 -84.1986 -101.903 73.8044 
-84.1639 -101.414 74.5928 -85.1542 -107.32 67.503 -85.1434 -108.295 66.9706 
-85.2144 -106.341 68.0613 -85.2785 -105.468 68.752 -85.3147 -104.61 69.6577 
-85.3444 -103.721 70.6037 -85.3086 -102.873 71.4126 -85.1529 -102.102 72.2263 
-84.9943 -101.459 73.1102 -84.9063 -100.954 73.9022 -84.8171 -100.493 74.5695 
-78.0018 -113.864 71.5845 -78.0367 -113.333 70.5517 -77.4786 -114.47 70.7326 
-77.5159 -113.951 69.531 -76.9099 -114.876 69.8747 -78.2664 -112.789 69.5201 
-76.8093 -114.454 68.3391 -76.4456 -115.691 68.9471 -77.6356 -113.435 68.1651 
-78.606 -112.346 68.5333 -76.3856 -115.442 67.3428 -76.4548 -117.02 68.2228 
-76.9183 -114.086 66.8116 -77.9473 -112.953 67.0029 -79.1433 -111.857 67.7136 
-76.8472 -116.731 67.0796 -77.2018 -118.019 68.0912 -76.981 -115.155 66.3523 
-77.7732 -113.663 66.1028 -78.9589 -112.425 66.4596 -80.2471 -111.318 67.1964 
-78.0593 -117.581 67.374 -78.3781 -118.453 68.3253 -78.0464 -116.288 66.7509 
-78.5403 -114.644 66.3588 -79.478 -113.17 66.1213 -80.5744 -111.95 66.3053 
-81.6111 -110.853 66.893 -79.3377 -118.116 67.5919 -79.5039 -118.91 68.452 
-79.4098 -117.099 67.0906 -79.7257 -115.612 66.7829 -80.3104 -114.072 66.2515 
-81.1132 -112.767 65.8435 -81.914 -111.556 66.0256 -82.6478 -110.414 66.6167 
-80.4031 -118.743 67.5786 -80.5134 -119.512 68.4464 -80.5421 -117.792 67.0708 
-80.8097 -116.436 66.7859 -81.1203 -114.959 66.1168 -81.6123 -113.669 65.2876 
-82.2513 -112.401 65.124 -82.8774 -111.128 65.6669 -83.5244 -109.954 66.409 
-81.4141 -119.342 67.5737 -81.53 -119.959 68.4921 -81.5065 -118.454 66.9984 
-81.7369 -117.143 66.7242 -81.9645 -115.713 66.083 -82.2778 -114.513 64.9706 
-82.7816 -113.305 64.3473 -83.3466 -111.925 64.7175 -83.9158 -110.636 65.571 
-84.5344 -109.48 66.3707 -82.5487 -119.885 68.0144 -82.5312 -119.19 67.2075 
-83.7215 -119.595 67.7192 -83.7573 -118.599 67.1443 -84.9188 -118.952 67.6956 
-82.6536 -117.961 66.8488 -85.0156 -117.713 67.2092 -86.1207 -118.097 67.7639 
-83.8656 -117.092 66.8533 -82.858 -116.426 66.4598 -86.3544 -116.891 67.2142 
-87.3182 -117.176 67.8312 -85.182 -116.284 66.7992 -84.1136 -115.701 66.2654 
-83.1594 -115.184 65.4194 -87.6686 -115.982 67.3413 -88.3884 -116.041 68.0804 
-86.5923 -115.591 66.7696 -85.4699 -115.111 66.2307 -84.5564 -114.689 65.2749 
-83.6356 -114.087 64.3554 -88.7904 -114.703 67.6949 -89.3616 -114.727 68.4555 
-87.9163 -114.5 66.9998 -86.7904 -114.229 66.4327 -85.8408 -113.929 65.6922 
-85.0574 -113.374 64.7459 -84.1701 -112.62 64.3056 -89.8339 -113.366 67.998 
-90.3971 -113.519 68.6573 -89.1031 -113.113 67.3574 -88.1045 -112.909 66.8099 
-87.0445 -112.753 66.2578 -86.2084 -112.315 65.609 -85.4879 -111.64 65.0918 
-84.6776 -111.068 65.0918 -90.9545 -112.274 68.0997 -91.4961 -112.496 68.6536 
-90.2898 -111.95 67.5864 -89.466 -111.656 67.1609 -88.4831 -111.486 66.7266 
-87.4655 -111.137 66.2767 -86.6428 -110.533 65.9141 -85.9645 -110.048 65.783 
-85.2358 -109.762 65.97 -92.1119 -111.358 68.1075 -92.5555 -111.597 68.6119 
-91.5367 -111.04 67.6584 -90.8331 -110.667 67.3269 -90.0323 -110.346 67.0077 
-89.0699 -109.958 66.6503 -88.0415 -109.385 66.3736 -87.2039 -108.902 66.2698 
-86.5168 -108.686 66.366 -85.8101 -108.532 66.6312 -86.1054 -107.123 67.2383 
-86.8568 -107.262 66.904 -87.092 -105.769 67.4401 -87.6554 -107.34 66.6318 
-87.9509 -105.81 67.0885 -88.1644 -104.391 67.6119 -88.5849 -107.549 66.518 
-88.9815 -105.888 66.8397 -89.1671 -104.419 67.3095 -89.3226 -103.016 67.8006 
-89.7059 -108.046 66.5818 -90.2018 -106.114 66.721 -90.3984 -104.564 67.1296 
-90.3915 -103.048 67.5433 -90.3782 -101.569 67.9401 -90.7695 -108.667 66.7921 
-91.3961 -106.588 66.6735 -91.7105 -104.794 66.9511 -91.6807 -103.212 67.3444 
-91.4795 -101.517 67.5822 -91.3159 -100.218 68.0196 -91.6265 -109.255 67.0607 
-92.3945 -107.34 66.728 -92.8968 -105.323 66.7437 -93.0516 -103.519 67.123 
-92.8872 -101.684 67.3366 -92.5692 -100.118 67.5577 -92.3008 -99.2014 68.2277 
-92.3704 -109.801 67.3543 -93.2509 -108.211 66.9554 -93.9255 -106.291 66.7319 
-94.2762 -104.262 66.9831 -94.3322 -102.189 67.2958 -94.0927 -100.381 67.4322 
-93.6708 -99.2209 67.8673 -93.2685 -98.4609 68.6703 -92.967 -110.244 67.7618 
-93.8908 -108.93 67.38 -94.6673 -107.324 67.0762 -95.1293 -105.38 67.1515 
-95.3448 -103.143 67.4787 -95.348 -101.045 67.678 -95.0552 -99.6229 67.9516 
-94.559 -98.7191 68.5609 -94.0645 -97.8824 69.2688 -93.3764 -110.578 68.2856 
-94.2567 -109.442 67.9481 -95.0269 -108.087 67.6708 -95.5261 -106.401 67.6553 
-95.8091 -104.314 67.898 -95.9917 -102.081 68.1141 -95.9796 -100.323 68.3247 
-95.6715 -99.2322 68.7814 -95.1819 -98.3731 69.3993 -94.6828 -97.4978 69.9426 
-86.0879 -106.039 67.7486 -87.1099 -104.705 67.9774 -86.1214 -105.068 68.33 
-88.2625 -103.325 68.1767 -87.1785 -103.777 68.6325 -86.1662 -104.194 69.093 
-89.3911 -101.848 68.353 -88.2949 -102.326 68.8553 -87.1701 -102.817 69.425 
-86.1829 -103.244 70.0088 -90.3388 -100.466 68.5631 -89.2521 -100.832 69.0542 
-88.1046 -101.279 69.6085 -87.1115 -101.808 70.2729 -86.2041 -102.343 70.8886 
-91.2652 -99.369 68.8682 -90.1434 -99.6001 69.4099 -88.9184 -99.819 69.8477 
-87.9392 -100.316 70.4728 -87.1129 -101.021 71.1852 -86.1367 -101.608 71.7504 
-92.2415 -98.4017 69.218 -91.1523 -98.5261 69.807 -89.8696 -98.6044 70.2555 
-88.7168 -98.8709 70.7838 -87.8718 -99.5718 71.5072 -86.9407 -100.314 72.1525 
-85.8893 -100.896 72.6425 -93.1131 -97.5028 69.5787 -92.1183 -97.4562 70.0684 
-90.939 -97.58 70.6095 -89.6541 -97.7425 71.1649 -88.5497 -98.1655 71.8027 
-87.529 -98.8053 72.4286 -86.4771 -99.4604 72.9394 -85.5968 -100.198 73.415 
-93.8267 -96.8945 70.0533 -92.9016 -96.6349 70.3728 -91.8528 -96.7671 70.9379 
-90.6385 -97.0108 71.5991 -89.3781 -97.252 72.1738 -88.1328 -97.5671 72.6316 
-86.9376 -97.9937 73.0594 -86.0115 -98.684 73.5401 -85.3901 -99.6282 74.0698 
-94.7218 -96.8875 70.7441 -93.8273 -96.3443 70.918 -94.7181 -96.5811 71.8731 
-93.7275 -96.1689 72.317 -94.6267 -96.4336 73.4217 -92.7912 -96.2267 71.4231 
-93.471 -95.8954 74.0397 -94.4251 -96.0976 74.9728 -92.5118 -95.9478 73.0799 
-91.6049 -96.4104 72.2034 -93.0745 -95.3974 75.3847 -94.0631 -95.8511 76.1802 
-92.0661 -95.2478 74.7035 -91.1969 -95.8279 73.8474 -90.3176 -96.6174 72.8654 
-92.6378 -95.4305 76.4174 -93.5514 -96.0737 77.3723 -91.5875 -94.7833 75.7248 
-90.7062 -94.992 75.1589 -89.8802 -95.9865 74.2075 -88.9304 -96.8138 73.1834 
-92.2798 -95.9771 77.802 -93.0928 -96.4317 78.7811 -91.2322 -95.3627 76.7695 
-90.2695 -95.0234 76.1223 -89.4214 -95.5876 75.4211 -88.4167 -96.405 74.3139 
-87.4728 -97.0427 73.4172 -91.9841 -96.3635 79.3928 -92.7653 -96.7566 80.046 
-90.9505 -96.1441 78.3417 -89.9117 -95.8843 77.3985 -88.9858 -95.9698 76.7188 
-87.9825 -96.4324 75.7739 -86.9633 -96.8521 74.6156 -86.3001 -97.5217 73.851 
-91.5936 -96.7446 80.597 -92.3833 -97.329 80.9047 -90.5669 -96.5447 79.8962 
-89.5309 -96.5012 78.9653 -88.572 -96.5254 78.154 -87.604 -96.763 77.3494 
-86.668 -97.0721 76.2673 -85.9779 -97.5269 75.1624 -85.6107 -98.4429 74.4399 
-91.075 -97.46 81.3529 -91.862 -98.1475 81.5189 -90.0803 -97.0648 80.95 
-89.118 -96.9412 80.27 -88.23 -96.9287 79.4699 -87.3071 -97.0717 78.6734 
-86.4438 -97.3904 77.7899 -85.797 -97.8145 76.7356 -85.3682 -98.5031 75.7163 
-85.0762 -99.4938 75.0015 -95.5158 -97.8313 70.4314 -95.5524 -97.3206 71.3995 
-96.2898 -98.2327 71.0115 -96.3008 -97.79 72.1382 -96.9654 -98.7312 71.6345 
-95.5367 -97.0185 72.705 -96.9156 -98.3731 72.9553 -97.435 -99.6052 72.4398 
-96.2801 -97.4341 73.6072 -95.4853 -96.6978 74.3329 -97.2981 -99.3973 73.9759 
-97.5624 -100.915 73.5266 -96.8877 -98.089 74.5921 -96.2968 -96.9886 75.3104 
-95.3399 -96.2994 75.8627 -97.4433 -100.814 75.0941 -97.4723 -102.287 74.6588 
-97.1826 -99.2918 75.6235 -96.8446 -97.7944 76.2817 -96.1055 -96.7439 76.8059 
-94.869 -96.2974 77.1098 -97.5339 -102.229 76.003 -97.3406 -103.469 75.5189 
-97.2405 -100.791 76.4878 -96.8874 -99.2067 77.0823 -96.446 -97.8647 77.6285 
-95.4252 -97.1109 77.9769 -94.1525 -96.7139 78.3423 -97.5347 -103.529 76.6776 
-97.1404 -104.615 76.1483 -97.3223 -102.266 77.1673 -96.7476 -100.782 77.7024 
-96.3648 -99.3641 78.2885 -95.7284 -98.3796 78.7242 -94.6082 -97.726 79.0871 
-93.5974 -97.1584 79.5701 -97.3172 -104.828 77.3123 -96.9221 -105.89 76.7716 
-97.3134 -103.695 77.8365 -96.7601 -102.349 78.3423 -96.2713 -100.88 78.9064 
-95.8937 -99.6646 79.4409 -95.0497 -98.869 79.8101 -94.0116 -98.2566 80.1387 
-93.2085 -97.7032 80.5363 -96.9944 -106.114 77.9216 -96.7877 -107.193 77.4073 
-97.0509 -105.031 78.4577 -96.7151 -103.853 78.9848 -96.2653 -102.471 79.5099 
[...]
CELL_DATA 2000
SCALARS Distance double
LOOKUP_TABLE default
153.956 153.104 153.433 153.319 152.526 152.683 152.593 152.9 152.921 
152.248 152.296 152.212 152.353 152.432 152.694 152.749 152.06 152.114 
152.036 152.086 152.084 152.29 152.328 152.525 152.386 151.987 151.995 
151.931 151.918 151.816 151.932 151.869 152.059 151.856 151.987 151.668 
152.037 152.005 151.939 151.858 151.719 151.69 151.578 151.641 151.451 
151.477 151.159 151.22 150.955 152.008 152.008 151.894 151.858 151.685 
151.627 151.474 151.454 151.29 151.224 150.956 150.865 150.641 150.67 
150.576 151.932 151.892 151.709 151.711 151.501 151.51 151.312 151.334 
151.149 151.125 150.877 150.774 150.538 150.495 150.412 150.463 150.448 
151.976 151.83 151.594 151.512 151.287 151.274 151.081 151.108 150.929 
150.947 150.741 150.694 150.477 150.423 150.29 150.321 150.267 150.343 
150.269 154.177 154.127 153.898 153.348 153.844 153.755 153.292 153.114 
152.713 153.536 153.37 152.88 152.891 152.533 152.532 152.297 153.779 
153.215 152.58 152.411 152.035 152.145 151.948 152.102 151.998 154.722 
153.833 153.181 152.493 152.103 151.813 151.698 151.723 151.748 151.87 
151.924 155.869 155.004 154.518 153.584 153.242 152.449 152.348 151.886 
151.978 151.814 151.959 151.947 152.043 156.905 156.177 155.833 155.04 
154.744 153.881 153.646 152.905 152.814 152.348 152.368 152.142 152.184 
152.097 152.091 157.878 157.21 156.908 156.261 155.977 155.256 154.88 
154.133 153.769 153.19 152.963 152.605 152.496 152.3 152.259 152.137 
152.093 158.807 158.183 157.882 157.276 156.985 156.334 155.925 155.192 
154.718 154.041 153.679 153.179 152.983 152.657 152.593 152.392 152.399 
152.222 152.207 159.184 159.462 158.982 158.304 159.654 159.229 158.517 
158.072 157.359 159.726 159.345 158.584 158.181 157.392 157.015 156.232 
159.777 159.409 158.664 158.219 157.434 157.01 156.216 155.815 155.033 
159.769 159.483 158.819 158.368 157.638 157.149 156.435 155.926 155.18 
154.689 154.012 159.591 159.423 158.815 158.496 157.785 157.379 156.69 
156.235 155.532 154.986 154.278 153.795 153.267 159.364 159.209 158.622 
158.395 157.715 157.424 156.741 156.413 155.73 155.304 154.604 154.123 
153.545 153.171 152.824 159.236 159.033 158.492 158.235 157.644 157.351 
156.76 156.441 155.825 155.443 154.79 154.377 153.815 153.464 153.093 
152.827 152.603 159.199 158.977 158.504 158.221 157.712 157.392 156.885 
156.546 156 155.598 154.97 154.545 153.967 153.651 153.255 153.049 
152.783 152.604 152.384 152.246 152.632 152.315 152.03 153.057 152.7 
152.406 152.053 151.744 153.719 153.205 152.925 152.484 152.202 151.814 
151.548 154.713 154.039 153.745 153.145 152.9 152.397 152.129 151.667 
151.357 155.785 155.126 154.798 154.09 153.79 153.2 152.924 152.356 
151.953 151.415 151.04 156.723 156.17 155.893 155.18 154.826 154.144 
153.844 153.214 152.81 152.116 151.641 151.102 150.854 157.578 157.096 
156.946 156.296 156.024 155.268 154.984 154.242 153.911 153.109 152.673 
151.897 151.596 151.091 151.039 158.371 157.953 157.885 157.359 157.206 
156.521 156.283 155.503 155.193 154.343 153.953 153.084 152.769 152.055 
151.958 151.447 151.45 159.063 158.709 158.662 158.256 158.155 157.631 
157.423 156.76 156.433 155.646 155.232 154.388 154.026 153.276 153.113 
152.509 152.482 151.934 151.907 151.967 151.724 151.73 151.503 151.46 
151.464 151.251 151.284 151.15 151.252 151.235 151.058 151.07 150.941 
150.988 150.932 151.011 151.026 150.829 150.878 150.741 150.793 150.692 
150.784 150.753 150.727 150.756 150.538 150.595 150.407 150.504 150.377 
150.512 150.447 150.596 150.565 150.623 150.558 150.398 150.348 150.121 
150.122 149.97 150.127 150.123 150.307 150.308 150.417 150.375 150.774 
150.594 150.456 150.325 150.092 149.937 149.708 149.739 149.739 149.966 
150.037 150.194 150.164 150.236 150.204 151.045 150.777 150.539 150.397 
150.171 149.997 149.739 149.605 149.493 149.596 149.61 149.825 149.76 
149.942 149.863 150.054 150.085 151.412 151.035 150.699 150.472 150.268 
150.11 149.955 149.759 149.624 149.492 149.388 149.403 149.254 149.397 
149.258 149.543 149.558 149.909 150.017 151.562 151.691 151.291 150.806 
152.157 151.58 151.039 150.665 150.354 152.654 152.101 151.513 151.028 
150.629 150.33 150.09 152.899 152.439 151.739 151.366 150.861 150.609 
150.275 150.055 149.785 153.201 152.636 151.839 151.403 150.804 150.636 
150.272 150.164 149.815 149.657 149.392 153.832 153.137 152.425 151.691 
151.084 150.633 150.319 150.127 149.833 149.63 149.254 149.174 149.02 
154.558 153.92 153.36 152.56 152.003 151.261 150.936 150.445 150.234 
149.814 149.47 149.113 148.866 148.854 148.949 155.174 154.636 154.134 
153.497 152.971 152.278 151.862 151.262 150.99 150.453 150.163 149.6 
149.347 148.971 149.028 149.019 149.342 155.716 155.214 154.717 154.176 
153.679 153.112 152.667 152.109 151.751 151.232 150.946 150.414 150.19 
149.687 149.656 149.373 149.605 149.583 149.906 152.167 153.183 152.533 
152.327 154.226 153.599 153.45 152.828 152.768 155.349 154.685 154.577 
153.969 153.918 153.339 153.281 156.678 155.92 155.825 155.146 155.102 
154.482 154.415 153.792 153.626 158.103 157.349 157.258 156.493 156.431 
155.72 155.638 154.952 154.811 154.107 153.946 159.375 158.764 158.688 
157.937 157.804 157.064 156.941 156.226 156.073 155.343 155.194 154.501 
154.45 160.424 159.97 159.97 159.3 159.107 158.362 158.177 157.496 
157.358 156.65 156.491 155.766 155.675 155.053 155.073 161.394 160.993 
161.098 160.529 160.389 159.637 159.415 158.7 158.58 157.92 157.805 
157.086 156.954 156.269 156.231 155.658 155.681 162.39 161.968 162.076 
161.607 161.546 160.898 160.7 159.969 159.814 159.14 159.031 158.357 
158.207 157.522 157.409 156.801 156.78 156.233 156.23 159.413 159.878 
159.436 159.039 160.436 159.94 159.481 159.022 158.544 160.947 160.473 
159.924 159.427 158.83 158.407 157.81 161.322 160.873 160.246 159.771 
159.059 158.615 157.914 157.532 156.818 161.649 161.152 160.446 159.989 
159.273 158.819 158.089 157.628 156.857 156.429 155.629 161.886 161.388 
160.593 160.148 159.471 159.054 158.413 157.904 157.14 156.554 155.725 
155.228 154.468 161.962 161.504 160.692 160.278 159.631 159.269 158.698 
158.26 157.548 156.938 156.091 155.463 154.71 154.212 153.607 162.093 
161.596 160.881 160.435 159.87 159.48 158.948 158.528 157.853 157.312 
156.486 155.875 155.104 154.566 153.963 153.502 152.982 162.404 161.887 
161.298 160.789 160.315 159.843 159.357 158.852 158.21 157.631 156.854 
156.251 155.503 154.967 154.353 153.887 153.343 152.899 152.373 159.762 
160.527 160.149 160.243 161.475 161.003 161.067 160.683 160.814 162.465 
162.003 162.008 161.543 161.595 161.249 161.344 163.267 162.921 162.919 
162.468 162.418 162.009 162.068 161.749 161.8 164.011 163.656 163.704 
163.313 163.268 162.823 162.847 162.501 162.664 162.283 162.301 165.005 
164.505 164.567 164.121 164.13 163.668 163.679 163.302 163.495 163.203 
163.381 162.86 162.706 166.066 165.568 165.587 165.087 165.089 164.58 
164.528 164.09 164.154 163.936 164.138 163.875 163.846 163.198 162.836 
166.823 166.482 166.453 166.057 166.035 165.567 165.452 164.922 164.773 
164.443 164.498 164.411 164.505 164.203 164 163.281 162.905 167.277 
167.055 167.003 166.743 166.708 166.396 166.291 165.814 165.556 165.045 
164.876 164.66 164.74 164.673 164.69 164.32 164.075 163.378 163.084 
167.463 167.65 167.443 167.206 167.724 167.576 167.322 167.158 166.921 
167.621 167.538 167.249 167.18 166.944 166.847 166.53 167.495 167.405 
167.113 167.04 166.809 166.782 166.482 166.326 165.829 167.286 167.295 
167.043 166.95 166.727 166.66 166.403 166.252 165.817 165.549 165.108 
166.666 166.924 166.693 166.802 166.554 166.572 166.298 166.197 165.819 
165.589 165.238 165.024 164.874 165.764 166.115 165.907 166.227 166.013 
166.23 165.953 166.004 165.611 165.528 165.173 165.112 164.945 164.92 
164.804 165.045 165.267 165.124 165.413 165.326 165.605 165.473 165.603 
165.274 165.231 164.81 164.835 164.574 164.745 164.558 164.642 164.283 
164.64 164.735 164.633 164.8 164.768 165.004 164.991 165.181 165.004 
164.967 164.553 164.439 164.056 164.166 163.944 164.165 163.871 163.904 
163.402 164.428 164.067 164.307 164.416 163.463 163.839 163.95 164.287 
164.472 162.658 163.084 163.128 163.618 163.831 164.349 164.632 161.893 
162.282 162.262 162.681 162.852 163.513 163.882 164.484 164.667 161.037 
161.538 161.554 161.889 161.954 162.498 162.852 163.574 163.831 164.322 
164.245 159.876 160.547 160.619 161.124 161.147 161.642 161.875 162.54 
162.833 163.401 163.419 163.772 163.696 158.665 159.309 159.391 160.029 
160.099 160.711 160.887 161.555 161.827 162.44 162.58 162.991 163.018 
163.37 163.508 157.63 158.168 158.246 158.824 158.943 159.58 159.776 
160.471 160.715 161.403 161.601 162.166 162.28 162.721 162.835 163.269 
163.411 156.704 157.198 157.271 157.78 157.896 158.481 158.677 159.335 
159.539 160.223 160.39 161.08 161.233 161.869 161.984 162.508 162.54 
163.009 162.968 164.408 164.185 164.197 163.976 163.773 163.842 163.546 
163.668 163.383 163.163 163.301 162.94 163.116 162.811 162.955 162.609 
162.388 162.612 162.262 162.453 162.096 162.278 161.916 162.103 161.763 
161.459 161.769 161.459 161.728 161.353 161.53 161.076 161.28 160.873 
161.169 160.798 160.446 160.777 160.424 160.795 160.404 160.693 160.197 
160.404 159.903 160.169 159.748 160.08 159.648 159.463 159.742 159.326 
159.677 159.243 159.597 159.105 159.416 158.915 159.196 158.744 159.03 
158.62 158.905 158.489 158.573 158.781 158.368 158.635 158.226 158.482 
158.014 158.282 157.822 158.144 157.729 158.048 157.642 157.928 157.537 
157.814 157.451 157.803 157.943 157.547 157.764 157.423 157.618 157.205 
157.344 156.895 157.105 156.726 157.027 156.666 156.961 156.57 156.861 
156.497 156.812 156.497 164.655 165.159 164.797 164.538 165.576 165.328 
165.081 164.653 164.231 165.472 165.499 165.293 165.124 164.703 164.238 
163.642 165.089 165.132 164.909 165.044 164.749 164.576 163.974 163.504 
162.801 164.977 164.811 164.518 164.573 164.404 164.445 164.028 163.729 
163.006 162.549 161.824 164.872 164.76 164.417 164.34 164.13 164.138 
163.841 163.69 163.075 162.691 161.929 161.52 160.824 164.377 164.458 
164.078 164.149 163.822 163.881 163.498 163.45 162.867 162.644 161.923 
161.593 160.888 160.527 159.87 163.794 163.85 163.44 163.586 163.226 
163.391 162.961 163.01 162.415 162.32 161.656 161.483 160.857 160.592 
159.974 159.613 158.997 163.408 163.355 162.935 162.963 162.615 162.731 
162.365 162.43 161.912 161.849 161.246 161.149 160.608 160.489 159.974 
159.723 159.152 158.788 158.223 163.069 162.3 162.667 162.585 161.299 
161.822 161.82 162.216 162.216 160.095 160.711 160.76 161.346 161.391 
161.865 161.897 158.893 159.474 159.502 160.172 160.267 160.901 160.929 
161.452 161.402 157.781 158.321 158.35 158.95 159.054 159.701 159.763 
160.357 160.308 160.83 160.738 156.781 157.272 157.345 157.884 157.987 
158.557 158.603 159.161 159.124 159.676 159.63 160.171 160.138 156.053 
156.41 156.487 156.932 157.025 157.543 157.573 158.064 157.987 158.489 
158.445 159.034 159.055 159.619 159.573 155.521 155.814 155.842 156.158 
156.182 156.606 156.634 157.085 157.025 157.438 157.365 157.87 157.897 
158.494 158.487 159.002 158.832 154.866 155.238 155.217 155.527 155.45 
155.79 155.746 156.168 156.144 156.551 156.498 156.9 156.894 157.386 
157.393 157.897 157.773 158.192 157.948 154.395 153.769 154.322 154.771 
153.262 153.691 154.1 154.627 154.996 152.921 153.207 153.445 153.907 
154.263 154.824 155.236 152.508 152.819 152.943 153.282 153.559 154.076 
154.547 155.145 155.632 151.849 152.29 152.493 152.835 153.09 153.475 
153.925 154.479 155.04 155.595 156.054 151.117 151.563 151.825 152.314 
152.604 153.037 153.391 153.893 154.395 154.988 155.509 156.021 156.458 
150.634 150.89 151.015 151.504 151.733 152.344 152.627 153.24 153.611 
154.264 154.744 155.396 155.874 156.424 156.866 150.45 150.522 150.483 
150.72 150.814 151.338 151.635 152.313 152.708 153.393 153.845 154.544 
155.029 155.707 156.15 156.759 157.161 150.295 150.37 150.31 150.351 
150.391 150.618 150.949 151.442 151.974 152.561 153.094 153.694 154.207 
154.844 155.33 155.958 156.376 156.97 157.337 157.26 156.328 156.845 
156.991 155.295 155.875 156.046 156.646 156.86 154.179 154.781 154.918 
155.603 155.815 156.473 156.623 153.111 153.683 153.776 154.41 154.58 
155.301 155.486 156.15 156.283 152.05 152.654 152.791 153.341 153.474 
154.079 154.303 154.989 155.233 155.864 156.097 151.04 151.609 151.83 
152.407 152.562 153.079 153.269 153.888 154.192 154.852 155.136 155.751 
156.018 150.43 150.748 150.956 151.469 151.651 152.167 152.291 152.877 
153.11 153.806 154.08 154.75 154.98 155.633 155.89 150.239 150.319 
150.367 150.686 150.803 151.255 151.357 151.878 152.047 152.693 152.953 
153.643 153.889 154.555 154.818 155.5 155.817 150.107 150.111 149.932 
150.109 150.064 150.439 150.534 151 151.188 151.713 151.99 152.583 
152.902 153.517 153.85 154.484 154.855 155.506 155.871 159.291 158.395 
159.184 159.862 157.429 158.25 158.948 159.772 160.438 156.468 157.298 
157.99 158.819 159.502 160.299 160.937 155.492 156.373 157.151 157.937 
158.643 159.379 160.053 160.814 161.5 154.612 155.435 156.334 157.17 
157.989 158.676 159.382 160.024 160.709 161.424 162.077 154.206 154.717 
155.552 156.346 157.245 158.053 158.836 159.478 160.116 160.705 161.289 
161.945 162.478 154.347 154.543 155.162 155.661 156.442 157.233 158.051 
158.847 159.492 160.119 160.619 161.199 161.695 162.318 162.808 154.623 
154.754 155.218 155.431 155.989 156.502 157.207 157.965 158.63 159.361 
159.867 160.497 160.967 161.584 162.082 162.684 163.122 154.726 154.943 
155.365 155.51 155.904 156.17 156.69 157.213 157.814 158.472 159.011 
159.675 160.178 160.838 161.344 161.97 162.404 162.953 163.252 159.941 
160.534 160.506 161.04 161.117 161.123 161.663 161.61 162.136 161.648 
161.689 162.268 162.237 162.805 162.757 163.324 162.253 162.278 162.921 
162.87 163.484 163.45 164.09 164.012 164.51 162.814 162.914 163.596 
163.577 164.205 164.163 164.841 164.803 165.383 165.169 165.477 163.158 
163.363 164.038 164.171 164.805 164.858 165.538 165.563 166.212 166.071 
166.462 166.083 166.266 163.432 163.622 164.262 164.474 165.12 165.318 
166.013 166.179 166.852 166.86 167.297 167.041 167.216 166.82 166.935 
163.673 163.859 164.425 164.639 165.232 165.502 166.163 166.476 167.109 
167.319 167.719 167.689 167.81 167.594 167.603 167.34 167.364 163.727 
163.98 164.454 164.713 165.199 165.505 166.048 166.437 166.966 167.326 
167.648 167.831 167.906 167.915 167.883 167.787 167.746 167.586 167.535 
159.848 160.911 160.283 160.099 161.995 161.339 161.136 160.523 160.311 
163.155 162.448 162.211 161.555 161.318 160.687 160.41 164.251 163.584 
163.3 162.633 162.352 161.693 161.383 160.731 160.415 165.094 164.527 
164.195 163.634 163.34 162.724 162.369 161.686 161.28 160.659 160.307 
165.842 165.276 164.907 164.393 164.094 163.602 163.264 162.646 162.169 
161.485 161.013 160.456 160.085 166.601 166.062 165.701 165.112 164.741 
164.237 163.883 163.402 162.961 162.346 161.824 161.175 160.738 160.205 
159.866 167.133 166.775 166.459 165.925 165.471 164.876 164.399 163.909 
163.501 163.034 162.603 162.009 161.553 160.931 160.553 160.021 159.722 
167.331 167.151 166.866 166.533 166.074 165.546 164.975 164.423 163.958 
163.526 163.19 162.735 162.356 161.77 161.35 160.756 160.404 159.902 
159.637 164.796 165.223 165.07 165.291 165.928 165.609 165.763 165.598 
165.715 166.793 166.406 166.448 166.124 166.13 165.886 165.72 167.426 
167.192 167.175 166.819 166.744 166.38 166.216 165.801 165.51 167.705 
167.645 167.651 167.416 167.312 166.997 166.854 166.438 166.211 165.698 
165.443 167.855 167.85 167.868 167.73 167.594 167.411 167.244 167.002 
166.759 166.385 166.051 165.622 165.269 167.922 167.97 167.967 167.87 
167.701 167.563 167.378 167.241 166.992 166.753 166.364 166.038 165.577 
165.236 164.758 167.823 167.947 167.963 167.935 167.816 167.68 167.553 
167.389 167.221 166.961 166.623 166.266 165.822 165.46 165.011 164.65 
164.212 167.628 167.781 167.848 167.906 167.899 167.838 167.812 167.663 
167.574 167.295 167.01 166.598 166.166 165.747 165.325 164.95 164.565 
164.188 163.823 
POINT_DATA 1002
SCALARS Distance double
LOOKUP_TABLE default
153.818 154.47 153.585 152.901 152.83 153.243 152.323 152.43 152.561 
152.963 152.141 152.179 152.179 152.562 152.727 152.028 151.979 151.945 
152.137 152.291 152.145 151.985 152.004 151.788 151.723 151.755 151.529 
151.334 152.031 152.083 151.809 151.566 151.452 151.152 150.802 150.736 
151.915 152.03 151.742 151.512 151.352 151.074 150.648 150.478 150.518 
151.737 152.033 151.483 151.285 151.146 150.956 150.606 150.365 150.396 
150.435 151.727 152.174 151.323 151.062 150.902 150.746 150.527 150.303 
150.206 150.203 150.173 154.479 153.634 154.272 153.364 153.9 152.883 
152.85 153.862 152.432 152.289 152.938 154.542 151.957 151.721 151.843 
154.021 155.605 152.589 151.767 151.613 151.796 155.39 156.616 154.145 
152.998 152.285 152.041 152.047 156.527 157.576 155.587 154.507 153.439 
152.724 152.343 152.166 157.529 158.532 156.672 155.678 154.459 153.414 
152.754 152.396 152.22 158.49 159.401 157.63 156.656 155.444 154.255 
153.374 152.825 152.564 152.418 159.663 158.795 159.929 158.967 160.07 
157.793 159.003 160.108 157.787 156.599 159.12 160.108 157.871 156.648 
155.405 159.227 159.975 158.115 156.931 155.73 154.41 159.072 159.73 
158.15 157.096 156.048 154.822 153.606 158.83 159.537 157.968 157.033 
156.099 155.049 153.947 153.089 158.737 159.438 157.912 157.056 156.197 
155.187 154.143 153.363 152.834 158.762 159.4 158.018 157.211 156.392 
155.418 154.312 153.453 152.955 152.565 152.005 152.38 151.71 152.77 
152.075 151.453 153.398 152.615 151.921 151.275 154.417 153.429 152.662 
151.812 150.988 155.553 154.434 153.516 152.601 151.452 150.687 156.573 
155.561 154.491 153.533 152.303 151.173 150.708 157.51 156.761 155.758 
154.709 153.499 152.222 151.398 151.017 158.337 157.813 157.05 156.048 
154.829 153.537 152.55 151.93 151.405 159.03 158.621 158.036 157.189 
156.07 154.803 153.742 153.049 152.471 151.849 151.464 151.224 151.07 
151.035 150.922 150.839 150.776 150.683 150.624 150.619 150.51 150.333 
150.213 150.3 150.428 150.481 150.208 149.828 149.875 150.2 150.301 
150.6 150.292 149.782 149.521 149.829 150.088 150.109 150.717 150.305 
149.922 149.519 149.443 149.565 149.635 149.852 150.985 150.398 150.106 
149.841 149.518 149.207 148.995 149.149 149.677 151.853 151.037 152.184 
151.523 152.768 150.562 152.019 153.181 151.004 150.327 152.122 153.398 
151.082 150.504 150.002 152.39 153.818 151.008 150.327 149.992 149.457 
153.209 154.473 151.679 150.567 150.068 149.446 148.863 154.081 155.124 
152.796 151.54 150.705 149.937 149.035 148.707 154.707 155.695 153.618 
152.505 151.546 150.725 149.835 149.177 149.205 155.242 156.216 154.206 
153.217 152.282 151.431 150.686 150.054 149.743 149.871 152.801 152.946 
153.803 154.051 154.826 153.356 155.181 156.042 154.503 153.898 156.541 
157.457 155.757 155.05 154.301 158.053 158.805 157.184 156.358 155.508 
154.625 159.438 159.886 158.578 157.653 156.815 155.898 155.063 160.589 
160.8 159.888 158.859 158.024 157.24 156.34 155.626 161.594 161.79 
161.115 160.169 159.222 158.498 157.679 156.844 156.225 162.524 162.86 
162.114 161.413 160.522 159.702 158.897 158.047 157.337 156.78 159.813 
159.467 160.357 159.999 160.955 158.979 160.471 161.421 159.306 158.209 
160.733 161.816 159.541 158.336 157.202 160.912 162.223 159.7 158.585 
157.353 156.021 161.035 162.407 159.837 158.883 157.778 156.294 154.864 
161.077 162.409 159.969 159.093 158.125 156.748 155.237 154.033 161.307 
162.567 160.263 159.384 158.374 157.069 155.646 154.432 153.428 160.077 
160.563 160.944 161.507 161.977 161.135 162.529 162.893 161.993 161.662 
163.345 163.569 162.889 162.377 162.169 164.061 164.409 163.711 163.209 
162.96 162.867 165.05 165.558 164.595 164.091 163.743 163.786 163.494 
166.098 166.545 165.618 165.058 164.441 164.283 164.35 163.698 166.806 
167.122 166.46 166.03 165.273 164.611 164.606 164.565 163.742 167.239 
167.475 166.968 166.702 166.146 165.257 164.767 164.853 164.657 163.828 