# vtk DataFile Version 4.0
vtk output
ASCII
DATASET POLYDATA
POINTS 1002 float
-79.4865 -115.531 75.6667 -79.5241 -116.998 75.1303 -79.467 -116.377 74.1728 
-79.7371 -115.097 74.6989 -79.5667 -115.807 73.2183 -79.937 -114.363 76.1444 
-80.3043 -114.785 73.8101 -79.9405 -115.308 72.2195 -80.5359 -114.076 75.2557 
-80.8725 -113.434 76.5093 -80.9636 -114.359 72.9124 -80.4801 -114.756 71.2787 
-81.2667 -113.717 74.4948 -81.4331 -112.916 75.71 -81.6844 -112.105 76.9569 
-81.4858 -113.666 72.0757 -81.1201 -114.119 70.6551 -81.8157 -113.062 73.7171 
-81.8957 -112.151 75.0085 -82.0107 -111.217 76.1677 -82.1997 -110.325 77.5397 
-82.0951 -112.908 71.5044 -81.9531 -113.522 70.3262 -82.3548 -112.289 72.9805 
-82.4047 -111.352 74.3294 -82.4385 -110.324 75.4464 -82.6591 -109.538 76.7039 
-82.8204 -108.835 78.0073 -82.9466 -112.246 71.1328 -82.936 -112.969 70.0668 
-83.1423 -111.587 72.4051 -83.2344 -110.764 73.7062 -83.1823 -109.701 74.8343 
-83.3069 -108.85 75.9454 -83.5016 -108.273 77.1754 -83.5202 -107.655 78.3128 
-83.8528 -111.578 70.8248 -83.9139 -112.328 69.8612 -83.9439 -110.829 71.927 
-84.0809 -110.097 73.092 -84.0297 -109.148 74.2175 -83.9682 -108.157 75.2618 
-84.0669 -107.459 76.3616 -84.1175 -106.888 77.5361 -84.0325 -106.249 78.5938 
-84.7216 -110.865 70.6124 -84.8021 -111.601 69.7744 -84.6687 -110.032 71.5495 
-84.7115 -109.218 72.5117 -84.6888 -108.336 73.5139 -84.5382 -107.326 74.5272 
-84.4793 -106.457 75.5396 -84.5269 -105.826 76.6692 -84.5047 -105.254 77.8282 
-84.3969 -104.705 78.8037 -85.5615 -110.2 70.5017 -85.5836 -110.917 69.7639 
-85.4696 -109.357 71.3171 -85.3978 -108.451 72.1116 -85.346 -107.514 72.9194 
-85.2007 -106.515 73.8367 -85.0307 -105.583 74.7954 -84.983 -104.875 75.8195 
-84.9777 -104.316 76.9605 -84.89 -103.819 78.0227 -84.7386 -103.414 78.8652 
-79.5053 -118.062 74.107 -79.3216 -117.256 73.136 -79.1893 -118.898 73.287 
-79.0279 -117.978 72.1949 -78.8028 -119.656 72.4114 -79.2273 -116.454 72.0559 
-78.7859 -118.782 70.9848 -78.6877 -120.616 71.1777 -78.921 -117.108 70.897 
-79.4719 -115.81 70.9211 -78.6867 -119.762 69.4482 -78.7603 -121.612 69.9282 
-78.7741 -117.963 69.4264 -79.2408 -116.524 69.7078 -80.129 -115.292 70.0706 
-78.7714 -120.68 68.2314 -79.0155 -122.374 69.0919 -78.753 -118.899 67.8388 
-79.2221 -117.433 68.2776 -80.1222 -116.114 69.0058 -81.0797 -114.777 69.6371 
-79.3565 -121.476 67.6736 -79.7528 -122.925 68.5922 -79.0806 -119.83 66.8767 
-79.3197 -118.317 66.9245 -80.1975 -116.931 67.7548 -81.2544 -115.534 68.6299 
-82.1478 -114.205 69.3411 -80.4314 -122.094 67.5981 -80.847 -123.231 68.4126 
-79.9879 -120.763 66.7291 -79.8588 -119.263 66.3355 -80.3981 -117.648 66.7474 
-81.3961 -116.079 67.5543 -82.3872 -114.737 68.338 -83.2174 -113.539 69.0921 
-81.5485 -122.344 67.8933 -81.8958 -123.248 68.614 -81.163 -121.389 67.0688 
-80.9319 -120.152 66.4768 -81.1519 -118.454 66.4639 -81.8321 -116.608 66.878 
-82.6837 -115.094 67.4609 -83.4985 -113.908 68.1892 -84.2134 -112.77 68.9965 
-82.5117 -122.294 68.3756 -82.7971 -123.122 68.98 -82.2664 -121.544 67.592 
-82.1705 -120.634 66.8759 -82.352 -119.167 66.6069 -82.799 -117.271 66.7057 
-83.3574 -115.558 66.9189 -83.9301 -114.258 67.3894 -84.5098 -113.123 68.1756 
-85.0745 -111.999 69.0217 -83.5516 -122.433 68.9819 -83.3711 -121.615 68.3057 
-84.5373 -121.713 68.8664 -84.5997 -120.93 68.0446 -85.7295 -120.988 68.6874 
-83.39 -120.873 67.4253 -86.0006 -120.233 67.7568 -86.9242 -120.223 68.6065 
-84.8973 -120.077 67.1449 -83.6422 -119.74 66.8215 -87.2211 -119.297 67.7491 
-88.0341 -119.238 68.6606 -86.3359 -119.106 67.0442 -85.2636 -118.577 66.7536 
-84.0363 -117.94 66.7089 -88.2631 -117.969 68.0818 -89.0981 -118.002 68.8633 
-87.4914 -117.806 67.3673 -86.6049 -117.25 66.8614 -85.573 -116.575 66.6225 
-84.429 -116.03 66.6639 -89.2573 -116.574 68.6223 -90.1247 -116.721 69.2551 
-88.5514 -116.384 67.9599 -87.812 -115.89 67.2507 -86.8642 -115.243 66.573 
-85.8064 -114.824 66.3694 -84.7635 -114.53 66.7645 -90.314 -115.298 69.1693 
-91.2025 -115.434 69.6712 -89.5726 -115.138 68.5505 -88.9709 -114.746 67.8025 
-88.1569 -114.111 66.9232 -87.0688 -113.663 66.3881 -85.9785 -113.47 66.6763 
-85.1061 -113.282 67.4492 -91.5868 -113.978 69.4864 -92.3952 -114.143 69.8782 
-90.7273 -113.843 68.9701 -90.0289 -113.618 68.3527 -89.3322 -113.144 67.6581 
-88.3466 -112.65 67.1115 -87.1851 -112.401 67.1468 -86.1979 -112.245 67.75 
-85.5331 -112.084 68.4567 -92.963 -112.712 69.5252 -93.5602 -113.021 69.8805 
-92.1329 -112.443 69.1548 -91.2495 -112.239 68.781 -90.4247 -111.975 68.4315 
-89.5198 -111.618 68.1548 -88.435 -111.362 68.1024 -87.3665 -111.223 68.3799 
-86.5652 -111.077 68.8522 -86.0276 -110.959 69.3296 -86.3814 -109.835 70.1855 
-86.9221 -109.861 69.7475 -87.2668 -108.564 70.549 -87.5842 -109.931 69.361 
-87.8995 -108.457 70.0407 -88.1135 -106.967 70.7961 -88.5069 -109.987 69.1097 
-88.6689 -108.358 69.6551 -88.7934 -106.656 70.1979 -88.8673 -105.239 70.9833 
-89.6234 -110.073 69.0157 -89.6836 -108.312 69.4968 -89.6634 -106.439 69.7506 
-89.644 -104.87 70.4112 -89.7302 -103.774 71.2461 -90.7516 -110.294 69.0082 
-90.9076 -108.471 69.49 -90.8467 -106.48 69.5735 -90.7054 -104.671 69.9502 
-90.6799 -103.398 70.7644 -90.7316 -102.499 71.5339 -91.8318 -110.561 69.0221 
-92.1853 -108.821 69.4797 -92.2152 -106.883 69.6329 -92.0646 -104.817 69.723 
-91.9052 -103.136 70.279 -91.7634 -102.001 71.0028 -91.5756 -101.199 71.6995 
-92.87 -110.85 69.0832 -93.3455 -109.215 69.3929 -93.4202 -107.428 69.769 
-93.3193 -105.318 69.8648 -93.215 -103.281 70.036 -92.9888 -101.758 70.496 
-92.6191 -100.733 71.0877 -92.2125 -100.084 71.8813 -93.7579 -111.281 69.2603 
-94.29 -109.738 69.3232 -94.3535 -107.997 69.8034 -94.1975 -105.928 70.224 
-94.1706 -103.827 70.3161 -94.1233 -102.117 70.4003 -93.7986 -100.829 70.7343 
-93.304 -99.9286 71.3912 -92.8223 -99.3988 72.3417 -94.35 -111.798 69.5908 
-94.9422 -110.412 69.4649 -95.102 -108.706 69.81 -94.9365 -106.63 70.4562 
-94.8348 -104.538 70.846 -94.8952 -102.853 70.8568 -94.8141 -101.514 70.8973 
-94.4391 -100.383 71.3032 -93.9197 -99.579 72.1039 -93.4164 -99.1008 73.0963 
-86.3897 -108.975 70.9592 -87.2873 -107.543 71.3393 -86.3141 -108.012 71.7467 
-88.1039 -105.869 71.5805 -87.2295 -106.509 72.0932 -86.2306 -106.991 72.4732 
-88.8842 -104.235 71.7682 -88.0364 -104.875 72.3568 -87.1247 -105.477 72.8763 
-86.1063 -105.934 73.3123 -89.819 -102.851 72.0458 -88.8214 -103.28 72.6403 
-87.868 -103.892 73.3024 -86.9206 -104.452 73.8574 -85.8921 -104.927 74.2896 
-90.711 -101.568 72.3753 -89.6918 -101.857 73.0482 -88.5852 -102.284 73.7076 
-87.6026 -102.944 74.3493 -86.6664 -103.569 74.8596 -85.7178 -104.131 75.286 
-91.3415 -100.375 72.6795 -90.4025 -100.657 73.5183 -89.3504 -100.917 74.1739 
-88.3067 -101.428 74.7273 -87.3693 -102.177 75.328 -86.4719 -102.877 75.8752 
-85.6259 -103.515 76.3851 -91.9128 -99.4566 73.063 -90.9477 -99.6547 73.924 
-89.9663 -99.8698 74.6562 -89.0182 -100.2 75.1906 -88.0795 -100.779 75.776 
-87.1482 -101.53 76.4274 -86.2647 -102.268 76.977 -85.4871 -102.982 77.488 
-92.5576 -98.8933 73.6466 -91.5811 -98.8295 74.3213 -90.5338 -98.9158 75.0242 
-89.5703 -99.1859 75.6724 -88.6911 -99.6155 76.3294 -87.7665 -100.199 76.9989 
-86.8249 -100.957 77.5235 -85.9709 -101.772 77.9297 -85.2657 -102.565 78.379 
-93.4499 -98.7713 74.3185 -92.5708 -98.3444 74.7978 -93.4489 -98.4031 75.6429 
-92.5574 -97.7233 76.0682 -93.4113 -98.0886 77.1066 -91.4878 -98.0385 75.3449 
-92.4304 -97.4282 77.6391 -93.2501 -98.1421 78.6636 -91.3553 -97.3071 76.6443 
-90.282 -98.101 76.0474 -92.1051 -97.818 79.2728 -92.9138 -98.633 79.976 
-91.1009 -97.1975 78.3553 -89.9618 -97.5091 77.4937 -89.195 -98.5275 76.8872 
-91.7292 -98.5683 80.5037 -92.6121 -99.2115 81.0503 -90.7814 -97.8178 79.9142 
-89.6209 -97.5656 79.0926 -88.7241 -98.102 78.3262 -88.2236 -99.0735 77.6619 
-91.509 -99.2153 81.6393 -92.4421 -99.7596 82.2727 -90.5436 -98.6148 81.0974 
-89.3981 -98.1956 80.3592 -88.3541 -98.233 79.5308 -87.6921 -98.8005 78.824 
-87.2375 -99.7809 78.161 -91.3087 -99.8276 83.0261 -92.1814 -100.467 83.509 
-90.33 -99.2725 82.4544 -89.2204 -98.9521 81.6504 -88.1414 -98.8548 80.7219 
-87.307 -99.0603 79.8891 -86.7072 -99.7191 79.1341 -86.2809 -100.715 78.4722 
-90.9812 -100.55 84.2602 -91.7747 -101.295 84.3979 -90.0474 -99.9193 83.9145 
-88.9939 -99.6476 83.1867 -87.9446 -99.6125 82.26 -87.039 -99.663 81.3943 
-86.3038 -100.016 80.473 -85.7746 -100.759 79.5357 -85.4658 -101.66 78.8528 
-90.6488 -101.307 85.0885 -91.4047 -102.054 85.0301 -89.7933 -100.652 84.9893 
-88.8428 -100.375 84.4757 -87.8415 -100.386 83.6819 -86.8827 -100.375 82.9741 
-86.0425 -100.466 82.1963 -85.4063 -100.948 81.0978 -85.0373 -101.712 80.0414 
-84.8586 -102.543 79.3493 -94.2889 -99.3005 73.4323 -94.2947 -99.0594 74.8106 
-95.2232 -99.6212 73.9319 -95.2834 -99.3846 75.3586 -96.171 -99.9593 74.5829 
-94.2872 -98.8168 76.2991 -96.3589 -99.7501 75.9966 -96.8996 -100.578 75.416 
-95.3915 -99.1457 76.9282 -94.317 -98.6086 77.8985 -97.0491 -100.596 76.7856 
-97.2785 -101.775 76.2485 -96.4873 -99.597 77.6074 -95.5351 -98.9563 78.6266 
-94.2422 -98.7179 79.4369 -97.2333 -102.046 77.5588 -97.468 -103.262 76.8946 
-96.9104 -100.749 78.3637 -96.4793 -99.6337 79.3641 -95.5064 -99.1675 80.2469 
-93.9946 -99.1693 80.7325 -97.3307 -103.558 78.3032 -97.521 -104.656 77.5525 
-96.9238 -102.402 79.0996 -96.6414 -101.081 80.0424 -96.3162 -100.085 81.0408 
-95.2634 -99.697 81.7258 -93.7342 -99.6953 82.0081 -97.4692 -104.931 79.1644 
-97.4695 -106.108 78.3804 -97.1567 -103.897 79.8735 -96.6931 -102.745 80.65 
-96.465 -101.56 81.6158 -96.0169 -100.679 82.5463 -94.8319 -100.316 83.0713 
-93.3943 -100.376 83.2534 -97.5553 -106.46 79.966 -97.4923 -107.746 79.1589 
-97.4426 -105.296 80.6104 -97.028 -104.182 81.2423 -96.6142 -103.083 82.0769 
-96.2536 -102.093 83.0025 -95.4349 -101.396 83.6885 -94.1437 -101.201 83.9806 
-92.865 -101.311 84.1123 -97.5698 -108.097 80.4559 -97.5769 -109.289 79.6642 
-97.4794 -106.872 81.0949 -97.2135 -105.658 81.6967 -96.8501 -104.542 82.4956 
[...]
CELL_DATA 2000
SCALARS Distance double
LOOKUP_TABLE default
158.589 157.794 158.096 157.998 157.193 157.492 157.554 157.759 157.839 
156.666 157.031 157.224 157.449 157.492 157.677 157.677 156.136 156.51 
156.705 157.054 157.014 157.227 157.028 157.293 157.111 155.784 156.002 
156.131 156.46 156.417 156.622 156.356 156.549 156.341 156.639 156.526 
155.67 155.724 155.785 155.974 156.004 156.119 155.945 155.978 155.81 
155.98 155.972 156.22 156.203 155.615 155.615 155.565 155.681 155.675 
155.809 155.677 155.699 155.469 155.547 155.432 155.686 155.64 155.908 
155.776 155.533 155.514 155.36 155.411 155.268 155.415 155.213 155.34 
155.006 155.113 154.785 155.027 154.823 155.182 155.001 155.327 155.096 
155.464 155.422 155.246 155.203 154.989 155.002 154.751 154.814 154.486 
154.55 154.185 154.313 154.044 154.312 154.151 154.481 154.32 154.61 
154.415 158.966 159.123 158.687 158.009 159.129 158.732 157.95 157.663 
157.15 159.135 158.687 157.848 157.508 156.856 156.785 156.464 159.253 
158.704 157.798 157.39 156.717 156.524 156.157 156.168 155.996 159.517 
158.856 157.871 157.363 156.7 156.462 156.169 156.057 155.931 155.859 
155.781 160.038 159.258 158.312 157.586 156.897 156.519 156.258 156.147 
156.074 155.97 155.902 155.784 155.734 160.784 159.99 159.221 158.323 
157.661 156.961 156.617 156.292 156.179 156.074 155.997 155.929 155.854 
155.777 155.714 161.516 160.838 160.238 159.416 158.854 157.997 157.576 
156.897 156.648 156.255 156.122 155.969 155.899 155.852 155.796 155.735 
155.656 162.111 161.553 161.045 160.407 159.941 159.21 158.791 158.014 
157.649 156.962 156.694 156.246 156.113 155.918 155.868 155.793 155.738 
155.662 155.582 162.238 162.134 161.864 161.228 162.114 161.808 161.2 
160.89 160.24 162.16 161.848 161.262 160.92 160.288 159.918 159.201 
162.122 161.877 161.282 160.978 160.301 159.953 159.213 158.83 158.055 
161.919 161.739 161.112 160.899 160.165 159.87 159.055 158.746 157.961 
157.653 156.977 161.698 161.492 160.875 160.675 159.974 159.677 158.831 
158.505 157.703 157.468 156.845 156.663 156.245 161.555 161.317 160.738 
160.501 159.895 159.569 158.805 158.365 157.572 157.236 156.662 156.505 
156.159 156.082 155.898 161.431 161.211 160.646 160.411 159.844 159.565 
158.92 158.487 157.775 157.3 156.743 156.441 156.136 156.01 155.852 
155.818 155.733 161.314 161.105 160.554 160.315 159.743 159.507 158.934 
158.626 158.031 157.612 157.087 156.693 156.354 156.099 155.917 155.796 
155.69 155.662 155.586 155.486 155.609 155.481 155.331 155.861 155.66 
155.471 155.27 154.98 156.315 156.004 155.766 155.434 155.029 154.775 
154.365 156.994 156.561 156.289 155.806 155.302 154.857 154.36 154.121 
153.809 157.824 157.313 157.041 156.451 155.941 155.276 154.713 154.241 
153.906 153.713 153.566 158.657 158.142 157.901 157.31 156.903 156.124 
155.555 154.809 154.371 153.939 153.713 153.533 153.368 159.47 158.956 
158.75 158.209 157.911 157.195 156.682 155.821 155.272 154.569 154.191 
153.767 153.504 153.285 153.092 160.31 159.798 159.616 159.081 158.825 
158.195 157.742 156.945 156.371 155.559 155.093 154.428 154.114 153.614 
153.417 153.113 153.06 161.103 160.65 160.496 159.974 159.73 159.115 
158.706 157.964 157.441 156.645 156.201 155.459 155.171 154.49 154.314 
153.741 153.707 153.329 153.44 155.397 155.208 155.268 155.16 154.851 
155.018 154.895 154.977 154.85 154.265 154.546 154.474 154.656 154.508 
154.619 154.508 153.728 153.941 153.912 154.164 154.092 154.253 154.103 
154.247 154.162 153.474 153.54 153.471 153.63 153.599 153.809 153.74 
153.872 153.742 153.889 153.847 153.278 153.351 153.243 153.297 153.195 
153.338 153.302 153.494 153.445 153.56 153.493 153.634 153.703 153.007 
153.111 153.047 153.106 152.983 153.019 152.926 153.067 153.073 153.259 
153.279 153.398 153.442 153.605 153.785 152.94 152.909 152.888 152.922 
152.858 152.86 152.761 152.792 152.778 152.918 152.999 153.173 153.258 
153.406 153.514 153.73 153.935 153.261 153.031 152.975 152.863 152.789 
152.749 152.662 152.672 152.644 152.719 152.777 152.916 153.007 153.174 
153.258 153.449 153.565 153.835 154.026 153.566 153.902 153.507 153.146 
154.276 153.785 153.268 153.024 152.779 154.852 154.196 153.546 153.109 
152.735 152.649 152.571 155.639 154.898 154.224 153.528 153.034 152.678 
152.555 152.534 152.597 156.434 155.741 155.142 154.366 153.797 153.161 
152.885 152.634 152.661 152.644 152.749 157.258 156.566 156.048 155.317 
154.763 154.019 153.573 153.075 152.922 152.758 152.807 152.814 152.934 
158.192 157.476 156.998 156.262 155.769 155.001 154.527 153.843 153.547 
153.124 153.062 152.908 152.996 153.014 153.172 159.06 158.423 157.972 
157.263 156.813 156.055 155.641 154.881 154.577 153.926 153.787 153.346 
153.365 153.169 153.312 153.297 153.5 159.754 159.222 158.816 158.203 
157.801 157.12 156.764 156.043 155.765 155.059 154.877 154.254 154.177 
153.729 153.789 153.569 153.759 153.705 153.962 153.967 154.885 154.408 
154.402 155.944 155.41 155.429 154.899 154.89 157.12 156.53 156.577 
156.01 156.066 155.476 155.518 158.437 157.783 157.845 157.228 157.323 
156.728 156.823 156.203 156.277 159.823 159.156 159.206 158.548 158.652 
158.044 158.194 157.568 157.658 156.988 157.043 161.153 160.54 160.603 
159.935 160.018 159.393 159.579 158.988 159.155 158.451 158.509 157.772 
157.855 162.458 161.872 162.011 161.355 161.439 160.77 160.918 160.353 
160.565 159.958 160.057 159.311 159.348 158.629 158.748 163.849 163.239 
163.419 162.778 162.871 162.188 162.273 161.672 161.843 161.302 161.417 
160.779 160.767 160.082 160.088 159.473 159.554 165.2 164.631 164.752 
164.15 164.194 163.556 163.59 162.99 163.114 162.567 162.677 162.068 
162.033 161.37 161.292 160.694 160.686 160.16 160.198 161.465 161.879 
161.424 160.908 162.335 161.835 161.243 160.771 160.115 162.734 162.222 
161.507 161.027 160.252 159.812 159.018 163.073 162.536 161.74 161.224 
160.386 159.894 159.027 158.591 157.757 163.495 162.893 162.112 161.497 
160.666 160.072 159.223 158.671 157.847 157.369 156.608 163.959 163.358 
162.611 161.967 161.151 160.465 159.609 158.961 158.152 157.59 156.851 
156.346 155.65 164.339 163.769 162.989 162.432 161.634 160.997 160.121 
159.418 158.563 157.944 157.205 156.673 155.987 155.468 154.813 164.735 
164.121 163.301 162.739 161.977 161.428 160.641 159.971 159.137 158.431 
157.685 157.077 156.439 155.88 155.274 154.726 154.192 165.2 164.577 
163.795 163.132 162.406 161.812 161.144 160.523 159.813 159.098 158.388 
157.681 157.067 156.433 155.9 155.3 154.819 154.26 153.885 161.865 
162.589 162.23 162.286 163.441 163.006 163.101 162.739 162.832 164.452 
163.937 164.03 163.629 163.798 163.362 163.377 165.51 164.966 164.989 
164.569 164.725 164.355 164.448 163.905 163.799 166.578 166.001 165.935 
165.467 165.55 165.228 165.376 164.965 164.963 164.34 164.216 167.704 
167.09 166.99 166.412 166.445 166.051 166.248 165.895 166.038 165.516 
165.497 164.819 164.7 168.796 168.233 168.129 167.499 167.462 166.986 
167.161 166.818 167.035 166.607 166.687 166.098 166.04 165.319 165.149 
169.704 169.269 169.16 168.584 168.419 167.926 167.955 167.666 167.839 
167.55 167.633 167.198 167.158 166.59 166.466 165.747 165.551 170.389 
170.085 170.008 169.52 169.281 168.756 168.625 168.316 168.43 168.242 
168.348 168.028 167.968 167.534 167.405 166.906 166.744 166.109 165.916 
170.717 171.121 170.777 170.373 171.499 171.173 170.712 170.256 169.652 
171.724 171.509 171.08 170.609 169.99 169.489 168.987 171.73 171.624 
171.286 170.957 170.47 169.974 169.558 169.072 168.825 171.692 171.574 
171.217 171.034 170.667 170.433 170.152 169.774 169.496 169.033 168.745 
171.61 171.532 171.099 170.902 170.456 170.404 170.149 170.132 169.817 
169.559 169.071 168.72 168.262 171.213 171.328 170.946 170.796 170.28 
170.138 169.796 169.859 169.564 169.539 169.01 168.8 168.233 168.046 
167.622 170.567 170.788 170.517 170.561 170.159 170.028 169.698 169.608 
169.382 169.274 168.878 168.639 168.116 167.92 167.507 167.396 167.016 
170.021 170.16 169.936 170.073 169.808 169.85 169.626 169.605 169.461 
169.328 169.049 168.706 168.222 167.871 167.424 167.256 166.89 166.761 
166.295 169.732 169.252 169.513 169.577 168.747 169.03 169.07 169.357 
169.451 168.02 168.454 168.474 168.808 168.896 169.252 169.385 166.899 
167.533 167.524 168.031 168.08 168.611 168.829 169.247 169.344 165.566 
166.261 166.255 166.883 166.901 167.592 167.809 168.515 168.684 169.096 
168.933 164.248 164.909 164.919 165.57 165.627 166.33 166.507 167.295 
167.442 168.125 167.986 168.383 168.014 162.952 163.585 163.574 164.248 
164.34 165.068 165.231 165.966 166.029 166.717 166.591 167.178 166.924 
167.363 167.124 161.74 162.308 162.285 162.918 163.003 163.75 163.91 
164.662 164.686 165.318 165.167 165.752 165.594 166.179 166.085 166.59 
166.524 160.715 161.194 161.204 161.727 161.806 162.449 162.597 163.31 
163.356 163.981 163.848 164.403 164.269 164.875 164.835 165.46 165.421 
165.979 165.879 169.783 169.688 169.576 169.265 169.338 169.332 168.919 
168.965 168.669 168.737 168.804 168.306 168.428 168.041 168.236 167.88 
168.109 168.183 167.711 167.766 167.288 167.441 166.997 167.241 166.746 
167.423 167.573 167.176 167.241 166.734 166.725 166.131 166.25 165.711 
165.962 165.42 166.54 166.784 166.366 166.608 166.111 166.172 165.478 
165.446 164.771 164.917 164.405 164.655 164.141 165.558 165.797 165.295 
165.619 165.122 165.371 164.71 164.756 164.011 164.059 163.474 163.674 
163.202 163.418 162.891 164.597 164.797 164.27 164.527 164.033 164.303 
163.724 163.881 163.204 163.287 162.671 162.81 162.302 162.494 161.995 
162.177 161.67 163.704 163.878 163.394 163.584 163.119 163.311 162.78 
162.923 162.32 162.443 161.876 162.02 161.512 161.655 161.155 161.303 
160.826 161.011 160.602 170.073 170.51 170.242 170.064 170.841 170.65 
170.525 170.207 169.838 170.964 170.845 170.7 170.571 170.263 169.848 
169.281 170.935 170.818 170.574 170.574 170.337 170.155 169.653 169.193 
168.575 170.928 170.764 170.465 170.392 170.154 170.099 169.702 169.439 
168.839 168.435 167.819 170.93 170.808 170.541 170.362 170.048 169.913 
169.502 169.346 168.8 168.556 167.948 167.614 166.974 170.719 170.747 
170.492 170.408 170.038 169.857 169.357 169.137 168.569 168.388 167.844 
167.648 167.067 166.727 166.053 170.255 170.374 170.063 170.153 169.779 
169.748 169.256 169.047 168.449 168.192 167.637 167.471 166.961 166.753 
166.133 165.773 165.077 169.716 169.816 169.449 169.576 169.21 169.324 
168.918 168.882 168.343 168.12 167.507 167.282 166.721 166.566 165.987 
165.761 165.09 164.766 164.112 169.3 168.516 168.935 168.983 167.62 
168.105 168.154 168.613 168.713 166.573 167.152 167.23 167.747 167.845 
168.352 168.444 165.373 166.042 166.129 166.738 166.799 167.388 167.435 
167.983 167.918 164.057 164.774 164.836 165.523 165.517 166.184 166.139 
166.8 166.706 167.276 167.088 162.814 163.445 163.472 164.148 164.126 
164.809 164.741 165.404 165.298 165.938 165.805 166.384 166.243 161.801 
162.286 162.257 162.813 162.805 163.443 163.466 164.082 164.047 164.6 
164.504 165.069 164.973 165.566 165.465 160.817 161.287 161.185 161.67 
161.639 162.217 162.311 162.922 162.998 163.507 163.455 163.9 163.79 
164.297 164.187 164.761 164.611 159.689 160.202 160.074 160.588 160.558 
161.123 161.232 161.841 161.97 162.515 162.515 162.945 162.829 163.229 
163.088 163.538 163.393 163.892 163.717 159.018 158.359 158.885 159.429 
158.139 158.42 158.932 159.415 160.03 158.001 158.302 158.763 159.113 
159.713 160.147 160.784 157.46 157.965 158.377 158.874 159.364 159.853 
160.407 160.904 161.481 156.776 157.238 157.535 158.169 158.548 159.247 
159.694 160.365 160.865 161.483 161.971 156.345 156.613 156.755 157.215 
157.487 158.187 158.609 159.417 159.927 160.703 161.215 161.865 162.292 
155.935 156.21 156.294 156.571 156.759 157.215 157.601 158.295 158.846 
159.67 160.263 161.032 161.532 162.142 162.538 155.301 155.69 155.82 
156.148 156.347 156.681 157.02 157.484 157.991 158.658 159.278 160.059 
160.646 161.35 161.81 162.388 162.792 154.603 155.002 155.172 155.6 
155.859 156.278 156.639 157.047 157.507 157.986 158.553 159.178 159.803 
160.491 161.045 161.66 162.109 162.663 163.088 163.086 162.105 162.656 
162.791 161.032 161.643 161.767 162.363 162.501 159.814 160.489 160.596 
161.262 161.358 162 162.088 158.62 159.256 159.365 160.031 160.1 
160.762 160.811 161.495 161.584 157.568 158.114 158.189 158.805 158.858 
159.488 159.539 160.202 160.325 161.024 161.193 156.586 157.057 157.014 
157.601 157.596 158.237 158.286 158.958 159.105 159.81 160.016 160.7 
160.875 155.656 156.023 155.846 156.368 156.298 156.939 156.986 157.692 
157.845 158.586 158.787 159.512 159.68 160.359 160.496 154.873 155.098 
154.841 155.223 155.121 155.674 155.736 156.407 156.573 157.305 157.509 
158.25 158.436 159.141 159.307 159.983 160.165 154.299 154.399 154.116 
154.333 154.197 154.602 154.643 155.224 155.38 156.058 156.261 156.98 
157.206 157.92 158.16 158.842 159.096 159.744 159.996 162.711 162.164 
162.8 163.523 161.524 162.225 162.982 163.644 164.417 160.92 161.611 
162.398 163.068 163.86 164.547 165.32 160.497 161.12 161.944 162.531 
163.316 163.974 164.782 165.44 166.145 160.18 160.762 161.581 162.139 
162.917 163.507 164.342 164.959 165.74 166.268 166.904 159.939 160.435 
161.161 161.724 162.471 163.106 163.944 164.59 165.426 165.959 166.658 
167.074 167.69 159.884 160.247 160.89 161.309 161.988 162.588 163.404 
164.125 164.971 165.626 166.362 166.862 167.478 167.89 168.464 159.875 
160.239 160.873 161.162 161.769 162.178 162.927 163.554 164.386 165.082 
165.834 166.46 167.087 167.606 168.131 168.578 169.034 159.669 160.141 
160.778 161.145 161.699 162.034 162.665 163.149 163.911 164.521 165.266 
165.883 166.521 167.099 167.62 168.133 168.544 169 169.337 163.209 
164.048 163.824 164.252 164.968 164.72 165.146 164.902 165.338 165.899 
165.678 166.114 165.83 166.238 165.989 166.402 166.706 166.58 167.08 
166.836 167.262 166.948 167.356 167.061 167.428 167.405 167.329 167.897 
167.774 168.288 168.02 168.465 168.115 168.514 168.122 168.419 168.169 
168.054 168.66 168.578 169.159 168.993 169.476 169.216 169.643 169.291 
169.618 169.137 169.325 168.953 168.858 169.475 169.391 169.99 169.84 
170.312 170.114 170.535 170.324 170.673 170.319 170.479 169.965 170.005 
169.51 169.543 170.11 170.138 170.702 170.638 171.087 170.911 171.29 
171.112 171.45 171.223 171.37 170.98 170.932 170.471 170.412 169.781 
169.92 170.391 170.549 171.013 171.138 171.54 171.552 171.888 171.801 
172.074 171.901 172.003 171.7 171.6 171.222 171.085 170.735 170.669 
162.906 163.934 163.202 162.804 165.036 164.282 163.857 163.111 162.746 
166.112 165.396 164.971 164.186 163.746 163.052 162.732 167.087 166.429 
166.006 165.264 164.768 164.035 163.628 163.018 162.691 167.974 167.335 
166.886 166.214 165.692 164.988 164.523 163.897 163.531 162.936 162.546 
168.809 168.176 167.7 167.048 166.53 165.846 165.352 164.734 164.355 
163.779 163.401 162.764 162.342 169.519 168.963 168.507 167.876 167.398 
166.704 166.214 165.546 165.131 164.558 164.18 163.599 163.171 162.551 
162.144 170.029 169.603 169.203 168.663 168.216 167.582 167.09 166.417 
165.936 165.317 164.867 164.304 163.841 163.289 162.84 162.315 161.945 
170.367 170.051 169.693 169.272 168.81 168.294 167.751 167.181 166.622 
166.05 165.515 164.952 164.433 163.885 163.409 162.915 162.53 162.086 
161.78 170.211 170.69 170.472 170.603 171.337 171.034 171.083 170.869 
170.967 171.796 171.638 171.695 171.444 171.52 171.257 171.249 171.863 
171.889 171.956 171.92 172.01 171.861 171.856 171.507 171.338 171.824 
171.839 171.833 171.924 171.99 172.112 172.123 172.016 171.814 171.485 
171.245 171.822 171.816 171.779 171.781 171.84 171.958 172.027 172.07 
171.919 171.77 171.493 171.298 171.103 171.658 171.765 171.789 171.809 
171.938 171.967 172.14 172.082 172.051 171.846 171.627 171.424 171.212 
171.086 170.886 171.305 171.516 171.607 171.773 171.965 172.11 172.337 
172.338 172.373 172.144 171.963 171.651 171.428 171.191 170.974 170.795 
170.509 170.895 171.139 171.262 171.519 171.719 171.999 172.183 172.376 
172.369 172.364 172.156 171.983 171.702 171.458 171.17 170.923 170.607 
170.373 170.018 
POINT_DATA 1002
SCALARS Distance double
LOOKUP_TABLE default
158.345 159.179 158.249 157.699 157.439 157.955 157.342 156.804 157.628 
157.938 156.954 156.247 157.383 157.472 157.626 156.337 155.831 156.832 
156.832 156.787 156.927 155.846 155.682 156.218 156.209 156.034 156.209 
156.447 155.65 155.684 155.866 155.938 155.697 155.704 156.009 156.157 
155.516 155.652 155.535 155.632 155.469 155.247 155.352 155.565 155.612 
155.381 155.572 155.19 155.085 154.927 154.628 154.487 154.635 154.81 
154.872 155.318 155.506 155.045 154.739 154.436 154.102 153.83 153.821 
154.003 154.152 154.225 159.473 158.342 159.558 158.3 159.533 157.211 
158.233 159.644 157.017 156.345 158.241 159.881 156.926 156.214 155.917 
158.45 160.222 156.928 156.253 156.047 155.834 159.105 160.79 157.384 
156.383 156.147 156.036 155.842 160.077 161.489 158.482 157.119 156.354 
156.045 155.915 155.812 160.95 162.11 159.689 158.392 157.223 156.374 
155.953 155.834 155.747 161.602 162.624 160.584 159.552 158.434 157.297 
156.418 155.973 155.802 155.67 162.491 161.501 162.411 161.516 162.419 
160.587 161.614 162.451 160.662 159.62 161.571 162.347 160.664 159.582 
158.443 161.303 162.111 160.467 159.37 158.221 157.226 161.067 161.919 
160.262 159.201 157.929 156.963 156.352 160.971 161.779 160.181 159.249 
157.971 156.822 156.206 155.925 160.887 161.63 160.086 159.27 158.247 
157.111 156.302 155.905 155.733 160.802 161.513 159.979 159.172 158.367 
157.485 156.671 156.097 155.756 155.586 155.37 155.492 155.137 155.738 
155.189 154.621 156.184 155.382 154.523 153.956 156.834 155.858 154.673 
153.892 153.586 157.628 156.668 155.306 154.167 153.667 153.452 158.439 
157.643 156.406 154.961 153.993 153.487 153.17 159.266 158.552 157.543 
156.104 154.76 153.827 153.204 152.906 160.155 159.433 158.495 157.194 
155.82 154.703 153.816 153.234 153.044 160.999 160.339 159.421 158.208 
156.927 155.858 154.953 154.176 153.712 153.566 155.122 154.801 154.77 
154.224 154.405 154.355 153.648 153.87 154.007 153.955 153.391 153.379 
153.556 153.662 153.616 153.217 153.129 153.085 153.271 153.407 153.463 
152.951 152.979 152.849 152.85 153.103 153.331 153.537 152.876 152.842 
152.758 152.681 152.807 153.092 153.356 153.654 153.177 152.877 152.653 
152.581 152.674 152.856 153.081 153.342 153.703 153.958 153.388 154.363 
153.606 154.861 152.813 154.124 155.574 152.912 152.486 155 156.346 
153.552 152.644 152.542 155.879 157.08 154.551 153.294 152.724 152.722 
156.743 157.954 155.525 154.216 153.212 152.834 152.87 157.733 158.89 
156.523 155.265 154.104 153.33 153.027 153.097 158.649 159.644 157.537 
156.384 155.281 154.35 153.685 153.388 153.457 159.376 160.245 158.427 
157.443 156.468 155.552 154.734 154.118 153.866 153.959 154.381 154.887 
155.39 155.956 156.491 155.449 157.148 157.723 156.631 156.123 158.481 
159.11 157.91 157.435 156.915 159.882 160.48 159.259 158.793 158.359 
157.705 161.262 161.719 160.67 160.133 159.815 159.293 158.533 162.639 
163.02 162.137 161.513 161.115 160.77 160.113 159.403 164.062 164.469 
163.561 162.917 162.392 162.025 161.459 160.733 160.13 165.367 165.769 
164.832 164.192 163.665 163.288 162.722 161.922 161.223 160.708 161.887 
161.388 162.366 161.755 162.887 160.588 162.027 163.291 160.743 159.431 
162.293 163.64 160.906 159.514 158.142 162.751 164.098 161.297 159.799 
158.36 157.042 163.23 164.554 161.858 160.304 158.728 157.371 156.141 
163.527 164.942 162.215 160.836 159.229 157.738 156.509 155.313 163.901 
165.368 162.483 161.238 159.854 158.333 156.99 155.822 154.69 162.199 
162.608 162.963 163.452 163.913 163.247 164.451 164.997 164.194 163.957 
165.455 166.084 165.067 164.919 164.471 166.469 167.187 165.885 165.704 
165.509 164.914 167.619 168.309 166.887 166.568 166.479 166.132 165.451 
168.774 169.308 167.998 167.507 167.413 167.218 166.718 165.956 169.728 
170.08 168.984 168.279 168.083 168.025 167.662 167.1 166.348 170.449 
170.642 169.852 169.011 168.591 168.623 168.403 167.845 167.273 166.615 