# vtk DataFile Version 4.0
vtk output
ASCII
DATASET POLYDATA
POINTS 1002 float
-78.7218 -114.736 74.1854 -78.2816 -115.967 73.7797 -78.5006 -115.615 72.8321 
-78.9512 -114.234 73.2127 -78.7033 -115.059 71.8037 -79.2526 -113.479 74.5434 
-79.1632 -113.574 72.225 -78.8354 -114.28 70.7836 -79.5562 -112.933 73.6305 
-79.8553 -112.2 74.9963 -79.4985 -112.918 71.2644 -79.2322 -113.646 69.9251 
-79.9546 -112.339 72.7551 -80.3313 -111.69 74.1591 -80.5931 -110.891 75.508 
-80.2158 -112.469 70.4416 -80.1389 -113.313 69.3512 -80.5358 -111.752 71.8162 
-80.9483 -111.127 73.3395 -81.1835 -110.326 74.6733 -81.4029 -109.517 75.8854 
-81.1912 -112.017 69.8864 -81.2049 -112.856 68.9557 -81.2454 -111.099 70.942 
-81.5661 -110.388 72.4082 -81.8595 -109.655 73.9046 -81.963 -108.768 75.1029 
-82.1118 -107.992 76.1962 -82.1448 -111.36 69.5029 -82.14 -112.108 68.5736 
-82.0498 -110.398 70.4014 -82.1605 -109.554 71.5936 -82.5182 -108.904 73.1039 
-82.6952 -108.094 74.4535 -82.7056 -107.212 75.5298 -82.8079 -106.544 76.5727 
-83.0907 -110.687 69.1456 -83.0709 -111.36 68.2413 -83.0543 -109.853 70.1026 
-83.0371 -108.95 71.1416 -83.2828 -108.255 72.4106 -83.5461 -107.567 73.7297 
-83.5505 -106.681 74.8708 -83.5381 -105.921 75.889 -83.6279 -105.422 76.907 
-84.0466 -110.093 68.8457 -84.0402 -110.731 68.0386 -84.1247 -109.4 69.8035 
-84.1718 -108.549 70.8322 -84.2711 -107.73 71.9248 -84.4231 -107.025 73.0187 
-84.4199 -106.193 74.0661 -84.3328 -105.352 75.0986 -84.3483 -104.783 76.1147 
-84.3885 -104.399 77.1079 -84.9337 -109.516 68.663 -84.9535 -110.155 67.9441 
-85.0258 -108.852 69.4993 -85.1532 -108.047 70.4346 -85.2342 -107.162 71.4637 
-85.2528 -106.36 72.4573 -85.1687 -105.546 73.3452 -85.0201 -104.681 74.2733 
-84.9428 -104.004 75.282 -84.9326 -103.578 76.2723 -84.8936 -103.253 77.2201 
-78.058 -117.007 72.7001 -78.3328 -116.731 71.673 -77.9 -117.982 71.5803 
-78.0937 -117.684 70.5171 -77.5704 -118.679 70.5927 -78.478 -116.088 70.5875 
-77.4263 -118.176 69.46 -76.9541 -119.256 69.6637 -77.9962 -116.856 69.3943 
-78.5245 -115.136 69.5404 -76.599 -118.561 68.3697 -76.5549 -120.015 68.7116 
-77.072 -117.236 68.1783 -77.9563 -115.783 68.2473 -79.0077 -114.428 68.7112 
-76.5745 -119.372 67.3614 -76.9164 -120.891 67.9773 -76.5123 -117.864 66.9615 
-77.2727 -116.354 66.904 -78.6428 -115.034 67.3495 -80.0563 -113.993 68.1852 
-77.495 -120.415 66.8192 -77.8112 -121.686 67.6208 -77.163 -119.041 66.2005 
-77.396 -117.391 65.9662 -78.5063 -115.706 66.2154 -79.9506 -114.452 66.9563 
-81.1971 -113.365 67.8532 -78.6233 -121.232 66.7642 -78.8417 -122.352 67.504 
-78.4639 -120.09 66.1614 -78.5508 -118.636 65.8484 -79.2255 -116.731 65.863 
-80.3231 -115.036 66.2643 -81.4001 -113.807 66.9468 -82.2995 -112.6 67.6277 
-79.7395 -121.767 66.914 -80.0014 -122.841 67.5079 -79.6704 -120.613 66.5163 
-79.8874 -119.365 66.2644 -80.4803 -117.701 66.0689 -81.3119 -115.888 66.0871 
-82.119 -114.463 66.468 -82.813 -113.229 66.9865 -83.438 -111.924 67.4825 
-81.0009 -122.137 67.1023 -81.2693 -123.107 67.6192 -80.8561 -120.907 66.8671 
-81.015 -119.634 66.7132 -81.5788 -118.255 66.3362 -82.3466 -116.714 65.9036 
-83.0233 -115.28 65.936 -83.5593 -113.991 66.4069 -84.0332 -112.63 66.9073 
-84.4902 -111.281 67.3795 -82.4297 -122.685 67.476 -82.2548 -121.541 67.148 
-83.646 -122.051 67.5086 -83.5937 -120.816 67.2171 -84.8289 -121.287 67.5398 
-82.1936 -120.14 67.0272 -84.9567 -120.068 67.069 -86.1108 -120.5 67.4405 
-83.6643 -119.368 66.8559 -82.507 -118.736 66.6128 -86.4223 -119.259 66.9026 
-87.5244 -119.636 67.382 -85.1917 -118.661 66.4555 -84.053 -118.011 65.9715 
-83.173 -117.388 65.7525 -87.8395 -118.232 67.0317 -88.8155 -118.542 67.5133 
-86.6915 -117.798 66.4724 -85.538 -117.352 65.6227 -84.569 -116.772 64.998 
-83.8172 -116.037 65.2432 -89.0247 -116.941 67.3116 -89.8748 -117.226 67.7785 
-87.986 -116.592 66.8787 -86.9192 -116.339 66.1172 -85.8566 -115.956 65.1733 
-84.9693 -115.3 64.9336 -84.2929 -114.607 65.6145 -90.1179 -115.548 67.6104 
-90.7949 -115.845 68.1622 -89.1906 -115.192 67.1762 -88.2297 -114.956 66.7183 
-87.2417 -114.681 66.0688 -86.1921 -114.11 65.5355 -85.3591 -113.493 65.6739 
-84.7243 -113.039 66.3196 -91.1908 -114.231 68.0253 -91.6431 -114.545 68.6075 
-90.4913 -113.868 67.4542 -89.6241 -113.572 67.0093 -88.717 -113.291 66.7132 
-87.6774 -112.768 66.4209 -86.6267 -112.132 66.236 -85.8236 -111.727 66.44 
-85.16 -111.5 66.9114 -92.1459 -113.058 68.478 -92.4824 -113.428 68.9413 
-91.7117 -112.68 67.902 -91.045 -112.336 67.3397 -90.1754 -112.014 67.041 
-89.1664 -111.558 66.9783 -88.0844 -110.971 66.8831 -87.1107 -110.529 66.8404 
-86.3125 -110.331 67.0787 -85.5966 -110.232 67.503 -85.8413 -109.166 68.3476 
-86.6216 -109.199 67.916 -86.877 -108.1 68.8354 -87.4995 -109.271 67.5272 
-87.8575 -108.147 68.4567 -88.031 -106.913 69.324 -88.4145 -109.418 67.3532 
-88.8339 -108.13 68.0772 -89.1442 -106.922 69.0128 -89.1792 -105.591 69.7524 
-89.4441 -109.762 67.3323 -89.7448 -108.079 67.8008 -90.1367 -106.759 68.6142 
-90.3361 -105.551 69.4998 -90.2525 -104.19 70.0606 -90.6104 -110.247 67.2702 
-90.8664 -108.253 67.5548 -91.157 -106.612 68.1426 -91.4283 -105.454 69.1064 
-91.4608 -104.211 69.837 -91.2549 -102.813 70.2469 -91.6918 -110.702 67.3946 
-92.1737 -108.698 67.4276 -92.497 -106.808 67.6462 -92.6569 -105.507 68.4889 
-92.6311 -104.319 69.4654 -92.4644 -102.858 69.9768 -92.1542 -101.546 70.4538 
-92.4148 -111.128 67.9036 -93.11 -109.241 67.7507 -93.7223 -107.3 67.5187 
-94.0035 -105.832 67.8682 -93.8361 -104.58 68.8651 -93.553 -103.029 69.6155 
-93.2996 -101.513 70.0734 -92.9446 -100.474 70.7918 -92.8089 -111.606 68.4974 
-93.507 -109.866 68.371 -94.2856 -107.96 67.9903 -94.9366 -106.353 67.8019 
-95.0023 -105.019 68.3875 -94.6463 -103.423 69.2353 -94.3596 -101.733 69.7543 
-94.0828 -100.494 70.3509 -93.659 -99.7048 71.2464 -93.1517 -112.132 68.9106 
-93.8139 -110.613 68.841 -94.5165 -108.836 68.6253 -95.314 -107.118 68.3242 
-95.8177 -105.647 68.4456 -95.7273 -104.046 69.0928 -95.441 -102.272 69.6651 
-95.2109 -100.863 70.1247 -94.8313 -99.9595 70.8796 -94.294 -99.2591 71.8095 
-85.8427 -108.413 69.1016 -86.8277 -107.111 69.528 -85.9205 -107.535 69.8847 
-87.9078 -105.716 69.9325 -86.8288 -106.016 70.2469 -86.0246 -106.562 70.8226 
-89.0204 -104.283 70.2943 -87.8652 -104.563 70.6586 -86.889 -105.028 71.2378 
-86.0478 -105.651 71.899 -90.045 -102.813 70.5632 -88.912 -103.104 71.0266 
-87.8797 -103.616 71.6576 -86.85 -104.147 72.3197 -85.9224 -104.779 72.8493 
-90.9729 -101.501 70.8863 -89.783 -101.638 71.3751 -88.7614 -102.089 71.9636 
-87.7408 -102.667 72.6365 -86.6422 -103.189 73.231 -85.7105 -103.851 73.7209 
-91.8641 -100.455 71.3653 -90.6553 -100.494 71.893 -89.5162 -100.663 72.3736 
-88.5236 -101.136 72.9244 -87.4809 -101.73 73.5641 -86.3907 -102.302 74.1645 
-85.5388 -103.066 74.7105 -92.6865 -99.5731 71.8435 -91.6204 -99.6037 72.4 
-90.4514 -99.656 72.9187 -89.3271 -99.8732 73.4397 -88.3027 -100.433 73.9855 
-87.2014 -101.07 74.578 -86.1451 -101.695 75.1708 -85.4209 -102.557 75.7308 
-93.3904 -98.8663 72.2855 -92.4844 -98.7487 72.7292 -91.438 -98.8242 73.2915 
-90.2387 -98.9561 74.0007 -89.113 -99.3333 74.6029 -88.0342 -99.9943 75.0534 
-86.8723 -100.628 75.5588 -85.8967 -101.287 76.1402 -85.3077 -102.211 76.7046 
-94.3125 -98.5978 72.7919 -93.4426 -98.0698 73.084 -94.403 -97.9178 73.9073 
-93.5243 -97.4354 74.1749 -94.5951 -97.5436 75.2811 -92.4774 -97.9706 73.5068 
-93.5246 -97.3129 75.8344 -94.6696 -97.6927 76.8173 -92.2482 -97.4539 74.8705 
-91.21 -98.1208 74.3559 -93.3682 -97.7177 77.5609 -94.4127 -98.1963 78.2176 
-91.8759 -97.4218 76.704 -90.6569 -97.6044 75.9012 -89.8692 -98.3501 75.2595 
-93.0853 -98.377 78.8587 -93.9393 -98.7872 79.5515 -91.6951 -97.9033 78.1533 
-90.2258 -97.534 77.3742 -89.3416 -97.8896 76.562 -88.7325 -98.9052 75.7471 
-92.7148 -98.9984 80.1549 -93.4996 -99.3453 80.9813 -91.6188 -98.6768 79.2864 
-90.1989 -98.1417 78.5273 -89.0571 -97.9862 77.7798 -88.2997 -98.6565 76.9201 
-87.5643 -99.6829 76.1261 -92.3327 -99.4804 81.6567 -93.1684 -99.9144 82.2744 
-91.3548 -99.3127 80.7458 -90.1541 -99.0397 79.8776 -88.9842 -98.7843 79.196 
-88.046 -98.9931 78.4187 -87.155 -99.6063 77.4934 -86.3833 -100.389 76.7109 
-91.9993 -100.036 82.9173 -92.8696 -100.615 83.2118 -91.0114 -99.8027 82.2603 
-89.9369 -99.7207 81.3965 -88.8673 -99.6798 80.6562 -87.9331 -99.8031 79.9953 
-87.0053 -100.056 79.1361 -86.1206 -100.47 78.1688 -85.5665 -101.221 77.3491 
-91.6732 -100.839 83.7175 -92.5266 -101.47 83.8458 -90.7288 -100.49 83.3304 
-89.7717 -100.379 82.6266 -88.7947 -100.397 81.8224 -87.8734 -100.562 81.1348 
-87.0024 -100.776 80.4506 -86.1199 -100.98 79.6092 -85.4329 -101.447 78.7085 
-85.0864 -102.294 77.9024 -95.2737 -99.504 71.9733 -95.2621 -98.9461 73.2559 
-96.2406 -99.8714 72.3189 -96.1495 -99.4484 73.8088 -96.9584 -100.275 72.863 
-95.3022 -98.3862 74.6801 -96.7935 -100.106 74.407 -97.3626 -101.129 73.6367 
-96.0315 -99.1202 75.357 -95.4226 -98.155 76.1083 -97.1759 -101.295 75.1559 
-97.5171 -102.632 74.5653 -96.5375 -100.167 75.9655 -95.9561 -99.1052 76.7791 
-95.377 -98.3838 77.4769 -97.3307 -102.859 76.0328 -97.4652 -104.23 75.456 
-96.9107 -101.615 76.7181 -96.4017 -100.359 77.5717 -95.8953 -99.3836 78.2932 
-95.0567 -98.8835 78.9309 -97.3954 -104.34 76.9253 -97.3931 -105.731 76.2391 
-97.2164 -103.137 77.585 -96.8717 -101.798 78.5082 -96.4946 -100.593 79.4161 
-95.763 -99.8861 79.9982 -94.6294 -99.5054 80.4856 -97.5271 -105.923 77.7816 
-97.4489 -107.43 76.9545 -97.509 -104.641 78.4721 -97.2652 -103.325 79.3237 
-96.9459 -101.978 80.3423 -96.385 -101.103 81.0275 -95.3628 -100.625 81.3932 
-94.2105 -100.201 81.8063 -97.6241 -107.729 78.4773 -97.5304 -109.174 77.5724 
-97.6663 -106.34 79.2464 -97.4735 -105.016 79.9855 -97.1089 -103.652 80.8573 
-96.5841 -102.563 81.5753 -95.74 -101.95 81.9459 -94.7462 -101.463 82.2863 
-93.8187 -100.951 82.7618 -97.581 -109.42 78.9229 -97.5301 -110.614 78.0433 
-97.5805 -108.112 79.7432 -97.4093 -106.805 80.474 -97.0823 -105.509 81.2114 
[...]
CELL_DATA 2000
SCALARS Distance double
LOOKUP_TABLE default
156.815 156.123 156.416 156.291 155.263 155.644 155.554 155.909 155.853 
154.473 154.794 154.816 155.196 155.244 155.546 155.535 154.133 154.216 
154.269 154.548 154.689 155.004 155.039 155.266 155.215 154.112 154.069 
153.967 154.083 154.122 154.448 154.507 154.782 154.684 154.889 154.753 
154.006 154.013 153.788 153.784 153.627 153.848 153.888 154.22 154.204 
154.392 154.234 154.389 154.264 153.824 153.846 153.698 153.633 153.468 
153.465 153.489 153.691 153.808 153.988 153.939 153.995 153.878 153.991 
153.973 153.741 153.723 153.679 153.632 153.576 153.477 153.477 153.492 
153.586 153.7 153.691 153.748 153.602 153.675 153.59 153.774 153.785 
153.749 153.702 153.653 153.649 153.608 153.582 153.515 153.509 153.45 
153.513 153.397 153.46 153.233 153.317 153.112 153.312 153.213 153.501 
153.441 157.03 157.197 156.903 156.395 157.237 157.04 156.518 156.166 
155.513 156.972 156.892 156.33 156.153 155.448 155.161 154.59 156.67 
156.458 155.753 155.705 155.018 154.939 154.407 154.345 154.145 156.888 
156.303 155.5 155.161 154.505 154.409 154.002 154.079 153.985 154.113 
154.143 157.697 156.872 156.19 155.403 154.839 154.28 153.963 153.781 
153.77 153.896 153.999 154.118 154.081 158.7 157.891 157.388 156.513 
156.1 155.213 154.928 154.237 154.187 153.901 154.036 154.006 154.062 
154.016 153.919 159.678 158.938 158.496 157.755 157.423 156.644 156.368 
155.539 155.356 154.695 154.72 154.346 154.443 154.187 154.169 153.946 
153.869 160.617 159.925 159.489 158.8 158.448 157.813 157.519 156.854 
156.564 155.895 155.72 155.205 155.181 154.792 154.75 154.382 154.271 
153.98 153.9 160.979 161.168 160.685 159.887 161.296 160.862 160.069 
159.576 158.827 161.36 160.968 160.195 159.728 158.939 158.53 157.858 
161.443 161.051 160.299 159.834 159.015 158.586 157.856 157.537 156.908 
161.479 161.139 160.414 159.966 159.164 158.677 157.901 157.509 156.88 
156.599 156.078 161.318 161.086 160.374 160.042 159.289 158.858 158.079 
157.608 156.909 156.573 156.078 155.865 155.482 161.034 160.85 160.152 
159.908 159.201 158.914 158.203 157.799 157.045 156.626 156.006 155.794 
155.394 155.294 154.951 160.788 160.6 159.975 159.71 159.063 158.798 
158.192 157.884 157.216 156.782 156.08 155.724 155.21 155.092 154.753 
154.711 154.398 160.615 160.43 159.905 159.637 159.067 158.757 158.202 
157.901 157.334 156.957 156.313 155.87 155.292 154.99 154.623 154.504 
154.26 154.195 153.987 153.874 154.13 153.952 153.885 154.509 154.26 
154.237 154.039 153.98 155.144 154.727 154.669 154.428 154.412 154.163 
154.02 156.064 155.474 155.244 154.857 154.754 154.55 154.458 154.177 
153.927 157.053 156.428 156.064 155.471 155.192 154.862 154.78 154.58 
154.443 154.072 153.75 157.974 157.393 157.06 156.356 155.985 155.412 
155.273 154.97 154.937 154.611 154.365 153.875 153.515 158.854 158.317 
158.055 157.379 157.012 156.321 156.095 155.619 155.56 155.182 154.974 
154.484 154.089 153.609 153.306 159.665 159.186 158.946 158.353 158.004 
157.34 157.054 156.5 156.368 155.905 155.696 155.145 154.754 154.188 
153.852 153.449 153.308 160.382 159.957 159.763 159.232 158.948 158.313 
158.04 157.445 157.297 156.774 156.607 155.993 155.663 154.977 154.665 
154.105 153.987 153.592 153.593 153.753 153.731 153.678 153.625 153.706 
153.611 153.458 153.525 153.513 153.646 153.514 153.22 153.259 153.178 
153.365 153.393 153.506 153.381 153.034 153.004 152.854 152.989 153.014 
153.23 153.294 153.27 153.171 152.815 152.803 152.643 152.725 152.695 
152.849 152.863 153.092 153.132 153.058 152.939 152.563 152.538 152.345 
152.462 152.391 152.543 152.46 152.627 152.569 152.846 152.883 152.985 
152.832 152.526 152.377 152.138 152.131 152.019 152.162 152.09 152.237 
152.143 152.309 152.313 152.61 152.755 153.056 152.876 152.673 152.476 
152.266 152.078 151.927 151.875 151.847 151.919 151.917 151.995 151.995 
152.148 152.279 152.589 152.848 153.283 153.031 152.82 152.641 152.459 
152.28 152.121 151.957 151.895 151.837 151.875 151.883 151.909 151.943 
152.002 152.185 152.396 152.749 153.053 153.419 153.452 153.193 152.845 
153.74 153.266 152.824 152.663 152.455 154.46 153.745 153.186 152.739 
152.449 152.326 152.171 155.378 154.622 153.986 153.265 152.766 152.397 
152.181 152.078 151.967 156.211 155.542 154.93 154.13 153.439 152.796 
152.374 152.127 152.004 151.947 151.913 157.01 156.368 155.842 155.075 
154.403 153.568 153.008 152.457 152.246 152.041 152.011 151.941 151.929 
157.84 157.197 156.731 156.02 155.483 154.634 154.132 153.34 153.089 
152.545 152.48 152.152 152.128 151.975 152.014 158.635 158.025 157.582 
156.931 156.475 155.739 155.325 154.566 154.325 153.639 153.526 152.91 
152.824 152.37 152.4 152.197 152.397 159.353 158.79 158.374 157.776 
157.372 156.722 156.351 155.689 155.433 154.828 154.677 154.061 153.91 
153.288 153.225 152.791 152.955 152.763 153.068 153.889 154.836 154.245 
154.035 155.857 155.289 155.154 154.49 154.382 156.923 156.345 156.303 
155.68 155.627 154.992 155.065 158.25 157.541 157.536 156.876 156.874 
156.248 156.305 155.756 155.906 159.719 158.987 158.987 158.245 158.277 
157.565 157.649 157.013 157.139 156.581 156.722 161.092 160.43 160.483 
159.772 159.85 159.097 159.237 158.499 158.672 157.947 158.084 157.417 
157.55 162.518 161.835 161.977 161.287 161.429 160.704 160.853 160.14 
160.313 159.582 159.694 158.921 158.984 158.28 158.383 164.025 163.35 
163.52 162.83 162.979 162.268 162.366 161.676 161.752 161.102 161.124 
160.447 160.411 159.721 159.719 159.085 159.152 165.342 164.796 164.917 
164.316 164.394 163.746 163.772 163.102 163.092 162.431 162.377 161.722 
161.635 161.002 160.954 160.361 160.381 159.805 159.852 160.737 161.264 
160.714 160.165 162.018 161.347 160.712 160.08 159.394 162.716 162.089 
161.396 160.691 159.911 159.247 158.527 163.168 162.624 161.887 161.285 
160.482 159.814 159.044 158.421 157.787 163.6 163.003 162.238 161.665 
160.89 160.309 159.534 158.938 158.204 157.674 157.018 164.12 163.481 
162.717 162.071 161.309 160.701 159.915 159.329 158.505 157.976 157.168 
156.739 155.999 164.569 163.979 163.191 162.569 161.781 161.167 160.343 
159.699 158.797 158.189 157.327 156.835 156.079 155.672 155.025 164.951 
164.386 163.572 162.967 162.14 161.576 160.766 160.147 159.252 158.546 
157.679 157.068 156.391 155.895 155.341 154.878 154.4 165.342 164.793 
164.022 163.365 162.536 161.916 161.155 160.569 159.794 159.097 158.285 
157.573 156.92 156.349 155.865 155.353 154.893 154.403 153.99 161.171 
162.036 161.602 161.717 163.068 162.55 162.668 162.27 162.488 164.208 
163.634 163.691 163.244 163.445 163.086 163.244 165.351 164.767 164.737 
164.235 164.353 164.009 164.201 163.794 163.81 166.451 165.888 165.801 
165.234 165.246 164.865 165.066 164.745 164.89 164.363 164.318 167.489 
166.981 166.906 166.29 166.203 165.726 165.87 165.589 165.832 165.454 
165.533 164.923 164.846 168.473 168.029 168.02 167.405 167.252 166.667 
166.685 166.365 166.621 166.37 166.556 166.097 166.078 165.436 165.3 
169.409 169.037 169.109 168.536 168.364 167.696 167.554 167.128 167.296 
167.11 167.365 167.063 167.115 166.588 166.478 165.832 165.665 170.192 
169.946 170.088 169.624 169.48 168.794 168.514 167.942 167.916 167.695 
167.918 167.775 167.888 167.531 167.44 166.914 166.755 166.152 165.987 
170.592 171.058 170.804 170.546 171.16 171.122 170.85 170.528 169.926 
170.927 171.036 170.788 170.639 170.032 169.641 168.915 170.71 170.789 
170.651 170.541 170.072 169.711 169.099 168.693 168.266 170.624 170.67 
170.638 170.542 170.231 169.872 169.372 168.96 168.622 168.333 168.206 
170.452 170.54 170.461 170.514 170.231 170.045 169.538 169.224 168.818 
168.627 168.449 168.316 168.143 170.219 170.269 170.075 170.18 169.86 
169.859 169.366 169.232 168.79 168.69 168.45 168.4 168.188 168.064 
167.72 170.028 170.03 169.817 169.813 169.52 169.462 169.082 168.987 
168.685 168.622 168.459 168.386 168.2 168.052 167.726 167.518 167.08 
169.735 169.817 169.657 169.655 169.437 169.306 169.007 168.84 168.631 
168.57 168.495 168.447 168.288 168.114 167.768 167.528 167.085 166.844 
166.355 169.402 168.849 169.261 169.433 168.109 168.664 168.92 169.277 
169.283 167.068 167.779 168.046 168.631 168.714 169.008 168.863 165.834 
166.606 166.882 167.61 167.784 168.302 168.311 168.578 168.512 164.674 
165.386 165.721 166.444 166.708 167.32 167.472 167.945 168.052 168.351 
168.396 163.639 164.288 164.6 165.321 165.613 166.277 166.449 167.034 
167.149 167.694 167.764 168.166 168.106 162.586 163.216 163.368 164.104 
164.28 165.069 165.188 165.905 165.923 166.583 166.566 167.202 167.134 
167.636 167.472 161.483 162.08 162.106 162.764 162.795 163.576 163.642 
164.465 164.484 165.224 165.175 165.857 165.805 166.445 166.362 166.887 
166.739 160.416 160.958 160.969 161.519 161.524 162.141 162.205 162.924 
163.011 163.746 163.775 164.463 164.45 165.11 165.08 165.691 165.606 
166.13 165.986 169.251 168.695 168.861 168.6 168.1 168.286 168.033 
168.181 167.875 167.592 167.781 167.638 167.704 167.358 167.382 166.905 
167.169 167.357 167.27 167.362 166.996 166.927 166.308 166.263 165.653 
166.642 166.881 166.662 166.864 166.438 166.479 165.785 165.684 164.938 
164.953 164.422 165.76 166.121 165.719 166.022 165.504 165.719 165.079 
165.104 164.366 164.302 163.685 163.79 163.394 164.599 165.013 164.562 
164.908 164.376 164.67 164.127 164.32 163.708 163.728 163.076 163.097 
162.587 162.778 162.394 163.495 163.835 163.444 163.758 163.312 163.585 
163.113 163.36 162.836 162.991 162.359 162.424 161.799 161.941 161.457 
161.72 161.314 162.592 162.842 162.504 162.766 162.409 162.641 162.214 
162.413 161.907 162.082 161.502 161.624 161.006 161.115 160.572 160.771 
160.347 160.627 160.254 169.578 169.957 169.56 169.068 170.141 169.893 
169.362 168.933 168.374 169.976 169.944 169.501 169.166 168.52 168.157 
167.694 169.676 169.714 169.445 169.265 168.726 168.316 167.761 167.502 
167.213 169.411 169.433 169.207 169.182 168.825 168.549 168.016 167.638 
167.222 167.056 166.773 169.004 169.097 168.764 168.852 168.519 168.516 
168.039 167.814 167.245 167.031 166.571 166.479 165.986 168.333 168.537 
168.167 168.3 167.897 168.026 167.562 167.577 166.964 166.858 166.229 
166.156 165.577 165.499 164.859 167.56 167.801 167.505 167.666 167.276 
167.373 166.903 166.962 166.401 166.389 165.772 165.718 165.131 165.062 
164.482 164.357 163.756 166.858 167.066 166.824 167.022 166.706 166.798 
166.347 166.355 165.826 165.813 165.278 165.249 164.73 164.665 164.154 
164.039 163.517 163.359 162.848 166.407 165.664 166.145 166.354 164.799 
165.358 165.57 166.086 166.24 163.702 164.383 164.562 165.19 165.305 
165.839 165.854 162.415 163.154 163.306 164.033 164.132 164.776 164.786 
165.331 165.295 161.229 161.875 162.021 162.714 162.84 163.531 163.6 
164.212 164.229 164.767 164.763 160.247 160.805 160.93 161.502 161.602 
162.248 162.345 163.007 163.067 163.678 163.708 164.255 164.251 159.284 
159.844 159.934 160.462 160.481 161.05 161.081 161.731 161.766 162.441 
162.469 163.125 163.143 163.721 163.689 158.331 158.846 158.906 159.433 
159.423 159.941 159.92 160.49 160.501 161.127 161.16 161.827 161.883 
162.543 162.565 163.133 163.076 157.523 157.927 157.958 158.423 158.435 
158.908 158.908 159.401 159.44 159.969 160.049 160.615 160.72 161.322 
161.408 161.992 161.997 162.513 162.443 157.128 156.644 157.082 157.509 
156.193 156.603 157.021 157.489 157.951 155.828 156.181 156.585 157.015 
157.483 157.95 158.434 155.517 155.862 156.282 156.652 157.145 157.546 
158.068 158.489 159.001 155.069 155.508 155.962 156.391 156.902 157.287 
157.828 158.208 158.755 159.127 159.645 154.519 154.961 155.367 155.93 
156.414 156.958 157.465 157.95 158.483 158.909 159.432 159.796 160.305 
154.176 154.45 154.744 155.219 155.629 156.261 156.742 157.402 157.91 
158.507 159.01 159.509 159.995 160.426 160.927 154.011 154.204 154.431 
154.698 155.031 155.488 155.978 156.601 157.163 157.814 158.344 158.944 
159.437 159.989 160.476 160.983 161.469 153.704 153.991 154.21 154.457 
154.754 155.062 155.54 156 156.624 157.166 157.775 158.304 158.849 
159.383 159.913 160.455 160.964 161.471 161.928 162.02 161.071 161.67 
161.903 160.017 160.666 160.922 161.562 161.805 158.946 159.583 159.818 
160.509 160.744 161.4 161.578 157.893 158.519 158.7 159.362 159.537 
160.229 160.365 161.057 161.188 156.762 157.422 157.556 158.209 158.303 
158.97 159.069 159.773 159.896 160.619 160.758 155.645 156.243 156.33 
156.984 157.02 157.687 157.755 158.471 158.626 159.348 159.508 160.195 
160.321 154.767 155.181 155.195 155.747 155.768 156.387 156.443 157.144 
157.311 158.077 158.281 158.99 159.135 159.779 159.92 154.1 154.36 
154.253 154.674 154.686 155.228 155.324 155.92 156.079 156.769 156.992 
157.738 157.942 158.629 158.806 159.453 159.68 153.495 153.672 153.436 
153.758 153.71 154.218 154.354 154.919 155.091 155.655 155.846 156.494 
156.742 157.445 157.703 158.377 158.644 159.301 159.594 161.149 160.261 
161.04 161.684 159.32 160.141 160.843 161.606 162.287 158.426 159.24 
159.992 160.774 161.525 162.275 163.028 157.751 158.463 159.31 160.025 
160.833 161.552 162.371 163.097 163.876 157.456 157.952 158.815 159.46 
160.311 160.97 161.805 162.487 163.302 163.964 164.678 157.498 157.769 
158.439 158.988 159.778 160.457 161.268 161.958 162.747 163.409 164.123 
164.731 165.353 157.607 157.787 158.247 158.627 159.271 159.874 160.628 
161.344 162.108 162.821 163.51 164.151 164.738 165.334 165.844 157.582 
157.796 158.216 158.486 159.059 159.464 160.151 160.713 161.459 162.139 
162.862 163.521 164.12 164.697 165.183 165.734 166.134 157.46 157.718 
158.186 158.47 159.053 159.371 160.005 160.38 161.046 161.563 162.287 
162.905 163.582 164.138 164.674 165.142 165.573 166.014 166.367 161.807 
162.328 162.342 162.881 162.93 162.894 163.452 163.425 163.981 163.695 
163.586 164.176 164.079 164.699 164.628 165.254 164.528 164.416 165.032 
164.901 165.545 165.44 166.112 165.998 166.588 165.278 165.217 165.819 
165.746 166.385 166.314 166.985 166.888 167.496 167.31 167.758 165.945 
165.923 166.511 166.469 167.097 167.085 167.767 167.736 168.373 168.23 
168.717 168.431 168.732 166.441 166.523 167.11 167.12 167.718 167.737 
168.412 168.454 169.113 169.062 169.559 169.357 169.652 169.313 169.442 
166.668 166.866 167.405 167.567 168.089 168.23 168.825 168.989 169.608 
169.691 170.141 170.059 170.283 170.078 170.158 169.861 169.882 166.8 
166.982 167.449 167.674 168.112 168.365 168.844 169.162 169.697 169.98 
170.383 170.461 170.617 170.521 170.553 170.396 170.43 170.214 170.27 
161.706 162.774 162.135 161.89 163.84 163.177 162.917 162.27 161.981 
165.067 164.3 163.986 163.266 162.942 162.303 162.01 166.362 165.584 
165.241 164.41 164.022 163.273 162.96 162.335 162.077 167.466 166.793 
166.454 165.679 165.25 164.423 164.016 163.301 162.996 162.397 162.103 
168.349 167.757 167.383 166.754 166.328 165.599 165.112 164.355 163.914 
163.269 162.899 162.331 161.939 169.032 168.52 168.09 167.546 167.117 
166.529 166.056 165.368 164.851 164.154 163.678 163.068 162.632 162.071 
161.633 169.539 169.108 168.692 168.185 167.758 167.234 166.806 166.216 
165.731 165.055 164.537 163.858 163.36 162.745 162.283 161.732 161.321 
170.008 169.61 169.257 168.77 168.358 167.852 167.426 166.904 166.436 
165.854 165.331 164.691 164.152 163.5 162.99 162.388 161.952 161.435 
161.088 169.868 170.22 170.142 170.249 170.397 170.4 170.521 170.448 
170.404 170.517 170.511 170.555 170.562 170.471 170.385 170.155 170.581 
170.562 170.504 170.503 170.351 170.312 170.091 170.019 169.803 170.677 
170.593 170.506 170.436 170.255 170.171 169.963 169.921 169.793 169.746 
169.597 170.93 170.758 170.69 170.521 170.372 170.176 169.957 169.829 
169.684 169.69 169.569 169.523 169.243 171.133 171.012 170.909 170.758 
170.654 170.436 170.253 169.97 169.73 169.572 169.353 169.343 169.038 
168.984 168.54 171.014 171.051 170.897 170.875 170.785 170.714 170.623 
170.379 170.132 169.766 169.419 169.164 168.813 168.697 168.296 168.193 
167.745 170.604 170.772 170.654 170.742 170.676 170.741 170.715 170.668 
170.492 170.2 169.809 169.393 168.964 168.638 168.266 168.039 167.66 
167.469 167.076 
POINT_DATA 1002
SCALARS Distance double
LOOKUP_TABLE default
156.686 157.177 156.587 155.981 155.808 156.211 155.149 154.838 155.54 
155.813 154.4 154.186 154.905 155.293 155.504 154.068 154.151 154.346 
154.823 155.009 155.138 153.997 154.196 153.844 154.183 154.522 154.528 
154.598 153.853 153.976 153.52 153.526 153.963 154.133 154.047 154.152 
153.715 153.786 153.532 153.358 153.591 153.876 153.813 153.781 153.991 
153.674 153.769 153.654 153.548 153.533 153.639 153.562 153.437 153.556 
153.811 153.668 153.815 153.623 153.552 153.453 153.371 153.186 152.958 
152.947 153.141 153.373 157.332 156.795 157.468 156.863 157.383 155.901 
156.433 157.104 155.698 154.751 155.839 157.068 154.989 154.372 154.104 
156.006 157.593 154.66 153.872 153.769 154.089 157.019 158.483 155.548 
154.314 153.711 153.837 154.076 158.174 159.446 156.973 155.783 154.694 
154.165 154.113 154.002 159.197 160.392 158.12 157.18 156.149 155.235 
154.767 154.454 154.057 160.187 161.273 159.086 158.143 157.24 156.31 
155.62 155.16 154.64 154.119 161.479 160.391 161.636 160.563 161.691 
159.256 160.655 161.738 159.369 158.195 160.764 161.83 159.482 158.198 
157.181 160.827 161.784 159.656 158.357 157.153 156.311 160.652 161.522 
159.649 158.566 157.319 156.259 155.67 160.381 161.203 159.427 158.533 
157.518 156.306 155.461 155.059 160.22 160.945 159.327 158.441 157.607 
156.53 155.413 154.766 154.44 160.128 160.777 159.37 158.509 157.661 
156.74 155.674 154.797 154.314 154.031 153.782 154.05 153.828 154.423 
154.245 153.873 154.968 154.622 154.376 153.816 155.785 154.988 154.66 
154.345 153.628 156.765 155.65 154.946 154.742 154.249 153.378 157.759 
156.663 155.651 155.23 154.848 154.004 153.168 158.69 157.724 156.658 
155.982 155.476 154.607 153.661 153.095 159.503 158.652 157.644 156.864 
156.262 155.358 154.303 153.596 153.237 160.244 159.547 158.65 157.831 
157.2 156.363 155.275 154.422 153.948 153.597 153.588 153.422 153.37 
153.254 152.991 153.18 153.081 152.774 152.803 153.064 152.811 152.56 
152.603 152.687 152.845 152.634 152.251 152.231 152.346 152.355 152.513 
152.699 152.252 151.919 151.915 152.015 152.067 152.366 152.841 152.483 
152.069 151.799 151.833 151.909 152.015 152.46 153.018 152.604 152.293 
152.008 151.885 151.911 151.912 152.084 152.65 153.645 152.918 153.798 
153.086 154.34 152.472 153.815 155.228 152.664 152.218 154.827 156.081 
153.324 152.318 152.014 155.722 156.836 154.245 152.754 152.056 151.949 
156.549 157.65 155.261 153.707 152.565 152.123 151.969 157.397 158.475 
156.254 154.94 153.753 152.952 152.371 152.051 158.205 159.226 157.147 
156.03 155.01 154.217 153.414 152.693 152.461 158.941 159.896 157.978 
156.994 156.032 155.261 154.556 153.762 153.225 153.184 154.429 154.665 
155.418 155.788 156.369 155.012 156.882 157.521 156.244 155.629 158.224 
159.009 157.505 156.875 156.413 159.731 160.422 159.01 158.32 157.755 
157.253 161.143 161.717 160.579 159.968 159.428 158.836 158.167 162.65 
163.194 162.143 161.57 161.028 160.485 159.762 159.026 164.211 164.677 
163.703 163.095 162.438 161.795 161.096 160.378 159.756 165.504 165.849 
165.04 164.445 163.78 163.064 162.277 161.535 160.952 160.435 161.193 
160.707 161.893 161.443 162.722 159.99 162.106 163.324 160.642 159.105 
162.448 163.738 161.111 159.698 158.332 162.831 164.238 161.442 160.122 
158.788 157.496 163.378 164.75 161.946 160.546 159.083 157.65 156.365 
163.813 165.148 162.388 161.016 159.475 157.841 156.495 155.382 164.203 
165.507 162.705 161.333 159.959 158.33 156.872 155.81 154.834 161.546 
162.07 162.497 163.088 163.624 162.852 164.194 164.81 163.798 163.689 
165.302 165.946 164.72 164.546 164.373 166.421 166.99 165.686 165.337 
165.32 164.982 167.536 167.944 166.768 166.162 166.116 166.066 165.555 
168.611 168.866 167.916 167.079 166.821 166.932 166.675 166.007 169.636 
169.728 169.083 168.099 167.491 167.582 167.587 167.087 166.344 170.476 
170.375 170.156 169.206 168.243 168.018 168.161 167.923 167.316 166.61 