# vtk DataFile Version 4.0
vtk output
ASCII
DATASET POLYDATA
POINTS 1002 float
-78.1762 -112.755 73.4818 -77.9733 -114.258 73.2888 -78.1799 -113.785 72.3153 
-78.4906 -112.31 72.4517 -78.4531 -113.253 71.2638 -78.6741 -111.449 73.7065 
-78.9671 -111.962 71.4618 -78.7161 -112.731 70.2265 -79.1455 -111.111 72.7396 
-79.4896 -110.308 74.0722 -79.5748 -111.686 70.6108 -79.2212 -112.342 69.3044 
-79.8277 -110.863 71.8861 -80.0757 -109.974 73.2613 -80.3977 -109.076 74.5751 
-80.3371 -111.346 69.8404 -80.105 -112.02 68.5827 -80.569 -110.491 71.1137 
-80.7604 -109.512 72.4697 -81.0094 -108.564 73.8047 -81.1713 -107.599 74.9564 
-81.1181 -110.751 69.1422 -81.0848 -111.491 68.0854 -81.2638 -109.872 70.3699 
-81.3851 -108.818 71.6873 -81.5578 -107.796 72.9573 -81.7177 -106.828 74.0979 
-81.7117 -105.822 75.1214 -81.8792 -109.965 68.6604 -82.0269 -110.774 67.7795 
-81.9778 -109.117 69.7896 -82.1162 -108.117 71.0589 -82.1815 -107.038 72.2327 
-82.2493 -106.008 73.2668 -82.2387 -104.992 74.2777 -82.2088 -104.091 75.3124 
-82.8383 -109.327 68.4709 -83.071 -110.144 67.6614 -82.879 -108.482 69.4947 
-83.0839 -107.552 70.649 -83.1496 -106.504 71.7275 -83.0883 -105.437 72.6557 
-82.9861 -104.392 73.5601 -82.8929 -103.481 74.5509 -82.9514 -102.879 75.6089 
-84.0129 -108.909 68.4872 -84.195 -109.658 67.707 -83.994 -108.064 69.4194 
-84.1363 -107.093 70.3818 -84.2115 -106.006 71.2831 -84.14 -104.942 72.1419 
-84.0102 -103.953 72.9875 -83.8351 -103.03 73.8643 -83.7382 -102.354 74.8295 
-83.8154 -101.993 75.8481 -85.1549 -108.51 68.5749 -85.2321 -109.218 67.833 
-85.1395 -107.67 69.4226 -85.1596 -106.648 70.1973 -85.1275 -105.463 70.8586 
-85.0368 -104.321 71.5918 -84.9639 -103.395 72.4418 -84.831 -102.563 73.2756 
-84.6081 -101.791 74.1101 -84.47 -101.266 75.0191 -84.4713 -100.988 75.9592 
-77.9113 -115.513 72.5124 -78.1725 -114.998 71.4619 -77.7674 -116.58 71.6868 
-78.0738 -116.063 70.5051 -77.5182 -117.412 70.8062 -78.2827 -114.268 70.2324 
-77.872 -117.008 69.4933 -77.2809 -118.401 69.9926 -78.0635 -115.232 68.9504 
-78.3311 -113.491 68.8879 -77.7529 -118.142 68.6585 -77.2853 -119.649 69.4077 
-77.9428 -116.31 67.6787 -78.0839 -114.375 67.2803 -78.8843 -113.003 67.8222 
-78.0744 -119.366 68.1282 -77.8315 -120.672 69.0322 -78.1621 -117.647 66.942 
-78.1882 -115.584 66.1403 -78.8203 -113.898 66.4257 -80.0466 -112.719 67.3444 
-78.9818 -120.194 67.9067 -78.9124 -121.215 68.8715 -78.927 -118.836 66.8734 
-78.8074 -116.922 66.1 -79.1748 -115.021 65.9545 -80.2427 -113.577 66.4667 
-81.3364 -112.221 67.1736 -80.1141 -120.527 68.1118 -80.1429 -121.506 69.0114 
-80.0219 -119.398 67.2981 -79.8987 -117.828 66.7934 -80.0628 -116.033 66.4638 
-80.7843 -114.474 66.2841 -81.7686 -113.029 66.5008 -82.5236 -111.512 67.0219 
-81.1521 -120.659 68.6413 -81.28 -121.742 69.3165 -81.0481 -119.485 68.0261 
-81.0461 -118.155 67.5877 -81.2619 -116.707 67.1408 -81.7348 -115.312 66.4961 
-82.4106 -113.877 66.122 -83.1018 -112.298 66.3806 -83.6692 -110.823 66.99 
-82.141 -120.797 69.1245 -82.3523 -121.948 69.5532 -81.9855 -119.521 68.7189 
-82.0305 -118.292 68.218 -82.3586 -117.188 67.5286 -82.8281 -116.127 66.6515 
-83.2989 -114.827 65.9751 -83.7943 -113.182 65.9593 -84.2971 -111.534 66.463 
-84.7636 -110.224 67.1202 -83.3203 -121.394 69.4698 -83.0831 -120.02 69.2236 
-84.3827 -120.678 69.4558 -84.2745 -119.312 69.1122 -85.5644 -119.986 69.3999 
-83.043 -118.717 68.7537 -85.7529 -118.867 68.6898 -86.8995 -119.368 69.2484 
-84.5294 -118.337 68.1891 -83.3603 -117.754 67.8282 -87.2694 -118.326 68.3696 
-88.1906 -118.517 69.203 -86.2607 -118.129 67.4806 -85.0529 -117.695 66.9076 
-83.8931 -116.959 66.7109 -88.3467 -117.222 68.5833 -89.1118 -117.214 69.4823 
-87.6511 -117.296 67.4681 -86.6952 -117.188 66.556 -85.5227 -116.663 66.0853 
-84.3674 -115.776 65.9417 -89.0487 -115.729 69.1817 -89.8892 -115.729 69.899 
-88.4143 -115.8 68.1633 -87.7943 -115.754 67.1112 -86.9587 -115.43 66.3819 
-85.9056 -114.796 65.9934 -84.7782 -113.964 65.8504 -90.0433 -114.307 69.6571 
-91.0105 -114.449 70.0748 -89.1844 -114.252 68.9814 -88.5357 -114.132 67.9989 
-88.0029 -113.78 67.0582 -87.3123 -113.246 66.4982 -86.2946 -112.623 66.2779 
-85.194 -112.016 66.272 -91.4988 -113.124 69.7529 -92.422 -113.435 69.97 
-90.5004 -112.912 69.4564 -89.6082 -112.775 68.7944 -88.9606 -112.488 67.8308 
-88.4328 -111.986 67.0419 -87.6515 -111.41 66.7194 -86.5818 -110.884 66.7209 
-85.5688 -110.491 66.8679 -92.992 -112.106 69.6472 -93.7435 -112.531 69.8369 
-92.0661 -111.742 69.5243 -91.0888 -111.541 69.2117 -90.2149 -111.357 68.5868 
-89.504 -111.008 67.8723 -88.7584 -110.539 67.4005 -87.7907 -110.057 67.2586 
-86.7733 -109.648 67.3364 -85.928 -109.38 67.5435 -86.1662 -108.272 68.4328 
-86.8708 -108.415 68.1668 -87.1711 -106.954 69.039 -87.7539 -108.7 68.0617 
-87.9488 -107.039 68.8377 -88.2176 -105.153 69.3604 -88.8209 -109.044 68.1652 
-88.9382 -107.213 68.8597 -89.1676 -105.09 69.1388 -89.2273 -103.087 69.2992 
-89.8804 -109.377 68.4034 -90.1111 -107.344 69.0259 -90.3204 -105.07 69.1061 
-90.3724 -102.896 68.9973 -90.2014 -101.175 69.2735 -90.8526 -109.737 68.6869 
-91.3297 -107.583 69.0542 -91.6262 -105.136 69.1408 -91.6882 -102.856 68.8893 
-91.5036 -100.993 68.9919 -91.2618 -99.6544 69.5229 -91.8324 -110.052 69.0003 
-92.4999 -108.064 68.9448 -92.9851 -105.589 69.0194 -93.1533 -103.144 68.9387 
-92.9536 -101.097 68.9147 -92.6165 -99.5229 69.255 -92.3332 -98.4734 69.7998 
-92.8327 -110.322 69.2871 -93.561 -108.585 69.0114 -94.1998 -106.357 68.9007 
-94.5875 -103.87 68.9515 -94.533 -101.599 68.9996 -94.1237 -99.7274 69.1485 
-93.6566 -98.3639 69.5135 -93.2306 -97.5571 70.1058 -93.7612 -110.721 69.4798 
-94.4772 -109.1 69.2894 -95.1357 -107.142 69.0822 -95.6503 -104.819 69.005 
-95.8586 -102.445 69.0572 -95.6644 -100.324 69.1706 -95.1776 -98.6289 69.4182 
-94.5872 -97.5229 69.8983 -93.975 -96.9183 70.6435 -94.5072 -111.248 69.6692 
-95.1978 -109.705 69.6004 -95.8127 -107.921 69.4795 -96.2999 -105.831 69.2997 
-96.6091 -103.519 69.2136 -96.7097 -101.258 69.2853 -96.5313 -99.2902 69.5093 
-96.0641 -97.8557 69.9233 -95.3933 -97.0214 70.5628 -94.6436 -96.5296 71.3748 
-86.2016 -107.345 69.2276 -87.2213 -105.676 69.6588 -86.1941 -106.247 69.9418 
-88.1461 -103.628 69.6892 -87.103 -104.337 70.0785 -86.0631 -104.972 70.4489 
-88.9986 -101.596 69.6232 -87.9095 -102.264 70.0163 -86.8655 -102.993 70.4908 
-85.8777 -103.658 71.0295 -89.9627 -99.8993 69.8341 -88.7195 -100.363 70.1483 
-87.6787 -101.038 70.6432 -86.6961 -101.807 71.2996 -85.7874 -102.617 71.9154 
-91.1065 -98.6205 70.1827 -89.6977 -98.8456 70.5103 -88.4595 -99.2743 70.944 
-87.5003 -100.049 71.6432 -86.5891 -100.974 72.3397 -85.7065 -101.836 72.8481 
-92.1394 -97.6618 70.5738 -90.8055 -97.7966 71.0364 -89.3489 -97.9431 71.4245 
-88.1872 -98.455 71.9659 -87.2589 -99.3624 72.6724 -86.3297 -100.257 73.251 
-85.4436 -101.042 73.6781 -92.8951 -96.909 71.1478 -91.7429 -97.0132 71.7518 
-90.3704 -97.0829 72.21 -89.0194 -97.2817 72.5429 -87.9245 -97.9054 73.0325 
-86.8984 -98.7205 73.631 -85.9123 -99.4761 74.1129 -85.1234 -100.333 74.5387 
-93.5204 -96.3264 71.8464 -92.4424 -96.2654 72.4671 -91.2762 -96.319 73.0179 
-89.9715 -96.4253 73.3256 -88.7503 -96.763 73.6014 -87.6325 -97.4062 74.0757 
-86.4999 -98.0999 74.5861 -85.5552 -98.8773 75.0056 -84.9443 -99.9133 75.4508 
-94.5255 -96.0305 72.4576 -93.3665 -95.6184 72.9431 -94.356 -95.3786 73.5841 
-93.2487 -94.7448 73.9303 -94.1832 -94.7486 74.7873 -92.2472 -95.4207 73.4931 
-93.1065 -94.1243 75.0984 -93.9799 -94.4964 76.314 -92.0161 -94.5183 74.3452 
-90.9784 -95.4857 73.9254 -92.7901 -94.1521 76.8037 -93.6733 -94.6809 78.0202 
-91.5852 -94.0614 75.6099 -90.4719 -94.6835 74.8128 -89.602 -95.7234 74.2333 
-92.295 -94.6888 78.4596 -93.1972 -95.1609 79.3501 -91.0285 -94.3232 77.3964 
-89.7905 -94.3756 76.2684 -89.0016 -95.1411 75.3432 -88.3647 -96.2706 74.6517 
-91.7098 -95.451 79.5315 -92.5482 -95.898 80.3279 -90.5871 -95.0697 78.7959 
-89.3572 -94.7945 77.9422 -88.4488 -95.1042 76.8603 -87.829 -96.0101 75.8784 
-87.1505 -97.0404 75.1672 -91.0971 -96.2532 80.626 -91.8733 -96.6825 81.4451 
-90.1894 -95.9647 79.8038 -89.1906 -95.6888 79.1537 -88.2225 -95.6939 78.3549 
-87.3824 -96.2061 77.275 -86.6225 -96.9602 76.3137 -85.9767 -97.8231 75.607 
-90.5564 -96.8939 82.0746 -91.334 -97.2879 82.669 -89.7242 -96.7334 81.1579 
-88.8986 -96.6317 80.2907 -88.0328 -96.5756 79.6145 -87.0797 -96.7392 78.7483 
-86.1815 -97.1577 77.6645 -85.5468 -97.848 76.7445 -85.1876 -98.8252 76.0515 
-90.1388 -97.435 83.3358 -90.9165 -97.845 83.6094 -89.3061 -97.3142 82.6374 
-88.4904 -97.3543 81.6618 -87.687 -97.4046 80.8317 -86.8012 -97.4507 80.1299 
-85.8822 -97.5856 79.2004 -85.2137 -98.0462 78.1487 -84.9105 -98.9584 77.28 
-84.7386 -100.051 76.5886 -95.7779 -96.583 71.7213 -95.6158 -96.1607 72.9585 
-96.7456 -96.7433 72.293 -96.5191 -96.367 73.7559 -97.2615 -97.1122 73.1447 
-95.3173 -95.6847 74.3304 -97.1223 -96.7485 74.8083 -97.4854 -98.0581 74.269 
-96.1343 -96.0886 75.3581 -94.9561 -95.3291 75.8212 -97.5378 -97.7514 75.965 
-97.6131 -99.5827 75.4479 -96.832 -96.63 76.4429 -95.6639 -96.007 76.9042 
-94.6297 -95.2416 77.459 -97.6418 -99.3602 77.0036 -97.571 -101.16 76.4617 
-97.2839 -97.7447 77.4647 -96.387 -96.7672 77.8924 -95.3244 -96.0524 78.4647 
-94.3364 -95.3868 79.0438 -97.4621 -101.057 77.8812 -97.5061 -102.64 77.3757 
-97.2731 -99.4193 78.3894 -96.8438 -97.9858 78.8957 -96.0944 -96.9842 79.4658 
-95.0611 -96.2804 80.0076 -93.8522 -95.8971 80.2761 -97.4084 -102.7 78.75 
-97.5849 -104.234 78.2813 -97.1405 -101.192 79.2433 -96.9153 -99.6506 79.8224 
-96.5667 -98.2816 80.4386 -95.7142 -97.39 80.9331 -94.4386 -96.9495 81.1743 
-93.1094 -96.75 81.2705 -97.5108 -104.36 79.6038 -97.624 -105.834 79.0756 
-97.2165 -102.877 80.0672 -96.9091 -101.397 80.5591 -96.6261 -99.9166 81.1172 
-95.9825 -98.7395 81.5986 -94.8249 -98.1316 81.8646 -93.5487 -97.837 82.0175 
-92.4021 -97.5366 82.2817 -97.4846 -105.912 80.2746 -97.4713 -107.194 79.6536 
-97.2866 -104.483 80.7636 -96.896 -103.05 81.1372 -96.4567 -101.653 81.5317 
[...]
CELL_DATA 2000
SCALARS Distance double
LOOKUP_TABLE default
155.01 154.317 154.494 154.231 153.674 153.876 153.705 153.882 153.828 
153.193 153.385 153.379 153.497 153.492 153.646 153.669 152.945 153.078 
153.139 153.248 153.221 153.347 153.31 153.478 153.382 152.769 152.865 
152.82 152.961 152.824 152.975 152.8 153.007 152.806 153.012 152.711 
152.561 152.597 152.441 152.568 152.41 152.526 152.31 152.432 152.179 
152.344 152.028 152.189 151.845 152.52 152.411 152.273 152.267 152.214 
152.23 152.126 152.09 151.892 151.858 151.604 151.608 151.354 151.43 
151.297 152.749 152.538 152.473 152.318 152.316 152.218 152.156 152.048 
151.869 151.748 151.518 151.408 151.189 151.13 151.012 151.103 151.15 
153.077 152.877 152.837 152.645 152.584 152.411 152.235 152.079 151.794 
151.692 151.416 151.363 151.131 151.068 150.872 150.875 150.786 150.97 
150.988 155.486 155.939 155.418 154.765 156.185 155.796 155.093 154.582 
153.932 156.354 155.98 155.253 154.755 153.923 153.611 153.16 156.809 
156.257 155.505 154.875 153.933 153.478 152.901 152.896 152.795 157.613 
156.91 156.195 155.343 154.413 153.632 153 152.724 152.662 152.739 
152.792 158.523 157.813 157.222 156.308 155.528 154.485 153.86 153.156 
153.057 152.84 152.974 152.849 152.79 159.411 158.731 158.235 157.436 
156.838 155.844 155.277 154.336 154.092 153.517 153.555 153.229 153.208 
152.894 152.774 160.282 159.611 159.116 158.42 157.91 157.126 156.644 
155.789 155.439 154.683 154.512 153.959 153.851 153.426 153.303 152.965 
152.923 161.11 160.456 159.936 159.267 158.767 158.106 157.689 157.012 
156.686 155.968 155.697 154.997 154.765 154.172 153.991 153.547 153.457 
153.171 153.197 161.39 161.389 160.988 160.188 161.434 160.987 160.171 
159.773 159.021 161.613 161.119 160.361 159.86 159.134 158.694 158.024 
161.786 161.364 160.699 160.19 159.528 158.973 158.315 157.805 157.145 
161.654 161.432 160.794 160.484 159.851 159.404 158.72 158.185 157.458 
156.928 156.197 161.249 161.136 160.482 160.363 159.701 159.499 158.77 
158.437 157.634 157.19 156.366 155.903 155.171 160.942 160.753 160.141 
159.982 159.338 159.177 158.461 158.256 157.479 157.19 156.378 155.997 
155.236 154.872 154.286 160.895 160.607 160.061 159.783 159.216 158.93 
158.306 157.999 157.334 157.02 156.342 155.99 155.323 154.951 154.392 
154.092 153.707 160.965 160.662 160.136 159.823 159.298 158.97 158.427 
158.049 157.483 157.075 156.516 156.099 155.555 155.132 154.64 154.274 
153.916 153.649 153.426 153.416 153.857 153.581 153.467 154.539 154.114 
153.946 153.575 153.254 155.426 154.902 154.691 154.16 153.757 153.222 
152.637 156.373 155.828 155.579 154.967 154.48 153.801 153.121 152.49 
151.834 157.32 156.769 156.496 155.853 155.328 154.569 153.844 153.074 
152.38 151.77 151.31 158.243 157.704 157.434 156.778 156.295 155.49 
154.834 153.947 153.28 152.483 151.991 151.427 151.167 159.117 158.605 
158.373 157.741 157.349 156.559 156.032 155.112 154.536 153.591 153.071 
152.268 151.908 151.371 151.202 159.974 159.48 159.306 158.712 158.411 
157.68 157.25 156.392 155.883 154.948 154.425 153.493 153.046 152.263 
151.999 151.474 151.404 160.817 160.352 160.224 159.673 159.441 158.775 
158.405 157.612 157.125 156.255 155.734 154.839 154.364 153.502 153.17 
152.45 152.327 151.806 151.835 153.22 153.25 153.168 152.985 152.926 
153.03 152.819 152.856 152.647 152.192 152.449 152.16 152.426 152.167 
152.352 152.113 151.37 151.581 151.25 151.572 151.307 151.636 151.396 
151.689 151.526 150.891 150.887 150.55 150.702 150.479 150.762 150.625 
150.931 150.865 151.167 151.158 150.809 150.65 150.314 150.218 149.957 
150.066 149.993 150.27 150.314 150.603 150.667 150.921 150.946 150.905 
150.716 150.453 150.211 149.908 149.75 149.597 149.731 149.792 150.098 
150.176 150.457 150.47 150.706 150.695 151.119 150.892 150.73 150.48 
150.258 149.928 149.701 149.528 149.497 149.627 149.704 149.947 149.948 
150.19 150.189 150.457 150.544 151.501 151.187 151.022 150.791 150.635 
150.351 150.122 149.803 149.638 149.506 149.51 149.578 149.599 149.726 
149.73 149.951 150.085 150.411 150.67 151.711 151.754 151.505 151.129 
151.743 151.459 151.023 150.942 150.678 151.963 151.474 150.912 150.745 
150.439 150.453 150.181 152.605 151.889 151.196 150.708 150.245 150.143 
149.894 149.919 149.695 153.383 152.664 151.953 151.201 150.557 150.088 
149.754 149.662 149.554 149.562 149.509 154.024 153.405 152.772 152.04 
151.391 150.66 150.222 149.786 149.679 149.54 149.554 149.515 149.537 
154.668 154.052 153.511 152.85 152.34 151.614 151.206 150.546 150.345 
149.914 149.863 149.641 149.629 149.562 149.629 155.403 154.787 154.329 
153.67 153.263 152.595 152.272 151.61 151.355 150.749 150.55 150.094 
150.005 149.761 149.848 149.782 150.018 156.091 155.555 155.164 154.555 
154.182 153.55 153.243 152.635 152.379 151.761 151.495 150.889 150.712 
150.284 150.368 150.176 150.478 150.386 150.713 152.211 153.166 152.583 
152.332 154.163 153.594 153.401 152.722 152.427 155.272 154.639 154.546 
153.876 153.673 152.902 152.707 156.701 155.909 155.827 155.096 154.983 
154.229 154.091 153.34 153.311 158.238 157.44 157.316 156.495 156.37 
155.589 155.495 154.753 154.713 154.023 154.036 159.627 158.906 158.793 
158 157.863 157.054 156.986 156.209 156.194 155.441 155.419 154.704 
154.669 161.049 160.287 160.211 159.438 159.352 158.57 158.532 157.758 
157.749 156.963 156.912 156.122 156.044 155.307 155.278 162.537 161.774 
161.703 160.901 160.824 160.049 159.991 159.257 159.18 158.447 158.309 
157.561 157.408 156.681 156.591 155.925 155.932 163.806 163.198 163.117 
162.385 162.237 161.478 161.313 160.601 160.417 159.73 159.507 158.819 
158.612 157.948 157.819 157.189 157.137 156.547 156.555 161.246 161.672 
161.207 160.65 162.028 161.577 160.983 160.52 159.862 162.378 161.894 
161.247 160.787 160.067 159.605 158.814 162.76 162.231 161.505 161.006 
160.214 159.735 158.854 158.396 157.501 163.087 162.559 161.733 161.208 
160.336 159.841 158.905 158.397 157.426 156.988 156.092 163.324 162.806 
161.885 161.34 160.386 159.906 158.961 158.456 157.463 156.941 156.001 
155.589 154.756 163.533 163.018 162.083 161.468 160.476 159.938 159.019 
158.521 157.571 157.018 156.068 155.573 154.754 154.349 153.625 163.738 
163.251 162.388 161.735 160.784 160.139 159.278 158.696 157.835 157.207 
156.301 155.715 154.941 154.476 153.844 153.398 152.821 163.928 163.486 
162.704 162.093 161.202 160.545 159.732 159.11 158.336 157.644 156.806 
156.09 155.348 154.785 154.233 153.757 153.259 152.769 152.304 161.665 
162.409 162.085 162.131 163.128 162.819 162.914 162.549 162.541 163.945 
163.547 163.659 163.334 163.414 162.985 162.956 165.01 164.445 164.489 
164.1 164.233 163.872 163.939 163.452 163.403 166.206 165.571 165.495 
164.978 165.048 164.691 164.821 164.43 164.456 163.916 163.801 167.306 
166.721 166.563 165.973 165.894 165.486 165.601 165.292 165.393 164.948 
164.887 164.28 164.085 168.28 167.761 167.602 166.989 166.772 166.267 
166.253 165.994 166.133 165.841 165.827 165.317 165.132 164.506 164.261 
169.093 168.681 168.564 168.003 167.734 167.116 166.893 166.534 166.568 
166.426 166.455 166.148 165.956 165.45 165.188 164.625 164.385 169.6 
169.348 169.232 168.86 168.619 168.053 167.708 167.165 166.971 166.731 
166.714 166.58 166.454 166.137 165.88 165.438 165.211 164.721 164.517 
169.683 169.473 169.534 169.334 169.168 169.27 169.168 169.171 168.828 
169.052 169.064 169.029 169.031 168.781 168.575 168.02 169.021 169.029 
168.98 168.968 168.745 168.556 168.041 167.712 167.204 168.812 168.897 
168.753 168.827 168.546 168.477 167.974 167.728 167.219 167.026 166.775 
168.497 168.582 168.357 168.442 168.118 168.148 167.71 167.606 167.157 
167.017 166.725 166.677 166.49 168.078 168.202 167.942 168.011 167.697 
167.718 167.389 167.352 167.054 166.964 166.721 166.623 166.394 166.31 
166.017 167.385 167.624 167.317 167.511 167.209 167.325 167.046 167.089 
166.852 166.855 166.649 166.606 166.367 166.253 165.941 165.789 165.425 
166.547 166.796 166.459 166.741 166.459 166.733 166.485 166.68 166.405 
166.533 166.239 166.352 166.049 166.107 165.761 165.709 165.316 165.185 
164.766 166.017 165.303 165.696 165.889 164.731 165.046 165.179 165.628 
165.916 163.921 164.401 164.507 164.968 165.214 165.713 166.007 162.681 
163.361 163.512 164.177 164.406 164.981 165.208 165.735 165.937 161.437 
162.071 162.282 163.043 163.34 164.037 164.204 164.799 164.92 165.531 
165.704 160.384 160.954 161.15 161.845 162.144 162.877 163.037 163.667 
163.707 164.366 164.536 165.263 165.494 159.263 159.896 160.02 160.705 
160.873 161.617 161.736 162.423 162.458 163.113 163.264 164.028 164.337 
165.076 165.284 158.09 158.716 158.801 159.473 159.55 160.266 160.353 
161.079 161.183 161.875 162.051 162.785 163.088 163.877 164.16 164.828 
164.912 157.062 157.591 157.675 158.259 158.352 158.972 159.103 159.768 
159.965 160.653 160.882 161.588 161.834 162.601 162.838 163.608 163.739 
164.375 164.36 165.97 165.734 165.655 165.308 165.468 165.441 165.132 
165.078 164.757 164.998 165.085 164.754 164.829 164.481 164.464 163.957 
164.243 164.457 164.054 164.265 163.88 164.023 163.478 163.43 162.714 
163.235 163.557 163.115 163.398 162.943 163.214 162.701 162.822 162.147 
162.086 161.419 162.101 162.467 162.036 162.362 161.85 162.148 161.617 
161.898 161.325 161.453 160.81 160.838 160.286 161.008 161.334 160.921 
161.256 160.771 161.04 160.493 160.771 160.249 160.521 159.951 160.113 
159.497 159.643 159.108 160.053 160.298 159.887 160.183 159.766 160.018 
159.532 159.737 159.243 159.476 158.976 159.179 158.599 158.755 158.182 
158.389 157.918 159.245 159.414 158.997 159.224 158.838 159.083 158.663 
158.859 158.39 158.569 158.087 158.261 157.739 157.875 157.34 157.491 
157.041 157.261 156.904 166.422 166.907 166.486 166.113 167.199 166.868 
166.501 166.167 165.815 167.39 167.074 166.706 166.463 166.141 165.827 
165.393 167.528 167.239 166.809 166.592 166.277 166.068 165.645 165.284 
164.675 167.39 167.28 166.817 166.635 166.224 166.083 165.635 165.405 
164.757 164.387 163.634 166.941 166.999 166.598 166.526 166.025 165.905 
165.364 165.236 164.599 164.351 163.589 163.242 162.476 166.433 166.514 
166.177 166.203 165.713 165.607 164.987 164.865 164.242 164.105 163.443 
163.175 162.449 162.098 161.396 165.988 166.028 165.681 165.749 165.314 
165.252 164.642 164.484 163.846 163.726 163.134 162.987 162.35 162.08 
161.4 161.067 160.434 165.592 165.587 165.195 165.249 164.839 164.836 
164.292 164.161 163.531 163.374 162.769 162.648 162.049 161.897 161.266 
161.039 160.42 160.148 159.598 165.243 164.5 164.846 164.803 163.55 
164.011 163.943 164.39 164.371 162.325 162.9 162.796 163.378 163.326 
163.873 163.797 161.046 161.587 161.448 162.082 162.036 162.697 162.65 
163.203 163.069 160.035 160.434 160.309 160.783 160.763 161.381 161.401 
162.01 161.929 162.435 162.292 159.197 159.583 159.505 159.832 159.781 
160.238 160.267 160.812 160.764 161.273 161.129 161.642 161.52 158.227 
158.717 158.629 159.03 158.889 159.314 159.25 159.747 159.683 160.154 
160.004 160.469 160.329 160.867 160.764 157.094 157.62 157.472 157.991 
157.809 158.307 158.165 158.685 158.578 159.079 158.934 159.387 159.239 
159.715 159.616 160.128 160.011 155.963 156.427 156.255 156.775 156.656 
157.172 157.064 157.56 157.43 157.928 157.777 158.281 158.141 158.646 
158.546 159.04 158.945 159.405 159.263 155.305 154.55 155.108 155.595 
154.126 154.5 154.979 155.517 156.058 153.882 154.155 154.536 154.986 
155.478 156.011 156.501 153.533 153.841 154.063 154.485 154.837 155.38 
155.778 156.366 156.799 152.866 153.318 153.48 153.918 154.175 154.673 
155.003 155.566 155.959 156.605 157.084 152.005 152.504 152.71 153.235 
153.549 154.052 154.438 154.892 155.313 155.817 156.33 156.951 157.503 
151.474 151.767 151.999 152.443 152.8 153.381 153.856 154.411 154.892 
155.34 155.837 156.322 156.889 157.448 157.986 151.391 151.521 151.757 
151.943 152.202 152.615 153.013 153.673 154.172 154.836 155.311 155.864 
156.347 156.886 157.394 157.935 158.399 151.278 151.502 151.739 151.865 
152.017 152.17 152.378 152.809 153.22 153.924 154.439 155.162 155.646 
156.277 156.74 157.318 157.764 158.304 158.708 158.697 157.75 158.278 
158.409 156.708 157.272 157.389 157.998 158.2 155.549 156.148 156.223 
156.901 157.092 157.782 158 154.274 154.9 154.941 155.664 155.837 
156.588 156.803 157.526 157.72 153.083 153.621 153.698 154.391 154.6 
155.322 155.522 156.253 156.449 157.193 157.381 152.332 152.625 152.721 
153.256 153.51 154.161 154.365 155.004 155.156 155.87 156.068 156.835 
157.018 152.006 152.113 152.083 152.398 152.523 153.1 153.29 153.904 
154.028 154.642 154.816 155.527 155.761 156.485 156.671 151.68 151.795 
151.569 151.75 151.611 152.07 152.158 152.801 152.962 153.575 153.745 
154.371 154.621 155.3 155.566 156.213 156.431 151.142 151.308 150.97 
151.116 150.817 151.131 151.11 151.679 151.887 152.527 152.754 153.358 
153.592 154.23 154.513 155.171 155.448 156.062 156.315 161.693 160.845 
161.601 162.246 159.936 160.697 161.331 162.123 162.777 159.042 159.774 
160.391 161.186 161.859 162.658 163.344 158.157 158.875 159.505 160.289 
160.99 161.764 162.469 163.251 163.963 157.314 157.958 158.581 159.411 
160.185 160.98 161.705 162.421 163.132 163.893 164.578 156.785 157.193 
157.711 158.454 159.273 160.174 160.985 161.721 162.396 163.092 163.776 
164.501 165.084 156.64 156.866 157.3 157.736 158.472 159.266 160.147 
160.965 161.672 162.367 162.986 163.7 164.298 164.958 165.394 156.488 
156.801 157.276 157.549 158.171 158.657 159.435 160.13 160.845 161.568 
162.162 162.885 163.44 164.14 164.592 165.185 165.482 156.077 156.558 
157.112 157.516 158.106 158.486 159.088 159.549 160.111 160.711 161.248 
161.976 162.513 163.255 163.717 164.354 164.677 165.21 165.431 162.355 
162.948 162.965 163.585 163.515 163.564 164.23 164.234 164.86 164.127 
164.179 164.922 164.924 165.608 165.54 166.108 164.77 164.841 165.682 
165.711 166.501 166.396 167 166.78 167.224 165.308 165.43 166.245 
166.426 167.29 167.336 167.965 167.734 168.093 167.803 168.127 165.676 
165.823 166.443 166.742 167.501 167.867 168.495 168.547 168.787 168.564 
168.716 168.568 168.84 165.912 166.069 166.541 166.768 167.334 167.767 
168.35 168.712 168.97 168.993 169.036 168.981 169.171 169.177 169.415 
165.996 166.217 166.701 166.868 167.362 167.601 168.112 168.429 168.775 
168.955 169.091 169.149 169.337 169.414 169.68 169.675 169.801 165.923 
166.216 166.732 166.995 167.503 167.702 168.14 168.311 168.63 168.777 
168.998 169.133 169.374 169.52 169.783 169.866 169.999 169.94 169.902 
162.171 163.418 162.614 162.234 164.707 163.914 163.561 162.685 162.286 
165.911 165.19 164.87 164.034 163.628 162.756 162.397 166.959 166.317 
165.995 165.269 164.879 164.075 163.671 162.866 162.504 167.905 167.317 
166.977 166.296 165.89 165.199 164.79 164.067 163.615 162.856 162.361 
168.725 168.232 167.909 167.242 166.77 166.098 165.637 165.021 164.531 
163.849 163.251 162.521 161.926 169.295 168.942 168.62 168.08 167.559 
166.916 166.353 165.747 165.191 164.592 163.97 163.311 162.684 162.029 
161.54 169.606 169.36 169 168.614 168.093 167.579 166.981 166.398 
165.768 165.167 164.524 163.926 163.34 162.757 162.307 161.745 161.434 
169.708 169.55 169.187 168.884 168.389 167.984 167.42 166.931 166.302 
165.722 165.065 164.469 163.914 163.383 162.996 162.502 162.225 161.718 
161.482 166.793 167.594 167.251 167.301 168.243 167.998 168.032 167.678 
167.615 168.638 168.509 168.58 168.349 168.344 167.963 167.863 168.91 
168.821 168.895 168.783 168.841 168.633 168.591 168.202 168.017 169.076 
169.051 169.086 169.019 169.012 168.946 168.884 168.737 168.5 168.17 
167.791 169.13 169.163 169.241 169.189 169.12 169.01 168.856 168.795 
168.564 168.416 168.016 167.721 167.263 169.306 169.28 169.46 169.388 
169.38 169.164 168.976 168.777 168.601 168.45 168.218 167.933 167.558 
167.183 166.781 169.639 169.574 169.766 169.678 169.699 169.473 169.278 
168.997 168.813 168.616 168.502 168.256 168.021 167.608 167.231 166.779 
166.391 169.855 169.871 169.978 169.937 169.875 169.725 169.486 169.265 
169.019 168.848 168.68 168.531 168.31 168.047 167.677 167.275 166.837 
166.406 166.008 
POINT_DATA 1002
SCALARS Distance double
LOOKUP_TABLE default
154.643 155.544 154.848 153.995 154.112 154.059 153.526 153.39 153.599 
153.833 153.246 152.948 153.372 153.511 153.67 153.045 152.847 153.133 
153.166 153.259 153.223 152.71 152.755 152.713 152.636 152.605 152.56 
152.357 152.332 152.602 152.289 152.238 152.064 151.875 151.656 151.53 
152.307 152.658 152.189 152.172 151.977 151.642 151.301 151.11 151.256 
152.655 152.941 152.466 152.302 152.004 151.633 151.287 150.985 150.947 
151.252 153.04 153.255 152.822 152.472 151.938 151.445 151.175 150.937 
150.698 150.716 150.999 156.072 155.34 156.409 155.644 156.506 154.3 
155.794 156.766 154.327 153.148 156.217 157.45 154.511 152.966 152.598 
157.068 158.327 155.306 153.427 152.616 152.78 158.048 159.199 156.555 
154.726 153.43 153.131 153.018 158.951 160.088 157.709 156.253 154.856 
153.997 153.545 153.068 159.798 160.964 158.603 157.421 156.264 155.202 
154.344 153.671 153.175 160.609 161.76 159.403 158.298 157.354 156.443 
155.45 154.507 153.801 153.4 161.803 160.554 161.812 160.598 161.893 
159.365 160.868 162.082 159.619 158.423 161.146 162.135 160.087 158.884 
157.644 161.018 161.813 160.224 159.246 158.034 156.703 160.583 161.355 
159.851 159.034 158.036 156.839 155.561 160.326 161.148 159.518 158.651 
157.705 156.703 155.6 154.556 160.353 161.189 159.511 158.626 157.646 
156.658 155.673 154.703 153.925 160.45 161.26 159.612 158.778 157.882 
156.926 155.971 155.024 154.199 153.628 153.371 153.749 153.287 154.399 
153.697 152.787 155.289 154.391 153.191 151.941 156.229 155.229 153.833 
152.347 151.222 157.159 156.111 154.658 153.051 151.75 150.965 158.078 
157.074 155.713 154.141 152.656 151.575 150.969 158.968 158.082 156.901 
155.493 153.984 152.579 151.575 151.066 159.866 159.093 158.068 156.79 
155.374 153.923 152.641 151.785 151.365 160.745 160.065 159.17 157.985 
156.608 155.226 153.947 152.927 152.272 151.872 153.098 152.712 152.655 
151.857 151.919 151.935 150.954 150.949 151.06 151.201 150.493 150.211 
150.284 150.541 150.86 150.499 149.957 149.71 149.993 150.415 150.733 
150.685 150.182 149.591 149.498 149.892 150.228 150.455 150.93 150.581 
150.017 149.502 149.499 149.727 149.894 150.224 151.272 150.869 150.461 
149.895 149.522 149.515 149.562 149.739 150.298 151.994 151.253 152.019 
151.111 152.104 150.71 151.211 152.577 150.42 150.194 151.884 153.358 
150.5 149.822 149.672 152.754 154.041 151.228 149.95 149.498 149.497 
153.424 154.609 152.144 150.808 149.916 149.63 149.54 154.125 155.274 
152.987 151.894 150.921 150.204 149.76 149.592 154.965 155.975 153.901 
152.907 152.02 151.127 150.323 149.938 150.021 155.727 156.575 154.803 
153.846 152.982 152.14 151.222 150.597 150.575 150.844 152.772 152.988 
153.743 154.057 154.695 153.162 155.171 155.955 154.415 153.445 156.606 
157.548 155.708 154.831 154.003 158.173 158.999 157.174 156.231 155.428 
154.711 159.552 160.336 158.66 157.76 156.971 156.187 155.361 160.979 
161.836 160.108 159.295 158.546 157.733 156.82 155.955 162.512 163.269 
161.621 160.749 159.935 159.064 158.133 157.273 156.549 163.817 164.336 
163.025 162.069 161.126 160.196 159.265 158.442 157.746 157.118 161.737 
161.143 162.139 161.453 162.497 160.357 161.737 162.905 160.557 159.293 
162.055 163.325 160.73 159.361 157.915 162.302 163.641 160.848 159.439 
157.923 156.447 162.481 163.857 160.879 159.439 158.013 156.461 155.101 
162.722 164.026 161.053 159.505 158.12 156.588 155.162 154.005 163.012 
164.183 161.438 159.867 158.469 156.922 155.401 154.265 153.267 162.002 
162.522 162.709 163.232 163.449 162.993 163.967 164.425 163.782 163.472 
164.948 165.66 164.557 164.366 163.984 166.109 166.854 165.435 165.157 
164.947 164.444 167.205 167.864 166.381 165.873 165.779 165.46 164.762 
168.22 168.759 167.387 166.555 166.336 166.292 165.735 164.904 169.069 
169.457 168.409 167.412 166.719 166.654 166.424 165.716 164.95 169.524 
169.823 169.107 168.345 167.372 166.827 166.667 166.276 165.653 165.035 