# vtk DataFile Version 4.0
vtk output
ASCII
DATASET POLYDATA
POINTS 1002 float
-78.3391 -111.968 72.8244 -78.0286 -113.39 72.4012 -78.179 -112.867 71.4606 
-78.4129 -111.275 71.9483 -78.2388 -112.181 70.5373 -78.6274 -110.365 73.2254 
-78.4957 -110.5 71.0967 -78.4676 -111.45 69.7558 -78.7382 -109.537 72.4235 
-79.042 -108.679 73.6632 -79.0159 -109.839 70.3816 -79.1952 -110.85 69.2353 
-79.0707 -108.781 71.7021 -79.4336 -107.898 72.982 -79.6386 -106.972 74.2311 
-80.0063 -109.324 69.9108 -80.1829 -110.28 68.9629 -79.9145 -108.236 71.0953 
-80.1448 -107.316 72.4064 -80.3581 -106.438 73.6626 -80.3063 -105.43 74.8324 
-80.9793 -108.708 69.6379 -81.1063 -109.505 68.7168 -80.9305 -107.704 70.6198 
-81.038 -106.753 71.79 -81.1757 -105.908 73.0728 -81.1236 -104.985 74.253 
-80.9907 -104.039 75.2956 -81.9649 -107.954 69.3963 -82.151 -108.673 68.4499 
-81.846 -106.986 70.2505 -81.8183 -105.971 71.1274 -81.8434 -105.081 72.292 
-81.8181 -104.22 73.5432 -81.7435 -103.345 74.6355 -81.6651 -102.545 75.6143 
-83.2074 -107.32 69.2424 -83.4054 -108.052 68.4063 -82.9362 -106.262 69.9562 
-82.6758 -105.103 70.5756 -82.5193 -104.126 71.5058 -82.459 -103.299 72.7399 
-82.4352 -102.486 73.9118 -82.377 -101.707 74.94 -82.2434 -101.02 75.8833 
-84.4653 -106.806 69.2639 -84.6373 -107.55 68.5793 -84.1439 -105.675 69.7743 
-83.7534 -104.387 70.1921 -83.4541 -103.333 70.9426 -83.3066 -102.557 72.0786 
-83.25 -101.837 73.2308 -83.1749 -101.083 74.2795 -83.0064 -100.365 75.2656 
-82.776 -99.7461 76.1416 -85.5205 -106.211 69.2941 -85.7028 -106.961 68.6957 
-85.1931 -105.089 69.659 -84.803 -103.792 69.9163 -84.4925 -102.713 70.5398 
-84.303 -101.964 71.6029 -84.1788 -101.329 72.6736 -84.0513 -100.638 73.6363 
-83.8648 -99.9279 74.6282 -83.6208 -99.2912 75.5664 -83.3771 -98.7689 76.352 
-77.7421 -114.322 71.3509 -77.8856 -113.759 70.2673 -77.3178 -115 70.3219 
-77.3023 -114.286 69.1116 -76.775 -115.555 69.459 -77.8989 -112.969 69.2957 
-76.5687 -114.757 68.0303 -76.4202 -116.458 68.608 -77.1432 -113.378 68.0492 
-78.1881 -112.194 68.598 -76.3741 -115.786 67.0136 -76.6456 -117.704 67.8043 
-76.4669 -113.962 66.7908 -77.5841 -112.728 67.3966 -79.1104 -111.643 68.265 
-77.0944 -117.105 66.5297 -77.4488 -118.67 67.473 -76.8105 -115.147 65.9593 
-77.4612 -113.583 66.3076 -79.0145 -112.401 67.2973 -80.3182 -111.021 68.106 
-78.3119 -118.002 66.7984 -78.579 -119.178 67.6461 -78.0748 -116.313 66.1304 
-78.3649 -114.698 65.9868 -79.5022 -113.365 66.5987 -80.6918 -111.796 67.3373 
-81.4431 -110.077 67.8272 -79.6191 -118.497 67.2979 -79.8449 -119.512 67.9992 
-79.4848 -117.035 66.7994 -79.6499 -115.522 66.4413 -80.4039 -114.257 66.439 
-81.3474 -112.697 66.817 -81.9846 -110.751 67.1675 -82.598 -109.146 67.6156 
-80.8977 -118.828 67.715 -81.0781 -119.734 68.3984 -80.7945 -117.576 67.2331 
-80.8418 -116.151 66.8512 -81.2706 -114.901 66.4831 -82.0008 -113.519 66.4289 
-82.6089 -111.622 66.7015 -83.1375 -109.758 67.0872 -83.8629 -108.487 67.7268 
-82.0769 -118.986 68.0995 -82.1806 -119.804 68.7815 -82.0445 -118.007 67.4672 
-82.061 -116.812 66.9648 -82.2524 -115.534 66.4623 -82.7424 -114.174 66.1034 
-83.3205 -112.496 66.222 -83.8164 -110.613 66.6767 -84.3976 -109.035 67.2399 
-85.1001 -107.922 67.9508 -83.2089 -119.261 68.6818 -83.2612 -118.439 67.9042 
-84.432 -118.674 68.4451 -84.6772 -117.938 67.5501 -85.7631 -118.08 68.1914 
-83.3858 -117.548 67.153 -86.1491 -117.327 67.2945 -86.9664 -117.272 68.1804 
-84.9847 -117.052 66.7832 -83.5442 -116.36 66.539 -87.361 -116.294 67.4552 
-87.9786 -116.133 68.4671 -86.5346 -116.128 66.7119 -85.2789 -115.536 66.2714 
-83.8569 -114.815 66.0274 -88.3415 -114.887 67.995 -89.0002 -114.84 68.8564 
-87.6824 -114.739 67.0971 -86.7741 -114.238 66.4281 -85.5872 -113.64 65.9836 
-84.3335 -113.098 65.8994 -89.4215 -113.353 68.5357 -90.1251 -113.523 69.1525 
-88.7169 -113.183 67.7286 -87.8613 -112.878 66.9437 -86.9091 -112.428 66.3905 
-85.8898 -111.916 66.1625 -84.7895 -111.294 66.3251 -90.6424 -111.895 68.8131 
-91.3007 -112.267 69.3117 -90.0153 -111.626 68.1986 -89.1778 -111.498 67.543 
-88.0978 -111.286 67.0474 -87.1078 -110.82 66.7597 -86.2073 -110.166 66.7247 
-85.2575 -109.515 66.9447 -91.8492 -110.722 68.9633 -92.5039 -111.209 69.422 
-91.3296 -110.304 68.4184 -90.7861 -110.085 67.8745 -89.794 -109.883 67.5487 
-88.5146 -109.441 67.3871 -87.4724 -108.833 67.2375 -86.6491 -108.321 67.2721 
-85.8448 -108.038 67.5731 -92.9827 -109.816 69.1788 -93.6479 -110.346 69.5525 
-92.4187 -109.308 68.6713 -92.0793 -108.893 68.0458 -91.5312 -108.445 67.6248 
-90.3497 -107.828 67.5745 -88.969 -107.212 67.5852 -87.9426 -106.86 67.563 
-87.1659 -106.799 67.7849 -86.417 -106.885 68.2471 -86.5789 -105.755 69.0122 
-87.4211 -105.616 68.5027 -87.4468 -104.28 69.1186 -88.2694 -105.42 68.0094 
-88.442 -104.246 68.6866 -88.3931 -102.779 69.2093 -89.25 -105.308 67.7155 
-89.4322 -104.092 68.2002 -89.473 -102.868 68.9032 -89.363 -101.315 69.4207 
-90.6331 -105.583 67.4839 -90.6493 -103.918 67.6762 -90.5666 -102.751 68.4034 
-90.4612 -101.319 69.127 -90.292 -99.8296 69.6441 -92.0449 -106.355 67.3456 
-92.116 -104.22 67.2592 -91.8916 -102.66 67.8492 -91.6536 -101.242 68.7279 
-91.4578 -99.6786 69.2937 -91.2107 -98.4618 69.8731 -92.7679 -107.228 67.7347 
-93.1604 -105.094 67.477 -93.1883 -103.11 67.7507 -93.011 -101.48 68.5421 
-92.7829 -99.7861 69.1127 -92.497 -98.2933 69.5271 -92.1066 -97.4184 70.3321 
-93.0564 -107.896 68.5399 -93.5996 -106.017 68.3643 -93.9771 -103.952 68.3521 
-94.1568 -102.162 68.7791 -94.1496 -100.379 69.2326 -93.9333 -98.5577 69.469 
-93.5059 -97.3263 70.051 -92.97 -96.7178 71.0711 -93.5656 -108.482 69.1832 
-94.0644 -106.774 69.1789 -94.5002 -104.794 69.1117 -94.8786 -102.958 69.218 
-95.1673 -101.19 69.4998 -95.2421 -99.2319 69.6667 -94.9568 -97.6075 70.0068 
-94.4017 -96.7363 70.8671 -93.8081 -96.2116 71.8719 -94.2652 -109.103 69.5373 
-94.7337 -107.521 69.5836 -95.0966 -105.655 69.5835 -95.4298 -103.82 69.6205 
-95.7716 -102.053 69.8275 -96.0689 -100.093 70.0331 -96.0938 -98.2342 70.2453 
-95.7107 -97.0346 70.8339 -95.1179 -96.3699 71.7596 -94.5534 -95.7596 72.5746 
-86.27 -104.693 69.4444 -87.0869 -102.969 69.4121 -85.8676 -103.365 69.6411 
-88.069 -101.385 69.5604 -86.7185 -101.681 69.7458 -85.5416 -102.191 70.1018 
-89.0776 -99.9921 69.9502 -87.7341 -100.266 70.2211 -86.4533 -100.765 70.6236 
-85.333 -101.376 71.1373 -90.0236 -98.7075 70.3708 -88.7323 -99.0197 70.8376 
-87.4164 -99.4527 71.2749 -86.2021 -100.029 71.7616 -85.1414 -100.702 72.2414 
-90.9012 -97.593 70.8625 -89.6447 -97.8474 71.4076 -88.3532 -98.1847 71.8595 
-87.0585 -98.6139 72.2496 -85.8895 -99.2105 72.664 -84.9224 -99.9718 73.1426 
-91.7252 -96.7111 71.522 -90.4476 -96.7572 71.9697 -89.2012 -96.9543 72.4047 
-87.9377 -97.2943 72.8009 -86.6516 -97.702 73.1531 -85.5582 -98.3723 73.587 
-84.6832 -99.2312 74.1283 -92.5954 -95.9876 72.2002 -91.2575 -95.7635 72.476 
-89.949 -95.7386 72.8373 -88.7285 -96.038 73.3282 -87.4506 -96.4149 73.7704 
-86.2159 -96.8778 74.1532 -85.2495 -97.6891 74.6369 -84.4313 -98.6006 75.1588 
-93.5006 -95.3399 72.775 -92.1978 -94.9124 72.9087 -90.7753 -94.6766 73.1733 
-89.455 -94.8527 73.6946 -88.1847 -95.2659 74.2524 -86.8857 -95.6655 74.652 
-85.8044 -96.2908 75.0531 -84.9899 -97.2355 75.5586 -84.1945 -98.1183 76.022 
-94.6356 -94.9575 73.3412 -93.5249 -94.3801 73.4133 -94.6123 -94.1996 74.2206 
-93.372 -93.7405 74.4089 -94.3565 -93.9652 75.5827 -92.0467 -93.9698 73.5994 
-92.9646 -93.7421 76.0736 -93.9438 -94.0884 77.3619 -91.7144 -93.6002 74.903 
-90.4536 -93.946 74.102 -92.4562 -93.871 77.9651 -93.496 -94.0784 79.0649 
-91.2035 -93.7377 76.7543 -89.9868 -93.7518 75.588 -88.9716 -94.2785 74.7431 
-91.9265 -93.919 79.5803 -92.9165 -94.2305 80.531 -90.6453 -93.8437 78.516 
-89.3743 -93.7747 77.3366 -88.3087 -93.9592 76.0973 -87.5021 -94.6603 75.1883 
-91.3235 -94.3843 80.9903 -92.2291 -94.8033 81.8798 -90.1049 -94.1347 79.9776 
-88.7551 -93.8777 78.983 -87.5707 -93.8042 77.7551 -86.7397 -94.2622 76.4215 
-86.2161 -95.1843 75.538 -90.7435 -95.1135 82.221 -91.6349 -95.4169 82.9965 
-89.6259 -94.8402 81.276 -88.313 -94.4067 80.4113 -87.0408 -94.0636 79.4859 
-86.144 -94.2715 78.1598 -85.6696 -95.0643 76.8274 -85.3434 -96.1246 76.0244 
-90.235 -95.7633 83.1343 -91.1135 -96.0617 83.7491 -89.2022 -95.5331 82.3823 
-88.0427 -95.1714 81.6139 -86.8403 -94.8059 80.8706 -85.8624 -94.819 79.8836 
-85.3019 -95.3563 78.5337 -84.9579 -96.2148 77.3078 -84.5809 -97.1665 76.5437 
-89.7244 -96.5439 83.7952 -90.5503 -96.9989 84.2398 -88.7504 -96.1709 83.2871 
-87.7439 -95.8375 82.6713 -86.7389 -95.622 81.9344 -85.7728 -95.6463 81.113 
-85.0273 -95.9448 80.073 -84.5388 -96.4748 78.8124 -84.1152 -97.1646 77.7001 
-83.6973 -97.9468 76.9326 -95.4949 -95.8141 72.8873 -95.5138 -95.0701 73.8881 
-96.3153 -96.0827 73.412 -96.2502 -95.4766 74.7255 -97.0444 -96.6222 74.251 
-95.3784 -94.5209 75.109 -96.9351 -96.2036 75.8276 -97.5568 -97.4569 75.3305 
-95.9853 -95.1719 76.2605 -95.0498 -94.4876 76.7325 -97.3427 -97.2653 76.9371 
-97.5943 -98.6434 76.4075 -96.5584 -96.0959 77.4452 -95.5983 -95.2161 77.9614 
-94.6726 -94.5684 78.4933 -97.2549 -98.7173 77.816 -97.365 -100.185 77.3218 
-96.9058 -97.3389 78.385 -96.1319 -96.1416 79.0358 -95.2141 -95.292 79.5443 
-94.2009 -94.6231 80.0217 -97.0799 -100.416 78.5509 -97.3438 -101.856 78.0878 
-96.9439 -98.9471 79.1192 -96.5397 -97.4278 79.8829 -95.663 -96.3312 80.4555 
-94.6228 -95.651 80.8338 -93.4988 -95.0614 81.3829 -97.148 -102.027 79.2986 
-97.4488 -103.362 78.7365 -96.9529 -100.652 79.8896 -96.7075 -99.0621 80.6127 
-95.9666 -97.6831 81.2288 -94.8988 -96.9199 81.5572 -93.8724 -96.2816 82.0342 
-92.8094 -95.6339 82.6796 -97.2009 -103.417 79.976 -97.355 -104.638 79.2628 
-96.9818 -102.178 80.6571 -96.6821 -100.749 81.2524 -96.0238 -99.2502 81.79 
-95.0555 -98.2187 82.183 -94.1607 -97.5339 82.6085 -93.298 -96.739 83.2489 
-92.2631 -96.1386 83.7148 -97.0444 -104.688 80.4524 -97.0788 -105.796 79.6811 
-96.8626 -103.553 81.1945 -96.5014 -102.319 81.6967 -95.8769 -100.916 82.0982 
[...]
CELL_DATA 2000
SCALARS Distance double
LOOKUP_TABLE default
154.05 153.212 153.532 153.281 152.352 152.637 152.379 152.703 152.461 
151.815 151.895 151.657 151.856 151.694 151.975 151.814 151.685 151.592 
151.376 151.361 151.275 151.409 151.393 151.517 151.393 151.601 151.545 
151.315 151.24 151.105 151.155 151.144 151.248 151.176 151.197 151.022 
151.448 151.427 151.196 151.139 150.875 150.915 150.728 150.906 150.739 
150.904 150.67 150.767 150.532 151.522 151.387 151.19 151.019 150.662 
150.573 150.226 150.34 150.096 150.316 150.091 150.28 150.04 150.194 
149.968 151.842 151.626 151.412 151.111 150.674 150.396 149.968 149.887 
149.655 149.75 149.639 149.759 149.64 149.731 149.583 149.665 149.502 
152.115 151.935 151.63 151.323 150.79 150.442 149.945 149.749 149.52 
149.507 149.463 149.5 149.458 149.478 149.394 149.408 149.307 149.319 
149.217 154.294 154.237 154.032 153.469 153.954 153.817 153.26 153.117 
152.575 153.746 153.427 152.74 152.71 152.268 152.277 151.973 154.094 
153.377 152.496 152.177 151.751 151.873 151.814 151.906 151.841 155.035 
154.066 153.186 152.333 151.862 151.6 151.72 151.813 151.972 151.908 
151.809 156.168 155.241 154.561 153.475 153.008 152.249 152.355 152.089 
152.357 152.147 152.087 151.812 151.626 157.266 156.46 155.954 154.982 
154.538 153.65 153.581 153.044 153.187 152.765 152.647 152.178 151.921 
151.643 151.6 158.289 157.577 157.145 156.329 155.889 155.071 154.804 
154.202 154.115 153.636 153.42 152.852 152.502 152.039 151.921 151.759 
151.897 159.163 158.55 158.153 157.46 157.053 156.299 155.937 155.26 
155 154.457 154.194 153.636 153.293 152.727 152.51 152.166 152.218 
152.11 152.236 159.45 159.552 159.172 158.489 159.713 159.322 158.679 
158.226 157.483 159.859 159.525 158.938 158.483 157.754 157.207 156.415 
159.815 159.608 159.047 158.71 157.974 157.472 156.619 156.108 155.37 
159.614 159.464 158.881 158.67 157.923 157.563 156.687 156.244 155.429 
155.065 154.433 159.398 159.226 158.619 158.424 157.707 157.417 156.622 
156.252 155.494 155.115 154.454 154.135 153.554 159.214 159.004 158.4 
158.187 157.562 157.277 156.615 156.25 155.595 155.209 154.589 154.212 
153.635 153.296 152.819 159.143 158.859 158.28 158.031 157.502 157.246 
156.704 156.358 155.728 155.33 154.663 154.306 153.706 153.411 152.966 
152.712 152.455 159.226 158.88 158.317 158.001 157.492 157.242 156.738 
156.455 155.806 155.424 154.652 154.289 153.606 153.379 152.928 152.808 
152.573 152.473 152.362 152.293 152.446 152.276 152.003 152.671 152.424 
152.216 151.964 151.611 153.2 152.716 152.464 152.21 151.997 151.651 
151.282 154.184 153.414 153.003 152.535 152.316 152.032 151.751 151.348 
150.947 155.4 154.55 154.03 153.251 152.895 152.427 152.185 151.794 
151.425 150.982 150.62 156.446 155.758 155.295 154.417 153.974 153.23 
152.988 152.411 152.146 151.551 151.199 150.71 150.511 157.292 156.75 
156.44 155.673 155.267 154.445 154.184 153.471 153.284 152.536 152.228 
151.485 151.245 150.76 150.757 158.169 157.652 157.472 156.802 156.474 
155.705 155.407 154.707 154.511 153.801 153.519 152.694 152.381 151.675 
151.597 151.164 151.273 159.102 158.607 158.488 157.87 157.595 156.87 
156.551 155.857 155.617 154.971 154.713 153.971 153.64 152.875 152.683 
152.111 152.154 151.749 151.842 152.126 151.715 151.821 151.506 151.171 
151.236 150.807 150.971 150.561 150.776 150.705 150.217 150.255 149.891 
150.033 149.765 150.507 150.402 149.974 149.861 149.575 149.568 149.452 
149.507 149.458 150.287 150.209 149.909 149.778 149.542 149.452 149.347 
149.354 149.347 149.396 149.414 150.244 150.11 149.904 149.779 149.57 
149.463 149.272 149.245 149.12 149.214 149.181 149.331 149.338 150.492 
150.228 150.009 149.819 149.587 149.463 149.23 149.146 148.918 148.919 
148.795 148.962 148.977 149.202 149.238 150.954 150.58 150.252 149.946 
149.592 149.424 149.147 149.078 148.84 148.765 148.562 148.592 148.565 
148.783 148.88 149.11 149.164 151.454 151.041 150.604 150.189 149.701 
149.41 149.054 148.959 148.741 148.691 148.47 148.415 148.284 148.403 
148.481 148.74 148.867 149.061 149.102 151.595 151.455 151.231 150.652 
151.555 151.117 150.442 150.202 149.666 152.105 151.428 150.701 150.154 
149.554 149.305 148.984 152.778 152.097 151.369 150.65 149.971 149.421 
148.987 148.798 148.65 153.32 152.714 152.001 151.337 150.595 149.948 
149.308 148.896 148.529 148.472 148.341 153.921 153.281 152.608 151.934 
151.196 150.521 149.778 149.212 148.642 148.371 148.128 148.156 148.152 
154.593 153.968 153.359 152.639 151.954 151.184 150.488 149.755 149.189 
148.641 148.379 148.137 148.198 148.185 148.395 155.158 154.621 154.064 
153.427 152.809 152.056 151.441 150.643 150.166 149.445 149.217 148.7 
148.739 148.479 148.675 148.603 148.817 155.673 155.161 154.647 154.086 
153.542 152.901 152.37 151.663 151.242 150.544 150.299 149.694 149.607 
149.169 149.188 148.953 149.027 148.962 149.054 152.123 152.98 152.388 
152.085 154.055 153.36 153.116 152.434 152.243 155.371 154.595 154.402 
153.619 153.496 152.803 152.793 156.73 155.997 155.855 155.036 154.909 
154.154 154.133 153.465 153.458 158.002 157.33 157.242 156.5 156.368 
155.597 155.51 154.802 154.746 154.07 153.995 159.332 158.614 158.565 
157.866 157.797 157.042 156.931 156.17 156.07 155.354 155.277 154.595 
154.559 160.721 159.996 159.96 159.247 159.232 158.482 158.379 157.583 
157.433 156.681 156.583 155.895 155.851 155.198 155.185 161.918 161.329 
161.3 160.656 160.619 159.908 159.751 158.971 158.734 157.992 157.838 
157.181 157.121 156.479 156.428 155.787 155.732 162.833 162.398 162.387 
161.877 161.792 161.178 160.937 160.219 159.898 159.192 158.993 158.382 
158.33 157.727 157.68 157.023 156.941 156.29 156.228 159.607 160.135 
159.596 158.973 160.581 160.044 159.34 158.808 158.05 160.987 160.433 
159.692 159.135 158.356 157.802 157.029 161.375 160.814 160.092 159.524 
158.801 158.189 157.427 156.821 156.103 161.815 161.215 160.496 159.935 
159.249 158.683 157.926 157.282 156.459 155.887 155.144 162.36 161.736 
161 160.36 159.606 159.056 158.267 157.703 156.806 156.206 155.326 
154.835 154.073 162.779 162.289 161.585 160.919 160.081 159.407 158.555 
157.965 157.105 156.51 155.65 155.065 154.311 153.81 153.184 162.906 
162.591 161.949 161.433 160.596 159.909 159.018 158.337 157.537 156.895 
156.153 155.503 154.814 154.207 153.632 153.11 152.652 162.936 162.659 
162.075 161.68 160.914 160.346 159.488 158.847 158.079 157.451 156.774 
156.118 155.448 154.794 154.177 153.622 153.12 152.672 152.267 160.029 
160.798 160.499 160.616 161.517 161.245 161.43 161.099 161.156 162.297 
161.959 162.149 161.892 162.068 161.663 161.641 163.246 162.793 162.89 
162.584 162.781 162.522 162.635 162.159 162.066 164.286 163.79 163.797 
163.349 163.438 163.176 163.371 163.089 163.156 162.61 162.52 165.281 
164.82 164.817 164.289 164.274 163.869 164.052 163.816 164.061 163.684 
163.727 163.11 163.029 166.205 165.792 165.821 165.307 165.252 164.747 
164.832 164.542 164.831 164.586 164.745 164.264 164.161 163.544 163.364 
167.042 166.688 166.746 166.292 166.228 165.701 165.635 165.271 165.403 
165.253 165.412 165.15 165.045 164.538 164.254 163.698 163.428 167.727 
167.455 167.514 167.159 167.096 166.619 166.441 165.983 165.873 165.656 
165.681 165.587 165.523 165.244 164.982 164.499 164.191 163.677 163.432 
168.061 168.329 168.111 167.835 168.296 168.232 167.972 167.794 167.41 
168.095 168.082 167.856 167.811 167.472 167.249 166.757 167.961 167.895 
167.701 167.675 167.419 167.26 166.808 166.527 166.101 167.869 167.796 
167.571 167.542 167.312 167.214 166.81 166.562 166.128 165.948 165.746 
167.589 167.624 167.314 167.333 167.033 167.041 166.666 166.533 166.106 
165.95 165.694 165.669 165.541 166.97 167.173 166.837 166.943 166.604 
166.675 166.341 166.324 165.973 165.889 165.621 165.582 165.389 165.372 
165.092 166.071 166.397 166.12 166.358 166.108 166.248 166.02 166.043 
165.785 165.732 165.487 165.459 165.238 165.207 164.897 164.799 164.38 
165.159 165.47 165.265 165.589 165.46 165.742 165.648 165.787 165.603 
165.579 165.294 165.254 164.967 164.978 164.662 164.612 164.203 164.07 
163.636 164.671 164.125 164.482 164.765 163.756 164.005 164.25 164.654 
165.025 163.315 163.614 163.769 164.157 164.512 164.976 165.318 162.434 
162.966 163.038 163.543 163.794 164.375 164.707 165.185 165.332 161.129 
161.845 161.956 162.617 162.814 163.487 163.738 164.377 164.51 164.987 
164.973 159.842 160.522 160.743 161.461 161.708 162.4 162.575 163.24 
163.319 163.95 163.98 164.527 164.56 158.773 159.37 159.611 160.303 
160.56 161.247 161.358 161.995 162.006 162.666 162.738 163.421 163.561 
164.153 164.244 157.756 158.346 158.528 159.197 159.387 160.058 160.113 
160.726 160.715 161.36 161.484 162.203 162.444 163.12 163.289 163.821 
163.831 156.732 157.305 157.451 158.085 158.232 158.865 158.917 159.493 
159.518 160.127 160.307 161.02 161.327 162.033 162.256 162.837 162.882 
163.344 163.283 164.548 164.314 164.266 164.033 164.142 164.078 163.811 
163.814 163.657 163.754 163.801 163.412 163.486 163.247 163.416 163.216 
162.969 163.192 162.682 162.855 162.455 162.774 162.511 162.785 162.352 
161.875 162.22 161.726 161.965 161.479 161.796 161.449 161.845 161.415 
161.648 161.016 160.716 161.074 160.657 160.964 160.532 160.807 160.4 
160.725 160.304 160.598 160.053 160.237 159.67 159.655 159.962 159.558 
159.895 159.506 159.835 159.402 159.693 159.214 159.501 159.022 159.278 
158.801 159.009 158.583 158.688 158.955 158.526 158.821 158.398 158.746 
158.297 158.625 158.104 158.403 157.902 158.234 157.808 158.119 157.704 
157.961 157.562 157.79 158.027 157.596 157.828 157.367 157.642 157.184 
157.491 157.005 157.29 156.797 157.11 156.689 157.054 156.664 157.003 
156.592 156.894 156.516 164.912 165.36 164.939 164.622 165.771 165.35 
164.981 164.674 164.431 166.115 165.733 165.273 164.942 164.618 164.413 
164.078 166.199 166.01 165.53 165.175 164.679 164.453 164.046 163.875 
163.329 165.824 165.888 165.49 165.32 164.754 164.467 163.918 163.723 
163.169 162.945 162.241 165.3 165.37 164.986 165.041 164.548 164.43 
163.843 163.618 163.02 162.767 162.108 161.805 161.083 164.988 164.915 
164.453 164.453 163.975 164.015 163.506 163.452 162.875 162.669 162.013 
161.706 161.005 160.685 160.011 164.719 164.65 164.151 164.026 163.488 
163.437 162.954 162.984 162.502 162.446 161.84 161.613 160.904 160.604 
159.907 159.635 159.012 164.272 164.3 163.822 163.741 163.195 163.066 
162.557 162.496 162.05 162.026 161.515 161.385 160.732 160.478 159.777 
159.507 158.865 158.643 158.082 163.811 162.892 163.378 163.361 161.899 
162.409 162.416 162.883 162.797 160.784 161.356 161.353 161.902 161.872 
162.3 162.188 159.449 160.11 160.047 160.718 160.685 161.29 161.224 
161.694 161.617 158.149 158.76 158.715 159.34 159.287 159.961 159.918 
160.577 160.521 161.09 161.012 157.184 157.674 157.77 158.199 158.174 
158.636 158.587 159.196 159.19 159.856 159.801 160.388 160.238 156.417 
156.881 157.032 157.43 157.4 157.713 157.584 157.996 157.962 158.546 
158.544 159.132 159.01 159.528 159.321 155.645 156.099 156.143 156.612 
156.501 156.89 156.664 157.045 156.908 157.412 157.392 157.94 157.85 
158.332 158.14 158.611 158.426 154.864 155.26 155.188 155.617 155.454 
155.869 155.65 156.056 155.903 156.374 156.324 156.838 156.757 157.221 
157.043 157.479 157.301 157.777 157.656 154.393 153.644 154.239 154.638 
152.846 153.45 153.858 154.451 154.838 152.096 152.642 153.065 153.676 
154.091 154.659 155.056 151.462 151.868 152.184 152.835 153.309 153.953 
154.408 154.943 155.383 151.01 151.253 151.362 151.886 152.269 153.041 
153.542 154.266 154.733 155.317 155.786 150.616 150.839 150.879 151.158 
151.343 151.93 152.343 153.184 153.679 154.505 154.977 155.675 156.132 
150.094 150.404 150.515 150.767 150.901 151.198 151.483 152.042 152.538 
153.334 153.904 154.721 155.24 155.953 156.399 149.554 149.843 149.968 
150.33 150.538 150.857 151.143 151.473 151.927 152.434 153.064 153.738 
154.387 155.073 155.627 156.242 156.707 149.215 149.368 149.439 149.75 
149.977 150.403 150.754 151.174 151.614 152.037 152.6 153.12 153.77 
154.363 154.984 155.562 156.1 156.63 157.104 157.183 156.168 156.777 
156.954 155.05 155.697 155.84 156.489 156.67 153.857 154.517 154.629 
155.306 155.47 156.186 156.425 152.695 153.302 153.377 154.045 154.201 
154.949 155.206 155.965 156.239 151.634 152.153 152.162 152.78 152.916 
153.669 153.965 154.754 155.063 155.788 156.062 150.649 151.09 151.037 
151.592 151.705 152.412 152.726 153.526 153.882 154.629 154.922 155.629 
155.942 149.819 150.14 150.095 150.551 150.698 151.298 151.618 152.34 
152.708 153.45 153.756 154.48 154.783 155.538 155.894 149.316 149.469 
149.472 149.777 149.962 150.427 150.733 151.324 151.66 152.322 152.633 
153.325 153.638 154.372 154.73 155.496 155.856 149.125 149.155 149.149 
149.313 149.426 149.77 149.969 150.468 150.71 151.311 151.597 152.258 
152.61 153.298 153.699 154.397 154.8 155.493 155.851 159.664 158.793 
159.555 160.211 157.783 158.598 159.275 160.126 160.871 156.77 157.579 
158.256 159.136 159.946 160.83 161.583 155.83 156.639 157.341 158.148 
158.94 159.857 160.681 161.522 162.204 155.027 155.795 156.583 157.32 
158.08 158.893 159.688 160.559 161.313 162.117 162.791 154.57 155.134 
155.924 156.605 157.379 158.117 158.895 159.653 160.406 161.195 161.93 
162.723 163.372 154.553 154.851 155.484 155.992 156.696 157.402 158.19 
158.945 159.706 160.409 161.105 161.838 162.481 163.224 163.705 154.728 
154.907 155.396 155.675 156.229 156.74 157.438 158.182 158.95 159.719 
160.391 161.074 161.637 162.311 162.792 163.444 163.794 154.786 155.015 
155.478 155.68 156.165 156.434 156.99 157.482 158.151 158.875 159.561 
160.308 160.869 161.514 161.972 162.575 162.985 163.552 163.893 160.276 
160.912 160.868 161.429 161.611 161.567 162.192 162.099 162.65 162.272 
162.259 162.887 162.865 163.474 163.354 163.832 162.844 162.851 163.428 
163.477 164.13 164.15 164.722 164.525 164.902 163.467 163.432 164.005 
163.994 164.672 164.759 165.466 165.408 165.89 165.58 165.879 164.065 
164.091 164.704 164.653 165.354 165.385 166.191 166.185 166.794 166.557 
166.879 166.511 166.719 164.329 164.541 165.125 165.262 165.94 166.082 
166.894 166.971 167.631 167.46 167.779 167.434 167.573 167.224 167.314 
164.339 164.613 165.13 165.431 166.047 166.418 167.167 167.5 168.128 
168.181 168.463 168.232 168.296 167.981 168.014 167.695 167.709 164.39 
164.594 165.077 165.34 165.903 166.309 166.992 167.479 168.067 168.383 
168.656 168.683 168.725 168.569 168.57 168.33 168.331 168.029 168.007 
160.121 161.218 160.501 160.209 162.404 161.641 161.312 160.597 160.331 
163.539 162.815 162.481 161.742 161.409 160.713 160.429 164.537 163.868 
163.527 162.866 162.52 161.802 161.398 160.72 160.357 165.484 164.821 
164.445 163.821 163.478 162.839 162.404 161.681 161.197 160.55 160.158 
166.352 165.75 165.341 164.7 164.294 163.697 163.267 162.615 162.104 
161.41 160.946 160.341 159.969 166.973 166.518 166.1 165.526 165.039 
164.448 163.972 163.389 162.894 162.262 161.771 161.149 160.742 160.166 
159.805 167.371 167.017 166.617 166.156 165.667 165.125 164.623 164.062 
163.573 162.989 162.502 161.916 161.49 160.938 160.591 160.035 159.727 
167.683 167.368 166.998 166.601 166.161 165.688 165.221 164.698 164.223 
163.659 163.178 162.604 162.176 161.648 161.327 160.823 160.566 160.026 
159.789 165.303 166.231 165.774 165.804 167.157 166.743 166.742 166.259 
166.236 167.791 167.561 167.535 167.129 167.01 166.6 166.518 168.084 
168.041 168.043 167.767 167.565 167.214 166.995 166.708 166.494 168.209 
168.259 168.369 168.197 168.034 167.678 167.391 167.057 166.754 166.477 
166.116 168.362 168.409 168.609 168.519 168.467 168.155 167.92 167.511 
167.222 166.797 166.456 166.052 165.69 168.537 168.589 168.785 168.757 
168.758 168.558 168.394 168.068 167.833 167.396 167.066 166.551 166.181 
165.723 165.406 168.524 168.667 168.802 168.868 168.878 168.796 168.691 
168.489 168.312 167.983 167.651 167.171 166.697 166.222 165.791 165.432 
165.082 168.228 168.473 168.553 168.739 168.758 168.831 168.798 168.739 
168.639 168.415 168.115 167.68 167.145 166.642 166.082 165.706 165.265 
164.999 164.608 
POINT_DATA 1002
SCALARS Distance double
LOOKUP_TABLE default
153.847 154.525 153.783 152.972 152.888 153.029 152.058 152.115 152.112 
152.249 151.518 151.818 151.404 151.572 151.629 151.448 151.797 151.171 
151.259 151.357 151.199 151.396 151.616 151.109 151.043 151.137 151.041 
150.832 151.277 151.46 150.921 150.602 150.547 150.541 150.435 150.335 
151.433 151.68 150.868 150.205 149.88 149.868 149.871 149.819 149.756 
151.773 152.081 151.039 150.123 149.583 149.51 149.546 149.51 149.427 
149.329 151.958 152.313 151.165 150.171 149.549 149.435 149.45 149.383 
149.294 149.205 149.122 154.578 153.741 154.397 153.316 154.151 152.728 
152.818 154.273 152.089 151.992 153.046 154.969 151.629 151.543 151.914 
154.188 155.951 152.327 151.637 151.991 152.02 155.586 156.969 153.912 
152.789 152.648 152.44 151.809 156.828 158.004 155.452 154.254 153.705 
153.216 152.293 151.667 157.902 158.963 156.709 155.511 154.651 153.995 
153.055 152.165 151.936 158.787 159.741 157.773 156.681 155.623 154.73 
153.865 152.968 152.404 152.318 159.823 158.91 159.926 159.133 160.085 
157.998 159.362 160.135 158.322 156.946 159.333 159.981 158.451 157.155 
155.761 159.083 159.781 158.234 157.091 155.822 154.712 158.82 159.599 
157.96 156.932 155.847 154.82 153.838 158.599 159.449 157.79 156.945 
155.975 154.967 153.985 153.091 158.536 159.449 157.711 157.012 156.163 
155.055 153.974 153.166 152.648 158.659 159.573 157.762 157.008 156.199 
155.065 153.847 153.006 152.619 152.46 152.11 152.264 151.639 152.396 
151.994 151.207 152.756 152.247 151.758 150.887 153.649 152.611 152.098 
151.405 150.555 154.946 153.502 152.579 151.885 150.994 150.316 156.136 
154.81 153.615 152.777 151.783 150.827 150.396 157.11 156.08 154.916 
154.026 153.056 151.85 151.062 150.819 158.089 157.223 156.126 155.184 
154.327 153.18 152.118 151.616 151.388 159.078 158.302 157.266 156.266 
155.406 154.411 153.332 152.603 152.245 151.897 151.4 150.674 150.353 
150.241 149.744 149.581 150.084 149.604 149.385 149.398 149.995 149.653 
149.375 149.288 149.362 150.026 149.696 149.368 149.08 148.999 149.187 
150.268 149.739 149.331 148.998 148.685 148.708 149.044 150.659 149.836 
149.207 148.91 148.618 148.39 148.604 148.999 151.08 150.078 149.194 
148.767 148.552 148.245 148.222 148.623 148.984 151.813 150.803 151.754 
150.797 152.119 149.731 151.372 152.828 149.941 148.996 152.097 153.414 
150.645 149.335 148.636 152.637 153.913 151.276 149.872 148.725 148.233 
153.298 154.558 151.894 150.423 149.046 148.162 147.994 154.052 155.172 
152.731 151.243 149.805 148.723 148.262 148.343 154.642 155.664 153.501 
152.199 150.886 149.813 149.123 148.839 148.847 155.182 156.177 154.12 
153.008 151.907 150.936 150.152 149.551 149.179 149.058 152.663 152.69 
153.589 153.803 154.778 152.859 155.21 156.13 154.199 153.436 156.656 
157.409 155.703 154.831 154.137 157.931 158.674 157.145 156.262 155.441 
154.663 159.244 160.084 158.526 157.725 156.811 155.961 155.211 160.665 
161.417 159.975 159.2 158.216 157.275 156.518 155.829 161.909 162.431 
161.331 160.554 159.502 158.488 157.755 157.093 156.364 162.859 163.214 
162.396 161.654 160.606 159.589 158.904 158.335 157.616 156.847 160.171 
159.542 160.696 159.897 161.153 158.585 160.256 161.558 158.929 157.559 
160.633 161.94 159.393 158.086 156.643 161.076 162.435 159.783 158.575 
157.122 155.619 161.704 162.947 160.225 158.815 157.418 155.883 154.482 
162.224 163.172 160.835 159.189 157.669 156.236 154.837 153.62 162.382 
163.169 161.247 159.712 158.162 156.79 155.441 154.168 153.111 160.347 
160.983 161.068 161.689 161.799 161.623 162.396 162.701 162.368 162.218 
163.288 163.753 162.993 162.987 162.705 164.334 164.774 163.773 163.554 
163.581 163.189 165.357 165.716 164.767 164.288 164.321 164.288 163.711 
166.307 166.596 165.804 165.192 165.024 165.155 164.799 163.979 167.165 
167.368 166.772 166.115 165.604 165.586 165.5 164.841 163.947 167.837 
167.979 167.546 166.976 166.238 165.783 165.68 165.396 164.712 163.918 