# vtk DataFile Version 4.0
vtk output
ASCII
DATASET POLYDATA
POINTS 1002 float
-78.562 -114.269 73.9153 -78.1995 -115.345 73.4874 -78.4021 -114.677 72.6127 
-78.8919 -113.599 73.1207 -78.7644 -114.06 71.7936 -79.0327 -112.994 74.4939 
-79.2942 -113.038 72.467 -79.2689 -113.588 71.1437 -79.4484 -112.428 73.8762 
-79.6136 -111.786 75.2557 -79.9029 -112.568 71.96 -80.0193 -113.165 70.6605 
-79.9933 -111.963 73.3809 -80.2134 -111.364 74.7594 -80.439 -110.811 76.0987 
-80.8163 -112.053 71.5887 -80.9507 -112.671 70.376 -80.8337 -111.455 72.9656 
-80.9752 -110.859 74.2845 -81.1693 -110.284 75.5832 -81.3135 -109.713 76.8776 
-81.82 -111.515 71.4528 -81.9501 -112.163 70.378 -81.8313 -110.868 72.6778 
-81.8679 -110.2 73.8837 -81.8906 -109.509 75.0964 -81.9163 -108.863 76.3644 
-81.9006 -108.212 77.5493 -82.8735 -111.058 71.5362 -83.0869 -111.725 70.5966 
-82.7649 -110.304 72.5302 -82.7288 -109.539 73.5956 -82.6567 -108.742 74.7523 
-82.5519 -108.003 75.9808 -82.4482 -107.332 77.1219 -82.3637 -106.714 78.1408 
-84.0213 -110.608 71.6661 -84.2505 -111.282 70.8562 -83.7476 -109.732 72.4278 
-83.5751 -108.871 73.317 -83.5216 -108.111 74.4506 -83.4521 -107.405 75.6926 
-83.3 -106.738 76.8032 -83.1095 -106.1 77.7522 -82.9816 -105.586 78.6891 
-85.0367 -110.018 71.7316 -85.2008 -110.711 71.041 -84.7509 -109.074 72.3459 
-84.4894 -108.124 73.0686 -84.4139 -107.421 74.1091 -84.4294 -106.859 75.343 
-84.3479 -106.271 76.4577 -84.1185 -105.641 77.3808 -83.8498 -105.074 78.2695 
-83.6631 -104.681 79.1935 -85.8215 -109.3 71.7192 -85.9481 -110.02 71.1267 
-85.6103 -108.366 72.2834 -85.3814 -107.405 72.9341 -85.2656 -106.7 73.8447 
-85.2333 -106.184 74.9615 -85.1611 -105.636 76.0343 -84.9925 -105.039 76.959 
-84.7262 -104.478 77.8385 -84.4409 -104.046 78.7382 -84.2191 -103.777 79.6032 
-78.0192 -115.859 72.5585 -78.1914 -115.184 71.5576 -77.9171 -116.423 71.5109 
-78.0531 -115.815 70.2783 -77.8721 -117.276 70.1531 -78.6154 -114.616 70.6443 
-78.0089 -116.763 68.713 -77.9215 -118.425 68.6928 -78.5298 -115.288 69.3343 
-79.2928 -114.193 70.0112 -78.2078 -117.901 67.5367 -78.2797 -119.466 68.0163 
-78.5804 -116.163 68.0237 -79.4127 -114.81 68.9279 -80.2313 -113.774 69.6205 
-78.8796 -118.752 67.5967 -79.0782 -120.016 68.4383 -79.0457 -117.13 67.4006 
-79.7845 -115.497 68.0175 -80.6421 -114.31 68.7386 -81.2781 -113.254 69.4086 
-79.9451 -119.079 68.4333 -80.142 -120.235 69.1011 -80.0194 -117.873 67.7138 
-80.6064 -116.335 67.5444 -81.3856 -114.884 67.9228 -81.9027 -113.74 68.512 
-82.3822 -112.69 69.4235 -81.0874 -119.221 69.0527 -81.213 -120.499 69.4331 
-81.1711 -118.27 68.2684 -81.6461 -117.155 67.4954 -82.3235 -115.674 67.2863 
-82.7601 -114.275 67.6469 -83.0443 -113.132 68.467 -83.5676 -112.173 69.67 
-82.133 -119.521 69.349 -82.1814 -120.877 69.6399 -82.2558 -118.569 68.6154 
-82.6338 -117.773 67.6046 -83.1711 -116.523 66.9715 -83.5718 -114.992 67.0544 
-83.7854 -113.68 67.7137 -84.1151 -112.615 68.7975 -84.6621 -111.674 70.0349 
-83.0776 -119.96 69.5766 -83.0732 -121.252 69.8715 -83.251 -118.954 68.8766 
-83.6028 -118.254 67.804 -84.0185 -117.242 66.9402 -84.3205 -115.746 66.8085 
-84.4928 -114.35 67.3419 -84.716 -113.231 68.2557 -85.1022 -112.157 69.3439 
-85.559 -111.085 70.3619 -84.0054 -120.83 69.8746 -84.1466 -119.648 69.3335 
-85.1045 -120.461 69.6486 -85.3501 -119.421 68.941 -86.235 -120.067 69.4476 
-84.5096 -118.821 68.3371 -86.4821 -119.054 68.8806 -87.3094 -119.483 69.6283 
-85.8215 -118.577 67.9985 -84.9682 -117.963 67.2699 -87.5018 -118.308 69.3375 
-88.4396 -118.62 70.0127 -86.8813 -117.917 68.3553 -86.2252 -117.287 67.3581 
-85.2448 -116.502 66.8493 -88.6697 -117.239 69.8107 -89.6436 -117.566 70.3249 
-87.7654 -116.851 69.1639 -87.0896 -116.277 68.2376 -86.2735 -115.573 67.5156 
-85.3105 -114.936 67.2856 -89.9788 -116.101 70.1686 -90.6718 -116.442 70.8033 
-88.9637 -115.702 69.7791 -87.9358 -115.214 69.3298 -87.0844 -114.685 68.7289 
-86.2654 -114.236 68.3248 -85.4449 -113.766 68.1887 -91.0594 -114.992 70.7744 
-91.4908 -115.325 71.4971 -90.3676 -114.608 70.2677 -89.3116 -114.164 70.0542 
-88.2204 -113.705 69.8085 -87.3436 -113.36 69.4675 -86.5514 -113.033 69.2316 
-85.7705 -112.582 69.1753 -91.9288 -113.925 71.4966 -92.3846 -114.308 72.0289 
-91.4632 -113.493 70.9328 -90.7696 -113.009 70.5642 -89.8048 -112.475 70.3673 
-88.8029 -112.03 70.1676 -87.8771 -111.75 69.9919 -86.9717 -111.491 69.9431 
-86.166 -111.234 70.0679 -92.8888 -112.972 71.9638 -93.436 -113.448 72.2635 
-92.3333 -112.415 71.5883 -91.7912 -111.82 71.155 -91.1522 -111.19 70.7573 
-90.3181 -110.602 70.4767 -89.3354 -110.231 70.3568 -88.2965 -110.071 70.3865 
-87.3121 -109.993 70.5354 -86.521 -109.978 70.7956 -86.6258 -108.811 71.5027 
-87.3823 -108.75 71.2111 -87.4439 -107.521 71.9068 -88.3621 -108.733 70.9806 
-88.3754 -107.551 71.7381 -88.3667 -106.226 72.4216 -89.4823 -108.757 70.7982 
-89.439 -107.602 71.6174 -89.3719 -106.249 72.3574 -89.237 -104.79 72.8769 
-90.5931 -108.928 70.7188 -90.5789 -107.64 71.4531 -90.4721 -106.266 72.2785 
-90.3273 -104.64 72.7375 -90.074 -103.358 73.2081 -91.5069 -109.397 70.9248 
-91.6824 -107.847 71.4039 -91.68 -106.326 72.119 -91.5687 -104.596 72.5726 
-91.3316 -103.188 72.9544 -90.9863 -102.341 73.7011 -92.1679 -110.075 71.3914 
-92.5599 -108.356 71.6901 -92.8567 -106.657 72.113 -92.887 -104.811 72.4555 
-92.6642 -103.272 72.8059 -92.3045 -102.358 73.519 -91.894 -101.65 74.4179 
-92.7972 -110.817 71.822 -93.3016 -109.067 72.069 -93.8308 -107.277 72.3114 
-94.1065 -105.388 72.514 -93.9568 -103.701 72.8312 -93.5714 -102.624 73.5225 
-93.1313 -101.851 74.4124 -92.691 -100.996 75.1005 -93.5257 -111.587 72.0678 
-94.1089 -109.92 72.2446 -94.6535 -108.083 72.4577 -95.0665 -106.195 72.6555 
-95.101 -104.444 72.974 -94.7761 -103.152 73.6342 -94.3175 -102.256 74.5187 
-93.8329 -101.378 75.2461 -93.3655 -100.473 75.7083 -94.1919 -112.291 72.2591 
-94.8382 -110.828 72.363 -95.3105 -109.046 72.5815 -95.6891 -107.145 72.8413 
-95.8972 -105.376 73.1908 -95.776 -103.928 73.7928 -95.404 -102.834 74.6187 
-94.927 -101.904 75.3976 -94.4111 -101.008 75.9545 -93.9153 -100.232 76.3899 
-86.4674 -107.9 72.0768 -87.2821 -106.502 72.5313 -86.2865 -106.907 72.7354 
-88.1717 -105.153 73.0517 -87.1329 -105.61 73.3253 -86.1518 -106.115 73.5919 
-88.9632 -103.74 73.5128 -87.961 -104.302 73.8781 -86.9653 -104.896 74.264 
-86.0201 -105.501 74.6149 -89.7566 -102.493 74.0495 -88.6676 -102.88 74.409 
-87.6628 -103.42 74.7706 -86.6305 -104.045 75.1936 -85.7981 -104.813 75.6353 
-90.6671 -101.557 74.7041 -89.4225 -101.673 75.0427 -88.3216 -101.976 75.3249 
-87.238 -102.458 75.6729 -86.2442 -103.183 76.1491 -85.5747 -104.127 76.6023 
-91.5894 -100.692 75.2423 -90.3023 -100.66 75.5601 -89.0449 -100.879 75.9299 
-87.9526 -101.271 76.2954 -86.9108 -101.843 76.7534 -86.0193 -102.632 77.2215 
-85.37 -103.582 77.5742 -92.4118 -99.9695 75.7202 -91.2221 -99.7516 75.95 
-89.8548 -99.899 76.408 -88.6346 -100.313 76.9191 -87.637 -100.872 77.4221 
-86.6642 -101.505 77.9101 -85.7885 -102.259 78.2845 -85.0942 -103.166 78.5392 
-93.0893 -99.6512 76.396 -92.0662 -99.239 76.565 -90.745 -99.1468 76.985 
-89.3488 -99.3928 77.5269 -88.2092 -99.8946 78.037 -87.2266 -100.504 78.5083 
-86.2455 -101.148 78.9117 -85.4208 -101.941 79.2038 -84.7949 -102.888 79.4229 
-93.899 -99.8551 77.3193 -93.0239 -99.3279 77.5001 -93.8075 -99.6906 78.6561 
-92.8365 -99.2647 79.0208 -93.621 -99.6405 80.1774 -91.8675 -98.9489 77.8556 
-92.5185 -99.3419 80.5556 -93.364 -99.6819 81.626 -91.5281 -98.9583 79.4348 
-90.3816 -98.8464 78.3346 -92.111 -99.5219 81.9403 -93.0073 -99.9163 82.9755 
-91.0848 -99.2012 80.894 -89.9497 -98.8974 79.808 -88.9079 -99.0817 78.787 
-91.5913 -99.8301 83.3193 -92.4648 -100.403 84.1731 -90.5483 -99.5228 82.3 
-89.4547 -99.2564 81.2582 -88.3974 -99.1172 80.1598 -87.6621 -99.581 79.196 
-90.9918 -100.339 84.5653 -91.8248 -101.071 85.1158 -89.9354 -99.8774 83.7099 
-88.86 -99.6359 82.7491 -87.8137 -99.4379 81.6774 -86.9671 -99.5259 80.5102 
-86.5159 -100.197 79.5761 -90.4506 -101.04 85.5119 -91.2404 -101.759 85.8765 
-89.4145 -100.485 84.8387 -88.3137 -100.11 83.9932 -87.2919 -99.8773 83.085 
-86.3913 -99.8068 81.9394 -85.8045 -100.161 80.7473 -85.561 -100.977 79.872 
-89.9607 -101.78 86.2675 -90.6863 -102.401 86.55 -89.0402 -101.317 85.6943 
-87.9871 -100.918 84.8765 -86.9983 -100.602 84.0654 -86.1403 -100.443 83.1527 
-85.4562 -100.572 81.9775 -85.0689 -101.134 80.892 -84.9092 -101.992 80.1062 
-89.4492 -102.498 86.9158 -90.1218 -103.06 87.1173 -88.6724 -102.13 86.4592 
-87.7624 -101.824 85.6881 -86.8525 -101.546 84.8559 -86.0627 -101.37 84.0935 
-85.3667 -101.349 83.1374 -84.8313 -101.625 82.0127 -84.5383 -102.257 81.067 
-84.3785 -103.039 80.3221 -94.7119 -100.564 76.9111 -94.691 -100.227 78.0476 
-95.5052 -100.908 77.5339 -95.5225 -100.608 78.8931 -96.1869 -101.375 78.324 
-94.5949 -100.059 79.5296 -96.251 -101.238 79.8676 -96.6364 -102.238 79.2486 
-95.4268 -100.541 80.5127 -94.4147 -100.018 81.1272 -96.6283 -102.321 80.7967 
-96.7839 -103.546 80.0834 -96.0857 -101.409 81.5006 -95.1745 -100.677 82.1434 
-94.1502 -100.167 82.628 -96.644 -103.739 81.5015 -96.7575 -105.112 80.7214 
-96.3482 -102.654 82.2526 -95.6913 -101.755 82.9501 -94.7492 -101.036 83.4974 
-93.6835 -100.619 83.8661 -96.6559 -105.382 82.1022 -96.8015 -106.781 81.2658 
-96.4026 -104.151 82.8486 -95.9423 -103.148 83.4706 -95.0973 -102.288 84.0055 
-94.0543 -101.7 84.4228 -92.9814 -101.347 84.7733 -96.7829 -107.122 82.6603 
-96.8657 -108.372 81.7462 -96.525 -105.861 83.4673 -96.1106 -104.78 84.0068 
-95.3426 -103.83 84.4076 -94.2806 -103.067 84.7934 -93.2632 -102.566 85.1588 
-92.2941 -102.134 85.5295 -96.7248 -108.676 83.0225 -96.733 -109.728 82.1045 
-96.5388 -107.525 83.8914 -96.1667 -106.455 84.4954 -95.5098 -105.479 84.8877 
-94.5448 -104.568 85.2601 -93.5626 -103.889 85.6292 -92.6808 -103.362 85.9567 
-91.729 -102.817 86.2698 -96.3902 -109.928 83.162 -96.4217 -110.841 82.3388 
-96.2452 -108.898 83.9637 -95.9427 -107.894 84.6276 -95.4508 -106.981 85.1714 
[...]
CELL_DATA 2000
SCALARS Distance double
LOOKUP_TABLE default
156.143 155.431 155.777 155.769 154.917 155.161 155.205 155.468 155.492 
154.652 154.774 154.851 155.039 155.155 155.345 155.484 154.578 154.614 
154.697 154.812 154.952 155.107 155.261 155.448 155.59 154.653 154.613 
154.688 154.735 154.835 154.937 154.998 155.167 155.197 155.433 155.398 
154.924 154.78 154.81 154.758 154.783 154.813 154.785 154.869 154.813 
154.971 154.894 155.085 154.963 155.312 155.116 155.042 154.88 154.766 
154.722 154.646 154.68 154.648 154.697 154.682 154.721 154.675 154.726 
154.684 155.572 155.43 155.229 155.036 154.757 154.649 154.496 154.537 
154.548 154.625 154.676 154.683 154.678 154.63 154.595 154.598 154.619 
155.596 155.522 155.239 155.087 154.729 154.591 154.37 154.383 154.373 
154.497 154.535 154.637 154.59 154.623 154.515 154.534 154.462 154.543 
154.545 156.231 156.072 155.893 155.46 155.972 155.72 155.261 155.18 
154.908 156.048 155.654 155.15 155.009 154.778 154.759 154.646 156.499 
155.877 155.325 154.991 154.775 154.704 154.665 154.626 154.596 157.387 
156.582 156.036 155.4 155.136 154.846 154.845 154.735 154.748 154.647 
154.669 158.424 157.626 157.143 156.357 156.039 155.453 155.373 155.055 
155.063 154.865 154.877 154.781 154.909 159.36 158.649 158.213 157.505 
157.181 156.502 156.293 155.75 155.634 155.265 155.209 155.019 155.106 
155.092 155.302 160.235 159.554 159.134 158.505 158.203 157.589 157.319 
156.702 156.445 155.919 155.753 155.412 155.419 155.303 155.474 155.487 
155.639 161.103 160.438 160.035 159.412 159.132 158.552 158.294 157.675 
157.361 156.747 156.504 156.036 155.986 155.71 155.819 155.698 155.826 
155.755 155.762 161.436 161.63 161.146 160.41 161.868 161.384 160.69 
160.2 159.545 162.115 161.656 161.013 160.531 159.871 159.374 158.703 
162.3 161.895 161.257 160.834 160.143 159.661 158.89 158.429 157.706 
162.377 162.028 161.358 160.993 160.271 159.844 159.048 158.575 157.83 
157.422 156.834 162.395 162.076 161.428 161.06 160.372 159.949 159.242 
158.768 158.14 157.674 157.185 156.752 156.373 162.399 162.11 161.543 
161.179 160.58 160.141 159.534 159.059 158.528 158.084 157.665 157.232 
156.87 156.443 156.164 162.413 162.142 161.626 161.315 160.765 160.393 
159.802 159.381 158.801 158.423 157.925 157.611 157.17 156.862 156.488 
156.217 155.999 162.484 162.197 161.683 161.383 160.819 160.511 159.892 
159.554 158.896 158.563 157.951 157.691 157.171 156.965 156.53 156.362 
156.051 155.96 155.794 155.63 155.867 155.611 155.382 156.3 155.947 
155.763 155.454 155.245 156.896 156.46 156.291 155.948 155.78 155.388 
155.101 157.651 157.115 156.92 156.532 156.377 155.969 155.642 155.167 
154.786 158.588 157.955 157.723 157.223 157.052 156.594 156.271 155.727 
155.312 154.846 154.617 159.6 158.954 158.714 158.115 157.933 157.37 
157.083 156.442 156.062 155.475 155.274 154.881 154.885 160.584 159.985 
159.781 159.155 158.981 158.359 158.121 157.408 157.08 156.374 156.194 
155.68 155.714 155.312 155.344 161.53 160.996 160.863 160.246 160.082 
159.442 159.233 158.535 158.259 157.517 157.332 156.715 156.735 156.248 
156.302 155.8 155.757 162.395 161.956 161.898 161.34 161.186 160.545 
160.322 159.65 159.407 158.716 158.534 157.893 157.858 157.318 157.355 
156.827 156.806 156.239 156.194 155.483 155.148 155.231 155.061 154.923 
154.897 154.67 154.75 154.57 154.734 154.698 154.467 154.464 154.332 
154.357 154.296 154.445 154.458 154.264 154.309 154.216 154.242 154.215 
154.244 154.309 154.33 154.219 154.033 154.065 153.948 154.053 153.957 
154.093 154.078 154.266 154.368 154.577 154.286 154.051 153.909 153.726 
153.732 153.572 153.691 153.597 153.848 153.901 154.233 154.353 154.922 
154.582 154.24 154 153.737 153.605 153.44 153.401 153.339 153.416 
153.482 153.716 153.879 154.184 154.313 155.25 154.871 154.451 154.16 
153.841 153.658 153.485 153.399 153.376 153.356 153.433 153.483 153.621 
153.784 153.953 154.177 154.306 155.713 155.251 154.869 154.449 154.153 
153.836 153.655 153.487 153.441 153.416 153.457 153.494 153.544 153.622 
153.706 153.875 154.024 154.232 154.39 155.95 156.285 155.762 155.145 
156.862 156.232 155.559 154.995 154.423 157.486 156.854 156.175 155.51 
154.826 154.303 153.853 158.098 157.467 156.798 156.138 155.418 154.772 
154.182 153.786 153.542 158.718 158.078 157.404 156.754 156.07 155.393 
154.734 154.169 153.773 153.542 153.482 159.317 158.697 158.023 157.37 
156.709 156.059 155.413 154.765 154.223 153.796 153.573 153.49 153.515 
159.881 159.304 158.676 158.015 157.361 156.709 156.102 155.458 154.89 
154.304 153.922 153.618 153.56 153.54 153.654 160.398 159.883 159.346 
158.716 158.117 157.424 156.862 156.193 155.713 155.054 154.669 154.123 
153.983 153.724 153.847 153.797 153.999 160.858 160.406 159.958 159.414 
158.913 158.246 157.742 157.051 156.655 155.985 155.681 155.024 154.839 
154.343 154.383 154.146 154.34 154.242 154.425 156.55 157.552 156.974 
156.896 158.633 158.047 158.015 157.442 157.461 159.858 159.234 159.269 
158.636 158.666 158.064 158.097 161.179 160.551 160.641 159.982 160.033 
159.35 159.379 158.728 158.748 162.474 161.869 161.955 161.355 161.414 
160.751 160.75 160.062 160.054 159.392 159.382 163.813 163.172 163.251 
162.639 162.708 162.083 162.059 161.389 161.312 160.665 160.609 159.989 
159.945 165.192 164.568 164.682 164.007 164.093 163.406 163.397 162.676 
162.563 161.87 161.774 161.16 161.108 160.512 160.462 166.338 165.875 
165.984 165.416 165.461 164.813 164.777 164.046 163.914 163.152 163.034 
162.349 162.309 161.681 161.638 161.015 160.949 167.118 166.817 166.85 
166.48 166.429 165.979 165.87 165.316 165.157 164.486 164.336 163.647 
163.585 162.932 162.891 162.225 162.128 161.475 161.377 162.832 163.355 
162.886 162.392 163.825 163.372 162.846 162.335 161.688 164.317 163.809 
163.226 162.716 162.016 161.499 160.775 164.933 164.318 163.668 163.084 
162.359 161.801 161.063 160.554 159.859 165.579 164.928 164.206 163.561 
162.825 162.207 161.493 160.908 160.236 159.697 159.064 166.085 165.493 
164.732 164.096 163.349 162.724 162.011 161.399 160.716 160.139 159.511 
158.975 158.41 166.455 165.937 165.227 164.614 163.893 163.265 162.552 
161.924 161.199 160.603 159.923 159.408 158.824 158.362 157.847 166.795 
166.338 165.747 165.154 164.489 163.841 163.152 162.492 161.776 161.111 
160.404 159.812 159.199 158.726 158.192 157.776 157.263 167.111 166.74 
166.268 165.732 165.119 164.469 163.787 163.118 162.446 161.764 161.102 
160.407 159.791 159.175 158.64 158.132 157.629 157.177 156.676 163.17 
163.859 163.571 163.702 164.648 164.307 164.425 164.108 164.214 165.459 
165.131 165.249 164.884 165.004 164.651 164.771 166.179 165.905 166.049 
165.721 165.843 165.491 165.677 165.31 165.471 166.906 166.607 166.766 
166.482 166.623 166.312 166.517 166.234 166.502 166.107 166.22 167.721 
167.382 167.558 167.241 167.4 167.065 167.233 166.995 167.283 167.073 
167.282 166.824 166.774 168.52 168.202 168.39 168.086 168.25 167.881 
167.961 167.647 167.822 167.695 167.93 167.727 167.745 167.251 167.079 
169.243 168.941 169.057 168.825 168.949 168.679 168.7 168.351 168.356 
168.14 168.275 168.191 168.275 168.032 167.915 167.457 167.29 169.864 
169.571 169.532 169.32 169.335 169.196 169.219 168.992 168.938 168.65 
168.628 168.468 168.525 168.416 168.392 168.134 168.001 167.615 167.492 
170.104 170.077 169.971 169.693 169.943 169.883 169.673 169.588 169.442 
169.892 169.836 169.735 169.633 169.576 169.47 169.386 169.778 169.833 
169.82 169.779 169.755 169.655 169.564 169.4 169.178 169.575 169.699 
169.724 169.79 169.702 169.709 169.51 169.464 169.192 169.07 168.807 
169.452 169.548 169.6 169.652 169.514 169.498 169.21 169.214 168.939 
168.962 168.765 168.733 168.611 169.271 169.41 169.436 169.53 169.417 
169.349 169.086 168.963 168.762 168.734 168.675 168.684 168.645 168.603 
168.494 168.916 169.089 169.023 169.231 169.122 169.213 169.014 168.954 
168.796 168.727 168.702 168.679 168.664 168.621 168.493 168.408 168.172 
168.581 168.682 168.564 168.732 168.607 168.789 168.634 168.767 168.626 
168.715 168.619 168.675 168.554 168.566 168.361 168.332 168.069 167.995 
167.701 168.412 168.166 168.311 168.361 167.833 168.06 168.09 168.247 
168.325 167.287 167.66 167.762 167.964 167.987 168.191 168.318 166.57 
167.033 167.241 167.597 167.702 167.89 167.983 168.207 168.383 165.768 
166.259 166.49 167.009 167.27 167.607 167.731 167.919 168.031 168.271 
168.419 164.872 165.406 165.598 166.192 166.505 167.063 167.258 167.589 
167.584 167.839 167.861 168.201 168.28 163.853 164.46 164.661 165.265 
165.523 166.168 166.385 166.916 166.913 167.251 167.156 167.511 167.537 
167.966 168.035 162.782 163.42 163.658 164.292 164.501 165.128 165.297 
165.909 165.991 166.465 166.449 166.802 166.834 167.214 167.33 167.722 
167.785 161.802 162.381 162.608 163.247 163.432 164.053 164.164 164.782 
164.892 165.49 165.605 166.09 166.196 166.587 166.711 167.073 167.161 
167.481 167.471 168.412 168.291 168.283 168.139 168.066 168.089 167.862 
167.92 167.72 167.725 167.797 167.495 167.537 167.24 167.365 167.104 
167.135 167.36 167.071 167.133 166.786 166.851 166.563 166.692 166.411 
166.192 166.594 166.332 166.582 166.212 166.353 166.007 166.153 165.857 
165.986 165.655 165.126 165.541 165.241 165.629 165.207 165.539 165.081 
165.408 165.013 165.317 164.924 165.133 164.713 164.171 164.503 164.156 
164.479 164.018 164.359 163.854 164.244 163.79 164.233 163.818 164.206 
163.748 164.046 163.598 163.3 163.591 163.223 163.457 162.992 163.231 
162.768 163.05 162.646 162.996 162.649 163.029 162.652 162.983 162.555 
162.873 162.489 162.464 162.735 162.369 162.567 162.106 162.298 161.871 
162.102 161.751 162.012 161.708 161.993 161.69 161.968 161.624 161.88 
161.533 161.826 161.54 168.572 168.795 168.614 168.462 168.904 168.773 
168.585 168.454 168.26 168.836 168.762 168.514 168.467 168.255 168.179 
167.913 168.667 168.611 168.309 168.286 168.026 168.042 167.754 167.7 
167.287 168.397 168.383 168.044 168.026 167.714 167.737 167.407 167.408 
166.957 166.89 166.335 167.986 168.026 167.645 167.677 167.311 167.366 
166.987 167.005 166.521 166.472 165.91 165.84 165.282 167.528 167.568 
167.162 167.199 166.798 166.878 166.479 166.534 166.037 166.007 165.429 
165.381 164.84 164.811 164.323 167.074 167.114 166.723 166.732 166.33 
166.359 165.962 166.002 165.537 165.517 164.955 164.897 164.341 164.332 
163.857 163.877 163.436 166.586 166.651 166.286 166.319 165.933 165.936 
165.516 165.513 165.045 165.03 164.51 164.455 163.911 163.855 163.36 
163.371 162.947 162.991 162.585 166.165 165.391 165.819 165.875 164.473 
164.987 165.053 165.512 165.538 163.285 163.927 163.939 164.551 164.557 
165.084 165.06 161.944 162.611 162.571 163.258 163.212 163.899 163.876 
164.51 164.499 160.804 161.344 161.341 161.902 161.858 162.481 162.495 
163.204 163.284 163.945 163.971 159.906 160.378 160.445 160.869 160.871 
161.299 161.336 161.91 162.067 162.732 162.857 163.435 163.43 158.982 
159.517 159.61 160.067 160.076 160.456 160.437 160.889 160.979 161.583 
161.719 162.326 162.362 162.888 162.874 157.968 158.542 158.637 159.17 
159.17 159.619 159.542 159.979 159.947 160.495 160.551 161.171 161.222 
161.805 161.834 162.377 162.439 157.022 157.539 157.625 158.15 158.151 
158.639 158.571 159.025 158.966 159.45 159.464 160.017 160.089 160.673 
160.768 161.344 161.456 162.007 162.109 156.603 156.146 156.613 157.119 
155.759 156.112 156.531 157.071 157.579 155.68 155.808 156.128 156.499 
156.977 157.516 158.021 155.805 155.858 156.12 156.262 156.694 157.037 
157.564 158.007 158.499 155.649 155.898 156.172 156.341 156.72 156.931 
157.425 157.714 158.211 158.552 159.033 155.167 155.54 155.849 156.232 
156.628 156.947 157.404 157.671 158.134 158.385 158.844 159.151 159.654 
154.815 155.061 155.363 155.777 156.225 156.693 157.188 157.58 158.045 
158.332 158.782 159.043 159.534 159.838 160.367 154.74 154.851 155.096 
155.362 155.757 156.205 156.702 157.217 157.711 158.147 158.605 158.952 
159.429 159.75 160.266 160.579 161.092 154.697 154.817 155.002 155.172 
155.428 155.747 156.12 156.627 157.098 157.667 158.143 158.644 159.1 
159.538 160.011 160.418 160.904 161.265 161.731 161.927 161.037 161.593 
161.764 160.082 160.621 160.73 161.317 161.46 159.122 159.63 159.7 
160.26 160.412 161.025 161.243 158.099 158.622 158.672 159.242 159.399 
160.009 160.267 160.888 161.164 156.988 157.514 157.54 158.176 158.356 
159.01 159.258 159.905 160.196 160.834 161.115 156.023 156.42 156.426 
157.021 157.254 157.954 158.235 158.885 159.145 159.808 160.109 160.779 
161.068 155.406 155.628 155.621 156.022 156.25 156.887 157.233 157.881 
158.147 158.761 159.047 159.732 160.069 160.734 161.012 155.008 155.155 
155.103 155.346 155.444 155.946 156.232 156.881 157.158 157.776 158.035 
158.692 159.043 159.734 160.076 160.688 160.954 154.653 154.779 154.648 
154.824 154.754 155.129 155.254 155.855 156.097 156.751 157.006 157.672 
158.011 158.725 159.123 159.782 160.117 160.677 160.971 161.675 160.846 
161.622 162.344 159.97 160.775 161.523 162.316 163.041 159.026 159.861 
160.584 161.441 162.175 162.982 163.675 158.042 158.883 159.604 160.469 
161.214 162.062 162.782 163.587 164.288 157.241 157.979 158.77 159.554 
160.369 161.165 161.975 162.745 163.522 164.261 164.988 156.811 157.382 
158.236 158.885 159.747 160.448 161.325 162.057 162.907 163.602 164.356 
165.003 165.627 156.673 157.118 157.949 158.495 159.307 159.91 160.702 
161.418 162.23 162.988 163.712 164.384 164.947 165.542 165.972 156.687 
157.036 157.788 158.256 158.988 159.493 160.141 160.748 161.424 162.191 
162.879 163.643 164.192 164.823 165.222 165.775 166.1 156.78 157.057 
157.729 158.11 158.79 159.2 159.781 160.218 160.77 161.369 162.003 
162.746 163.362 164.044 164.514 165.061 165.424 165.91 166.222 162.35 
163.011 162.965 163.551 163.716 163.658 164.235 164.175 164.752 164.407 
164.389 165.012 164.915 165.515 165.412 165.976 165.053 165.085 165.777 
165.722 166.352 166.242 166.844 166.681 167.173 165.698 165.736 166.436 
166.444 167.069 167.032 167.622 167.544 168.052 167.844 168.184 166.261 
166.347 167.008 167.059 167.667 167.669 168.234 168.224 168.738 168.644 
168.994 168.743 168.928 166.553 166.757 167.37 167.534 168.134 168.216 
168.774 168.79 169.283 169.241 169.613 169.46 169.677 169.397 169.505 
166.629 166.886 167.431 167.711 168.258 168.518 169.041 169.216 169.628 
169.68 169.954 169.93 170.134 170.034 170.18 169.932 169.989 166.688 
166.905 167.378 167.647 168.1 168.432 168.879 169.229 169.583 169.806 
169.965 170.062 170.15 170.247 170.379 170.412 170.488 170.314 170.264 
162.195 163.411 162.669 162.393 164.626 163.908 163.657 162.884 162.605 
165.789 165.1 164.868 164.143 163.849 163.083 162.805 166.885 166.206 
165.907 165.258 164.957 164.272 163.949 163.246 162.961 167.867 167.239 
166.883 166.23 165.872 165.247 164.903 164.289 163.959 163.333 163.022 
168.622 168.12 167.808 167.2 166.82 166.144 165.738 165.121 164.766 
164.219 163.89 163.319 162.994 169.168 168.754 168.455 168.012 167.659 
167.075 166.61 165.949 165.515 164.949 164.618 164.106 163.787 163.246 
162.936 169.626 169.232 168.864 168.501 168.128 167.728 167.269 166.735 
166.252 165.693 165.33 164.821 164.526 164.004 163.702 163.176 162.91 
169.936 169.624 169.224 168.858 168.456 168.089 167.672 167.251 166.824 
166.358 166.012 165.543 165.264 164.757 164.469 163.936 163.668 163.168 
162.958 168.687 168.999 168.871 168.937 169.262 169.163 169.203 169.105 
169.094 169.369 169.318 169.318 169.303 169.308 169.198 169.082 169.523 
169.413 169.427 169.383 169.431 169.371 169.318 169.14 168.95 169.812 
169.681 169.763 169.62 169.711 169.566 169.554 169.365 169.203 168.966 
168.697 170.002 169.978 170.075 169.992 170.057 169.919 169.859 169.639 
169.415 169.167 168.867 168.633 168.294 170.132 170.135 170.204 170.169 
170.146 170.117 170.007 169.887 169.607 169.355 168.982 168.741 168.397 
168.183 167.835 170.322 170.316 170.39 170.274 170.191 170.098 170.001 
169.939 169.765 169.553 169.215 168.896 168.535 168.277 167.956 167.728 
167.381 170.355 170.468 170.551 170.478 170.382 170.21 170.11 169.993 
169.937 169.772 169.576 169.232 168.889 168.512 168.17 167.873 167.533 
167.27 166.897 
POINT_DATA 1002
SCALARS Distance double
LOOKUP_TABLE default
156.14 156.544 155.75 155.446 155.102 155.727 154.938 154.716 155.237 
155.518 154.674 154.571 154.947 155.286 155.655 154.603 154.566 154.822 
155.093 155.41 155.713 154.678 154.723 154.789 154.902 155.006 155.183 
155.306 154.947 155.108 154.813 154.754 154.708 154.732 154.774 154.813 
155.3 155.533 154.887 154.606 154.585 154.658 154.662 154.595 154.648 
155.463 155.726 154.929 154.462 154.426 154.64 154.737 154.64 154.555 
154.658 155.382 155.686 154.876 154.388 154.268 154.432 154.54 154.498 
154.413 154.421 154.561 156.401 155.531 156.287 155.347 156.287 154.91 
155.335 156.528 154.774 154.657 155.775 157.196 154.872 154.688 154.656 
156.776 158.189 155.558 154.986 154.868 154.725 157.916 159.169 156.741 
155.823 155.318 155.009 154.902 158.866 160.048 157.862 156.946 156.115 
155.474 155.151 155.27 159.749 160.91 158.79 157.963 157.051 156.174 
155.615 155.495 155.664 160.658 161.743 159.701 158.909 158.015 157.021 
156.321 156.025 155.94 155.879 161.909 160.875 162.109 161.169 162.327 
160.029 161.473 162.546 160.399 159.188 161.669 162.689 160.633 159.4 
158.086 161.73 162.718 160.681 159.504 158.244 157.163 161.786 162.687 
160.774 159.666 158.562 157.619 156.776 161.862 162.653 160.984 159.99 
158.953 158.076 157.306 156.533 161.916 162.675 161.104 160.213 159.21 
158.249 157.459 156.754 156.185 162.003 162.777 161.134 160.222 159.246 
158.239 157.372 156.69 156.153 155.822 155.386 155.631 155.134 156.064 
155.601 155.005 156.631 156.184 155.563 154.741 157.347 156.787 156.168 
155.203 154.421 158.285 157.541 156.834 155.818 154.922 154.512 159.338 
158.524 157.74 156.681 155.692 155.213 154.934 160.401 159.608 158.817 
157.811 156.754 156.14 155.794 155.307 161.458 160.735 159.908 158.981 
157.991 157.256 156.814 156.303 155.665 162.41 161.83 160.998 160.066 
159.179 158.435 157.886 157.368 156.751 156.169 154.93 154.633 154.451 
154.461 154.314 154.237 154.179 154.158 154.182 154.233 154.063 153.864 
153.826 153.869 154.138 154.29 153.807 153.511 153.385 153.543 154.027 
154.528 153.907 153.502 153.313 153.327 153.583 154.033 154.78 154.05 
153.57 153.387 153.433 153.545 153.742 154.09 155.309 154.521 153.892 
153.508 153.433 153.509 153.584 153.797 154.191 156.373 155.607 156.876 
156.215 157.498 154.859 156.854 158.111 155.461 154.164 157.441 158.746 
156.103 154.695 153.691 158.051 159.361 156.725 155.387 154.126 153.509 
158.683 159.91 157.339 156.07 154.789 153.76 153.456 159.321 160.414 
158.028 156.722 155.52 154.367 153.644 153.585 159.917 160.867 158.803 
157.525 156.342 155.28 154.363 153.946 154.013 160.435 161.274 159.526 
158.414 157.289 156.335 155.432 154.724 154.484 154.526 157.11 157.44 
158.108 158.595 159.198 158.013 159.911 160.467 159.303 158.685 161.28 
161.795 160.736 160.064 159.391 162.537 163.093 162.053 161.455 160.733 
160.042 163.89 164.46 163.332 162.743 161.983 161.223 160.565 165.358 
165.763 164.803 164.147 163.304 162.406 161.696 161.065 166.508 166.746 
166.091 165.494 164.692 163.75 162.949 162.285 161.567 167.2 167.412 
166.845 166.356 165.763 165.018 164.243 163.565 162.826 161.993 163.311 
162.938 163.818 163.364 164.298 162.24 163.769 164.889 162.549 161.264 
164.299 165.615 162.939 161.595 160.336 164.873 166.253 163.45 162.093 
160.798 159.58 165.359 166.649 163.971 162.634 161.312 160.044 158.913 
165.809 166.912 164.52 163.196 161.833 160.458 159.272 158.29 166.298 
167.179 165.139 163.814 162.453 161.047 159.711 158.618 157.672 163.426 
163.979 164.175 164.77 165.004 164.53 165.624 165.754 165.357 165.129 
166.341 166.447 166.186 165.993 165.914 167.038 167.237 166.925 166.763 
166.801 166.796 167.875 168.055 167.766 167.515 167.428 167.626 167.427 
168.679 168.83 168.621 168.368 168.006 168.037 168.131 167.682 169.318 
169.585 169.179 169.052 168.685 168.384 168.408 168.289 167.78 169.814 