# vtk DataFile Version 4.0
vtk output
ASCII
DATASET POLYDATA
POINTS 1002 float
-79.863 -114.018 75.4219 -79.5231 -115.112 74.9357 -79.6765 -114.727 74.0472 
-80.2016 -113.679 74.596 -79.8723 -114.293 73.1359 -80.3791 -112.942 75.9087 
-80.5724 -113.242 73.7249 -80.1681 -113.762 72.1705 -80.8871 -112.565 75.1368 
-81.0191 -111.785 76.3977 -80.9397 -112.563 72.7881 -80.6274 -113.102 71.2301 
-81.3124 -111.967 74.3344 -81.5577 -111.222 75.648 -81.6252 -110.354 76.8615 
-81.4158 -111.749 71.9417 -81.2425 -112.423 70.598 -81.7079 -111.155 73.5154 
-81.9919 -110.485 74.9064 -82.1033 -109.609 76.094 -82.087 -108.674 77.2205 
-82.1046 -111.071 71.4018 -82.0141 -111.802 70.3123 -82.3336 -110.428 72.7883 
-82.5612 -109.764 74.1884 -82.6501 -108.904 75.3883 -82.6127 -107.941 76.4771 
-82.5595 -107.071 77.5278 -82.9978 -110.509 71.0897 -82.9723 -111.185 70.1037 
-83.1683 -109.858 72.2663 -83.3542 -109.147 73.5049 -83.3992 -108.266 74.7015 
-83.3312 -107.324 75.8167 -83.2739 -106.499 76.8595 -83.251 -105.81 77.8753 
-84.0327 -109.925 70.874 -84.0131 -110.587 69.9667 -84.0741 -109.237 71.924 
-84.1368 -108.458 72.958 -84.1655 -107.562 74.0022 -84.1062 -106.656 75.1237 
-84.048 -105.885 76.1895 -84.0261 -105.253 77.1752 -83.9878 -104.707 78.1535 
-85.0797 -109.35 70.8018 -84.9989 -110.063 70.0425 -85.0529 -108.583 71.6936 
-84.9457 -107.721 72.5848 -84.8948 -106.823 73.4464 -84.8552 -105.967 74.4405 
-84.7634 -105.187 75.4845 -84.6689 -104.5 76.4136 -84.5697 -103.911 77.3226 
-84.4603 -103.445 78.2635 -86.0299 -108.812 70.8337 -85.9139 -109.573 70.2272 
-86.0331 -108.01 71.5255 -85.8848 -107.134 72.2971 -85.7589 -106.24 73.0768 
-85.7041 -105.409 73.9294 -85.5632 -104.604 74.8747 -85.3229 -103.8 75.7387 
-85.0728 -103.064 76.5296 -84.8516 -102.48 77.3941 -84.6951 -102.095 78.3025 
-79.3426 -115.984 73.8362 -79.3589 -115.467 72.7968 -79.144 -116.822 72.6211 
-78.9818 -116.147 71.4848 -78.8597 -117.649 71.4483 -79.399 -114.866 71.7999 
-78.5097 -116.871 70.3358 -78.4654 -118.527 70.5424 -78.8447 -115.375 70.5154 
-79.6929 -114.257 70.8087 -78.1379 -117.779 69.5114 -78.2528 -119.4 70.0435 
-78.3097 -116.042 69.3844 -79.1756 -114.735 69.5564 -80.3331 -113.693 69.9657 
-78.3771 -118.775 69.0572 -78.6384 -120.185 69.8026 -78.2643 -117.062 68.4669 
-78.8429 -115.448 68.3473 -80.0767 -114.303 68.8119 -81.1891 -113.15 69.5631 
-79.3711 -119.566 68.9366 -79.5965 -120.83 69.6356 -79.116 -118.156 68.089 
-79.2054 -116.522 67.498 -80.1225 -115.053 67.7474 -81.3265 -113.84 68.6094 
-82.2051 -112.506 69.4195 -80.6237 -120.001 69.0889 -80.745 -121.248 69.6404 
-80.4741 -118.825 68.3722 -80.3244 -117.544 67.5568 -80.7584 -115.986 67.2916 
-81.7861 -114.504 67.8298 -82.6659 -113.142 68.5944 -83.2932 -111.786 69.2517 
-81.7495 -120.227 69.401 -81.8618 -121.47 69.8649 -81.7087 -119.063 68.8854 
-81.628 -118.099 68.1533 -81.8104 -116.846 67.5413 -82.5268 -115.244 67.4925 
-83.3088 -113.731 67.9069 -83.7951 -112.389 68.4942 -84.2972 -111.162 69.2227 
-82.7964 -120.476 69.6806 -82.9505 -121.645 70.1037 -82.745 -119.255 69.2282 
-82.7617 -118.346 68.5508 -82.9249 -117.441 67.7984 -83.3909 -116.042 67.3506 
-83.986 -114.407 67.3675 -84.389 -112.99 67.7884 -84.7176 -111.786 68.5319 
-85.2441 -110.659 69.4277 -83.9982 -121.197 69.9319 -83.8687 -119.921 69.4974 
-85.1877 -120.697 69.6642 -85.108 -119.434 69.0761 -86.3388 -120.054 69.4637 
-83.8626 -118.778 68.8073 -86.3344 -118.839 68.7461 -87.2703 -119.167 69.5102 
-85.2235 -118.395 68.1171 -84.0415 -117.94 67.8757 -87.3303 -117.95 68.8461 
-88.1049 -118.064 69.7487 -86.5441 -117.798 67.81 -85.5287 -117.457 67.1308 
-84.3905 -116.825 67.1233 -88.2152 -116.854 69.2693 -89.0952 -116.929 70.071 
-87.549 -116.825 68.1996 -86.8139 -116.626 67.135 -85.7947 -116.002 66.6562 
-84.7873 -115.148 66.8849 -89.2658 -115.739 69.7376 -90.2453 -115.861 70.3731 
-88.4393 -115.657 68.8762 -87.7824 -115.469 67.9156 -86.9526 -114.916 67.131 
-85.9687 -114.145 66.8749 -85.0991 -113.478 67.2086 -90.5375 -114.596 70.0383 
-91.4324 -114.771 70.5048 -89.564 -114.428 69.4328 -88.7475 -114.203 68.8007 
-88.0064 -113.701 68.2173 -87.1702 -113.048 67.7226 -86.2574 -112.537 67.6315 
-85.4029 -112.151 68.0114 -91.8725 -113.409 70.1302 -92.5691 -113.651 70.5066 
-90.9588 -113.145 69.7531 -90.0012 -112.887 69.4008 -89.1398 -112.455 69.119 
-88.3982 -111.879 68.7688 -87.6325 -111.463 68.4903 -86.7319 -111.218 68.622 
-85.8733 -110.957 69.0352 -93.0696 -112.318 70.1741 -93.5778 -112.637 70.5496 
-92.3499 -111.923 69.9114 -91.47 -111.551 69.7152 -90.5045 -111.136 69.5744 
-89.6133 -110.618 69.3852 -88.8848 -110.203 69.1463 -88.1269 -110.015 69.1623 
-87.2548 -109.897 69.5184 -86.4774 -109.739 69.9276 -86.8984 -108.475 70.6602 
-87.5589 -108.47 70.2874 -87.8454 -107.14 70.8591 -88.3651 -108.467 69.8032 
-88.5423 -106.949 70.3941 -88.7272 -105.707 70.9939 -89.189 -108.506 69.4386 
-89.3239 -106.83 69.885 -89.4539 -105.419 70.4723 -89.5832 -104.242 71.1779 
-90.032 -108.72 69.4226 -90.238 -106.846 69.5432 -90.3021 -105.258 69.9583 
-90.3744 -103.927 70.5621 -90.364 -102.714 71.2599 -91.0602 -109.186 69.6051 
-91.4107 -107.099 69.5164 -91.4464 -105.251 69.6441 -91.3526 -103.715 70.0249 
-91.2466 -102.363 70.5944 -91.0875 -101.298 71.3286 -92.1357 -109.753 69.7683 
-92.6472 -107.64 69.6978 -92.7919 -105.534 69.6636 -92.6411 -103.695 69.8104 
-92.4113 -102.119 70.129 -92.1492 -100.943 70.7466 -91.8885 -100.243 71.6167 
-93.0179 -110.332 69.9091 -93.5882 -108.384 69.9041 -93.894 -106.199 69.8811 
-93.9239 -104.096 69.9431 -93.8111 -102.235 70.0597 -93.5554 -100.812 70.3874 
-93.1522 -99.991 71.123 -92.7609 -99.5076 72.0698 -93.7175 -110.941 70.095 
-94.2868 -109.239 70.0852 -94.6855 -107.156 70.085 -94.8985 -104.949 70.1652 
-95.0067 -102.899 70.2782 -94.9593 -101.195 70.4121 -94.6164 -100.079 70.877 
-94.0885 -99.4446 71.7266 -93.6054 -98.9176 72.6316 -94.2508 -111.475 70.4137 
-94.8697 -110.051 70.3489 -95.3681 -108.202 70.3054 -95.6865 -106.058 70.3593 
-95.8564 -103.964 70.5482 -95.9226 -102.112 70.728 -95.7746 -100.675 71.0233 
-95.3588 -99.7455 71.6946 -94.8391 -99.0768 72.5755 -94.3677 -98.4463 73.344 
-86.9669 -107.628 71.2084 -87.8602 -106.285 71.4493 -86.9036 -106.77 71.8859 
-88.7159 -104.812 71.7369 -87.7823 -105.418 72.2451 -86.7703 -105.865 72.6921 
-89.4854 -103.176 71.9365 -88.5482 -103.8 72.557 -87.643 -104.438 73.0922 
-86.6806 -104.95 73.5313 -90.188 -101.622 71.9663 -89.1727 -102.063 72.5934 
-88.2284 -102.678 73.2432 -87.4131 -103.391 73.8903 -86.499 -104.038 74.4205 
-90.9672 -100.482 72.2071 -89.942 -100.759 72.7475 -88.8046 -101.124 73.3269 
-87.8564 -101.701 74.0641 -87.0337 -102.431 74.7822 -86.1323 -103.121 75.2964 
-91.8108 -99.6297 72.6887 -90.8709 -99.8483 73.3316 -89.7281 -100.106 73.9216 
-88.5424 -100.467 74.5365 -87.5533 -101.024 75.1935 -86.6114 -101.638 75.7071 
-85.7154 -102.266 76.0835 -92.6309 -98.8421 73.1355 -91.6885 -98.9541 73.8485 
-90.6341 -99.1873 74.6303 -89.4401 -99.4894 75.283 -88.3283 -99.9576 75.8152 
-87.283 -100.505 76.262 -86.2047 -100.961 76.5834 -85.3431 -101.555 76.9152 
-93.4376 -98.1729 73.611 -92.4252 -98.1498 74.1334 -91.3108 -98.3252 74.9074 
-90.0986 -98.5361 75.6647 -88.9732 -98.8715 76.2462 -87.9816 -99.448 76.755 
-86.8983 -99.9745 77.1824 -85.8058 -100.383 77.4932 -85.0621 -101.06 77.8387 
-94.5322 -97.8503 74.2645 -93.532 -97.6041 74.4996 -94.6116 -97.4927 75.3307 
-93.5326 -97.4025 75.7639 -94.4993 -97.5028 76.7802 -92.2989 -97.7118 75.0475 
-93.4049 -97.4408 77.6261 -94.2089 -97.6988 78.5437 -92.0841 -97.5952 76.4572 
-90.8586 -97.8837 75.7908 -93.1049 -97.4881 79.5566 -93.8097 -98.0493 80.0335 
-91.8455 -97.4749 78.5083 -90.3589 -97.5745 77.1672 -89.4474 -97.9467 76.4669 
-92.5964 -97.898 80.745 -93.3441 -98.6983 81.0839 -91.4885 -97.4396 80.348 
-89.9663 -97.2958 79.2076 -88.7962 -97.4702 77.8391 -88.342 -98.2994 77.1228 
-92.0292 -98.791 81.5513 -92.8817 -99.4291 82.2237 -90.9975 -98.0599 81.2747 
-89.6384 -97.4741 80.8971 -88.3314 -97.3357 79.7911 -87.6612 -97.9132 78.562 
-87.3479 -98.9772 77.7843 -91.5888 -99.5899 82.7271 -92.4655 -100.006 83.5043 
-90.5872 -99.0366 82.067 -89.3893 -98.3242 81.7639 -88.0923 -97.8414 81.2507 
-87.1535 -97.9848 80.1984 -86.6536 -98.6826 79.1094 -86.2296 -99.5378 78.2445 
-91.2463 -100.115 84.0085 -92.0765 -100.563 84.4934 -90.3107 -99.7238 83.3151 
-89.2418 -99.2486 82.6899 -88.0181 -98.7737 82.1691 -86.9118 -98.5937 81.4104 
-86.1796 -98.8414 80.3886 -85.6837 -99.3975 79.4036 -85.293 -100.144 78.5583 
-90.9172 -100.664 84.9353 -91.7104 -101.216 85.1457 -90.041 -100.228 84.5337 
-89.0791 -99.9102 83.9135 -87.9708 -99.6504 83.2269 -86.8307 -99.4502 82.5057 
-85.9522 -99.4321 81.6158 -85.3957 -99.7173 80.6136 -85.0209 -100.312 79.6994 
-84.7898 -101.141 78.939 -95.3178 -98.579 73.8304 -95.4458 -98.113 74.8839 
-96.105 -99.0346 74.4277 -96.1234 -98.7908 75.4901 -96.7118 -99.7651 74.9708 
-95.3782 -97.9523 75.992 -96.6526 -99.6973 76.0717 -97.2206 -100.697 75.5822 
-95.9019 -98.8368 76.6089 -95.0768 -98.1494 77.424 -97.1034 -100.735 76.8662 
-97.4831 -101.893 76.416 -96.4388 -99.7683 77.3927 -95.5866 -99.0991 78.1337 
-94.7187 -98.5275 79.0948 -97.2048 -102.106 77.7557 -97.3337 -103.349 77.2984 
-96.9109 -100.813 78.3491 -96.2525 -99.8997 79.1137 -95.3435 -99.4504 79.8708 
-94.3915 -99.0165 80.5534 -96.9308 -103.707 78.483 -97.0999 -104.817 78.0686 
-96.9288 -102.369 79.1055 -96.7227 -100.975 80.0352 -96.0249 -100.206 80.8205 
-95.0612 -99.8788 81.3563 -94.0202 -99.5667 81.8425 -96.8182 -105.15 79.1886 
-97.1961 -106.167 78.7944 -96.6973 -104.079 79.7298 -96.752 -102.671 80.7022 
-96.4374 -101.416 81.6293 -95.6245 -100.772 82.1456 -94.6366 -100.39 82.6297 
-93.5811 -100.102 83.1583 -97.112 -106.427 79.9866 -97.5076 -107.457 79.4985 
-96.7649 -105.489 80.4996 -96.7077 -104.36 81.36 -96.6068 -103.06 82.3215 
-96.0179 -102.075 82.8679 -95.0952 -101.471 83.2388 -94.1256 -101.009 83.7713 
-93.1167 -100.704 84.2353 -97.4499 -107.679 80.7074 -97.6695 -108.67 80.0984 
-97.0997 -106.747 81.2881 -96.8621 -105.756 82.0346 -96.7006 -104.591 82.896 
[...]
CELL_DATA 2000
SCALARS Distance double
LOOKUP_TABLE default
157.376 156.801 157.091 157.076 156.181 156.544 156.616 156.857 156.832 
155.484 155.893 155.995 156.355 156.349 156.584 156.467 154.863 155.179 
155.253 155.66 155.683 156.011 155.874 156.095 155.847 154.529 154.659 
154.71 154.988 155.07 155.357 155.292 155.48 155.251 155.397 155.125 
154.439 154.455 154.496 154.621 154.715 154.886 154.871 154.989 154.821 
154.893 154.69 154.776 154.633 154.467 154.437 154.451 154.494 154.505 
154.601 154.517 154.616 154.433 154.519 154.33 154.428 154.304 154.422 
154.36 154.601 154.519 154.499 154.461 154.376 154.376 154.203 154.248 
154.039 154.125 153.929 154.047 153.87 154.029 153.865 154.077 153.932 
154.8 154.682 154.617 154.516 154.378 154.276 154.08 154.006 153.827 
153.815 153.661 153.688 153.494 153.558 153.309 153.457 153.202 153.465 
153.249 157.516 157.443 157.242 156.812 157.311 157.063 156.502 156.452 
156.078 157.235 156.873 156.169 156.046 155.601 155.683 155.377 157.404 
156.86 156.045 155.717 155.186 155.193 154.952 155.055 154.845 157.96 
157.233 156.42 155.776 155.144 154.882 154.668 154.731 154.691 154.703 
154.59 158.825 158.025 157.348 156.47 155.82 155.138 154.849 154.641 
154.711 154.697 154.721 154.602 154.524 159.756 159.005 158.468 157.611 
157.068 156.155 155.78 155.156 155.149 154.912 155.012 154.834 154.78 
154.589 154.534 160.617 159.931 159.441 158.729 158.292 157.489 157.107 
156.311 156.114 155.576 155.559 155.232 155.172 154.898 154.807 154.634 
154.651 161.433 160.777 160.285 159.635 159.22 158.589 158.242 157.563 
157.247 156.595 156.355 155.857 155.684 155.325 155.201 154.957 154.944 
154.81 154.879 161.738 161.845 161.381 160.585 161.939 161.481 160.656 
160.224 159.509 161.933 161.555 160.761 160.321 159.597 159.217 158.581 
161.78 161.509 160.806 160.437 159.728 159.329 158.657 158.289 157.634 
161.604 161.356 160.737 160.457 159.802 159.443 158.71 158.323 157.592 
157.272 156.645 161.549 161.256 160.661 160.389 159.785 159.477 158.758 
158.349 157.559 157.189 156.531 156.307 155.843 161.539 161.256 160.655 
160.353 159.757 159.461 158.821 158.425 157.705 157.248 156.621 156.274 
155.855 155.647 155.364 161.459 161.231 160.652 160.359 159.764 159.464 
158.874 158.526 157.907 157.481 156.921 156.518 156.133 155.817 155.576 
155.33 155.154 161.356 161.149 160.62 160.351 159.782 159.488 158.907 
158.593 157.988 157.649 157.078 156.775 156.345 156.105 155.818 155.604 
155.402 155.198 155.057 155.034 155.318 155.091 154.884 155.653 155.355 
155.045 154.8 154.494 156.085 155.681 155.279 154.941 154.551 154.349 
154.053 156.745 156.183 155.725 155.224 154.774 154.438 154.086 153.903 
153.594 157.661 156.989 156.543 155.84 155.356 154.789 154.372 154.004 
153.638 153.41 153.084 158.638 157.997 157.624 156.841 156.357 155.575 
155.095 154.459 154.025 153.572 153.227 152.968 152.787 159.545 158.982 
158.692 157.975 157.529 156.695 156.189 155.372 154.902 154.191 153.828 
153.316 153.152 152.883 152.898 160.397 159.891 159.675 159.039 158.671 
157.878 157.406 156.552 156.103 155.271 154.914 154.182 154 153.482 
153.5 153.185 153.281 161.162 160.732 160.587 160.036 159.768 159.039 
158.642 157.802 157.398 156.552 156.221 155.416 155.202 154.519 154.483 
153.983 154.076 153.688 153.785 154.872 154.718 154.763 154.627 154.374 
154.515 154.41 154.478 154.331 153.968 154.143 154.091 154.217 154.109 
154.155 154.007 153.465 153.689 153.605 153.831 153.755 153.906 153.795 
153.85 153.744 152.925 153.121 152.953 153.212 153.065 153.381 153.284 
153.547 153.454 153.595 153.525 152.679 152.699 152.578 152.635 152.471 
152.642 152.543 152.869 152.834 153.156 153.082 153.309 153.251 152.796 
152.671 152.653 152.539 152.486 152.361 152.312 152.323 152.363 152.547 
152.565 152.778 152.708 152.954 152.948 153.078 152.88 152.828 152.726 
152.707 152.582 152.539 152.394 152.399 152.356 152.407 152.431 152.391 
152.455 152.4 152.646 152.752 153.471 153.172 153.009 152.863 152.774 
152.721 152.612 152.556 152.429 152.417 152.37 152.403 152.362 152.326 
152.228 152.238 152.258 152.526 152.759 153.692 153.899 153.529 153.146 
154.389 153.844 153.378 153.05 152.825 155.167 154.511 153.993 153.405 
152.978 152.726 152.567 155.959 155.348 154.825 154.126 153.474 152.914 
152.472 152.377 152.295 156.612 156.053 155.523 154.906 154.19 153.457 
152.748 152.323 152.078 152.145 152.233 157.304 156.676 156.117 155.523 
154.885 154.169 153.44 152.751 152.328 152.08 152.115 152.201 152.298 
158.109 157.432 156.879 156.193 155.623 154.91 154.303 153.549 153.061 
152.528 152.379 152.214 152.238 152.236 152.202 158.853 158.247 157.742 
157.051 156.524 155.783 155.257 154.49 154.017 153.341 153.043 152.613 
152.503 152.293 152.26 152.171 152.217 159.466 158.946 158.496 157.898 
157.428 156.746 156.273 155.526 155.084 154.341 153.998 153.375 153.195 
152.752 152.735 152.453 152.588 152.44 152.715 154.194 155.184 154.588 
154.456 156.276 155.657 155.532 154.927 154.915 157.428 156.789 156.692 
156.054 156.022 155.487 155.618 158.7 158.014 157.95 157.267 157.261 
156.653 156.758 156.258 156.419 160.01 159.341 159.309 158.604 158.624 
157.963 158.085 157.488 157.636 157.067 157.166 161.222 160.615 160.618 
159.981 160.018 159.366 159.47 158.85 158.983 158.366 158.462 157.831 
157.905 162.439 161.808 161.839 161.255 161.362 160.763 160.883 160.243 
160.336 159.697 159.767 159.149 159.213 158.6 158.676 163.779 163.096 
163.141 162.514 162.678 162.11 162.306 161.678 161.771 161.07 161.09 
160.426 160.461 159.866 159.913 159.336 159.375 165.075 164.463 164.519 
163.88 164.022 163.447 163.64 163.067 163.155 162.488 162.448 161.752 
161.718 161.09 161.106 160.524 160.536 159.964 159.962 161.503 161.865 
161.47 160.983 162.205 161.815 161.308 160.871 160.207 162.522 162.1 
161.539 161.137 160.445 159.951 159.115 162.915 162.402 161.763 161.323 
160.627 160.151 159.318 158.776 157.898 163.394 162.829 162.143 161.591 
160.867 160.343 159.539 158.99 158.126 157.577 156.745 163.862 163.316 
162.638 162.031 161.27 160.658 159.846 159.251 158.413 157.838 157.028 
156.485 155.747 164.32 163.779 163.11 162.516 161.753 161.114 160.304 
159.648 158.84 158.201 157.446 156.848 156.176 155.618 155.037 164.771 
164.23 163.528 162.949 162.193 161.592 160.833 160.184 159.434 158.747 
158.045 157.383 156.774 156.164 155.633 155.064 154.603 165.134 164.631 
163.888 163.326 162.559 162.006 161.299 160.728 160.046 159.4 158.723 
158.055 157.446 156.826 156.295 155.712 155.22 154.68 154.249 161.874 
162.533 162.208 162.232 163.287 162.912 162.969 162.613 162.635 164.198 
163.747 163.846 163.442 163.537 163.086 163.077 165.22 164.713 164.776 
164.359 164.504 164.085 164.164 163.607 163.566 166.252 165.738 165.71 
165.255 165.35 165.016 165.165 164.733 164.739 164.129 164.044 167.215 
166.743 166.7 166.181 166.189 165.813 165.98 165.666 165.762 165.267 
165.187 164.573 164.47 168.091 167.674 167.672 167.17 167.135 166.674 
166.789 166.471 166.655 166.26 166.274 165.696 165.608 164.996 164.928 
168.893 168.52 168.531 168.1 168.043 167.581 167.586 167.255 167.419 
167.138 167.253 166.785 166.745 166.146 166.086 165.48 165.413 169.588 
169.272 169.287 168.919 168.859 168.415 168.309 167.941 167.968 167.777 
167.897 167.654 167.649 167.208 167.105 166.581 166.482 165.919 165.781 
169.917 170.307 169.981 169.668 170.591 170.364 170.058 169.687 169.248 
170.535 170.509 170.197 169.973 169.481 169.126 168.632 170.192 170.28 
169.979 169.922 169.442 169.225 168.735 168.497 168.201 169.964 169.973 
169.727 169.646 169.231 169.084 168.667 168.536 168.306 168.209 168.096 
169.909 169.88 169.679 169.517 169.133 168.929 168.545 168.431 168.208 
168.214 168.105 168.083 167.879 169.722 169.78 169.549 169.477 169.085 
168.904 168.492 168.338 168.046 168.031 167.86 167.928 167.739 167.711 
167.378 169.379 169.465 169.194 169.22 168.855 168.793 168.416 168.297 
167.99 167.893 167.677 167.66 167.485 167.496 167.254 167.164 166.792 
169.06 169.102 168.847 168.852 168.559 168.536 168.262 168.205 167.978 
167.882 167.696 167.588 167.417 167.332 167.127 167.039 166.721 166.564 
166.116 168.835 168.387 168.632 168.602 167.806 168.156 168.181 168.382 
168.334 167.081 167.556 167.711 167.986 167.991 168.138 168.09 166.216 
166.803 167.034 167.466 167.537 167.787 167.76 167.917 167.862 165.169 
165.85 166.035 166.631 166.664 167.137 167.111 167.484 167.465 167.687 
167.616 163.97 164.687 164.791 165.459 165.407 166.016 165.947 166.569 
166.607 167.131 167.145 167.409 167.318 162.718 163.414 163.486 164.146 
164.097 164.69 164.629 165.277 165.364 166.073 166.197 166.747 166.725 
167.033 166.927 161.517 162.154 162.221 162.857 162.866 163.445 163.452 
164.042 164.154 164.827 164.974 165.636 165.651 166.191 166.081 166.509 
166.391 160.464 161.01 161.079 161.654 161.692 162.269 162.31 162.914 
163.018 163.667 163.765 164.4 164.362 164.953 164.805 165.394 165.25 
165.819 165.701 168.837 168.577 168.636 168.389 168.138 168.299 168.041 
168.072 167.72 167.556 167.792 167.535 167.623 167.194 167.26 166.872 
166.755 167.091 166.815 167.023 166.575 166.657 166.167 166.315 165.936 
165.709 166.11 165.776 166.144 165.717 165.939 165.403 165.548 165.052 
165.292 164.891 164.665 164.998 164.624 165.001 164.587 164.935 164.419 
164.667 164.106 164.347 163.863 164.167 163.729 163.771 164.018 163.621 
163.895 163.46 163.776 163.283 163.579 163.04 163.32 162.815 163.117 
162.663 162.971 162.516 162.891 163.128 162.663 162.909 162.418 162.696 
162.199 162.471 161.96 162.232 161.755 162.057 161.617 161.92 161.478 
161.766 161.332 161.972 162.19 161.653 161.889 161.359 161.644 161.167 
161.445 160.969 161.212 160.744 161.014 160.588 160.888 160.473 160.76 
160.355 160.638 160.278 169.025 169.07 168.957 168.709 168.948 168.861 
168.536 168.498 168.204 168.9 168.714 168.293 168.202 167.876 167.917 
167.616 169.016 168.77 168.312 168.021 167.619 167.565 167.314 167.324 
166.929 168.935 168.865 168.461 168.154 167.675 167.431 167.12 167.058 
166.719 166.58 166.004 168.449 168.574 168.237 168.194 167.727 167.515 
167.055 166.905 166.477 166.352 165.797 165.588 164.96 167.918 167.988 
167.657 167.781 167.402 167.391 166.882 166.758 166.188 166.057 165.454 
165.319 164.724 164.575 164.033 167.591 167.533 167.148 167.202 166.855 
166.931 166.491 166.453 165.879 165.739 165.112 164.958 164.379 164.28 
163.785 163.688 163.188 167.291 167.236 166.795 166.766 166.36 166.397 
165.986 166.004 165.526 165.439 164.887 164.701 164.14 163.971 163.486 
163.398 162.951 162.838 162.323 166.912 166.104 166.494 166.432 165.239 
165.648 165.596 165.99 165.947 164.359 164.785 164.712 165.114 165.067 
165.506 165.509 163.264 163.839 163.774 164.221 164.153 164.597 164.603 
165.075 165.074 161.851 162.574 162.536 163.161 163.084 163.629 163.616 
164.145 164.151 164.607 164.507 160.51 161.129 161.082 161.766 161.686 
162.379 162.331 163.021 163.008 163.608 163.511 163.954 163.773 159.547 
159.962 159.888 160.389 160.303 160.915 160.864 161.587 161.589 162.32 
162.279 162.871 162.745 163.203 163.085 158.78 159.127 159.045 159.392 
159.299 159.708 159.666 160.21 160.255 160.912 160.974 161.611 161.601 
162.143 162.087 162.57 162.524 158.048 158.385 158.321 158.634 158.552 
158.87 158.825 159.212 159.251 159.751 159.851 160.417 160.49 161.037 
161.037 161.546 161.494 161.989 161.902 157.68 157.305 157.624 157.928 
157.014 157.267 157.511 157.852 158.162 156.67 156.969 157.185 157.473 
157.758 158.106 158.45 156.075 156.525 156.78 157.141 157.405 157.735 
158.074 158.442 158.856 155.299 155.797 156.073 156.605 156.895 157.334 
157.644 158.054 158.471 158.904 159.399 154.734 155.051 155.249 155.773 
156.077 156.667 156.996 157.535 157.935 158.46 158.965 159.469 159.994 
154.488 154.653 154.766 155.046 155.269 155.776 156.132 156.762 157.201 
157.836 158.344 158.947 159.478 160.02 160.516 154.16 154.434 154.568 
154.736 154.876 155.13 155.421 155.917 156.399 157.053 157.607 158.264 
158.791 159.402 159.892 160.465 160.933 153.53 153.974 154.193 154.514 
154.687 154.882 155.102 155.387 155.821 156.337 156.936 157.552 158.109 
158.692 159.158 159.748 160.211 160.824 161.297 161.306 160.154 160.775 
160.904 159.11 159.642 159.742 160.383 160.603 158.134 158.668 158.786 
159.328 159.541 160.175 160.455 157.008 157.65 157.805 158.407 158.588 
159.181 159.401 160.042 160.279 155.899 156.487 156.648 157.324 157.492 
158.154 158.296 158.952 159.123 159.809 160.032 155.144 155.507 155.606 
156.159 156.307 156.964 157.102 157.773 157.923 158.618 158.844 159.572 
159.858 154.599 154.836 154.767 155.174 155.204 155.784 155.912 156.573 
156.762 157.442 157.699 158.406 158.721 159.445 159.76 153.938 154.171 
153.908 154.267 154.134 154.663 154.716 155.384 155.591 156.308 156.604 
157.315 157.653 158.352 158.691 159.375 159.683 153.195 153.385 153.052 
153.342 153.159 153.592 153.61 154.205 154.412 155.131 155.459 156.216 
156.588 157.314 157.682 158.36 158.704 159.343 159.654 162.012 161.23 
161.967 162.649 160.381 161.168 161.902 162.645 163.376 159.49 160.295 
161.047 161.867 162.662 163.428 164.23 158.725 159.455 160.221 161.008 
161.821 162.655 163.505 164.314 165.112 158.249 158.843 159.644 160.292 
161.1 161.841 162.695 163.524 164.359 165.137 165.766 158.051 158.522 
159.311 159.84 160.623 161.235 162.06 162.778 163.616 164.368 165.059 
165.678 166.106 158.011 158.39 159.088 159.539 160.228 160.783 161.55 
162.215 163.025 163.708 164.418 165.017 165.533 166.001 166.377 158.009 
158.33 158.911 159.29 159.853 160.34 161.01 161.666 162.452 163.147 
163.854 164.442 164.973 165.465 165.889 166.333 166.728 157.962 158.253 
158.735 159.072 159.536 159.938 160.496 161.082 161.818 162.533 163.255 
163.882 164.41 164.913 165.316 165.801 166.179 166.663 167.006 162.654 
163.275 163.236 163.796 163.998 163.894 164.462 164.404 164.976 164.891 
164.711 165.293 165.149 165.756 165.642 166.194 165.805 165.668 166.276 
166.081 166.665 166.484 167.011 166.834 167.244 166.377 166.442 167.065 
167.035 167.636 167.461 167.93 167.661 168 167.76 168.029 166.571 
166.755 167.323 167.567 168.268 168.366 168.958 168.697 169.033 168.605 
168.865 168.529 168.775 166.79 166.881 167.367 167.625 168.332 168.73 
169.517 169.647 170.139 169.787 170.016 169.523 169.739 169.327 169.486 
167.182 167.2 167.66 167.737 168.308 168.645 169.388 169.861 170.495 
170.643 170.908 170.633 170.699 170.299 170.337 169.937 169.9 167.478 
167.589 168.043 168.097 168.536 168.671 169.196 169.577 170.17 170.615 
171.011 171.155 171.224 171.042 170.949 170.643 170.512 170.169 170.02 
162.497 163.662 162.944 162.65 164.811 164.104 163.827 163.091 162.745 
165.954 165.236 164.902 164.199 163.831 163.113 162.686 166.982 166.332 
165.919 165.206 164.762 164.09 163.63 162.944 162.462 167.774 167.243 
166.825 166.151 165.62 164.944 164.438 163.796 163.309 162.661 162.227 
168.45 167.95 167.541 166.946 166.398 165.745 165.19 164.558 164.066 
163.458 163.041 162.458 162.128 169.069 168.585 168.131 167.587 167.063 
166.467 165.932 165.308 164.801 164.19 163.752 163.21 162.867 162.368 
162.072 169.473 169.093 168.61 168.133 167.629 167.103 166.627 166.052 
165.569 164.942 164.458 163.878 163.474 163.005 162.68 162.247 161.942 
169.65 169.373 168.931 168.549 168.081 167.638 167.188 166.702 166.238 
165.68 165.176 164.581 164.11 163.583 163.211 162.778 162.475 162.072 
161.796 169.183 169.501 169.347 169.302 169.765 169.63 169.551 169.377 
169.231 169.875 169.788 169.619 169.517 169.374 169.263 169.165 170.002 
169.884 169.752 169.573 169.427 169.329 169.3 169.247 169.228 170.374 
170.192 170.29 169.967 169.963 169.6 169.594 169.391 169.402 169.292 
169.148 170.75 170.676 170.926 170.721 170.887 170.451 170.427 169.932 
169.83 169.502 169.326 169.082 168.743 170.771 170.904 171.115 171.211 
171.393 171.275 171.185 170.773 170.454 170.006 169.689 169.337 169.019 
168.669 168.304 170.504 170.741 170.915 171.157 171.324 171.465 171.397 
171.236 170.831 170.46 169.986 169.663 169.306 169.014 168.693 168.332 
168.004 170.165 170.427 170.624 170.876 171.069 171.275 171.336 171.317 
171.061 170.736 170.241 169.861 169.409 169.177 168.828 168.636 168.29 
168.019 167.661 
POINT_DATA 1002
SCALARS Distance double
LOOKUP_TABLE default
157.325 157.714 157.094 156.86 156.453 157.047 156.325 155.772 156.668 
156.787 155.588 155.098 156.079 156.304 156.316 154.859 154.639 155.321 
155.654 155.67 155.561 154.487 154.467 154.793 155.104 155.124 154.965 
154.856 154.418 154.438 154.59 154.769 154.748 154.598 154.512 154.535 
154.461 154.509 154.481 154.451 154.338 154.219 154.179 154.225 154.324 
154.592 154.707 154.449 154.204 153.96 153.825 153.748 153.687 153.688 
153.789 154.752 154.947 154.512 154.18 153.861 153.667 153.497 153.243 
153.001 152.922 153.039 157.743 156.892 157.698 156.602 157.635 156.015 
156.384 157.688 155.526 155.268 156.51 158.016 155.245 154.792 154.804 
157.176 158.69 155.578 154.614 154.604 154.672 158.211 159.576 156.659 
155.227 154.713 154.823 154.674 159.23 160.464 157.966 156.583 155.534 
155.208 155.013 154.659 160.103 161.288 158.992 157.919 156.822 155.994 
155.482 155.027 154.74 160.942 162.073 159.814 158.858 157.951 156.974 
156.102 155.472 155.109 154.988 162.202 161.003 162.333 161.109 162.379 
159.859 161.18 162.244 159.998 158.937 161.107 161.992 160.135 159.056 
157.982 160.973 161.851 160.134 159.142 157.935 156.866 160.949 161.851 
160.066 159.161 157.975 156.772 155.959 160.972 161.798 160.048 159.163 
158.144 157.003 156.096 155.516 160.928 161.656 160.062 159.188 158.278 
157.305 156.463 155.847 155.371 160.869 161.546 160.068 159.221 158.32 
157.371 156.564 156.014 155.601 155.24 154.921 155.118 154.618 155.352 
154.67 154.199 155.685 154.806 154.183 153.784 156.307 155.19 154.332 
153.75 153.253 157.299 156.031 154.854 153.938 153.233 152.773 158.381 
157.201 155.847 154.591 153.552 152.903 152.692 159.352 158.35 157.043 
155.684 154.438 153.499 153.059 152.949 160.258 159.422 158.247 156.934 
155.696 154.614 153.892 153.553 153.344 161.074 160.433 159.454 158.232 
157.032 155.941 155.053 154.508 154.171 153.843 154.621 154.31 154.305 
153.927 154.042 153.986 153.363 153.531 153.697 153.709 152.754 152.748 
152.921 153.242 153.416 152.576 152.409 152.262 152.452 152.816 153.02 
152.75 152.639 152.417 152.262 152.38 152.504 152.604 152.945 152.793 
152.696 152.51 152.432 152.413 152.263 152.339 153.231 152.856 152.677 
152.468 152.314 152.369 152.308 152.117 152.322 154.004 153.354 154.342 
153.842 154.988 152.945 154.708 155.811 153.435 152.56 155.53 156.542 
154.243 152.754 152.107 156.092 157.206 154.95 153.383 152.115 152.02 
156.733 157.978 155.531 154.179 152.764 152.113 152.221 157.589 158.763 
156.319 155.024 153.709 152.716 152.315 152.185 158.394 159.406 157.248 
156.01 154.741 153.603 152.815 152.384 152.216 159.041 159.951 158.057 
156.983 155.831 154.683 153.712 153.061 152.763 152.787 154.738 155.025 
155.791 156.157 156.883 155.418 157.33 158.074 156.591 156.059 158.641 
159.389 157.883 157.311 156.909 159.998 160.648 159.293 158.698 158.249 
157.754 161.205 161.818 160.655 160.112 159.605 159.098 158.535 162.405 
163.095 161.91 161.528 161.015 160.391 159.816 159.291 163.789 164.454 
163.23 162.899 162.496 161.806 161.075 160.493 159.959 165.148 165.627 
164.623 164.216 163.809 163.163 162.379 161.704 161.122 160.53 161.892 
161.447 162.26 161.742 162.617 160.738 161.945 163.009 160.936 159.666 
162.255 163.486 161.093 159.858 158.436 162.749 163.952 161.429 160.084 
158.681 157.266 163.251 164.387 161.92 160.466 158.993 157.571 156.25 
163.703 164.873 162.382 160.963 159.49 158.043 156.727 155.554 164.119 
165.326 162.767 161.437 160.105 158.711 157.384 156.213 155.134 162.189 
162.55 162.866 163.327 163.674 163.034 164.246 164.678 163.969 163.611 
165.221 165.766 164.866 164.679 164.207 166.232 166.763 165.682 165.506 
165.316 164.698 167.238 167.647 166.635 166.257 166.181 165.793 165.075 
168.142 168.486 167.641 167.135 166.98 166.81 166.223 165.529 168.936 
169.26 168.52 167.972 167.655 167.628 167.325 166.691 166.043 169.625 