# vtk DataFile Version 4.0
vtk output
ASCII
DATASET POLYDATA
POINTS 1002 float
-77.5891 -112.503 73.2864 -77.1248 -113.618 72.9537 -77.6915 -113.51 72.3076 
-78.3083 -112.366 72.6907 -78.2587 -113.246 71.5077 -78.2267 -111.337 73.5351 
-79.0062 -112.07 71.9664 -78.8002 -112.833 70.674 -78.996 -111.076 72.9994 
-78.9562 -110.036 73.9172 -79.6886 -111.634 71.2641 -79.5488 -112.406 70.103 
-79.7765 -110.708 72.4036 -79.7447 -109.669 73.4087 -79.782 -108.689 74.5176 
-80.5256 -111.078 70.7237 -80.5909 -111.9 69.7604 -80.5875 -110.19 71.827 
-80.583 -109.198 72.8403 -80.6011 -108.231 73.9271 -80.7012 -107.406 75.1062 
-81.4831 -110.358 70.237 -81.6496 -111.213 69.3964 -81.4861 -109.506 71.2956 
-81.488 -108.575 72.3138 -81.4342 -107.578 73.2771 -81.4907 -106.747 74.4214 
-81.5307 -106.017 75.4891 -82.4536 -109.645 69.8325 -82.6238 -110.535 69.0822 
-82.4461 -108.763 70.8108 -82.5295 -107.937 71.903 -82.4324 -106.936 72.816 
-82.3045 -105.962 73.7689 -82.2764 -105.203 74.8288 -82.1804 -104.489 75.7403 
-83.512 -109.113 69.6486 -83.6687 -109.98 68.9466 -83.4641 -108.117 70.4581 
-83.6066 -107.299 71.5038 -83.6237 -106.44 72.508 -83.3761 -105.392 73.3478 
-83.1482 -104.474 74.2477 -82.9893 -103.746 75.1601 -82.8023 -103.094 75.9953 
-84.6377 -108.616 69.5842 -84.768 -109.432 68.9117 -84.5108 -107.53 70.2176 
-84.5389 -106.551 71.0166 -84.6242 -105.766 72.0128 -84.4828 -104.865 72.9408 
-84.1854 -103.904 73.7725 -83.9242 -103.111 74.6235 -83.6901 -102.464 75.4627 
-83.4727 -101.938 76.2868 -85.6879 -108.031 69.522 -85.7839 -108.858 68.9247 
-85.5071 -106.908 70.0238 -85.3472 -105.76 70.5472 -85.306 -104.868 71.3345 
-85.2567 -104.083 72.3207 -85.0908 -103.245 73.2515 -84.8579 -102.476 74.1052 
-84.5924 -101.835 74.944 -84.3241 -101.306 75.7628 -84.0981 -100.918 76.567 
-77.0515 -114.679 71.9886 -77.4234 -114.39 71.144 -76.7648 -115.549 70.7248 
-76.8303 -115.011 69.6985 -76.19 -116.217 69.4513 -77.7949 -113.926 70.1886 
-76.1248 -115.635 68.2828 -75.748 -117.126 68.4615 -77.1435 -114.435 68.7154 
-78.3995 -113.471 69.4203 -75.9716 -116.774 67.2608 -76.0416 -118.431 67.9406 
-76.7302 -115.183 67.3647 -78.1176 -114.086 68.1616 -79.5037 -113.142 69.0955 
-76.7451 -118.234 66.9977 -77.0441 -119.586 67.9046 -77.0343 -116.458 66.6255 
-78.1788 -114.925 67.0781 -79.6378 -113.832 68.054 -80.827 -112.651 68.8982 
-78.0378 -119.295 67.3681 -78.226 -120.29 68.0947 -78.0559 -117.788 66.8391 
-78.7188 -116.044 66.705 -79.9074 -114.566 67.1448 -81.0693 -113.253 67.9049 
-81.9416 -111.883 68.5576 -79.3316 -119.848 67.8257 -79.3215 -120.788 68.3216 
-79.3877 -118.653 67.4258 -79.7368 -117.138 67.0364 -80.5137 -115.519 66.8438 
-81.4325 -113.916 67.0818 -82.2407 -112.395 67.6239 -82.9652 -111.104 68.2701 
-80.5008 -120.215 68.1996 -80.3823 -121.209 68.6313 -80.6939 -119.153 67.7802 
-80.991 -117.971 67.2901 -81.5166 -116.583 66.8639 -82.2004 -114.916 66.7436 
-82.839 -113.108 66.9599 -83.4394 -111.562 67.4524 -84.0967 -110.43 68.1621 
-81.5768 -120.513 68.5924 -81.4482 -121.484 69.011 -81.8374 -119.524 68.0397 
-82.1735 -118.568 67.3332 -82.5998 -117.481 66.7484 -83.1564 -116.006 66.5641 
-83.7362 -114.145 66.6746 -84.2223 -112.298 66.9435 -84.6879 -110.873 67.4622 
-85.2276 -109.835 68.1999 -82.5969 -121.039 69.1372 -82.7956 -120.038 68.5933 
-83.7796 -120.482 69.1627 -84.0316 -119.49 68.4637 -84.9458 -119.787 69.1444 
-83.1488 -119.123 67.7383 -85.3091 -118.791 68.4381 -86.1981 -118.965 69.2177 
-84.4725 -118.642 67.5195 -83.5704 -118.216 66.8456 -86.6907 -117.98 68.5737 
-87.5268 -118.159 69.3191 -85.8636 -117.885 67.6967 -84.9518 -117.556 66.8172 
-84.053 -116.907 66.4483 -87.9649 -117.084 68.7578 -88.7343 -117.278 69.4639 
-87.2414 -116.864 68.0265 -86.381 -116.422 67.2206 -85.4784 -115.79 66.6346 
-84.6491 -115.046 66.5353 -89.0463 -115.925 69.1143 -89.8705 -116.148 69.7456 
-88.3475 -115.61 68.4217 -87.7152 -115.08 67.6481 -86.9479 -114.399 66.9862 
-86.1266 -113.751 66.7145 -85.219 -113.034 66.7549 -90.2872 -114.656 69.5352 
-91.1292 -115.002 69.9909 -89.4229 -114.256 69.0042 -88.8322 -113.794 68.2509 
-88.3055 -113.231 67.4919 -87.5685 -112.649 67.0933 -86.6428 -112.009 67.0439 
-85.6225 -111.335 67.1614 -91.7445 -113.626 69.75 -92.3725 -114.066 70.1351 
-90.868 -113.133 69.4425 -90.1025 -112.694 68.9337 -89.5377 -112.275 68.2641 
-88.8564 -111.813 67.8252 -87.9304 -111.245 67.7119 -86.9195 -110.578 67.7177 
-85.9911 -110.058 67.8522 -92.9944 -112.75 69.9298 -93.3241 -113.203 70.4023 
-92.3884 -112.218 69.6262 -91.6498 -111.724 69.297 -90.9232 -111.271 68.8515 
-90.1113 -110.815 68.5305 -89.1326 -110.348 68.4792 -88.1205 -109.82 68.4888 
-87.2149 -109.302 68.4805 -86.4474 -108.981 68.6158 -86.7161 -107.726 69.3365 
-87.4795 -107.905 69.147 -87.7098 -106.299 69.6754 -88.3204 -108.212 69.0863 
-88.6484 -106.492 69.5294 -88.7844 -104.693 69.9158 -89.2925 -108.554 69.0326 
-89.6302 -106.675 69.3784 -89.8672 -104.804 69.6922 -89.8367 -103.067 70.0592 
-90.4332 -108.918 68.8777 -90.7348 -106.816 69.1578 -90.9949 -104.899 69.4384 
-90.9545 -103.056 69.7525 -90.7422 -101.513 70.1495 -91.5957 -109.454 68.8491 
-92.0053 -107.199 68.9592 -92.2482 -105.127 69.2551 -92.2329 -103.217 69.5829 
-91.951 -101.424 69.8467 -91.6185 -100.137 70.3254 -92.5212 -110.095 69.1418 
-93.1285 -107.95 69.0694 -93.4517 -105.783 69.2818 -93.5563 -103.741 69.6347 
-93.3828 -101.674 69.8207 -93.0146 -100.09 70.0791 -92.6067 -99.1531 70.7161 
-93.169 -110.694 69.5851 -93.7732 -108.736 69.5715 -94.1813 -106.69 69.6805 
-94.4991 -104.69 69.9194 -94.6355 -102.429 70.0569 -94.4379 -100.424 70.1547 
-94.0087 -99.2919 70.6046 -93.5405 -98.6175 71.3652 -93.6241 -111.291 70.0376 
-94.0773 -109.424 70.2496 -94.4382 -107.486 70.4148 -94.8895 -105.706 70.4978 
-95.3595 -103.617 70.5158 -95.5134 -101.328 70.5285 -95.2224 -99.7633 70.8237 
-94.7052 -98.9697 71.5012 -94.1975 -98.3172 72.2636 -93.8966 -111.875 70.5615 
-94.2951 -110.131 70.9127 -94.6146 -108.239 71.2054 -95.0654 -106.558 71.2627 
-95.6702 -104.808 71.1788 -96.1219 -102.651 71.1172 -96.1197 -100.723 71.2913 
-95.6978 -99.5706 71.8613 -95.1197 -98.8239 72.6342 -94.5835 -98.0947 73.3072 
-86.5707 -106.561 69.8007 -87.5054 -104.891 70.0325 -86.2983 -105.239 70.1815 
-88.5956 -103.304 70.3068 -87.2282 -103.622 70.4414 -86.0645 -104.114 70.7196 
-89.6766 -101.851 70.58 -88.4297 -102.292 70.9206 -87.0331 -102.687 71.1757 
-85.9482 -103.252 71.638 -90.5083 -100.395 70.8241 -89.4668 -100.93 71.3804 
-88.2222 -101.444 71.8183 -86.8821 -101.832 72.2078 -85.86 -102.434 72.7084 
-91.3057 -99.0958 71.1531 -90.0752 -99.335 71.6857 -88.9795 -99.8881 72.2021 
-87.8477 -100.448 72.7016 -86.6934 -100.967 73.1971 -85.7118 -101.671 73.6755 
-92.303 -98.2543 71.6354 -90.8084 -98.0172 71.9997 -89.3962 -98.1976 72.39 
-88.3417 -98.814 72.8968 -87.4059 -99.5349 73.5352 -86.3952 -100.234 74.1278 
-85.4425 -101.021 74.5839 -93.2439 -97.7951 72.3218 -91.884 -97.3225 72.4956 
-90.2108 -97.1111 72.7799 -88.7908 -97.3824 73.2163 -87.8363 -98.0724 73.8554 
-86.9403 -98.8592 74.5437 -85.9706 -99.6327 75.0825 -85.0984 -100.471 75.4648 
-93.8523 -97.4989 73.2383 -92.8317 -97.0013 73.2683 -91.3272 -96.682 73.5001 
-89.6592 -96.6235 73.9238 -88.3755 -96.9559 74.4774 -87.414 -97.6224 75.0675 
-86.45 -98.383 75.578 -85.5461 -99.1901 75.9778 -84.7936 -100.073 76.3017 
-94.4146 -97.5449 74.3591 -93.6402 -96.9456 74.3234 -94.1506 -97.1901 75.5175 
-93.2672 -96.6115 75.7084 -93.8371 -97.0494 76.8684 -92.4965 -96.5459 74.4849 
-92.8402 -96.3724 77.3166 -93.5191 -96.8864 78.4239 -91.9619 -96.2008 76.072 
-90.8687 -96.3164 74.8894 -92.413 -96.2634 78.9147 -93.0744 -96.8489 79.9832 
-91.4142 -95.9454 77.6878 -90.2886 -95.9846 76.4846 -89.2262 -96.3102 75.3964 
-91.7981 -96.6361 80.3498 -92.4014 -97.2729 81.28 -90.872 -96.1519 79.2144 
-89.7114 -95.9293 77.9868 -88.6987 -96.1247 76.8573 -87.9482 -96.713 75.8654 
-90.9836 -97.359 81.5453 -91.6557 -97.9683 82.327 -90.1444 -96.8085 80.6971 
-89.0583 -96.3358 79.633 -88.0245 -96.2379 78.3684 -87.3194 -96.6527 77.1808 
-86.8306 -97.4168 76.2564 -90.2293 -98.0665 82.5527 -90.9597 -98.6768 83.2894 
-89.3642 -97.4738 81.8838 -88.3212 -96.8664 81.1963 -87.2483 -96.5092 80.1246 
-86.5046 -96.7121 78.7165 -86.1038 -97.3641 77.4718 -85.8102 -98.2221 76.6107 
-89.5866 -98.7724 83.5183 -90.2673 -99.4209 84.1526 -88.7431 -98.1436 82.8156 
-87.7413 -97.5117 82.2063 -86.6589 -97.0069 81.4899 -85.801 -96.9433 80.3266 
-85.3781 -97.43 78.9262 -85.1948 -98.2364 77.7759 -85.0111 -99.1421 76.9593 
-88.9626 -99.4904 84.4538 -89.5913 -100.155 84.8455 -88.2014 -98.8805 83.8149 
-87.3179 -98.3637 83.0437 -86.3547 -97.9462 82.3044 -85.4652 -97.7099 81.4573 
-84.8871 -97.8536 80.3076 -84.6469 -98.4376 79.0792 -84.5149 -99.2581 78.0689 
-84.327 -100.104 77.2641 -95.2122 -98.4494 74.055 -95.009 -98.0034 75.2004 
-95.9107 -98.9875 74.8025 -95.6781 -98.6485 76.0056 -96.5 -99.6823 75.5488 
-94.7237 -97.8126 76.3461 -96.2203 -99.3646 76.9188 -96.7684 -100.598 76.473 
-95.3282 -98.5276 77.2029 -94.4045 -97.7527 77.6887 -96.5098 -100.314 78.0636 
-96.7896 -101.853 77.549 -95.8319 -99.23 78.3293 -94.9279 -98.4733 78.654 
-94.0376 -97.5995 79.3329 -96.6386 -101.716 79.1642 -96.7503 -103.348 78.563 
-96.1827 -100.289 79.5652 -95.3799 -99.3162 79.8445 -94.4643 -98.4867 80.338 
-93.5133 -97.6782 80.9308 -96.6559 -103.351 80.0378 -96.7238 -104.863 79.4858 
-96.3179 -101.851 80.4707 -95.6416 -100.6 80.842 -94.7885 -99.6486 81.2969 
-93.8933 -98.8119 81.8141 -92.8576 -98.1923 82.1814 -96.5607 -104.909 80.7895 
-96.6908 -106.316 80.2995 -96.1884 -103.509 81.1014 -95.5688 -102.172 81.4406 
-94.8456 -101.02 81.962 -94.112 -100.085 82.5351 -93.2482 -99.3293 82.9895 
-92.1551 -98.8566 83.2322 -96.368 -106.361 81.394 -96.5574 -107.671 80.8876 
-95.9127 -105.04 81.6742 -95.2864 -103.742 81.9381 -94.6877 -102.494 82.4657 
-94.1348 -101.408 83.1285 -93.4439 -100.547 83.6634 -92.4951 -99.9317 84.0021 
-91.3817 -99.5895 84.1376 -96.0669 -107.704 81.7932 -96.246 -108.838 81.2555 
-95.6174 -106.497 82.1652 -95.0179 -105.284 82.4698 -94.5217 -104.074 82.9855 
[...]
CELL_DATA 2000
SCALARS Distance double
LOOKUP_TABLE default
154.323 154.19 154.175 153.932 153.895 154.01 153.843 153.78 153.525 
153.599 153.71 153.632 153.649 153.427 153.366 153.176 153.47 153.479 
153.39 153.431 153.25 153.229 153.027 153.035 152.942 153.363 153.334 
153.152 153.199 153.019 153.029 152.789 152.808 152.647 152.772 152.674 
153.233 153.162 152.934 152.953 152.823 152.842 152.645 152.582 152.35 
152.395 152.245 152.399 152.219 153.268 153.103 152.889 152.792 152.704 
152.716 152.65 152.56 152.351 152.203 151.995 151.992 151.835 151.908 
151.716 153.446 153.253 153.021 152.822 152.619 152.598 152.504 152.544 
152.369 152.266 151.989 151.866 151.653 151.625 151.468 151.485 151.354 
153.612 153.443 153.155 152.927 152.54 152.431 152.135 152.23 152 
152.1 151.808 151.801 151.516 151.492 151.292 151.297 151.154 151.193 
151.108 154.561 154.624 154.52 154.296 154.315 154.321 154.011 154.091 
153.87 154.032 153.866 153.471 153.61 153.451 153.632 153.545 154.453 
153.814 153.328 153.151 153.081 153.242 153.38 153.503 153.548 155.661 
154.683 154.159 153.443 153.321 153.136 153.393 153.477 153.699 153.647 
153.599 157.042 156.123 155.684 154.698 154.434 153.774 153.863 153.668 
153.874 153.821 153.823 153.652 153.487 158.198 157.473 157.159 156.288 
155.984 155.117 154.968 154.375 154.37 154.064 154.01 153.822 153.691 
153.527 153.438 159.203 158.571 158.313 157.625 157.359 156.589 156.356 
155.602 155.436 154.797 154.63 154.15 153.989 153.719 153.659 153.542 
153.565 160.142 159.55 159.289 158.685 158.435 157.798 157.563 156.892 
156.679 155.977 155.742 155.034 154.787 154.221 154.089 153.796 153.819 
153.705 153.755 160.544 160.801 160.352 159.69 160.956 160.568 159.921 
159.492 158.842 161.06 160.703 160.108 159.715 159.092 158.648 158.007 
161.21 160.845 160.307 159.928 159.334 158.892 158.242 157.8 157.144 
161.33 161.005 160.457 160.124 159.499 159.088 158.36 157.955 157.247 
156.877 156.178 161.304 161.039 160.42 160.163 159.478 159.147 158.352 
157.975 157.212 156.889 156.192 155.851 155.167 161.267 160.974 160.336 
160.046 159.376 159.065 158.357 157.975 157.288 156.902 156.282 155.895 
155.288 154.901 154.389 161.36 161.021 160.454 160.06 159.477 159.082 
158.53 158.116 157.591 157.145 156.636 156.16 155.638 155.153 154.687 
154.309 154.032 161.473 161.178 160.677 160.292 159.765 159.344 158.834 
158.415 157.919 157.509 157.011 156.584 156.074 155.604 155.126 154.693 
154.361 154.077 153.914 153.864 154.324 153.99 153.763 155.035 154.565 
154.34 153.872 153.499 155.894 155.333 155.023 154.5 154.106 153.574 
153.108 156.786 156.179 155.769 155.174 154.728 154.184 153.681 153.137 
152.643 157.737 157.102 156.695 155.97 155.516 154.869 154.416 153.773 
153.25 152.663 152.238 158.72 158.12 157.813 157.024 156.616 155.833 
155.463 154.693 154.238 153.437 152.982 152.369 152.138 159.659 159.124 
158.887 158.177 157.807 157.035 156.7 155.911 155.52 154.616 154.146 
153.312 153.041 152.48 152.467 160.536 160.045 159.82 159.197 158.837 
158.157 157.833 157.148 156.825 155.986 155.545 154.609 154.267 153.533 
153.481 152.975 153.062 161.318 160.882 160.673 160.103 159.773 159.13 
158.83 158.213 157.976 157.273 156.943 156.054 155.698 154.847 154.711 
154.078 154.136 153.625 153.696 153.636 153.38 153.379 153.068 152.992 
152.981 152.549 152.636 152.337 152.618 152.576 152.116 152.099 151.755 
151.906 151.813 152.25 152.254 151.94 151.844 151.54 151.469 151.328 
151.523 151.615 151.875 151.907 151.718 151.747 151.566 151.456 151.258 
151.202 151.164 151.383 151.477 151.745 151.612 151.342 151.415 151.219 
151.342 151.13 151.156 150.977 151.041 151.018 151.235 151.282 152.058 
151.677 151.272 151.069 150.69 150.768 150.507 150.746 150.578 150.782 
150.687 150.859 150.86 151.066 151.1 152.642 152.146 151.711 151.218 
150.735 150.411 150.07 150.088 149.993 150.243 150.25 150.489 150.49 
150.688 150.716 150.922 150.971 153.252 152.761 152.363 151.81 151.374 
150.793 150.43 150.031 149.912 149.855 149.942 150.087 150.171 150.335 
150.38 150.563 150.642 150.844 150.941 153.465 153.555 153.193 152.583 
153.821 153.345 152.708 152.307 151.652 154.24 153.682 152.997 152.499 
151.821 151.376 150.734 154.73 154.134 153.396 152.816 152.088 151.592 
150.961 150.549 150.126 155.275 154.664 153.953 153.28 152.52 151.908 
151.271 150.821 150.413 150.13 150.004 155.83 155.239 154.602 153.926 
153.206 152.472 151.79 151.202 150.753 150.415 150.228 150.1 150.123 
156.37 155.795 155.173 154.57 153.894 153.204 152.485 151.805 151.236 
150.773 150.492 150.285 150.238 150.204 150.298 156.922 156.35 155.732 
155.13 154.479 153.846 153.165 152.494 151.88 151.303 150.937 150.589 
150.507 150.363 150.454 150.423 150.584 157.446 156.919 156.356 155.741 
155.144 154.484 153.902 153.217 152.7 152.034 151.674 151.154 151.04 
150.741 150.827 150.685 150.843 150.773 150.928 154.072 155.119 154.441 
154.196 156.28 155.568 155.329 154.636 154.47 157.467 156.761 156.549 
155.828 155.659 154.995 154.903 158.747 158.007 157.832 157.08 156.918 
156.217 156.118 155.468 155.401 160.162 159.392 159.271 158.452 158.31 
157.529 157.436 156.726 156.663 155.988 155.929 161.594 160.857 160.767 
159.951 159.797 158.976 158.855 158.097 158.031 157.308 157.245 156.542 
156.479 162.936 162.253 162.124 161.376 161.145 160.382 160.167 159.461 
159.34 158.668 158.589 157.89 157.806 157.098 157.025 164.108 163.499 
163.299 162.607 162.3 161.586 161.306 160.651 160.496 159.891 159.811 
159.181 159.09 158.413 158.308 157.626 157.544 165.021 164.531 164.306 
163.683 163.369 162.678 162.422 161.765 161.668 161.055 161.039 160.4 
160.339 159.659 159.538 158.864 158.737 158.099 158.003 161.669 161.978 
161.584 161.025 162.326 161.895 161.313 160.837 160.156 162.797 162.303 
161.744 161.185 160.498 159.945 159.261 163.421 162.856 162.289 161.672 
160.971 160.356 159.639 159.098 158.43 164.075 163.503 162.856 162.208 
161.413 160.794 159.996 159.456 158.692 158.207 157.423 164.553 164.057 
163.327 162.699 161.801 161.165 160.275 159.725 158.903 158.41 157.594 
157.092 156.256 164.853 164.412 163.669 163.08 162.178 161.528 160.628 
160.011 159.193 158.635 157.882 157.334 156.596 156.02 155.326 165.085 
164.68 163.995 163.423 162.597 161.941 161.106 160.442 159.661 159.029 
158.323 157.733 157.085 156.496 155.875 155.281 154.723 165.208 164.894 
164.284 163.79 163.05 162.43 161.656 160.989 160.231 159.567 158.852 
158.24 157.594 157.029 156.419 155.855 155.266 154.729 154.212 162.049 
162.691 162.392 162.405 163.374 163.073 163.131 162.763 162.766 164.127 
163.819 163.934 163.546 163.566 163.155 163.209 164.924 164.593 164.752 
164.401 164.446 163.998 164.038 163.659 163.813 165.816 165.383 165.503 
165.204 165.312 164.905 164.921 164.502 164.63 164.319 164.499 166.806 
166.278 166.281 165.94 166.072 165.744 165.788 165.372 165.414 165.09 
165.245 164.964 165.036 167.665 167.2 167.097 166.705 166.744 166.453 
166.499 166.163 166.147 165.813 165.867 165.623 165.714 165.408 165.365 
168.227 167.923 167.795 167.433 167.342 167.045 167.01 166.756 166.723 
166.45 166.438 166.189 166.232 166.001 166.008 165.678 165.57 168.562 
168.389 168.314 168.024 167.885 167.565 167.452 167.194 167.158 166.941 
166.932 166.703 166.687 166.465 166.435 166.209 166.123 165.815 165.644 
168.693 168.844 168.714 168.507 168.868 168.826 168.622 168.433 168.1 
168.636 168.739 168.575 168.499 168.192 167.982 167.654 168.155 168.357 
168.231 168.346 168.151 168.073 167.816 167.607 167.368 167.688 167.841 
167.723 167.912 167.814 167.939 167.789 167.744 167.53 167.364 167.145 
167.351 167.451 167.353 167.472 167.398 167.551 167.439 167.552 167.351 
167.375 167.132 167.068 166.84 166.968 167.106 167.005 167.152 167.086 
167.213 167.11 167.183 166.993 167.048 166.826 166.887 166.687 166.703 
166.52 166.592 166.689 166.549 166.728 166.665 166.877 166.827 166.933 
166.8 166.787 166.609 166.594 166.441 166.473 166.335 166.365 166.194 
166.414 166.401 166.27 166.321 166.263 166.428 166.414 166.601 166.532 
166.626 166.484 166.48 166.308 166.284 166.109 166.127 165.937 165.974 
165.733 166.326 166.182 166.259 166.217 165.898 166.156 166.205 166.188 
166.183 165.175 165.754 165.93 166.122 166.06 166.138 166.203 164.06 
164.823 165.039 165.568 165.493 165.794 165.749 166.081 166.223 162.882 
163.628 163.848 164.496 164.507 164.976 164.947 165.419 165.581 166.052 
166.22 161.686 162.437 162.708 163.373 163.555 164.041 164.145 164.582 
164.785 165.312 165.565 166.001 166.093 160.442 161.196 161.495 162.256 
162.552 163.185 163.388 163.861 164.004 164.49 164.665 165.213 165.35 
165.794 165.833 159.334 159.985 160.248 161.004 161.287 162.074 162.28 
162.96 163.007 163.577 163.567 164.168 164.233 164.866 164.975 165.498 
165.584 158.426 158.968 159.183 159.812 160.041 160.761 160.938 161.67 
161.711 162.367 162.308 162.938 162.956 163.649 163.807 164.499 164.684 
165.246 165.357 166.366 166.129 166.212 166.094 165.547 165.75 165.488 
165.75 165.579 164.716 164.981 164.59 164.894 164.571 164.994 164.734 
163.677 164.025 163.622 163.922 163.538 163.883 163.57 163.998 163.676 
162.507 162.894 162.504 162.883 162.504 162.859 162.508 162.874 162.551 
162.926 162.563 161.455 161.757 161.32 161.679 161.243 161.688 161.29 
161.755 161.37 161.8 161.398 161.786 161.355 160.532 160.787 160.307 
160.538 160.021 160.367 159.937 160.415 160.039 160.53 160.122 160.559 
160.12 160.527 160.105 159.563 159.851 159.372 159.574 159.045 159.261 
158.836 159.167 158.855 159.25 158.925 159.306 158.934 159.309 158.95 
159.338 159.025 158.597 158.867 158.426 158.643 158.163 158.363 157.964 
158.221 157.932 158.235 157.955 158.25 157.929 158.232 157.924 158.266 
158.005 158.375 158.143 166.466 166.496 166.461 166.279 166.346 166.375 
166.237 166.176 165.824 166.248 166.175 166.028 166.061 165.82 165.643 
165.101 166.297 166.109 165.834 165.827 165.625 165.585 165.124 164.816 
164.083 166.159 166.073 165.645 165.594 165.272 165.311 164.887 164.739 
164.022 163.672 162.879 165.668 165.757 165.321 165.296 164.834 164.862 
164.392 164.378 163.72 163.511 162.738 162.455 161.781 165.029 165.191 
164.848 164.89 164.416 164.387 163.857 163.835 163.233 163.132 162.43 
162.245 161.581 161.4 160.819 164.398 164.555 164.237 164.368 163.947 
163.953 163.407 163.342 162.749 162.662 162.031 161.9 161.253 161.119 
160.522 160.404 159.829 163.816 163.921 163.558 163.717 163.325 163.423 
162.908 162.886 162.286 162.215 161.615 161.517 160.909 160.776 160.176 
160.056 159.499 159.39 158.853 163.389 162.601 163.004 163.067 161.714 
162.178 162.203 162.689 162.787 160.563 161.184 161.194 161.748 161.776 
162.329 162.352 159.285 159.947 160.002 160.627 160.619 161.214 161.187 
161.772 161.729 158.282 158.789 158.866 159.417 159.407 159.984 159.94 
160.548 160.522 161.118 161.075 157.43 157.888 157.869 158.34 158.252 
158.768 158.692 159.287 159.276 159.903 159.896 160.472 160.403 156.36 
156.876 156.707 157.242 157.049 157.587 157.458 158.047 158.041 158.676 
158.706 159.299 159.257 159.785 159.691 155.287 155.684 155.444 155.951 
155.782 156.344 156.282 156.857 156.904 157.499 157.585 158.157 158.169 
158.675 158.605 159.093 159.021 154.59 154.749 154.519 154.817 154.74 
155.198 155.291 155.812 155.96 156.477 156.593 157.105 157.145 157.636 
157.593 158.056 157.983 158.46 158.402 154.286 153.861 154.067 154.141 
153.498 153.682 153.796 154.049 154.351 153.202 153.365 153.545 153.793 
154.161 154.466 154.947 153.016 153.135 153.282 153.53 153.885 154.269 
154.752 155.126 155.618 152.785 152.957 153.023 153.23 153.427 153.835 
154.215 154.749 155.196 155.692 156.15 152.309 152.601 152.655 152.906 
153.004 153.319 153.548 154.037 154.415 155.04 155.51 156.124 156.606 
151.759 152.042 152.128 152.45 152.622 152.924 153.156 153.465 153.79 
154.25 154.735 155.369 155.931 156.554 157.05 151.398 151.574 151.683 
151.955 152.203 152.548 152.881 153.187 153.536 153.83 154.277 154.722 
155.305 155.88 156.454 157 157.47 151.194 151.324 151.447 151.63 
151.857 152.158 152.492 152.871 153.253 153.613 154.034 154.405 154.919 
155.374 155.933 156.437 156.946 157.433 157.888 157.98 157.01 157.589 
157.764 156.038 156.605 156.763 157.343 157.524 155.069 155.63 155.794 
156.36 156.553 157.138 157.378 154.116 154.637 154.756 155.352 155.526 
156.161 156.421 157.053 157.351 153.213 153.655 153.676 154.256 154.404 
155.079 155.331 156.039 156.354 157.034 157.335 152.425 152.764 152.728 
153.197 153.347 153.974 154.265 154.948 155.279 155.977 156.312 156.99 
157.289 151.83 152.064 152.023 152.348 152.452 152.981 153.268 153.925 
154.255 154.925 155.256 155.944 156.293 156.961 157.293 151.417 151.574 
151.513 151.729 151.717 152.116 152.264 152.887 153.15 153.861 154.153 
154.877 155.227 155.955 156.348 157.018 157.388 151.109 151.21 151.097 
151.244 151.132 151.39 151.384 151.86 152.036 152.703 153.007 153.746 
154.124 154.881 155.319 156.058 156.497 157.157 157.542 160.535 159.584 
160.323 160.867 158.576 159.331 159.873 160.669 161.254 157.51 158.32 
158.866 159.664 160.275 161.068 161.64 156.304 157.234 157.877 158.698 
159.337 160.115 160.729 161.46 162.001 155.196 156.07 156.84 157.717 
158.428 159.226 159.883 160.606 161.195 161.858 162.402 154.706 155.232 
156.012 156.747 157.482 158.285 158.969 159.768 160.422 161.126 161.715 
162.327 162.866 154.827 155.053 155.729 156.165 156.829 157.411 158.032 
158.787 159.468 160.305 160.975 161.681 162.228 162.8 163.254 154.961 
155.171 155.697 156.031 156.619 156.982 157.509 157.977 158.572 159.309 
160.029 160.858 161.474 162.138 162.561 163.105 163.438 154.757 155.053 
155.423 155.858 156.398 156.825 157.342 157.662 158.145 158.587 159.22 
159.925 160.606 161.325 161.812 162.384 162.708 163.218 163.496 161.195 
161.58 161.697 162.32 161.979 162.108 162.758 162.853 163.476 162.348 
162.502 163.161 163.289 163.971 164.063 164.712 162.703 162.87 163.558 
163.696 164.41 164.557 165.318 165.38 166.016 163.096 163.255 164.006 
164.142 164.874 165.004 165.77 165.937 166.658 166.675 167.188 163.508 
163.664 164.424 164.608 165.358 165.488 166.191 166.342 167.016 167.165 
167.681 167.685 168.001 163.832 164.02 164.693 164.94 165.642 165.876 
166.536 166.72 167.322 167.467 167.944 168.009 168.286 168.273 168.411 
163.975 164.22 164.783 165.067 165.637 165.965 166.547 166.885 167.448 
167.701 168.142 168.24 168.486 168.467 168.57 168.528 168.571 163.991 
164.251 164.733 165.02 165.46 165.793 166.244 166.67 167.162 167.603 
168.017 168.302 168.522 168.607 168.682 168.663 168.699 168.649 168.667 
161.184 162.284 161.65 161.459 163.434 162.774 162.574 161.893 161.623 
164.613 163.922 163.719 163.03 162.751 162.026 161.716 165.813 165.078 
164.797 164.129 163.877 163.187 162.874 162.128 161.838 166.981 166.265 
165.91 165.177 164.889 164.257 163.996 163.304 162.966 162.247 161.944 
167.907 167.386 167.113 166.354 166.001 165.269 164.955 164.314 163.95 
163.295 162.89 162.259 161.91 168.384 168.152 168.009 167.492 167.13 
166.399 165.913 165.201 164.702 164.093 163.619 163.072 162.674 162.143 
161.829 168.52 168.448 168.324 168.117 167.758 167.289 166.681 166.037 
165.376 164.754 164.213 163.688 163.297 162.83 162.547 162.077 161.853 
168.57 168.501 168.331 168.225 167.864 167.604 167.011 166.557 165.89 
165.354 164.821 164.302 163.94 163.459 163.201 162.756 162.546 162.113 
161.916 166.518 166.702 166.615 166.598 167.045 166.876 166.842 166.652 
166.521 167.429 167.261 167.253 167.003 166.93 166.638 166.537 167.803 
167.644 167.689 167.465 167.454 167.168 167.133 166.794 166.693 168.245 
168.046 168.066 167.868 167.819 167.629 167.537 167.327 167.146 166.852 
166.541 168.659 168.47 168.386 168.181 168.008 167.844 167.607 167.489 
167.163 167.029 166.597 166.403 165.933 168.88 168.775 168.643 168.443 
168.224 167.995 167.709 167.486 167.104 166.9 166.446 166.277 165.821 
165.669 165.243 168.883 168.877 168.79 168.661 168.518 168.281 168.082 
167.74 167.422 167.01 166.603 166.243 165.861 165.607 165.26 165.047 
164.677 168.752 168.812 168.776 168.76 168.701 168.588 168.483 168.215 
167.968 167.518 167.126 166.623 166.233 165.83 165.508 165.192 164.857 
164.555 164.172 
POINT_DATA 1002
SCALARS Distance double
LOOKUP_TABLE default
154.074 154.498 154.4 154.056 154.121 153.67 153.858 153.712 153.62 
153.291 153.567 153.524 153.476 153.193 153.05 153.352 153.541 153.257 
153.025 152.869 152.915 153.116 153.437 152.995 152.812 152.539 152.539 
152.576 152.939 153.328 152.756 152.726 152.404 152.114 152.09 151.998 
153.048 153.434 152.688 152.675 152.558 152.098 151.779 151.642 151.512 
153.282 153.628 152.738 152.439 152.407 152.149 151.728 151.459 151.307 
151.246 153.423 153.789 152.767 152.122 151.85 151.75 151.532 151.295 
151.128 151.031 151.051 154.79 154.374 154.713 153.882 154.354 153.783 
153.367 154.381 153.17 153.407 153.7 155.282 152.925 153.156 153.584 
155.07 156.631 153.712 153.335 153.698 153.823 156.67 157.827 155.315 
154.282 153.981 153.95 153.701 157.926 158.842 156.884 155.759 154.869 
154.268 153.82 153.558 158.948 159.821 158.07 157.129 156.186 155.26 
154.369 153.784 153.639 159.883 160.725 159.04 158.2 157.366 156.49 
155.481 154.518 153.971 153.851 161.027 160.15 161.23 160.327 161.314 
159.289 160.471 161.4 159.532 158.46 160.669 161.566 159.786 158.69 
157.58 160.784 161.644 159.922 158.795 157.6 156.569 160.693 161.578 
159.787 158.73 157.538 156.505 155.51 160.657 161.569 159.663 158.683 
157.664 156.67 155.678 154.684 160.843 161.674 159.868 158.907 158.005 
157.107 156.137 155.103 154.278 161.021 161.729 160.172 159.262 158.339 
157.419 156.514 155.577 154.702 154.107 153.7 154.169 153.425 154.831 
154.027 153.051 155.597 154.649 153.651 152.629 156.434 155.286 154.26 
153.139 152.167 157.462 156.201 155.07 153.928 152.689 151.863 158.567 
157.42 156.236 155.09 153.703 152.561 151.997 159.548 158.553 157.456 
156.413 155.063 153.678 152.888 152.52 160.42 159.497 158.468 157.581 
156.488 155.091 154.036 153.52 153.148 161.208 160.397 159.43 158.595 
157.758 156.589 155.418 154.681 154.209 153.734 153.019 152.506 152.128 
152.18 151.671 151.474 151.961 151.687 151.268 151.251 151.601 151.599 
151.42 151.093 151.156 151.379 151.052 151.014 150.963 150.882 151.025 
151.661 150.781 150.244 150.27 150.508 150.677 150.883 152.261 151.217 
150.213 149.758 149.957 150.29 150.509 150.76 152.877 151.955 150.955 
150.128 149.856 150.019 150.211 150.425 150.745 153.785 152.919 153.962 
153.157 154.347 152.052 153.547 154.83 152.292 151.126 154.03 155.333 
152.615 151.365 150.399 154.633 155.865 153.201 151.75 150.705 150.142 
155.226 156.405 153.951 152.471 151.157 150.405 150.145 155.759 156.949 
154.538 153.197 151.795 150.765 150.313 150.262 156.344 157.476 155.096 
153.807 152.495 151.356 150.695 150.518 150.588 156.941 157.923 155.786 
154.551 153.353 152.254 151.416 151.015 150.953 150.992 154.698 154.842 
155.821 156.044 156.976 155.105 157.267 158.161 156.339 155.536 158.597 
159.487 157.638 156.781 156.043 160.097 160.906 159.124 158.173 157.358 
156.593 161.573 162.309 160.636 159.633 158.762 157.976 157.171 162.881 
163.622 161.923 160.88 159.992 159.269 158.527 157.723 163.999 164.708 
163.023 161.959 161.085 160.417 159.752 158.994 158.21 164.889 165.468 
164.032 163.056 162.256 161.669 161.035 160.234 159.39 158.614 162.073 
161.476 162.391 161.824 162.768 160.645 162.321 163.308 161.091 159.763 
162.943 164.016 161.608 160.219 158.941 163.554 164.658 162.078 160.561 
159.213 157.928 163.963 165.043 162.471 160.863 159.408 158.096 156.764 
164.237 165.283 162.812 161.258 159.769 158.409 157.146 155.883 164.527 
165.452 163.226 161.76 160.306 158.915 157.649 156.464 155.283 162.349 
162.757 162.971 163.497 163.657 163.145 164.309 164.421 164.002 163.556 
165.055 165.3 164.899 164.443 164.119 165.798 166.355 165.663 165.379 
164.949 164.826 166.686 167.382 166.364 166.196 165.797 165.502 165.411 
167.539 168.078 167.07 166.804 166.503 166.146 165.961 165.774 168.155 
168.452 167.697 167.266 166.965 166.706 166.468 166.274 165.981 168.565 
168.673 168.226 167.737 167.357 167.156 166.94 166.658 166.377 166.016 