# vtk DataFile Version 4.0
vtk output
ASCII
DATASET POLYDATA
POINTS 1002 float
-81.0058 -111.043 73.8036 -80.9796 -112.626 73.5218 -81.1261 -112.263 72.4512 
-81.2233 -110.439 72.7582 -81.1313 -111.677 71.4649 -81.2 -109.248 74.0378 
-81.3772 -109.803 71.7765 -81.2892 -111.02 70.724 -81.4005 -108.539 73.0194 
-81.5922 -107.55 74.198 -81.7316 -109.22 71.0011 -81.7553 -110.439 70.0748 
-81.7245 -108.002 72.0915 -81.8962 -106.949 73.2823 -82.1903 -106.016 74.3963 
-82.3383 -108.65 70.3251 -82.4084 -109.88 69.4363 -82.3283 -107.502 71.3377 
-82.5102 -106.509 72.4815 -82.7933 -105.522 73.6049 -82.9884 -104.535 74.6323 
-83.1429 -108.074 69.7756 -83.2154 -109.197 68.9765 -83.1383 -106.931 70.6827 
-83.2948 -105.938 71.7485 -83.5199 -104.936 72.8579 -83.6773 -103.894 73.8713 
-83.7611 -102.963 74.8315 -84.1012 -107.433 69.4177 -84.1104 -108.323 68.6376 
-84.0687 -106.359 70.186 -84.0916 -105.231 71.0392 -84.1601 -104.133 72.0526 
-84.2108 -103.058 73.0736 -84.2628 -102.087 74.0673 -84.313 -101.221 75.0275 
-85.0096 -106.616 69.0504 -84.9209 -107.33 68.2216 -84.9921 -105.694 69.8017 
-84.8604 -104.473 70.4417 -84.7716 -103.228 71.2526 -84.7532 -102.167 72.2361 
-84.7542 -101.234 73.2441 -84.7587 -100.346 74.265 -84.7067 -99.4661 75.1738 
-85.7944 -105.713 68.6064 -85.6786 -106.399 67.8178 -85.8312 -104.895 69.3904 
-85.6395 -103.691 69.9477 -85.4207 -102.34 70.5602 -85.4098 -101.298 71.4765 
-85.4556 -100.5 72.4834 -85.3847 -99.6636 73.4481 -85.2298 -98.7699 74.3676 
-85.0411 -97.9291 75.1573 -86.5846 -104.918 68.2713 -86.5148 -105.646 67.619 
-86.6565 -104.122 69.0118 -86.5227 -103.01 69.5529 -86.2232 -101.653 70.0109 
-86.1113 -100.549 70.7869 -86.2123 -99.8309 71.8272 -86.1651 -99.1038 72.7772 
-85.8912 -98.2175 73.5743 -85.593 -97.3602 74.3106 -85.3783 -96.6753 75.0214 
-80.9922 -113.76 72.5729 -80.8596 -113.392 71.4031 -80.5788 -114.596 71.6225 
-80.2446 -114.11 70.4925 -79.9464 -115.317 70.8274 -80.71 -112.72 70.5363 
-79.6279 -114.739 69.6811 -79.5244 -116.292 70.139 -80.0601 -113.386 69.6341 
-80.9437 -112.046 69.8632 -79.3819 -115.773 68.6918 -79.5737 -117.408 69.4159 
-79.4941 -114.151 68.4266 -80.3697 -112.844 68.7246 -81.5607 -111.54 69.1388 
-79.8064 -117.012 67.7455 -80.2534 -118.302 68.8003 -79.4623 -115.383 67.0372 
-79.887 -113.751 67.2167 -81.153 -112.412 67.9413 -82.374 -110.939 68.5422 
-80.8705 -117.835 67.5554 -81.3102 -118.884 68.6184 -80.3193 -116.526 66.5341 
-80.1628 -114.839 66.2013 -80.9806 -113.188 66.7955 -82.2899 -111.715 67.6336 
-83.3255 -110.047 68.1982 -81.9496 -118.036 68.1583 -82.2274 -119.155 68.8848 
-81.5988 -116.912 67.3473 -81.3052 -115.592 66.594 -81.5849 -113.986 66.4225 
-82.5285 -112.413 66.9239 -83.5121 -110.784 67.4957 -84.2507 -108.975 67.8554 
-82.7962 -117.939 68.8399 -83.035 -119.172 69.2728 -82.6391 -116.781 68.4216 
-82.5494 -115.81 67.719 -82.6891 -114.647 66.8803 -83.2421 -113.213 66.577 
-83.9633 -111.618 66.8948 -84.5482 -109.772 67.2398 -85.0789 -107.91 67.4645 
-83.7677 -117.931 69.1428 -84.039 -119.114 69.5132 -83.5956 -116.778 68.8416 
-83.5747 -115.947 68.3149 -83.742 -115.142 67.3606 -84.1309 -113.977 66.4833 
-84.6358 -112.486 66.3704 -85.0742 -110.7 66.7551 -85.4716 -108.737 67.0323 
-85.9545 -106.987 67.2393 -85.1281 -118.449 69.2981 -84.8811 -117.346 68.8256 
-86.3131 -117.941 68.8808 -86.1369 -117.109 68.1336 -87.2687 -117.359 68.4618 
-84.7365 -116.467 68.2859 -87.2793 -116.557 67.6479 -88.1229 -116.292 68.362 
-86.0943 -116.318 67.3734 -84.8039 -115.724 67.472 -88.3755 -115.239 67.78 
-89.1731 -114.87 68.5696 -87.4372 -115.422 67.0248 -86.2522 -115.19 66.5718 
-85.0929 -114.644 66.462 -89.492 -113.64 68.0998 -90.2281 -113.355 68.828 
-88.656 -113.86 67.2993 -87.6607 -113.898 66.4874 -86.5237 -113.637 65.9743 
-85.4838 -113.135 65.995 -90.5136 -112.024 68.2428 -91.1578 -111.71 68.9915 
-89.7477 -112.238 67.5292 -88.9058 -112.332 66.8526 -87.8923 -112.192 66.2748 
-86.7936 -111.81 66.098 -85.8375 -111.299 66.3515 -91.5946 -110.399 68.2989 
-92.2781 -110.232 68.9468 -90.8324 -110.522 67.6873 -90.0863 -110.597 67.1901 
-89.2382 -110.512 66.7625 -88.1734 -110.157 66.5569 -87.1035 -109.695 66.6462 
-86.1911 -109.223 66.8254 -92.9534 -109.122 68.1904 -93.6616 -109.249 68.6342 
-92.1283 -108.931 67.8271 -91.3362 -108.747 67.5176 -90.5762 -108.581 67.1342 
-89.6411 -108.295 66.8516 -88.5773 -107.933 66.8831 -87.5586 -107.607 67.0119 
-86.6525 -107.282 67.0708 -94.4003 -108.22 67.8554 -94.9633 -108.513 68.2364 
-93.6307 -107.789 67.6783 -92.7388 -107.307 67.5996 -91.867 -106.888 67.3203 
-90.9828 -106.529 66.9267 -90.0352 -106.244 66.8605 -89.0631 -106.073 67.0943 
-88.0806 -105.929 67.2611 -87.1825 -105.759 67.3607 -87.4845 -104.478 67.9303 
-88.3123 -104.496 67.6704 -88.486 -103.118 68.2082 -89.3233 -104.533 67.4326 
-89.3857 -102.991 67.8355 -89.3711 -101.472 68.1649 -90.3179 -104.562 67.0385 
-90.435 -102.927 67.4191 -90.3229 -101.226 67.6637 -90.2046 -99.7766 67.9087 
-91.2473 -104.725 66.7227 -91.4393 -102.984 66.9373 -91.4621 -101.151 67.2849 
-91.2915 -99.5407 67.4654 -91.1338 -98.3322 67.9088 -92.2514 -105.133 66.8767 
-92.4686 -103.299 66.6627 -92.6296 -101.283 66.9599 -92.5821 -99.4656 67.2571 
-92.3116 -98.1427 67.5717 -92.0421 -97.0802 68.2287 -93.3731 -105.695 67.2085 
-93.7427 -103.87 66.7383 -93.9334 -101.689 66.6945 -93.9796 -99.5747 66.9616 
-93.702 -98.0471 67.2781 -93.2418 -96.9128 67.8457 -92.8321 -95.9044 68.597 
-94.4571 -106.312 67.2793 -95.0566 -104.517 66.852 -95.3246 -102.329 66.6209 
-95.3926 -100.026 66.6498 -95.2113 -98.2103 66.8601 -94.7296 -96.9389 67.415 
-94.1844 -95.8728 68.2411 -93.6894 -94.9492 69.0156 -95.2767 -106.908 67.3228 
-95.9741 -105.15 66.9549 -96.3367 -103.051 66.8131 -96.4553 -100.812 66.7776 
-96.4341 -98.8061 66.7861 -96.1602 -97.2901 67.1552 -95.6874 -96.1237 67.9695 
-95.1844 -95.1373 68.844 -94.6407 -94.3037 69.5582 -95.7676 -107.373 67.6718 
-96.4077 -105.73 67.333 -96.7902 -103.77 67.3022 -96.9777 -101.733 67.3823 
-97.1161 -99.7435 67.3489 -97.1067 -97.9824 67.4586 -96.8319 -96.5916 68.0246 
-96.4416 -95.514 68.8184 -96.0072 -94.6285 69.5296 -95.4524 -93.8496 70.1433 
-87.5294 -103.618 68.5721 -88.4718 -102.071 68.7249 -87.5292 -102.593 69.1685 
-89.2879 -100.327 68.6044 -88.3855 -100.902 69.2031 -87.2866 -101.288 69.5856 
-90.0939 -98.6582 68.5236 -89.1142 -99.1496 69.2027 -88.0614 -99.6193 69.6775 
-86.9798 -100.018 70.1589 -91.0047 -97.2342 68.7559 -89.8823 -97.5071 69.3795 
-88.7675 -97.9685 69.9024 -87.7784 -98.5468 70.4652 -86.9485 -99.1643 71.1774 
-91.8194 -95.9678 69.0775 -90.741 -96.1234 69.6555 -89.5752 -96.4331 70.2246 
-88.5583 -97.0265 70.8487 -87.7236 -97.7554 71.6136 -86.9416 -98.4452 72.2847 
-92.5231 -94.8419 69.38 -91.4519 -94.9267 69.8753 -90.3897 -95.1323 70.4953 
-89.3875 -95.5589 71.1941 -88.4567 -96.2051 71.9568 -87.5015 -96.8619 72.6171 
-86.6159 -97.5171 73.0968 -93.357 -93.9768 69.828 -92.1271 -93.8591 70.2049 
-91.0589 -93.9339 70.7656 -90.106 -94.2051 71.4675 -89.1788 -94.7079 72.186 
-88.116 -95.2819 72.7898 -87.0226 -95.8685 73.2493 -86.1798 -96.5791 73.7253 
-94.2679 -93.3761 70.4047 -92.9766 -93.0246 70.7313 -91.8123 -92.8827 71.189 
-90.7772 -92.9762 71.7955 -89.8003 -93.3451 72.4273 -88.7826 -93.8931 72.9555 
-87.6572 -94.4583 73.3843 -86.6355 -95.1054 73.838 -85.9036 -95.885 74.4081 
-95.4172 -93.0819 70.9324 -94.206 -92.525 71.2649 -95.265 -92.2455 71.864 
-94.1301 -91.7029 72.2176 -95.0959 -91.5157 72.9352 -92.966 -92.1395 71.668 
-94.0281 -91.1232 73.3426 -94.9531 -91.049 74.2886 -92.9813 -91.4484 72.712 
-91.7801 -92.0185 72.2126 -93.7871 -90.8354 74.9209 -94.7468 -90.926 76.0218 
-92.7828 -91.0539 74.0463 -91.6356 -91.4454 73.4044 -90.5486 -92.1928 72.8364 
-93.4127 -90.8932 76.763 -94.4183 -91.2299 77.704 -92.3203 -90.8453 75.7584 
-91.1957 -91.1062 74.8835 -90.1391 -91.6978 74.0589 -89.3628 -92.681 73.3605 
-93.0277 -91.3788 78.2241 -94.0236 -91.8419 78.9039 -91.8874 -91.009 77.3616 
-90.7203 -91.0027 76.4484 -89.6666 -91.4729 75.5042 -88.8776 -92.301 74.5447 
-88.2498 -93.3296 73.7917 -92.6365 -92.0668 79.2842 -93.5993 -92.4912 79.873 
-91.5666 -91.6572 78.5846 -90.4652 -91.4515 77.8001 -89.3843 -91.684 76.9541 
-88.5087 -92.2928 76.0237 -87.8291 -93.1017 75.0527 -87.1726 -94.033 74.274 
-92.2215 -92.7185 80.3827 -93.1531 -93.0783 80.9627 -91.2166 -92.4535 79.7261 
-90.2586 -92.292 79.0479 -89.2596 -92.3575 78.3154 -88.2867 -92.6932 77.5287 
-87.5179 -93.2433 76.6293 -86.8606 -93.9624 75.6461 -86.2727 -94.8407 74.8577 
-91.8666 -93.3337 81.5662 -92.736 -93.6335 82.0869 -90.8946 -93.1888 80.9095 
-90.004 -93.1122 80.269 -89.1264 -93.1125 79.6018 -88.1675 -93.2746 78.8753 
-87.3015 -93.635 78.1073 -86.6129 -94.1671 77.1883 -86.0219 -94.8411 76.2062 
-85.5874 -95.6766 75.4624 -96.3969 -93.9272 70.3988 -96.348 -93.1421 71.2962 
-97.103 -94.0633 70.8256 -97.1457 -93.3378 71.908 -97.8482 -94.3766 71.5145 
-96.1966 -92.3633 72.4293 -97.9774 -93.7586 72.7744 -98.7091 -94.9502 72.349 
-97.0768 -92.7769 73.2588 -96.0342 -91.7796 73.7597 -98.6717 -94.3916 73.6868 
-99.1349 -95.7588 73.1896 -97.7998 -93.449 74.1798 -96.8666 -92.5056 74.7169 
-95.8718 -91.4629 75.3218 -98.9615 -95.319 74.6506 -99.0315 -96.9561 74.1446 
-98.2624 -94.2451 75.1185 -97.3753 -93.4836 75.6011 -96.5639 -92.3906 76.2587 
-95.6006 -91.4612 77.041 -99.1182 -96.7564 75.7992 -99.0273 -98.5787 75.1947 
-98.6633 -95.3104 76.2558 -97.778 -94.4843 76.5774 -96.9738 -93.5594 77.078 
-96.1914 -92.4216 77.8238 -95.1994 -91.8501 78.5015 -99.2921 -98.485 76.8569 
-99.1338 -100.148 76.042 -99.0355 -96.7827 77.3953 -98.2383 -95.6091 77.619 
-97.3636 -94.7412 77.9553 -96.6077 -93.6604 78.5732 -95.7603 -92.7869 79.1733 
-94.7505 -92.4986 79.5876 -99.1642 -100.001 77.5115 -98.9024 -101.281 76.582 
-99.0682 -98.4066 78.1348 -98.4276 -96.9724 78.3382 -97.6026 -95.9417 78.6376 
-96.9098 -94.9758 79.3072 -96.1582 -94.038 79.9123 -95.2541 -93.4558 80.2774 
-94.2537 -93.1907 80.6208 -98.6829 -101.158 77.8508 -98.3796 -102.108 76.9746 
-98.7143 -99.8813 78.5111 -98.2614 -98.4863 78.765 -97.5603 -97.2812 79.0462 
[...]
CELL_DATA 2000
SCALARS Distance double
LOOKUP_TABLE default
155.438 154.649 154.84 154.387 153.839 154.002 153.547 153.741 153.355 
153.245 153.288 152.861 152.956 152.615 152.82 152.594 152.845 152.806 
152.408 152.419 152.154 152.253 152.108 152.243 152.101 152.571 152.487 
152.114 152.073 151.832 151.901 151.761 151.868 151.702 151.799 151.592 
152.36 152.296 151.969 151.87 151.575 151.578 151.333 151.446 151.166 
151.313 150.999 151.179 150.884 152.041 152.094 151.818 151.758 151.369 
151.286 150.862 150.906 150.519 150.665 150.311 150.497 150.185 150.391 
150.074 151.63 151.739 151.52 151.547 151.127 151.01 150.44 150.375 
149.92 150.02 149.73 149.875 149.631 149.755 149.483 149.596 149.266 
151.363 151.39 151.228 151.249 150.911 150.763 150.195 149.99 149.501 
149.497 149.285 149.419 149.284 149.35 149.107 149.115 148.793 148.83 
148.511 155.894 156.073 155.731 155.084 155.938 155.713 155.117 154.83 
154.231 155.879 155.52 154.889 154.711 154.237 154.044 153.609 156.188 
155.578 154.793 154.463 153.985 153.937 153.677 153.542 153.217 156.853 
156.063 155.197 154.536 153.909 153.688 153.479 153.516 153.381 153.217 
152.928 157.755 156.91 156.156 155.233 154.534 153.872 153.558 153.387 
153.373 153.33 153.185 152.948 152.654 158.636 157.886 157.266 156.38 
155.763 154.84 154.416 153.797 153.721 153.468 153.438 153.198 152.93 
152.623 152.277 159.315 158.688 158.107 157.433 156.926 156.141 155.707 
154.906 154.662 154.095 154.013 153.607 153.384 152.946 152.547 152.184 
151.839 159.917 159.316 158.763 158.181 157.753 157.172 156.812 156.134 
155.79 155.12 154.871 154.329 154.082 153.541 153.152 152.595 152.2 
151.806 151.571 160.107 160.136 159.722 158.98 160.199 159.822 159.098 
158.669 158.025 160.056 159.863 159.245 158.858 158.189 157.785 157.154 
159.721 159.65 159.127 158.915 158.247 157.908 157.193 156.843 156.158 
159.349 159.303 158.787 158.682 158.047 157.824 157.08 156.788 156.071 
155.791 155.173 158.868 158.88 158.342 158.294 157.698 157.556 156.873 
156.62 155.905 155.648 155.014 154.82 154.269 158.383 158.361 157.836 
157.804 157.239 157.181 156.57 156.403 155.71 155.465 154.778 154.585 
153.963 153.842 153.265 158.201 158.016 157.526 157.368 156.824 156.726 
156.148 156.048 155.379 155.206 154.495 154.312 153.664 153.509 152.92 
152.797 152.289 158.262 157.999 157.523 157.235 156.694 156.441 155.85 
155.654 154.991 154.816 154.133 153.986 153.397 153.259 152.755 152.573 
152.124 151.963 151.638 151.451 151.886 151.537 151.31 152.448 152.027 
151.695 151.326 150.924 152.983 152.537 152.137 151.717 151.203 150.778 
150.234 153.61 153.048 152.596 152.131 151.629 151.121 150.547 150.084 
149.646 154.494 153.795 153.32 152.683 152.223 151.634 151.131 150.552 
150.107 149.663 149.394 155.51 154.817 154.425 153.627 153.169 152.402 
151.929 151.248 150.808 150.245 149.915 149.508 149.289 156.479 155.887 
155.614 154.845 154.405 153.527 153.004 152.174 151.705 151.019 150.673 
150.132 149.911 149.474 149.327 157.356 156.854 156.626 155.979 155.568 
154.763 154.224 153.344 152.832 152.023 151.669 151.005 150.824 150.271 
150.199 149.692 149.658 158.117 157.687 157.455 156.897 156.503 155.821 
155.336 154.544 154.064 153.232 152.859 152.106 151.9 151.283 151.215 
150.685 150.675 150.156 150.143 151.279 151.094 151.149 151.072 150.672 
150.858 150.7 150.858 150.677 149.971 150.263 150.1 150.35 150.076 
150.244 149.911 149.371 149.546 149.387 149.649 149.416 149.593 149.27 
149.42 149.216 149.11 149.104 148.897 149.005 148.803 148.952 148.752 
148.895 148.812 148.984 149.058 148.981 148.917 148.666 148.652 148.419 
148.461 148.323 148.466 148.484 148.689 148.793 148.991 149.083 148.939 
148.779 148.485 148.436 148.188 148.185 148.033 148.13 148.133 148.345 
148.385 148.628 148.6 148.857 148.815 149.185 148.83 148.462 148.276 
148.001 147.961 147.787 147.862 147.799 147.974 147.919 148.119 147.975 
148.214 148.078 148.422 148.391 149.652 149.191 148.761 148.386 148.052 
147.853 147.645 147.619 147.507 147.611 147.521 147.654 147.495 147.616 
147.461 147.684 147.662 148.026 148.108 149.776 149.623 149.416 148.862 
149.522 149.274 148.741 148.535 148.1 149.649 149.273 148.781 148.497 
148.073 147.882 147.625 150.114 149.562 149.072 148.666 148.246 147.937 
147.611 147.49 147.397 150.852 150.175 149.613 149.061 148.577 148.167 
147.759 147.512 147.299 147.305 147.324 151.641 150.961 150.34 149.669 
149.088 148.547 148.093 147.715 147.437 147.267 147.183 147.234 147.273 
152.339 151.716 151.125 150.43 149.853 149.183 148.746 148.197 147.946 
147.563 147.458 147.248 147.228 147.202 147.269 153.005 152.406 151.894 
151.236 150.764 150.076 149.711 149.051 148.826 148.269 148.167 147.739 
147.699 147.399 147.429 147.325 147.496 153.708 153.122 152.685 152.055 
151.675 151.041 150.74 150.098 149.857 149.245 149.089 148.567 148.489 
148.049 148.023 147.703 147.79 147.687 147.937 150.337 151.101 150.56 
150.205 151.978 151.374 151.086 150.459 150.125 153.136 152.406 152.191 
151.476 151.221 150.496 150.27 154.372 153.654 153.446 152.713 152.536 
151.759 151.575 150.811 150.742 155.534 154.863 154.677 153.978 153.828 
153.119 152.985 152.218 152.127 151.416 151.465 156.916 156.147 156.071 
155.273 155.166 154.421 154.333 153.606 153.513 152.802 152.787 152.162 
152.229 158.458 157.716 157.702 156.826 156.705 155.844 155.737 154.971 
154.893 154.162 154.109 153.444 153.462 152.871 152.908 159.607 159.15 
159.113 158.406 158.159 157.334 157.07 156.335 156.212 155.537 155.476 
154.778 154.749 154.098 154.119 153.52 153.551 160.209 160.014 159.994 
159.549 159.256 158.571 158.181 157.505 157.308 156.75 156.709 156.111 
156.051 155.388 155.338 154.721 154.73 154.159 154.199 158.464 158.67 
158.323 157.745 158.774 158.435 157.795 157.452 156.767 158.987 158.578 
157.97 157.527 156.832 156.416 155.666 159.436 158.95 158.394 157.824 
157.126 156.577 155.806 155.311 154.5 159.906 159.49 158.894 158.284 
157.471 156.883 156.043 155.514 154.675 154.156 153.347 160.04 159.84 
159.19 158.66 157.686 157.108 156.181 155.704 154.869 154.368 153.567 
153.065 152.371 159.889 159.813 159.229 158.807 157.827 157.237 156.306 
155.829 155.074 154.591 153.837 153.313 152.632 152.192 151.653 159.863 
159.715 159.286 158.876 158.05 157.423 156.555 156.028 155.36 154.884 
154.198 153.635 152.931 152.451 151.907 151.548 151.1 160.102 159.867 
159.567 159.134 158.481 157.807 156.983 156.358 155.678 155.207 154.572 
154.04 153.321 152.776 152.162 151.773 151.316 151.002 150.564 158.843 
159.525 159.217 159.184 160.322 159.987 160.044 159.549 159.373 161.234 
160.873 160.987 160.493 160.339 159.714 159.524 162.06 161.734 161.853 
161.466 161.372 160.739 160.484 159.893 159.842 162.846 162.449 162.521 
162.25 162.307 161.816 161.604 160.905 160.687 160.214 160.224 163.85 
163.266 163.23 162.881 163.033 162.73 162.743 162.108 161.8 161.077 
160.806 160.426 160.308 164.947 164.304 164.119 163.628 163.657 163.41 
163.559 163.195 163.031 162.27 161.788 161.047 160.673 160.314 160.122 
165.892 165.304 165.018 164.476 164.312 163.983 164.015 163.837 163.822 
163.379 163.003 162.174 161.633 160.873 160.552 160.16 160.075 166.746 
166.18 165.89 165.317 165.07 164.607 164.469 164.205 164.154 163.947 
163.779 163.278 162.856 162.04 161.602 160.874 160.69 160.284 160.306 
167.151 167.496 166.99 166.295 167.653 167.268 166.56 166.093 165.441 
167.495 167.257 166.564 166.252 165.579 165.235 164.726 167.207 166.995 
166.285 166.093 165.46 165.259 164.744 164.555 164.247 166.791 166.678 
165.987 165.806 165.258 165.105 164.687 164.527 164.216 164.124 163.863 
166.036 166.144 165.586 165.542 165.122 165.018 164.717 164.538 164.239 
164.076 163.745 163.624 163.118 165.214 165.365 164.982 165.096 164.835 
164.905 164.699 164.615 164.28 164.083 163.633 163.459 162.903 162.683 
161.983 164.722 164.765 164.523 164.59 164.43 164.561 164.411 164.48 
164.138 164.022 163.479 163.287 162.695 162.486 161.879 161.596 161.032 
164.434 164.478 164.325 164.328 164.162 164.196 163.977 164.061 163.718 
163.727 163.215 163.082 162.507 162.312 161.792 161.568 161.133 160.879 
160.56 164.174 163.669 164.046 164.153 162.812 163.409 163.579 163.946 
163.951 161.694 162.367 162.485 163.1 163.095 163.579 163.571 160.554 
161.166 161.159 161.805 161.774 162.448 162.475 163.113 163.176 159.295 
159.937 159.862 160.472 160.454 161.109 161.24 161.931 162.097 162.704 
162.734 157.885 158.553 158.505 159.171 159.227 159.899 160.093 160.778 
161.002 161.63 161.709 162.206 162.111 156.65 157.2 157.214 157.85 
157.991 158.702 158.895 159.613 159.747 160.45 160.501 161.132 161.089 
161.571 161.447 155.67 156.13 156.171 156.705 156.866 157.517 157.703 
158.37 158.417 159.076 159.076 159.799 159.872 160.531 160.571 161.004 
160.914 154.741 155.211 155.241 155.74 155.847 156.439 156.594 157.207 
157.263 157.806 157.809 158.422 158.596 159.323 159.593 160.181 160.288 
160.588 160.488 164.071 163.639 163.73 163.456 163.263 163.251 162.845 
162.959 162.574 162.954 162.905 162.382 162.335 161.825 161.95 161.515 
162.313 162.449 161.856 161.838 161.177 161.21 160.722 160.902 160.469 
161.253 161.526 160.892 161.087 160.388 160.495 159.898 160.091 159.639 
159.838 159.281 160.212 160.394 159.757 159.983 159.362 159.572 158.974 
159.193 158.665 158.919 158.373 158.537 157.882 159.363 159.46 158.843 
158.959 158.376 158.552 158.001 158.212 157.661 157.897 157.35 157.573 
157.011 157.157 156.609 158.567 158.667 158.068 158.147 157.538 157.651 
157.079 157.251 156.707 156.906 156.378 156.586 156.093 156.295 155.835 
156.004 155.585 157.838 157.91 157.336 157.394 156.783 156.848 156.254 
156.371 155.841 156.004 155.525 155.699 155.25 155.434 155.01 155.209 
154.799 155.006 154.622 164.351 164.83 164.394 164.024 165.428 164.961 
164.556 164.055 163.683 165.924 165.563 165.168 164.629 164.173 163.727 
163.357 166.191 165.975 165.675 165.229 164.73 164.213 163.736 163.325 
162.786 166.285 166.137 165.885 165.639 165.221 164.758 164.212 163.707 
163.104 162.595 161.848 166.264 166.13 165.801 165.704 165.334 165.096 
164.543 164.121 163.435 162.924 162.165 161.599 160.822 166.096 165.993 
165.57 165.511 165.089 165.008 164.441 164.213 163.468 163.112 162.314 
161.879 161.104 160.614 159.907 165.813 165.73 165.266 165.208 164.75 
164.689 164.133 163.965 163.239 162.969 162.193 161.894 161.167 160.812 
160.12 159.706 159.061 165.529 165.423 164.945 164.87 164.421 164.358 
163.867 163.702 163.06 162.764 162.049 161.748 161.096 160.814 160.201 
159.861 159.247 158.862 158.295 165.224 164.516 164.781 164.607 163.694 
164.027 163.864 164.179 164.067 162.646 163.113 162.96 163.377 163.263 
163.638 163.501 161.384 161.964 161.832 162.361 162.239 162.723 162.547 
162.949 162.673 160.096 160.699 160.634 161.188 161.059 161.58 161.37 
161.852 161.558 161.976 161.648 158.894 159.456 159.4 159.976 159.82 
160.349 160.079 160.578 160.279 160.776 160.503 160.957 160.706 157.841 
158.274 158.07 158.636 158.405 159.013 158.721 159.257 158.944 159.466 
159.241 159.78 159.597 160.069 159.846 156.986 157.253 156.9 157.284 
157.004 157.559 157.379 157.932 157.73 158.206 158.021 158.534 158.407 
158.931 158.755 159.198 158.939 156.216 156.425 156.054 156.261 156.013 
156.371 156.335 156.787 156.765 157.154 157.032 157.422 157.308 157.78 
157.669 158.121 157.925 158.3 158.042 155.62 154.645 155.28 155.504 
153.723 154.366 154.771 155.274 155.575 152.909 153.502 154.01 154.634 
155.112 155.55 155.951 152.246 152.703 153.056 153.768 154.269 154.988 
155.431 155.957 156.318 151.719 152.072 152.263 152.79 153.153 153.92 
154.366 155.158 155.538 156.173 156.498 151.077 151.5 151.705 152.116 
152.425 152.936 153.37 154.034 154.526 155.239 155.699 156.324 156.743 
150.198 150.708 150.865 151.439 151.728 152.304 152.705 153.261 153.753 
154.355 154.916 155.547 156.077 156.649 157.103 149.284 149.738 149.754 
150.371 150.548 151.331 151.665 152.463 152.863 153.597 154.074 154.791 
155.312 155.968 156.417 156.981 157.351 148.53 148.868 148.853 149.286 
149.407 150.052 150.365 151.195 151.601 152.471 152.906 153.774 154.256 
155.077 155.524 156.208 156.561 157.14 157.455 157.318 156.377 156.819 
156.765 155.287 155.788 155.663 156.198 156.158 153.967 154.551 154.406 
155.018 154.97 155.576 155.606 152.564 153.143 153.021 153.7 153.728 
154.386 154.469 155.084 155.202 151.244 151.772 151.678 152.348 152.451 
153.152 153.306 153.965 154.119 154.741 154.902 150.047 150.519 150.469 
151.099 151.219 151.901 152.049 152.753 152.915 153.622 153.798 154.455 
154.628 149.122 149.449 149.427 149.974 150.103 150.717 150.83 151.479 
151.623 152.355 152.557 153.294 153.494 154.173 154.369 148.557 148.705 
148.64 149.036 149.145 149.664 149.778 150.329 150.469 151.113 151.337 
152.049 152.282 152.991 153.211 153.91 154.142 148.199 148.239 148.08 
148.333 148.363 148.779 148.878 149.358 149.491 150.05 150.261 150.903 
151.142 151.809 152.041 152.734 152.998 153.707 153.98 160.561 159.988 
160.632 161.322 159.292 160.017 160.717 161.377 162.065 158.452 159.239 
159.95 160.704 161.437 162.138 162.902 157.674 158.427 159.207 159.944 
160.739 161.479 162.3 163.02 163.808 157.048 157.745 158.594 159.304 
160.164 160.863 161.713 162.411 163.212 163.888 164.58 156.615 157.176 
157.955 158.677 159.53 160.307 161.163 161.871 162.641 163.285 163.967 
164.586 165.172 156.541 156.859 157.478 158.014 158.735 159.529 160.355 
161.213 161.981 162.703 163.342 163.962 164.518 165.109 165.567 156.614 
156.858 157.349 157.652 158.198 158.745 159.447 160.264 161.031 161.892 
162.543 163.273 163.775 164.4 164.797 165.372 165.658 156.39 156.768 
157.156 157.494 157.913 158.314 158.864 159.45 160.121 160.885 161.546 
162.343 162.865 163.567 163.93 164.534 164.786 165.334 165.507 161.12 
161.851 161.722 162.19 162.621 162.463 162.941 162.798 163.254 163.525 
163.319 163.861 163.643 164.167 163.922 164.335 164.448 164.285 164.872 
164.655 165.221 164.952 165.408 165.036 165.311 165.199 165.147 165.742 
165.631 166.199 166.006 166.437 166.109 166.341 165.915 166.029 165.782 
165.814 166.459 166.438 167.094 166.965 167.457 167.12 167.326 166.874 
166.956 166.537 166.624 166.148 166.3 166.959 167.086 167.843 167.872 
168.522 168.236 168.506 167.932 167.973 167.449 167.534 167.129 167.208 
166.179 166.475 167.03 167.362 168.034 168.388 169.05 169.157 169.457 
169.093 169.04 168.494 168.465 168.029 168.076 167.661 167.591 165.981 
166.33 166.775 167.18 167.678 168.2 168.722 169.218 169.486 169.619 
169.495 169.281 169.094 168.824 168.775 168.463 168.362 167.905 167.638 
160.864 161.976 161.252 160.908 163 162.331 161.965 161.267 160.872 
163.947 163.281 162.837 162.192 161.685 161.064 160.584 164.821 164.159 
163.635 162.979 162.426 161.778 161.223 160.651 160.194 165.546 164.942 
164.388 163.742 163.202 162.541 162.003 161.334 160.832 160.265 159.837 
166.187 165.616 165.058 164.434 163.876 163.29 162.773 162.147 161.573 
160.929 160.363 159.839 159.338 166.77 166.253 165.696 165.072 164.438 
163.867 163.303 162.794 162.189 161.594 160.896 160.31 159.705 159.257 
158.809 167.091 166.723 166.151 165.642 164.948 164.369 163.699 163.204 
162.614 162.107 161.468 160.852 160.249 159.688 159.292 158.86 158.618 
167.063 166.831 166.225 165.914 165.223 164.767 164.036 163.547 162.941 
162.503 162.017 161.49 161.031 160.407 160.058 159.504 159.305 158.851 
158.697 164.571 164.965 164.856 165.072 165.543 165.335 165.578 165.423 
165.649 166.469 166.125 166.307 165.967 166.098 165.935 166.075 167.379 
167.164 167.389 166.876 166.884 166.446 166.503 166.294 166.359 167.863 
167.922 168.278 167.96 167.996 167.433 167.423 166.93 166.979 166.616 
166.597 168.097 168.254 168.615 168.58 168.665 168.4 168.372 167.958 
167.916 167.431 167.332 166.861 166.683 168.233 168.439 168.754 168.774 
168.828 168.755 168.737 168.62 168.552 168.263 168.049 167.604 167.298 
166.848 166.531 168.099 168.452 168.796 168.892 168.969 168.886 168.922 
168.847 168.916 168.739 168.61 168.209 167.87 167.403 167.033 166.609 
166.257 167.725 168.168 168.536 168.812 168.949 169.01 169.106 169.101 
169.304 169.195 169.253 168.846 168.582 168.008 167.625 167.117 166.765 
166.328 165.99 
POINT_DATA 1002
SCALARS Distance double
LOOKUP_TABLE default
155.011 155.996 155.313 154.202 154.439 153.952 153.372 153.71 153.074 
153.045 152.786 153.244 152.429 152.348 152.394 152.395 152.903 152.048 
151.99 151.995 151.921 152.171 152.644 151.782 151.672 151.629 151.489 
151.372 152.081 152.361 151.663 151.288 151.047 150.829 150.684 150.603 
151.845 151.924 151.536 150.914 150.391 150.127 149.985 149.893 149.731 
151.456 151.515 151.266 150.587 149.827 149.549 149.522 149.393 149.168 
148.903 151.203 151.376 151.031 150.443 149.563 149.12 149.193 149.142 
148.791 148.423 148.211 156.378 155.507 156.337 155.3 156.182 154.548 
155.081 156.377 154.29 153.878 155.28 156.909 154.023 153.649 153.511 
156.005 157.649 154.311 153.4 153.397 153.243 157.079 158.541 155.386 
153.909 153.373 153.357 152.963 158.041 159.326 156.679 155.227 154.116 
153.682 153.283 152.552 158.699 159.921 157.583 156.519 155.379 154.496 
153.866 153.012 152.084 159.33 160.502 158.263 157.416 156.505 155.489 
154.632 153.753 152.696 151.825 160.491 159.35 160.569 159.55 160.481 
158.399 159.56 160.13 158.629 157.544 159.264 159.776 158.561 157.556 
156.484 158.877 159.399 158.227 157.36 156.329 155.405 158.371 158.84 
157.784 157.089 156.177 155.217 154.429 157.878 158.437 157.263 156.676 
155.951 155.01 154.119 153.351 157.738 158.432 156.969 156.248 155.528 
154.668 153.819 153.066 152.351 157.831 158.529 157.005 156.115 155.194 
154.26 153.481 152.901 152.308 151.72 151.262 151.636 151.038 152.144 
151.311 150.428 152.573 151.702 150.603 149.678 153.095 152.126 151.066 
149.977 149.287 154.035 152.835 151.716 150.619 149.73 149.172 155.228 
154.019 152.663 151.418 150.393 149.629 149.07 156.325 155.297 153.908 
152.451 151.253 150.379 149.729 149.188 157.239 156.323 155.091 153.68 
152.371 151.388 150.71 150.165 149.627 157.997 157.136 156.055 154.868 
153.649 152.561 151.754 151.184 150.678 150.126 150.988 150.555 150.562 
149.813 149.938 149.733 149.153 149.203 149.113 148.971 148.879 148.666 
148.546 148.606 148.866 148.708 148.417 148.18 148.252 148.6 148.918 
148.563 148.188 147.963 147.964 148.191 148.372 148.517 148.744 148.083 
147.739 147.665 147.773 147.8 147.759 147.963 149.208 148.336 147.744 
147.458 147.402 147.394 147.295 147.334 147.694 149.997 149.048 149.828 
148.951 149.791 148.227 149.08 150.079 148.317 147.68 149.533 150.736 
148.607 147.821 147.337 150.262 151.564 149.051 148.079 147.386 147.18 
151.063 152.301 149.701 148.519 147.689 147.242 147.134 151.787 152.932 
150.529 149.334 148.39 147.766 147.374 147.182 152.502 153.584 151.396 
150.371 149.435 148.657 148.083 147.647 147.464 153.285 154.26 152.272 
151.361 150.492 149.649 148.966 148.423 148.003 147.909 150.89 150.794 
151.621 151.709 152.608 150.759 152.904 153.898 151.965 150.943 154.163 
155.058 153.273 152.372 151.415 155.371 156.179 154.501 153.715 152.87 
152.101 156.898 157.677 155.951 155.051 154.237 153.438 152.824 158.578 
159.124 157.635 156.533 155.629 154.817 154.074 153.492 159.754 159.949 
159.011 157.835 156.845 156.167 155.447 154.73 154.139 160.345 160.337 
159.888 158.872 157.84 157.243 156.722 155.989 155.299 154.757 158.869 
158.108 159.036 158.167 159.123 157.117 158.447 159.394 157.302 156.083 
159.013 159.906 157.728 156.353 154.989 159.556 160.262 158.117 156.574 
155.207 153.835 159.708 160.156 158.313 156.638 155.336 154.068 152.802 
159.579 159.935 158.407 156.769 155.52 154.373 153.074 152.024 159.635 
160.024 158.648 157.101 155.804 154.764 153.462 152.26 151.441 159.135 
159.65 159.793 160.523 160.656 159.964 161.446 161.605 160.997 160.061 
162.158 162.422 161.961 161.165 160.232 162.774 163.346 162.638 162.329 
161.325 160.51 163.682 164.525 163.239 163.229 162.677 161.403 160.513 
164.709 165.609 163.97 163.769 163.685 162.736 161.232 160.28 165.597 
166.474 164.754 164.217 164.065 163.721 162.559 161.113 160.27 166.474 