# vtk DataFile Version 4.0
vtk output
ASCII
DATASET POLYDATA
POINTS 1002 float
-76.2474 -113.427 73.9553 -75.9326 -114.794 73.526 -76.1321 -114.304 72.6309 
-76.6642 -113.056 73.1288 -76.5529 -113.903 71.8664 -76.9226 -112.191 74.5565 
-77.3773 -112.769 72.4497 -77.1686 -113.54 71.2543 -77.5355 -111.854 73.7976 
-77.9526 -111.155 75.1773 -78.1653 -112.342 71.8804 -78.001 -113.119 70.7022 
-78.3533 -111.494 73.1848 -78.6308 -110.696 74.5258 -78.9451 -109.907 75.7224 
-78.9731 -111.749 71.3471 -79.0503 -112.611 70.2741 -79.1593 -110.982 72.6348 
-79.4542 -110.197 74.0071 -79.6535 -109.265 75.1965 -79.6673 -108.194 76.1964 
-80.0225 -111.221 71.0348 -80.2094 -112.063 70.1029 -80.0636 -110.448 72.1505 
-80.2873 -109.631 73.4226 -80.4474 -108.611 74.6331 -80.4034 -107.474 75.6434 
-80.3106 -106.482 76.6284 -81.3361 -110.784 70.9834 -81.3904 -111.547 70.0759 
-81.3073 -110.016 71.9402 -81.2456 -109.023 72.8848 -81.1626 -107.845 73.8647 
-81.0731 -106.717 74.8849 -81.022 -105.797 75.9534 -81.0747 -105.167 77.1068 
-82.6436 -110.291 70.9352 -82.5745 -111.123 70.0854 -82.6578 -109.53 71.862 
-82.4151 -108.437 72.6146 -82.01 -107.063 73.2502 -81.7361 -105.905 74.0851 
-81.7028 -105.09 75.189 -81.8065 -104.499 76.4274 -81.9093 -104.053 77.6409 
-83.8132 -109.766 70.8582 -83.741 -110.76 70.1916 -83.8098 -108.926 71.6759 
-83.5521 -107.884 72.4062 -83.0842 -106.502 72.9317 -82.7066 -105.283 73.5885 
-82.5927 -104.48 74.6056 -82.6469 -103.89 75.8105 -82.7025 -103.394 77.0075 
-82.6544 -102.943 78.0671 -84.8746 -109.27 70.8466 -84.8334 -110.363 70.3613 
-84.8129 -108.326 71.4561 -84.5642 -107.359 72.1169 -84.1744 -106.131 72.6654 
-83.8495 -104.928 73.2646 -83.6983 -104.07 74.1932 -83.6359 -103.428 75.3233 
-83.5704 -102.862 76.4159 -83.4538 -102.366 77.4155 -83.2537 -101.905 78.2866 
-75.7365 -115.738 72.6704 -75.8638 -115.079 71.6809 -75.3892 -116.496 71.8578 
-75.3414 -115.586 70.6645 -74.9661 -117.277 70.974 -76.0537 -114.448 70.8025 
-74.874 -116.306 69.4325 -74.8064 -118.356 69.9992 -75.3513 -114.775 69.5055 
-76.6457 -114.066 70.0863 -74.9559 -117.63 68.2707 -75.0706 -119.461 69.2297 
-75.0674 -115.576 68.1155 -76.2424 -114.527 68.7679 -77.8978 -113.856 69.5871 
-75.6154 -119.009 67.776 -75.714 -120.191 68.9475 -75.5902 -117.085 67.298 
-76.4442 -115.334 67.7503 -78.0882 -114.443 68.5669 -79.3847 -113.442 69.3402 
-76.6464 -119.779 68.0591 -76.7241 -120.678 69.0803 -76.6588 -118.508 67.3834 
-77.2546 -116.568 67.4267 -78.6071 -114.967 67.8875 -79.8844 -113.975 68.5059 
-80.6335 -112.829 69.2528 -77.8424 -120.07 68.712 -77.9085 -121.158 69.4047 
-77.8966 -119.159 67.9959 -78.3461 -117.762 67.5734 -79.3535 -115.862 67.4918 
-80.4704 -114.417 67.7641 -81.175 -113.454 68.4254 -81.7454 -112.359 69.2633 
-78.9583 -120.306 69.3375 -78.9984 -121.579 69.7643 -79.0532 -119.26 68.6832 
-79.4424 -118.398 67.8991 -80.203 -117.046 67.2783 -81.1196 -115.333 67.1384 
-81.7972 -114.064 67.6436 -82.2661 -113.159 68.5324 -82.9019 -112.064 69.4279 
-79.953 -120.636 69.7587 -79.963 -121.84 70.0848 -80.0933 -119.386 69.1971 
-80.4662 -118.582 68.3001 -81.0824 -117.889 67.3471 -81.8296 -116.539 66.8119 
-82.4599 -114.863 67.0144 -82.8866 -113.694 67.8283 -83.3686 -112.841 68.8261 
-84.0745 -111.728 69.7019 -80.9821 -121.362 70.1374 -81.1457 -120.09 69.6508 
-82.3399 -120.896 69.987 -82.7328 -119.691 69.2841 -83.9092 -120.459 69.7248 
-81.5075 -118.935 68.8439 -84.3588 -119.321 69.0393 -85.3117 -119.9 69.6676 
-83.2068 -118.698 68.4147 -82.0434 -118.319 67.7937 -85.6707 -118.652 69.1785 
-86.5596 -119.14 69.8606 -84.7923 -118.229 68.3487 -83.7733 -117.949 67.5025 
-82.705 -117.48 66.9268 -86.91 -117.741 69.4566 -87.9063 -118.25 70.1165 
-86.1135 -117.319 68.5711 -85.4189 -117.025 67.5705 -84.4267 -116.51 66.8673 
-83.3249 -115.707 66.714 -88.2814 -116.788 69.799 -89.231 -117.179 70.4529 
-87.3555 -116.396 68.9518 -86.7685 -116.024 67.9492 -86.0505 -115.316 67.1388 
-84.8761 -114.45 66.9348 -83.727 -113.954 67.2871 -89.6754 -115.712 70.2697 
-90.417 -115.977 70.8444 -88.6974 -115.468 69.5739 -87.869 -115.224 68.7911 
-87.2454 -114.606 67.9863 -86.3136 -113.606 67.5281 -85.1142 -113.014 67.7397 
-84.1099 -112.973 68.3198 -91.0468 -114.615 70.6278 -91.5441 -114.924 71.1427 
-90.272 -114.352 70.082 -89.25 -114.115 69.6333 -88.3218 -113.758 69.1695 
-87.4977 -113.069 68.6287 -86.53 -112.392 68.4506 -85.5453 -112.17 68.841 
-84.7364 -112.085 69.3635 -92.2601 -113.701 70.8268 -92.5504 -114.097 71.4046 
-91.8512 -113.311 70.2338 -91.0508 -112.843 69.8727 -89.9186 -112.367 69.7625 
-88.8351 -111.929 69.5647 -87.9036 -111.499 69.285 -87.0119 -111.197 69.3528 
-86.1894 -111.024 69.7654 -85.471 -110.761 70.1409 -85.8785 -109.086 70.6979 
-86.5889 -109.306 70.4058 -86.7781 -107.56 70.7403 -87.3963 -109.503 70.0192 
-87.5423 -107.543 70.3241 -87.5613 -105.946 70.5848 -88.3482 -109.709 69.7585 
-88.5474 -107.667 70.0157 -88.4937 -105.817 70.1599 -88.4917 -104.463 70.6488 
-89.4315 -109.972 69.7778 -89.83 -107.965 69.9346 -89.8672 -106.024 70.0512 
-89.7802 -104.423 70.3609 -89.6986 -103.268 71.1123 -90.6845 -110.393 69.7865 
-91.2258 -108.437 69.8841 -91.4164 -106.551 70.1036 -91.3962 -104.779 70.358 
-91.2263 -103.385 70.9179 -90.942 -102.347 71.7362 -91.9746 -111.114 69.6851 
-92.5695 -109.246 69.7302 -92.7455 -107.338 70.0973 -92.7749 -105.434 70.4565 
-92.6675 -103.852 70.9022 -92.3634 -102.642 71.6354 -92.0277 -101.584 72.3889 
-92.8218 -111.933 69.9047 -93.4999 -110.298 69.8504 -93.7213 -108.392 70.2434 
-93.7677 -106.327 70.7017 -93.7374 -104.576 71.1171 -93.4976 -103.285 71.7672 
-93.2088 -102.088 72.4764 -92.9731 -100.949 73.0795 -93.106 -112.532 70.5904 
-93.7864 -111.124 70.5318 -94.1969 -109.405 70.8233 -94.4783 -107.407 71.21 
-94.6313 -105.531 71.5588 -94.4781 -104.119 72.1443 -94.1782 -102.873 72.8249 
-93.9673 -101.583 73.3062 -93.7372 -100.502 73.7884 -93.2339 -112.981 71.3933 
-93.8075 -111.641 71.4798 -94.3026 -110.101 71.7081 -94.8419 -108.416 71.9137 
-95.2989 -106.68 72.0714 -95.3628 -105.117 72.5223 -95.1045 -103.734 73.23 
-94.8472 -102.37 73.7352 -94.6146 -101.15 74.0575 -94.2553 -100.262 74.5522 
-85.8289 -107.96 71.1226 -86.6724 -106.476 71.1754 -85.6389 -106.969 71.6901 
-87.5047 -104.9 71.2253 -86.4943 -105.422 71.8504 -85.3161 -105.845 72.3085 
-88.4495 -103.442 71.5387 -87.373 -103.78 72.1016 -86.2007 -104.199 72.5536 
-84.9947 -104.612 72.9185 -89.5282 -102.287 72.0255 -88.2348 -102.363 72.4327 
-87.0269 -102.585 72.861 -85.866 -103.071 73.2979 -84.7918 -103.632 73.7887 
-90.6802 -101.326 72.5697 -89.1957 -101.26 72.844 -87.8321 -101.285 73.2334 
-86.6173 -101.601 73.7453 -85.5782 -102.249 74.3621 -84.6311 -102.904 74.9403 
-91.8249 -100.483 73.2293 -90.3004 -100.279 73.4855 -88.7715 -100.215 73.8399 
-87.4718 -100.362 74.3489 -86.3175 -100.876 74.9447 -85.3174 -101.594 75.5336 
-84.4375 -102.265 76.0386 -92.8035 -99.9146 73.9805 -91.4173 -99.5244 74.2953 
-89.793 -99.2999 74.6091 -88.3897 -99.2865 75.0191 -87.2174 -99.6328 75.5523 
-86.0779 -100.286 76.056 -85.0699 -101.021 76.5244 -84.2292 -101.71 76.9971 
-93.4713 -99.6494 74.7889 -92.3633 -99.1159 75.1247 -90.8697 -98.6976 75.3468 
-89.3176 -98.4754 75.5417 -88.0388 -98.5831 75.9691 -86.9058 -99.053 76.5213 
-85.7943 -99.7565 76.9863 -84.8174 -100.514 77.4232 -83.9901 -101.224 77.882 
-94.1223 -99.7651 75.6307 -93.2873 -99.0601 75.9602 -93.8679 -99.2228 76.9318 
-93.1399 -98.2976 77.1416 -93.6596 -98.611 78.137 -92.185 -98.4005 76.1485 
-93.0138 -97.6385 78.3245 -93.3939 -98.3271 79.3442 -92.1118 -97.6219 77.14 
-90.6453 -97.9679 76.1299 -92.5561 -97.6527 79.8455 -92.9016 -98.5221 80.8277 
-91.8262 -97.2637 78.6111 -90.3834 -97.4352 77.2179 -88.9599 -97.8599 76.3393 
-91.7905 -98.1733 81.4198 -92.3031 -98.8792 82.2523 -91.066 -97.5464 80.5247 
-89.7705 -97.3256 79.1658 -88.3854 -97.4817 77.7682 -87.5309 -98.0601 76.9703 
-91.0446 -98.7465 82.5605 -91.6652 -99.3998 83.3455 -90.2357 -98.0474 81.9261 
-89.0223 -97.5123 81.0912 -87.6869 -97.3492 79.7767 -86.8334 -97.6886 78.487 
-86.34 -98.5972 77.6069 -90.33 -99.3686 83.6407 -90.9717 -100.091 84.3936 
-89.5695 -98.6327 82.8902 -88.5228 -97.9579 82.1923 -87.2746 -97.5891 81.2898 
-86.2839 -97.685 80.0927 -85.7119 -98.3384 78.9366 -85.2635 -99.4045 78.054 
-89.665 -99.9215 84.9185 -90.3579 -100.627 85.4724 -88.9413 -99.3087 84.1171 
-88.0902 -98.7438 83.1856 -87.0591 -98.3353 82.293 -86.0194 -98.2482 81.3276 
-85.2173 -98.547 80.2241 -84.6749 -99.2596 79.2122 -84.2872 -100.236 78.4551 
-89.1547 -100.297 86.0322 -89.8788 -100.975 86.3499 -88.4036 -99.8656 85.3913 
-87.6018 -99.5759 84.4003 -86.7194 -99.2938 83.3801 -85.7703 -99.1122 82.4776 
-84.8487 -99.1391 81.4679 -84.1144 -99.4367 80.3709 -83.6602 -100.083 79.4768 
-83.4245 -100.981 78.8411 -94.9551 -100.625 75.0751 -94.7959 -100.2 76.3041 
-95.7197 -101.144 75.7977 -95.5728 -100.809 77.1714 -96.3653 -101.948 76.6512 
-94.498 -99.7888 77.7105 -96.1769 -101.633 78.1158 -96.7208 -103.103 77.5562 
-95.2663 -100.512 78.6194 -94.22 -99.4392 78.9552 -96.4651 -102.746 79.0317 
-96.9661 -104.393 78.4557 -95.8344 -101.306 79.6028 -94.9449 -100.333 79.9421 
-93.8811 -99.3511 80.3004 -96.7337 -104.084 79.9059 -97.1629 -105.583 79.319 
-96.1167 -102.408 80.5411 -95.4545 -101.198 81.0002 -94.5221 -100.261 81.4421 
-93.4006 -99.3725 81.9216 -96.8988 -105.473 80.7293 -97.0908 -106.849 80.1615 
-96.3197 -103.88 81.3226 -95.6185 -102.459 81.8193 -94.867 -101.295 82.3735 
-93.9246 -100.229 82.9942 -92.8207 -99.585 83.3068 -96.6544 -106.955 81.4089 
-96.7983 -108.355 80.903 -96.2143 -105.438 81.8878 -95.5331 -104.043 82.3348 
-94.8107 -102.812 82.8791 -94.1001 -101.576 83.6269 -93.2329 -100.654 84.1894 
-92.1401 -100.284 84.3284 -96.1801 -108.509 81.8526 -96.4294 -109.801 81.3875 
-95.757 -107.009 82.2494 -95.2007 -105.596 82.7008 -94.5751 -104.425 83.2646 
-93.997 -103.26 84.0043 -93.3985 -102.166 84.7521 -92.5517 -101.494 85.1489 
-91.4655 -101.083 85.2807 -95.6986 -109.863 82.1123 -95.9331 -110.867 81.624 
-95.3045 -108.548 82.5234 -94.8503 -107.132 83.0399 -94.3534 -105.919 83.701 
[...]
CELL_DATA 2000
SCALARS Distance double
LOOKUP_TABLE default
154.599 154.071 154.232 154.152 153.784 153.873 153.841 153.959 154.041 
153.594 153.674 153.677 153.754 153.794 153.964 154.046 153.446 153.477 
153.455 153.575 153.614 153.756 153.769 153.89 153.748 153.48 153.382 
153.324 153.366 153.41 153.538 153.516 153.604 153.393 153.415 153.115 
153.714 153.543 153.525 153.404 153.382 153.345 153.193 153.235 152.925 
152.994 152.657 152.755 152.583 154.006 153.842 153.859 153.712 153.601 
153.391 153.028 152.866 152.417 152.434 152.107 152.261 152.135 152.359 
152.4 154.325 154.131 154.074 153.966 153.79 153.572 153.108 152.774 
152.25 152.054 151.782 151.818 151.802 151.966 152.061 152.272 152.348 
154.666 154.416 154.23 154.083 153.851 153.666 153.238 152.899 152.406 
152.092 151.848 151.733 151.762 151.795 151.904 152.007 152.079 152.209 
152.192 154.882 154.955 154.654 154.211 154.839 154.545 153.985 153.951 
153.722 154.848 154.341 153.557 153.494 153.244 153.505 153.486 155.329 
154.532 153.596 153.128 152.808 152.987 153.194 153.432 153.509 156.167 
155.298 154.499 153.594 153.183 152.866 153.151 153.3 153.647 153.617 
153.652 157.121 156.33 155.831 154.868 154.47 153.69 153.747 153.525 
153.881 153.852 153.995 153.824 153.823 158.148 157.4 157.051 156.272 
155.972 155.133 154.935 154.328 154.389 154.163 154.312 154.171 154.214 
154.036 154.09 159.176 158.455 158.061 157.404 157.132 156.48 156.234 
155.528 155.335 154.801 154.803 154.539 154.658 154.473 154.589 154.384 
154.494 160.091 159.432 158.981 158.332 158.003 157.46 157.268 156.695 
156.486 155.83 155.645 155.151 155.159 154.93 155.083 154.927 155.077 
154.849 154.93 160.418 160.612 160.115 159.337 160.942 160.369 159.577 
159.042 158.357 161.316 160.763 160.02 159.406 158.735 158.222 157.676 
161.56 161.101 160.412 159.884 159.226 158.692 158.093 157.591 156.975 
161.719 161.285 160.579 160.165 159.495 159.084 158.389 157.932 157.191 
156.736 156.062 161.877 161.45 160.737 160.3 159.645 159.253 158.553 
158.099 157.286 156.835 156.147 155.83 155.421 161.961 161.612 160.98 
160.531 159.937 159.488 158.9 158.357 157.632 157.016 156.377 155.96 
155.665 155.444 155.334 162 161.713 161.192 160.806 160.257 159.836 
159.302 158.814 158.209 157.569 156.976 156.4 156.107 155.788 155.734 
155.502 155.4 162.082 161.807 161.356 161.027 160.503 160.118 159.539 
159.144 158.542 158.094 157.5 157.022 156.595 156.255 156.062 155.859 
155.703 155.477 155.235 155.089 155.541 155.169 154.753 155.947 155.582 
155.105 154.648 154.081 156.491 156.038 155.601 155.033 154.411 153.916 
153.442 157.3 156.718 156.355 155.691 155.176 154.464 154.014 153.487 
153.289 158.284 157.637 157.327 156.627 156.271 155.485 155.129 154.37 
154.172 153.618 153.593 159.357 158.705 158.483 157.753 157.498 156.716 
156.423 155.623 155.383 154.692 154.602 154.057 154.044 160.394 159.827 
159.705 159.012 158.809 158.025 157.742 156.923 156.652 155.914 155.779 
155.158 155.119 154.55 154.526 161.254 160.817 160.724 160.179 160 
159.322 159.058 158.263 157.997 157.206 157.075 156.385 156.359 155.713 
155.674 155.055 155.022 161.985 161.608 161.523 161.076 160.913 160.382 
160.177 159.53 159.321 158.583 158.447 157.73 157.683 157.002 156.94 
156.257 156.164 155.548 155.518 154.737 154.409 154.472 154.215 153.802 
154.024 153.822 153.95 153.732 153.208 153.403 153.278 153.474 153.253 
153.383 153.073 152.992 152.957 152.814 152.94 152.742 152.859 152.563 
152.647 152.319 153.189 152.918 152.639 152.571 152.316 152.361 152.107 
152.192 151.999 152.042 151.884 153.569 153.177 152.77 152.503 152.145 
152.026 151.757 151.793 151.686 151.806 151.805 151.84 151.831 154.02 
153.568 153.116 152.71 152.296 151.999 151.711 151.588 151.487 151.549 
151.595 151.73 151.798 151.863 151.903 154.536 154.063 153.639 153.144 
152.709 152.268 151.929 151.669 151.523 151.463 151.463 151.533 151.593 
151.722 151.79 151.906 151.979 155.083 154.627 154.27 153.755 153.331 
152.78 152.346 151.936 151.664 151.511 151.425 151.437 151.434 151.52 
151.564 151.705 151.779 151.938 152.021 155.297 155.409 155.073 154.502 
155.486 155.148 154.511 154.201 153.544 155.638 155.214 154.533 154.168 
153.437 153.124 152.477 156.091 155.506 154.85 154.301 153.553 153.054 
152.353 152.088 151.686 156.717 156.098 155.483 154.82 154.09 153.371 
152.604 152.083 151.622 151.489 151.382 157.269 156.702 156.072 155.473 
154.742 154.023 153.201 152.5 151.898 151.54 151.361 151.336 151.376 
157.822 157.234 156.592 155.997 155.285 154.631 153.858 153.149 152.491 
151.942 151.634 151.412 151.412 151.403 151.504 158.422 157.828 157.231 
156.584 155.948 155.245 154.603 153.871 153.309 152.639 152.271 151.815 
151.701 151.52 151.584 151.578 151.713 158.932 158.415 157.875 157.285 
156.733 156.045 155.496 154.757 154.277 153.561 153.177 152.556 152.291 
151.891 151.807 151.681 151.764 151.801 151.952 155.848 156.864 156.223 
156.007 158.105 157.363 157.141 156.425 156.164 159.452 158.673 158.469 
157.678 157.413 156.613 156.359 160.824 160.025 159.801 159.023 158.805 
157.985 157.747 156.92 156.784 162.206 161.416 161.167 160.351 160.15 
159.382 159.212 158.397 158.227 157.441 157.368 163.497 162.793 162.591 
161.755 161.509 160.719 160.547 159.807 159.644 158.878 158.726 158.001 
157.917 164.662 164.032 163.841 163.104 162.799 162.039 161.78 161.077 
160.903 160.21 160.071 159.352 159.251 158.54 158.481 165.691 165.12 
164.848 164.199 163.839 163.176 162.874 162.237 162.057 161.426 161.34 
160.679 160.628 159.919 159.862 159.135 159.07 166.437 166.005 165.703 
165.116 164.759 164.132 163.871 163.277 163.145 162.563 162.509 161.917 
161.893 161.267 161.214 160.519 160.405 159.684 159.553 162.403 162.943 
162.421 161.917 163.503 162.952 162.358 161.844 161.287 164.088 163.52 
162.936 162.324 161.713 161.189 160.61 164.796 164.171 163.634 162.968 
162.354 161.711 161.098 160.521 159.879 165.52 164.9 164.295 163.655 
163.003 162.368 161.689 161.061 160.373 159.768 159.075 166.011 165.487 
164.753 164.181 163.449 162.91 162.179 161.592 160.822 160.231 159.499 
158.948 158.275 166.326 165.863 165.12 164.534 163.785 163.271 162.601 
162.048 161.295 160.657 159.875 159.309 158.605 158.121 157.467 166.575 
166.193 165.564 164.955 164.245 163.662 163.059 162.512 161.859 161.196 
160.423 159.74 158.996 158.426 157.754 157.279 156.658 166.644 166.419 
165.897 165.425 164.761 164.191 163.558 163.008 162.362 161.759 161.012 
160.339 159.578 158.917 158.223 157.629 157.012 156.516 155.992 162.761 
163.527 163.226 163.389 164.337 164.029 164.216 163.877 163.982 165.141 
164.824 164.951 164.651 164.744 164.414 164.503 165.896 165.575 165.645 
165.338 165.408 165.115 165.258 164.976 165.187 166.694 166.311 166.383 
166.038 166.148 165.826 166.025 165.75 166.052 165.771 166.001 167.698 
167.204 167.259 166.82 166.952 166.625 166.85 166.571 166.827 166.583 
166.804 166.503 166.548 168.769 168.297 168.302 167.757 167.761 167.394 
167.563 167.345 167.506 167.265 167.311 167.093 167.093 166.848 166.774 
169.564 169.289 169.303 168.787 168.627 168.145 168.139 167.923 168.055 
167.855 167.807 167.503 167.354 167.161 167.096 166.953 166.888 169.997 
169.919 170.02 169.679 169.505 168.969 168.778 168.43 168.487 168.328 
168.356 168.036 167.83 167.452 167.28 167.117 167.078 166.992 166.904 
170.214 170.57 170.412 170.294 170.672 170.662 170.485 170.275 169.826 
170.276 170.49 170.283 170.287 169.844 169.593 169.081 169.685 169.897 
169.721 169.894 169.595 169.541 169.179 168.97 168.725 169.422 169.432 
169.31 169.387 169.262 169.297 169.138 169.074 168.915 168.774 168.565 
169.309 169.313 169.197 169.183 169.105 169.107 169.042 169.039 168.921 
168.861 168.585 168.43 168.016 168.937 169.095 168.945 169.043 168.895 
168.971 168.861 168.931 168.802 168.795 168.51 168.36 167.93 167.74 
167.383 168.441 168.628 168.493 168.653 168.457 168.602 168.407 168.59 
168.44 168.582 168.356 168.292 167.924 167.713 167.382 167.243 167.101 
168.076 168.201 168.134 168.239 168.086 168.145 167.905 168.022 167.829 
168.063 167.92 168.071 167.816 167.733 167.398 167.259 167.034 167.016 
166.904 167.895 167.604 167.849 167.962 167.051 167.494 167.658 167.882 
167.9 166.163 166.806 167.067 167.477 167.485 167.684 167.629 165.142 
165.828 166.142 166.739 166.825 167.16 167.086 167.357 167.439 164.169 
164.793 165.044 165.708 165.87 166.389 166.421 166.783 166.895 167.281 
167.527 163.192 163.799 163.952 164.572 164.726 165.36 165.523 166.065 
166.254 166.722 166.952 167.373 167.51 162.122 162.775 162.939 163.508 
163.639 164.237 164.436 165.089 165.313 165.935 166.105 166.654 166.739 
167.175 167.146 161.018 161.694 161.942 162.534 162.698 163.234 163.387 
163.992 164.158 164.826 164.923 165.58 165.621 166.231 166.277 166.756 
166.783 160 160.632 160.906 161.54 161.734 162.3 162.407 162.957 
163.036 163.632 163.687 164.31 164.364 165.018 165.153 165.801 165.994 
166.497 166.637 167.812 167.537 167.617 167.455 167.035 167.22 166.949 
167.104 166.811 166.141 166.499 166.181 166.446 166.042 166.252 165.85 
164.952 165.386 165.029 165.465 165.056 165.368 164.911 165.184 164.812 
163.77 164.139 163.701 164.156 163.746 164.209 163.782 164.172 163.803 
164.169 163.876 162.654 162.992 162.519 162.858 162.386 162.819 162.404 
162.904 162.562 163.07 162.785 163.224 162.91 161.53 161.881 161.427 
161.727 161.213 161.533 161.081 161.52 161.198 161.739 161.47 162.008 
161.688 162.152 161.78 160.498 160.793 160.347 160.63 160.108 160.39 
159.909 160.28 159.957 160.436 160.197 160.69 160.394 160.855 160.499 
160.961 160.627 159.632 159.845 159.401 159.607 159.092 159.309 158.821 
159.138 158.806 159.254 159.037 159.502 159.25 159.65 159.337 159.726 
159.433 159.873 159.632 167.95 168.135 167.951 167.733 168.228 168.099 
167.852 167.67 167.289 168.085 168.038 167.731 167.674 167.267 167.064 
166.452 167.838 167.757 167.346 167.368 166.962 166.918 166.356 166.092 
165.347 167.602 167.482 166.977 166.923 166.49 166.508 166.039 165.931 
165.278 164.958 164.194 167.149 167.155 166.638 166.58 166.106 166.07 
165.61 165.561 164.98 164.805 164.066 163.776 163.013 166.497 166.584 
166.102 166.15 165.674 165.688 165.189 165.147 164.557 164.439 163.735 
163.537 162.782 162.549 161.839 165.986 165.998 165.548 165.565 165.081 
165.141 164.63 164.663 164.074 164.01 163.355 163.198 162.519 162.3 
161.639 161.411 160.807 165.596 165.595 165.147 165.087 164.56 164.537 
164.004 164.036 163.486 163.491 162.911 162.839 162.253 162.09 161.499 
161.268 160.695 160.463 159.941 165.166 164.104 164.717 164.699 162.786 
163.507 163.574 164.153 164.074 161.581 162.209 162.318 162.963 162.981 
163.514 163.467 160.465 161.071 161.139 161.758 161.826 162.404 162.396 
162.925 162.913 159.262 159.924 159.987 160.597 160.629 161.24 161.241 
161.818 161.801 162.365 162.359 158.238 158.805 158.946 159.466 159.468 
160.022 160.006 160.613 160.613 161.223 161.236 161.807 161.773 157.463 
157.945 158.078 158.513 158.465 158.901 158.829 159.38 159.391 160.015 
160.054 160.665 160.654 161.191 161.081 156.566 157.101 157.105 157.601 
157.457 157.887 157.719 158.226 158.21 158.824 158.886 159.491 159.492 
160.044 159.955 160.454 160.301 155.512 156.034 155.965 156.501 156.358 
156.818 156.641 157.111 157.084 157.676 157.784 158.38 158.418 158.924 
158.847 159.325 159.206 159.682 159.555 154.955 154.436 154.871 155.359 
154.317 154.519 154.909 155.315 155.777 154.29 154.484 154.803 155.026 
155.367 155.712 156.116 153.858 154.244 154.492 154.857 155.133 155.419 
155.76 156.111 156.609 153.18 153.59 153.774 154.29 154.592 155.07 
155.441 155.844 156.338 156.752 157.335 152.775 153.011 153.235 153.587 
153.922 154.411 154.834 155.386 155.872 156.421 156.936 157.437 157.924 
152.659 152.81 153.084 153.273 153.569 153.866 154.185 154.664 155.041 
155.697 156.131 156.82 157.251 157.853 158.27 152.52 152.703 152.89 
153.121 153.297 153.557 153.694 154.026 154.196 154.732 155.066 155.809 
156.28 157.033 157.518 158.154 158.611 152.252 152.441 152.478 152.744 
152.795 153.117 153.181 153.499 153.601 153.967 154.241 154.805 155.326 
156.059 156.679 157.387 157.946 158.535 159.002 159.05 157.984 158.62 
158.759 156.706 157.451 157.595 158.267 158.394 155.355 156.114 156.333 
157.069 157.248 157.901 158.112 154.249 154.843 155.135 155.867 156.175 
156.821 157.103 157.74 158.117 153.503 153.878 154.108 154.772 155.154 
155.826 156.161 156.792 157.188 157.876 158.348 152.944 153.164 153.206 
153.776 154.113 154.826 155.188 155.851 156.219 156.924 157.382 158.118 
158.555 152.504 152.588 152.469 152.867 153.114 153.79 154.202 154.886 
155.285 155.954 156.406 157.128 157.591 158.282 158.664 152.237 152.211 
152.035 152.208 152.354 152.862 153.278 153.942 154.393 155.052 155.505 
156.19 156.675 157.354 157.788 158.407 158.787 152.088 152.035 151.862 
151.887 151.915 152.208 152.501 153.062 153.473 154.139 154.56 155.267 
155.723 156.447 156.908 157.57 157.986 158.584 158.99 160.591 159.716 
160.471 161.019 158.668 159.515 160.134 160.882 161.407 157.644 158.444 
159.079 159.922 160.528 161.264 161.816 156.829 157.516 158.093 158.856 
159.495 160.324 160.952 161.707 162.349 156.181 156.812 157.34 157.934 
158.488 159.286 160.001 160.837 161.547 162.302 163.001 155.717 156.254 
156.766 157.222 157.673 158.346 159.1 159.956 160.785 161.539 162.241 
162.948 163.603 155.563 155.934 156.435 156.73 157.137 157.624 158.374 
159.177 160.109 160.86 161.587 162.213 162.833 163.517 164.14 155.565 
155.88 156.407 156.591 157.015 157.265 157.944 158.566 159.505 160.245 
160.998 161.589 162.164 162.782 163.424 164.098 164.707 155.452 155.834 
156.427 156.684 157.186 157.333 157.903 158.264 159.057 159.676 160.422 
161.005 161.558 162.127 162.728 163.406 164.063 164.689 165.179 161.187 
161.611 161.66 162.172 162.04 162.107 162.714 162.731 163.345 162.53 
162.611 163.373 163.409 164.18 164.099 164.77 163.129 163.201 164.07 
164.161 165.049 165.032 165.751 165.57 166.101 163.799 163.88 164.758 
164.875 165.755 165.838 166.569 166.499 167.025 166.809 167.22 164.391 
164.533 165.396 165.539 166.36 166.458 167.168 167.196 167.807 167.707 
168.201 167.931 168.296 164.869 165.033 165.848 166.068 166.854 167.001 
167.654 167.721 168.332 168.389 168.967 168.879 169.253 168.94 169.128 
165.309 165.429 166.103 166.358 167.063 167.339 167.915 168.082 168.531 
168.713 169.179 169.375 169.715 169.681 169.772 169.532 169.564 165.649 
165.761 166.256 166.479 167.041 167.371 167.87 168.138 168.438 168.664 
168.93 169.262 169.554 169.812 169.941 169.936 169.94 169.808 169.874 
161.095 162.113 161.508 161.329 163.231 162.557 162.418 161.795 161.65 
164.547 163.761 163.554 162.884 162.736 162.126 161.97 165.852 165.097 
164.834 164.076 163.845 163.175 162.992 162.397 162.202 166.971 166.31 
166.088 165.367 165.094 164.33 164.068 163.4 163.214 162.61 162.402 
167.971 167.357 167.126 166.518 166.262 165.559 165.231 164.504 164.231 
163.609 163.398 162.795 162.538 168.796 168.283 167.991 167.448 167.155 
166.577 166.227 165.585 165.217 164.591 164.274 163.704 163.396 162.833 
162.52 169.364 169 168.748 168.252 167.912 167.357 166.965 166.413 
166.024 165.471 165.101 164.53 164.172 163.607 163.272 162.747 162.476 
169.792 169.526 169.375 168.961 168.629 168.077 167.617 167.06 166.631 
166.148 165.796 165.302 164.968 164.408 164.093 163.523 163.264 162.742 
162.541 168.111 168.502 168.297 168.32 169.023 168.775 168.779 168.529 
168.473 169.417 169.289 169.297 169.036 168.942 168.629 168.432 169.57 
169.569 169.637 169.494 169.405 169.115 168.926 168.557 168.292 169.848 
169.743 169.847 169.743 169.672 169.477 169.29 169.03 168.797 168.429 
168.096 170.362 170.145 170.152 169.959 169.789 169.605 169.332 169.211 
168.954 168.8 168.449 168.112 167.612 170.638 170.541 170.388 170.216 
169.88 169.645 169.22 169.09 168.774 168.759 168.437 168.281 167.782 
167.45 166.899 170.472 170.529 170.328 170.283 169.946 169.715 169.261 
169 168.666 168.569 168.338 168.221 167.833 167.55 167.053 166.735 
166.32 170.127 170.226 170.105 170.149 169.989 169.831 169.526 169.187 
168.883 168.623 168.443 168.255 167.982 167.677 167.235 166.894 166.478 
166.223 165.889 
POINT_DATA 1002
SCALARS Distance double
LOOKUP_TABLE default
154.399 155.044 154.36 153.942 153.916 154.121 153.768 153.672 153.82 
154.189 153.588 153.528 153.681 153.889 154.067 153.321 153.495 153.464 
153.705 153.72 153.463 153.336 153.616 153.32 153.454 153.397 153.07 
152.819 153.685 153.848 153.563 153.27 152.863 152.523 152.384 152.554 
154.003 154.174 153.898 153.349 152.472 151.923 151.882 152.146 152.507 
154.223 154.587 154.005 153.475 152.508 151.775 151.655 151.876 152.168 
152.374 154.444 154.973 154.028 153.525 152.719 151.998 151.776 151.859 
151.984 152.09 152.117 155.245 154.36 155.264 154.016 155.241 153.582 
153.771 155.538 152.89 153.265 154.294 156.16 152.729 152.813 153.511 
155.443 156.9 153.764 153.064 153.585 153.852 156.651 157.814 155.401 
154.251 153.936 154.129 154.01 157.738 158.894 156.766 155.755 154.808 
154.431 154.381 154.256 158.736 159.902 157.713 156.922 156.031 155.172 
154.811 154.787 154.728 159.661 160.713 158.55 157.75 157.139 156.294 
155.474 155.196 155.271 155.237 160.883 159.803 161.154 160.155 161.52 
158.777 160.618 161.812 159.291 158.143 160.875 161.995 159.747 158.645 
157.496 160.989 162.178 159.877 158.866 157.662 156.423 161.188 162.269 
160.038 159.023 157.777 156.426 155.599 161.385 162.233 160.371 159.405 
158.275 156.849 155.861 155.541 161.526 162.246 160.67 159.738 158.769 
157.589 156.496 155.969 155.699 161.654 162.348 160.892 159.954 158.933 
157.931 156.986 156.308 155.915 155.503 154.798 155.213 154.254 155.626 
154.482 153.512 156.187 154.997 153.761 153.061 156.99 155.898 154.642 
153.646 153.166 157.999 157.002 155.923 154.828 154.049 153.569 159.193 
158.268 157.231 156.123 155.204 154.557 154.012 160.343 159.583 158.583 
157.419 156.418 155.717 155.086 154.484 161.22 160.614 159.806 158.792 
157.785 157.024 156.34 155.598 154.988 161.955 161.398 160.732 159.999 
159.178 158.384 157.645 156.837 156.06 155.508 154.179 153.645 153.648 
153.059 153.135 152.982 152.758 152.633 152.467 152.248 152.837 152.33 
151.991 151.87 151.886 153.131 152.349 151.762 151.525 151.67 151.865 
153.568 152.656 151.891 151.485 151.458 151.662 151.872 154.141 153.214 
152.264 151.638 151.453 151.484 151.638 151.867 154.757 153.915 152.869 
151.91 151.449 151.38 151.444 151.616 151.861 155.627 154.838 155.764 
154.847 155.849 153.853 154.948 156.119 153.807 152.656 155.455 156.704 
154.152 152.706 151.703 156.14 157.312 154.861 153.267 151.848 151.322 
156.659 157.838 155.422 153.95 152.396 151.458 151.312 157.207 158.425 
155.914 154.524 153.106 151.978 151.473 151.459 157.856 158.987 156.634 
155.301 153.988 152.838 152.001 151.633 151.666 158.404 159.407 157.367 
156.203 154.986 153.862 152.834 152.044 151.749 151.882 156.411 156.635 
157.549 157.909 158.86 156.882 159.254 160.246 158.246 157.112 160.581 
161.652 159.573 158.6 157.532 162.021 162.951 160.903 159.977 159.061 
158.091 163.412 164.134 162.346 161.281 160.387 159.486 158.603 164.556 
165.301 163.56 162.495 161.568 160.759 159.971 159.182 165.507 166.269 
164.485 163.478 162.652 161.957 161.309 160.609 159.8 166.244 166.801 
165.36 164.437 163.704 163.085 162.489 161.886 161.151 160.266 162.909 
162.402 163.521 162.938 164.055 161.737 163.571 164.641 162.303 161.103 
164.304 165.449 163.033 161.73 160.463 164.952 166.164 163.635 162.346 
160.994 159.667 165.35 166.526 163.964 162.756 161.443 160.037 158.799 
165.72 166.736 164.297 163.102 161.952 160.497 159.097 157.924 166.126 
166.867 164.853 163.593 162.485 161.143 159.632 158.263 157.079 163.031 
163.741 163.812 164.538 164.665 164.374 165.274 165.488 165.046 164.819 
165.969 166.237 165.699 165.486 165.475 166.735 167.116 166.451 166.299 
166.294 166.394 167.766 168.215 167.281 167.131 167.125 167.066 166.957 
168.914 169.18 168.229 167.778 167.787 167.611 167.262 167.064 169.776 
169.74 169.223 168.434 168.212 168.173 167.643 167.164 167.065 170.246 