# vtk DataFile Version 4.0
vtk output
ASCII
DATASET POLYDATA
POINTS 1002 float
-78.5129 -111.198 70.9885 -78.2358 -112.484 70.597 -78.1521 -111.935 69.6352 
-78.5526 -110.592 70.0207 -78.1817 -111.272 68.7075 -78.9571 -109.817 71.495 
-78.8685 -110.01 69.1006 -78.5647 -110.744 67.9342 -79.3582 -109.35 70.5641 
-79.9608 -108.704 71.9759 -79.659 -109.637 68.3839 -79.4772 -110.493 67.3359 
-80.0212 -108.952 69.6847 -80.6693 -108.394 71.1296 -81.0823 -107.626 72.3065 
-80.8167 -109.39 67.8903 -80.6206 -110.192 66.8618 -80.9809 -108.584 69.0067 
-81.3559 -107.891 70.2905 -81.6869 -107.061 71.5003 -81.6259 -105.999 72.5191 
-81.9119 -108.928 67.4611 -81.6057 -109.526 66.4146 -82.1092 -108.155 68.5245 
-82.1481 -107.219 69.5863 -82.1708 -106.173 70.6348 -82.1121 -105.104 71.711 
-82.0321 -104.159 72.811 -82.8675 -108.236 66.9641 -82.6275 -108.764 65.9427 
-83.1408 -107.562 68.0064 -83.1403 -106.587 69.0007 -82.9029 -105.405 69.8971 
-82.7399 -104.317 70.8888 -82.7674 -103.487 72.0673 -82.9031 -102.877 73.2486 
-83.9691 -107.63 66.5081 -83.8948 -108.234 65.5912 -84.0602 -106.884 67.3967 
-84.0612 -105.917 68.3076 -83.8862 -104.845 69.2469 -83.6958 -103.879 70.2269 
-83.679 -103.102 71.3715 -83.8067 -102.503 72.5722 -83.8921 -102.021 73.6556 
-85.1417 -107.145 66.2165 -85.1284 -107.821 65.4599 -85.0146 -106.268 66.8914 
-84.8315 -105.193 67.5753 -84.7223 -104.178 68.4982 -84.7043 -103.41 69.5853 
-84.6838 -102.731 70.7201 -84.6644 -102.054 71.8911 -84.6784 -101.513 72.9737 
-84.637 -101.094 73.9174 -86.09 -106.561 65.972 -86.086 -107.296 65.3841 
-85.9295 -105.645 66.4981 -85.6477 -104.54 66.9978 -85.4592 -103.498 67.7847 
-85.5056 -102.775 68.8899 -85.5823 -102.185 70.0101 -85.4866 -101.465 71.1078 
-85.3534 -100.798 72.2241 -85.2971 -100.377 73.2314 -85.2237 -100.071 74.0982 
-77.7136 -113.224 69.7513 -77.6644 -112.617 68.7103 -77.1181 -113.791 68.9839 
-77.0721 -113.079 67.7793 -76.7285 -114.453 68.1746 -77.6539 -111.908 67.7344 
-76.5815 -113.648 66.662 -76.484 -115.5 67.2089 -76.9429 -112.319 66.5304 
-78.0391 -111.441 66.8638 -76.3501 -114.731 65.5604 -76.2611 -116.763 66.3221 
-76.442 -112.866 65.1109 -77.4204 -111.901 65.4104 -79.1014 -111.232 66.1698 
-76.5603 -116.144 65.0146 -76.5134 -117.776 65.9137 -76.5865 -114.035 64.2425 
-77.2646 -112.473 64.1333 -78.8154 -111.707 64.833 -80.3871 -110.787 65.7295 
-77.4271 -117.264 65.1072 -77.5407 -118.379 66.0133 -77.3967 -115.548 64.3115 
-77.8113 -113.621 63.9176 -78.9692 -112.288 64.1177 -80.3558 -111.248 64.717 
-81.5155 -109.977 65.3387 -78.724 -117.844 65.4677 -78.8541 -118.765 66.3097 
-78.6393 -116.652 64.7202 -78.8382 -114.989 64.3547 -79.5703 -113.31 64.2433 
-80.6255 -111.912 64.254 -81.6687 -110.537 64.4381 -82.7549 -109.242 64.8988 
-79.9793 -118.146 65.8159 -80.0032 -119.108 66.5287 -79.9761 -117.193 65.0353 
-80.116 -115.948 64.5968 -80.569 -114.411 64.3942 -81.2656 -112.866 64.0984 
-82.0567 -111.358 63.8767 -83.0105 -109.928 64.0697 -84.1257 -108.768 64.6984 
-81.0731 -118.447 66.0144 -81.0261 -119.426 66.5818 -81.1745 -117.556 65.2604 
-81.3748 -116.531 64.6532 -81.7615 -115.218 64.2648 -82.2673 -113.778 63.8318 
-82.7809 -112.322 63.4629 -83.4368 -110.835 63.5409 -84.3607 -109.47 64.0787 
-85.3435 -108.336 64.7855 -82.1773 -119.098 66.2081 -82.3028 -118.208 65.5499 
-83.5638 -118.866 65.6769 -83.7346 -118.023 65.0285 -85.0224 -118.521 65.2096 
-82.5101 -117.266 64.8438 -85.2526 -117.468 64.6557 -86.4313 -117.663 65.0255 
-83.9869 -116.828 64.4382 -82.8705 -115.997 64.2477 -86.8072 -116.349 64.5109 
-87.7947 -116.46 65.0514 -85.5146 -115.928 64.1695 -84.3651 -115.235 63.7968 
-83.3567 -114.52 63.6236 -88.2119 -115.126 64.6192 -88.972 -115.349 65.2402 
-87.0445 -114.77 64.2023 -85.7951 -114.272 63.6466 -84.7991 -113.733 63.1053 
-83.8013 -113.104 63.0913 -89.2018 -113.963 65.1029 -89.8697 -114.189 65.7064 
-88.3259 -113.655 64.677 -87.2231 -113.252 64.0789 -86.2072 -112.844 63.2734 
-85.2664 -112.342 62.9357 -84.2716 -111.627 63.164 -90.049 -112.652 65.7532 
-90.7806 -112.866 66.2356 -89.3327 -112.445 65.3386 -88.526 -112.091 64.8064 
-87.7024 -111.656 63.9555 -86.8748 -111.233 63.4016 -85.9181 -110.703 63.5079 
-85.0068 -110.058 63.8035 -91.2057 -111.397 66.0834 -91.9481 -111.722 66.455 
-90.5177 -111.193 65.6492 -89.799 -110.868 65.1972 -89.0774 -110.307 64.5186 
-88.4398 -109.76 63.8753 -87.6759 -109.366 63.8358 -86.7212 -108.993 64.1885 
-85.9012 -108.625 64.4916 -92.5722 -110.448 66.0091 -93.211 -110.921 66.3685 
-91.98 -110.137 65.5063 -91.2883 -109.82 65.0661 -90.4166 -109.22 64.6679 
-89.6588 -108.464 64.1753 -89.0844 -107.939 63.8999 -88.319 -107.666 64.1048 
-87.3773 -107.477 64.5357 -86.6155 -107.355 64.9622 -86.8656 -106.061 65.437 
-87.5466 -106.003 64.8319 -87.5604 -104.508 65.2209 -88.509 -106.086 64.2563 
-88.4461 -104.474 64.5648 -88.4208 -103.033 65.1609 -89.4425 -106.299 63.9401 
-89.5544 -104.656 64.1044 -89.5466 -103.105 64.6877 -89.6012 -101.944 65.5428 
-90.0928 -106.724 64.0666 -90.4684 -104.978 64.0778 -90.7919 -103.28 64.3557 
-90.9546 -101.968 65.1399 -90.9222 -101.021 66.0449 -90.932 -107.516 64.3793 
-91.3507 -105.596 64.3413 -91.8493 -103.577 64.2888 -92.2576 -101.937 64.6115 
-92.3047 -100.842 65.4903 -92.014 -99.8846 66.3641 -92.1101 -108.371 64.5448 
-92.6687 -106.536 64.4313 -93.0522 -104.328 64.407 -93.3404 -102.243 64.3701 
-93.4227 -100.767 64.9 -93.2237 -99.6739 65.8276 -92.8117 -98.6506 66.6402 
-93.0101 -108.903 64.8241 -93.8483 -107.337 64.4624 -94.3338 -105.353 64.5159 
-94.4708 -103.189 64.5909 -94.3607 -101.31 64.8714 -94.2014 -99.8879 65.5714 
-93.9734 -98.7131 66.3414 -93.6058 -97.7402 67.0645 -93.5188 -109.294 65.4111 
-94.372 -107.882 64.9068 -95.016 -106.188 64.8145 -95.3836 -104.311 64.9749 
-95.362 -102.373 65.2567 -95.1664 -100.625 65.7714 -95.05 -99.2328 66.3798 
-94.8605 -98.1269 66.9797 -94.4945 -97.271 67.7102 -94.0159 -109.836 65.9899 
-94.6982 -108.492 65.6125 -95.252 -106.912 65.4391 -95.795 -105.26 65.4613 
-96.156 -103.492 65.6196 -96.1577 -101.603 66.0078 -96.0491 -99.9464 66.5608 
-95.957 -98.7297 67.1183 -95.7052 -97.8056 67.7501 -95.2765 -97.0458 68.5509 
-86.7612 -105.105 65.9273 -87.4627 -103.446 65.7451 -86.5843 -104.041 66.4002 
-88.4379 -102.084 65.8734 -87.4528 -102.499 66.4248 -86.3964 -102.998 67.0973 
-89.6182 -101.095 66.3616 -88.5388 -101.305 66.8101 -87.4464 -101.727 67.5185 
-86.3529 -102.203 68.2217 -90.7421 -100.032 66.8197 -89.5812 -100.18 67.3133 
-88.505 -100.552 68.0625 -87.3896 -101.062 68.7951 -86.4085 -101.58 69.3893 
-91.6596 -98.7479 67.1363 -90.5029 -98.9133 67.708 -89.3923 -99.1888 68.4542 
-88.2598 -99.7152 69.1959 -87.1992 -100.267 69.769 -86.2944 -100.799 70.4023 
-92.4928 -97.6291 67.5112 -91.3709 -97.7894 68.1035 -90.2299 -97.957 68.794 
-89.0217 -98.271 69.4942 -87.8806 -98.8437 70.1024 -86.9001 -99.3938 70.7647 
-86.0595 -99.9945 71.5422 -93.4119 -96.9428 68.1126 -92.2891 -97.021 68.6746 
-91.1016 -97.19 69.2905 -89.7933 -97.246 69.9129 -88.5713 -97.5887 70.5627 
-87.5823 -98.2298 71.2945 -86.7132 -98.8279 72.0739 -85.9398 -99.5137 72.7418 
-94.3196 -96.5738 68.9463 -93.2575 -96.482 69.474 -92.0541 -96.6703 70.0366 
-90.6505 -96.7067 70.5833 -89.2985 -96.7439 71.1857 -88.2767 -97.2441 71.9229 
-87.4458 -97.9518 72.7023 -86.629 -98.5635 73.3275 -85.8783 -99.257 73.7545 
-95.3422 -96.5056 69.7917 -94.4001 -96.0704 70.3098 -95.297 -95.9754 71.202 
-94.3263 -95.5914 71.7856 -95.1433 -95.6546 72.644 -93.2672 -96.0691 70.8999 
-94.0359 -95.3619 73.2264 -94.8902 -95.7679 74.1469 -93.0462 -95.6272 72.4389 
-91.821 -96.2343 71.4875 -93.6353 -95.5815 74.6544 -94.5661 -96.2513 75.7259 
-92.6475 -95.3836 73.9088 -91.4855 -95.7412 73.1065 -90.2516 -96.2168 72.0694 
-93.2509 -96.0712 76.2458 -94.1726 -96.7488 77.3327 -92.2366 -95.509 75.3065 
-91.2055 -95.442 74.6105 -90.026 -95.8045 73.7215 -88.9923 -96.4315 72.7285 
-92.855 -96.4638 78.0658 -93.7254 -96.9996 78.9106 -91.8157 -95.8669 76.9591 
-90.8442 -95.4943 76.0427 -89.7879 -95.5938 75.2398 -88.7464 -96.1907 74.3197 
-88.019 -97.1004 73.4594 -92.4232 -96.7309 79.7027 -93.2787 -97.1746 80.2542 
-91.3782 -96.3022 78.7628 -90.3341 -95.8891 77.6972 -89.2399 -95.709 76.7724 
-88.1591 -95.9836 75.8281 -87.4779 -96.7967 74.8811 -87.0868 -97.7783 74.0673 
-91.9828 -97.173 80.7683 -92.8276 -97.6171 81.2044 -90.989 -96.8791 80.0815 
-89.9258 -96.5518 79.2022 -88.7274 -96.2319 78.3294 -87.4793 -96.1125 77.3911 
-86.6766 -96.4942 76.3022 -86.4211 -97.4057 75.2863 -86.2286 -98.4122 74.4582 
-91.5361 -97.902 81.4461 -92.3383 -98.3647 81.8693 -90.6259 -97.6503 80.8527 
-89.6578 -97.3728 80.1705 -88.5256 -97.0114 79.51 -87.2395 -96.7139 78.7726 
-86.2299 -96.704 77.7575 -85.8059 -97.2232 76.5999 -85.6756 -98.1787 75.5819 
-85.488 -99.1933 74.7678 -96.164 -97.3339 68.9931 -96.1581 -96.7866 70.3429 
-96.8432 -97.6646 69.5975 -96.8557 -97.2018 71.0444 -97.2917 -98.2464 70.3921 
-96.0865 -96.3331 71.8425 -97.3935 -97.9273 71.9397 -97.5098 -99.3953 71.3629 
-96.8868 -96.9173 72.7009 -95.9854 -96.206 73.4998 -97.5885 -99.1805 72.992 
-97.4837 -100.907 72.3726 -97.4782 -97.7863 73.7754 -96.8218 -96.9457 74.6486 
-95.7557 -96.483 75.2942 -97.5 -100.774 74.076 -97.4126 -102.403 73.3381 
-97.6062 -99.1188 74.9125 -97.3208 -97.9047 75.8148 -96.4289 -97.2641 76.5009 
-95.3061 -96.9748 76.9027 -97.5052 -102.452 75.103 -97.5048 -103.936 74.2928 
-97.5333 -100.816 75.9696 -97.445 -99.3087 76.816 -96.8117 -98.3007 77.4518 
-95.7508 -97.7631 77.8267 -94.737 -97.3903 78.2718 -97.6132 -104.125 75.9688 
-97.6098 -105.492 75.1486 -97.5301 -102.621 76.8416 -97.4392 -101.035 77.6714 
-97.0797 -99.7292 78.3063 -96.1693 -98.8841 78.6643 -95.1265 -98.2541 79.0242 
-94.2435 -97.6394 79.6358 -97.5453 -105.629 76.5717 -97.5294 -106.835 75.7757 
-97.4437 -104.327 77.4425 -97.3238 -102.839 78.3145 -97.1615 -101.356 79.0688 
-96.5863 -100.25 79.5714 -95.6093 -99.4734 79.9105 -94.6812 -98.7069 80.349 
-93.8241 -97.9929 80.8672 -97.2808 -106.875 76.964 -97.2978 -107.923 76.2122 
-97.1953 -105.796 77.8196 -97.1042 -104.561 78.7287 -97.0151 -103.111 79.5751 
[...]
CELL_DATA 2000
SCALARS Distance double
LOOKUP_TABLE default
152.635 151.756 152.142 152.054 151.055 151.331 151.353 151.689 151.784 
150.824 150.866 150.951 151.162 151.401 151.686 151.852 150.961 150.884 
150.94 150.965 151.138 151.363 151.492 151.695 151.522 150.99 151.034 
151.059 151.041 151.019 151.09 150.985 151.161 150.866 151.024 150.621 
150.807 150.939 150.983 151.059 150.958 150.936 150.643 150.621 150.254 
150.323 150.037 150.177 150.056 150.786 150.798 150.828 150.881 150.754 
150.756 150.445 150.355 150.017 149.938 149.781 149.81 149.859 149.965 
150.095 151.014 150.905 150.839 150.75 150.497 150.448 150.107 150.102 
149.838 149.843 149.735 149.752 149.778 149.856 149.939 150.071 150.127 
151.177 151.084 150.875 150.739 150.341 150.189 149.764 149.731 149.5 
149.611 149.55 149.668 149.612 149.705 149.633 149.789 149.748 149.953 
149.917 152.804 152.637 152.454 151.9 152.415 152.198 151.64 151.523 
151.103 152.366 151.946 151.212 151.121 150.747 150.846 150.755 152.669 
151.992 151.024 150.664 150.191 150.365 150.415 150.707 150.852 153.374 
152.529 151.602 150.774 150.161 149.938 150.017 150.32 150.608 150.849 
150.913 154.389 153.521 152.881 151.806 151.229 150.413 150.367 150.195 
150.513 150.623 150.75 150.8 150.744 155.496 154.711 154.278 153.316 
152.878 151.866 151.669 150.988 151.101 150.799 150.892 150.733 150.703 
150.664 150.715 156.5 155.819 155.435 154.681 154.321 153.481 153.208 
152.408 152.269 151.644 151.553 151.103 151.023 150.781 150.839 150.812 
150.991 157.36 156.754 156.389 155.751 155.426 154.751 154.461 153.759 
153.492 152.801 152.551 151.927 151.744 151.289 151.28 151.072 151.223 
151.169 151.284 157.683 157.943 157.455 156.766 158.292 157.784 157.088 
156.558 155.856 158.496 158.105 157.398 156.889 156.128 155.625 154.906 
158.455 158.188 157.481 157.082 156.257 155.812 155.02 154.616 153.905 
158.363 158.107 157.444 157.085 156.276 155.848 155.037 154.653 153.934 
153.588 152.924 158.261 158.028 157.423 157.094 156.385 155.927 155.18 
154.719 154.056 153.655 153.054 152.668 152.112 158.082 157.889 157.321 
157.089 156.474 156.099 155.405 154.944 154.301 153.874 153.336 152.917 
152.438 152.017 151.641 157.968 157.727 157.201 156.989 156.443 156.161 
155.493 155.111 154.413 154.064 153.497 153.196 152.742 152.403 152.041 
151.699 151.49 158.032 157.715 157.22 156.947 156.453 156.161 155.543 
155.157 154.424 154.062 153.422 153.207 152.723 152.56 152.156 151.978 
151.68 151.535 151.383 151.229 151.426 151.126 150.681 151.826 151.392 
150.905 150.493 150.026 152.36 151.866 151.408 150.88 150.459 150.016 
149.807 153.057 152.479 152.088 151.511 151.143 150.619 150.433 150.065 
150.065 154.111 153.384 153.075 152.357 152.015 151.378 151.123 150.701 
150.621 150.353 150.281 155.318 154.618 154.406 153.59 153.285 152.428 
152.074 151.405 151.183 150.82 150.69 150.419 150.208 156.289 155.772 
155.619 154.953 154.703 153.851 153.481 152.561 152.219 151.51 151.337 
150.88 150.751 150.35 150.19 157.087 156.651 156.52 156.006 155.785 
155.148 154.846 154.03 153.678 152.787 152.53 151.789 151.693 151.112 
151.071 150.55 150.549 157.932 157.483 157.397 156.87 156.675 156.105 
155.876 155.253 154.995 154.235 153.94 153.126 152.924 152.231 152.179 
151.6 151.631 151.101 151.189 151.089 150.48 150.784 150.663 149.769 
150.035 149.911 150.235 150.05 149.529 149.48 149.354 149.519 149.41 
149.617 149.484 149.781 149.502 149.334 149.235 149.204 149.215 149.204 
149.266 149.316 149.981 149.768 149.5 149.345 149.257 149.215 149.235 
149.213 149.264 149.305 149.428 149.878 149.788 149.469 149.393 149.182 
149.202 149.123 149.198 149.141 149.229 149.208 149.366 149.432 149.823 
149.653 149.39 149.296 149.085 149.047 148.883 148.94 148.82 148.946 
148.854 149.028 149.026 149.272 149.381 150.162 149.796 149.612 149.376 
149.267 149.071 148.913 148.763 148.627 148.627 148.617 148.718 148.8 
148.934 149.092 149.293 149.504 150.817 150.342 150.184 149.82 149.777 
149.461 149.356 149.004 148.842 148.615 148.632 148.633 148.833 148.899 
149.114 149.173 149.38 149.51 149.718 151.145 151.446 151.024 150.538 
151.784 151.352 150.905 150.514 150.117 152.242 151.714 151.244 150.867 
150.443 150.084 149.639 152.936 152.239 151.663 151.195 150.736 150.361 
149.861 149.498 149.053 153.798 153.007 152.312 151.665 151.137 150.676 
150.207 149.768 149.356 149.005 148.81 154.616 153.884 153.166 152.385 
151.748 151.149 150.666 150.186 149.808 149.417 149.256 149.001 149.022 
155.263 154.661 154.025 153.262 152.58 151.848 151.274 150.692 150.23 
149.826 149.57 149.39 149.367 149.254 149.281 155.791 155.271 154.729 
154.086 153.473 152.731 152.123 151.399 150.837 150.25 149.84 149.563 
149.441 149.425 149.464 149.433 149.473 156.312 155.805 155.321 154.766 
154.252 153.602 153.053 152.317 151.759 151.004 150.526 149.949 149.732 
149.501 149.552 149.532 149.657 149.63 149.744 151.697 152.626 152.098 
151.968 153.606 153.054 152.96 152.403 152.312 154.78 154.133 154.124 
153.503 153.497 152.864 152.863 156.15 155.436 155.464 154.8 154.901 
154.219 154.307 153.585 153.661 157.559 156.858 156.9 156.221 156.344 
155.689 155.8 155.1 155.16 154.443 154.51 159.026 158.315 158.413 
157.7 157.815 157.139 157.214 156.531 156.508 155.837 155.811 155.2 
155.22 160.526 159.844 159.966 159.246 159.341 158.623 158.68 157.947 
157.902 157.146 157.054 156.391 156.364 155.804 155.802 161.793 161.253 
161.329 160.723 160.764 160.102 160.12 159.417 159.391 158.609 158.525 
157.727 157.673 156.974 156.971 156.359 156.341 162.705 162.311 162.339 
161.897 161.922 161.394 161.394 160.782 160.737 160.05 159.95 159.207 
159.103 158.367 158.31 157.613 157.575 156.915 156.872 158.448 159.121 
158.508 157.906 159.756 159.154 158.47 157.834 157.131 160.291 159.723 
159.03 158.378 157.601 156.989 156.304 160.832 160.23 159.541 158.909 
158.139 157.483 156.724 156.158 155.471 161.451 160.796 160.054 159.402 
158.623 157.992 157.183 156.572 155.772 155.238 154.467 161.995 161.383 
160.562 159.888 159.039 158.426 157.593 156.981 156.099 155.502 154.664 
154.163 153.433 162.354 161.836 160.999 160.336 159.429 158.805 157.984 
157.385 156.536 155.863 155.002 154.401 153.705 153.239 152.677 162.604 
162.161 161.418 160.774 159.897 159.214 158.411 157.804 157.048 156.379 
155.566 154.862 154.162 153.606 153.097 152.634 152.167 162.788 162.429 
161.828 161.26 160.497 159.777 158.988 158.304 157.586 156.937 156.203 
155.501 154.793 154.157 153.618 153.113 152.673 152.19 151.742 158.857 
159.701 159.37 159.572 160.622 160.234 160.433 160.102 160.252 161.621 
161.171 161.322 160.972 161.156 160.767 160.839 162.597 162.136 162.226 
161.861 162.053 161.698 161.846 161.376 161.431 163.557 163.077 163.089 
162.699 162.847 162.565 162.761 162.396 162.522 162.027 162.083 164.555 
164.077 164.062 163.553 163.602 163.287 163.477 163.233 163.395 163.048 
163.127 162.657 162.637 165.402 165.073 165.106 164.572 164.528 164.066 
164.172 163.898 164.074 163.815 163.907 163.565 163.556 163.097 162.973 
165.879 165.768 165.841 165.509 165.43 164.983 164.961 164.612 164.721 
164.457 164.558 164.267 164.274 163.905 163.809 163.337 163.161 166.054 
166.065 166.136 166.023 165.972 165.712 165.641 165.338 165.337 165.069 
165.103 164.856 164.857 164.566 164.485 164.096 163.928 163.464 163.266 
166.148 166.298 166.223 166.2 166.478 166.367 166.304 166.211 166.097 
166.631 166.556 166.516 166.375 166.28 166.094 165.899 166.644 166.659 
166.666 166.598 166.506 166.328 166.122 165.879 165.62 166.531 166.587 
166.564 166.628 166.506 166.451 166.171 166.02 165.71 165.554 165.305 
166.35 166.403 166.332 166.436 166.33 166.335 166.044 165.935 165.59 
165.516 165.281 165.227 165.027 166.131 166.176 166.116 166.218 166.203 
166.21 166.012 165.841 165.506 165.364 165.129 165.12 164.953 164.915 
164.664 165.952 165.97 165.917 166.017 166.026 166.11 165.971 165.865 
165.522 165.333 165.02 164.957 164.75 164.757 164.504 164.45 164.102 
165.833 165.837 165.748 165.809 165.729 165.846 165.658 165.699 165.345 
165.274 164.91 164.843 164.578 164.547 164.283 164.233 163.896 163.819 
163.447 165.704 165.332 165.577 165.617 164.744 165.132 165.214 165.454 
165.505 164.058 164.541 164.69 164.975 164.967 165.256 165.292 163.151 
163.813 164.055 164.448 164.44 164.674 164.628 164.957 164.97 161.836 
162.679 162.918 163.632 163.725 164.14 164.134 164.389 164.415 164.667 
164.678 160.466 161.225 161.371 162.222 162.38 163.169 163.329 163.878 
163.99 164.271 164.293 164.448 164.414 159.38 159.968 160.099 160.743 
160.904 161.689 161.958 162.808 163.067 163.699 163.746 164.058 163.937 
164.138 164.037 158.397 158.972 159.141 159.681 159.849 160.428 160.673 
161.418 161.719 162.519 162.66 163.256 163.151 163.52 163.348 163.665 
163.573 157.376 157.965 158.121 158.722 158.873 159.46 159.633 160.267 
160.479 161.186 161.344 162.018 162.023 162.56 162.458 162.877 162.783 
163.162 163.113 165.684 165.379 165.469 165.244 164.829 165.004 164.692 
164.843 164.543 164.065 164.323 163.949 164.144 163.758 164.007 163.724 
163.015 163.414 163.051 163.329 162.914 163.149 162.782 163.109 162.78 
161.741 162.209 161.853 162.297 161.914 162.253 161.837 162.132 161.715 
162.036 161.565 160.571 160.934 160.536 160.988 160.596 161.078 160.661 
161.082 160.62 160.958 160.471 160.756 160.269 159.584 159.856 159.433 
159.75 159.323 159.716 159.294 159.757 159.335 159.778 159.333 159.689 
159.249 159.544 159.154 158.624 158.882 158.457 158.735 158.319 158.589 
158.163 158.474 158.086 158.483 158.136 158.544 158.181 158.531 158.157 
158.485 158.136 157.733 157.929 157.496 157.765 157.385 157.66 157.272 
157.505 157.113 157.382 157.056 157.411 157.12 157.482 157.15 157.476 
157.123 157.456 157.128 165.82 165.899 165.79 165.564 165.829 165.79 
165.564 165.446 165.086 165.615 165.636 165.436 165.402 165.096 164.899 
164.384 165.408 165.405 165.261 165.271 165.036 164.894 164.393 164.08 
163.363 165.3 165.24 165.062 165.086 164.88 164.819 164.342 164.057 
163.306 162.926 162.11 165.072 165.077 164.746 164.791 164.481 164.546 
164.084 163.94 163.214 162.866 162.058 161.683 160.952 164.491 164.65 
164.209 164.3 163.839 163.975 163.497 163.541 162.901 162.718 161.969 
161.657 160.943 160.613 159.96 163.691 163.923 163.507 163.634 163.139 
163.253 162.771 162.879 162.335 162.313 161.658 161.496 160.821 160.579 
159.926 159.637 159.003 162.961 163.152 162.814 162.937 162.512 162.587 
162.144 162.214 161.739 161.752 161.178 161.106 160.486 160.363 159.762 
159.566 158.973 158.698 158.123 162.523 161.796 162.237 162.337 160.851 
161.407 161.483 161.972 162.023 159.595 160.282 160.345 160.991 161.06 
161.604 161.65 158.252 158.93 158.999 159.727 159.861 160.549 160.642 
161.2 161.219 157.102 157.695 157.832 158.458 158.666 159.342 159.505 
160.119 160.135 160.677 160.623 156.1 156.684 156.9 157.454 157.668 
158.253 158.413 158.989 159.001 159.533 159.458 160.006 159.942 155.174 
155.744 155.951 156.523 156.643 157.233 157.286 157.88 157.856 158.399 
158.331 158.858 158.814 159.349 159.293 154.348 154.849 154.963 155.496 
155.496 156.072 156.03 156.654 156.619 157.225 157.199 157.761 157.754 
158.28 158.243 158.72 158.596 153.543 153.999 154.004 154.467 154.39 
154.886 154.833 155.401 155.424 156.016 156.061 156.636 156.67 157.226 
157.21 157.701 157.578 157.996 157.798 153.08 152.459 152.992 153.461 
152.093 152.403 152.809 153.333 153.8 152.02 152.163 152.449 152.785 
153.255 153.746 154.283 151.62 151.961 152.149 152.494 152.931 153.357 
153.932 154.368 154.94 150.767 151.268 151.471 152.01 152.426 153.001 
153.561 154.066 154.603 155.042 155.569 150.219 150.485 150.731 151.216 
151.641 152.312 152.848 153.52 154.011 154.588 155.063 155.604 156.129 
150.212 150.245 150.425 150.645 150.984 151.496 151.979 152.66 153.146 
153.824 154.301 154.962 155.493 156.118 156.643 150.244 150.306 150.393 
150.479 150.655 150.94 151.294 151.821 152.301 152.945 153.47 154.148 
154.704 155.388 155.921 156.55 156.994 150.065 150.218 150.293 150.406 
150.519 150.682 150.944 151.272 151.725 152.227 152.801 153.4 153.994 
154.621 155.16 155.776 156.228 156.816 157.202 157.149 156.172 156.707 
156.858 155.159 155.72 155.869 156.472 156.73 154.06 154.685 154.854 
155.477 155.723 156.373 156.639 152.898 153.563 153.767 154.433 154.661 
155.329 155.584 156.244 156.485 151.837 152.437 152.677 153.343 153.578 
154.231 154.452 155.138 155.406 156.093 156.394 151.039 151.48 151.701 
152.298 152.541 153.155 153.343 153.987 154.242 154.975 155.333 156.065 
156.434 150.524 150.782 150.864 151.343 151.498 152.098 152.256 152.887 
153.114 153.825 154.195 154.97 155.382 156.114 156.468 150.197 150.314 
150.214 150.506 150.477 150.99 151.083 151.75 151.99 152.723 153.103 
153.865 154.301 155.043 155.428 156.121 156.449 149.944 150.001 149.829 
149.925 149.773 150.034 150.043 150.58 150.845 151.589 152.025 152.806 
153.277 154.01 154.437 155.113 155.483 156.127 156.472 157.861 156.998 
157.753 158.398 155.975 156.795 157.435 158.284 158.985 154.924 155.725 
156.371 157.262 158.042 158.916 159.657 154.113 154.796 155.465 156.24 
157.079 157.99 158.865 159.658 160.36 153.598 154.197 154.925 155.51 
156.296 157.09 157.998 158.862 159.643 160.349 160.959 153.229 153.784 
154.532 155.074 155.78 156.417 157.225 158.012 158.809 159.575 160.221 
160.898 161.456 153.062 153.457 154.118 154.638 155.31 155.911 156.647 
157.325 158.101 158.799 159.505 160.161 160.761 161.379 161.878 153.179 
153.389 153.952 154.286 154.921 155.425 156.14 156.761 157.509 158.171 
158.903 159.54 160.197 160.762 161.3 161.798 162.201 153.356 153.549 
154.085 154.278 154.866 155.174 155.839 156.3 156.979 157.567 158.246 
158.92 159.59 160.23 160.804 161.309 161.745 162.139 162.476 158.491 
159.112 159.097 159.689 159.759 159.772 160.434 160.367 160.935 160.385 
160.418 161.128 161.132 161.737 161.608 162.09 160.985 161.01 161.689 
161.774 162.456 162.417 162.941 162.744 163.179 161.576 161.591 162.218 
162.29 162.994 163.075 163.722 163.627 164.129 163.879 164.275 162.118 
162.178 162.815 162.839 163.469 163.551 164.187 164.276 164.822 164.77 
165.15 164.905 165.103 162.475 162.637 163.26 163.377 163.914 163.982 
164.435 164.558 164.956 165.132 165.424 165.494 165.612 165.465 165.467 
162.658 162.852 163.369 163.615 164.076 164.259 164.586 164.694 164.905 
165.045 165.209 165.413 165.525 165.653 165.679 165.639 165.659 162.853 
162.973 163.398 163.6 164.015 164.245 164.586 164.743 164.96 165.014 
165.15 165.206 165.361 165.475 165.636 165.711 165.826 165.814 165.916 
158.369 159.524 158.81 158.612 160.738 160.005 159.771 159.091 158.93 
161.892 161.214 160.975 160.264 160.009 159.354 159.107 162.965 162.332 
162.128 161.449 161.127 160.397 160.015 159.38 159.036 163.974 163.364 
163.137 162.535 162.21 161.481 161.013 160.276 159.863 159.257 158.932 
164.75 164.251 163.928 163.425 163.102 162.49 162.053 161.305 160.869 
160.163 159.822 159.196 158.859 165.218 164.864 164.542 164.106 163.802 
163.302 162.962 162.326 161.936 161.228 160.855 160.155 159.766 159.096 
158.69 165.572 165.303 165.128 164.721 164.491 164.008 163.73 163.184 
162.836 162.225 161.819 161.157 160.708 160.017 159.566 158.909 158.542 
165.91 165.721 165.679 165.355 165.189 164.732 164.427 163.907 163.514 
162.989 162.551 161.992 161.523 160.901 160.45 159.807 159.446 158.837 
158.58 165.907 166.063 166.022 166.044 166.292 166.243 166.327 166.17 
166.063 166.5 166.488 166.591 166.479 166.373 166.113 165.859 166.571 
166.593 166.614 166.624 166.5 166.36 166.093 165.851 165.61 166.598 
166.581 166.501 166.512 166.368 166.347 166.141 166.028 165.836 165.661 
165.519 166.617 166.599 166.513 166.432 166.288 166.212 166.061 166.011 
165.873 165.812 165.668 165.551 165.327 166.501 166.564 166.49 166.457 
166.289 166.2 166.013 165.948 165.76 165.734 165.505 165.5 165.195 
165.14 164.726 166.276 166.368 166.251 166.309 166.079 166.092 165.83 
165.839 165.588 165.573 165.269 165.227 164.857 164.83 164.409 164.36 
163.893 166.069 166.123 165.981 166.017 165.787 165.791 165.526 165.552 
165.332 165.358 165.123 165.049 164.728 164.578 164.204 164.062 163.67 
163.551 163.158 
POINT_DATA 1002
SCALARS Distance double
LOOKUP_TABLE default
152.521 153.135 152.253 151.657 151.363 151.989 150.978 150.828 151.429 
151.941 150.797 150.854 151.085 151.697 151.925 151.009 151.028 151.021 
151.316 151.47 151.176 151.072 150.876 151.102 150.942 150.704 150.432 
150.261 150.876 150.675 151.01 150.77 150.224 149.842 149.844 150.07 
150.85 150.839 150.765 150.495 150.078 149.757 149.752 149.987 150.233 
151.032 151.175 150.641 150.091 149.741 149.7 149.753 149.836 149.998 
150.153 151.05 151.31 150.548 149.841 149.366 149.399 149.558 149.531 
149.539 149.712 149.89 153.027 152.087 152.8 151.712 152.736 151.123 
151.396 152.971 150.532 150.591 151.613 153.428 150.068 149.978 150.684 
152.551 154.146 150.646 149.775 150.306 150.843 153.87 155.154 152.224 
150.822 150.512 150.728 150.687 155.111 156.226 153.857 152.556 151.636 
151.162 150.791 150.638 156.121 157.156 155.077 154.033 153.039 152.139 
151.362 150.921 150.966 156.989 157.937 156.06 155.146 154.21 153.233 
152.286 151.59 151.337 151.373 158.126 157.252 158.454 157.65 158.776 
156.366 157.894 158.823 156.655 155.367 157.853 158.695 156.702 155.418 
154.278 157.78 158.617 156.705 155.428 154.269 153.259 157.691 158.477 
156.804 155.652 154.464 153.441 152.467 157.502 158.27 156.776 155.847 
154.721 153.725 152.852 152.003 157.414 158.225 156.693 155.864 154.773 
153.754 153.023 152.363 151.766 157.511 158.363 156.739 155.932 154.84 
153.666 152.851 152.303 151.81 151.471 150.91 151.001 150.138 151.371 
150.348 149.599 151.931 150.928 150.108 149.721 152.66 151.679 150.828 
150.372 150.109 153.832 152.738 151.635 150.912 150.586 150.155 155.188 
154.206 152.92 151.675 150.967 150.522 149.954 156.204 155.474 154.437 
153.094 151.892 151.155 150.58 150.04 157.018 156.345 155.541 154.566 
153.378 152.323 151.604 151.032 150.577 157.927 157.251 156.434 155.658 
154.765 153.682 152.77 152.168 151.695 151.299 150.397 149.576 149.766 
149.272 149.221 149.25 149.517 149.218 149.18 149.188 149.683 149.306 
149.255 149.278 149.333 149.532 149.197 149.051 149.07 149.083 149.213 
149.48 149.165 148.899 148.705 148.691 148.795 149.079 149.874 149.488 
149.155 148.691 148.491 148.675 148.936 149.267 150.58 150.104 149.746 
149.172 148.67 148.74 149.09 149.321 149.555 151.56 150.936 151.848 
151.277 152.229 150.509 151.639 152.862 150.821 150.005 152.221 153.73 
151.132 150.263 149.323 153.074 154.593 151.646 150.639 149.725 149.027 
153.989 155.27 152.439 151.166 150.199 149.506 149.241 154.729 155.795 
153.363 151.944 150.717 149.781 149.43 149.435 155.292 156.291 154.17 
152.89 151.541 150.26 149.486 149.415 149.547 155.835 156.812 154.839 
153.749 152.525 151.215 150.108 149.607 149.639 149.791 152.237 152.5 
153.146 153.521 154.156 152.864 154.726 155.462 154.13 153.503 156.125 
156.871 155.547 155.03 154.394 157.584 158.23 156.998 156.495 155.88 
155.21 159.138 159.715 158.524 157.929 157.222 156.426 155.801 160.684 
161.184 160.083 159.423 158.694 157.792 156.949 156.344 161.898 162.302 
161.409 160.806 160.138 159.346 158.443 157.631 156.94 162.735 163.081 
162.388 161.974 161.407 160.67 159.837 159.032 158.272 157.516 159.057 
158.544 159.764 159.156 160.35 157.713 159.668 160.86 158.269 156.824 
160.166 161.476 158.794 157.358 155.995 160.751 162.133 159.252 157.83 
156.367 154.959 161.272 162.585 159.669 158.204 156.753 155.186 153.853 
161.657 162.828 160.075 158.55 157.206 155.657 154.17 153.098 162.005 
162.984 160.598 159.025 157.664 156.282 154.765 153.556 152.64 159.156 
159.9 160.05 160.758 161.065 160.645 161.696 162.106 161.518 161.311 
162.611 163.08 162.375 162.27 161.962 163.545 164.049 163.117 163.056 
162.962 162.647 164.642 164.977 164.003 163.694 163.688 163.541 163.199 
165.603 165.631 165.078 164.509 164.319 164.223 163.963 163.513 166.075 
165.935 165.851 165.368 165.014 164.836 164.62 164.243 163.675 166.189 
166.041 166.148 165.922 165.64 165.363 165.117 164.84 164.375 163.737 