# vtk DataFile Version 4.0
vtk output
ASCII
DATASET POLYDATA
POINTS 1002 float
-76.0806 -113.469 71.5169 -75.7155 -114.913 71.1725 -75.8049 -114.483 70.1354 
-76.3482 -113.068 70.404 -75.9572 -113.97 68.8857 -76.7758 -112.271 71.8021 
-76.641 -112.589 69.099 -76.36 -113.5 67.7478 -77.277 -111.927 70.6891 
-77.76 -111.095 71.9644 -77.1736 -112.135 68.0406 -77.1553 -113.227 67.0036 
-77.7008 -111.385 69.4844 -78.2973 -110.573 70.9482 -78.4962 -109.388 72.0419 
-78.115 -111.777 67.376 -78.1808 -112.959 66.3917 -78.3085 -110.726 68.5374 
-78.7937 -109.822 69.9378 -78.9534 -108.602 71.1452 -78.8848 -107.281 72.1114 
-79.1648 -111.329 66.7414 -79.1341 -112.361 65.6714 -79.2073 -110.093 67.8202 
-79.4801 -108.995 69.0314 -79.6239 -107.82 70.2604 -79.4997 -106.505 71.3011 
-79.4669 -105.387 72.242 -80.0405 -110.645 66.0874 -79.9719 -111.511 65.0625 
-80.0918 -109.473 67.1346 -80.213 -108.194 68.1682 -80.368 -107.028 69.3015 
-80.3613 -105.867 70.4521 -80.2972 -104.75 71.4845 -80.2891 -103.824 72.438 
-80.9327 -109.854 65.6318 -80.865 -110.7 64.6818 -80.9765 -108.824 66.5821 
-80.9287 -107.445 67.3885 -80.9446 -106.111 68.3105 -81.0689 -105.095 69.4653 
-81.144 -104.143 70.6213 -81.095 -103.179 71.6535 -81.0019 -102.383 72.6174 
-81.995 -109.118 65.3554 -81.874 -110.022 64.4532 -82.0587 -108.177 66.2458 
-81.9144 -106.831 66.8379 -81.6894 -105.274 67.456 -81.6857 -104.151 68.4826 
-81.856 -103.39 69.6669 -81.8727 -102.517 70.7429 -81.7049 -101.627 71.7554 
-81.5904 -101.01 72.7399 -83.0882 -108.489 65.1868 -82.9021 -109.44 64.3719 
-83.1961 -107.569 66.0411 -83.0841 -106.347 66.5452 -82.7826 -104.762 66.8894 
-82.5708 -103.417 67.67 -82.6196 -102.625 68.8092 -82.6703 -101.89 69.8656 
-82.4808 -100.968 70.8422 -82.2326 -100.198 71.8536 -82.1676 -99.7899 72.8351 
-75.3942 -116.2 70.2478 -75.5036 -115.8 69.1003 -74.9923 -117.461 69.3641 
-75.3277 -117.148 68.1613 -74.707 -118.579 68.5053 -75.7752 -115.242 67.8453 
-75.2118 -118.211 67.1505 -74.5229 -119.647 67.5129 -75.6692 -116.447 66.7961 
-76.2787 -114.69 66.77 -74.93 -119.176 65.9375 -74.2791 -120.843 66.4631 
-75.2904 -117.285 65.4167 -75.8791 -115.589 65.4442 -77.0108 -114.282 65.9472 
-74.6902 -120.45 64.8843 -74.3138 -122.023 65.6833 -74.8989 -118.327 64.0619 
-75.24 -116.263 63.8211 -76.4338 -114.876 64.4355 -77.9924 -113.762 65.1911 
-75.1152 -121.662 64.3705 -75.123 -122.813 65.339 -75.1949 -119.791 63.4779 
-75.3601 -117.467 62.9397 -76.2537 -115.545 63.1688 -77.8085 -114.256 63.9144 
-79.1168 -112.989 64.5546 -76.2877 -122.262 64.3675 -76.5079 -123.166 65.3594 
-76.2233 -120.816 63.6269 -76.3549 -118.821 63.1436 -77.012 -116.763 62.9016 
-78.2571 -115.103 63.1116 -79.419 -113.707 63.6347 -80.1728 -112.217 64.1363 
-77.6757 -122.426 64.6742 -77.9082 -123.314 65.5825 -77.5048 -121.124 64.0326 
-77.5139 -119.488 63.6664 -77.9626 -117.825 63.1777 -78.9502 -116.248 62.7109 
-79.982 -114.743 62.8328 -80.6283 -113.196 63.3509 -81.1527 -111.554 63.8625 
-78.8852 -122.494 65.0762 -79.0691 -123.367 65.8433 -78.7286 -121.234 64.454 
-78.6522 -119.728 64.0363 -78.8414 -118.374 63.4074 -79.5033 -117.127 62.4386 
-80.4244 -115.717 61.9697 -81.121 -114.184 62.4277 -81.5789 -112.571 63.1546 
-82.1446 -110.924 63.747 -80.006 -122.805 65.6531 -79.9113 -121.708 64.9773 
-81.0882 -122.048 65.481 -81.2084 -120.816 64.7672 -82.4601 -121.191 65.2433 
-79.9111 -120.258 64.3857 -82.8134 -120.006 64.3684 -83.975 -120.331 65.0059 
-81.4958 -119.513 63.965 -80.025 -118.906 63.6643 -84.3888 -119.26 64.0522 
-85.3703 -119.387 64.9525 -83.3019 -118.968 63.3933 -81.8782 -118.453 62.8405 
-80.404 -117.792 62.4401 -85.7014 -118.272 64.0946 -86.5851 -118.137 65.122 
-84.7779 -118.203 63.2003 -83.7382 -117.844 62.3241 -82.3489 -117.152 61.4981 
-81.0985 -116.41 61.3499 -86.843 -116.786 64.4495 -87.6709 -116.566 65.3616 
-85.855 -116.881 63.5782 -84.9621 -116.694 62.6297 -84.0222 -116.078 61.5413 
-82.8136 -115.302 61.0142 -81.7752 -114.73 61.4937 -88.0143 -115.076 64.8145 
-88.792 -115.04 65.49 -86.984 -115.105 64.2277 -85.9057 -115.063 63.5369 
-85.0711 -114.726 62.5012 -84.2024 -114.059 61.7323 -83.1448 -113.475 61.8449 
-82.2346 -113.073 62.4964 -89.4186 -113.668 64.8995 -90.1168 -113.857 65.4396 
-88.4721 -113.437 64.5828 -87.2995 -113.268 64.3405 -86.2393 -113.152 63.6705 
-85.3818 -112.821 62.8618 -84.4631 -112.291 62.6802 -83.5119 -111.832 63.0081 
-82.7368 -111.409 63.3764 -90.9797 -112.645 64.7419 -91.5081 -112.923 65.3126 
-90.2078 -112.242 64.4328 -89.1339 -111.794 64.4467 -87.9668 -111.505 64.2844 
-86.9215 -111.313 63.7349 -85.9326 -110.978 63.4149 -84.9548 -110.545 63.5727 
-84.1127 -110.147 63.8133 -83.4497 -109.771 64.0271 -84.0754 -108.204 64.8443 
-84.7185 -108.358 64.4808 -85.2484 -106.762 65.2074 -85.4916 -108.559 64.1983 
-86.0067 -106.645 64.6798 -86.2875 -104.993 65.1086 -86.4839 -108.839 63.8921 
-86.914 -106.58 64.1994 -87.1128 -104.659 64.4121 -87.2013 -103.028 64.7243 
-87.6501 -109.21 63.7696 -88.0844 -106.759 63.8382 -88.1284 -104.499 63.9191 
-88.0752 -102.71 64.1293 -88.1496 -101.225 64.6301 -88.841 -109.605 63.9956 
-89.4336 -107.275 63.7297 -89.5201 -104.791 63.6929 -89.3456 -102.651 63.8222 
-89.278 -100.971 64.1544 -89.3162 -99.6639 64.7097 -90.0493 -110.109 64.1147 
-90.7507 -108.037 63.736 -91.0678 -105.559 63.6235 -91.0742 -103.066 63.7061 
-90.92 -100.981 63.8258 -90.7696 -99.4116 64.0814 -90.5765 -98.3287 64.6059 
-91.2107 -110.774 64.0142 -91.9567 -108.935 63.6749 -92.3781 -106.595 63.6274 
-92.6419 -103.964 63.7517 -92.635 -101.544 63.7971 -92.3319 -99.6604 63.8215 
-91.9778 -98.335 64.0742 -91.5949 -97.482 64.7504 -92.0668 -111.369 64.218 
-92.8849 -109.737 63.8664 -93.3015 -107.639 63.8686 -93.5983 -105.148 64.0561 
-93.7652 -102.642 64.1569 -93.5106 -100.563 64.2089 -93.0453 -99.0317 64.3582 
-92.6694 -97.9465 64.7603 -92.2998 -97.1784 65.5405 -92.5469 -111.758 64.8367 
-93.3757 -110.273 64.5076 -93.8071 -108.446 64.4968 -94.0626 -106.307 64.661 
-94.314 -103.98 64.7476 -94.2695 -101.809 64.864 -93.866 -100.102 65.1512 
-93.4682 -98.8454 65.5154 -93.1835 -97.8837 65.9912 -92.8567 -97.0887 66.6827 
-84.2511 -107.194 65.6652 -85.297 -105.589 65.8314 -84.2351 -106.052 66.2899 
-86.245 -103.595 65.5417 -85.1566 -104.155 66.2136 -84.0017 -104.531 66.5559 
-87.2016 -101.562 65.2756 -86.0867 -102.036 66.0151 -84.8945 -102.576 66.5953 
-83.704 -102.987 67.0677 -88.2041 -99.8991 65.3621 -87.0598 -100.17 66.0276 
-85.8079 -100.689 66.7509 -84.6354 -101.364 67.4693 -83.5689 -101.969 68.1377 
-89.27 -98.5401 65.4456 -87.9947 -98.7737 66.2061 -86.7287 -99.0928 66.9191 
-85.5089 -99.7494 67.7758 -84.4679 -100.53 68.6013 -83.5361 -101.21 69.2503 
-90.3313 -97.4437 65.5379 -88.9173 -97.6469 66.471 -87.6269 -97.8508 67.2078 
-86.4155 -98.2384 67.9724 -85.2542 -98.9251 68.8695 -84.2346 -99.6242 69.6251 
-83.3119 -100.257 70.223 -91.2574 -96.7814 66.0537 -89.8811 -96.7316 66.9541 
-88.5229 -96.8341 67.7662 -87.3378 -97.0151 68.4052 -86.1248 -97.4578 69.1582 
-84.8974 -98.081 69.9784 -83.833 -98.6831 70.6613 -82.952 -99.3561 71.2581 
-92.0124 -96.4606 66.9563 -90.8352 -96.0792 67.6138 -89.4762 -95.9742 68.3741 
-88.2073 -96.0274 68.9915 -87.0034 -96.2838 69.5955 -85.7202 -96.8128 70.3379 
-84.4963 -97.4385 71.0944 -83.5157 -98.0796 71.7449 -82.7687 -98.8624 72.3152 
-92.9266 -96.4797 67.9258 -92.0023 -95.7385 68.2664 -92.948 -95.7259 69.1879 
-92.0265 -94.888 69.5063 -92.9414 -95.0821 70.5855 -90.7622 -95.2793 68.816 
-91.9915 -94.2956 71.0403 -92.8463 -94.8034 72.3409 -90.6644 -94.505 69.9846 
-89.2956 -95.1675 69.4383 -91.7142 -94.2301 73.1249 -92.5473 -94.8847 74.2064 
-90.3642 -94.1512 71.7621 -88.9463 -94.5403 70.7051 -87.8633 -95.2957 70.085 
-91.2237 -94.5988 75.0438 -92.1039 -95.3031 75.7136 -89.8931 -94.2817 74.0296 
-88.4864 -94.3378 72.6997 -87.3955 -94.8231 71.5411 -86.5303 -95.7357 70.8128 
-90.7304 -95.3084 76.3424 -91.6454 -96.0144 77.0289 -89.4788 -94.7699 75.7047 
-88.1749 -94.5663 74.7838 -87.1014 -94.8061 73.4781 -86.1581 -95.526 72.3073 
-85.244 -96.4729 71.5976 -90.2844 -96.1556 77.6402 -91.1706 -96.7118 78.4681 
-89.1525 -95.5829 76.8692 -87.9746 -95.2257 76.1982 -86.9437 -95.2944 75.2722 
-85.9747 -95.7843 74.0348 -84.9927 -96.5085 73.005 -84.1255 -97.2589 72.3339 
-89.8212 -96.8259 79.1523 -90.6605 -97.2487 79.7982 -88.7938 -96.4313 78.3013 
-87.6954 -96.1336 77.4789 -86.6323 -96.0938 76.7183 -85.6179 -96.3349 75.7273 
-84.7124 -96.8015 74.5778 -83.9465 -97.4028 73.6576 -83.2811 -98.0667 72.9645 
-89.3365 -97.3664 80.4296 -90.149 -97.8247 80.7571 -88.3697 -97.0725 79.8113 
-87.3339 -96.9122 78.9706 -86.2454 -96.8552 78.1391 -85.1039 -96.8776 77.2913 
-84.1554 -97.0718 76.2315 -83.5852 -97.5655 75.1264 -83.1437 -98.2587 74.2319 
-82.6291 -98.9954 73.5017 -93.6629 -97.4852 67.4544 -93.7718 -96.8539 68.6368 
-94.6205 -97.8594 68.19 -94.6215 -97.3819 69.3076 -95.4927 -98.4109 68.7923 
-93.6822 -96.3011 69.9436 -95.2667 -98.195 70.0567 -95.88 -99.498 69.6617 
-94.3064 -97.238 70.6889 -93.5032 -96.0318 71.5032 -95.7021 -99.2958 71.2216 
-96.0603 -100.89 70.9049 -94.9059 -98.2474 71.6225 -93.9694 -97.3162 72.3421 
-93.2921 -95.9565 73.276 -96.2988 -100.452 72.5379 -96.4928 -102.086 72.0051 
-95.6821 -99.1408 72.9456 -94.6616 -98.3282 73.4153 -93.7191 -97.2689 74.124 
-93.0017 -95.9824 74.9755 -96.8345 -101.68 73.551 -96.8167 -103.284 72.8595 
-96.4821 -100.202 74.2262 -95.5413 -99.1757 74.7594 -94.3988 -98.3363 75.237 
-93.4765 -97.2213 75.8497 -92.6587 -96.3161 76.5147 -96.822 -103.212 74.4416 
-96.7476 -104.845 73.7866 -96.7527 -101.664 75.1764 -96.0942 -100.404 75.8192 
-95.0114 -99.4878 76.2923 -94.0177 -98.513 76.8077 -93.1731 -97.4918 77.4655 
-92.251 -96.8915 78.0554 -96.5622 -104.949 75.3779 -96.6035 -106.509 74.7224 
-96.5632 -103.351 76.0335 -96.1632 -101.937 76.5566 -95.2469 -100.902 76.9375 
-94.3062 -99.9895 77.4292 -93.5456 -98.8992 78.1854 -92.7216 -97.9457 78.9441 
-91.7356 -97.4389 79.4606 -96.4396 -106.531 76.152 -96.5223 -107.848 75.4269 
-96.3919 -105.009 76.8237 -96.1006 -103.493 77.2756 -95.329 -102.322 77.5244 
[...]
CELL_DATA 2000
SCALARS Distance double
LOOKUP_TABLE default
153.436 152.67 152.967 152.841 151.894 152.184 152.176 152.535 152.533 
151.451 151.518 151.484 151.852 151.923 152.245 152.05 151.399 151.267 
151.077 151.227 151.228 151.556 151.357 151.529 151.027 151.308 151.237 
150.924 150.895 150.705 150.888 150.681 150.821 150.367 150.4 149.905 
150.962 151.019 150.696 150.671 150.31 150.372 150.066 150.192 149.825 
149.859 149.449 149.461 149.157 150.618 150.661 150.407 150.386 149.965 
149.914 149.44 149.531 149.149 149.317 148.986 149.083 148.78 148.842 
148.605 150.48 150.44 150.271 150.196 149.825 149.616 149.031 148.907 
148.434 148.586 148.324 148.556 148.305 148.432 148.136 148.247 148.018 
150.522 150.42 150.301 150.192 149.905 149.613 149.034 148.661 148.106 
148.003 147.764 147.933 147.807 147.947 147.693 147.755 147.472 147.624 
147.469 153.806 154.174 153.678 153.011 154.574 154.091 153.437 152.853 
152.221 154.884 154.474 153.843 153.288 152.624 152.141 151.746 155.127 
154.702 153.925 153.476 152.677 152.381 151.938 151.787 151.622 155.587 
154.988 154.106 153.468 152.478 152.138 151.578 151.676 151.537 151.635 
151.482 156.383 155.64 154.901 153.965 153.039 152.191 151.581 151.31 
151.246 151.377 151.38 151.387 151.156 157.324 156.578 156.004 155.07 
154.372 153.278 152.723 151.875 151.784 151.427 151.57 151.392 151.328 
151.084 150.847 158.243 157.544 156.999 156.207 155.599 154.699 154.161 
153.279 153.002 152.355 152.344 151.916 151.886 151.474 151.28 150.897 
150.708 159.047 158.418 157.866 157.146 156.531 155.777 155.213 154.497 
154.066 153.453 153.179 152.717 152.54 152.136 151.924 151.479 151.247 
150.86 150.734 159.271 159.177 158.869 158.093 159.09 158.754 157.953 
157.6 156.758 159.105 158.718 157.958 157.528 156.695 156.277 155.487 
159.169 158.796 158.121 157.669 156.912 156.367 155.541 155.077 154.374 
159.097 158.84 158.206 157.86 157.162 156.666 155.793 155.212 154.365 
153.99 153.409 158.762 158.653 158.005 157.815 157.097 156.79 155.908 
155.407 154.436 153.975 153.268 153.078 152.67 158.312 158.235 157.6 
157.478 156.764 156.571 155.756 155.399 154.493 154.031 153.269 152.968 
152.511 152.404 152.061 158.06 157.874 157.305 157.107 156.474 156.251 
155.565 155.261 154.528 154.116 153.434 153.05 152.551 152.314 151.944 
151.797 151.428 158.074 157.798 157.294 156.986 156.424 156.109 155.511 
155.189 154.567 154.209 153.593 153.231 152.699 152.404 151.977 151.754 
151.385 151.206 150.899 150.752 151.169 150.843 150.628 151.72 151.281 
150.924 150.597 150.192 152.411 151.86 151.374 150.878 150.302 149.941 
149.338 153.275 152.624 152.091 151.392 150.696 150.101 149.421 149.017 
148.464 154.252 153.576 153.1 152.265 151.585 150.714 150.012 149.312 
148.768 148.323 147.964 155.248 154.612 154.253 153.418 152.858 151.86 
151.213 150.235 149.668 148.898 148.492 148.002 147.739 156.235 155.657 
155.424 154.656 154.229 153.266 152.709 151.655 151.085 150.076 149.585 
148.77 148.434 147.894 147.734 157.162 156.666 156.52 155.856 155.518 
154.659 154.168 153.182 152.639 151.597 151.078 150.075 149.682 148.857 
148.684 148.102 148.128 157.96 157.553 157.43 156.892 156.593 155.883 
155.437 154.582 154.077 153.12 152.622 151.621 151.22 150.284 150.085 
149.31 149.324 148.724 148.857 150.543 150.435 150.441 150.301 149.976 
150.189 149.99 150.096 149.809 149.088 149.477 149.228 149.529 149.146 
149.32 148.837 148.197 148.5 148.246 148.585 148.248 148.508 148.091 
148.246 147.888 147.684 147.777 147.529 147.695 147.445 147.659 147.445 
147.618 147.461 147.576 147.556 147.441 147.425 147.183 147.195 146.956 
147.039 146.907 147.099 147.088 147.278 147.309 147.472 147.554 147.414 
147.276 147.065 146.989 146.773 146.727 146.565 146.661 146.636 146.871 
146.886 147.133 147.107 147.364 147.363 147.772 147.426 147.239 147.016 
146.853 146.685 146.527 146.451 146.37 146.459 146.443 146.635 146.592 
146.816 146.774 147.063 147.11 148.45 147.961 147.732 147.355 147.169 
146.889 146.713 146.518 146.38 146.308 146.25 146.296 146.285 146.389 
146.408 146.569 146.676 146.928 147.135 148.784 148.929 148.556 147.993 
149.058 148.647 148.046 147.766 147.319 149.445 148.848 148.166 147.775 
147.269 147.092 146.766 150.164 149.419 148.683 148.027 147.408 147.04 
146.662 146.564 146.373 150.958 150.231 149.54 148.738 148.042 147.368 
146.882 146.543 146.338 146.266 146.215 151.743 151.034 150.396 149.63 
148.974 148.188 147.656 147.024 146.756 146.41 146.356 146.233 146.257 
152.619 151.881 151.271 150.497 149.912 149.156 148.697 147.983 147.688 
147.094 146.974 146.582 146.573 146.371 146.419 153.459 152.789 152.238 
151.458 150.921 150.151 149.744 149.047 148.749 148.104 147.883 147.347 
147.249 146.867 146.878 146.632 146.729 154.125 153.576 153.098 152.43 
151.938 151.209 150.782 150.088 149.72 149.078 148.735 148.184 147.966 
147.566 147.533 147.226 147.306 147.054 147.209 149.419 150.535 149.85 
149.588 151.702 150.99 150.729 150.013 149.766 152.954 152.189 151.981 
151.235 151.057 150.304 150.192 154.422 153.553 153.385 152.578 152.479 
151.703 151.632 150.874 150.87 156.029 155.149 155.012 154.116 154.039 
153.208 153.153 152.352 152.297 151.574 151.594 157.524 156.761 156.7 
155.83 155.752 154.857 154.789 153.916 153.835 153.016 152.993 152.294 
152.367 158.909 158.208 158.206 157.461 157.396 156.557 156.437 155.565 
155.449 154.591 154.533 153.752 153.804 153.118 153.232 160.322 159.606 
159.596 158.897 158.825 158.069 157.885 157.092 156.906 156.135 156.028 
155.283 155.261 154.562 154.601 153.957 154.015 161.628 160.994 160.953 
160.271 160.165 159.418 159.19 158.413 158.173 157.458 157.324 156.665 
156.603 155.944 155.901 155.257 155.231 154.633 154.627 158.356 158.733 
158.307 157.789 159.093 158.606 157.973 157.581 156.923 159.55 158.97 
158.243 157.733 157.008 156.59 155.815 160.037 159.459 158.728 158.091 
157.306 156.733 155.915 155.414 154.531 160.479 159.927 159.218 158.597 
157.766 157.111 156.2 155.577 154.628 154.083 153.13 160.989 160.376 
159.605 159 158.123 157.51 156.536 155.881 154.87 154.24 153.276 
152.711 151.803 161.474 160.865 159.98 159.334 158.401 157.794 156.847 
156.202 155.221 154.543 153.622 152.984 152.155 151.538 150.756 161.723 
161.218 160.293 159.665 158.712 158.094 157.209 156.568 155.669 154.967 
154.089 153.421 152.654 152.025 151.328 150.676 150.018 161.813 161.377 
160.519 159.94 159.046 158.445 157.625 157.006 156.172 155.477 154.606 
153.92 153.137 152.539 151.87 151.287 150.665 150.048 149.487 158.715 
159.443 159.122 159.188 160.255 159.889 160.021 159.641 159.672 161.184 
160.714 160.812 160.485 160.616 160.182 160.183 162.244 161.652 161.613 
161.243 161.374 161.074 161.143 160.685 160.63 163.355 162.717 162.576 
162.064 162.113 161.793 161.899 161.55 161.553 161.091 161.05 164.464 
163.833 163.688 163.068 163.034 162.59 162.688 162.318 162.395 161.98 
162.049 161.581 161.624 165.612 164.989 164.838 164.167 164.017 163.502 
163.517 163.147 163.225 162.844 162.928 162.548 162.658 162.202 162.177 
166.684 166.145 165.957 165.272 164.96 164.374 164.225 163.882 163.907 
163.619 163.632 163.321 163.337 163.054 163.037 162.617 162.42 167.467 
167.102 166.914 166.308 165.903 165.24 164.929 164.499 164.455 164.205 
164.206 163.919 163.831 163.56 163.478 163.239 163.112 162.713 162.454 
167.762 167.942 167.707 167.224 167.916 167.776 167.252 166.935 166.221 
167.652 167.646 167.196 166.941 166.288 165.885 165.256 167.258 167.316 
167.002 166.887 166.41 166.066 165.551 165.144 164.773 166.948 166.952 
166.649 166.642 166.29 166.173 165.781 165.503 165.119 164.796 164.478 
166.624 166.652 166.263 166.257 165.878 165.919 165.602 165.58 165.221 
165.037 164.617 164.381 164.021 166.055 166.209 165.827 165.853 165.452 
165.483 165.188 165.266 164.999 164.976 164.604 164.429 164.036 163.863 
163.592 165.397 165.577 165.296 165.392 165.079 165.113 164.842 164.884 
164.651 164.688 164.417 164.357 164.03 163.884 163.591 163.471 163.231 
164.914 165.015 164.804 164.905 164.689 164.768 164.542 164.582 164.313 
164.34 164.046 164.086 163.8 163.805 163.513 163.446 163.127 163.031 
162.654 164.643 164.157 164.443 164.504 163.526 163.912 163.999 164.304 
164.389 162.589 163.159 163.257 163.711 163.8 164.173 164.248 161.271 
162.012 162.091 162.765 162.851 163.432 163.501 163.945 163.97 159.854 
160.582 160.659 161.427 161.553 162.303 162.414 163.032 163.083 163.577 
163.627 158.599 159.232 159.315 160.015 160.18 160.951 161.135 161.849 
161.969 162.585 162.711 163.259 163.392 157.396 158.024 158.094 158.753 
158.887 159.614 159.777 160.527 160.662 161.389 161.557 162.263 162.478 
163.059 163.176 156.194 156.812 156.886 157.54 157.645 158.334 158.431 
159.147 159.23 159.995 160.145 160.98 161.212 162.003 162.172 162.764 
162.782 155.134 155.673 155.763 156.357 156.469 157.103 157.194 157.834 
157.902 158.583 158.718 159.516 159.747 160.608 160.798 161.571 161.62 
162.241 162.207 164.652 164.401 164.399 164.104 163.83 163.955 163.573 
163.724 163.391 162.985 163.182 162.724 162.99 162.626 162.876 162.441 
162.106 162.296 161.847 162.079 161.681 161.963 161.521 161.75 161.157 
161.183 161.417 161.008 161.248 160.828 161.03 160.525 160.735 160.167 
160.36 159.747 160.116 160.4 159.918 160.292 159.853 160.149 159.592 
159.766 159.166 159.357 158.816 159.013 158.488 159.056 159.285 158.702 
159.051 158.559 158.987 158.471 158.78 158.185 158.396 157.848 158.076 
157.576 157.79 157.274 158.132 158.296 157.716 157.894 157.345 157.66 
157.184 157.567 157.064 157.372 156.821 157.084 156.548 156.811 156.287 
156.535 156.038 157.289 157.448 156.917 157.021 156.449 156.595 156.095 
156.369 155.932 156.244 155.746 156.015 155.465 155.735 155.214 155.503 
155.045 155.332 154.949 164.912 165.303 165.018 164.759 165.785 165.463 
165.255 164.837 164.354 166.29 165.971 165.754 165.361 164.898 164.309 
163.587 166.492 166.332 166.007 165.749 165.248 164.79 164.046 163.432 
162.64 166.222 166.242 165.824 165.749 165.19 164.947 164.234 163.79 
162.992 162.455 161.686 165.775 165.817 165.417 165.404 164.896 164.757 
164.134 163.854 163.159 162.741 161.983 161.466 160.678 165.353 165.384 
165.033 165.024 164.621 164.505 163.976 163.743 163.113 162.809 162.095 
161.687 160.883 160.391 159.601 164.896 164.961 164.613 164.653 164.272 
164.249 163.747 163.589 162.933 162.69 161.954 161.664 160.868 160.495 
159.687 159.285 158.577 164.435 164.495 164.136 164.188 163.771 163.815 
163.298 163.253 162.58 162.418 161.67 161.45 160.711 160.42 159.679 
159.319 158.618 158.278 157.674 164.091 163.357 163.747 163.732 162.372 
162.892 162.86 163.309 163.296 161.168 161.794 161.779 162.325 162.262 
162.784 162.741 159.841 160.516 160.498 161.136 161.04 161.62 161.492 
162.091 161.975 158.499 159.165 159.122 159.78 159.67 160.292 160.139 
160.758 160.629 161.246 161.104 157.293 157.884 157.858 158.43 158.312 
158.895 158.784 159.406 159.369 159.974 159.911 160.424 160.251 156.25 
156.762 156.724 157.229 157.097 157.608 157.515 158.108 158.16 158.799 
158.843 159.351 159.195 159.583 159.301 155.255 155.714 155.565 156.064 
155.9 156.428 156.342 156.918 156.955 157.605 157.655 158.255 158.103 
158.535 158.196 158.574 158.251 154.283 154.675 154.441 154.873 154.697 
155.225 155.201 155.79 155.832 156.421 156.394 156.979 156.793 157.317 
156.977 157.423 157.082 157.53 157.293 153.727 153.103 153.521 153.843 
152.754 153.018 153.265 153.673 154.095 152.242 152.658 152.912 153.255 
153.674 154.106 154.684 151.193 151.887 152.219 152.829 153.276 153.778 
154.309 154.782 155.342 150.026 150.688 151.024 151.861 152.336 153.141 
153.591 154.256 154.66 155.272 155.735 149.229 149.654 149.873 150.582 
150.992 151.908 152.352 153.23 153.575 154.34 154.694 155.476 155.95 
148.692 149.002 149.124 149.572 149.855 150.567 151.027 151.896 152.372 
153.175 153.593 154.348 154.811 155.63 156.132 148.192 148.509 148.667 
148.973 149.21 149.646 150.076 150.746 151.331 152.09 152.65 153.351 
153.865 154.57 155.104 155.848 156.349 147.727 148.056 148.311 148.605 
148.884 149.184 149.571 150.028 150.584 151.217 151.818 152.492 153.037 
153.709 154.254 154.944 155.499 156.161 156.655 156.656 155.497 156.159 
156.261 154.207 154.895 154.985 155.689 155.773 152.947 153.573 153.632 
154.357 154.509 155.221 155.397 151.757 152.342 152.388 153.053 153.258 
153.988 154.249 154.946 155.206 150.585 151.158 151.189 151.835 152.006 
152.763 153.027 153.782 154.013 154.739 154.968 149.578 150.035 149.995 
150.577 150.617 151.401 151.588 152.457 152.655 153.455 153.629 154.415 
154.644 148.847 149.153 149.036 149.42 149.326 149.942 150.058 150.921 
151.188 152.053 152.305 153.081 153.342 154.119 154.42 148.224 148.481 
148.34 148.588 148.455 148.808 148.889 149.523 149.874 150.677 151.086 
151.849 152.209 152.926 153.28 153.997 154.333 147.592 147.834 147.703 
147.952 147.861 148.116 148.187 148.607 148.935 149.569 150.01 150.725 
151.128 151.849 152.232 152.946 153.319 153.99 154.318 159.61 158.811 
159.549 160.222 157.886 158.673 159.367 160.177 160.918 156.969 157.725 
158.431 159.285 160.094 160.916 161.672 156.213 156.853 157.544 158.366 
159.227 160.101 160.947 161.696 162.434 155.673 156.16 156.775 157.519 
158.389 159.275 160.172 160.97 161.747 162.462 163.172 155.282 155.645 
156.101 156.744 157.564 158.465 159.398 160.219 160.977 161.707 162.387 
163.137 163.732 154.98 155.277 155.626 156.086 156.77 157.605 158.538 
159.43 160.194 160.92 161.533 162.27 162.867 163.58 164 154.708 
155.031 155.433 155.731 156.288 156.867 157.688 158.524 159.32 160.099 
160.71 161.418 161.999 162.712 163.22 163.795 164.09 154.37 154.777 
155.271 155.605 156.126 156.511 157.167 157.764 158.505 159.225 159.894 
160.601 161.199 161.889 162.436 163.055 163.456 163.915 164.16 160.183 
160.887 160.788 161.282 161.645 161.571 162.181 161.991 162.485 162.36 
162.332 162.999 162.923 163.503 163.255 163.689 163.078 163.028 163.675 
163.675 164.312 164.216 164.678 164.399 164.73 163.859 163.793 164.457 
164.389 165.078 165.001 165.557 165.33 165.674 165.354 165.624 164.406 
164.498 165.173 165.198 165.923 165.871 166.515 166.278 166.669 166.293 
166.529 166.181 166.377 164.521 164.776 165.322 165.628 166.288 166.558 
167.208 167.217 167.593 167.283 167.408 167.031 167.127 166.821 166.923 
164.473 164.701 165.096 165.464 166.002 166.521 167.145 167.562 167.967 
167.989 168.05 167.779 167.734 167.459 167.499 167.27 167.349 164.51 
164.649 165.002 165.222 165.687 166.099 166.688 167.214 167.718 168.053 
168.251 168.225 168.197 167.978 167.967 167.764 167.84 167.654 167.714 
159.964 160.988 160.275 159.89 162.11 161.323 160.921 160.201 159.824 
163.295 162.486 162.071 161.292 160.935 160.187 159.839 164.385 163.66 
163.268 162.486 162.111 161.338 160.965 160.214 159.853 165.309 164.694 
164.333 163.632 163.202 162.463 161.992 161.267 160.798 160.134 159.708 
166.045 165.535 165.153 164.566 164.1 163.437 162.882 162.176 161.592 
160.938 160.398 159.83 159.329 166.602 166.169 165.741 165.236 164.745 
164.196 163.656 163.005 162.389 161.681 161.064 160.433 159.88 159.343 
158.853 167.076 166.677 166.248 165.746 165.219 164.723 164.2 163.682 
163.103 162.461 161.809 161.12 160.523 159.914 159.444 158.919 158.564 
167.459 167.127 166.716 166.236 165.671 165.156 164.572 164.112 163.526 
163.034 162.39 161.808 161.193 160.598 160.131 159.586 159.265 158.768 
158.539 165.076 165.554 165.333 165.455 166.26 165.939 166.02 165.757 
165.927 166.874 166.664 166.747 166.424 166.522 166.288 166.466 167.16 
167.114 167.203 167.046 167.077 166.877 166.936 166.758 166.743 167.447 
167.354 167.45 167.345 167.361 167.25 167.22 167.107 166.998 166.812 
166.54 167.912 167.766 167.923 167.701 167.755 167.52 167.479 167.291 
167.167 166.988 166.736 166.474 166.114 168.21 168.201 168.376 168.243 
168.315 168.05 167.988 167.653 167.487 167.19 166.943 166.668 166.331 
166.038 165.667 168.171 168.299 168.382 168.467 168.492 168.473 168.401 
168.181 167.954 167.595 167.251 166.896 166.489 166.199 165.782 165.543 
165.163 167.917 168.091 168.074 168.236 168.205 168.376 168.358 168.402 
168.268 168.04 167.687 167.257 166.761 166.347 165.862 165.587 165.191 
165.007 164.678 
POINT_DATA 1002
SCALARS Distance double
LOOKUP_TABLE default
153.202 153.93 153.181 152.526 152.31 152.802 151.725 151.653 152.285 
152.518 151.183 151.522 151.552 151.94 151.701 151.104 151.578 150.954 
151.186 150.953 150.434 151.038 151.316 150.637 150.533 150.333 149.823 
149.467 150.712 150.867 150.348 149.954 149.721 149.43 149.101 148.91 
150.412 150.583 150.106 149.45 148.926 148.809 148.725 148.521 148.389 
150.332 150.534 150.078 149.3 148.353 148.03 148.142 148.055 147.838 
147.833 150.403 150.637 150.176 149.469 148.34 147.635 147.636 147.651 
147.379 147.206 147.373 154.311 153.549 154.668 154.061 154.997 152.706 
154.37 155.292 153.103 152.071 154.452 155.646 152.961 151.976 151.775 
154.875 156.247 152.997 151.484 151.285 151.56 155.804 157.101 154.028 
152.098 151.17 151.295 151.294 156.832 158.045 155.381 153.712 152.366 
151.827 151.598 151.098 157.759 158.929 156.411 155.01 153.765 152.881 
152.333 151.734 151.015 158.57 159.645 157.273 155.913 154.721 153.719 
152.944 152.349 151.695 151.038 159.6 158.439 159.495 158.33 159.448 
157.093 158.383 159.49 157.166 155.83 158.522 159.5 157.466 156.112 
154.687 158.503 159.294 157.599 156.428 154.846 153.571 158.168 158.831 
157.349 156.349 154.953 153.517 152.726 157.713 158.396 156.926 156.023 
154.902 153.63 152.67 152.147 157.519 158.27 156.69 155.814 154.867 
153.823 152.857 152.136 151.558 157.612 158.346 156.757 155.832 154.898 
153.946 153.02 152.229 151.576 151.03 150.597 150.91 150.385 151.366 
150.505 149.693 151.996 150.773 149.636 148.693 152.87 151.419 149.905 
148.73 147.976 153.924 152.518 150.828 149.31 148.27 147.653 155.024 
153.822 152.245 150.577 149.125 148.091 147.481 156.124 155.133 153.741 
152.152 150.534 149.102 148.115 147.61 157.124 156.317 155.111 153.661 
152.113 150.592 149.356 148.583 148.193 157.93 157.242 156.227 154.981 
153.594 152.164 150.908 149.994 149.397 148.984 150.33 149.859 149.788 
148.886 148.947 148.709 147.929 147.931 147.875 147.697 147.432 147.233 
147.179 147.29 147.405 147.197 146.928 146.714 146.836 147.146 147.382 
147.156 146.85 146.547 146.441 146.64 146.879 147.066 147.518 147.049 
146.667 146.374 146.304 146.392 146.511 146.751 148.178 147.506 146.96 
146.518 146.254 146.201 146.27 146.451 146.831 149.192 148.301 149.299 
148.344 149.536 147.498 148.669 150.134 147.489 146.825 149.46 150.904 
147.93 146.813 146.354 150.335 151.638 148.834 147.374 146.47 146.198 
151.131 152.464 149.728 148.366 147.236 146.57 146.308 152.053 153.345 
150.635 149.379 148.353 147.484 146.876 146.542 152.975 154.063 151.691 
150.444 149.416 148.484 147.69 147.188 146.908 153.694 154.622 152.63 
151.498 150.41 149.34 148.387 147.827 147.587 147.426 150.084 150.278 
151.248 151.447 152.415 150.467 152.708 153.744 151.794 150.913 154.213 
155.314 153.238 152.408 151.579 155.926 156.852 154.901 153.981 153.075 
152.243 157.511 158.216 156.667 155.694 154.698 153.736 153.003 158.903 
159.615 158.211 157.315 156.307 155.345 154.521 153.89 160.309 161.049 
159.583 158.686 157.659 156.756 155.987 155.278 154.64 161.63 162.209 
160.927 159.99 158.898 157.964 157.256 156.572 155.857 155.198 158.797 
158.2 159.206 158.418 159.659 157.307 158.838 160.158 157.478 156.243 
159.387 160.571 157.963 156.483 155.024 159.827 161.046 158.447 156.892 
155.231 153.635 160.261 161.667 158.734 157.195 155.526 153.858 152.339 
160.673 162.089 159.015 157.461 155.891 154.253 152.76 151.371 160.9 
162.187 159.313 157.813 156.358 154.765 153.255 151.95 150.667 159.007 
159.566 159.762 160.346 160.665 160.156 161.137 161.755 160.961 160.737 
162.071 162.913 161.639 161.53 161.168 163.174 163.983 162.491 162.217 
161.959 161.54 164.348 165.066 163.548 163.07 162.786 162.449 162.164 
165.558 166.216 164.613 163.896 163.594 163.304 163.037 162.779 166.667 
167.173 165.651 164.621 164.165 163.969 163.63 163.351 162.987 167.47 