# vtk DataFile Version 4.0
vtk output
ASCII
DATASET POLYDATA
POINTS 1002 float
-78.6944 -111.348 76.1233 -78.4 -112.725 75.713 -78.638 -112.254 74.8615 
-78.918 -110.787 75.318 -78.8147 -111.555 73.9714 -79.0545 -109.866 76.5625 
-79.2024 -110.13 74.5104 -79.0665 -110.865 73.1529 -79.427 -109.341 75.824 
-79.6974 -108.554 77.0631 -79.7554 -109.594 73.7499 -79.7015 -110.423 72.5964 
-79.9792 -108.823 75.0842 -80.3216 -108.1 76.3742 -80.6606 -107.431 77.6598 
-80.6668 -109.19 73.1711 -80.6681 -110.012 72.2365 -80.7635 -108.331 74.3368 
-81.0691 -107.582 75.6623 -81.3533 -106.853 76.9595 -81.5667 -106.116 78.2537 
-81.7128 -108.68 72.75 -81.6551 -109.394 71.842 -81.6997 -107.772 73.7543 
-81.83 -106.924 74.9716 -82.017 -106.11 76.2364 -82.0877 -105.248 77.5044 
-82.0992 -104.42 78.7015 -82.7232 -108.048 72.3714 -82.6391 -108.703 71.4576 
-82.7142 -107.156 73.3558 -82.6585 -106.22 74.4575 -82.6651 -105.333 75.5907 
-82.6702 -104.409 76.746 -82.6429 -103.553 77.9601 -82.5894 -102.83 79.038 
-83.6895 -107.384 72.0502 -83.6883 -108.02 71.2146 -83.7086 -106.551 72.9879 
-83.6358 -105.609 74.0173 -83.5038 -104.703 75.0579 -83.4052 -103.778 76.0648 
-83.4044 -102.931 77.191 -83.4238 -102.27 78.3591 -83.3589 -101.703 79.3465 
-84.6301 -106.713 71.816 -84.723 -107.325 71.0708 -84.5915 -105.931 72.6361 
-84.5714 -105.022 73.53 -84.4953 -104.154 74.5134 -84.3343 -103.27 75.4752 
-84.233 -102.41 76.46 -84.2625 -101.756 77.5892 -84.2529 -101.241 78.6866 
-84.1217 -100.758 79.6089 -85.5905 -106.125 71.652 -85.6903 -106.692 70.966 
-85.4708 -105.365 72.3785 -85.4032 -104.438 73.109 -85.4005 -103.577 73.9716 
-85.3104 -102.753 74.9411 -85.0907 -101.864 75.8506 -84.9382 -101.114 76.8051 
-84.8845 -100.581 77.8919 -84.7812 -100.132 78.9223 -84.6094 -99.7456 79.8117 
-78.2311 -113.677 74.7275 -78.5184 -113.162 73.7282 -78.0444 -114.449 73.5632 
-78.2173 -113.911 72.4153 -77.743 -115.025 72.2717 -78.5971 -112.382 72.7019 
-77.5731 -114.455 70.9758 -77.3452 -115.439 71.0735 -78.0259 -113.154 71.2458 
-78.7751 -111.712 71.9002 -76.9804 -114.812 69.5739 -77.2185 -115.868 70.2052 
-77.1681 -113.756 69.5474 -78.1539 -112.52 70.3794 -79.4832 -111.241 71.479 
-77.1526 -115.286 68.6424 -77.6499 -116.626 69.7121 -76.8555 -114.192 68.038 
-77.5892 -113.115 68.6598 -79.0909 -111.876 70.0361 -80.527 -110.61 71.1726 
-78.0781 -116.082 68.5895 -78.4641 -117.572 69.5651 -77.6212 -114.759 67.6801 
-77.8587 -113.609 67.7384 -79.0258 -112.372 68.7999 -80.4313 -111.075 69.9807 
-81.6256 -109.855 70.82 -79.2366 -116.756 69.2027 -79.4436 -118.138 69.7416 
-78.9752 -115.432 68.5252 -78.969 -114.228 68.1822 -79.6242 -112.943 68.5433 
-80.7484 -111.647 69.2532 -81.8728 -110.419 69.9374 -82.8501 -109.194 70.578 
-80.4163 -116.953 69.8517 -80.536 -118.2 70.0953 -80.3785 -115.827 69.476 
-80.3904 -114.83 68.9572 -80.6468 -113.603 68.682 -81.3649 -112.286 68.8511 
-82.3755 -111.134 69.3136 -83.3261 -109.883 69.8853 -84.0928 -108.514 70.4746 
-81.5848 -116.956 70.1914 -81.6526 -118.123 70.4232 -81.6735 -115.96 69.8477 
-81.7985 -115.222 69.1533 -81.8808 -114.229 68.3802 -82.1525 -112.881 68.1157 
-82.8551 -111.716 68.5306 -83.773 -110.62 69.2496 -84.5581 -109.198 69.89 
-85.1648 -107.763 70.4208 -82.7329 -117.477 70.4056 -82.8243 -116.374 69.9681 
-83.9352 -117.069 70.0919 -84.0915 -116.1 69.3427 -85.1385 -116.709 69.7194 
-83.0427 -115.606 69.1668 -85.2212 -115.714 68.9694 -86.3277 -116.076 69.6249 
-84.3167 -115.325 68.2387 -83.2006 -114.85 68.0176 -86.3555 -114.937 69.1515 
-87.6216 -115.216 69.7241 -85.4324 -114.659 68.1694 -84.5044 -114.212 67.236 
-83.2614 -113.536 67.2768 -87.6964 -113.932 69.4592 -89.001 -114.204 69.9099 
-86.6243 -113.623 68.8076 -85.803 -113.251 67.8333 -84.6958 -112.684 67.2141 
-83.571 -112.133 67.6077 -89.198 -112.762 69.803 -90.3331 -112.982 70.2353 
-88.0123 -112.417 69.3521 -87.1923 -112.114 68.7933 -86.281 -111.79 68.2853 
-85.1263 -111.395 68.1869 -84.2918 -111.028 68.6278 -90.748 -111.516 70.1569 
-91.5906 -111.771 70.4943 -89.5806 -111.112 69.7868 -88.6399 -110.771 69.2929 
-87.8999 -110.628 68.9899 -86.8526 -110.444 69.0224 -85.7853 -110.075 69.2198 
-85.098 -109.629 69.5165 -92.1912 -110.439 70.2415 -92.7423 -110.793 70.5765 
-91.2169 -109.933 70.0062 -90.16 -109.421 69.5834 -89.3913 -109.166 69.1535 
-88.5567 -109.052 69.1844 -87.4286 -108.758 69.5197 -86.4422 -108.323 69.7971 
-85.7609 -107.967 70.0603 -93.3287 -109.52 70.2203 -93.6883 -109.935 70.7069 
-92.6312 -108.974 69.9349 -91.6422 -108.34 69.6805 -90.7385 -107.842 69.3166 
-89.9661 -107.552 69.1657 -88.997 -107.279 69.4472 -87.9117 -106.964 69.8542 
-87.0295 -106.749 70.1869 -86.3348 -106.682 70.5431 -86.6577 -105.817 71.3096 
-87.4285 -105.731 70.851 -87.7273 -104.874 71.7278 -88.2232 -105.605 70.3943 
-88.5504 -104.699 71.232 -88.679 -103.586 72.0822 -89.1659 -105.608 69.927 
-89.3344 -104.395 70.6554 -89.5046 -103.334 71.5468 -89.4435 -102.022 72.275 
-90.2199 -105.845 69.5126 -90.2717 -104.268 70.1129 -90.3772 -103.037 70.8991 
-90.4538 -101.874 71.7884 -90.249 -100.6 72.4372 -91.1879 -106.24 69.3781 
-91.3895 -104.487 69.7756 -91.4845 -102.921 70.3392 -91.5792 -101.752 71.1725 
-91.4901 -100.654 72.0864 -91.1156 -99.3791 72.6575 -92.134 -106.784 69.5149 
-92.5265 -104.974 69.6776 -92.7724 -103.073 70.0209 -92.8054 -101.622 70.5839 
-92.6505 -100.629 71.5242 -92.3496 -99.4921 72.3624 -91.9178 -98.1888 72.876 
-93.1073 -107.477 69.7228 -93.544 -105.682 69.7507 -93.9706 -103.607 69.9397 
-94.1004 -101.732 70.2226 -93.8162 -100.536 70.9214 -93.4712 -99.5598 71.8675 
-93.187 -98.3106 72.5563 -92.7901 -97.1836 73.1545 -93.8549 -108.148 70.0747 
-94.2928 -106.482 70.0953 -94.8116 -104.53 70.1678 -95.2208 -102.467 70.2004 
-95.1176 -100.835 70.5694 -94.7329 -99.7439 71.4186 -94.5001 -98.62 72.2239 
-94.2495 -97.4068 72.8418 -93.743 -96.5935 73.6278 -94.2714 -108.68 70.653 
-94.7355 -107.165 70.7277 -95.2629 -105.495 70.7413 -95.8799 -103.657 70.5615 
-96.1941 -101.796 70.5885 -96.0395 -100.314 71.2222 -95.8058 -99.1386 72.0655 
-95.6258 -97.9528 72.7022 -95.2135 -96.9507 73.374 -94.5147 -96.4101 74.3254 
-86.5533 -105.12 72.0488 -87.5675 -103.888 72.4321 -86.3735 -104.106 72.7255 
-88.4064 -102.337 72.6605 -87.3067 -102.671 73.0304 -86.2777 -103.075 73.447 
-89.0751 -100.714 72.7457 -88.0604 -101.109 73.2263 -87.1473 -101.65 73.8348 
-86.24 -102.208 74.4142 -89.828 -99.2582 72.8815 -88.6886 -99.485 73.3543 
-87.8137 -100.067 74.1334 -86.9536 -100.693 74.8678 -86.0043 -101.264 75.3925 
-90.6832 -97.9958 73.1729 -89.448 -97.9984 73.6311 -88.4213 -98.3762 74.3658 
-87.4977 -99.0141 75.1268 -86.5224 -99.645 75.7104 -85.6337 -100.332 76.2359 
-91.5622 -97.0372 73.6262 -90.3488 -97.0109 74.2044 -89.218 -97.1164 74.8673 
-88.1513 -97.5293 75.4729 -87.0862 -98.148 75.9838 -86.1008 -98.8248 76.5617 
-85.3914 -99.6669 77.2421 -92.4778 -96.4669 74.2399 -91.2784 -96.5122 74.9621 
-90.143 -96.5158 75.6646 -88.9913 -96.6098 76.2118 -87.8837 -97.0251 76.6243 
-86.8252 -97.6132 77.1138 -85.8897 -98.3033 77.7523 -85.2505 -99.198 78.3953 
-93.3168 -96.2171 74.9863 -92.1631 -96.1824 75.7379 -91.0696 -96.0979 76.4511 
-89.869 -95.971 77.0431 -88.6978 -96.1388 77.511 -87.7164 -96.6689 77.959 
-86.726 -97.2866 78.4658 -85.7703 -97.9796 78.9781 -85.0968 -98.8527 79.4313 
-94.3231 -96.2918 75.6674 -93.2016 -96.0014 76.3935 -94.0654 -96.1836 77.2209 
-93.1048 -95.5308 77.8331 -93.8581 -95.9269 78.7255 -92.156 -95.6524 77.0813 
-92.9627 -95.0561 79.2594 -93.6297 -95.7941 80.1692 -92.0843 -94.7647 78.4032 
-90.9411 -95.2522 77.7057 -92.6858 -95.2341 80.7377 -93.3992 -96.0871 81.6123 
-91.8231 -94.3465 79.8593 -90.6118 -94.3055 79.0177 -89.5155 -95.1605 78.2966 
-92.3919 -95.9633 82.1224 -93.2525 -96.5855 82.9969 -91.4566 -94.9629 81.3568 
-90.2073 -94.2608 80.5006 -89.0981 -94.646 79.6381 -88.4003 -95.6972 78.8448 
-92.127 -96.5822 83.4619 -93.0584 -97.0045 84.3903 -91.1295 -95.9113 82.6859 
-89.9278 -95.1295 81.9733 -88.8213 -95.0151 81.0702 -88.1481 -95.6995 80.1755 
-87.5223 -96.5381 79.3413 -91.8288 -97.0289 84.9514 -92.748 -97.4685 85.7736 
-90.8297 -96.624 84.0371 -89.73 -96.1008 83.3341 -88.6462 -95.8331 82.5808 
-87.8676 -96.1642 81.6001 -87.2136 -96.7336 80.6429 -86.4384 -97.2754 79.7793 
-91.5339 -97.6107 86.3117 -92.4029 -98.1677 86.8197 -90.5732 -97.2869 85.443 
-89.5509 -96.9934 84.6089 -88.4633 -96.6728 83.981 -87.4948 -96.6578 83.1944 
-86.7234 -97.0125 82.1325 -86.0088 -97.4594 81.0717 -85.4209 -98.0303 80.1694 
-91.2293 -98.4132 87.1663 -92.0163 -99.0789 87.356 -90.3502 -98.0305 86.58 
-89.4013 -97.8602 85.7472 -88.3228 -97.5953 85.0753 -87.1868 -97.2574 84.5297 
-86.2332 -97.2524 83.7104 -85.5402 -97.6422 82.5906 -85.0505 -98.2107 81.4669 
-84.7592 -98.92 80.5349 -95.5209 -96.7041 74.5618 -95.2173 -96.6599 76.1208 
-96.2207 -97.1866 75.0792 -95.9604 -97.1528 76.8526 -96.6469 -97.8451 75.9296 
-94.9313 -96.6461 77.8712 -96.6068 -97.8 77.8167 -97.0875 -98.8223 76.969 
-95.8605 -97.1238 78.6895 -94.7348 -96.494 79.4821 -97.1473 -98.8276 78.7758 
-97.5063 -100.077 77.9283 -96.6182 -97.7973 79.5493 -95.7479 -97.0379 80.3042 
-94.517 -96.4361 81.023 -97.4451 -100.15 79.5585 -97.6199 -101.399 78.7314 
-96.9467 -98.9753 80.3015 -96.3746 -97.9643 81.0896 -95.5114 -97.1715 81.9309 
-94.3533 -96.7111 82.5917 -97.5489 -101.587 80.2617 -97.5539 -102.89 79.4937 
-97.1047 -100.434 80.9869 -96.5235 -99.3883 81.8015 -96.0193 -98.4118 82.7051 
-95.2533 -97.6043 83.4999 -94.1887 -97.1595 84.0329 -97.5698 -103.225 80.9281 
-97.5472 -104.579 80.1902 -97.324 -101.978 81.6689 -96.7631 -100.889 82.5034 
-96.1878 -99.8998 83.3194 -95.6115 -98.9376 84.0542 -94.8297 -98.1378 84.743 
-93.8404 -97.6676 85.3378 -97.4656 -104.915 81.422 -97.5307 -106.13 80.6885 
-97.3466 -103.647 82.2084 -97.0329 -102.422 83.0981 -96.4729 -101.34 83.8602 
-95.7551 -100.383 84.4302 -95.0172 -99.4993 85.0795 -94.2778 -98.799 85.8298 
-93.4109 -98.3712 86.4482 -97.2599 -106.363 81.7127 -97.4063 -107.362 80.9861 
-97.1084 -105.251 82.5267 -96.9459 -104.047 83.4456 -96.6101 -102.879 84.2285 
[...]
CELL_DATA 2000
SCALARS Distance double
LOOKUP_TABLE default
155.375 154.66 154.936 154.714 153.891 154.193 154.069 154.315 154.208 
153.401 153.549 153.531 153.749 153.767 153.98 154.05 153.301 153.282 
153.247 153.348 153.413 153.613 153.702 153.925 153.998 153.276 153.262 
153.155 153.159 153.122 153.275 153.29 153.516 153.464 153.722 153.591 
153.165 153.197 153.098 153.07 152.938 152.987 152.893 153.043 152.909 
153.104 152.923 153.152 152.957 153.078 153.09 153.02 152.997 152.858 
152.827 152.68 152.697 152.538 152.599 152.455 152.584 152.512 152.655 
152.609 153.053 153.03 152.932 152.91 152.761 152.732 152.572 152.551 
152.385 152.355 152.203 152.242 152.201 152.342 152.375 152.498 152.507 
153.09 153.03 152.92 152.845 152.67 152.607 152.434 152.427 152.279 
152.258 152.073 152.048 151.9 152.014 151.97 152.191 152.156 152.349 
152.282 155.631 155.666 155.44 154.908 155.456 155.358 154.815 154.591 
154.041 155.004 154.979 154.412 154.345 153.826 153.747 153.448 154.589 
154.415 153.74 153.761 153.294 153.426 153.246 153.348 153.319 154.736 
154.155 153.356 153.115 152.661 152.819 152.758 153.054 153.121 153.286 
153.28 155.614 154.692 153.924 153.17 152.739 152.472 152.504 152.633 
152.823 153.016 153.092 153.192 153.156 156.743 155.835 155.238 154.248 
153.88 153.125 153.145 152.791 153.034 152.936 153.133 153.094 153.165 
153.127 153.124 157.666 156.959 156.507 155.693 155.378 154.555 154.414 
153.76 153.799 153.426 153.585 153.388 153.518 153.332 153.361 153.191 
153.168 158.384 157.802 157.409 156.82 156.53 155.902 155.609 154.946 
154.654 154.161 154.07 153.865 153.953 153.802 153.821 153.566 153.484 
153.256 153.201 158.627 158.752 158.333 157.697 158.949 158.498 157.851 
157.469 156.891 159.116 158.684 157.989 157.606 156.954 156.619 155.966 
159.245 158.824 158.112 157.709 156.969 156.595 155.836 155.54 154.891 
159.373 158.955 158.261 157.838 157.143 156.676 155.931 155.463 154.847 
154.57 154.241 159.469 159.092 158.406 157.992 157.371 156.945 156.37 
155.822 155.306 154.799 154.535 154.253 154.169 159.52 159.201 158.557 
158.139 157.493 157.139 156.645 156.301 155.877 155.431 155.071 154.683 
154.456 154.223 154.027 159.558 159.283 158.716 158.309 157.628 157.23 
156.65 156.418 155.986 155.789 155.342 155.071 154.614 154.387 154.015 
153.887 153.599 159.577 159.335 158.803 158.459 157.79 157.366 156.692 
156.374 155.845 155.689 155.222 155.072 154.568 154.381 153.942 153.803 
153.516 153.44 153.269 153.234 153.433 153.321 153.351 153.741 153.519 
153.499 153.443 153.386 154.234 153.846 153.654 153.529 153.439 153.351 
153.087 154.852 154.368 154.03 153.703 153.507 153.368 153.198 153.004 
152.684 155.553 155.027 154.699 154.185 153.9 153.548 153.407 153.195 
153.073 152.755 152.477 156.46 155.85 155.602 154.977 154.676 154.112 
153.879 153.526 153.436 153.195 153.041 152.641 152.319 157.553 156.897 
156.678 155.994 155.709 155.016 154.695 154.122 153.913 153.58 153.464 
153.166 152.936 152.488 152.209 158.579 157.999 157.785 157.121 156.865 
156.138 155.831 155.081 154.803 154.207 154.087 153.677 153.606 153.162 
153.014 152.509 152.429 159.403 158.937 158.756 158.183 157.967 157.312 
157.074 156.319 156.064 155.297 155.153 154.538 154.544 154.022 154.023 
153.459 153.434 152.909 152.99 153.138 153.232 153.106 152.947 153.202 
153.14 152.868 152.801 152.599 152.827 152.908 152.591 152.612 152.347 
152.4 152.298 152.31 152.371 152.053 152.192 151.986 152.12 152.037 
152.162 152.151 151.971 151.876 151.473 151.59 151.427 151.684 151.646 
151.866 151.818 151.978 151.923 151.793 151.61 151.138 151.097 150.871 
151.084 151.04 151.345 151.265 151.519 151.417 151.66 151.663 151.781 
151.535 151.184 150.971 150.768 150.709 150.657 150.775 150.736 150.921 
150.853 151.095 151.144 151.468 151.662 152.094 151.747 151.593 151.277 
151.217 150.922 150.901 150.695 150.709 150.631 150.67 150.706 150.81 
151.006 151.239 151.57 151.845 152.708 152.293 152.23 151.878 151.882 
151.538 151.491 151.149 151.096 150.862 150.923 150.808 150.955 150.922 
151.12 151.242 151.501 151.772 152.017 153.093 153.59 153.078 152.631 
154.051 153.545 153.027 152.625 152.228 154.496 153.941 153.292 152.885 
152.373 152.119 151.725 155.167 154.464 153.755 153.138 152.474 152.116 
151.672 151.535 151.247 156.075 155.294 154.635 153.799 153.069 152.361 
151.847 151.516 151.342 151.21 151.12 156.992 156.25 155.641 154.808 
154.129 153.227 152.673 152.002 151.843 151.515 151.555 151.292 151.242 
157.864 157.15 156.577 155.81 155.224 154.377 153.862 153.062 152.813 
152.265 152.241 151.858 151.795 151.441 151.353 158.715 158.036 157.521 
156.775 156.269 155.486 155.033 154.258 153.923 153.279 153.08 152.59 
152.418 152.006 151.861 151.562 151.588 159.45 158.868 158.405 157.737 
157.28 156.559 156.13 155.388 154.983 154.293 153.946 153.377 153.11 
152.641 152.465 152.098 152.084 151.873 152.03 153.575 154.54 154.061 
154.091 155.601 155.094 155.175 154.65 154.656 156.847 156.252 156.394 
155.825 155.878 155.233 155.184 158.29 157.616 157.733 157.107 157.191 
156.531 156.514 155.812 155.826 159.685 159.061 159.111 158.456 158.509 
157.87 157.922 157.226 157.272 156.575 156.697 160.975 160.39 160.458 
159.801 159.834 159.196 159.301 158.667 158.783 158.085 158.186 157.494 
157.615 162.327 161.709 161.83 161.164 161.237 160.563 160.665 160.042 
160.155 159.531 159.593 158.946 159.004 158.364 158.454 163.624 163.054 
163.15 162.545 162.633 161.991 162.061 161.409 161.436 160.805 160.797 
160.21 160.231 159.673 159.746 159.168 159.257 164.638 164.197 164.23 
163.752 163.804 163.29 163.325 162.738 162.699 162.048 161.982 161.362 
161.381 160.837 160.938 160.405 160.493 159.923 159.963 159.788 160.216 
159.726 159.16 160.659 160.128 159.513 159.035 158.414 161.181 160.576 
159.941 159.409 158.797 158.281 157.595 161.883 161.198 160.576 159.923 
159.307 158.713 158.031 157.43 156.654 162.6 161.956 161.329 160.634 
159.951 159.277 158.552 157.9 157.137 156.492 155.758 163.18 162.595 
161.901 161.28 160.504 159.871 159.063 158.418 157.633 157.002 156.301 
155.701 155.102 163.759 163.141 162.389 161.734 160.922 160.313 159.521 
158.905 158.111 157.484 156.764 156.211 155.6 155.092 154.535 164.326 
163.742 163.023 162.288 161.503 160.791 160.1 159.439 158.754 158.043 
157.317 156.665 156.03 155.519 154.965 154.49 153.953 164.694 164.257 
163.627 162.977 162.246 161.507 160.854 160.158 159.574 158.831 158.17 
157.367 156.717 156.032 155.511 154.956 154.492 153.964 153.527 160.192 
160.971 160.641 160.726 161.834 161.51 161.717 161.262 161.283 162.739 
162.411 162.676 162.306 162.428 161.859 161.84 163.645 163.285 163.489 
163.208 163.406 162.995 163.042 162.455 162.481 164.575 164.169 164.29 
163.969 164.176 163.894 164.049 163.608 163.649 163.109 163.155 165.501 
165.099 165.204 164.8 164.978 164.675 164.929 164.586 164.728 164.234 
164.283 163.745 163.776 166.384 166.011 166.119 165.714 165.841 165.509 
165.769 165.492 165.749 165.328 165.433 164.882 164.928 164.36 164.383 
167.235 166.881 166.982 166.593 166.667 166.32 166.479 166.261 166.512 
166.277 166.428 166.005 166.018 165.492 165.479 164.938 164.899 167.991 
167.697 167.814 167.452 167.53 167.133 167.189 166.882 166.989 166.837 
166.955 166.781 166.786 166.446 166.358 165.916 165.805 165.329 165.194 
168.377 168.892 168.543 168.274 169.314 169.084 168.904 168.442 168.06 
169.402 169.402 169.313 169.044 168.661 168.137 167.664 169.191 169.296 
169.241 169.258 168.922 168.594 168.035 167.628 167.26 169.105 169.071 
169.008 169.073 168.868 168.7 168.193 167.856 167.43 167.24 167.087 
169.161 169.068 168.971 168.945 168.854 168.711 168.398 168.048 167.677 
167.396 167.223 167.104 166.976 169.003 169.035 168.868 168.896 168.758 
168.741 168.539 168.338 168.071 167.76 167.551 167.295 167.114 166.914 
166.634 168.67 168.758 168.553 168.631 168.393 168.491 168.262 168.327 
168.121 168.066 167.849 167.645 167.351 167.075 166.706 166.464 166.076 
168.384 168.44 168.256 168.282 168.044 168.078 167.843 167.93 167.749 
167.876 167.705 167.733 167.422 167.243 166.773 166.512 166.038 165.844 
165.437 168.184 167.795 168.036 168.053 167.353 167.638 167.706 167.879 
167.845 166.825 167.171 167.289 167.539 167.533 167.665 167.63 166.036 
166.495 166.549 166.998 167.034 167.318 167.271 167.45 167.483 164.953 
165.512 165.479 166.056 166.078 166.606 166.585 166.965 166.955 167.294 
167.39 163.757 164.363 164.386 164.942 164.954 165.511 165.504 166.049 
166.041 166.567 166.605 167.089 167.093 162.576 163.209 163.323 163.893 
163.915 164.419 164.379 164.907 164.902 165.491 165.52 166.108 166.082 
166.583 166.442 161.474 162.083 162.189 162.796 162.785 163.333 163.241 
163.783 163.756 164.347 164.392 164.976 164.971 165.489 165.392 165.843 
165.702 160.478 161.02 161.075 161.635 161.585 162.128 162.023 162.588 
162.565 163.19 163.258 163.868 163.896 164.415 164.359 164.818 164.74 
165.172 165.102 168.142 167.746 167.878 167.678 166.978 167.253 167.01 
167.304 167.135 166.009 166.28 165.965 166.42 166.338 166.759 166.632 
165.274 165.369 164.978 165.302 165.251 165.832 165.883 166.262 165.996 
164.794 164.865 164.508 164.524 164.32 164.722 164.805 165.385 165.263 
165.494 164.976 164.067 164.399 164.186 164.222 163.86 163.94 163.783 
164.246 164.166 164.603 164.162 164.303 163.674 162.977 163.487 163.337 
163.704 163.342 163.461 163.045 163.286 163.047 163.465 163.112 163.372 
162.769 162.93 162.381 161.901 162.323 162.11 162.614 162.298 162.66 
162.175 162.44 162 162.366 161.983 162.311 161.783 161.981 161.424 
161.662 161.249 161.034 161.306 161.014 161.396 161.085 161.482 161.043 
161.374 160.868 161.228 160.776 161.165 160.694 160.984 160.474 160.715 
160.297 160.592 160.275 168.306 168.434 168.287 167.992 168.504 168.395 
168.17 167.913 167.394 168.486 168.416 168.226 168.089 167.682 167.243 
166.557 168.317 168.276 168.006 168.026 167.687 167.48 166.866 166.383 
165.739 168.046 167.991 167.573 167.629 167.259 167.298 166.759 166.535 
165.847 165.535 164.998 167.653 167.651 167.146 167.124 166.682 166.761 
166.321 166.28 165.654 165.445 164.784 164.649 164.112 166.993 167.145 
166.667 166.671 166.183 166.216 165.821 165.846 165.362 165.211 164.58 
164.361 163.743 163.629 163.073 166.195 166.416 166.026 166.125 165.664 
165.718 165.307 165.376 164.952 164.913 164.353 164.17 163.554 163.346 
162.779 162.621 162.103 165.516 165.69 165.381 165.496 165.102 165.171 
164.77 164.852 164.444 164.475 163.951 163.868 163.258 163.126 162.551 
162.412 161.898 161.747 161.274 165.096 164.342 164.822 164.934 163.334 
163.957 164.086 164.582 164.635 162.084 162.802 162.949 163.61 163.709 
164.238 164.305 160.765 161.471 161.599 162.359 162.558 163.247 163.386 
163.915 163.972 159.539 160.201 160.342 161.034 161.282 162.046 162.268 
162.919 162.955 163.479 163.427 158.454 159.093 159.324 159.912 160.108 
160.787 160.975 161.692 161.709 162.321 162.204 162.786 162.7 157.534 
158.112 158.373 158.946 159.061 159.636 159.677 160.337 160.323 160.977 
160.881 161.497 161.44 162.061 162.043 156.774 157.236 157.38 157.94 
157.986 158.535 158.482 159.05 159.008 159.621 159.604 160.21 160.222 
160.836 160.888 161.473 161.467 156.082 156.443 156.422 156.898 156.877 
157.405 157.356 157.884 157.86 158.416 158.462 159.037 159.111 159.69 
159.767 160.35 160.392 160.922 160.88 155.66 154.998 155.504 155.906 
154.467 154.858 155.248 155.789 156.285 154.302 154.492 154.854 155.219 
155.711 156.235 156.778 154.286 154.466 154.816 155.013 155.461 155.793 
156.328 156.789 157.343 153.888 154.307 154.659 154.987 155.371 155.647 
156.097 156.446 156.983 157.419 157.982 153.152 153.644 153.932 154.528 
154.887 155.402 155.782 156.2 156.655 157.089 157.631 158.089 158.642 
152.689 152.93 153.103 153.614 153.96 154.638 155.072 155.701 156.15 
156.685 157.184 157.696 158.245 158.734 159.279 152.587 152.658 152.786 
152.99 153.31 153.77 154.279 154.903 155.462 156.08 156.619 157.188 
157.739 158.285 158.847 159.353 159.881 152.44 152.587 152.756 152.883 
153.203 153.426 153.924 154.317 154.92 155.44 156.055 156.615 157.215 
157.77 158.356 158.887 159.43 159.918 160.386 160.489 159.557 160.147 
160.4 158.497 159.154 159.401 160.056 160.359 157.336 158.032 158.267 
158.978 159.227 159.952 160.239 156.154 156.835 157.047 157.783 158.019 
158.751 158.985 159.747 160.046 155.06 155.679 155.866 156.553 156.785 
157.515 157.751 158.488 158.766 159.562 159.932 154.131 154.664 154.827 
155.409 155.581 156.269 156.512 157.263 157.557 158.324 158.678 159.491 
159.865 153.376 153.807 153.919 154.407 154.484 155.075 155.269 156.017 
156.36 157.15 157.532 158.295 158.667 159.424 159.744 152.78 153.08 
153.098 153.506 153.538 154.028 154.179 154.828 155.187 155.971 156.416 
157.188 157.589 158.306 158.659 159.339 159.651 152.319 152.49 152.412 
152.719 152.758 153.169 153.346 153.866 154.199 154.871 155.308 156.069 
156.485 157.233 157.599 158.309 158.658 159.32 159.649 158.94 158.241 
158.932 159.586 157.387 158.178 158.814 159.531 160.178 156.387 157.252 
157.916 158.686 159.333 160.107 160.851 155.57 156.3 157.024 157.775 
158.477 159.264 160.091 160.903 161.782 155.293 155.693 156.389 156.99 
157.773 158.509 159.409 160.203 161.144 161.91 162.755 155.493 155.609 
156.129 156.509 157.286 157.949 158.924 159.648 160.568 161.269 162.081 
162.801 163.517 155.828 155.842 156.181 156.352 156.99 157.544 158.535 
159.252 160.198 160.79 161.534 162.124 162.824 163.498 164.13 156.044 
156.109 156.406 156.465 156.964 157.317 158.186 158.85 159.807 160.439 
161.194 161.697 162.363 162.9 163.563 164.119 164.645 156.05 156.238 
156.601 156.705 157.177 157.377 158.076 158.531 159.355 159.967 160.715 
161.31 161.973 162.523 163.167 163.67 164.222 164.641 165.035 159.529 
160.206 160.141 160.675 160.867 160.84 161.417 161.316 161.82 161.6 
161.545 162.219 162.118 162.692 162.496 162.993 162.49 162.36 163.056 
162.97 163.665 163.489 164.064 163.766 164.274 163.412 163.275 163.879 
163.791 164.5 164.461 165.137 164.917 165.398 165.054 165.448 164.198 
164.138 164.708 164.585 165.222 165.226 165.964 165.913 166.438 166.143 
166.438 166.087 166.337 164.778 164.826 165.442 165.385 166.018 165.979 
166.746 166.727 167.367 167.129 167.447 167.051 167.257 166.894 167.1 
165.15 165.272 165.857 165.98 166.638 166.735 167.519 167.569 168.286 
168.104 168.485 168.067 168.234 167.82 167.989 167.632 167.777 165.417 
165.529 166.017 166.224 166.836 167.128 167.876 168.17 168.886 168.952 
169.356 169.071 169.167 168.749 168.792 168.447 168.521 168.207 168.24 
159.331 160.485 159.753 159.469 161.624 160.93 160.671 159.942 159.676 
162.742 162.048 161.812 161.129 160.862 160.138 159.843 163.974 163.215 
162.946 162.237 161.96 161.268 160.961 160.259 159.953 165.152 164.459 
164.153 163.399 163.045 162.316 161.974 161.311 161.005 160.349 160.058 
166.038 165.493 165.174 164.528 164.113 163.384 162.958 162.277 161.928 
161.32 161.001 160.396 160.087 166.764 166.258 165.914 165.376 164.967 
164.352 163.909 163.244 162.831 162.195 161.808 161.222 160.853 160.323 
160.024 167.426 166.945 166.571 166.046 165.647 165.107 164.71 164.128 
163.72 163.087 162.66 162.016 161.603 161.026 160.7 160.228 159.999 
167.908 167.524 167.144 166.672 166.265 165.765 165.373 164.858 164.462 
163.905 163.494 162.881 162.486 161.852 161.529 160.954 160.721 160.237 
160.039 168.464 168.763 168.612 168.601 169.145 168.992 169.005 168.764 
168.707 169.372 169.388 169.519 169.289 169.24 168.897 168.766 169.33 
169.504 169.762 169.761 169.765 169.474 169.277 168.912 168.673 169.329 
169.433 169.698 169.852 169.904 169.817 169.562 169.313 169.002 168.727 
168.426 169.429 169.461 169.633 169.765 169.858 169.842 169.615 169.421 
169.055 168.884 168.555 168.372 167.995 169.327 169.442 169.525 169.683 
169.823 169.866 169.8 169.566 169.246 168.929 168.545 168.341 167.925 
167.761 167.267 168.979 169.185 169.231 169.455 169.592 169.801 169.895 
169.851 169.674 169.303 168.871 168.429 167.913 167.612 167.091 166.911 
166.416 168.524 168.777 168.806 169.054 169.113 169.427 169.524 169.783 
169.711 169.646 169.225 168.82 168.187 167.722 167.118 166.789 166.3 
166.108 165.713 
POINT_DATA 1002
SCALARS Distance double
LOOKUP_TABLE default
155.16 155.799 155.17 154.482 154.332 154.506 153.769 153.577 153.963 
154.16 153.308 153.324 153.521 153.824 154.173 153.22 153.364 153.222 
153.502 153.786 154.04 153.211 153.259 153.043 153.109 153.267 153.345 
153.395 153.127 153.116 152.965 152.815 152.761 152.706 152.723 152.76 
153.034 153.09 152.907 152.71 152.523 152.337 152.328 152.489 152.584 
152.972 153.103 152.796 152.586 152.427 152.211 152.066 152.214 152.427 
152.513 153.02 153.15 152.772 152.447 152.275 152.142 151.873 151.767 
151.935 152.111 152.225 155.929 155.226 155.847 155.005 155.518 154.219 
154.419 155.077 153.816 153.45 153.753 154.939 153.053 153.02 153.277 
153.775 155.496 152.544 152.393 152.873 153.223 154.807 156.541 153.192 
152.485 152.643 152.962 153.099 156.161 157.53 154.748 153.703 153.254 
153.213 153.23 153.171 157.19 158.282 156.174 155.217 154.328 153.819 
153.729 153.601 153.317 157.939 158.936 157.101 156.319 155.297 154.342 
154.055 154.082 153.787 153.354 159.008 158.055 159.197 158.245 159.407 
157.256 158.403 159.542 157.322 156.287 158.53 159.667 157.406 156.182 
155.042 158.674 159.783 157.583 156.446 155.169 154.334 158.825 159.805 
157.725 156.812 155.858 154.9 154.377 158.978 159.783 157.874 156.889 
156.241 155.542 154.779 154.219 159.093 159.802 158.081 156.936 156.132 
155.593 154.901 154.171 153.662 159.112 159.819 158.207 157.086 156.061 
155.35 154.731 154.079 153.583 153.309 153.246 153.411 153.401 153.568 
153.522 153.24 153.898 153.503 153.298 152.728 154.483 153.715 153.309 
152.993 152.338 155.255 154.365 153.628 153.291 152.942 152.158 156.238 
155.319 154.35 153.667 153.357 152.829 151.974 157.372 156.431 155.386 
154.356 153.722 153.318 152.666 151.991 158.422 157.566 156.605 155.508 
154.548 153.997 153.508 152.874 152.425 159.282 158.567 157.772 156.851 
155.84 155.074 154.566 153.999 153.431 153.118 153.055 152.972 152.582 
152.519 152.288 152.176 151.871 151.774 151.902 152.041 151.424 151.131 
151.383 151.661 151.759 151.253 150.744 150.745 150.999 151.143 151.354 
151.383 150.922 150.646 150.588 150.627 150.794 151.288 151.871 151.531 
151.204 150.859 150.686 150.702 150.941 151.492 152.586 152.236 151.883 
151.389 151.046 151.042 151.128 151.297 151.718 153.579 153.074 154.122 
153.443 154.593 152.57 153.79 155.11 152.646 151.91 154.496 155.897 
152.982 151.8 151.312 155.491 156.84 153.923 152.306 151.442 151.28 
156.421 157.718 155.015 153.455 152.263 151.829 151.561 157.316 158.56 
155.998 154.664 153.472 152.71 152.189 151.64 158.236 159.352 157.015 
155.798 154.641 153.659 152.877 152.195 151.755 159.019 159.98 157.963 
156.866 155.728 154.582 153.602 152.858 152.349 152.151 154.034 154.576 
155.015 155.696 156.098 155.258 156.966 157.481 156.526 155.854 158.406 
158.987 157.832 157.218 156.475 159.796 160.276 159.135 158.564 157.989 
157.357 161.104 161.55 160.478 159.893 159.452 158.913 158.289 162.477 
162.959 161.915 161.322 160.785 160.231 159.64 159.086 163.731 164.186 
163.248 162.741 162.124 161.402 160.762 160.296 159.86 164.679 165.052 
164.283 163.886 163.354 162.622 161.926 161.458 161.063 160.559 160.264 
159.634 160.752 160.002 161.227 158.907 160.502 161.817 159.322 158.167 
161.279 162.557 159.95 158.653 157.277 162.036 163.213 160.677 159.233 
157.775 156.363 162.539 163.792 161.132 159.711 158.254 156.875 155.67 
163.097 164.394 161.538 160.103 158.756 157.33 156.091 155.043 163.742 
164.848 162.237 160.742 159.464 158.048 156.578 155.425 154.431 160.498 
161.165 161.253 162.115 162.14 161.874 162.983 163.1 162.934 162.479 
163.778 164.062 163.713 163.577 163.073 164.673 164.993 164.423 164.399 
164.178 163.701 165.634 165.879 165.309 165.208 165.184 164.827 164.326 
166.524 166.752 166.204 166.015 166.09 165.978 165.497 164.966 167.37 
167.585 167.055 166.745 166.683 166.768 166.543 166.019 165.458 168.139 