# vtk DataFile Version 4.0
vtk output
ASCII
DATASET POLYDATA
POINTS 1002 float
-79.1597 -111.341 76.2829 -78.8987 -112.607 75.7858 -79.1363 -112.103 75.0155 
-79.4578 -110.774 75.5291 -79.3742 -111.442 74.0731 -79.5115 -109.998 76.8085 
-79.7843 -110.138 74.6536 -79.6102 -110.693 73.1159 -79.8875 -109.462 76.0485 
-80.0317 -108.778 77.2971 -80.2379 -109.569 73.8299 -80.0571 -110.102 72.3946 
-80.4226 -108.975 75.2814 -80.5727 -108.259 76.5266 -80.8168 -107.609 77.7446 
-80.9661 -109.123 73.1995 -80.8491 -109.698 71.9122 -81.1708 -108.504 74.5994 
-81.3006 -107.729 75.8266 -81.4148 -106.916 76.9848 -81.548 -106.163 78.2034 
-81.8886 -108.624 72.7423 -81.8276 -109.261 71.5957 -82.015 -107.903 74.0043 
-82.0587 -107.019 75.1775 -82.0428 -106.131 76.2937 -82.0203 -105.286 77.4807 
-81.9681 -104.462 78.6367 -82.8225 -107.977 72.4466 -82.8083 -108.683 71.4538 
-82.8242 -107.178 73.52 -82.7467 -106.205 74.5711 -82.6354 -105.268 75.6495 
-82.5899 -104.481 76.8059 -82.5394 -103.695 77.9552 -82.4813 -102.982 78.9974 
-83.6986 -107.278 72.2335 -83.7328 -108.023 71.3735 -83.6157 -106.455 73.1533 
-83.5126 -105.524 74.0774 -83.3928 -104.586 75.0916 -83.3209 -103.785 76.182 
-83.3198 -103.076 77.2716 -83.3039 -102.419 78.3346 -83.2981 -101.94 79.3506 
-84.5516 -106.648 72.0172 -84.6067 -107.38 71.2775 -84.4297 -105.795 72.8225 
-84.3796 -104.92 73.6656 -84.3888 -104.095 74.6265 -84.2945 -103.266 75.65 
-84.1707 -102.477 76.6089 -84.1233 -101.832 77.6038 -84.0976 -101.369 78.6791 
-84.0843 -101.087 79.7228 -85.4366 -106.135 71.8644 -85.4548 -106.819 71.2339 
-85.3114 -105.259 72.5547 -85.2506 -104.331 73.3044 -85.3468 -103.563 74.192 
-85.3266 -102.817 75.1825 -85.0699 -101.958 76.0714 -84.8532 -101.205 76.9201 
-84.7723 -100.707 77.9335 -84.7092 -100.394 79.0303 -84.6471 -100.198 80.0366 
-78.8328 -113.481 74.7864 -79.0282 -112.961 73.8097 -78.7493 -114.353 73.5998 
-78.9402 -113.807 72.4929 -78.6211 -115.26 72.4368 -79.1909 -112.221 72.7168 
-78.9206 -114.56 71.2477 -78.5428 -116.086 71.4475 -79.0482 -112.997 71.3924 
-79.4119 -111.405 71.8122 -78.8595 -115.118 69.9366 -78.5285 -116.713 70.3839 
-78.8721 -113.571 69.995 -79.2551 -112.145 70.5785 -79.9825 -110.803 71.2325 
-78.6516 -115.693 68.541 -78.518 -117.261 69.2544 -78.4903 -113.989 68.2941 
-78.8991 -112.631 68.9801 -79.936 -111.531 70.0125 -80.9151 -110.397 70.8176 
-78.7211 -116.47 67.7103 -78.7967 -117.776 68.6111 -78.3613 -114.727 66.9804 
-78.5325 -113.053 67.2148 -79.7332 -112.009 68.439 -81.0258 -111.133 69.6893 
-81.96 -109.961 70.6076 -79.5146 -117.128 67.7448 -79.6494 -118.122 68.6001 
-79.1566 -115.732 66.8446 -79.0106 -113.882 66.4636 -79.8599 -112.441 67.1804 
-81.2164 -111.663 68.5502 -82.2186 -110.712 69.7247 -82.9949 -109.357 70.6041 
-80.6949 -117.386 68.1534 -80.8001 -118.275 68.8473 -80.5162 -116.386 67.4137 
-80.3425 -114.864 66.8691 -80.7407 -113.149 66.9697 -81.7705 -112.038 67.8171 
-82.7064 -111.234 68.9052 -83.3428 -110.024 69.8296 -83.9729 -108.601 70.5995 
-81.708 -117.371 68.571 -81.8195 -118.328 69.1224 -81.6624 -116.512 67.9646 
-81.6557 -115.466 67.4556 -81.897 -113.976 67.2828 -82.5717 -112.512 67.557 
-83.343 -111.493 68.1777 -83.8663 -110.471 68.9804 -84.3106 -109.147 69.8198 
-84.867 -107.856 70.5839 -82.5542 -117.636 69.1669 -82.4983 -116.599 68.591 
-83.3688 -116.816 69.2617 -83.5302 -115.891 68.4465 -84.631 -116.197 69.0643 
-82.6261 -115.785 67.9076 -85.0859 -115.522 67.9216 -86.1563 -115.898 68.5953 
-83.9766 -115.253 67.4989 -82.9322 -114.777 67.43 -86.6046 -115.152 67.5272 
-87.3475 -115.429 68.5132 -85.6863 -114.812 66.9106 -84.5017 -114.144 66.9801 
-83.4374 -113.247 67.3432 -87.5279 -114.274 68.0157 -88.2602 -114.414 69.0691 
-86.9536 -113.999 67.0548 -86.0074 -113.319 66.7316 -84.8692 -112.387 67.0267 
-84.026 -111.742 67.5768 -88.3702 -113.02 69.0964 -89.3316 -113.097 69.7709 
-87.6753 -112.845 68.2045 -86.9576 -112.321 67.5315 -85.9657 -111.505 67.3013 
-85.0981 -110.852 67.5234 -84.4758 -110.583 68.1766 -89.6497 -111.677 69.9212 
-90.5886 -111.806 70.2424 -88.7181 -111.546 69.3751 -87.8601 -111.227 68.8148 
-86.9398 -110.701 68.431 -86.0626 -110.136 68.2569 -85.4016 -109.666 68.4892 
-84.8454 -109.355 69.1221 -91.1701 -110.389 70.1922 -91.8895 -110.707 70.4246 
-90.299 -110.119 69.8507 -89.3269 -109.818 69.5125 -88.3218 -109.509 69.3367 
-87.3699 -109.224 69.2605 -86.5571 -108.817 69.306 -85.8958 -108.338 69.6121 
-85.3432 -108.014 70.0934 -92.6043 -109.33 70.1279 -93.1365 -109.854 70.3991 
-91.9272 -108.83 69.845 -91.046 -108.35 69.6347 -90.018 -107.952 69.6091 
-88.9899 -107.74 69.7047 -88.0357 -107.564 69.8503 -87.1959 -107.258 70.1166 
-86.5169 -106.983 70.4892 -85.9614 -106.868 70.8679 -86.3896 -105.876 71.6215 
-87.0267 -105.819 71.2568 -87.4079 -104.741 71.9945 -87.687 -105.742 70.7856 
-88.1166 -104.537 71.5116 -88.338 -103.379 72.2562 -88.5062 -105.79 70.3025 
-88.8415 -104.301 70.8879 -89.1006 -103.138 71.6935 -89.1779 -101.986 72.416 
-89.5137 -105.939 70.021 -89.775 -104.281 70.4351 -89.9876 -102.978 71.1339 
-90.152 -101.858 71.9459 -90.1123 -100.735 72.618 -90.6183 -106.184 69.8932 
-90.9035 -104.532 70.3206 -91.0831 -103.021 70.8143 -91.308 -101.756 71.4843 
-91.3002 -100.672 72.225 -91.03 -99.5897 72.9319 -91.7582 -106.655 69.7465 
-92.1266 -105.035 70.2199 -92.2793 -103.292 70.6165 -92.4651 -101.618 70.9604 
-92.5096 -100.478 71.6557 -92.207 -99.5557 72.5099 -91.7936 -98.5188 73.2632 
-92.7717 -107.295 69.6907 -93.3217 -105.726 69.9891 -93.5484 -103.875 70.3581 
-93.6218 -101.781 70.4578 -93.5812 -100.298 70.9303 -93.3337 -99.519 71.958 
-92.9592 -98.6393 72.8902 -92.643 -97.6009 73.5578 -93.5025 -107.977 69.8495 
-94.2227 -106.473 69.909 -94.6663 -104.672 70.2259 -94.8334 -102.512 70.3077 
-94.7173 -100.687 70.5159 -94.4212 -99.7376 71.4595 -94.1157 -98.999 72.596 
-93.8659 -97.941 73.3393 -93.6427 -96.949 73.9113 -94.0138 -108.681 70.1435 
-94.7638 -107.258 70.0949 -95.3277 -105.529 70.3736 -95.7197 -103.53 70.5866 
-95.807 -101.658 70.6902 -95.5534 -100.417 71.3135 -95.2244 -99.5838 72.4038 
-94.9934 -98.578 73.2707 -94.7898 -97.4541 73.8276 -94.524 -96.636 74.4323 
-86.3521 -105.044 72.2527 -87.3307 -103.736 72.6298 -86.2167 -103.987 72.9219 
-88.2088 -102.296 72.873 -87.1705 -102.624 73.2838 -86.2068 -103.039 73.7062 
-89.0692 -100.915 73.052 -88.0695 -101.289 73.5893 -87.1123 -101.761 74.1487 
-86.2402 -102.302 74.6908 -89.9973 -99.6454 73.3841 -89.0331 -99.986 73.9796 
-88.026 -100.497 74.6402 -86.9898 -100.988 75.2196 -86 -101.457 75.6727 
-90.8048 -98.4641 73.7851 -89.8993 -98.6987 74.4425 -88.9644 -99.1637 75.143 
-87.8689 -99.6626 75.7582 -86.6998 -100.102 76.1972 -85.6612 -100.584 76.5257 
-91.6153 -97.4326 74.0636 -90.5909 -97.5652 74.744 -89.599 -97.8704 75.4446 
-88.6242 -98.3112 76.1126 -87.5954 -98.8592 76.7089 -86.4827 -99.3944 77.1315 
-85.498 -99.9865 77.4903 -92.6419 -96.6742 74.354 -91.4895 -96.7241 75.0005 
-90.2319 -96.8684 75.6712 -89.0662 -97.0833 76.3227 -88.1739 -97.6065 77.055 
-87.3151 -98.3006 77.7256 -86.2959 -98.9263 78.1981 -85.377 -99.6084 78.6093 
-93.6549 -96.2883 74.8627 -92.572 -96.2345 75.4916 -91.251 -96.259 76.1716 
-89.8068 -96.247 76.8039 -88.6035 -96.5125 77.496 -87.7625 -97.1777 78.2362 
-86.9273 -97.8879 78.8243 -85.9869 -98.5479 79.2624 -85.2057 -99.3374 79.6712 
-94.7034 -96.3594 75.4711 -93.7694 -96.1234 76.0988 -94.6934 -96.3895 76.907 
-93.6625 -96.1816 77.6537 -94.6088 -96.5441 78.5009 -92.5937 -96.0312 76.8593 
-93.4727 -96.36 79.2598 -94.5767 -96.7127 80.1476 -92.4437 -95.9937 78.4788 
-91.1503 -95.8883 77.6069 -93.3705 -96.6254 80.8623 -94.5479 -96.9227 81.8302 
-92.2331 -96.2354 80.043 -91.0055 -95.8425 79.2688 -89.5785 -95.8722 78.3087 
-93.2956 -96.9751 82.4136 -94.3666 -97.3527 83.2549 -92.0541 -96.6726 81.4851 
-90.7811 -96.2495 80.7477 -89.3723 -95.992 79.9497 -88.2506 -96.3132 78.9927 
-93.0624 -97.5657 83.7124 -94.0091 -98.1139 84.3151 -91.8435 -97.1719 82.8765 
-90.4906 -96.7957 82.0649 -89.0902 -96.4685 81.3485 -87.8865 -96.4695 80.4661 
-87.2424 -97.0048 79.5508 -92.7023 -98.3283 84.804 -93.6153 -98.889 85.307 
-91.5588 -97.8192 84.1474 -90.2263 -97.3714 83.4012 -88.8539 -97.0282 82.6828 
-87.6197 -96.8723 81.8294 -86.7634 -97.0566 80.8309 -86.3156 -97.684 79.9704 
-92.3657 -98.9362 85.8388 -93.254 -99.4179 86.3038 -91.2957 -98.4986 85.2331 
-90.055 -98.0794 84.5765 -88.7635 -97.7235 83.9591 -87.5747 -97.5086 83.2133 
-86.592 -97.4865 82.1984 -85.9106 -97.8075 81.1851 -85.502 -98.5059 80.383 
-92.0514 -99.4381 86.7426 -92.8653 -99.9085 87.0956 -91.0799 -99.102 86.154 
-89.951 -98.8202 85.4881 -88.7416 -98.5341 84.9393 -87.602 -98.3091 84.3883 
-86.6188 -98.2177 83.5541 -85.826 -98.3462 82.5174 -85.2732 -98.805 81.578 
-84.9207 -99.4984 80.7866 -95.4081 -96.9836 74.6915 -95.5263 -96.7839 75.9157 
-96.1535 -97.5473 75.1032 -96.2398 -97.4145 76.5425 -96.7819 -98.2963 75.6829 
-95.5511 -96.8306 77.5224 -96.8442 -98.2435 77.3105 -97.3016 -99.3124 76.4357 
-96.3208 -97.4125 78.3045 -95.6091 -96.9377 79.2549 -97.3115 -99.3585 78.1115 
-97.5441 -100.602 77.2375 -96.9014 -98.2629 79.1412 -96.4117 -97.5316 80.1341 
-95.6359 -97.1149 81.0456 -97.5102 -100.742 78.8332 -97.454 -102.061 77.9446 
-97.352 -99.5 79.9114 -96.9548 -98.5569 80.9662 -96.3526 -97.9164 81.897 
-95.4689 -97.4743 82.6973 -97.4753 -102.34 79.4816 -97.3768 -103.665 78.5769 
-97.5881 -101.028 80.6002 -97.4081 -99.9327 81.6936 -96.8525 -99.1424 82.5866 
-96.061 -98.5117 83.3449 -95.1045 -98.1414 83.9224 -97.4955 -104.074 80.0831 
-97.5035 -105.302 79.1782 -97.5801 -102.749 81.2136 -97.5784 -101.489 82.3334 
-97.2079 -100.509 83.1892 -96.5065 -99.7655 83.9079 -95.6604 -99.2311 84.5177 
-94.6922 -98.9807 84.9538 -97.5895 -105.694 80.5896 -97.5967 -106.741 79.7114 
-97.5577 -104.502 81.6868 -97.4945 -103.218 82.8247 -97.2489 -102.054 83.6938 
-96.7534 -101.12 84.4261 -96.0994 -100.401 85.1534 -95.2925 -99.9337 85.6784 
-94.3131 -99.6451 86.0184 -97.5482 -107.034 80.9896 -97.4948 -107.913 80.1559 
-97.535 -106.046 82.0036 -97.4301 -104.933 83.1099 -97.1753 -103.799 84.0108 
[...]
CELL_DATA 2000
SCALARS Distance double
LOOKUP_TABLE default
155.617 154.939 155.233 155.089 154.145 154.524 154.46 154.731 154.649 
153.49 153.81 153.89 154.162 154.161 154.378 154.387 153.201 153.366 
153.533 153.736 153.813 153.965 153.938 154.143 154.109 153.16 153.227 
153.339 153.48 153.498 153.627 153.507 153.666 153.505 153.743 153.559 
153.164 153.187 153.179 153.264 153.146 153.24 153.009 153.148 152.929 
153.128 152.94 153.134 152.953 153.142 153.134 153.026 153.048 152.864 
152.877 152.638 152.676 152.492 152.607 152.504 152.639 152.562 152.683 
152.666 153.112 153.071 152.908 152.872 152.68 152.651 152.489 152.463 
152.35 152.34 152.257 152.307 152.254 152.374 152.375 152.546 152.632 
153.147 153.062 152.902 152.789 152.59 152.518 152.398 152.398 152.344 
152.32 152.204 152.15 152.006 152.06 152.002 152.197 152.231 152.495 
152.573 155.833 155.878 155.625 155.114 155.892 155.616 155.037 154.789 
154.235 155.939 155.609 154.969 154.674 154.068 153.878 153.469 155.899 
155.565 154.785 154.519 153.887 153.731 153.338 153.266 153.122 155.759 
155.387 154.399 154.13 153.384 153.407 153.096 153.182 153.086 153.098 
153.11 155.891 155.338 154.352 153.783 152.917 152.787 152.536 152.823 
152.935 153.112 153.181 153.167 153.194 156.502 155.806 155.103 154.201 
153.428 152.713 152.435 152.389 152.712 152.971 153.286 153.32 153.384 
153.272 153.25 157.319 156.658 156.203 155.343 154.798 153.784 153.437 
152.804 153.03 152.983 153.447 153.49 153.667 153.528 153.475 153.31 
153.242 158.043 157.479 157.063 156.449 156.04 155.249 154.876 154.079 
153.994 153.578 153.814 153.728 153.898 153.793 153.723 153.544 153.426 
153.289 153.243 158.232 158.097 157.846 157.242 158.079 157.736 157.159 
156.916 156.328 158.364 157.874 157.304 156.932 156.409 156.047 155.388 
158.715 158.245 157.659 157.207 156.634 156.208 155.603 155.143 154.548 
158.836 158.491 157.869 157.506 156.844 156.423 155.707 155.313 154.734 
154.428 154.11 158.839 158.533 157.927 157.608 156.968 156.566 155.823 
155.385 154.742 154.485 154.149 154.08 153.954 158.87 158.574 158.038 
157.697 157.138 156.729 156.118 155.615 155.037 154.602 154.236 154.039 
153.874 153.857 153.732 158.92 158.647 158.143 157.83 157.276 156.925 
156.369 155.972 155.476 155.045 154.661 154.286 154.034 153.817 153.659 
153.589 153.462 159.003 158.717 158.208 157.907 157.332 157.014 156.426 
156.131 155.616 155.358 154.93 154.664 154.303 154.048 153.792 153.62 
153.482 153.393 153.311 153.295 153.466 153.362 153.32 153.706 153.518 
153.418 153.324 153.176 154.122 153.779 153.535 153.361 153.183 153.092 
152.866 154.693 154.245 153.918 153.55 153.329 153.135 153.008 152.83 
152.64 155.373 154.878 154.61 154.099 153.868 153.466 153.365 153.1 
153.019 152.737 152.569 156.202 155.664 155.503 154.944 154.729 154.165 
153.924 153.526 153.38 153.137 152.997 152.71 152.506 157.139 156.597 
156.499 155.943 155.764 155.11 154.723 154.101 153.754 153.43 153.303 
153.112 152.999 152.681 152.516 158.058 157.564 157.489 156.967 156.834 
156.188 155.826 155.016 154.578 153.938 153.81 153.499 153.586 153.278 
153.266 152.823 152.765 158.91 158.474 158.423 157.932 157.822 157.246 
156.994 156.221 155.862 155.029 154.874 154.295 154.45 154.052 154.204 
153.725 153.73 153.213 153.247 153.183 153.172 153.101 152.905 153.021 
153.02 152.771 152.727 152.526 152.692 152.762 152.534 152.543 152.346 
152.373 152.319 152.396 152.412 152.23 152.282 152.158 152.213 152.192 
152.27 152.296 152.272 152.196 152.039 152.058 152.02 152.069 152.061 
152.129 152.101 152.189 152.121 152.195 152.102 151.929 151.942 151.921 
151.98 151.976 152.008 151.925 151.95 151.827 151.91 151.849 152.177 
152.03 151.826 151.819 151.725 151.814 151.757 151.86 151.79 151.823 
151.73 151.709 151.675 151.732 151.831 152.413 152.131 151.947 151.79 
151.658 151.601 151.46 151.526 151.461 151.622 151.639 151.714 151.734 
151.716 151.806 151.865 152.07 152.938 152.551 152.441 152.119 152.051 
151.748 151.613 151.382 151.294 151.306 151.398 151.57 151.693 151.782 
151.847 151.889 152.028 152.15 152.39 153.282 153.859 153.293 152.838 
154.626 153.971 153.465 152.899 152.433 155.48 154.767 154.216 153.568 
152.998 152.429 151.912 156.419 155.65 155.067 154.346 153.751 153.05 
152.43 151.861 151.474 157.369 156.608 156.004 155.233 154.625 153.865 
153.238 152.504 152.019 151.557 151.469 158.241 157.535 156.936 156.166 
155.52 154.751 154.109 153.356 152.794 152.19 151.924 151.664 151.716 
159.047 158.387 157.82 157.076 156.431 155.646 155.006 154.238 153.663 
152.971 152.561 152.117 151.99 151.848 151.89 159.764 159.167 158.626 
157.94 157.34 156.576 155.989 155.204 154.696 153.923 153.506 152.835 
152.597 152.195 152.188 152.025 152.12 160.353 159.832 159.324 158.716 
158.169 157.48 156.95 156.223 155.775 155.032 154.661 153.908 153.634 
152.994 152.918 152.515 152.624 152.392 152.539 153.757 154.717 154.233 
154.324 155.809 155.275 155.397 154.93 155.12 157.046 156.451 156.601 
156.08 156.302 155.809 156.028 158.389 157.767 157.91 157.338 157.571 
157.056 157.316 156.781 157.003 159.686 159.119 159.287 158.7 158.936 
158.379 158.661 158.114 158.35 157.774 157.951 160.949 160.401 160.645 
160.099 160.386 159.809 160.086 159.495 159.712 159.114 159.261 158.673 
158.797 162.315 161.73 162.008 161.471 161.787 161.248 161.5 160.914 
161.078 160.467 160.581 159.974 160.08 159.491 159.595 163.646 163.116 
163.366 162.843 163.116 162.597 162.803 162.246 162.362 161.78 161.877 
161.289 161.393 160.791 160.875 160.269 160.318 164.708 164.32 164.532 
164.108 164.331 163.862 164.028 163.488 163.582 163.013 163.114 162.56 
162.678 162.099 162.163 161.541 161.535 160.918 160.885 159.377 159.986 
159.435 158.917 160.546 160.012 159.422 158.878 158.274 161.042 160.515 
159.88 159.321 158.634 158.131 157.428 161.624 161.039 160.411 159.78 
159.061 158.474 157.747 157.204 156.411 162.295 161.693 161.096 160.4 
159.673 158.966 158.232 157.6 156.895 156.249 155.544 162.913 162.352 
161.768 161.115 160.391 159.646 158.859 158.152 157.454 156.828 156.229 
155.591 155.077 163.498 162.94 162.338 161.727 161.02 160.338 159.56 
158.826 158.075 157.409 156.788 156.234 155.714 155.195 154.72 164.091 
163.535 162.924 162.285 161.576 160.922 160.213 159.534 158.831 158.106 
157.437 156.785 156.215 155.698 155.18 154.721 154.21 164.609 164.116 
163.542 162.905 162.208 161.518 160.844 160.193 159.583 158.901 158.275 
157.537 156.93 156.259 155.733 155.17 154.688 154.185 153.739 159.727 
160.393 160.169 160.371 161.063 160.834 161.075 160.836 160.985 161.851 
161.54 161.762 161.526 161.734 161.431 161.519 162.779 162.389 162.586 
162.27 162.512 162.212 162.402 162.013 162.12 163.742 163.332 163.493 
163.137 163.38 163.071 163.345 162.976 163.165 162.698 162.805 164.688 
164.275 164.385 164.013 164.186 163.91 164.177 163.921 164.154 163.766 
163.878 163.383 163.433 165.625 165.219 165.328 164.906 164.994 164.646 
164.794 164.601 164.82 164.628 164.778 164.414 164.473 163.987 164.024 
166.503 166.15 166.297 165.881 165.945 165.48 165.487 165.148 165.271 
165.135 165.363 165.196 165.355 164.995 165.064 164.579 164.608 167.23 
166.969 167.129 166.81 166.886 166.438 166.371 165.885 165.864 165.588 
165.807 165.717 166.016 165.821 165.977 165.582 165.608 165.12 165.095 
167.614 168.17 167.786 167.561 168.779 168.363 168.11 167.692 167.336 
169.335 168.954 168.615 168.187 167.746 167.313 166.796 169.649 169.411 
169.049 168.634 168.123 167.663 167.128 166.694 166.248 169.714 169.627 
169.357 169.017 168.519 168.04 167.538 167.086 166.755 166.351 166.186 
169.548 169.61 169.401 169.235 168.777 168.401 167.916 167.531 167.281 
166.957 166.886 166.519 166.439 169.107 169.286 169.035 169.088 168.657 
168.511 168.044 167.824 167.576 167.417 167.363 167.157 167.04 166.69 
166.423 168.61 168.747 168.473 168.583 168.228 168.25 167.894 167.835 
167.619 167.58 167.512 167.454 167.311 167.103 166.77 166.44 166.021 
168.324 168.339 168.126 168.122 167.89 167.887 167.679 167.666 167.513 
167.527 167.444 167.469 167.329 167.229 166.905 166.654 166.218 165.915 
165.477 168.195 167.964 168.068 167.984 167.594 167.818 167.785 167.846 
167.756 166.963 167.355 167.412 167.618 167.542 167.619 167.546 166.174 
166.639 166.706 167.087 167.024 167.274 167.177 167.372 167.353 165.336 
165.837 165.923 166.326 166.269 166.586 166.492 166.833 166.858 167.183 
167.261 164.368 164.965 165.145 165.601 165.636 165.9 165.844 166.119 
166.193 166.592 166.746 167.09 167.133 163.291 163.941 164.181 164.787 
164.931 165.323 165.311 165.568 165.598 165.949 166.083 166.481 166.514 
166.822 166.693 162.265 162.87 163.089 163.749 163.911 164.486 164.48 
164.913 164.843 165.272 165.274 165.735 165.703 166.084 165.918 166.22 
165.996 161.34 161.878 162.04 162.646 162.762 163.366 163.347 163.885 
163.771 164.295 164.208 164.757 164.672 165.157 164.982 165.364 165.136 
165.467 165.252 168.229 168.051 168.113 167.974 167.636 167.806 167.642 
167.748 167.512 167.093 167.283 167.088 167.277 167.025 167.155 166.844 
166.48 166.676 166.439 166.661 166.436 166.612 166.314 166.416 166.07 
165.681 165.953 165.635 165.924 165.655 165.946 165.641 165.834 165.443 
165.577 165.18 164.692 165.021 164.636 164.977 164.595 164.984 164.596 
164.962 164.518 164.805 164.329 164.569 164.129 163.671 163.985 163.585 
163.907 163.485 163.831 163.384 163.76 163.306 163.698 163.252 163.596 
163.147 163.44 163.029 162.694 162.977 162.575 162.871 162.469 162.762 
162.336 162.611 162.185 162.504 162.138 162.494 162.14 162.45 162.071 
162.357 162.015 161.767 162.019 161.609 161.882 161.486 161.779 161.383 
161.647 161.245 161.507 161.163 161.474 161.176 161.486 161.158 161.433 
161.096 161.391 161.103 168.332 168.371 168.295 168.13 168.408 168.267 
168.065 168.004 167.756 168.572 168.307 168.002 167.9 167.677 167.593 
167.284 168.643 168.425 167.953 167.795 167.479 167.463 167.203 167.109 
166.722 168.275 168.291 167.754 167.635 167.148 167.151 166.823 166.892 
166.533 166.458 165.944 167.577 167.746 167.313 167.306 166.799 166.761 
166.33 166.39 166.012 166.087 165.624 165.556 164.964 166.884 167.048 
166.699 166.795 166.382 166.393 165.962 165.937 165.514 165.53 165.11 
165.129 164.639 164.541 163.956 166.279 166.411 166.052 166.176 165.788 
165.898 165.495 165.548 165.108 165.099 164.651 164.647 164.21 164.183 
163.685 163.556 162.988 165.669 165.809 165.46 165.571 165.19 165.284 
164.881 164.982 164.561 164.633 164.183 164.21 163.753 163.758 163.287 
163.242 162.721 162.596 162.05 165.184 164.429 164.889 165.024 163.657 
164.167 164.326 164.724 164.779 162.624 163.295 163.464 163.985 164.008 
164.405 164.414 161.336 162.076 162.224 162.94 162.993 163.541 163.518 
163.994 164.04 160.204 160.795 160.892 161.58 161.684 162.382 162.436 
163.024 163.065 163.605 163.675 159.288 159.79 159.835 160.347 160.398 
161.048 161.159 161.85 161.934 162.561 162.621 163.196 163.247 158.276 
158.836 158.84 159.339 159.295 159.843 159.887 160.554 160.65 161.339 
161.402 162.056 162.104 162.719 162.755 157.212 157.738 157.711 158.254 
158.201 158.744 158.747 159.342 159.434 160.076 160.183 160.82 160.899 
161.529 161.587 162.197 162.209 156.331 156.72 156.671 157.136 157.126 
157.649 157.708 158.264 158.399 158.975 159.15 159.717 159.862 160.408 
160.497 161.046 161.079 161.63 161.597 155.904 155.371 155.803 156.181 
154.947 155.31 155.705 156.144 156.625 154.707 154.996 155.433 155.778 
156.294 156.703 157.263 154.451 154.805 155.27 155.608 156.144 156.484 
157.061 157.432 158.012 153.859 154.385 154.836 155.366 155.887 156.326 
156.877 157.272 157.858 158.227 158.789 153.152 153.633 154.011 154.688 
155.193 155.861 156.374 156.95 157.499 158.012 158.573 158.981 159.487 
152.84 153.056 153.371 153.846 154.338 155.007 155.539 156.236 156.764 
157.45 158.007 158.618 159.135 159.596 160.061 152.88 152.968 153.286 
153.474 153.937 154.326 154.886 155.429 156.001 156.638 157.223 157.906 
158.477 159.095 159.596 160.1 160.568 152.873 153.042 153.382 153.538 
153.959 154.17 154.691 155.018 155.611 156.051 156.672 157.207 157.822 
158.408 158.973 159.542 160.047 160.569 161.045 161.141 160.112 160.73 
160.945 159.031 159.665 159.871 160.533 160.801 157.938 158.583 158.794 
159.448 159.709 160.4 160.689 156.861 157.512 157.751 158.389 158.623 
159.289 159.572 160.281 160.573 155.823 156.452 156.683 157.331 157.534 
158.188 158.431 159.148 159.478 160.194 160.522 154.909 155.448 155.626 
156.232 156.4 157.054 157.263 157.986 158.308 159.084 159.469 160.191 
160.534 154.156 154.586 154.699 155.2 155.334 155.927 156.14 156.822 
157.137 157.901 158.29 159.082 159.461 160.19 160.504 153.482 153.836 
153.849 154.282 154.355 154.905 155.115 155.757 156.073 156.772 157.149 
157.903 158.302 159.069 159.44 160.147 160.463 152.866 153.136 153.041 
153.4 153.386 153.907 154.079 154.738 155.045 155.74 156.099 156.809 
157.212 157.952 158.379 159.102 159.501 160.156 160.501 158.612 157.862 
158.589 159.309 157.111 157.81 158.568 159.339 160.127 156.652 157.176 
157.939 158.632 159.5 160.223 160.986 156.567 156.908 157.587 158.093 
158.914 159.627 160.495 161.13 161.876 156.571 156.868 157.385 157.764 
158.414 159.058 159.941 160.665 161.534 162.11 162.898 156.476 156.775 
157.189 157.502 158.017 158.55 159.38 160.128 161.074 161.756 162.565 
163.131 163.842 156.401 156.655 157.114 157.348 157.877 158.232 159.005 
159.62 160.572 161.277 162.096 162.701 163.318 163.892 164.43 156.376 
156.623 157.159 157.395 158.006 158.252 158.965 159.362 160.204 160.798 
161.621 162.212 162.835 163.335 163.822 164.343 164.798 156.287 156.577 
157.112 157.447 158.085 158.407 159.051 159.362 160.013 160.458 161.189 
161.758 162.452 162.937 163.471 163.856 164.304 164.725 165.145 159.197 
159.959 159.825 160.309 160.743 160.606 161.089 160.926 161.345 161.522 
161.376 161.853 161.703 162.157 161.962 162.382 162.377 162.169 162.687 
162.517 163.079 162.869 163.38 163.088 163.527 163.428 163.141 163.705 
163.46 164.112 163.901 164.514 164.203 164.655 164.27 164.638 164.439 
164.259 164.84 164.573 165.177 164.961 165.578 165.342 165.808 165.432 
165.746 165.337 165.631 165.068 165.128 165.736 165.629 166.149 165.964 
166.483 166.313 166.784 166.516 166.837 166.444 166.686 166.281 166.497 
165.391 165.574 166.194 166.296 166.808 166.768 167.227 167.127 167.575 
167.403 167.737 167.44 167.639 167.278 167.411 167.034 167.113 165.643 
165.817 166.379 166.573 167.066 167.199 167.643 167.712 168.146 168.11 
168.432 168.232 168.377 168.082 168.129 167.819 167.828 167.498 167.48 
158.926 160.008 159.252 158.809 161.074 160.354 159.945 159.156 158.787 
162.107 161.416 161.085 160.334 160.004 159.246 159.028 163.202 162.488 
162.174 161.463 161.182 160.474 160.251 159.562 159.368 164.305 163.612 
163.286 162.562 162.243 161.575 161.342 160.725 160.492 159.823 159.516 
165.307 164.681 164.373 163.671 163.28 162.577 162.235 161.667 161.404 
160.845 160.501 159.84 159.467 166.143 165.604 165.283 164.678 164.264 
163.568 163.107 162.477 162.109 161.604 161.252 160.709 160.3 159.719 
159.387 166.745 166.312 165.94 165.45 165.023 164.443 163.956 163.316 
162.855 162.279 161.887 161.366 160.982 160.46 160.117 159.626 159.382 
167.145 166.796 166.414 165.99 165.555 165.078 164.616 164.075 163.613 
163.033 162.609 162.04 161.671 161.134 160.837 160.343 160.128 159.659 
159.482 168.425 168.735 168.565 168.549 169.19 168.955 168.942 168.706 
168.669 169.556 169.376 169.335 169.136 169.15 168.92 168.923 169.746 
169.649 169.592 169.457 169.451 169.344 169.359 169.168 169.035 169.8 
169.81 169.806 169.684 169.609 169.511 169.403 169.359 169.134 169.001 
168.593 169.531 169.759 169.813 169.85 169.757 169.638 169.395 169.258 
168.901 168.822 168.386 168.29 167.803 168.92 169.292 169.338 169.631 
169.589 169.678 169.467 169.303 168.912 168.647 168.215 168.032 167.644 
167.51 167.12 168.283 168.618 168.655 169.004 169.022 169.314 169.248 
169.312 169.044 168.809 168.396 168.068 167.698 167.457 167.134 166.931 
166.563 167.753 168.038 168.095 168.377 168.42 168.716 168.721 168.961 
168.817 168.837 168.487 168.282 167.873 167.617 167.254 167.013 166.63 
166.384 165.959 
POINT_DATA 1002
SCALARS Distance double
LOOKUP_TABLE default
155.468 156 155.387 154.85 154.584 154.953 154.142 153.715 154.395 
154.605 153.578 153.184 153.954 154.14 154.42 153.342 153.083 153.683 
153.807 153.875 154.037 153.261 153.142 153.422 153.397 153.323 153.324 
153.321 153.166 153.191 153.117 152.907 152.73 152.742 152.761 152.783 
153.051 153.189 152.869 152.614 152.399 152.354 152.421 152.511 152.711 
152.978 153.173 152.701 152.476 152.383 152.273 152.151 152.196 152.423 
152.768 153.041 153.231 152.694 152.383 152.342 152.312 152.034 151.837 
151.977 152.298 152.658 156.116 155.376 156.146 155.329 156.205 154.411 
155.297 156.32 154.286 153.513 155.084 156.298 153.979 153.4 153.106 
154.785 156.199 153.332 152.848 153.048 153.11 155.035 156.441 153.238 
152.187 152.582 153.183 153.254 155.943 157.123 154.332 152.718 152.407 
153.155 153.527 153.377 156.912 157.927 155.758 154.307 153.294 153.396 
153.795 153.686 153.37 157.601 158.605 156.68 155.685 154.643 154.052 
154 153.906 153.584 153.329 158.491 157.449 158.353 157.408 158.481 
156.622 157.74 158.877 156.77 155.839 158.124 159.149 157.117 156.022 
154.955 158.204 159.16 157.282 156.136 154.969 154.285 158.24 159.122 
157.344 156.284 155.055 154.208 153.961 158.367 159.128 157.513 156.564 
155.512 154.55 153.955 153.71 158.451 159.186 157.617 156.707 155.846 
155.079 154.36 153.794 153.479 158.52 159.307 157.66 156.728 155.852 
155.16 154.562 153.996 153.594 153.378 153.281 153.431 153.254 153.535 
153.294 152.986 153.814 153.262 153.001 152.616 154.367 153.581 153.15 
152.879 152.431 155.115 154.356 153.674 153.277 152.906 152.374 156.034 
155.367 154.472 153.633 153.235 152.855 152.296 157.037 156.434 155.498 
154.206 153.429 153.251 152.897 152.361 157.999 157.435 156.638 155.35 
154.183 153.821 153.69 153.214 152.724 158.907 158.367 157.67 156.681 
155.558 154.884 154.65 154.274 153.703 153.316 152.985 152.828 152.507 
152.479 152.3 152.236 152.146 152.072 152.108 152.238 152.016 151.961 
152.034 152.049 152.023 151.922 151.856 151.953 151.948 151.785 151.68 
151.879 151.684 151.639 151.685 151.743 151.669 151.683 152.157 151.811 
151.485 151.261 151.444 151.736 151.802 151.939 152.776 152.394 151.953 
151.407 151.22 151.534 151.813 151.931 152.217 153.757 153.349 154.475 
154.093 155.314 152.958 154.899 156.232 153.66 152.382 155.823 157.207 
154.484 153.115 151.801 156.798 158.104 155.395 154.001 152.603 151.658 
157.706 158.916 156.309 154.861 153.47 152.314 151.806 158.543 159.687 
157.216 155.773 154.39 153.135 152.237 151.931 159.275 160.334 158.065 
156.743 155.455 154.248 153.138 152.421 152.217 159.89 160.837 158.81 
157.635 156.476 155.398 154.341 153.426 152.912 152.746 154.201 154.742 
155.21 155.877 156.343 155.576 157.138 157.66 156.793 156.542 158.509 
159.004 158.087 157.837 157.575 159.848 160.212 159.51 159.216 158.933 
158.545 161.149 161.49 160.946 160.706 160.339 159.869 159.373 162.555 
162.905 162.325 162.096 161.702 161.195 160.682 160.186 163.893 164.145 
163.654 163.375 162.943 162.445 161.993 161.506 160.936 164.926 165.059 
164.782 164.563 164.152 163.656 163.244 162.8 162.184 161.486 159.92 
159.48 160.56 160 161.082 158.79 160.467 161.581 159.179 157.938 
161.073 162.222 159.699 158.311 156.997 161.787 162.881 160.434 158.892 
157.496 156.194 162.394 163.467 161.129 159.617 158.073 156.798 155.7 
162.963 164.068 161.664 160.274 158.797 157.361 156.209 155.239 163.58 
164.629 162.235 160.835 159.538 158.165 156.789 155.649 154.654 159.956 
160.636 160.593 161.278 161.323 161.315 162.023 162.211 161.991 161.9 
162.938 163.191 162.801 162.749 162.562 163.871 164.168 163.676 163.668 
163.622 163.315 164.792 165.107 164.498 164.391 164.478 164.367 163.956 
165.762 166.009 165.433 165.056 164.941 165.046 164.925 164.542 166.682 
166.822 166.45 165.957 165.454 165.424 165.624 165.523 165.133 167.407 
167.463 167.3 166.911 166.251 165.893 166.109 166.32 166.093 165.603 