# vtk DataFile Version 4.0
vtk output
ASCII
DATASET POLYDATA
POINTS 1002 float
-77.3377 -113.069 74.7123 -76.7615 -113.959 74.3674 -77.2535 -113.9 73.593 
-77.9616 -112.933 73.9555 -77.8639 -113.749 72.78 -78.1705 -112.106 75.0481 
-78.6057 -112.621 73.1378 -78.4776 -113.384 71.945 -78.799 -111.775 74.3056 
-78.9763 -110.832 75.4303 -79.1957 -112.089 72.3242 -79.1302 -112.887 71.1915 
-79.3843 -111.291 73.5119 -79.6189 -110.4 74.717 -79.7992 -109.482 75.9096 
-79.8852 -111.474 71.6021 -79.9057 -112.346 70.5686 -80.0321 -110.685 72.7799 
-80.3071 -109.89 73.9938 -80.5399 -109.013 75.2032 -80.8135 -108.292 76.4481 
-80.7813 -110.875 71.0063 -80.8327 -111.762 70.1088 -80.9263 -110.076 72.17 
-81.1747 -109.312 73.3859 -81.3174 -108.402 74.5092 -81.4812 -107.588 75.7092 
-81.7296 -106.955 76.9648 -81.8761 -110.322 70.6574 -81.9408 -111.223 69.9121 
-81.9842 -109.506 71.6932 -82.1931 -108.756 72.888 -82.2274 -107.791 73.9535 
-82.1719 -106.808 75.0236 -82.2875 -106.097 76.2468 -82.3795 -105.43 77.3995 
-83.1113 -109.844 70.5748 -83.1609 -110.779 69.9143 -83.1126 -108.972 71.4076 
-83.1869 -108.206 72.4468 -83.2011 -107.286 73.4783 -83.0778 -106.235 74.4838 
-83.0372 -105.416 75.6151 -83.089 -104.792 76.7688 -83.0054 -104.112 77.7324 
-84.2979 -109.382 70.5364 -84.3089 -110.327 69.925 -84.2567 -108.463 71.2218 
-84.1867 -107.637 72.0706 -84.1356 -106.762 73.0093 -84.0739 -105.789 73.9885 
-84.0019 -104.938 75.0512 -83.9632 -104.299 76.15 -83.8702 -103.689 77.156 
-83.6736 -103.046 77.9916 -85.2915 -108.858 70.4207 -85.2907 -109.802 69.8954 
-85.274 -107.928 70.9988 -85.1884 -107.071 71.7247 -85.0704 -106.194 72.5691 
-84.988 -105.277 73.4833 -84.9202 -104.45 74.4786 -84.8297 -103.791 75.5062 
-84.6977 -103.204 76.4986 -84.501 -102.599 77.414 -84.2731 -102.038 78.2107 
-76.6924 -114.975 73.4663 -77.1232 -114.828 72.5809 -76.6291 -116.035 72.4665 
-76.8529 -115.614 71.3876 -76.3069 -116.86 71.4465 -77.5812 -114.515 71.6272 
-76.275 -116.124 70.0718 -75.8626 -117.568 70.4803 -76.9756 -115.009 70.1628 
-78.1168 -114.069 70.7 -75.85 -116.733 68.9732 -75.8296 -118.434 69.7628 
-76.2081 -115.392 68.6263 -77.4361 -114.519 69.1583 -78.9143 -113.623 70.018 
-76.2102 -117.71 68.547 -76.4606 -119.365 69.4421 -76.1131 -116.224 67.7622 
-76.9868 -115.065 67.8334 -78.6287 -114.144 68.7238 -79.9618 -113.087 69.5826 
-77.2581 -118.735 68.7033 -77.4996 -120.179 69.3911 -77.0387 -117.43 67.8694 
-77.5339 -116.116 67.4174 -78.8575 -114.75 67.7599 -80.1834 -113.568 68.5664 
-81.1022 -112.456 69.2981 -78.4721 -119.517 69.0101 -78.6048 -120.84 69.472 
-78.3909 -118.372 68.3317 -78.7968 -117.262 67.6505 -79.7691 -115.734 67.3793 
-80.7768 -114.108 67.6916 -81.5435 -112.93 68.3898 -82.2998 -111.932 69.1855 
-79.5991 -120.085 69.3121 -79.65 -121.318 69.6568 -79.6566 -118.898 68.7191 
-80.0609 -117.946 67.9186 -80.8066 -116.756 67.2832 -81.5292 -115.032 67.1192 
-82.1038 -113.473 67.5023 -82.7472 -112.457 68.2989 -83.5299 -111.499 69.1961 
-80.6534 -120.529 69.5929 -80.6601 -121.623 69.8785 -80.7795 -119.284 69.0726 
-81.1522 -118.273 68.2163 -81.7214 -117.43 67.3608 -82.2566 -116.101 66.8986 
-82.719 -114.343 66.9447 -83.2863 -112.957 67.4871 -83.9851 -112.014 68.3658 
-84.684 -111.006 69.2474 -81.7261 -121.237 69.9107 -81.843 -120.025 69.5361 
-82.9649 -120.737 69.874 -83.2692 -119.485 69.3215 -84.3536 -120.158 69.7356 
-82.1668 -118.766 68.798 -84.8493 -119.03 69.0179 -85.8417 -119.609 69.5689 
-83.7425 -118.37 68.4718 -82.6591 -117.891 67.8132 -86.3539 -118.533 68.9126 
-87.1663 -118.906 69.692 -85.3773 -118.009 68.2537 -84.272 -117.551 67.6028 
-83.1485 -116.979 67.069 -87.4617 -117.588 69.3807 -88.1484 -117.746 70.2837 
-86.7392 -117.254 68.4098 -85.9405 -116.864 67.6051 -84.8175 -116.253 67.0731 
-83.606 -115.321 66.8278 -88.4233 -116.259 70.1638 -89.2001 -116.427 70.8359 
-87.6769 -116.022 69.1562 -87.175 -115.724 68.0567 -86.5264 -115.156 67.333 
-85.3743 -114.293 67.0542 -84.1602 -113.491 67.1024 -89.8195 -115.097 70.5291 
-90.6356 -115.424 70.9173 -88.8318 -114.77 69.9675 -88.0714 -114.519 69.0826 
-87.6136 -114.088 68.1788 -86.926 -113.316 67.6618 -85.8531 -112.606 67.5782 
-84.793 -112.231 67.8445 -91.4738 -114.239 70.4736 -92.0986 -114.656 70.8543 
-90.5316 -113.767 70.2324 -89.471 -113.418 69.9162 -88.6224 -113.089 69.3512 
-87.9426 -112.497 68.7317 -87.1639 -111.817 68.3943 -86.2574 -111.406 68.4423 
-85.3919 -111.21 68.7799 -92.8244 -113.432 70.5289 -93.2105 -113.86 71.0318 
-92.1895 -112.889 70.208 -91.2938 -112.373 70.0761 -90.2658 -111.94 69.9352 
-89.2509 -111.44 69.6149 -88.3351 -110.872 69.2669 -87.4987 -110.444 69.142 
-86.6801 -110.197 69.2701 -85.9213 -110.006 69.5519 -86.2057 -108.567 70.1542 
-86.9546 -108.7 69.9072 -87.1942 -107.131 70.3408 -87.8445 -108.871 69.7347 
-88.1383 -107.162 70.1221 -88.2678 -105.625 70.4919 -88.8118 -109.092 69.6541 
-89.235 -107.262 69.949 -89.3842 -105.578 70.1962 -89.3584 -104.244 70.6864 
-89.9236 -109.481 69.7025 -90.4587 -107.455 69.808 -90.6427 -105.658 69.9897 
-90.5864 -104.194 70.3309 -90.4765 -103.124 71.0501 -91.1645 -110.094 69.7983 
-91.8386 -107.973 69.6939 -92.0633 -105.987 69.8682 -91.9837 -104.339 70.1645 
-91.8315 -103.122 70.716 -91.6249 -102.188 71.5625 -92.2477 -110.78 69.8618 
-93.0618 -108.857 69.6377 -93.4781 -106.797 69.771 -93.5092 -104.85 70.1304 
-93.3191 -103.34 70.5466 -93.0347 -102.265 71.2475 -92.6963 -101.315 72.0439 
-93.022 -111.455 70.051 -93.81 -109.792 69.8542 -94.4317 -107.913 69.8684 
-94.7702 -105.832 70.187 -94.7386 -103.943 70.5502 -94.3926 -102.593 71.0771 
-94.0046 -101.533 71.8143 -93.6394 -100.592 72.4988 -93.5555 -112.112 70.4859 
-94.245 -110.602 70.4272 -94.903 -108.956 70.3773 -95.4448 -107.032 70.5298 
-95.7085 -104.97 70.8111 -95.5342 -103.287 71.2121 -95.1226 -102.044 71.8427 
-94.7842 -100.979 72.4988 -94.4294 -100.154 73.101 -93.9051 -112.679 71.0624 
-94.5684 -111.31 71.1135 -95.2182 -109.842 71.0905 -95.7671 -108.174 71.1393 
-96.1595 -106.222 71.3421 -96.2861 -104.332 71.6626 -96.0664 -102.847 72.1858 
-95.7296 -101.657 72.8055 -95.4292 -100.665 73.3337 -95.0124 -99.9766 73.8957 
-86.1967 -107.533 70.6209 -87.1466 -106.062 70.8305 -86.1599 -106.594 71.2558 
-88.1538 -104.594 71.1216 -87.0667 -105.13 71.5906 -86.0544 -105.686 72.0784 
-89.1987 -103.306 71.4945 -87.9928 -103.694 71.9708 -86.9052 -104.19 72.4563 
-85.902 -104.721 72.9696 -90.2726 -102.196 71.9418 -88.9313 -102.37 72.3121 
-87.7178 -102.713 72.7524 -86.6544 -103.196 73.3238 -85.7482 -103.813 73.9316 
-91.3287 -101.158 72.3886 -89.8582 -101.139 72.6819 -88.5311 -101.309 73.0541 
-87.3831 -101.716 73.6614 -86.4019 -102.338 74.3582 -85.5946 -103.085 74.9741 
-92.3551 -100.311 72.8146 -90.796 -100.174 73.1739 -89.3403 -100.173 73.5815 
-88.1632 -100.431 74.1917 -87.1279 -100.977 74.9087 -86.2076 -101.686 75.5004 
-85.4289 -102.466 76.0077 -93.2978 -99.8215 73.3834 -91.7906 -99.6502 73.8621 
-90.2276 -99.5092 74.3679 -88.9371 -99.4995 74.9097 -87.8886 -99.838 75.5535 
-86.9193 -100.421 76.1259 -86.0175 -101.091 76.5638 -85.2245 -101.852 76.9971 
-94.0195 -99.6197 74.1763 -92.6951 -99.4179 74.7376 -91.2255 -99.1604 75.3116 
-89.8323 -98.8429 75.7034 -88.6091 -98.8372 76.0997 -87.5709 -99.2693 76.6212 
-86.6429 -99.856 77.1099 -85.765 -100.507 77.5243 -84.9774 -101.278 77.906 
-94.8563 -99.6527 75.026 -93.6898 -99.3193 75.5646 -94.4979 -99.3294 76.4693 
-93.2792 -98.854 77.0481 -94.0756 -99.0133 77.8745 -92.3806 -98.952 76.2185 
-92.8622 -98.436 78.1625 -93.5694 -98.9851 79.0259 -92.1255 -98.1617 77.4268 
-91.0384 -98.3555 76.5693 -92.2635 -98.535 79.1625 -92.9837 -99.1667 80.2332 
-91.6941 -97.6916 78.3235 -90.7999 -97.3632 77.4977 -89.5789 -97.8998 76.691 
-91.6363 -98.8281 80.5437 -92.6049 -99.157 81.7076 -90.9221 -97.9908 79.5804 
-90.2065 -97.091 78.6964 -89.1331 -97.1284 77.7362 -88.1743 -98.1011 77.0492 
-91.3167 -98.968 82.0409 -92.3743 -99.2036 83.1633 -90.2803 -98.4298 81.0991 
-89.4848 -97.5491 80.3808 -88.5819 -97.1288 79.3933 -87.6618 -97.6643 78.3199 
-87.0766 -98.7422 77.6258 -91.0239 -99.3809 83.3088 -91.8983 -99.6709 84.3445 
-89.9433 -98.8598 82.3566 -89.0127 -98.0731 81.7812 -88.1766 -97.567 81.102 
-87.271 -97.736 79.9535 -86.5706 -98.4506 78.8686 -86.1362 -99.4299 78.1373 
-90.4856 -100.069 84.4118 -91.2263 -100.301 85.2433 -89.5406 -99.5576 83.5315 
-88.606 -98.7387 82.8824 -87.7894 -98.148 82.3301 -86.9216 -98.1277 81.4004 
-86.1119 -98.5395 80.2131 -85.5885 -99.2547 79.2508 -85.2541 -100.21 78.5369 
-89.9335 -100.625 85.3614 -90.6658 -100.849 85.9142 -89.065 -100.21 84.7477 
-88.156 -99.5245 84.1151 -87.3239 -98.9467 83.4619 -86.4881 -98.7891 82.6248 
-85.6637 -98.9689 81.5271 -85.0838 -99.4257 80.4317 -84.7504 -100.169 79.5492 
-84.4959 -101.087 78.8316 -95.7811 -100.318 74.4745 -95.6711 -99.9687 75.692 
-96.451 -100.882 75.2343 -96.3659 -100.556 76.5666 -96.907 -101.636 76.0512 
-95.4003 -99.6557 77.2107 -96.7718 -101.404 77.5407 -97.1385 -102.568 76.9507 
-96.1668 -100.327 78.1725 -94.9966 -99.4955 78.7226 -97.0016 -102.443 78.5811 
-97.3509 -103.728 78.0412 -96.5466 -101.32 79.1653 -95.6933 -100.299 79.7177 
-94.3804 -99.5872 80.0427 -97.2932 -103.642 79.6691 -97.5786 -105.116 79.1533 
-96.7742 -102.452 80.1089 -95.9862 -101.364 80.598 -94.951 -100.385 81.0299 
-93.7939 -99.6184 81.3923 -97.463 -105.047 80.6037 -97.6304 -106.602 80.0163 
-97.0215 -103.66 81.0218 -96.2401 -102.471 81.4379 -95.283 -101.436 81.8547 
-94.3781 -100.418 82.3392 -93.4588 -99.5446 82.8854 -97.3367 -106.607 81.2507 
-97.4922 -108.029 80.6422 -97.0222 -105.126 81.7542 -96.4582 -103.682 82.2719 
-95.6254 -102.543 82.7293 -94.754 -101.624 83.139 -93.9408 -100.569 83.745 
-93.014 -99.7716 84.2747 -97.0506 -108.1 81.6891 -97.2303 -109.3 81.1221 
-96.7778 -106.783 82.2281 -96.3944 -105.264 82.8488 -95.7844 -103.828 83.4643 
-94.992 -102.851 83.891 -94.1734 -101.949 84.3762 -93.3027 -100.892 85.0087 
-92.3048 -100.277 85.3357 -96.662 -109.335 81.9787 -96.8176 -110.367 81.4357 
-96.4423 -108.254 82.5303 -96.1462 -106.972 83.1486 -95.6588 -105.477 83.808 
[...]
CELL_DATA 2000
SCALARS Distance double
LOOKUP_TABLE default
155.112 154.944 154.997 154.947 154.67 154.788 154.708 154.815 154.718 
154.273 154.421 154.315 154.484 154.375 154.503 154.387 153.912 153.998 
153.869 154.037 153.966 154.134 154.063 154.188 154.18 153.688 153.683 
153.562 153.661 153.65 153.785 153.744 153.854 153.796 153.997 154.015 
153.68 153.56 153.466 153.473 153.511 153.588 153.561 153.581 153.436 
153.54 153.461 153.734 153.677 153.92 153.695 153.597 153.488 153.499 
153.515 153.492 153.462 153.288 153.242 153.108 153.222 153.212 153.392 
153.317 154.23 153.999 153.848 153.671 153.578 153.514 153.434 153.396 
153.241 153.164 153.023 153.013 153.004 153.088 153.103 153.151 153.069 
154.422 154.239 154.015 153.856 153.662 153.561 153.393 153.33 153.156 
153.106 152.955 152.95 152.881 152.944 152.918 152.993 152.92 152.948 
152.831 155.273 155.51 155.264 155.051 155.566 155.372 155.026 154.95 
154.725 155.354 155.166 154.623 154.676 154.401 154.525 154.322 155.336 
154.877 154.114 154.046 153.703 154.005 153.967 154.16 154.025 155.972 
155.142 154.339 153.77 153.372 153.373 153.482 153.775 153.916 153.972 
153.864 157.078 156.124 155.502 154.547 154.2 153.595 153.685 153.572 
153.852 153.903 154.002 153.907 153.852 158.243 157.381 156.92 155.995 
155.728 154.889 154.852 154.254 154.349 154.06 154.171 154.062 154.127 
154.012 154.065 159.292 158.553 158.131 157.36 157.074 156.368 156.222 
155.545 155.384 154.785 154.653 154.327 154.36 154.269 154.395 154.306 
154.393 160.214 159.571 159.166 158.466 158.118 157.497 157.288 156.72 
156.494 155.835 155.526 154.943 154.8 154.543 154.651 154.594 154.734 
154.622 154.642 160.576 160.809 160.327 159.56 161.043 160.552 159.773 
159.263 158.521 161.338 160.824 160.098 159.537 158.823 158.317 157.704 
161.648 161.173 160.513 159.951 159.286 158.719 158.074 157.566 156.925 
161.743 161.417 160.757 160.328 159.663 159.182 158.487 157.946 157.172 
156.66 155.92 161.644 161.399 160.737 160.422 159.732 159.402 158.704 
158.268 157.465 156.91 156.126 155.649 155.112 161.669 161.352 160.765 
160.395 159.76 159.411 158.797 158.419 157.739 157.22 156.52 155.98 
155.492 155.101 154.897 161.889 161.52 161.011 160.572 160.023 159.579 
159.053 158.619 158.064 157.563 156.971 156.447 155.982 155.568 155.325 
155.046 154.94 162.098 161.777 161.288 160.891 160.363 159.933 159.413 
158.975 158.426 157.949 157.362 156.885 156.379 156 155.656 155.396 
155.167 154.99 154.804 154.644 155.032 154.695 154.38 155.546 155.151 
154.845 154.412 154.039 156.232 155.743 155.451 154.948 154.554 154.078 
153.733 157.169 156.545 156.237 155.632 155.246 154.671 154.294 153.832 
153.622 158.269 157.599 157.303 156.564 156.204 155.491 155.138 154.516 
154.291 153.858 153.805 159.314 158.72 158.502 157.755 157.449 156.638 
156.327 155.54 155.299 154.672 154.585 154.15 154.128 160.271 159.743 
159.6 158.952 158.725 157.968 157.704 156.874 156.605 155.817 155.638 
155.034 154.969 154.498 154.449 161.191 160.702 160.602 160.028 159.871 
159.216 159.013 158.258 157.995 157.172 156.918 156.172 156.029 155.431 
155.377 154.865 154.853 162.012 161.594 161.525 161.022 160.915 160.338 
160.192 159.522 159.303 158.53 158.271 157.481 157.297 156.591 156.52 
155.905 155.9 155.36 155.41 154.39 154.077 154.137 153.945 153.708 
153.776 153.599 153.707 153.583 153.416 153.429 153.258 153.359 153.261 
153.378 153.288 153.332 153.225 153.037 153.057 152.936 153.039 152.944 
153.077 153.008 153.482 153.246 152.974 152.873 152.653 152.697 152.545 
152.689 152.622 152.807 152.805 153.724 153.423 153.021 152.808 152.449 
152.396 152.168 152.273 152.197 152.402 152.444 152.663 152.743 154.009 
153.654 153.207 152.874 152.458 152.246 152.004 151.979 151.936 152.049 
152.119 152.31 152.427 152.641 152.753 154.443 154.016 153.658 153.204 
152.857 152.444 152.214 151.985 151.953 151.928 152.006 152.084 152.172 
152.325 152.427 152.64 152.732 155.034 154.574 154.328 153.839 153.594 
153.067 152.806 152.367 152.191 152.005 151.975 152 152.026 152.121 
152.156 152.31 152.383 152.592 152.663 155.317 155.58 155.177 154.648 
155.812 155.422 154.879 154.507 153.943 155.99 155.577 154.936 154.628 
154 153.687 153.078 156.271 155.746 154.986 154.59 153.846 153.564 
152.886 152.714 152.265 156.745 156.115 155.354 154.75 153.965 153.457 
152.738 152.449 152.02 152.009 151.904 157.363 156.689 155.981 155.277 
154.564 153.856 153.189 152.579 152.145 151.874 151.805 151.846 151.943 
158.044 157.382 156.703 155.976 155.301 154.594 154.01 153.314 152.856 
152.297 152.105 151.884 151.943 151.962 152.081 158.654 158.082 157.466 
156.748 156.078 155.358 154.795 154.154 153.703 153.101 152.763 152.325 
152.213 152.052 152.129 152.14 152.289 159.125 158.661 158.146 157.523 
156.918 156.191 155.633 154.958 154.526 153.912 153.547 153 152.765 
152.416 152.4 152.274 152.399 152.403 152.568 155.869 156.902 156.286 
156.136 158.064 157.404 157.249 156.599 156.432 159.25 158.607 158.523 
157.826 157.679 156.936 156.729 160.536 159.846 159.822 159.142 159.051 
158.285 158.084 157.271 157.057 162.009 161.233 161.184 160.462 160.364 
159.632 159.429 158.646 158.41 157.633 157.477 163.482 162.727 162.612 
161.845 161.68 160.922 160.704 159.944 159.723 158.972 158.821 158.103 
158.045 164.747 164.094 163.943 163.216 163.004 162.237 162.012 161.239 
161.057 160.302 160.182 159.452 159.387 158.698 158.678 165.769 165.228 
165.079 164.447 164.24 163.525 163.294 162.55 162.363 161.644 161.519 
160.812 160.702 160.007 159.91 159.269 159.208 166.516 166.108 165.959 
165.471 165.293 164.695 164.464 163.778 163.524 162.855 162.659 162.043 
161.887 161.253 161.089 160.441 160.298 159.706 159.617 162.408 162.869 
162.421 161.956 163.41 162.905 162.439 161.938 161.401 164.053 163.486 
162.987 162.445 161.887 161.343 160.711 164.681 164.115 163.548 162.986 
162.366 161.808 161.117 160.564 159.825 165.192 164.656 164.043 163.5 
162.832 162.259 161.524 160.94 160.161 159.599 158.818 165.7 165.13 
164.515 163.964 163.311 162.723 161.982 161.357 160.579 159.967 159.201 
158.613 157.882 166.257 165.681 165.077 164.481 163.848 163.23 162.488 
161.829 161.03 160.406 159.657 159.064 158.358 157.764 157.107 166.645 
166.208 165.622 165.067 164.424 163.8 163.045 162.351 161.512 160.85 
160.083 159.514 158.839 158.275 157.625 157.05 156.458 166.718 166.47 
165.928 165.517 164.876 164.338 163.596 162.927 162.095 161.374 160.591 
159.962 159.31 158.756 158.152 157.585 156.994 156.443 155.934 162.747 
163.407 163.135 163.244 164.14 163.856 164.019 163.679 163.81 164.876 
164.622 164.815 164.496 164.667 164.32 164.488 165.517 165.315 165.501 
165.255 165.436 165.167 165.381 165.049 165.181 166.196 165.944 166.142 
165.901 166.067 165.847 166.082 165.885 166.104 165.731 165.768 167.065 
166.697 166.899 166.598 166.75 166.46 166.64 166.481 166.772 166.592 
166.774 166.322 166.317 167.999 167.566 167.658 167.36 167.492 167.184 
167.274 167.019 167.226 167.138 167.417 167.234 167.343 166.878 166.838 
168.888 168.413 168.338 168.015 168.106 167.88 167.989 167.69 167.756 
167.547 167.707 167.665 167.809 167.672 167.64 167.271 167.127 169.742 
169.256 169.1 168.656 168.67 168.442 168.62 168.393 168.452 168.114 
168.068 167.87 167.877 167.858 167.825 167.744 167.579 167.33 167.095 
170.166 170.55 170.103 169.522 170.665 170.399 169.881 169.452 169.043 
170.433 170.367 169.973 169.753 169.441 169.16 168.966 170.151 170.109 
169.751 169.681 169.402 169.383 169.186 169.051 168.764 169.94 169.932 
169.598 169.46 169.109 169.122 168.895 168.98 168.687 168.606 168.248 
169.51 169.682 169.488 169.412 169.113 168.948 168.74 168.675 168.487 
168.414 168.144 168.058 167.885 168.953 169.154 169.057 169.219 169.107 
169.076 168.98 168.809 168.706 168.449 168.243 168.01 167.824 167.785 
167.744 168.641 168.673 168.535 168.718 168.678 168.904 168.884 168.991 
168.875 168.762 168.471 168.209 167.868 167.715 167.527 167.594 167.509 
168.51 168.463 168.256 168.296 168.19 168.389 168.334 168.602 168.441 
168.607 168.246 168.224 167.759 167.665 167.307 167.321 167.132 167.253 
167.088 168.312 167.819 168.09 168.082 167.164 167.573 167.671 167.908 
167.977 166.331 166.894 167.133 167.5 167.62 167.859 168.017 165.352 
166.028 166.395 166.937 167.126 167.442 167.489 167.825 167.98 164.36 
165.041 165.415 166.093 166.319 166.811 166.789 167.152 167.126 167.618 
167.718 163.356 164.032 164.282 164.984 165.123 165.78 165.776 166.294 
166.237 166.706 166.75 167.27 167.333 162.203 162.92 163.075 163.762 
163.806 164.465 164.482 165.135 165.217 165.801 165.935 166.415 166.546 
166.945 167.013 161.009 161.684 161.845 162.52 162.618 163.217 163.286 
163.891 164.071 164.743 165.016 165.624 165.841 166.283 166.413 166.744 
166.849 160.025 160.563 160.747 161.355 161.554 162.142 162.311 162.855 
163.048 163.658 163.94 164.625 164.896 165.504 165.67 166.137 166.248 
166.63 166.747 168.332 167.927 168.057 167.764 167.213 167.505 167.265 
167.395 167.04 166.329 166.71 166.548 166.811 166.464 166.564 166.124 
165.271 165.714 165.518 165.971 165.667 165.897 165.378 165.505 165.037 
164.133 164.539 164.227 164.763 164.463 164.914 164.413 164.647 164.087 
164.349 163.983 163.13 163.434 163.083 163.47 163.15 163.608 163.196 
163.55 163.031 163.334 162.921 163.308 163.009 162.199 162.499 162.156 
162.437 162.075 162.402 162.024 162.36 161.931 162.248 161.841 162.211 
161.869 162.28 161.911 161.227 161.554 161.184 161.486 161.054 161.364 
160.934 161.267 160.856 161.184 160.785 161.126 160.754 161.127 160.759 
161.132 160.75 160.319 160.594 160.209 160.472 160.008 160.289 159.828 
160.165 159.757 160.115 159.729 160.071 159.694 160.037 159.69 160.039 
159.724 160.062 159.783 168.594 168.819 168.577 168.185 168.814 168.66 
168.179 167.946 167.396 168.498 168.468 167.934 167.799 167.233 167.063 
166.499 167.976 168.028 167.519 167.456 166.946 166.857 166.369 166.18 
165.567 167.464 167.535 167.157 167.088 166.641 166.562 166.146 166.04 
165.496 165.212 164.51 166.999 167.095 166.84 166.831 166.446 166.326 
165.871 165.77 165.244 165.076 164.401 164.119 163.438 166.496 166.6 
166.305 166.45 166.099 166.105 165.597 165.483 164.885 164.748 164.087 
163.908 163.225 163.037 162.429 165.978 166.03 165.613 165.783 165.409 
165.58 165.097 165.107 164.48 164.372 163.706 163.559 162.902 162.747 
162.132 162.003 161.446 165.481 165.493 165.032 165.1 164.707 164.846 
164.421 164.501 163.931 163.9 163.262 163.176 162.561 162.434 161.846 
161.699 161.153 161.029 160.536 165.028 164.195 164.618 164.609 163.251 
163.78 163.832 164.239 164.268 162.016 162.719 162.809 163.393 163.408 
163.876 163.89 160.648 161.367 161.432 162.171 162.169 162.821 162.749 
163.349 163.31 159.558 160.104 160.126 160.736 160.694 161.388 161.32 
162.029 161.992 162.673 162.656 158.619 159.131 159.108 159.557 159.448 
159.975 159.947 160.598 160.672 161.357 161.439 162.057 162.048 157.46 
158.067 157.998 158.528 158.421 158.891 158.901 159.429 159.586 160.178 
160.334 160.911 160.947 161.466 161.392 156.27 156.801 156.75 157.34 
157.37 157.921 158.042 158.551 158.719 159.225 159.334 159.852 159.85 
160.369 160.291 160.794 160.702 155.474 155.771 155.786 156.234 156.406 
156.952 157.201 157.74 157.908 158.379 158.376 158.826 158.724 159.23 
159.138 159.679 159.621 160.14 160.098 155.216 155.066 155.22 155.493 
154.856 155.072 155.349 155.615 156.081 154.514 154.767 155.034 155.399 
155.868 156.284 156.857 154.371 154.506 154.756 155.031 155.463 155.935 
156.48 156.987 157.499 154.318 154.491 154.793 154.924 155.301 155.566 
156.015 156.458 156.891 157.426 157.833 153.915 154.276 154.549 154.894 
155.224 155.501 155.84 156.09 156.405 156.764 157.123 157.657 158.098 
153.359 153.673 153.765 154.281 154.515 155.113 155.42 155.87 156.135 
156.42 156.727 157.071 157.529 158.022 158.555 153.023 153.148 153.12 
153.424 153.564 154.139 154.461 155.143 155.497 156.038 156.386 156.789 
157.236 157.632 158.17 158.601 159.125 152.824 152.896 152.89 152.989 
153.118 153.389 153.706 154.202 154.632 155.245 155.705 156.305 156.798 
157.325 157.838 158.287 158.778 159.186 159.639 159.765 158.886 159.419 
159.588 157.917 158.474 158.567 159.148 159.305 156.793 157.4 157.464 
158.074 158.193 158.843 159.085 155.597 156.192 156.256 156.921 157.09 
157.752 158.006 158.69 159.025 154.538 155.042 155.127 155.745 155.995 
156.675 156.989 157.659 157.987 158.67 159.016 153.719 154.122 154.247 
154.748 155.008 155.637 155.988 156.661 156.994 157.651 157.973 158.654 
158.991 153.155 153.439 153.541 153.947 154.117 154.677 154.958 155.642 
155.968 156.648 156.964 157.632 157.98 158.657 159.013 152.84 152.976 
152.97 153.252 153.289 153.748 153.915 154.565 154.854 155.573 155.896 
156.607 156.978 157.682 158.085 158.739 159.1 152.684 152.705 152.587 
152.716 152.654 152.946 153.041 153.551 153.823 154.475 154.813 155.515 
155.903 156.655 157.112 157.838 158.267 158.876 159.22 160.663 159.801 
160.529 161.109 158.808 159.626 160.24 160.995 161.638 157.754 158.622 
159.263 160.062 160.685 161.505 162.202 156.8 157.628 158.341 159.108 
159.736 160.514 161.193 162.061 162.83 156.174 156.808 157.539 158.244 
158.945 159.67 160.405 161.15 161.942 162.753 163.534 156.013 156.374 
156.969 157.5 158.166 158.905 159.741 160.516 161.36 162.041 162.798 
163.48 164.129 156.038 156.298 156.775 157.085 157.619 158.168 158.95 
159.784 160.683 161.484 162.217 162.85 163.435 164.031 164.544 155.857 
156.192 156.66 156.984 157.517 157.842 158.485 159.045 159.851 160.655 
161.427 162.188 162.773 163.387 163.875 164.435 164.884 155.521 155.859 
156.312 156.778 157.395 157.81 158.428 158.778 159.397 159.911 160.615 
161.328 162.01 162.694 163.233 163.799 164.233 164.757 165.131 161.275 
161.743 161.775 162.343 162.339 162.331 162.94 162.921 163.539 163.001 
163.006 163.641 163.584 164.222 164.196 164.825 163.69 163.721 164.388 
164.304 164.889 164.865 165.507 165.493 166.049 164.356 164.436 165.167 
165.089 165.687 165.572 166.212 166.172 166.771 166.662 167.093 164.832 
165.005 165.738 165.821 166.511 166.456 167.166 167.037 167.661 167.434 
167.847 167.614 167.954 165.141 165.331 165.953 166.187 166.858 167.1 
167.861 167.983 168.609 168.416 168.723 168.38 168.622 168.427 168.774 
165.436 165.584 166.111 166.29 166.829 167.164 167.847 168.303 168.935 
169.119 169.378 169.175 169.287 169.076 169.379 169.272 169.602 165.662 
165.84 166.34 166.463 166.909 167.096 167.641 168.057 168.673 169.095 
169.463 169.563 169.706 169.634 169.907 169.864 170.226 170.071 170.209 
161.229 162.283 161.667 161.497 163.422 162.743 162.556 161.925 161.728 
164.653 163.906 163.634 162.962 162.745 162.142 161.969 165.854 165.126 
164.794 164.048 163.764 163.133 162.954 162.393 162.236 166.902 166.276 
165.983 165.229 164.912 164.194 163.952 163.342 163.126 162.58 162.318 
167.809 167.279 167.047 166.377 166.052 165.341 165.009 164.337 163.99 
163.388 163.034 162.51 162.181 168.664 168.173 167.937 167.341 166.933 
166.314 165.873 165.279 164.839 164.221 163.788 163.203 162.871 162.373 
162.154 169.401 168.961 168.641 168.108 167.586 167.007 166.456 165.942 
165.499 164.991 164.607 164.022 163.707 163.141 162.952 162.463 162.347 
169.825 169.487 169.035 168.629 168.067 167.558 166.987 166.465 166.042 
165.59 165.317 164.843 164.604 164.053 163.844 163.31 163.158 162.684 
162.547 168.711 168.853 168.876 169.002 169.077 169.009 169.167 169.137 
169.107 169.552 169.319 169.363 169.278 169.292 169.151 168.889 170.033 
169.817 169.757 169.535 169.46 169.302 169.073 168.801 168.358 170.352 
170.226 170.2 169.948 169.817 169.551 169.301 168.981 168.549 168.199 
167.745 170.702 170.579 170.603 170.351 170.224 169.942 169.701 169.324 
168.904 168.448 167.979 167.625 167.249 170.993 170.964 170.953 170.716 
170.492 170.252 169.973 169.703 169.29 168.868 168.368 167.935 167.526 
167.193 166.839 170.91 171.087 171.014 170.911 170.553 170.372 170.007 
169.847 169.442 169.154 168.623 168.26 167.78 167.479 167.102 166.794 
166.399 170.48 170.777 170.66 170.72 170.329 170.266 169.916 169.838 
169.529 169.292 168.805 168.423 167.876 167.596 167.174 166.981 166.593 
166.319 165.887 
POINT_DATA 1002
SCALARS Distance double
LOOKUP_TABLE default
155.037 155.235 155.068 154.889 154.88 154.919 154.6 154.534 154.642 
154.598 154.135 154.156 154.215 154.274 154.295 153.709 153.876 153.769 
153.92 154.003 154.249 153.47 153.726 153.514 153.674 153.645 153.746 
154.057 153.49 153.831 153.444 153.584 153.433 153.236 153.407 153.572 
153.771 154.164 153.537 153.523 153.376 153.064 153.031 153.204 153.181 
154.068 154.466 153.713 153.491 153.296 153.059 152.952 153.036 153.074 
152.956 154.19 154.616 153.793 153.485 153.209 152.968 152.845 152.85 
152.873 152.818 152.723 155.519 155.21 155.804 155.106 155.792 154.766 
154.605 155.668 154.162 154.282 154.362 155.983 153.378 153.576 154.049 
155.085 156.85 153.574 153.17 153.707 153.998 156.439 157.948 154.984 
154.047 153.847 154.011 154.004 157.76 159.023 156.564 155.64 154.877 
154.331 154.177 154.206 158.877 159.979 157.759 156.905 156.127 155.155 
154.479 154.43 154.555 159.859 160.806 158.766 157.833 157.132 156.229 
155.2 154.726 154.803 154.849 161.065 160.058 161.306 160.295 161.532 
158.969 160.651 161.834 159.352 158.152 161.037 162.075 159.854 158.656 
157.417 161.143 162.016 160.097 159.042 157.769 156.337 161.043 161.879 
160.031 159.073 158.002 156.632 155.416 161.14 161.993 160.117 159.136 
158.188 157.034 155.901 155.169 161.433 162.244 160.467 159.49 158.539 
157.473 156.412 155.64 155.174 161.658 162.395 160.778 159.851 158.905 
157.842 156.777 155.954 155.382 154.953 154.37 154.768 154.009 155.309 
154.464 153.651 155.972 155.08 154.125 153.429 156.895 155.852 154.815 
153.948 153.495 158.071 156.955 155.814 154.791 154.139 153.786 159.196 
158.248 157.151 156.022 155.091 154.531 154.073 160.191 159.419 158.512 
157.455 156.343 155.484 154.895 154.381 161.142 160.478 159.72 158.813 
157.723 156.69 155.917 155.323 154.858 161.987 161.451 160.82 160.04 
159.061 158.034 157.168 156.477 155.901 155.471 153.857 153.469 153.477 
153.173 153.137 153.176 153.078 152.867 152.812 152.851 153.171 152.68 
152.419 152.411 152.609 153.318 152.578 152.095 151.997 152.191 152.539 
153.576 152.731 152.071 151.851 151.967 152.206 152.54 154.094 153.309 
152.538 152.041 151.972 152.084 152.234 152.511 154.775 154.12 153.359 
152.528 152.009 151.951 152.05 152.191 152.453 155.708 155.052 155.984 
155.236 156.221 154.354 155.277 156.475 154.299 153.353 155.488 156.852 
154.197 153.046 152.265 156.008 157.379 154.57 153.133 152.041 151.759 
156.684 158.03 155.256 153.869 152.571 151.83 151.834 157.437 158.667 
155.99 154.659 153.506 152.497 151.995 152.007 158.145 159.153 156.819 
155.429 154.301 153.307 152.491 152.159 152.227 158.688 159.537 157.609 
156.328 155.147 154.134 153.207 152.603 152.442 152.534 156.43 156.722 
157.557 157.935 158.702 157.095 159.188 159.865 158.451 157.496 160.49 
161.257 159.792 158.913 157.846 161.957 162.818 161.108 160.196 159.183 
158.204 163.411 164.222 162.472 161.464 160.457 159.533 158.73 164.654 
165.368 163.768 162.777 161.799 160.919 160.097 159.338 165.666 166.275 
164.922 164.034 163.077 162.216 161.424 160.589 159.804 166.387 166.888 
165.827 165.135 164.227 163.274 162.491 161.75 160.931 160.162 162.846 
162.433 163.332 162.952 163.948 161.935 163.561 164.656 162.451 161.278 
164.135 165.258 162.952 161.699 160.379 164.581 165.742 163.417 162.132 
160.748 159.363 165.072 166.292 163.898 162.625 161.196 159.798 158.448 
165.684 166.8 164.48 163.173 161.672 160.229 158.95 157.679 166.145 
166.994 165.044 163.755 162.216 160.656 159.368 158.201 156.998 163.005 
163.558 163.664 164.35 164.411 164.153 165.11 165.112 164.99 164.864 
165.726 165.716 165.671 165.653 165.633 166.394 166.484 166.311 166.225 
166.375 166.309 167.216 167.498 167.093 166.853 166.85 167.099 166.921 
167.988 168.514 167.775 167.612 167.363 167.473 167.688 167.427 168.742 
169.413 168.289 168.259 168.101 167.812 167.842 167.905 167.591 169.619 