# vtk DataFile Version 4.0
vtk output
ASCII
DATASET POLYDATA
POINTS 1002 float
-78.4717 -113.263 75.8146 -77.8127 -114.187 75.3723 -77.9235 -113.684 74.6452 
-78.5055 -112.555 75.1435 -78.2219 -113.118 73.9348 -79.0273 -112.1 76.3529 
-78.7641 -111.88 74.5023 -78.6787 -112.56 73.2338 -79.1691 -111.379 75.694 
-79.4065 -110.71 76.9884 -79.3455 -111.412 73.8197 -79.2508 -112.073 72.4864 
-79.6149 -110.799 75.0452 -79.878 -110.173 76.2878 -79.9778 -109.431 77.5979 
-80.1449 -111.054 73.0833 -79.9767 -111.596 71.7609 -80.3487 -110.362 74.3498 
-80.563 -109.65 75.5661 -80.7224 -108.965 76.8406 -80.9665 -108.363 78.0995 
-80.9757 -110.503 72.4508 -80.8065 -111.015 71.2583 -81.1623 -109.813 73.6858 
-81.2536 -108.956 74.8556 -81.3838 -108.213 76.0833 -81.5996 -107.592 77.3585 
-81.8482 -107.003 78.5782 -81.7435 -109.73 72.0248 -81.6432 -110.345 70.9986 
-81.934 -109.054 73.1541 -81.9406 -108.151 74.2447 -81.9469 -107.288 75.4072 
-82.1334 -106.637 76.678 -82.2632 -105.992 77.8943 -82.2695 -105.325 78.9972 
-82.5417 -108.997 71.7271 -82.5348 -109.704 70.8276 -82.6934 -108.293 72.7238 
-82.7322 -107.464 73.7278 -82.666 -106.577 74.8124 -82.8066 -105.876 76.0556 
-82.9536 -105.252 77.276 -82.8322 -104.555 78.3139 -82.6662 -103.938 79.243 
-83.4666 -108.455 71.5077 -83.505 -109.172 70.717 -83.5281 -107.698 72.3699 
-83.6179 -106.927 73.2947 -83.5941 -106.116 74.3018 -83.639 -105.374 75.4355 
-83.8076 -104.751 76.6204 -83.7684 -104.102 77.6719 -83.5134 -103.45 78.5519 
-83.3433 -102.976 79.3997 -84.4403 -108.056 71.3984 -84.4546 -108.749 70.7238 
-84.4345 -107.25 72.1245 -84.5251 -106.454 72.9669 -84.5953 -105.702 73.9252 
-84.5573 -104.945 74.9228 -84.5484 -104.237 75.9344 -84.5471 -103.599 76.9514 
-84.4026 -102.98 77.8902 -84.1942 -102.456 78.7383 -84.0759 -102.139 79.5987 
-77.3672 -114.865 74.4577 -77.7963 -114.562 73.5661 -77.3546 -115.738 73.4476 
-77.941 -115.51 72.3562 -77.3919 -116.452 72.4636 -78.2913 -114.09 72.7062 
-77.5769 -115.94 71.1866 -76.9722 -116.842 71.4614 -78.1386 -114.871 71.3575 
-78.62 -113.396 71.9069 -76.712 -115.974 70.0154 -76.5429 -117.297 70.3279 
-77.2109 -115.012 70.0425 -78.0669 -113.92 70.5026 -79.0279 -112.671 71.1339 
-76.4887 -116.402 68.8597 -76.7669 -117.97 69.3907 -76.4493 -115.105 68.7176 
-77.2278 -114.143 69.1139 -78.6237 -113.174 69.8209 -79.8744 -112.109 70.5351 
-77.1671 -117.271 68.1314 -77.4644 -118.577 68.978 -76.8551 -115.833 67.6075 
-77.1594 -114.623 67.8038 -78.4613 -113.721 68.6227 -79.9572 -112.78 69.5244 
-80.9397 -111.605 70.267 -78.116 -118.042 68.0043 -78.3375 -119.032 68.897 
-77.9074 -116.838 67.1793 -77.9741 -115.475 66.9856 -78.8356 -114.328 67.6427 
-80.2159 -113.417 68.6691 -81.2788 -112.32 69.4863 -81.9271 -110.979 70.1347 
-79.1324 -118.475 68.2409 -79.3505 -119.364 68.9562 -79.0052 -117.537 67.4135 
-79.0424 -116.328 66.9291 -79.5515 -114.976 67.1528 -80.5757 -113.846 67.9177 
-81.5869 -112.813 68.7029 -82.2836 -111.574 69.3243 -82.8771 -110.278 69.9844 
-80.1945 -118.613 68.6378 -80.3764 -119.522 69.1804 -80.1003 -117.812 67.9178 
-80.1349 -116.918 67.3015 -80.4474 -115.688 67.1192 -81.1348 -114.338 67.4 
-81.9434 -113.155 67.9036 -82.5962 -111.995 68.4606 -83.181 -110.767 69.1354 
-83.8255 -109.664 69.9461 -81.2614 -118.899 69.271 -81.204 -118.008 68.62 
-82.2628 -118.251 69.237 -82.4016 -117.576 68.3349 -83.5201 -117.938 68.8274 
-81.2654 -117.346 67.82 -83.9127 -117.522 67.7087 -85.0636 -117.901 68.3623 
-82.7078 -117.093 67.3673 -81.5015 -116.484 67.2316 -85.5639 -117.337 67.3846 
-86.4903 -117.54 68.3844 -84.4114 -116.815 66.8043 -83.1484 -116.01 66.8159 
-81.9992 -115.099 67.075 -86.779 -116.503 67.862 -87.4643 -116.589 68.8814 
-85.9529 -115.997 66.9797 -84.8572 -115.148 66.6577 -83.6817 -114.298 66.8352 
-82.6488 -113.596 67.2743 -87.5614 -115.298 68.7821 -88.3668 -115.401 69.4794 
-86.9139 -114.841 67.9908 -86.1896 -114.021 67.3841 -85.2382 -113.285 67.1469 
-84.1433 -112.734 67.2617 -83.1926 -112.278 67.7347 -88.6547 -114.111 69.5335 
-89.6695 -114.318 69.8696 -87.7816 -113.729 69.079 -87.1344 -113.058 68.5053 
-86.4703 -112.381 68.0362 -85.5339 -111.887 67.8542 -84.4778 -111.41 68.0023 
-83.6797 -111.002 68.4779 -90.2651 -113.025 69.8136 -91.2001 -113.425 69.9467 
-89.2045 -112.587 69.6848 -88.2954 -112.064 69.3458 -87.5926 -111.503 68.8674 
-86.8102 -111.017 68.606 -85.8182 -110.558 68.6892 -84.9172 -110.12 68.9957 
-84.3034 -109.831 69.4372 -91.8505 -112.069 69.7615 -92.5036 -112.66 69.9101 
-90.9301 -111.444 69.7728 -89.892 -110.877 69.7305 -88.9477 -110.373 69.4574 
-88.095 -109.914 69.1835 -87.1772 -109.517 69.2481 -86.2645 -109.206 69.5965 
-85.5505 -109.004 69.9932 -84.9947 -108.878 70.3596 -85.4137 -107.921 71.196 
-86.0803 -107.999 70.8886 -86.4245 -106.859 71.5875 -86.7711 -107.993 70.4921 
-87.2406 -106.839 71.2279 -87.4435 -105.539 71.8905 -87.5738 -108 70.0107 
-88.051 -106.694 70.7429 -88.3584 -105.439 71.4541 -88.3833 -104.155 72.177 
-88.5183 -108.189 69.6861 -88.8888 -106.591 70.2846 -89.1899 -105.275 70.9332 
-89.3151 -104.044 71.7194 -89.231 -102.844 72.428 -89.5607 -108.606 69.7014 
-89.9328 -106.797 70.0828 -90.0914 -105.211 70.5029 -90.1796 -103.919 71.1518 
-90.1912 -102.754 71.9599 -90.0685 -101.608 72.6329 -90.6798 -109.143 69.8052 
-91.2156 -107.324 70.0022 -91.3733 -105.492 70.2372 -91.3076 -103.871 70.6224 
-91.2237 -102.649 71.3385 -91.0842 -101.574 72.1406 -90.8792 -100.544 72.9043 
-91.7638 -109.785 69.7386 -92.4131 -108.02 69.8268 -92.7415 -106.145 70.0355 
-92.7309 -104.201 70.3289 -92.5579 -102.642 70.8445 -92.3065 -101.575 71.5807 
-91.9573 -100.62 72.4175 -91.6742 -99.755 73.3397 -92.6262 -110.579 69.6748 
-93.2274 -108.866 69.7496 -93.6369 -107.04 70.0174 -93.8137 -105.048 70.3826 
-93.7931 -103.135 70.7973 -93.6557 -101.765 71.305 -93.3102 -100.829 71.9971 
-92.8323 -99.9858 72.9198 -92.5233 -99.2483 73.9317 -93.1985 -111.406 69.8444 
-93.6971 -109.808 69.9903 -94.0626 -108.032 70.3348 -94.3348 -106.173 70.7489 
-94.4902 -104.224 71.1287 -94.605 -102.466 71.4579 -94.5879 -101.228 71.8786 
-94.2205 -100.387 72.6099 -93.6827 -99.671 73.608 -93.3298 -99.0191 74.5932 
-85.398 -107.061 71.8186 -86.3931 -105.817 72.2175 -85.424 -106.118 72.5681 
-87.354 -104.442 72.5783 -86.4415 -104.845 73.0499 -85.5612 -105.293 73.5201 
-88.2075 -103.076 72.8388 -87.3162 -103.528 73.4052 -86.53 -104.043 74.0456 
-85.5717 -104.509 74.5262 -89.058 -101.708 73.0531 -88.0732 -102.1 73.6187 
-87.2615 -102.645 74.3564 -86.3456 -103.131 74.9723 -85.3497 -103.644 75.4252 
-89.964 -100.499 73.4039 -88.9469 -100.703 73.9853 -87.9989 -101.128 74.6896 
-87.0159 -101.616 75.3143 -85.9344 -102.145 75.7928 -85.1275 -102.849 76.3317 
-90.8525 -99.6298 73.911 -89.9023 -99.7202 74.5474 -88.8796 -99.9295 75.2229 
-87.8685 -100.275 75.785 -86.6967 -100.762 76.2186 -85.6378 -101.392 76.7226 
-84.9905 -102.199 77.3329 -91.7785 -99.0011 74.4852 -90.882 -99.0378 75.0929 
-89.7527 -99.1558 75.7346 -88.6961 -99.3204 76.2833 -87.6618 -99.7095 76.7178 
-86.4682 -100.235 77.2078 -85.4966 -100.868 77.7901 -84.858 -101.674 78.3203 
-92.707 -98.562 75.0854 -91.9228 -98.3923 75.6042 -90.7072 -98.4126 76.1873 
-89.4127 -98.4828 76.7621 -88.4347 -98.7933 77.2551 -87.4326 -99.3479 77.7592 
-86.277 -99.8929 78.3317 -85.3749 -100.524 78.8604 -84.735 -101.345 79.2661 
-93.6235 -98.6155 75.5829 -93.0643 -98.0266 76.0651 -93.7486 -98.3301 76.6316 
-93.0917 -97.6594 77.2068 -93.5989 -98.3663 77.855 -92.0357 -97.7161 76.6428 
-92.7356 -97.8651 78.5566 -93.365 -98.819 79.2333 -91.7902 -97.2564 77.9848 
-90.4766 -97.6153 77.3334 -92.3812 -98.6119 79.8559 -93.3099 -99.3426 80.6034 
-91.3981 -97.5958 79.406 -90.1981 -97.1908 78.8365 -89.1495 -97.8135 77.9885 
-92.3097 -99.2419 81.1456 -93.3744 -99.676 82.0152 -91.1875 -98.4971 80.5468 
-90.0786 -97.6894 80.2187 -89.0486 -97.6872 79.5385 -88.212 -98.468 78.5539 
-92.3495 -99.6288 82.6915 -93.3384 -100.13 83.3904 -91.1477 -99.201 81.8418 
-90.0142 -98.6259 81.3131 -88.9886 -98.3007 80.8925 -87.9884 -98.5923 80.0795 
-87.0704 -99.2099 79.1084 -92.2633 -100.274 84.0387 -93.1306 -100.934 84.3998 
-91.1088 -99.7881 83.3904 -89.896 -99.3814 82.6477 -88.8001 -99.1014 82.0743 
-87.6979 -99.1195 81.4445 -86.6596 -99.3856 80.5591 -85.8923 -99.8367 79.636 
-91.9992 -101.241 84.8182 -92.8002 -101.871 85.1069 -90.9653 -100.665 84.4735 
-89.7736 -100.164 83.9591 -88.6098 -99.8155 83.3247 -87.4653 -99.7249 82.6838 
-86.3656 -99.8375 81.9376 -85.5659 -100.108 81.017 -85.0871 -100.614 80.0696 
-91.6384 -102.18 85.4347 -92.4299 -102.699 85.8249 -90.698 -101.669 85.1019 
-89.6176 -101.158 84.7853 -88.4956 -100.693 84.3232 -87.3836 -100.415 83.7503 
-86.2896 -100.4 83.1536 -85.4125 -100.599 82.3976 -84.8661 -100.98 81.4171 
-84.4653 -101.516 80.4138 -94.2367 -99.427 74.7179 -94.3123 -99.1993 75.8396 
-95.2326 -99.9328 74.89 -95.1831 -99.8184 76.1898 -96.1794 -100.398 75.1876 
-94.2667 -99.0705 77.0686 -96.2115 -100.32 76.7202 -96.7413 -101.168 75.7221 
-95.21 -99.6954 77.7125 -94.2193 -99.1514 78.522 -96.8158 -101.218 77.4124 
-96.7682 -102.604 76.4402 -96.3809 -100.267 78.5027 -95.3866 -99.7311 79.4172 
-94.2803 -99.4683 80.0796 -96.786 -102.814 78.0756 -96.6672 -104.364 77.1268 
-96.859 -101.427 79.1902 -96.4483 -100.542 80.2125 -95.4515 -100.102 80.9628 
-94.3427 -99.853 81.5104 -96.7405 -104.636 78.6185 -96.7746 -105.996 77.6905 
-96.7084 -103.187 79.6936 -96.6777 -101.986 80.7386 -96.2069 -101.212 81.5843 
-95.248 -100.711 82.2238 -94.2552 -100.336 82.8136 -96.8842 -106.333 79.1216 
-96.8738 -107.511 78.2063 -96.7011 -105.034 80.1722 -96.6258 -103.749 81.2337 
-96.5069 -102.698 82.151 -95.8743 -101.961 82.8184 -94.9275 -101.439 83.3602 
-94.0288 -101.076 83.9286 -96.8851 -107.908 79.602 -96.809 -108.98 78.7105 
-96.7874 -106.766 80.6396 -96.7327 -105.55 81.7555 -96.7587 -104.349 82.7826 
-96.3719 -103.348 83.5019 -95.4973 -102.67 83.9297 -94.5764 -102.231 84.3573 
-93.718 -101.962 84.8156 -96.7525 -109.351 79.9975 -96.7442 -110.349 79.1606 
-96.6999 -108.333 80.9744 -96.7252 -107.278 82.089 -96.8515 -106.144 83.1914 
[...]
CELL_DATA 2000
SCALARS Distance double
LOOKUP_TABLE default
156.136 155.446 155.822 155.9 154.857 155.129 155.153 155.547 155.558 
154.429 154.618 154.643 154.905 154.977 155.235 155.225 154.124 154.294 
154.367 154.527 154.598 154.785 154.836 155.016 155.08 153.862 154.04 
154.122 154.279 154.257 154.416 154.371 154.604 154.599 154.894 154.925 
153.621 153.766 153.793 153.971 153.87 153.999 153.823 154.037 153.951 
154.28 154.223 154.574 154.449 153.47 153.52 153.49 153.618 153.531 
153.605 153.423 153.513 153.435 153.659 153.68 153.914 153.838 154.022 
153.858 153.485 153.427 153.372 153.385 153.341 153.358 153.266 153.257 
153.215 153.303 153.388 153.54 153.579 153.643 153.552 153.583 153.506 
153.656 153.529 153.465 153.367 153.323 153.284 153.263 153.229 153.207 
153.202 153.213 153.311 153.325 153.441 153.364 153.411 153.302 153.365 
153.355 156.125 156.146 155.928 155.563 156.297 156.07 155.708 155.418 
155.028 156.068 156.036 155.602 155.499 155.027 154.846 154.485 155.505 
155.467 154.84 155.006 154.487 154.611 154.189 154.246 154.02 155.341 
154.927 154.126 154.076 153.573 153.818 153.569 153.818 153.689 153.835 
153.761 155.835 155.113 154.332 153.758 153.271 153.135 153.115 153.305 
153.495 153.631 153.717 153.702 153.658 156.619 155.873 155.25 154.43 
153.95 153.363 153.327 153.214 153.564 153.655 153.928 153.854 153.855 
153.674 153.587 157.436 156.762 156.285 155.519 155.091 154.342 154.152 
153.724 153.901 153.853 154.114 154.097 154.11 153.942 153.81 153.636 
153.577 158.208 157.603 157.192 156.548 156.194 155.504 155.247 154.645 
154.579 154.264 154.342 154.239 154.224 154.112 153.966 153.833 153.747 
153.666 153.701 158.459 158.49 158.141 157.48 158.634 158.223 157.624 
157.23 156.588 159.07 158.522 157.965 157.478 156.896 156.4 155.749 
159.635 159.078 158.477 157.912 157.28 156.75 156.094 155.589 155.021 
159.901 159.53 158.861 158.364 157.602 157.083 156.343 155.884 155.272 
154.915 154.55 159.864 159.61 158.962 158.584 157.81 157.324 156.563 
156.1 155.474 155.104 154.657 154.461 154.237 159.892 159.582 159.018 
158.652 157.999 157.535 156.872 156.386 155.823 155.373 154.909 154.563 
154.241 154.111 153.953 160.101 159.729 159.207 158.807 158.229 157.787 
157.195 156.744 156.215 155.78 155.323 154.902 154.536 154.222 154.027 
153.888 153.815 160.32 159.968 159.43 159.041 158.457 158.045 157.446 
157.037 156.472 156.1 155.613 155.269 154.889 154.577 154.356 154.121 
154.047 153.881 153.848 153.919 154.162 154.067 154.05 154.424 154.304 
154.303 154.144 153.987 154.812 154.568 154.493 154.348 154.208 154.006 
153.759 155.43 155.01 154.811 154.538 154.361 154.176 153.966 153.751 
153.487 156.288 155.734 155.496 154.993 154.737 154.378 154.154 153.928 
153.714 153.489 153.236 157.282 156.689 156.5 155.861 155.581 154.96 
154.648 154.201 153.977 153.716 153.526 153.272 153.069 158.297 157.722 
157.562 156.933 156.685 155.971 155.614 154.911 154.602 154.114 153.951 
153.624 153.492 153.191 153.1 159.29 158.742 158.588 157.983 157.764 
157.096 156.784 156.017 155.67 154.958 154.754 154.235 154.166 153.749 
153.718 153.37 153.426 160.218 159.726 159.594 159.004 158.8 158.164 
157.922 157.211 156.919 156.145 155.897 155.218 155.127 154.593 154.61 
154.151 154.228 153.851 154.01 153.785 153.85 153.733 153.541 153.748 
153.704 153.501 153.455 153.335 153.518 153.525 153.361 153.381 153.312 
153.312 153.279 153.233 153.256 153.106 153.204 153.191 153.28 153.278 
153.277 153.238 152.957 152.955 152.756 152.884 152.85 153.06 153.04 
153.169 153.083 153.153 153.133 152.813 152.736 152.535 152.556 152.487 
152.653 152.619 152.796 152.67 152.828 152.762 152.997 153.091 152.904 
152.738 152.631 152.504 152.463 152.425 152.417 152.445 152.369 152.416 
152.341 152.528 152.621 152.949 153.105 153.253 153 152.971 152.767 
152.745 152.568 152.532 152.419 152.385 152.306 152.269 152.256 152.318 
152.496 152.683 152.965 153.113 153.814 153.483 153.451 153.192 153.132 
152.89 152.758 152.578 152.498 152.418 152.429 152.359 152.409 152.381 
152.52 152.644 152.859 153.046 153.224 154.165 154.551 154.14 153.757 
154.982 154.509 154.04 153.698 153.333 155.637 155.002 154.431 153.942 
153.436 153.168 152.836 156.55 155.783 155.168 154.452 153.859 153.332 
152.934 152.706 152.548 157.541 156.756 156.155 155.335 154.755 153.996 
153.582 153.046 152.886 152.615 152.576 158.544 157.772 157.21 156.379 
155.834 155.031 154.625 153.936 153.702 153.186 153.06 152.72 152.623 
159.525 158.805 158.303 157.482 156.951 156.136 155.707 155 154.687 
154.078 153.811 153.307 153.104 152.759 152.684 160.373 159.749 159.292 
158.567 158.056 157.262 156.783 156.043 155.664 155.015 154.691 154.096 
153.836 153.347 153.236 152.918 152.969 161.096 160.531 160.089 159.474 
159.001 158.307 157.822 157.091 156.66 155.973 155.636 155.003 154.761 
154.188 154.068 153.604 153.604 153.287 153.355 154.596 155.524 155.032 
155.012 156.559 156.033 156.008 155.479 155.49 157.657 157.132 157.195 
156.597 156.646 156.068 156.195 158.866 158.315 158.5 157.906 158.058 
157.395 157.555 156.932 157.142 160.195 159.6 159.813 159.265 159.508 
158.896 159.085 158.407 158.577 157.935 158.129 161.591 160.972 161.143 
160.578 160.818 160.296 160.519 159.919 160.055 159.39 159.518 158.899 
159.084 162.958 162.377 162.554 161.939 162.155 161.598 161.862 161.305 
161.491 160.839 160.937 160.28 160.41 159.833 160.014 164.195 163.7 
163.912 163.348 163.58 163.001 163.299 162.717 162.963 162.294 162.392 
161.686 161.753 161.134 161.261 160.718 160.853 165.296 164.859 165.06 
164.608 164.845 164.38 164.681 164.178 164.414 163.782 163.817 163.097 
163.05 162.412 162.455 161.922 162.029 161.503 161.588 160.684 161.203 
160.675 160.077 161.712 161.16 160.514 159.959 159.272 162.244 161.64 
160.945 160.372 159.655 159.11 158.396 162.865 162.18 161.434 160.804 
160.079 159.504 158.769 158.206 157.439 163.515 162.816 162.037 161.34 
160.594 159.963 159.216 158.598 157.8 157.204 156.436 163.996 163.391 
162.599 161.943 161.169 160.515 159.736 159.068 158.243 157.594 156.824 
156.261 155.631 164.339 163.786 163.02 162.437 161.679 161.066 160.28 
159.604 158.771 158.078 157.325 156.72 156.132 155.605 155.117 164.752 
164.174 163.485 162.883 162.194 161.572 160.844 160.166 159.387 158.669 
157.959 157.309 156.77 156.197 155.747 155.193 154.764 165.235 164.679 
164.076 163.46 162.838 162.173 161.508 160.801 160.106 159.371 158.725 
158.031 157.515 156.904 156.473 155.889 155.465 154.894 154.517 161.07 
161.743 161.498 161.639 162.43 162.184 162.407 162.107 162.222 163.244 
162.94 163.202 162.915 163.149 162.756 162.849 164.153 163.817 164.085 
163.775 164.049 163.71 163.923 163.455 163.535 165.068 164.727 164.966 
164.659 164.883 164.584 164.807 164.484 164.669 164.187 164.216 165.972 
165.618 165.8 165.488 165.655 165.357 165.535 165.284 165.527 165.235 
165.379 164.842 164.746 166.818 166.483 166.633 166.304 166.454 166.117 
166.273 165.989 166.256 166.045 166.325 165.952 165.982 165.313 165.116 
167.568 167.276 167.441 167.133 167.298 166.948 167.079 166.742 166.951 
166.749 167.076 166.863 167.051 166.544 166.447 165.688 165.489 168.286 
168.008 168.193 167.919 168.109 167.796 167.908 167.541 167.618 167.365 
167.578 167.489 167.746 167.521 167.559 166.993 166.82 166.075 165.895 
168.764 169.447 168.963 168.67 169.985 169.624 169.357 168.886 168.6 
170.218 170.096 169.947 169.569 169.264 168.765 168.386 170.098 170.223 
170.24 170.085 169.799 169.356 168.876 168.405 168.004 169.814 170.009 
170.081 170.186 169.953 169.721 169.187 168.786 168.345 168.034 167.86 
169.7 169.757 169.761 169.89 169.691 169.649 169.178 168.949 168.536 
168.333 168.212 168.05 168.024 169.723 169.714 169.669 169.66 169.484 
169.387 169.027 168.861 168.549 168.454 168.372 168.333 168.302 168.154 
167.914 169.544 169.646 169.585 169.618 169.47 169.345 169.046 168.825 
168.55 168.441 168.342 168.368 168.289 168.261 167.967 167.768 167.24 
169.136 169.311 169.211 169.385 169.238 169.291 169.018 168.898 168.584 
168.457 168.257 168.251 168.092 168.103 167.788 167.68 167.17 166.929 
166.328 168.875 168.488 168.729 168.891 168.138 168.316 168.387 168.721 
168.895 167.825 167.994 167.991 168.206 168.305 168.661 168.731 167.312 
167.659 167.687 167.85 167.836 168.076 168.127 168.426 168.399 166.385 
166.966 167.037 167.412 167.341 167.603 167.578 167.862 167.886 168.124 
168.109 165.27 165.876 165.882 166.463 166.393 166.896 166.877 167.296 
167.327 167.633 167.627 167.866 167.855 164.235 164.747 164.669 165.199 
165.13 165.744 165.83 166.46 166.591 167.038 167.015 167.299 167.182 
167.5 167.422 163.218 163.715 163.628 164.07 164 164.53 164.663 
165.35 165.589 166.2 166.224 166.592 166.386 166.693 166.487 166.898 
166.754 162.168 162.677 162.624 163.076 163.014 163.495 163.573 164.211 
164.409 165.1 165.141 165.655 165.431 165.795 165.51 165.895 165.681 
166.129 165.945 168.78 168.585 168.636 168.489 168.293 168.467 168.409 
168.38 168.2 167.808 168.105 168.101 168.232 168.028 168.026 167.795 
167.23 167.532 167.474 167.748 167.505 167.656 167.291 167.432 167.116 
166.537 166.838 166.631 166.965 166.688 166.955 166.537 166.723 166.282 
166.533 166.15 165.602 165.952 165.586 165.963 165.617 166.008 165.619 
165.883 165.411 165.625 165.213 165.487 165.117 164.548 164.889 164.461 
164.808 164.388 164.818 164.431 164.841 164.396 164.703 164.264 164.56 
164.21 164.494 164.135 163.567 163.854 163.446 163.712 163.278 163.606 
163.196 163.589 163.17 163.566 163.145 163.535 163.165 163.544 163.192 
163.501 163.103 162.691 162.939 162.545 162.765 162.338 162.584 162.177 
162.461 162.07 162.385 162.018 162.382 162.049 162.442 162.104 162.476 
162.103 162.422 162.027 168.961 169.078 168.885 168.652 169.128 168.922 
168.542 168.465 168.224 169.081 168.92 168.46 168.288 167.916 167.929 
167.702 168.866 168.837 168.481 168.266 167.842 167.664 167.389 167.414 
167.219 168.45 168.557 168.354 168.306 167.953 167.703 167.317 167.182 
166.95 166.963 166.672 167.922 168.061 167.835 168.02 167.742 167.722 
167.251 167.096 166.658 166.648 166.304 166.315 165.83 167.372 167.477 
167.109 167.327 167.013 167.243 166.812 166.84 166.274 166.247 165.754 
165.821 165.357 165.355 164.787 166.768 166.883 166.45 166.57 166.176 
166.401 166.043 166.225 165.758 165.778 165.243 165.246 164.765 164.811 
164.331 164.31 163.784 166.08 166.242 165.848 165.941 165.534 165.649 
165.306 165.476 165.133 165.233 164.79 164.779 164.289 164.273 163.809 
163.823 163.368 163.351 162.886 165.548 164.669 165.208 165.345 163.717 
164.307 164.487 164.986 165.081 162.628 163.301 163.503 164.098 164.238 
164.722 164.831 161.396 162.128 162.315 163.018 163.176 163.801 163.936 
164.482 164.614 160.151 160.872 161.061 161.772 161.942 162.643 162.815 
163.482 163.635 164.22 164.296 159.01 159.684 159.911 160.568 160.76 
161.425 161.626 162.314 162.498 163.151 163.247 163.807 163.811 158.051 
158.642 158.904 159.498 159.696 160.302 160.49 161.149 161.319 161.979 
162.067 162.682 162.705 163.273 163.289 157.337 157.818 158.103 158.598 
158.786 159.29 159.428 160.022 160.158 160.796 160.869 161.481 161.514 
162.123 162.181 162.777 162.844 156.792 157.206 157.489 157.906 158.07 
158.456 158.529 158.997 159.097 159.664 159.765 160.333 160.409 160.978 
161.085 161.679 161.797 162.365 162.426 156.587 156.39 156.763 157.251 
155.937 156.416 156.866 157.328 157.731 155.443 155.832 156.192 156.747 
157.169 157.69 158.102 155.312 155.467 155.779 156.116 156.593 157.091 
157.628 158.118 158.644 155.294 155.495 155.867 155.997 156.475 156.735 
157.346 157.742 158.354 158.768 159.321 154.804 155.298 155.718 156.087 
156.508 156.767 157.27 157.59 158.189 158.557 159.128 159.479 159.999 
154.061 154.581 154.943 155.586 155.976 156.528 156.913 157.397 157.898 
158.37 158.943 159.333 159.871 160.186 160.703 153.642 153.923 154.227 
154.728 155.134 155.739 156.156 156.778 157.267 157.904 158.48 159.048 
159.604 160.038 160.545 160.896 161.396 153.549 153.696 154.011 154.262 
154.693 155.063 155.551 156.039 156.591 157.197 157.803 158.449 159.018 
159.605 160.105 160.612 161.084 161.518 161.979 162.124 161.161 161.739 
161.913 160.101 160.684 160.811 161.463 161.667 158.994 159.577 159.674 
160.325 160.558 161.248 161.512 157.834 158.457 158.596 159.23 159.504 
160.181 160.509 161.149 161.424 156.665 157.302 157.509 158.179 158.492 
159.182 159.553 160.203 160.515 161.095 161.374 155.656 156.218 156.444 
157.098 157.399 158.123 158.471 159.212 159.537 160.191 160.462 161.066 
161.378 154.85 155.326 155.537 156.094 156.332 156.984 157.253 158.017 
158.325 159.104 159.392 160.096 160.376 161.054 161.388 154.165 154.573 
154.734 155.222 155.384 155.938 156.126 156.79 157.063 157.835 158.168 
158.945 159.269 159.996 160.318 161.033 161.376 153.605 153.905 153.972 
154.392 154.488 154.992 155.144 155.725 155.974 156.649 156.998 157.746 
158.14 158.885 159.261 159.967 160.323 161.016 161.348 158.758 158.009 
158.726 159.441 157.27 157.987 158.734 159.471 160.269 156.647 157.336 
158.123 158.804 159.607 160.334 161.124 156.27 156.854 157.729 158.308 
159.082 159.7 160.472 161.169 161.928 156.304 156.655 157.529 158.019 
158.803 159.286 160.008 160.576 161.375 162.03 162.843 156.556 156.753 
157.404 157.828 158.558 159.042 159.748 160.231 160.998 161.574 162.432 
163.046 163.834 156.592 156.819 157.215 157.602 158.182 158.713 159.405 
159.955 160.691 161.251 162.035 162.639 163.389 163.97 164.573 156.455 
156.676 157.017 157.329 157.839 158.304 158.98 159.549 160.295 160.887 
161.627 162.214 162.896 163.466 164.048 164.575 165.048 156.507 156.619 
157.035 157.213 157.747 158.061 158.732 159.185 159.93 160.471 161.216 
161.779 162.46 162.989 163.574 164.063 164.567 165.026 165.468 159.364 
160.083 159.974 160.497 160.913 160.758 161.264 161.113 161.607 161.767 
161.621 162.112 161.91 162.375 162.223 162.74 162.557 162.441 162.952 
162.77 163.261 163.068 163.631 163.455 164.025 163.436 163.252 163.781 
163.598 164.152 163.998 164.652 164.477 165.116 164.839 165.35 164.396 
164.2 164.737 164.502 165.083 164.917 165.618 165.507 166.189 165.972 
166.464 166.118 166.469 165.109 165.067 165.604 165.47 166.043 165.892 
166.552 166.444 167.092 166.947 167.423 167.156 167.457 167.116 167.345 
165.55 165.612 166.135 166.17 166.726 166.734 167.338 167.307 167.883 
167.775 168.243 168.036 168.375 168.064 168.29 167.912 168.05 165.941 
166.001 166.512 166.585 167.119 167.226 167.805 167.91 168.464 168.468 
168.936 168.818 169.212 168.976 169.262 168.887 169.023 168.563 168.591 
159.157 160.264 159.535 159.184 161.42 160.693 160.361 159.582 159.298 
162.601 161.897 161.672 160.862 160.587 159.802 159.687 163.818 163.109 
162.949 162.216 162.007 161.188 161.002 160.285 160.226 165.033 164.316 
164.102 163.444 163.263 162.558 162.327 161.589 161.361 160.714 160.494 
166.148 165.48 165.208 164.548 164.309 163.682 163.423 162.772 162.443 
161.77 161.408 160.779 160.44 167.046 166.497 166.227 165.607 165.292 
164.655 164.317 163.712 163.35 162.732 162.326 161.676 161.297 160.69 
160.424 167.7 167.264 166.979 166.493 166.139 165.559 165.139 164.534 
164.12 163.541 163.145 162.549 162.178 161.577 161.308 160.761 160.601 
168.175 167.798 167.469 167.086 166.727 166.268 165.847 165.298 164.873 
164.3 163.92 163.344 163.003 162.434 162.165 161.64 161.464 160.972 
160.824 169.183 169.592 169.406 169.377 169.79 169.76 169.803 169.607 
169.514 169.746 169.825 169.942 169.95 169.923 169.683 169.459 169.767 
169.755 169.884 169.991 170.075 169.999 169.801 169.5 169.152 170.02 
169.884 169.978 169.989 170.162 170.141 170.077 169.813 169.463 169.103 
168.709 170.271 170.199 170.3 170.215 170.367 170.303 170.316 170.111 
169.83 169.447 169.02 168.643 168.244 170.192 170.356 170.5 170.515 
170.567 170.504 170.412 170.288 169.981 169.729 169.252 168.926 168.449 
168.144 167.718 169.698 170.082 170.219 170.473 170.425 170.504 170.254 
170.225 169.828 169.708 169.183 168.979 168.421 168.216 167.718 167.524 
167.063 168.973 169.423 169.5 169.911 169.809 170.069 169.758 169.865 
169.437 169.43 168.924 168.798 168.233 168.059 167.525 167.387 166.909 
166.78 166.322 
POINT_DATA 1002
SCALARS Distance double
LOOKUP_TABLE default
156.271 156.399 155.742 155.456 155.144 155.976 154.793 154.639 155.213 
155.491 154.428 154.227 154.714 155.008 155.183 154.233 153.918 154.447 
154.64 154.865 155.198 153.975 153.699 154.164 154.168 154.313 154.624 
154.96 153.63 153.54 153.783 153.672 153.636 153.91 154.143 154.249 
153.397 153.478 153.449 153.367 153.238 153.439 153.697 153.681 153.649 
153.41 153.572 153.316 153.265 153.174 153.24 153.491 153.556 153.424 
153.449 153.609 153.793 153.382 153.276 153.254 153.198 153.208 153.281 
153.258 153.226 153.393 156.238 155.808 156.396 156.012 156.485 155.308 
155.614 156.11 155.182 154.597 154.682 155.727 154.227 154.058 153.92 
154.376 155.924 153.324 153.174 153.483 153.672 155.042 156.541 153.58 
152.914 153.265 153.745 153.74 156.037 157.279 154.672 153.602 153.472 
153.963 154.082 153.749 156.972 158.058 155.849 154.755 154.105 154.133 
154.252 154.001 153.686 157.781 158.787 156.825 155.911 155.079 154.56 
154.337 154.087 153.817 153.743 158.809 157.836 158.826 158.009 159.07 
157.031 158.491 159.655 157.398 156.262 159.093 160.161 157.852 156.596 
155.432 159.34 160.207 158.153 156.807 155.632 154.759 159.286 160.101 
158.265 157.02 155.869 154.927 154.291 159.362 160.217 158.411 157.327 
156.276 155.33 154.477 153.961 159.613 160.478 158.654 157.629 156.633 
155.741 154.904 154.235 153.892 159.819 160.668 158.864 157.86 156.855 
155.934 155.17 154.599 154.241 154.013 153.956 154.238 153.961 154.438 
154.238 153.768 154.675 154.374 154.017 153.497 155.194 154.573 154.143 
153.745 153.224 156.082 155.222 154.424 153.901 153.503 152.987 157.139 
156.287 155.24 154.286 153.751 153.331 152.894 158.176 157.381 156.394 
155.215 154.311 153.796 153.353 153.059 159.194 158.4 157.518 156.448 
155.353 154.602 154.103 153.701 153.521 160.17 159.424 158.58 157.673 
156.64 155.703 155.079 154.652 154.335 154.176 153.638 153.52 153.352 
153.294 153.276 153.314 152.983 153.047 153.257 153.269 152.664 152.626 
152.881 152.988 152.999 152.563 152.383 152.458 152.525 152.502 152.79 
152.763 152.571 152.441 152.36 152.227 152.299 152.781 153.184 152.971 
152.698 152.463 152.337 152.248 152.413 152.859 153.748 153.425 153.005 
152.577 152.458 152.496 152.487 152.665 153.058 154.574 154.1 154.981 
154.449 155.519 153.574 155.04 156.354 153.809 152.933 155.957 157.343 
154.512 153.263 152.614 156.97 158.313 155.54 154.217 153.269 152.779 
158.035 159.287 156.629 155.338 154.324 153.516 152.89 159.094 160.197 
157.785 156.444 155.342 154.399 153.523 152.905 159.959 160.966 158.825 
157.561 156.347 155.307 154.372 153.619 153.189 160.671 161.654 159.64 
158.54 157.37 156.268 155.335 154.579 154.01 153.617 155.042 155.484 
156.049 156.571 157.062 155.974 157.767 158.147 157.251 156.715 159.035 
159.421 158.704 158.223 157.731 160.351 160.818 160.06 159.764 159.27 
158.735 161.753 162.207 161.331 161.069 160.727 160.17 159.653 163.175 
163.498 162.74 162.399 162.123 161.625 161.019 160.561 164.431 164.662 
164.135 163.87 163.633 163.137 162.417 161.825 161.398 165.488 165.742 
165.264 165.142 165.035 164.579 163.739 162.996 162.544 162.146 161.217 
160.642 161.753 161.089 162.297 159.816 161.537 162.901 160.215 158.94 
162.105 163.593 160.666 159.362 158.008 162.755 164.201 161.255 159.865 
158.427 156.969 163.223 164.569 161.827 160.431 158.918 157.391 156.116 
163.573 164.881 162.269 160.948 159.47 157.931 156.659 155.623 164.074 
165.307 162.813 161.505 160.086 158.611 157.341 156.313 155.307 161.328 
161.951 161.953 162.653 162.688 162.621 163.482 163.565 163.477 163.354 
164.409 164.488 164.369 164.305 164.113 165.289 165.431 165.203 165.083 
165.038 164.858 166.137 166.352 165.977 165.791 165.736 165.813 165.472 
166.964 167.142 166.803 166.587 166.446 166.592 166.576 165.904 167.726 
167.841 167.636 167.459 167.197 167.214 167.426 167.158 166.285 168.458 