# vtk DataFile Version 4.0
vtk output
ASCII
DATASET POLYDATA
POINTS 1002 float
-77.4161 -112.718 71.6731 -76.7742 -113.514 71.5368 -76.7965 -113.076 70.5454 
-77.5068 -112.175 70.7133 -77.2192 -112.846 69.5466 -78.1648 -111.741 71.8643 
-77.9843 -111.737 69.7227 -77.9783 -112.705 68.5887 -78.3382 -111.008 70.9533 
-78.7971 -110.249 72.1448 -78.6529 -111.255 68.7407 -78.6405 -112.274 67.7253 
-78.8286 -110.335 69.9994 -79.1376 -109.481 71.3214 -79.3879 -108.498 72.5165 
-79.2513 -110.596 67.8953 -79.2431 -111.553 66.9606 -79.4535 -109.69 69.1016 
-79.7884 -108.886 70.4824 -80.0339 -107.96 71.7758 -80.2108 -106.983 72.9115 
-80.0738 -109.972 67.2325 -80.1284 -110.849 66.3275 -80.2126 -109.107 68.4195 
-80.5448 -108.329 69.734 -80.8437 -107.466 70.9683 -80.9859 -106.459 72.1297 
-81.0492 -105.511 73.1774 -81.1648 -109.428 66.7325 -81.1441 -110.186 65.8772 
-81.2856 -108.626 67.8951 -81.4384 -107.755 69.1405 -81.5587 -106.771 70.1823 
-81.6411 -105.702 71.2215 -81.6445 -104.675 72.313 -81.5717 -103.808 73.2713 
-82.1646 -108.807 66.3794 -82.1154 -109.502 65.5566 -82.3548 -108.068 67.4377 
-82.4861 -107.175 68.593 -82.3784 -106.054 69.515 -82.2348 -104.875 70.3614 
-82.215 -103.839 71.4302 -82.1689 -102.982 72.4787 -82.0669 -102.29 73.3571 
-83.1203 -108.186 66.1308 -83.1547 -108.878 65.3238 -83.2206 -107.413 67.0564 
-83.3971 -106.531 68.0486 -83.3623 -105.465 68.938 -83.1076 -104.287 69.701 
-82.9788 -103.261 70.6412 -82.9948 -102.469 71.7403 -82.9439 -101.813 72.6987 
-82.839 -101.26 73.5352 -84.1774 -107.67 65.9691 -84.2318 -108.339 65.2106 
-84.1154 -106.832 66.7575 -84.1545 -105.874 67.5375 -84.219 -104.878 68.36 
-84.1044 -103.827 69.1686 -83.9197 -102.818 69.9917 -83.8822 -102.026 70.972 
-83.8964 -101.421 71.9937 -83.8183 -100.893 72.8939 -83.6858 -100.439 73.7338 
-76.302 -114.238 70.7412 -76.4951 -113.906 69.6276 -76.056 -115.301 69.8187 
-76.3659 -114.928 68.5407 -75.8658 -116.364 68.8239 -77.1188 -113.826 68.5338 
-76.0522 -115.783 67.2858 -75.6471 -117.306 67.8218 -76.8592 -114.669 67.2508 
-77.8702 -113.69 67.5579 -75.6565 -116.718 66.0284 -75.6518 -118.463 66.9105 
-76.2158 -115.276 65.6806 -77.375 -114.296 66.1189 -78.4888 -113.142 66.7057 
-75.7292 -118.065 65.179 -76.0279 -119.658 66.294 -75.8212 -116.307 64.386 
-76.7644 -114.847 64.4881 -78.161 -113.709 65.2846 -79.2839 -112.36 65.9772 
-76.4562 -119.239 64.968 -76.742 -120.39 66.0824 -76.3162 -117.772 64.0177 
-76.8481 -115.979 63.6636 -78.0847 -114.388 64.0308 -79.3732 -113.033 64.8202 
-80.3354 -111.594 65.4569 -77.6514 -119.866 65.1532 -77.8137 -120.834 66.1287 
-77.5295 -118.832 64.3247 -77.7973 -117.279 63.8941 -78.6562 -115.409 63.7445 
-79.7401 -113.768 63.9973 -80.6457 -112.291 64.5781 -81.3893 -110.82 65.0914 
-79.0066 -120.269 65.445 -79.0858 -121.279 66.245 -78.9486 -119.339 64.7229 
-79.1084 -118.113 64.3262 -79.6859 -116.407 63.9965 -80.4913 -114.632 63.7212 
-81.2033 -113.033 63.8867 -81.8171 -111.49 64.3342 -82.4656 -110.058 64.7841 
-80.2119 -120.581 65.761 -80.2752 -121.614 66.3651 -80.194 -119.607 65.0981 
-80.3346 -118.553 64.5693 -80.7731 -117.173 64.0804 -81.4086 -115.55 63.5568 
-81.9796 -113.91 63.3946 -82.4483 -112.273 63.7069 -82.9663 -110.697 64.1334 
-83.5891 -109.37 64.599 -81.2929 -121.063 66.2373 -81.2535 -119.985 65.6804 
-82.3547 -120.309 66.2092 -82.4822 -119.263 65.5364 -83.7156 -119.595 66.0349 
-81.3905 -118.972 64.965 -84.0997 -118.629 65.1112 -85.2526 -118.904 65.6865 
-82.8838 -118.338 64.5553 -81.7843 -117.869 64.172 -85.6632 -117.864 64.7809 
-86.4674 -117.903 65.5964 -84.5711 -117.713 64.1064 -83.3836 -117.279 63.5619 
-82.3446 -116.485 63.3933 -86.7192 -116.648 65.0151 -87.3471 -116.604 65.9217 
-85.9312 -116.627 64.2268 -84.8494 -116.373 63.4961 -83.7809 -115.742 62.9877 
-82.8585 -114.819 63.0189 -87.6008 -115.194 65.544 -88.2957 -115.279 66.3142 
-86.958 -115.051 64.7906 -86.1108 -114.798 64.0579 -85.095 -114.407 63.3815 
-84.1486 -113.778 63.0951 -83.275 -112.982 63.282 -88.678 -113.798 65.9766 
-89.4476 -114.018 66.5635 -88.0039 -113.511 65.3158 -87.3686 -113.143 64.6222 
-86.5687 -112.774 63.9639 -85.5777 -112.342 63.5884 -84.5865 -111.748 63.5673 
-83.7158 -111.145 63.7628 -89.9196 -112.554 66.2597 -90.6978 -112.891 66.6811 
-89.1356 -112.193 65.7578 -88.5286 -111.815 65.1457 -88.0222 -111.452 64.4605 
-87.2241 -111.027 63.9892 -86.0928 -110.455 63.8967 -85.0524 -109.906 63.9946 
-84.2648 -109.562 64.2084 -91.1821 -111.51 66.3988 -91.883 -111.957 66.714 
-90.3451 -111.034 66.09 -89.5954 -110.582 65.7012 -89.1357 -110.206 65.1162 
-88.6503 -109.811 64.4877 -87.6693 -109.256 64.1837 -86.4646 -108.706 64.2422 
-85.5524 -108.428 64.4589 -84.8847 -108.373 64.7816 -85.2817 -107.391 65.655 
-85.9702 -107.3 65.2354 -86.3158 -106.219 66.0904 -86.711 -107.186 64.8201 
-87.088 -106.029 65.6604 -87.2916 -104.748 66.3543 -87.8127 -107.327 64.5078 
-88.0161 -105.789 65.1109 -88.2523 -104.597 65.9206 -88.2798 -103.151 66.5313 
-89.0406 -107.77 64.5788 -89.2404 -105.773 64.7266 -89.3699 -104.444 65.2809 
-89.3963 -103.175 66.1214 -89.3205 -101.64 66.7325 -89.7822 -108.263 65.1324 
-90.3014 -106.076 64.8984 -90.5376 -104.502 64.8296 -90.5257 -103.3 65.4834 
-90.4461 -101.726 66.3328 -90.3816 -100.199 66.853 -90.24 -108.768 65.7522 
-90.9564 -106.625 65.4792 -91.469 -104.879 64.9591 -91.6068 -103.637 65.0405 
-91.5615 -102.026 65.8297 -91.5307 -100.186 66.496 -91.4588 -98.8848 66.9262 
-90.9618 -109.404 66.0959 -91.6416 -107.418 65.9668 -92.2443 -105.541 65.519 
-92.5982 -104.133 65.1988 -92.7368 -102.548 65.575 -92.7458 -100.54 66.249 
-92.6579 -98.8863 66.7096 -92.4746 -97.9287 67.1889 -91.847 -110.107 66.2917 
-92.4801 -108.363 66.2299 -93.0226 -106.447 66.0937 -93.4493 -104.748 65.851 
-93.8126 -103.103 65.8356 -93.9955 -101.181 66.2266 -93.8558 -99.373 66.7048 
-93.5633 -98.1207 67.139 -93.2797 -97.3746 67.7401 -92.5772 -110.742 66.5453 
-93.1903 -109.247 66.4686 -93.6937 -107.464 66.5106 -94.1088 -105.609 66.5306 
-94.5472 -103.776 66.4576 -94.9454 -101.894 66.5192 -94.9653 -100.156 66.848 
-94.5873 -98.7775 67.297 -94.1719 -97.7511 67.8198 -93.8573 -97.0609 68.506 
-85.2082 -106.555 66.3801 -86.1692 -105.084 66.6164 -85.0391 -105.435 66.9882 
-87.069 -103.331 66.7233 -85.8967 -103.703 67.0394 -84.966 -104.279 67.6552 
-88.0813 -101.673 66.9434 -86.8021 -101.927 67.1967 -85.7566 -102.508 67.7781 
-84.9534 -103.237 68.5415 -89.2127 -100.279 67.2211 -87.9007 -100.458 67.5812 
-86.6503 -100.827 68.0686 -85.6545 -101.452 68.7516 -84.8167 -102.195 69.43 
-90.3053 -99.0025 67.3983 -89.008 -99.1937 67.9715 -87.6745 -99.3896 68.4589 
-86.3997 -99.7022 68.9481 -85.4048 -100.343 69.5827 -84.6631 -101.252 70.3006 
-91.3503 -97.9145 67.6436 -89.9814 -98.0016 68.3164 -88.6328 -98.1223 68.8884 
-87.3006 -98.2978 69.2886 -86.0212 -98.6386 69.7875 -85.1751 -99.455 70.5149 
-84.6199 -100.573 71.3234 -92.3282 -97.1964 68.1452 -90.9647 -97.1049 68.7771 
-89.5255 -97.0827 69.3732 -88.2772 -97.2857 69.8312 -86.9639 -97.5693 70.3436 
-85.7598 -97.9799 70.9881 -85.0816 -98.9078 71.6992 -84.5795 -100.072 72.3758 
-93.1027 -96.7938 68.8847 -91.9168 -96.5981 69.444 -90.4636 -96.383 69.9775 
-89.2227 -96.4615 70.4314 -88.0899 -96.8786 71.0239 -86.7462 -97.186 71.7301 
-85.6224 -97.5868 72.3255 -85.007 -98.5361 72.8392 -84.4602 -99.6572 73.3313 
-93.9174 -96.6354 69.6738 -92.9658 -96.3948 70.2123 -93.7452 -96.3587 71.1433 
-92.5421 -95.9533 71.7853 -93.3289 -96.1449 72.747 -91.6043 -96.0173 70.7657 
-92.0845 -95.3288 73.3757 -93.0323 -95.8316 74.243 -91.2115 -95.2124 72.2523 
-90.2406 -95.685 71.1673 -91.995 -94.9065 74.74 -93.0412 -95.6422 75.5858 
-91.0365 -94.4882 73.7298 -90.1284 -94.9559 72.5711 -89.1623 -96 71.6775 
-92.0522 -95.2283 76.0204 -92.953 -95.9086 76.975 -91.055 -94.7052 75.0747 
-90.0352 -94.8185 74.0527 -89.0036 -95.6719 73.1516 -87.8786 -96.5822 72.4654 
-91.7563 -95.9287 77.5265 -92.5401 -96.5096 78.4166 -90.7818 -95.627 76.5472 
-89.6655 -95.5497 75.5877 -88.5095 -95.7797 74.6645 -87.3884 -96.2747 73.881 
-86.374 -96.8432 73.1372 -91.2185 -96.5423 79.0472 -92.0303 -97.2336 79.6442 
-90.1771 -96.2574 78.2021 -89.0047 -96.2003 77.2834 -87.8136 -96.1102 76.3094 
-86.7218 -96.1508 75.2909 -85.8772 -96.5695 74.378 -85.3345 -97.4037 73.5669 
-90.7401 -97.2743 80.1639 -91.5416 -98.0608 80.5114 -89.6679 -96.7768 79.5687 
-88.4639 -96.5564 78.8014 -87.3125 -96.3728 77.935 -86.2712 -96.2937 76.8813 
-85.4648 -96.6302 75.7592 -84.9981 -97.4464 74.7971 -84.7306 -98.5413 74 
-90.321 -98.2285 80.8694 -91.0282 -98.9546 81.1099 -89.3582 -97.6511 80.4556 
-88.2156 -97.2749 79.8321 -87.1281 -96.9924 79.1212 -86.1594 -96.8577 78.2943 
-85.3132 -97.1097 77.2689 -84.7292 -97.7873 76.2133 -84.3818 -98.6897 75.2739 
-84.0639 -99.6105 74.4418 -94.583 -97.2605 68.9607 -94.7172 -96.7704 70.2368 
-95.5042 -97.7409 69.6132 -95.6906 -97.2136 70.9478 -96.4414 -98.5327 70.4203 
-94.6103 -96.534 71.7702 -96.4369 -98.0948 71.7431 -96.785 -99.7096 71.3174 
-95.5436 -96.9493 72.5076 -94.308 -96.4729 73.4142 -96.4095 -99.5022 72.6025 
-96.4652 -101.269 72.2645 -96.0481 -97.8013 73.3809 -95.3141 -96.8555 74.2897 
-94.1786 -96.3277 75.034 -96.0412 -101.22 73.5616 -96.1811 -102.784 73.2108 
-95.9623 -99.2738 74.3284 -95.904 -97.6525 75.3617 -95.288 -96.7913 76.1289 
-94.1115 -96.2843 76.5957 -96.0856 -102.694 74.5591 -96.282 -103.935 74.0934 
-95.9404 -101.071 75.2372 -96.0736 -99.2286 76.2648 -95.9382 -97.7726 77.1749 
-94.982 -97.0314 77.6838 -93.6977 -96.7079 78.034 -96.4665 -103.891 75.4842 
-96.5664 -105.098 74.9071 -96.2603 -102.654 76.0665 -96.1552 -101.187 76.8596 
-96.0373 -99.5402 77.7456 -95.368 -98.2835 78.391 -94.2285 -97.7439 78.8203 
-93.0947 -97.4956 79.2384 -96.7846 -105.261 76.2851 -96.7972 -106.554 75.6289 
-96.5824 -104.078 76.8495 -96.213 -102.936 77.3991 -95.8132 -101.554 78.0585 
-95.2718 -100.037 78.7351 -94.4756 -99.0375 79.2941 -93.5413 -98.6421 79.7749 
-92.558 -98.3573 80.2019 -96.8223 -106.777 76.8916 -96.7898 -107.97 76.1751 
-96.6616 -105.576 77.5277 -96.2069 -104.458 78.0052 -95.5827 -103.305 78.4618 
[...]
CELL_DATA 2000
SCALARS Distance double
LOOKUP_TABLE default
153.264 152.606 152.933 153.041 152.24 152.353 152.31 152.67 152.646 
151.918 151.974 151.756 151.979 151.878 152.184 152.009 151.429 151.519 
151.238 151.419 151.31 151.546 151.464 151.62 151.467 151.029 151.045 
150.839 150.942 150.902 151.089 151.09 151.229 151.125 151.207 151.036 
150.862 150.819 150.719 150.723 150.721 150.796 150.75 150.857 150.665 
150.794 150.498 150.659 150.333 150.757 150.74 150.678 150.7 150.678 
150.694 150.528 150.509 150.165 150.215 149.847 150.002 149.67 149.841 
149.54 150.715 150.671 150.592 150.617 150.549 150.588 150.385 150.309 
149.918 149.794 149.432 149.436 149.239 149.319 149.193 149.243 149.147 
150.822 150.714 150.614 150.536 150.389 150.377 150.163 150.132 149.804 
149.667 149.322 149.211 149.036 149.06 149.026 149.08 149.062 149.079 
149.076 153.308 153.383 153.067 152.696 153.621 153.233 152.852 152.63 
152.428 153.737 153.365 152.874 152.748 152.548 152.449 152.205 153.941 
153.385 152.658 152.52 152.199 152.354 152.172 152.123 151.745 154.613 
153.768 152.892 152.337 151.831 151.831 151.711 151.897 151.724 151.622 
151.29 155.552 154.668 153.916 152.985 152.429 151.83 151.676 151.558 
151.598 151.579 151.459 151.273 151.055 156.501 155.711 155.199 154.289 
153.864 152.936 152.694 152.034 152.021 151.703 151.705 151.481 151.332 
151.093 150.918 157.502 156.754 156.368 155.603 155.288 154.459 154.165 
153.328 153.102 152.453 152.326 151.895 151.748 151.41 151.221 150.967 
150.851 158.464 157.785 157.389 156.72 156.39 155.723 155.399 154.671 
154.319 153.587 153.284 152.671 152.434 151.943 151.723 151.339 151.185 
150.951 150.923 158.779 158.795 158.438 157.728 158.825 158.45 157.779 
157.414 156.745 158.975 158.559 157.898 157.493 156.838 156.454 155.776 
159.027 158.719 158.089 157.684 157.013 156.571 155.857 155.446 154.718 
158.796 158.645 158.049 157.802 157.115 156.731 155.952 155.52 154.744 
154.354 153.652 158.47 158.335 157.732 157.597 156.905 156.669 155.86 
155.526 154.708 154.358 153.628 153.312 152.708 158.248 158.046 157.429 
157.25 156.586 156.375 155.64 155.359 154.601 154.284 153.569 153.264 
152.636 152.395 151.902 158.155 157.893 157.288 157.026 156.41 156.149 
155.543 155.244 154.623 154.261 153.606 153.233 152.606 152.315 151.819 
151.646 151.313 158.165 157.868 157.281 156.964 156.359 156.068 155.509 
155.244 154.702 154.379 153.753 153.342 152.682 152.32 151.815 151.605 
151.319 151.2 151.044 151.038 151.246 151.12 151.07 151.598 151.314 
151.212 151.093 150.912 152.353 151.773 151.508 151.231 151.083 150.883 
150.577 153.411 152.67 152.235 151.652 151.396 151.104 150.919 150.592 
150.248 154.379 153.715 153.221 152.481 152.055 151.552 151.348 151.006 
150.755 150.324 149.96 155.202 154.616 154.185 153.454 152.982 152.322 
152.044 151.573 151.36 150.884 150.535 150.042 149.704 156.1 155.502 
155.199 154.469 154.087 153.33 153.05 152.423 152.238 151.647 151.358 
150.723 150.38 149.854 149.655 157.08 156.504 156.316 155.609 155.333 
154.541 154.276 153.541 153.352 152.675 152.447 151.721 151.413 150.706 
150.477 149.951 149.904 158.003 157.506 157.38 156.766 156.551 155.825 
155.564 154.807 154.564 153.844 153.607 152.887 152.62 151.871 151.625 
150.937 150.816 150.309 150.346 150.911 150.917 150.84 150.652 150.657 
150.686 150.394 150.437 150.252 150.176 150.227 149.82 149.959 149.7 
149.949 149.872 149.772 149.715 149.249 149.304 149.022 149.279 149.219 
149.562 149.526 149.523 149.411 148.993 148.888 148.588 148.667 148.574 
148.87 148.872 149.185 149.119 149.33 149.232 148.903 148.776 148.463 
148.38 148.127 148.243 148.128 148.462 148.468 148.812 148.839 149.315 
149.141 148.859 148.719 148.418 148.288 147.956 147.878 147.595 147.729 
147.683 148.089 148.265 148.672 148.834 149.601 149.308 149.062 148.787 
148.502 148.274 148.012 147.824 147.602 147.451 147.349 147.448 147.63 
148.043 148.364 148.75 148.923 150.08 149.74 149.553 149.167 148.894 
148.505 148.273 148.009 147.938 147.72 147.699 147.479 147.541 147.593 
147.87 148.229 148.542 148.851 148.986 150.347 150.669 150.282 149.828 
150.99 150.571 150.002 149.647 149.099 151.256 150.789 150.083 149.716 
149.095 148.834 148.397 151.668 151.049 150.281 149.783 149.179 148.859 
148.523 148.323 148.128 152.407 151.636 150.957 150.221 149.695 149.152 
148.901 148.592 148.476 148.213 148.002 153.295 152.531 151.966 151.163 
150.682 149.95 149.603 149.096 148.855 148.543 148.278 148 147.758 
154.115 153.431 152.874 152.175 151.648 150.959 150.438 149.813 149.317 
148.864 148.475 148.201 147.998 147.833 147.892 154.848 154.218 153.647 
152.989 152.413 151.772 151.195 150.551 149.975 149.365 148.932 148.495 
148.362 148.14 148.288 148.205 148.497 155.504 154.933 154.414 153.76 
153.215 152.527 152.007 151.316 150.852 150.155 149.818 149.204 149.12 
148.715 148.877 148.672 148.912 148.819 149 150.763 151.697 151.143 
151.113 152.978 152.219 152.111 151.559 151.534 154.383 153.572 153.373 
152.671 152.617 152.031 151.955 155.676 154.916 154.68 153.949 153.858 
153.227 153.221 152.534 152.455 156.941 156.191 155.984 155.234 155.177 
154.532 154.606 153.925 153.936 153.152 153.136 158.241 157.525 157.425 
156.635 156.647 155.941 156.08 155.391 155.454 154.679 154.655 153.895 
153.93 159.561 158.891 158.919 158.17 158.227 157.495 157.596 156.888 
156.896 156.151 156.072 155.35 155.328 154.667 154.717 160.956 160.29 
160.377 159.677 159.725 159.024 159.021 158.323 158.209 157.49 157.327 
156.655 156.596 155.991 156.021 155.407 155.436 162.257 161.682 161.74 
161.102 161.087 160.41 160.305 159.615 159.425 158.715 158.522 157.855 
157.797 157.212 157.26 156.674 156.694 156.07 156.053 158.459 158.941 
158.433 157.851 159.371 158.87 158.249 157.737 157.051 159.8 159.282 
158.659 158.126 157.435 156.871 156.112 160.317 159.746 159.151 158.582 
157.897 157.283 156.489 155.882 155.092 160.906 160.278 159.617 159.061 
158.327 157.732 156.854 156.225 155.337 154.81 154.046 161.424 160.782 
159.946 159.407 158.578 158.053 157.127 156.523 155.572 155.015 154.201 
153.759 153.053 161.787 161.165 160.222 159.645 158.797 158.268 157.437 
156.821 155.97 155.326 154.562 153.995 153.302 152.803 152.123 162.064 
161.472 160.566 159.938 159.141 158.578 157.882 157.27 156.572 155.889 
155.212 154.529 153.854 153.195 152.5 151.928 151.309 162.335 161.799 
160.995 160.353 159.586 159.002 158.328 157.772 157.101 156.514 155.839 
155.22 154.525 153.841 153.106 152.424 151.774 151.231 150.774 158.888 
159.675 159.341 159.42 160.43 160.132 160.28 159.901 159.922 161.199 
160.873 161.064 160.768 160.875 160.407 160.373 162.16 161.685 161.842 
161.547 161.728 161.351 161.39 160.879 160.877 163.341 162.737 162.801 
162.381 162.549 162.191 162.308 161.883 161.985 161.489 161.557 164.484 
163.91 163.88 163.376 163.442 163.035 163.135 162.766 162.939 162.583 
162.787 162.256 162.248 165.401 164.936 164.823 164.341 164.256 163.861 
163.859 163.539 163.652 163.421 163.651 163.374 163.472 162.877 162.675 
166.132 165.748 165.569 165.109 164.857 164.486 164.361 164.128 164.161 
164.005 164.129 164.007 164.097 163.84 163.721 163.152 162.856 166.71 
166.402 166.191 165.742 165.372 164.945 164.704 164.49 164.517 164.421 
164.513 164.378 164.371 164.213 164.106 163.872 163.667 163.221 162.965 
166.935 167.014 166.82 166.385 167.031 166.826 166.317 166.069 165.505 
166.993 166.824 166.318 166.014 165.47 165.208 164.833 166.701 166.697 
166.299 166.087 165.696 165.382 165.145 164.859 164.757 166.243 166.322 
166.053 166.033 165.829 165.703 165.596 165.352 165.244 164.935 164.787 
165.954 165.979 165.815 165.81 165.69 165.728 165.653 165.646 165.438 
165.279 164.928 164.745 164.464 165.732 165.805 165.715 165.7 165.583 
165.577 165.445 165.482 165.202 165.165 164.702 164.624 164.225 164.248 
164.048 165.336 165.515 165.429 165.558 165.435 165.475 165.293 165.269 
164.97 164.866 164.439 164.313 163.947 163.938 163.761 163.849 163.703 
164.871 165.041 164.91 165.12 164.982 165.169 164.987 165.071 164.795 
164.718 164.345 164.17 163.845 163.749 163.591 163.613 163.492 163.494 
163.203 164.598 164.172 164.434 164.576 163.687 163.97 164.051 164.394 
164.59 163.03 163.402 163.432 163.797 163.941 164.391 164.601 162.206 
162.666 162.705 163.1 163.192 163.669 163.871 164.355 164.465 161.281 
161.829 161.934 162.349 162.416 162.864 163.019 163.55 163.693 164.124 
164.081 160.17 160.862 161.036 161.559 161.607 162.048 162.105 162.628 
162.757 163.29 163.36 163.719 163.658 158.871 159.649 159.836 160.529 
160.554 161.107 161.05 161.607 161.645 162.273 162.411 162.964 163.071 
163.406 163.435 157.621 158.328 158.483 159.212 159.224 159.871 159.77 
160.395 160.372 161.066 161.199 161.916 162.105 162.707 162.827 163.221 
163.256 156.56 157.146 157.262 157.891 157.909 158.511 158.448 159.058 
159.076 159.765 159.921 160.661 160.854 161.581 161.709 162.353 162.369 
162.878 162.824 164.545 164.286 164.324 164.115 163.788 163.941 163.721 
163.857 163.63 163.11 163.302 163.046 163.312 163.094 163.276 162.96 
162.457 162.606 162.303 162.552 162.3 162.575 162.255 162.458 162.068 
161.678 161.907 161.528 161.776 161.407 161.683 161.281 161.578 161.157 
161.443 161.033 160.599 160.942 160.463 160.821 160.317 160.655 160.126 
160.476 159.986 160.37 159.918 160.294 159.85 159.472 159.77 159.251 
159.601 159.073 159.431 158.883 159.239 158.736 159.132 158.685 159.088 
158.633 159.019 158.56 158.523 158.727 158.241 158.468 158.01 158.265 
157.815 158.074 157.629 157.933 157.532 157.887 157.49 157.833 157.413 
157.753 157.357 157.687 157.868 157.421 157.591 157.179 157.372 156.994 
157.182 156.774 156.961 156.547 156.813 156.445 156.766 156.405 156.709 
156.35 156.658 156.336 164.788 165.163 164.863 164.582 165.568 165.287 
165.028 164.624 164.175 165.846 165.657 165.447 165.099 164.656 164.136 
163.559 165.936 165.817 165.571 165.39 164.989 164.603 164.01 163.486 
162.888 165.885 165.798 165.427 165.319 164.862 164.713 164.153 163.837 
163.179 162.755 162.095 165.614 165.627 165.2 165.087 164.512 164.395 
163.809 163.716 163.098 162.877 162.165 161.807 161.047 165.074 165.201 
164.824 164.809 164.255 164.071 163.43 163.285 162.704 162.61 161.989 
161.764 161.03 160.671 159.924 164.455 164.581 164.24 164.357 163.941 
163.854 163.257 163.018 162.398 162.23 161.668 161.521 160.885 160.619 
159.914 159.578 158.922 163.922 163.978 163.61 163.747 163.404 163.481 
162.985 162.847 162.187 161.977 161.348 161.206 160.61 160.435 159.779 
159.523 158.867 158.601 158.021 163.507 162.668 163.101 163.147 161.728 
162.214 162.282 162.783 162.903 160.722 161.246 161.282 161.832 161.899 
162.469 162.474 159.519 160.149 160.1 160.708 160.636 161.277 161.195 
161.822 161.673 158.071 158.774 158.66 159.356 159.196 159.868 159.718 
160.404 160.298 160.939 160.825 156.723 157.296 157.155 157.817 157.708 
158.391 158.321 158.976 158.951 159.587 159.568 160.164 160.091 155.713 
156.124 156 156.459 156.41 156.997 157.071 157.712 157.805 158.389 
158.399 158.942 158.864 159.417 159.28 154.88 155.284 155.275 155.58 
155.557 155.928 156.016 156.571 156.725 157.318 157.338 157.835 157.698 
158.185 158.019 158.56 158.403 154.095 154.548 154.705 155.027 155.07 
155.294 155.299 155.65 155.729 156.25 156.276 156.772 156.625 157.055 
156.854 157.331 157.191 157.721 157.605 153.76 153.557 153.945 154.437 
153.102 153.642 154.119 154.526 154.836 152.306 152.937 153.363 154.004 
154.337 154.762 155.002 151.604 152.055 152.373 153.05 153.438 154.085 
154.416 154.908 155.286 151.159 151.467 151.679 152.135 152.491 153.116 
153.529 154.183 154.612 155.222 155.693 150.52 150.969 151.183 151.586 
151.862 152.312 152.674 153.266 153.708 154.401 154.868 155.549 155.985 
149.687 150.176 150.43 150.988 151.307 151.778 152.101 152.547 152.946 
153.516 154.003 154.663 155.146 155.788 156.226 149.201 149.445 149.671 
150.167 150.562 151.142 151.562 152.049 152.458 152.909 153.382 153.907 
154.432 155.012 155.525 156.099 156.586 149.132 149.189 149.362 149.6 
149.963 150.428 150.911 151.464 151.954 152.461 152.934 153.405 153.899 
154.402 154.925 155.469 155.99 156.534 157.022 157.081 156.055 156.658 
156.817 154.985 155.595 155.775 156.395 156.587 153.96 154.524 154.682 
155.324 155.558 156.2 156.415 152.961 153.492 153.582 154.208 154.395 
155.102 155.325 155.994 156.166 151.897 152.43 152.442 153.062 153.177 
153.884 154.061 154.794 154.974 155.676 155.87 150.838 151.334 151.329 
151.904 152.02 152.673 152.856 153.537 153.739 154.443 154.702 155.427 
155.736 149.979 150.371 150.417 150.879 151.01 151.575 151.774 152.401 
152.62 153.277 153.559 154.28 154.645 155.376 155.724 149.433 149.687 
149.741 150.08 150.132 150.6 150.699 151.308 151.473 152.158 152.399 
153.143 153.488 154.269 154.648 155.372 155.695 149.14 149.268 149.22 
149.44 149.336 149.689 149.634 150.176 150.275 150.963 151.202 151.953 
152.294 153.085 153.486 154.268 154.653 155.355 155.688 159.005 158.051 
158.873 159.536 157.123 157.925 158.647 159.435 160.155 156.335 157.116 
157.911 158.64 159.432 160.16 160.999 155.536 156.374 157.231 157.987 
158.8 159.516 160.35 161.106 161.982 154.836 155.586 156.427 157.234 
158.038 158.848 159.656 160.442 161.228 162.012 162.695 154.477 155.02 
155.777 156.433 157.19 157.988 158.809 159.667 160.446 161.22 161.852 
162.542 163.006 154.24 154.725 155.409 155.917 156.596 157.212 157.993 
158.792 159.607 160.403 161.064 161.738 162.244 162.822 163.23 153.952 
154.421 155.064 155.567 156.183 156.704 157.379 158.052 158.83 159.586 
160.274 160.955 161.482 162.097 162.543 163.098 163.476 153.833 154.16 
154.754 155.189 155.744 156.236 156.805 157.427 158.121 158.851 159.546 
160.213 160.758 161.346 161.792 162.375 162.765 163.312 163.621 159.678 
160.255 160.267 160.837 160.855 160.854 161.465 161.437 162.009 161.709 
161.569 162.165 162.062 162.639 162.614 163.21 162.77 162.603 163.218 
162.92 163.386 163.208 163.753 163.781 164.33 163.466 163.572 164.252 
164.065 164.442 164.062 164.399 164.268 164.799 164.834 165.258 163.622 
163.929 164.572 164.789 165.212 165.052 165.268 164.995 165.391 165.326 
165.835 165.732 165.995 163.732 163.94 164.467 164.791 165.282 165.486 
165.822 165.763 166.11 166.009 166.485 166.374 166.713 166.436 166.525 
163.97 164.094 164.568 164.733 165.231 165.457 165.936 166.098 166.517 
166.587 166.985 166.982 167.268 167.11 167.188 166.881 166.857 164.114 
164.299 164.772 164.917 165.393 165.543 166.022 166.191 166.614 166.779 
167.098 167.234 167.42 167.456 167.488 167.379 167.324 167.109 167.041 
159.508 160.627 159.887 159.515 161.825 161.043 160.672 159.884 159.54 
163.078 162.297 161.943 161.1 160.735 159.963 159.664 164.196 163.514 
163.113 162.323 161.878 161.134 160.74 160.043 159.661 165.046 164.488 
164.024 163.331 162.784 162.121 161.652 161.015 160.541 159.884 159.401 
165.676 165.202 164.762 164.143 163.61 162.943 162.469 161.841 161.385 
160.722 160.214 159.55 159.08 166.157 165.749 165.373 164.861 164.434 
163.802 163.34 162.674 162.198 161.538 161.028 160.367 159.872 159.249 
158.841 166.531 166.187 165.844 165.439 165.061 164.569 164.086 163.488 
162.895 162.272 161.674 161.09 160.57 160.013 159.595 159.046 158.715 
166.776 166.518 166.183 165.854 165.456 165.07 164.562 164.07 163.423 
162.845 162.187 161.639 161.126 160.64 160.27 159.782 159.485 158.967 
158.704 164.988 165.4 165.221 165.322 165.769 165.615 165.661 165.548 
165.669 166.056 165.944 165.993 165.864 165.941 165.86 165.948 166.451 
166.289 166.388 166.204 166.262 166.127 166.192 166.094 166.111 166.972 
166.801 166.909 166.658 166.667 166.455 166.456 166.328 166.329 166.21 
166.122 167.281 167.257 167.318 167.141 167.062 166.838 166.746 166.576 
166.517 166.398 166.288 166.132 165.881 167.309 167.391 167.427 167.378 
167.272 167.133 167.007 166.843 166.751 166.595 166.469 166.281 166.019 
165.775 165.381 167.265 167.356 167.424 167.413 167.375 167.284 167.208 
167.071 166.978 166.822 166.671 166.475 166.204 165.936 165.548 165.237 
164.805 167.151 167.288 167.392 167.437 167.478 167.428 167.402 167.274 
167.156 166.997 166.775 166.605 166.275 166.071 165.669 165.414 164.993 
164.695 164.289 
POINT_DATA 1002
SCALARS Distance double
LOOKUP_TABLE default
153.388 153.587 152.82 152.594 152.407 153.144 152.062 152.257 152.278 
152.521 151.609 151.894 151.603 151.76 151.751 151.06 151.34 151.052 
151.283 151.357 151.3 150.743 151.011 150.722 150.939 151.057 150.97 
150.844 150.709 150.872 150.713 150.736 150.583 150.363 150.169 149.993 
150.645 150.761 150.687 150.643 150.215 149.705 149.48 149.367 149.265 
150.613 150.778 150.525 150.442 150.078 149.469 149.128 149.116 149.102 
149.078 150.759 150.937 150.476 150.171 149.882 149.459 149.043 148.942 
149.026 149.061 149.093 153.521 152.864 153.769 153.072 154.026 152.625 
153.003 154.187 152.555 152.471 152.97 154.672 152.008 152.043 152.008 
153.669 155.503 152.042 151.451 151.647 151.525 154.834 156.321 153.249 
152.003 151.584 151.572 151.288 155.98 157.205 154.787 153.562 152.524 
151.962 151.589 151.126 157.082 158.222 156.047 155.034 153.907 152.882 
152.14 151.522 151.021 158.054 159.12 157.034 156.092 155.078 153.98 
152.997 152.172 151.481 151.059 159.163 158.099 159.126 158.129 159.225 
157.112 158.327 159.377 157.244 156.162 158.457 159.252 157.487 156.313 
155.103 158.229 158.912 157.465 156.397 155.15 153.985 157.87 158.634 
157.102 156.153 155.036 153.943 152.962 157.64 158.474 156.784 155.878 
154.896 153.88 152.894 152.06 157.57 158.427 156.66 155.793 154.964 
154.015 152.932 151.999 151.405 157.611 158.461 156.667 155.756 154.983 
154.165 153.086 152.037 151.417 151.141 151.041 151.184 150.99 151.346 
151.111 150.641 151.943 151.242 150.903 150.195 152.991 151.779 151.175 
150.687 149.871 153.997 152.682 151.711 151.164 150.422 149.592 154.876 
153.692 152.577 151.849 151.074 150.119 149.406 155.882 154.848 153.728 
152.847 152.024 150.984 150.044 149.519 156.969 156.104 155.053 154.053 
153.16 152.163 151.097 150.293 149.903 157.942 157.232 156.324 155.32 
154.323 153.344 152.357 151.423 150.734 150.404 150.726 150.346 150.115 
149.7 149.423 149.568 149.257 148.797 148.853 149.243 149.112 148.618 
148.358 148.519 148.861 148.997 148.606 148.171 147.86 148.012 148.539 
149.026 148.56 148.095 147.61 147.323 147.723 148.541 149.384 148.781 
148.173 147.774 147.428 147.304 147.871 148.688 149.938 149.341 148.567 
148.084 147.962 147.712 147.612 148.135 148.809 150.701 150.21 151.1 
150.408 151.467 149.394 150.497 151.81 149.351 148.545 150.844 152.354 
149.505 148.688 148.344 151.713 153.156 150.316 149.269 148.753 148.339 
152.727 154.006 151.464 150.272 149.275 148.546 147.957 153.563 154.779 
152.339 151.148 149.902 148.781 148.106 147.935 154.314 155.454 153.069 
151.835 150.608 149.419 148.603 148.383 148.552 155.034 156.025 153.899 
152.68 151.509 150.443 149.596 149.166 149.087 149.102 151.188 151.542 
152.364 152.756 153.818 152.039 154.144 155.191 153.224 152.593 155.418 
156.427 154.484 153.87 153.204 156.736 157.667 155.808 155.247 154.705 
153.902 158.178 158.883 157.368 156.775 156.225 155.434 154.631 159.615 
160.189 158.969 158.349 157.669 156.797 155.989 155.367 161.07 161.614 
160.451 159.759 158.958 158.008 157.182 156.621 156.078 162.366 162.794 
161.789 161.025 160.134 159.187 158.379 157.835 157.325 156.681 158.978 
158.383 159.465 158.768 159.885 157.6 159.199 160.32 158.016 156.695 
159.724 160.913 158.536 157.142 155.636 160.204 161.605 158.927 157.521 
155.904 154.477 160.542 162.13 159.095 157.717 156.15 154.67 153.463 
160.827 162.409 159.304 157.998 156.602 155.166 153.856 152.592 161.186 
162.603 159.689 158.437 157.216 155.905 154.57 153.139 151.774 159.229 
159.821 159.981 160.6 160.714 160.423 161.31 161.579 161.288 160.919 
162.173 162.732 162.05 161.851 161.404 163.309 163.988 162.927 162.678 
162.4 162.156 164.439 165.029 163.897 163.508 163.226 163.198 163.013 
165.345 165.834 164.691 164.185 163.891 163.846 163.916 163.492 166.069 
166.499 165.297 164.587 164.316 164.284 164.265 164.116 163.56 166.642 