# vtk DataFile Version 4.0
vtk output
ASCII
DATASET POLYDATA
POINTS 1002 float
-78.7037 -109.565 71.3332 -78.8375 -111.21 71.1036 -78.7664 -110.475 70.0495 
-78.6277 -108.654 70.2665 -78.6873 -109.614 68.8708 -78.6538 -107.718 71.6423 
-78.8049 -107.868 69.206 -78.8311 -108.882 67.8222 -78.8104 -106.963 70.609 
-79.0795 -106.338 72.0703 -79.3563 -107.373 68.3309 -79.3598 -108.386 67.096 
-79.3638 -106.533 69.6719 -79.5792 -105.93 71.1468 -80.0401 -105.493 72.5968 
-80.1784 -107.044 67.6854 -80.259 -108.033 66.6691 -80.1921 -106.247 68.9136 
-80.364 -105.639 70.3358 -80.6681 -105.013 71.7625 -81.0186 -104.394 73.0905 
-81.203 -106.717 67.2852 -81.4007 -107.675 66.4916 -81.1507 -105.85 68.3531 
-81.2754 -105.163 69.6848 -81.4221 -104.382 71.0106 -81.5086 -103.516 72.2354 
-81.595 -102.768 73.4654 -82.4014 -106.278 67.1361 -82.6377 -107.189 66.4696 
-82.2668 -105.347 68.0334 -82.2885 -104.541 69.2139 -82.31 -103.675 70.4436 
-82.1995 -102.712 71.539 -82.0531 -101.844 72.6327 -81.9836 -101.139 73.8055 
-83.6137 -105.641 67.0683 -83.8145 -106.527 66.4441 -83.4291 -104.724 67.8719 
-83.3299 -103.903 68.8673 -83.2487 -103.049 69.9823 -83.0771 -102.103 71.0702 
-82.8604 -101.224 72.0717 -82.67 -100.469 73.1028 -82.5367 -99.822 74.1743 
-84.6888 -104.867 66.9603 -84.8364 -105.742 66.3892 -84.4818 -103.979 67.7069 
-84.2741 -103.189 68.5601 -84.099 -102.405 69.4906 -83.9182 -101.521 70.5603 
-83.7552 -100.665 71.6311 -83.6056 -99.9397 72.5972 -83.4227 -99.3026 73.5612 
-83.249 -98.7665 74.5341 -85.6272 -104.103 66.8675 -85.7283 -104.953 66.3724 
-85.4422 -103.253 67.5272 -85.1898 -102.471 68.2939 -84.9429 -101.705 69.0615 
-84.7207 -100.86 69.9596 -84.5522 -100.002 71.0319 -84.4492 -99.2984 72.0561 
-84.314 -98.7422 72.9909 -84.1123 -98.2571 73.9371 -83.9294 -97.8622 74.8541 
-78.8911 -112.165 70.245 -78.8391 -111.457 68.9393 -78.9102 -112.993 69.179 
-78.8056 -112.255 67.5474 -78.8678 -113.848 67.942 -78.6415 -110.626 67.511 
-78.6412 -113.056 66.1579 -78.7511 -114.855 66.7952 -78.4136 -111.428 65.9438 
-78.6413 -109.904 66.4183 -78.6077 -114.139 65.1435 -78.8473 -115.937 65.8919 
-78.2465 -112.235 64.6672 -78.3731 -110.697 64.9632 -79.2367 -109.357 65.8638 
-79.1939 -115.406 64.5294 -79.5438 -116.833 65.3232 -78.7216 -113.437 63.9998 
-78.5626 -111.49 63.9418 -79.2629 -110.037 64.6394 -80.4064 -108.869 65.6851 
-80.3328 -116.233 64.4581 -80.6376 -117.245 65.36 -79.9624 -114.721 63.9171 
-79.6342 -112.646 63.6273 -79.9027 -110.681 63.787 -80.8028 -109.356 64.6591 
-81.7912 -108.354 65.7178 -81.4507 -116.323 65.0456 -81.6973 -117.259 65.8885 
-81.3012 -115.288 64.4158 -81.1192 -113.728 63.9588 -81.1411 -111.656 63.6091 
-81.6291 -109.853 63.8733 -82.3721 -108.737 64.8469 -83.1179 -107.775 65.8121 
-82.4602 -116.21 65.7492 -82.7441 -117.29 66.3461 -82.3919 -115.265 65.095 
-82.4028 -114.24 64.4855 -82.4472 -112.683 63.8954 -82.7022 -110.738 63.6128 
-83.1734 -109.179 64.1079 -83.7107 -108.142 65.0688 -84.2755 -107.066 65.8574 
-83.6046 -116.37 66.0767 -83.9153 -117.497 66.4865 -83.4954 -115.361 65.4392 
-83.5537 -114.525 64.6906 -83.6489 -113.48 64.047 -83.8143 -111.82 63.6495 
-84.1189 -109.925 63.7376 -84.4739 -108.483 64.3847 -84.8418 -107.408 65.2081 
-85.2704 -106.243 65.8714 -84.9997 -117.046 66.293 -84.7926 -115.958 65.7147 
-86.1117 -116.485 66.1033 -86.0261 -115.539 65.2477 -87.0434 -115.7 66.0521 
-84.7909 -115.054 64.8123 -87.1056 -114.794 65.1554 -87.9857 -114.738 66.1596 
-86.1498 -114.699 64.2405 -84.9147 -114.21 63.9897 -88.1341 -113.605 65.524 
-89.0957 -113.617 66.353 -87.3366 -113.716 64.4515 -86.3595 -113.544 63.7411 
-85.0613 -112.836 63.6322 -89.096 -112.126 65.9903 -90.0718 -112.169 66.6773 
-88.2577 -112.128 65.1595 -87.5738 -112.03 64.334 -86.5671 -111.544 63.8263 
-85.2765 -110.741 63.674 -90.0095 -110.574 66.4003 -90.9704 -110.593 66.9878 
-89.0201 -110.52 65.7559 -88.3752 -110.258 65.0836 -87.7881 -109.726 64.4174 
-86.7639 -109.152 64.0051 -85.524 -108.745 64.0303 -91.2799 -109.211 66.6079 
-92.2041 -109.375 66.9624 -90.1747 -109.098 66.1962 -89.2518 -108.811 65.7058 
-88.6798 -108.23 65.0329 -87.9831 -107.649 64.4034 -86.8819 -107.392 64.2943 
-85.7323 -107.389 64.6857 -92.8666 -108.125 66.4783 -93.6223 -108.521 66.6995 
-91.903 -107.753 66.3199 -90.8389 -107.367 66.1477 -89.9165 -106.929 65.7363 
-89.114 -106.533 65.0744 -88.1289 -106.3 64.7117 -86.985 -106.238 64.9525 
-85.9949 -106.253 65.446 -94.2 -107.133 66.2691 -94.757 -107.676 66.5743 
-93.5152 -106.492 66.0772 -92.6764 -105.829 66.0341 -91.6742 -105.34 66.0312 
-90.5958 -105.188 65.8076 -89.4722 -105.221 65.4822 -88.2971 -105.18 65.4716 
-87.216 -105.068 65.7712 -86.3708 -104.991 66.0987 -86.5835 -103.652 66.6864 
-87.367 -103.658 66.4795 -87.5419 -102.307 66.9816 -88.3655 -103.756 66.2853 
-88.4656 -102.171 66.7585 -88.5038 -100.889 67.1793 -89.5983 -103.826 66.1284 
-89.5879 -102.107 66.5802 -89.4683 -100.511 66.809 -89.3372 -99.3777 67.3921 
-90.9538 -103.652 66.0248 -90.9166 -102.011 66.2988 -90.6089 -100.253 66.4636 
-90.2872 -98.846 66.8698 -90.0914 -97.9212 67.7328 -92.2642 -103.467 65.8102 
-92.2939 -101.864 65.7277 -91.8985 -100.224 65.9301 -91.421 -98.5727 66.3815 
-91.0997 -97.4315 67.1631 -90.8699 -96.6805 68.0785 -93.3354 -103.785 65.5364 
-93.4421 -102.041 65.0875 -93.1153 -100.531 65.2359 -92.6844 -98.7608 65.8877 
-92.3069 -97.1929 66.6573 -91.9872 -96.3042 67.5138 -91.6074 -95.6491 68.4161 
-94.0934 -104.587 65.5701 -94.2311 -102.711 64.9999 -94.0666 -101.143 64.9495 
-93.8791 -99.3612 65.6014 -93.6534 -97.3865 66.3549 -93.3004 -96.0553 67.0163 
-92.833 -95.3643 67.8727 -92.26 -94.7576 68.9123 -94.6901 -105.47 65.9513 
-94.8447 -103.572 65.5711 -94.8383 -101.83 65.3892 -94.8934 -100.05 65.7509 
-94.8979 -97.9712 66.3524 -94.65 -96.2058 66.8257 -94.1864 -95.2108 67.4597 
-93.5751 -94.5882 68.4593 -92.8745 -94.0132 69.5785 -95.2311 -106.223 66.4293 
-95.4393 -104.402 66.3076 -95.5516 -102.531 66.1554 -95.7332 -100.701 66.2045 
-95.8559 -98.7205 66.5473 -95.7087 -96.8146 66.9481 -95.3497 -95.4754 67.4467 
-94.8622 -94.655 68.2744 -94.2003 -94.0194 69.3231 -93.4377 -93.4826 70.3146 
-86.4714 -102.779 67.2191 -87.415 -101.468 67.5736 -86.2608 -101.961 67.9464 
-88.3508 -100.073 67.9466 -87.2124 -100.649 68.4157 -85.9939 -101.136 68.7257 
-89.1432 -98.5513 68.3484 -88.1068 -99.205 68.9065 -86.9191 -99.7279 69.2327 
-85.7065 -100.233 69.4945 -89.8514 -97.0384 68.6366 -88.7689 -97.5753 69.1863 
-87.6669 -98.2007 69.6452 -86.5204 -98.7255 69.9887 -85.4274 -99.2889 70.4382 
-90.5327 -95.7335 68.9086 -89.3448 -95.9394 69.3248 -88.1808 -96.5064 69.833 
-87.1493 -97.216 70.3987 -86.1528 -97.8241 70.9332 -85.2351 -98.5037 71.5108 
-91.146 -94.7314 69.4573 -89.9524 -94.7038 69.845 -88.7422 -94.9831 70.2687 
-87.7205 -95.7018 70.8992 -86.8253 -96.5164 71.5344 -85.9171 -97.225 72.0551 
-85.083 -97.9698 72.5523 -91.7382 -93.9562 70.1756 -90.575 -93.9422 70.697 
-89.3948 -94.0401 71.1449 -88.367 -94.4802 71.7011 -87.528 -95.2766 72.3342 
-86.631 -96.1008 72.83 -85.6874 -96.8187 73.2116 -84.8676 -97.5435 73.5906 
-92.3452 -93.3377 70.8192 -91.232 -93.3359 71.3861 -90.0665 -93.4107 71.9256 
-88.9621 -93.611 72.4591 -88.1084 -94.1365 73.042 -87.3084 -94.9206 73.5792 
-86.3354 -95.6834 73.9761 -85.3954 -96.4015 74.2952 -84.6343 -97.1532 74.5928 
-93.2659 -92.9733 71.3477 -92.196 -92.7512 71.7967 -93.0766 -92.5038 72.4819 
-92.07 -92.0394 72.9218 -92.8881 -92.0469 73.9284 -91.0325 -92.6662 72.3482 
-91.8327 -91.3605 74.4715 -92.6038 -91.8561 75.5934 -90.7343 -91.7026 73.478 
-89.698 -92.6811 72.9238 -91.3686 -91.3707 76.2129 -92.1526 -92.1846 77.0618 
-90.2488 -91.0286 75.0837 -89.1551 -91.7182 74.0699 -88.5261 -92.9629 73.5055 
-90.8223 -92.0959 77.6438 -91.6721 -92.7254 78.327 -89.7544 -91.429 76.8322 
-88.6196 -91.4002 75.6714 -87.9503 -92.312 74.6469 -87.6857 -93.6516 74.097 
-90.4005 -92.7548 78.9133 -91.2957 -93.2029 79.6529 -89.4114 -92.3017 78.2681 
-88.3054 -92.0181 77.3879 -87.4361 -92.293 76.152 -87.0503 -93.2165 75.1867 
-86.7743 -94.4837 74.6198 -90.0719 -93.2557 80.2789 -90.9638 -93.8174 80.9058 
-89.1023 -92.8464 79.6093 -88.0274 -92.6441 78.9009 -86.9935 -92.7067 77.8118 
-86.3544 -93.1552 76.5383 -86.0558 -94.0956 75.6578 -85.7543 -95.301 75.0249 
-89.733 -93.9824 81.4871 -90.5964 -94.6036 81.8843 -88.7569 -93.4407 80.9117 
-87.6678 -93.1134 80.272 -86.5558 -93.0823 79.4087 -85.7456 -93.3658 78.134 
-85.3924 -94.0527 76.8915 -85.1994 -95.1002 76.0445 -84.9309 -96.2022 75.3415 
-89.3861 -94.8362 82.3791 -90.2065 -95.3306 82.6714 -88.4624 -94.3621 81.9005 
-87.4135 -93.9516 81.3352 -86.3081 -93.7201 80.7073 -85.4128 -93.8176 79.7276 
-84.9632 -94.3434 78.401 -84.7904 -95.2323 77.2159 -84.5689 -96.2199 76.3494 
-84.2457 -97.0952 75.5952 -94.4573 -93.4821 70.6485 -94.2331 -93.0904 71.8606 
-95.4893 -93.6763 71.2714 -95.2536 -93.3912 72.6101 -96.4243 -93.9311 72.0167 
-93.8975 -92.8098 73.2301 -96.2298 -93.6917 73.3855 -97.0509 -94.37 72.7499 
-94.7855 -93.2738 74.0759 -93.5471 -92.6157 74.8307 -96.8137 -94.245 74.2272 
-97.1305 -95.3652 73.5779 -95.6733 -93.7319 74.8969 -94.2736 -93.2829 75.6366 
-93.201 -92.6426 76.4052 -96.8377 -95.4096 75.2482 -96.8522 -96.86 74.5476 
-96.2213 -94.4868 75.8695 -95.0572 -93.9943 76.4712 -93.9022 -93.437 77.168 
-92.8416 -92.9263 77.8249 -96.714 -96.9653 76.2393 -96.7088 -98.4258 75.5159 
-96.4145 -95.7112 76.893 -95.6429 -94.9449 77.4471 -94.6509 -94.3614 78.054 
-93.6246 -93.7277 78.7241 -92.4818 -93.3245 79.2574 -96.7398 -98.5519 77.0467 
-96.7833 -99.8942 76.372 -96.5503 -97.2004 77.7184 -96.0254 -96.1319 78.3304 
-95.2102 -95.4363 78.9025 -94.2781 -94.7945 79.5443 -93.2374 -94.2116 80.1418 
-92.098 -93.9143 80.5654 -96.7469 -100.085 77.7243 -96.8284 -101.302 77.0698 
-96.6175 -98.7931 78.4146 -96.2777 -97.5496 79.0903 -95.5972 -96.6273 79.6261 
-94.6944 -95.9733 80.1377 -93.7334 -95.3752 80.7175 -92.7361 -94.9343 81.1991 
-91.6788 -94.7145 81.56 -96.6381 -101.544 78.2789 -96.7649 -102.637 77.6023 
-96.5247 -100.372 79.0235 -96.3343 -99.1398 79.7836 -95.8437 -98.0476 80.3271 
[...]
CELL_DATA 2000
SCALARS Distance double
LOOKUP_TABLE default
152.014 150.865 151.234 150.803 149.834 150.116 149.771 150.088 149.901 
149.234 149.331 149.145 149.303 149.282 149.563 149.748 149.079 149.01 
148.922 148.96 149.037 149.201 149.404 149.67 149.878 149.229 149.037 
148.931 148.885 148.943 149.058 149.168 149.35 149.364 149.626 149.55 
149.519 149.268 149.105 148.96 148.938 148.968 148.995 149.08 148.973 
149.074 148.867 149.08 148.88 149.745 149.528 149.304 149.132 149.01 
148.961 148.909 148.913 148.787 148.762 148.563 148.566 148.396 148.498 
148.384 149.803 149.652 149.37 149.238 149.018 148.961 148.799 148.795 
148.623 148.611 148.424 148.401 148.257 148.249 148.165 148.199 148.164 
149.77 149.641 149.348 149.228 148.971 148.893 148.665 148.628 148.399 
148.397 148.181 148.22 148.06 148.12 148.016 148.069 148.011 148.071 
148.063 152.506 152.74 152.236 151.375 152.785 152.344 151.472 151.007 
150.215 152.832 152.31 151.346 150.949 150.18 149.911 149.432 153.167 
152.455 151.416 150.828 150.029 149.779 149.405 149.328 149.198 153.915 
153.059 152.148 151.217 150.383 149.783 149.415 149.288 149.305 149.292 
149.365 154.865 154.043 153.392 152.354 151.619 150.579 150.075 149.512 
149.487 149.408 149.608 149.577 149.693 155.717 155.027 154.525 153.712 
153.158 152.103 151.51 150.522 150.226 149.754 149.876 149.808 150.015 
149.93 149.973 156.477 155.831 155.348 154.732 154.307 153.546 153.034 
152.054 151.557 150.717 150.553 150.184 150.323 150.221 150.319 150.156 
150.08 157.293 156.617 156.147 155.525 155.156 154.555 154.195 153.436 
152.982 152.083 151.696 151.005 150.896 150.582 150.626 150.464 150.422 
150.201 150.055 157.623 157.772 157.293 156.494 157.834 157.444 156.678 
156.207 155.493 157.764 157.474 156.819 156.414 155.716 155.266 154.57 
157.638 157.386 156.785 156.508 155.875 155.487 154.752 154.285 153.457 
157.381 157.198 156.52 156.359 155.713 155.506 154.755 154.388 153.502 
153.038 152.176 156.977 156.84 156.123 155.986 155.281 155.169 154.407 
154.2 153.316 152.985 152.15 151.805 151.216 156.73 156.506 155.894 
155.646 154.991 154.764 154.06 153.816 153.032 152.741 152.002 151.743 
151.227 151.046 150.769 156.768 156.455 155.932 155.593 155.016 154.661 
154.043 153.669 153.024 152.631 152.03 151.692 151.249 151.044 150.773 
150.679 150.494 156.836 156.55 155.979 155.672 155.048 154.73 154.092 
153.76 153.165 152.802 152.286 151.907 151.493 151.173 150.863 150.668 
150.427 150.345 150.127 149.895 150.239 149.925 149.665 150.749 150.366 
150.09 149.703 149.401 151.412 150.977 150.691 150.186 149.748 149.349 
148.991 152.123 151.663 151.338 150.8 150.248 149.699 149.156 148.846 
148.537 152.85 152.323 151.901 151.375 150.785 150.195 149.547 149.056 
148.64 148.43 148.258 153.687 153.039 152.519 151.907 151.343 150.748 
150.165 149.556 149.082 148.658 148.45 148.259 148.168 154.659 153.936 
153.403 152.634 152.112 151.434 151.006 150.333 149.92 149.279 148.988 
148.583 148.482 148.257 148.196 155.665 154.97 154.511 153.667 153.18 
152.394 152.049 151.34 151.021 150.274 149.933 149.287 149.098 148.696 
148.66 148.384 148.369 156.598 155.998 155.64 154.847 154.397 153.574 
153.213 152.475 152.174 151.43 151.077 150.327 150.052 149.468 149.401 
148.995 149.03 148.68 148.707 149.662 149.402 149.428 149.244 149.159 
149.197 149.016 149.036 148.883 148.843 148.959 148.839 148.858 148.683 
148.689 148.55 148.466 148.627 148.575 148.671 148.512 148.505 148.287 
148.326 148.213 148.143 148.245 148.127 148.297 148.128 148.246 147.999 
148.046 147.849 147.976 147.947 147.962 147.938 147.662 147.75 147.486 
147.695 147.487 147.672 147.497 147.627 147.572 147.764 147.839 147.958 
147.812 147.495 147.368 147.059 147.09 146.963 147.151 147.157 147.318 
147.346 147.47 147.557 147.734 147.851 148.121 147.898 147.66 147.402 
147.167 146.95 146.88 146.862 147.015 147.122 147.307 147.37 147.487 
147.551 147.67 147.794 147.9 148.413 148.139 147.944 147.688 147.512 
147.248 147.137 146.985 147.056 147.105 147.297 147.392 147.516 147.549 
147.618 147.675 147.776 147.877 147.98 148.555 148.625 148.381 148.044 
148.782 148.439 148.03 147.879 147.603 149.13 148.617 148.031 147.787 
147.437 147.403 147.201 149.731 149.063 148.329 147.81 147.272 147.143 
146.964 147.056 147.063 150.463 149.765 149.089 148.32 147.68 147.151 
146.882 146.824 146.94 147.088 147.273 151.211 150.545 149.997 149.239 
148.677 147.888 147.489 147.012 146.997 146.983 147.204 147.346 147.494 
152.015 151.34 150.826 150.15 149.657 148.943 148.473 147.808 147.515 
147.182 147.206 147.242 147.405 147.515 147.605 152.848 152.188 151.68 
150.993 150.493 149.833 149.351 148.704 148.277 147.753 147.566 147.352 
147.457 147.473 147.654 147.676 147.789 153.587 153.009 152.548 151.879 
151.397 150.698 150.247 149.561 149.177 148.541 148.323 147.872 147.924 
147.723 147.935 147.849 148.021 147.939 148.028 148.997 149.923 149.326 
149.128 151.037 150.381 150.182 149.527 149.368 152.13 151.53 151.382 
150.691 150.538 149.871 149.798 153.189 152.627 152.553 151.907 151.783 
151.105 151.034 150.394 150.395 154.352 153.756 153.756 153.114 153.065 
152.379 152.329 151.663 151.665 151.037 151.07 155.661 155.021 155.074 
154.405 154.424 153.725 153.739 153.029 153.061 152.363 152.408 151.743 
151.802 157.036 156.391 156.462 155.785 155.817 155.125 155.157 154.469 
154.514 153.815 153.854 153.145 153.194 152.516 152.601 158.345 157.747 
157.815 157.176 157.211 156.529 156.536 155.855 155.858 155.204 155.203 
154.552 154.557 153.907 153.947 153.317 153.393 159.492 158.97 159.031 
158.474 158.533 157.909 157.918 157.226 157.179 156.491 156.444 155.81 
155.796 155.194 155.207 154.61 154.636 154.049 154.083 157.007 157.312 
156.837 156.069 157.52 157.069 156.279 155.754 154.875 157.72 157.242 
156.448 155.937 155.071 154.534 153.696 157.986 157.457 156.629 156.098 
155.221 154.705 153.847 153.375 152.591 158.237 157.711 156.847 156.293 
155.398 154.857 153.975 153.48 152.648 152.231 151.461 158.459 157.929 
157.065 156.508 155.637 155.081 154.238 153.673 152.861 152.33 151.585 
151.133 150.474 158.796 158.21 157.383 156.768 155.938 155.365 154.6 
154.03 153.304 152.7 152.032 151.448 150.87 150.348 149.859 159.219 
158.639 157.875 157.205 156.413 155.762 155.039 154.452 153.803 153.225 
152.634 152.045 151.517 150.926 150.439 149.895 149.472 159.56 159.069 
158.376 157.762 157.02 156.341 155.627 154.977 154.342 153.755 153.199 
152.655 152.149 151.6 151.088 150.519 150.01 149.509 149.093 157.516 
158.303 157.943 157.909 159.054 158.741 158.794 158.321 158.176 159.862 
159.519 159.64 159.228 159.182 158.603 158.426 160.767 160.342 160.477 
160.118 160.21 159.686 159.615 158.934 158.757 161.771 161.228 161.275 
160.95 161.169 160.787 160.862 160.214 160.073 159.298 159.052 162.949 
162.25 162.127 161.695 161.896 161.695 161.937 161.485 161.404 160.64 
160.363 159.551 159.266 164.291 163.517 163.258 162.567 162.541 162.301 
162.593 162.431 162.518 161.942 161.688 160.873 160.579 159.784 159.563 
165.505 164.876 164.615 163.772 163.478 162.938 163.032 162.927 163.158 
162.912 162.827 162.178 161.898 161.114 160.879 160.123 159.936 166.321 
165.959 165.814 165.099 164.721 163.944 163.739 163.366 163.493 163.39 
163.472 163.155 162.98 162.372 162.106 161.397 161.152 160.446 160.22 
166.632 166.95 166.682 166.226 167.028 166.912 166.454 166.036 165.246 
166.706 166.809 166.417 166.178 165.444 164.93 164.2 166.29 166.397 
166.107 166.024 165.406 165.066 164.406 164.055 163.719 166.189 166.147 
165.9 165.754 165.215 164.951 164.347 164.143 163.807 163.735 163.59 
165.997 166.084 165.812 165.671 165.129 164.821 164.217 164.008 163.662 
163.666 163.509 163.506 163.212 165.28 165.612 165.333 165.446 164.926 
164.751 164.146 163.92 163.54 163.491 163.323 163.338 163.072 162.95 
162.451 164.471 164.765 164.555 164.79 164.41 164.433 163.93 163.817 
163.428 163.376 163.155 163.151 162.869 162.775 162.296 162.094 161.503 
163.989 164.119 163.997 164.14 163.943 163.978 163.642 163.571 163.209 
163.179 162.899 162.927 162.611 162.557 162.077 161.91 161.329 161.124 
160.547 163.739 163.285 163.623 163.752 162.619 163.145 163.396 163.665 
163.714 161.643 162.361 162.71 163.22 163.286 163.511 163.403 160.43 
161.208 161.493 162.278 162.382 162.88 162.74 163.038 162.915 159.224 
159.918 160.088 160.885 160.988 161.7 161.622 162.163 162.072 162.525 
162.539 158.072 158.729 158.865 159.53 159.607 160.269 160.27 160.912 
160.928 161.547 161.619 162.158 162.202 156.852 157.546 157.669 158.332 
158.369 158.979 158.977 159.607 159.685 160.364 160.488 161.125 161.163 
161.701 161.63 155.652 156.301 156.392 157.067 157.077 157.715 157.677 
158.328 158.373 159.098 159.217 159.927 159.96 160.559 160.464 160.997 
160.863 154.609 155.152 155.214 155.804 155.824 156.422 156.407 157.024 
157.047 157.745 157.83 158.576 158.617 159.29 159.214 159.789 159.665 
160.206 160.095 163.709 163.403 163.412 163.103 162.875 162.93 162.453 
162.617 162.273 162.179 162.279 161.774 161.892 161.484 161.701 161.33 
161.384 161.543 161.108 161.238 160.888 161.016 160.652 160.749 160.285 
160.469 160.704 160.253 160.499 160.14 160.399 160.038 160.163 159.651 
159.675 159.126 159.465 159.734 159.218 159.502 159.019 159.412 158.987 
159.354 158.817 158.988 158.341 158.455 157.897 158.472 158.728 158.224 
158.446 157.905 158.193 157.71 158.111 157.63 157.969 157.364 157.565 
156.936 157.154 156.637 157.533 157.768 157.302 157.502 156.99 157.171 
156.674 156.924 156.486 156.792 156.314 156.547 155.981 156.169 155.639 
155.889 155.456 156.666 156.865 156.398 156.599 156.106 156.296 155.798 
155.995 155.534 155.775 155.339 155.572 155.089 155.265 154.768 154.955 
154.535 154.786 154.44 163.948 164.262 164.035 163.788 164.452 164.295 
164.107 163.827 163.388 164.541 164.364 164.106 164.007 163.639 163.299 
162.686 164.648 164.387 163.962 163.859 163.476 163.355 162.814 162.485 
161.819 164.686 164.453 163.938 163.708 163.21 163.082 162.579 162.433 
161.837 161.552 160.882 164.44 164.369 163.867 163.669 163.082 162.854 
162.288 162.142 161.607 161.448 160.839 160.558 159.876 163.936 163.978 
163.499 163.459 162.879 162.701 162.073 161.888 161.34 161.204 160.66 
160.454 159.815 159.519 158.852 163.397 163.435 162.983 163.005 162.49 
162.404 161.798 161.644 161.071 160.951 160.426 160.27 159.672 159.423 
158.769 158.495 157.879 162.949 162.949 162.539 162.535 162.085 162.018 
161.469 161.335 160.761 160.65 160.114 160.009 159.427 159.245 158.6 
158.374 157.763 157.543 156.998 162.588 161.861 162.223 162.173 160.936 
161.415 161.378 161.775 161.69 159.873 160.412 160.39 160.878 160.782 
161.198 161.044 158.728 159.313 159.27 159.808 159.698 160.184 160.025 
160.468 160.32 157.338 158.042 157.948 158.59 158.449 159.018 158.854 
159.374 159.233 159.735 159.639 155.833 156.515 156.391 157.12 156.998 
157.684 157.546 158.146 157.993 158.56 158.434 159.011 158.903 154.712 
155.14 155.026 155.595 155.54 156.214 156.176 156.822 156.714 157.285 
157.135 157.717 157.597 158.205 158.084 153.979 154.256 154.13 154.472 
154.401 154.9 154.897 155.5 155.468 156.036 155.931 156.459 156.362 
156.918 156.854 157.412 157.318 153.146 153.515 153.325 153.663 153.489 
153.885 153.78 154.293 154.239 154.812 154.758 155.308 155.26 155.786 
155.762 156.275 156.231 156.716 156.616 152.443 151.291 152.151 152.665 
150.363 151.038 151.629 152.395 152.882 150.129 150.406 150.916 151.463 
152.012 152.665 153.167 150.234 150.407 150.801 151.034 151.473 151.904 
152.411 153.021 153.581 149.934 150.365 150.767 151.03 151.36 151.57 
151.951 152.361 152.909 153.519 154.123 149.198 149.781 150.215 150.769 
151.133 151.461 151.751 152.03 152.471 152.94 153.555 154.128 154.715 
148.546 148.977 149.305 149.959 150.352 150.972 151.298 151.749 152.102 
152.545 153.066 153.607 154.202 154.736 155.258 148.239 148.436 148.612 
149.05 149.353 150.001 150.375 151.052 151.451 152.05 152.5 153.074 
153.592 154.179 154.694 155.239 155.698 148.158 148.241 148.368 148.543 
148.754 149.128 149.48 150.08 150.573 151.266 151.795 152.43 152.922 
153.51 153.987 154.584 155.051 155.621 156.053 156.071 155.02 155.607 
155.736 153.941 154.506 154.6 155.243 155.411 152.898 153.439 153.507 
154.102 154.251 154.918 155.115 151.749 152.36 152.425 153.03 153.139 
153.765 153.942 154.625 154.848 150.465 151.112 151.19 151.893 152.021 
152.662 152.796 153.451 153.661 154.376 154.625 149.393 149.884 149.988 
150.648 150.852 151.524 151.687 152.318 152.487 153.175 153.414 154.149 
154.379 148.758 149.044 149.151 149.604 149.788 150.377 150.537 151.175 
151.308 151.988 152.179 152.916 153.157 153.885 154.097 148.407 148.585 
148.63 148.91 148.937 149.362 149.377 149.964 150.022 150.728 150.876 
151.647 151.889 152.662 152.936 153.643 153.894 148.157 148.279 148.233 
148.406 148.28 148.531 148.387 148.809 148.797 149.424 149.586 150.332 
150.611 151.398 151.734 152.5 152.832 153.519 153.813 157.918 157.139 
157.904 158.672 156.364 157.139 157.929 158.697 159.422 155.512 156.321 
157.096 157.929 158.682 159.406 160.03 154.678 155.452 156.219 157.053 
157.862 158.657 159.355 160.003 160.619 154.084 154.739 155.515 156.221 
157.042 157.847 158.686 159.398 160.121 160.693 161.354 153.751 154.292 
155.053 155.622 156.366 157.081 157.933 158.733 159.569 160.244 160.94 
161.477 162.059 153.57 154.015 154.679 155.175 155.828 156.451 157.208 
157.976 158.785 159.578 160.288 160.974 161.524 162.071 162.486 153.423 
153.812 154.333 154.754 155.298 155.875 156.573 157.283 158.035 158.769 
159.443 160.169 160.728 161.397 161.818 162.36 162.663 153.177 153.591 
154.023 154.376 154.788 155.289 155.906 156.613 157.364 158.076 158.736 
159.369 159.921 160.554 161.03 161.626 161.978 162.473 162.721 158.616 
159.35 159.28 159.877 160.062 160.015 160.587 160.519 161.05 160.67 
160.687 161.273 161.22 161.742 161.64 162.104 161.277 161.301 161.991 
161.946 162.503 162.352 162.838 162.693 163.139 161.975 161.971 162.74 
162.736 163.386 163.199 163.696 163.487 164.015 163.813 164.219 162.598 
162.637 163.339 163.446 164.12 164.065 164.555 164.374 164.894 164.745 
165.257 164.933 165.165 162.981 163.106 163.692 163.887 164.506 164.632 
165.122 165.1 165.567 165.541 166.044 165.908 166.178 165.758 165.783 
163.149 163.342 163.891 164.117 164.719 164.913 165.456 165.539 166.032 
166.082 166.564 166.551 166.828 166.591 166.594 166.207 166.176 163.185 
163.424 163.974 164.249 164.867 165.111 165.696 165.848 166.376 166.478 
166.971 167.007 167.313 167.147 167.169 166.854 166.79 166.499 166.509 
158.435 159.685 158.907 158.574 160.837 160.114 159.728 158.965 158.554 
161.882 161.204 160.786 160.033 159.543 158.826 158.397 162.88 162.211 
161.798 161.05 160.542 159.787 159.338 158.663 158.282 163.812 163.147 
162.699 162.019 161.527 160.797 160.33 159.624 159.208 158.54 158.079 
164.605 163.968 163.428 162.824 162.347 161.731 161.243 160.572 160.045 
159.387 158.828 158.188 157.626 165.266 164.683 164.132 163.515 163.039 
162.476 162.003 161.387 160.784 160.113 159.461 158.835 158.262 157.693 
157.267 165.831 165.346 164.895 164.265 163.759 163.151 162.636 162.052 
161.442 160.79 160.13 159.472 158.941 158.357 158.009 157.487 157.263 
166.261 165.907 165.513 164.986 164.393 163.796 163.125 162.574 161.919 
161.371 160.763 160.174 159.699 159.123 158.821 158.29 158.084 157.578 
157.37 164.102 164.567 164.328 164.401 165.379 164.961 164.989 164.668 
164.688 166.096 165.811 165.848 165.444 165.455 165.019 164.961 166.268 
166.262 166.33 166.201 166.227 165.885 165.8 165.313 165.154 166.388 
166.323 166.418 166.43 166.496 166.422 166.334 166.054 165.824 165.411 
165.137 166.869 166.657 166.814 166.639 166.769 166.614 166.596 166.39 
166.206 165.919 165.615 165.246 164.866 167.214 167.158 167.337 167.205 
167.377 167.117 167.135 166.769 166.64 166.282 166.053 165.672 165.299 
164.862 164.393 167.099 167.248 167.36 167.505 167.653 167.658 167.644 
167.381 167.161 166.786 166.5 166.124 165.748 165.303 164.805 164.332 
163.838 166.751 166.951 166.999 167.259 167.365 167.614 167.584 167.609 
167.302 167.117 166.684 166.441 165.982 165.665 165.134 164.719 164.177 
163.768 163.327 
POINT_DATA 1002
SCALARS Distance double
LOOKUP_TABLE default
151.602 152.749 151.695 150.411 150.493 150.401 149.45 149.564 149.459 
149.849 148.985 149.158 149.007 149.386 150.015 148.894 149.192 148.894 
149.217 149.615 150.011 149.033 149.47 148.873 149.07 149.226 149.257 
149.387 149.308 149.787 148.981 148.97 148.953 148.748 148.601 148.659 
149.498 149.956 149.114 148.942 148.823 148.592 148.354 148.24 148.26 
149.509 149.951 149.11 148.835 148.628 148.424 148.263 148.159 148.103 
148.133 149.469 149.897 149.072 148.739 148.428 148.147 147.98 147.943 
147.952 147.983 148.078 153.076 151.941 153.208 151.887 153.265 150.593 
151.784 153.451 150.372 149.582 152.136 153.919 150.331 149.388 149.252 
153.124 154.706 151.188 149.634 149.23 149.44 154.301 155.591 152.754 
150.919 149.677 149.561 149.829 155.193 156.371 154.083 152.64 150.977 
150.032 150.043 150.18 155.932 157.131 154.923 153.918 152.55 151.148 
150.485 150.447 150.337 156.791 157.959 155.723 154.827 153.845 152.557 
151.388 150.822 150.614 150.32 158.121 156.97 158.228 157.136 158.141 
155.932 157.146 158.008 156.177 155.042 157.01 157.901 156.204 155.247 
153.972 156.687 157.558 155.869 155.073 153.951 152.59 156.281 157.095 
155.407 154.573 153.584 152.424 151.446 156.149 156.951 155.256 154.316 
153.296 152.223 151.366 150.877 156.272 157.085 155.382 154.419 153.402 
152.38 151.493 150.894 150.552 156.298 157.13 155.371 154.4 153.469 
152.632 151.855 151.137 150.565 150.169 149.624 149.989 149.389 150.551 
149.738 149.082 151.252 150.277 149.235 148.662 151.891 150.88 149.593 
148.646 148.308 152.457 151.363 150.119 148.937 148.342 148.128 153.201 
151.906 150.766 149.617 148.701 148.313 148.069 154.214 152.799 151.633 
150.623 149.526 148.742 148.396 148.13 155.332 153.991 152.751 151.768 
150.68 149.598 148.957 148.633 148.35 156.369 155.222 153.982 152.911 
151.849 150.708 149.852 149.399 149.063 148.712 149.197 149.011 148.846 
148.791 148.723 148.488 148.434 148.508 148.311 148.07 147.999 147.955 
147.927 147.765 147.72 147.693 147.3 147.21 147.331 147.403 147.6 
147.681 147.117 146.766 146.921 147.227 147.413 147.664 147.89 147.415 
146.975 146.906 147.226 147.474 147.581 147.771 148.181 147.765 147.361 
147.08 147.189 147.481 147.599 147.679 147.882 148.777 148.19 148.913 
148.217 149.221 147.688 148.419 149.756 147.463 147.167 149.018 150.422 
147.555 146.808 146.926 149.861 151.109 148.393 147.1 146.746 147.155 
150.668 151.861 149.466 148.178 147.197 147.055 147.409 151.494 152.695 
150.319 149.191 148.054 147.301 147.269 147.543 152.378 153.476 151.17 
149.995 148.873 147.911 147.493 147.613 147.81 153.176 154.112 152.093 
150.932 149.819 148.845 148.219 148.067 148.129 148.129 149.507 149.697 
150.569 150.88 151.667 149.974 152.049 152.679 151.222 150.421 153.158 
153.734 152.456 151.677 151.01 154.38 154.948 153.734 153.009 152.307 
151.682 155.743 156.299 155.106 154.436 153.775 153.104 152.441 157.137 
157.678 156.512 155.837 155.201 154.569 153.893 153.249 158.43 158.93 
157.883 157.242 156.531 155.844 155.198 154.583 154.01 159.554 159.997 
159.113 158.607 157.908 157.1 156.39 155.803 155.239 154.663 157.525 
156.62 157.794 156.797 157.975 155.426 156.958 158.232 155.594 154.199 
157.187 158.546 155.748 154.327 153.019 157.408 158.763 155.953 154.503 
153.101 151.83 157.623 158.997 156.171 154.797 153.424 152.066 150.865 
158.016 159.38 156.517 155.134 153.878 152.618 151.419 150.331 158.526 
159.757 157.089 155.641 154.35 153.187 152.104 151.032 149.96 157.898 
158.411 158.603 159.213 159.35 158.764 159.998 160.242 159.713 159.075 
160.79 161.276 160.648 160.274 159.501 161.624 162.419 161.418 161.445 
160.872 159.853 162.712 163.72 162.05 162.227 162.145 161.201 160.043 
164.123 165.032 162.945 162.633 162.927 162.488 161.381 160.319 165.476 
166.01 164.252 163.243 163.227 163.328 162.672 161.648 160.675 166.396 