# vtk DataFile Version 4.0
vtk output
ASCII
DATASET POLYDATA
POINTS 1002 float
-77.941 -114.779 73.8391 -77.6437 -115.895 73.3523 -77.6681 -115.38 72.5765 
-78.072 -114.265 73.056 -77.8673 -114.885 71.8839 -78.1867 -113.392 74.3808 
-78.4076 -113.674 72.3056 -78.2864 -114.312 71.2729 -78.3393 -112.663 73.5299 
-78.4587 -111.789 74.8606 -78.927 -112.996 71.7282 -78.9241 -113.706 70.7436 
-78.6823 -111.858 72.7259 -78.6368 -110.876 74.0231 -78.8794 -110.151 75.3594 
-79.6046 -112.392 71.3351 -79.7394 -113.139 70.3424 -79.3237 -111.257 72.2609 
-79.1227 -110.166 73.3464 -79.2864 -109.451 74.6706 -79.5172 -108.784 75.945 
-80.3838 -111.763 70.9768 -80.5993 -112.492 70.059 -80.2471 -110.859 72.0286 
-80.0551 -109.825 72.9838 -80.0491 -109.024 74.0981 -80.2397 -108.407 75.3773 
-80.3248 -107.744 76.5478 -81.2363 -110.993 70.6469 -81.4652 -111.763 69.8921 
-81.2328 -110.297 71.7276 -81.1634 -109.456 72.7043 -81.0093 -108.562 73.5825 
-81.031 -107.867 74.7516 -81.1157 -107.268 76.0017 -81.0885 -106.666 77.0731 
-82.2632 -110.335 70.5244 -82.4676 -111.148 69.8964 -82.237 -109.664 71.438 
-82.1777 -108.909 72.3801 -81.9245 -107.929 73.136 -81.7526 -107.077 74.1169 
-81.761 -106.477 75.362 -81.7287 -105.931 76.484 -81.6129 -105.383 77.4378 
-83.4238 -109.879 70.5928 -83.5674 -110.674 70.0123 -83.3251 -109.18 71.3253 
-83.1723 -108.418 72.1251 -82.8521 -107.395 72.8155 -82.5666 -106.429 73.6653 
-82.4796 -105.788 74.8129 -82.3901 -105.255 75.8923 -82.1916 -104.684 76.7944 
-81.9938 -104.16 77.6653 -84.4554 -109.398 70.6375 -84.5378 -110.181 70.1005 
-84.3331 -108.662 71.2594 -84.1286 -107.882 71.9272 -83.8013 -106.9 72.5397 
-83.4977 -105.949 73.296 -83.3775 -105.327 74.3696 -83.2643 -104.84 75.4251 
-82.9871 -104.247 76.2452 -82.6697 -103.652 77.0272 -82.4468 -103.209 77.8712 
-77.2258 -116.412 72.5097 -77.1608 -115.742 71.6613 -76.7186 -116.738 71.7748 
-76.5306 -115.917 70.6247 -76.3928 -117.312 70.8891 -77.252 -115.107 70.8246 
-76.2518 -116.59 69.2664 -76.5382 -118.393 69.7928 -76.5086 -115.261 69.2981 
-77.6917 -114.535 70.0107 -76.6829 -117.828 68.2275 -77.1252 -119.372 69.1501 
-76.3586 -116.12 67.7357 -77.1293 -114.856 68.3434 -78.6597 -114.089 69.5021 
-77.6262 -118.72 68.2943 -77.9559 -119.825 69.2504 -77.1858 -117.339 67.3581 
-77.396 -115.748 67.3022 -78.6866 -114.584 68.3178 -79.9716 -113.696 69.4097 
-78.6951 -119.053 68.8951 -78.9308 -120.217 69.4751 -78.5301 -117.997 68.0792 
-78.5856 -116.653 67.4841 -79.3593 -115.249 67.7443 -80.4862 -114.223 68.6374 
-81.1201 -113.147 69.3834 -79.7408 -119.361 69.2299 -79.9921 -120.749 69.5284 
-79.7675 -118.247 68.6497 -79.9707 -117.216 67.9346 -80.3905 -115.896 67.537 
-81.113 -114.626 67.8347 -81.7145 -113.621 68.5793 -82.0392 -112.457 69.2872 
-80.8207 -119.739 69.386 -81.0933 -121.15 69.606 -80.8201 -118.541 68.7991 
-81.0772 -117.718 67.9799 -81.3795 -116.707 67.3081 -81.7573 -115.212 67.1069 
-82.2182 -113.87 67.5437 -82.6087 -112.879 68.4134 -83.0205 -111.822 69.2964 
-81.9578 -120.079 69.5464 -82.1856 -121.374 69.7395 -81.9032 -118.896 68.9131 
-82.0813 -118.171 67.936 -82.322 -117.535 67.1338 -82.5524 -116.182 66.7874 
-82.8626 -114.389 66.8892 -83.2122 -113.092 67.5122 -83.5837 -112.234 68.497 
-84.0459 -111.282 69.4284 -83.1583 -120.821 69.7564 -83.0825 -119.57 69.2889 
-84.2097 -120.341 69.6017 -84.3394 -119.193 68.8579 -85.2748 -119.817 69.4468 
-83.1976 -118.626 68.2816 -85.4921 -118.699 68.6937 -86.3392 -119.119 69.4976 
-84.5561 -118.345 67.7881 -83.3968 -118.08 67.2431 -86.3725 -117.942 68.991 
-87.3895 -118.268 69.6416 -85.5971 -117.644 67.9356 -84.6971 -117.487 67.0975 
-83.5798 -117.084 66.7928 -87.2433 -116.988 69.3879 -88.4898 -117.214 69.7375 
-86.2894 -116.613 68.606 -85.6735 -116.275 67.5856 -84.906 -115.884 67.009 
-83.8404 -115.165 66.8094 -88.5301 -115.833 69.6058 -89.7672 -115.983 69.839 
-87.2494 -115.506 69.2914 -86.4645 -115.079 68.443 -85.9855 -114.587 67.5686 
-85.2103 -113.966 67.1855 -84.1329 -113.374 67.1554 -90.1488 -114.612 69.6925 
-91.137 -114.835 69.9679 -88.7935 -114.303 69.6735 -87.6217 -114.009 69.3401 
-86.9073 -113.678 68.5198 -86.2681 -113.187 67.8766 -85.3616 -112.658 67.7421 
-84.3792 -112.346 67.9855 -91.6596 -113.512 69.7634 -92.3168 -113.864 70.1219 
-90.5233 -113.067 69.7388 -89.2063 -112.741 69.8025 -88.1078 -112.587 69.4972 
-87.2276 -112.367 68.9356 -86.3477 -111.99 68.6194 -85.4672 -111.655 68.6874 
-84.7018 -111.457 69.0123 -92.777 -112.498 69.9151 -93.1222 -112.933 70.3569 
-92.013 -111.909 69.7145 -90.8576 -111.369 69.7707 -89.6141 -111.086 69.8453 
-88.4942 -110.954 69.7167 -87.4575 -110.76 69.4978 -86.5035 -110.537 69.4083 
-85.7263 -110.394 69.5222 -85.1073 -110.3 69.7912 -85.2975 -108.983 70.3924 
-85.8923 -108.897 70.0771 -85.9493 -107.457 70.5104 -86.6613 -108.833 69.894 
-86.7308 -107.212 70.1736 -86.6686 -105.874 70.5944 -87.6877 -108.87 69.8702 
-87.8343 -107.08 70.0211 -87.7313 -105.648 70.2891 -87.5935 -104.548 70.89 
-88.8566 -109.018 69.8849 -89.1251 -107.115 69.9519 -89.0562 -105.571 70.1286 
-88.7735 -104.354 70.6557 -88.5526 -103.44 71.4277 -90.0643 -109.21 69.8193 
-90.3867 -107.292 69.8192 -90.3888 -105.659 69.9917 -90.0841 -104.305 70.4673 
-89.7234 -103.247 71.2088 -89.404 -102.413 71.9931 -91.3475 -109.538 69.69 
-91.6729 -107.621 69.6673 -91.6678 -105.907 69.8732 -91.4076 -104.448 70.322 
-91.0683 -103.29 70.9955 -90.6972 -102.378 71.7792 -90.2743 -101.497 72.4836 
-92.5291 -110.162 69.6698 -92.9107 -108.25 69.6644 -92.9408 -106.448 69.8787 
-92.6874 -104.858 70.3318 -92.4042 -103.583 70.9447 -92.1008 -102.617 71.6762 
-91.702 -101.651 72.3808 -91.2071 -100.699 72.994 -93.2722 -110.936 69.9129 
-93.6855 -109.117 69.9491 -93.8643 -107.308 70.1208 -93.7471 -105.631 70.5365 
-93.5171 -104.182 71.151 -93.2539 -103.09 71.8528 -92.9211 -102.075 72.5059 
-92.5286 -100.946 73.0427 -92.0369 -100.068 73.5948 -93.5518 -111.583 70.389 
-93.899 -109.927 70.5038 -94.1735 -108.202 70.6759 -94.32 -106.564 70.9857 
-94.3187 -105.033 71.5198 -94.1363 -103.775 72.2114 -93.7874 -102.74 72.8592 
-93.4273 -101.578 73.3291 -93.0905 -100.418 73.7307 -92.6377 -99.7056 74.2736 
-85.1861 -108.116 70.9268 -85.7747 -106.492 71.054 -84.9963 -107.248 71.5543 
-86.4933 -104.934 71.2278 -85.5537 -105.514 71.6966 -84.7043 -106.271 72.1598 
-87.4305 -103.738 71.6694 -86.2617 -104.051 71.9798 -85.2393 -104.565 72.368 
-84.3846 -105.316 72.8452 -88.325 -102.631 72.2609 -87.1287 -102.924 72.5402 
-85.8808 -103.229 72.8352 -84.9581 -103.847 73.2856 -84.232 -104.694 73.8872 
-89.0868 -101.474 72.763 -87.9515 -101.694 73.1109 -86.6949 -102.013 73.4709 
-85.5574 -102.494 73.8776 -84.831 -103.352 74.4609 -84.1439 -104.26 75.0455 
-89.9011 -100.533 73.2392 -88.6749 -100.57 73.5964 -87.5406 -100.811 74.0165 
-86.3412 -101.207 74.4498 -85.3347 -101.858 74.9584 -84.6255 -102.81 75.5148 
-83.8549 -103.676 75.9385 -90.7949 -99.9265 73.86 -89.4309 -99.9235 74.2511 
-88.2647 -99.9969 74.6565 -87.1682 -100.248 75.0302 -85.9953 -100.67 75.451 
-85.0238 -101.327 75.9544 -84.2669 -102.222 76.3966 -83.4608 -103.037 76.7176 
-91.5831 -99.5744 74.6037 -90.2335 -99.5872 75.1032 -88.9599 -99.5154 75.573 
-87.8907 -99.5535 75.8719 -86.7563 -99.8755 76.1132 -85.595 -100.33 76.4887 
-84.7057 -100.971 76.9407 -83.9669 -101.813 77.3014 -83.1728 -102.585 77.5821 
-92.5091 -99.436 75.2826 -91.3021 -99.3372 75.8406 -92.1802 -99.2389 76.5748 
-90.885 -98.813 77.1914 -91.7566 -98.8549 77.9115 -89.9202 -99.1023 76.4789 
-90.479 -98.0939 78.3056 -91.4021 -98.6173 79.136 -89.613 -98.1432 77.7252 
-88.721 -98.7978 76.9019 -90.1428 -98.1166 79.2894 -91.0745 -99.0024 80.355 
-89.3285 -97.5573 78.6109 -88.5014 -97.9678 78.0157 -87.5901 -98.9941 77.0648 
-89.7889 -98.9507 80.5637 -90.6325 -99.6145 81.6375 -88.9538 -98.2095 79.6085 
-88.1337 -98.0143 78.9846 -87.1931 -98.6717 78.216 -86.2904 -99.5798 77.2628 
-89.3681 -99.5951 82.08 -90.1175 -99.9921 82.8662 -88.484 -99.171 81.1119 
-87.5353 -98.8116 80.3087 -86.5867 -98.8999 79.512 -85.7703 -99.4711 78.5446 
-85.1577 -100.175 77.6532 -88.9149 -99.9976 83.3993 -89.6494 -100.459 83.8952 
-88.0286 -99.6588 82.6832 -86.9741 -99.3717 81.912 -85.9354 -99.2627 81.0693 
-85.2016 -99.5639 80 -84.7602 -100.202 78.9375 -84.3623 -100.951 78.0592 
-88.4876 -100.703 84.339 -89.2514 -101.268 84.6776 -87.6314 -100.249 83.8272 
-86.6569 -99.909 83.1858 -85.6149 -99.729 82.4643 -84.7974 -99.8837 81.4816 
-84.3489 -100.434 80.297 -84.0055 -101.136 79.2411 -83.5744 -101.829 78.3557 
-88.1184 -101.608 85.0671 -88.8892 -102.171 85.3051 -87.2881 -101.139 84.6473 
-86.4631 -100.821 84.0263 -85.5846 -100.625 83.3724 -84.7115 -100.6 82.6551 
-84.0432 -100.894 81.6392 -83.5762 -101.423 80.4724 -83.1446 -101.972 79.4529 
-82.7359 -102.537 78.6001 -93.3665 -99.9445 74.6722 -93.2799 -99.6595 75.7758 
-93.9927 -100.566 75.2847 -93.936 -100.222 76.5226 -94.6634 -101.287 76.0683 
-92.9947 -99.4581 77.1932 -94.5026 -100.951 77.3877 -95.2988 -101.867 76.9307 
-93.6698 -99.958 78.0289 -92.6567 -99.2244 78.7096 -94.9144 -101.825 78.1762 
-95.6828 -102.632 77.8058 -94.1107 -100.806 78.8016 -93.3675 -99.8169 79.6041 
-92.3628 -99.2806 80.1451 -95.1429 -102.953 78.8434 -95.7607 -103.858 78.5703 
-94.3948 -102.027 79.3893 -93.7404 -100.817 80.2948 -93.0279 -100.025 81.0275 
-91.9191 -99.7529 81.3963 -95.1205 -104.22 79.4075 -95.6073 -105.341 79.1106 
-94.6068 -103.318 79.9246 -94.0255 -102.139 80.8849 -93.3643 -101.079 81.7045 
-92.4516 -100.555 82.1177 -91.277 -100.231 82.4767 -94.8691 -105.598 79.8804 
-95.3627 -106.873 79.4537 -94.5853 -104.54 80.4549 -94.2803 -103.432 81.4621 
-93.6911 -102.366 82.3909 -92.8251 -101.679 82.7657 -91.7674 -101.14 83.0528 
-90.6774 -100.66 83.5063 -94.6219 -107.072 80.2621 -95.1218 -108.266 79.6889 
-94.4 -105.935 80.9315 -94.318 -104.791 81.924 -93.9419 -103.708 82.9373 
-93.1652 -102.983 83.4054 -92.1765 -102.406 83.6217 -91.164 -101.762 84.0246 
-90.2043 -101.347 84.4273 -94.4669 -108.376 80.5648 -94.8577 -109.341 79.9117 
-94.2716 -107.397 81.307 -94.2399 -106.34 82.265 -93.9948 -105.2 83.2583 
[...]
CELL_DATA 2000
SCALARS Distance double
LOOKUP_TABLE default
156.218 155.556 155.845 155.729 154.993 155.22 155.014 155.234 154.986 
154.542 154.686 154.381 154.482 154.116 154.4 154.183 154.269 154.307 
154.016 153.946 153.552 153.621 153.459 153.737 153.703 154.085 154.084 
153.88 153.774 153.493 153.341 153.225 153.274 153.377 153.528 153.614 
153.897 153.873 153.712 153.72 153.573 153.452 153.285 153.21 153.202 
153.32 153.405 153.546 153.569 153.883 153.742 153.613 153.606 153.546 
153.504 153.288 153.191 152.962 153.048 152.982 153.22 153.179 153.386 
153.278 154.123 153.887 153.79 153.657 153.613 153.508 153.301 153.122 
152.817 152.754 152.626 152.767 152.75 152.923 152.826 152.974 152.815 
154.374 154.176 154.029 153.879 153.743 153.61 153.353 153.148 152.818 
152.665 152.531 152.554 152.601 152.655 152.63 152.628 152.503 152.542 
152.436 156.295 155.974 155.918 155.552 155.598 155.451 154.991 155.148 
154.924 155.601 155.107 154.377 154.407 154.165 154.525 154.448 156.207 
155.383 154.482 153.969 153.545 153.711 153.811 154.189 154.244 157.107 
156.248 155.487 154.545 154.007 153.521 153.612 153.738 154.092 154.219 
154.246 158.009 157.247 156.714 155.812 155.337 154.473 154.372 153.997 
154.34 154.308 154.533 154.343 154.206 158.916 158.185 157.712 157.003 
156.619 155.855 155.569 154.95 154.931 154.696 154.826 154.694 154.632 
154.334 154.166 159.825 159.098 158.581 157.926 157.562 156.965 156.664 
156.032 155.726 155.243 155.064 154.881 154.803 154.685 154.587 154.366 
154.319 160.678 159.99 159.467 158.784 158.401 157.834 157.605 157.032 
156.738 156.063 155.693 155.177 154.975 154.783 154.769 154.69 154.713 
154.562 154.565 160.967 161.066 160.607 159.795 161.202 160.739 159.952 
159.467 158.755 161.317 160.893 160.17 159.693 159.026 158.574 157.99 
161.354 160.987 160.274 159.881 159.219 158.841 158.219 157.821 157.141 
161.294 160.983 160.237 159.895 159.166 158.882 158.199 157.913 157.153 
156.779 156.006 161.192 160.909 160.21 159.849 159.113 158.771 158.079 
157.79 157.091 156.738 156.012 155.653 155.138 161.167 160.869 160.267 
159.89 159.25 158.834 158.223 157.81 157.239 156.809 156.257 155.813 
155.388 155.073 154.894 161.219 160.926 160.362 160 159.399 159.027 
158.468 158.081 157.561 157.132 156.641 156.197 155.803 155.438 155.217 
154.988 154.885 161.204 160.975 160.404 160.083 159.433 159.11 158.492 
158.223 157.658 157.383 156.833 156.52 156.024 155.751 155.392 155.223 
155 154.891 154.721 154.55 154.772 154.492 154.09 155.126 154.728 
154.269 153.91 153.434 155.723 155.183 154.718 154.201 153.727 153.318 
152.98 156.491 155.877 155.413 154.793 154.334 153.784 153.439 153.043 
152.875 157.284 156.667 156.194 155.554 155.095 154.494 154.119 153.613 
153.383 153.041 152.935 158.135 157.491 157.06 156.38 155.945 155.299 
154.93 154.35 154.103 153.642 153.533 153.168 153.086 159.13 158.451 
158.114 157.367 157.001 156.259 155.934 155.25 155.036 154.469 154.405 
153.931 153.908 153.428 153.35 160.136 159.513 159.229 158.509 158.186 
157.426 157.129 156.379 156.178 155.518 155.469 154.924 154.934 154.393 
154.325 153.762 153.675 160.95 160.454 160.165 159.562 159.227 158.571 
158.273 157.591 157.382 156.718 156.637 156.048 156.046 155.478 155.411 
154.799 154.666 154.105 154.054 154.347 153.907 154.106 153.987 153.224 
153.518 153.453 153.724 153.631 152.728 152.856 152.735 153.039 152.962 
153.283 153.138 152.636 152.552 152.357 152.412 152.272 152.518 152.437 
152.736 152.621 152.691 152.558 152.345 152.228 152.004 151.993 151.911 
152.109 152.194 152.408 152.47 152.727 152.565 152.302 152.214 151.958 
151.864 151.686 151.743 151.836 152.089 152.317 152.484 152.591 152.887 
152.606 152.268 152.126 151.883 151.802 151.604 151.58 151.532 151.73 
151.895 152.228 152.364 152.559 152.543 153.241 152.865 152.549 152.233 
152.027 151.819 151.692 151.557 151.467 151.466 151.493 151.723 151.844 
152.151 152.188 152.385 152.346 153.712 153.328 153.111 152.708 152.539 
152.173 152.061 151.787 151.712 151.527 151.49 151.457 151.531 151.688 
151.826 152.02 152.1 152.23 152.28 153.94 154.216 153.85 153.405 
154.405 154.076 153.588 153.283 152.821 154.502 154.116 153.516 153.316 
152.844 152.654 152.259 154.92 154.264 153.548 153.186 152.727 152.585 
152.267 152.131 151.858 155.734 154.921 154.217 153.5 153.039 152.629 
152.389 152.169 151.968 151.791 151.609 156.512 155.83 155.235 154.435 
153.932 153.253 152.934 152.48 152.27 151.978 151.826 151.633 151.588 
157.128 156.574 156.077 155.42 154.892 154.205 153.739 153.147 152.819 
152.396 152.239 151.962 151.941 151.76 151.842 157.789 157.231 156.797 
156.197 155.719 155.072 154.6 153.955 153.587 153.043 152.869 152.488 
152.48 152.211 152.251 152.064 152.128 158.512 157.955 157.558 156.958 
156.554 155.915 155.538 154.87 154.568 153.93 153.749 153.232 153.168 
152.796 152.769 152.494 152.464 152.286 152.308 154.385 155.282 154.745 
154.666 156.422 155.752 155.627 155.079 154.957 157.633 156.945 156.784 
156.136 156.032 155.402 155.235 158.798 158.138 157.982 157.316 157.218 
156.582 156.536 155.819 155.742 159.975 159.309 159.185 158.518 158.423 
157.79 157.786 157.168 157.176 156.467 156.457 161.11 160.464 160.343 
159.729 159.674 159.036 159.023 158.406 158.41 157.798 157.751 157.12 
157.079 162.151 161.523 161.371 160.838 160.845 160.296 160.329 159.694 
159.684 159.016 158.952 158.3 158.222 157.633 157.62 163.121 162.522 
162.374 161.851 161.909 161.437 161.551 160.993 161.013 160.339 160.268 
159.549 159.467 158.793 158.78 158.196 158.262 163.943 163.457 163.368 
162.884 162.982 162.531 162.684 162.176 162.204 161.598 161.495 160.838 
160.713 160.06 160.004 159.398 159.436 158.884 158.968 161.247 161.41 
161.052 160.466 161.614 161.195 160.565 160.193 159.557 161.858 161.425 
160.788 160.346 159.728 159.31 158.682 162.075 161.672 161.124 160.673 
160.113 159.609 159.027 158.518 157.899 162.52 161.994 161.557 161.09 
160.631 160.105 159.552 158.978 158.381 157.811 157.213 163.381 162.701 
162.296 161.678 161.24 160.66 160.093 159.511 158.881 158.324 157.711 
157.169 156.592 164.168 163.623 163.163 162.516 161.958 161.299 160.63 
160.003 159.306 158.765 158.116 157.618 156.981 156.496 155.884 164.386 
164.13 163.579 163.157 162.461 161.909 161.126 160.504 159.737 159.164 
158.497 157.99 157.341 156.83 156.155 155.694 155.088 164.204 164.071 
163.473 163.237 162.513 162.16 161.385 160.903 160.14 159.595 158.919 
158.394 157.768 157.222 156.564 156.008 155.396 154.937 154.464 161.688 
162.366 162.016 161.933 163.064 162.749 162.797 162.331 162.226 163.848 
163.53 163.689 163.271 163.258 162.679 162.5 164.672 164.348 164.531 
164.191 164.254 163.74 163.584 162.923 162.684 165.46 165.103 165.211 
164.963 165.084 164.715 164.666 164.049 163.856 163.152 163.069 166.322 
165.831 165.813 165.549 165.701 165.483 165.584 165.137 165.061 164.398 
164.329 163.704 163.835 167.393 166.748 166.622 166.177 166.283 166.071 
166.259 165.991 165.993 165.51 165.389 164.871 164.862 164.451 164.541 
168.527 167.881 167.7 167.086 167.046 166.688 166.814 166.598 166.63 
166.293 166.128 165.706 165.541 165.215 165.144 164.88 164.762 169.41 
168.935 168.727 168.138 167.923 167.445 167.378 167.105 167.115 166.856 
166.768 166.376 166.202 165.789 165.639 165.319 165.166 164.872 164.628 
169.674 169.617 169.508 169.036 169.338 169.335 168.961 168.771 168.247 
169.338 169.179 168.907 168.693 168.282 168.027 167.635 169.758 169.455 
169.207 168.818 168.426 168.104 167.77 167.556 167.309 169.968 169.838 
169.448 169.12 168.564 168.259 167.881 167.714 167.5 167.309 167.026 
169.555 169.674 169.131 169.035 168.307 168.164 167.684 167.706 167.542 
167.503 167.249 166.963 166.531 168.808 169.007 168.534 168.539 167.938 
167.803 167.359 167.382 167.265 167.402 167.241 167.126 166.668 166.358 
165.879 168.072 168.257 167.964 168.042 167.745 167.637 167.38 167.238 
167.117 167.121 166.99 166.973 166.571 166.381 165.839 165.647 165.254 
167.517 167.636 167.43 167.573 167.421 167.515 167.374 167.348 167.177 
167.089 166.861 166.758 166.392 166.222 165.728 165.534 165.074 164.985 
164.654 167.242 166.815 167.037 167.106 166.291 166.553 166.576 166.907 
167.079 165.683 166.004 165.993 166.303 166.443 166.889 167.09 164.935 
165.399 165.43 165.704 165.715 166.145 166.354 166.854 166.967 163.857 
164.525 164.603 165.045 164.961 165.359 165.44 166.006 166.184 166.645 
166.627 162.586 163.283 163.317 163.969 163.884 164.434 164.44 165.048 
165.231 165.801 165.862 166.228 166.095 161.456 162.015 162.008 162.612 
162.582 163.201 163.255 163.944 164.16 164.838 164.983 165.436 165.327 
165.621 165.423 160.48 160.96 160.962 161.451 161.481 162.007 162.128 
162.756 162.996 163.711 163.907 164.501 164.442 164.815 164.598 164.912 
164.757 159.521 159.997 159.996 160.481 160.526 161.038 161.168 161.732 
161.933 162.569 162.737 163.359 163.334 163.823 163.625 164.026 163.868 
164.284 164.27 167.272 167.254 167.157 166.904 167.127 167.113 166.83 
166.718 166.366 166.666 166.823 166.456 166.476 165.998 166 165.603 
165.793 166.117 165.703 165.885 165.32 165.413 164.876 165.065 164.681 
164.723 165.071 164.668 164.976 164.491 164.653 164.098 164.229 163.759 
164.021 163.609 163.787 164.021 163.586 163.886 163.468 163.765 163.307 
163.479 162.985 163.133 162.691 162.903 162.455 162.987 163.167 162.675 
162.861 162.362 162.669 162.22 162.561 162.087 162.339 161.85 162.053 
161.605 161.795 161.366 162.106 162.34 161.829 161.985 161.412 161.604 
161.089 161.397 160.942 161.291 160.827 161.134 160.677 160.945 160.528 
160.76 160.369 161.141 161.394 160.887 161.089 160.533 160.701 160.186 
160.383 159.946 160.197 159.794 160.076 159.673 159.967 159.58 159.873 
159.506 159.77 159.405 167.526 167.885 167.59 167.433 168.238 167.898 
167.614 167.444 167.278 168.476 168.18 167.769 167.542 167.274 167.18 
166.872 168.472 168.325 167.883 167.623 167.198 167.077 166.718 166.607 
166.078 168.145 168.191 167.794 167.633 167.086 166.911 166.425 166.354 
165.854 165.688 165.056 167.55 167.712 167.361 167.397 166.864 166.714 
166.114 166 165.483 165.409 164.884 164.696 164.13 166.943 167.054 
166.718 166.864 166.463 166.427 165.86 165.697 165.139 165.04 164.564 
164.482 163.996 163.831 163.309 166.521 166.513 166.161 166.256 165.94 
166.001 165.554 165.449 164.901 164.755 164.257 164.166 163.698 163.61 
163.102 162.966 162.411 166.204 166.159 165.767 165.778 165.431 165.498 
165.102 165.097 164.591 164.501 163.987 163.889 163.402 163.302 162.792 
162.681 162.144 162.011 161.453 165.855 165.042 165.453 165.41 164.101 
164.578 164.588 165.009 165.019 163.121 163.629 163.639 164.121 164.125 
164.602 164.617 161.923 162.555 162.521 163.097 163.057 163.604 163.59 
164.126 164.105 160.546 161.214 161.17 161.845 161.817 162.454 162.453 
163.042 163.058 163.585 163.557 159.484 159.964 160.003 160.541 160.616 
161.218 161.313 161.912 161.978 162.535 162.544 163.039 162.981 158.764 
159.163 159.298 159.657 159.79 160.211 160.336 160.837 160.895 161.438 
161.417 161.966 161.893 162.414 162.326 157.965 158.468 158.608 159.038 
159.106 159.499 159.5 159.917 159.848 160.326 160.221 160.77 160.68 
161.254 161.176 161.727 161.657 157.071 157.584 157.671 158.192 158.181 
158.666 158.554 158.996 158.821 159.256 159.091 159.579 159.493 160.045 
160.01 160.566 160.517 161.056 160.986 156.648 156.081 156.626 157.137 
155.367 155.967 156.428 157.053 157.576 154.601 155.199 155.657 156.287 
156.762 157.426 157.92 153.977 154.428 154.845 155.476 155.958 156.614 
157.102 157.743 158.202 153.701 153.89 154.135 154.639 155.117 155.805 
156.357 156.998 157.496 158.059 158.513 153.657 153.722 153.826 154.051 
154.393 154.955 155.515 156.229 156.792 157.419 157.916 158.448 158.94 
153.434 153.63 153.743 153.876 154.082 154.375 154.786 155.363 155.905 
156.619 157.166 157.836 158.364 158.935 159.453 152.95 153.264 153.413 
153.696 153.89 154.143 154.441 154.791 155.23 155.767 156.306 156.991 
157.566 158.268 158.818 159.432 159.94 152.532 152.774 152.919 153.245 
153.463 153.824 154.138 154.502 154.919 155.298 155.797 156.269 156.83 
157.442 158.026 158.7 159.255 159.881 160.387 160.458 159.265 159.961 
160.137 158.033 158.717 158.89 159.615 159.81 156.916 157.535 157.737 
158.408 158.659 159.336 159.544 155.947 156.505 156.7 157.313 157.548 
158.222 158.475 159.12 159.325 155.007 155.536 155.642 156.248 156.383 
157.07 157.29 158.021 158.262 158.921 159.139 154.081 154.532 154.54 
155.122 155.219 155.875 156.087 156.815 157.115 157.831 158.101 158.75 
159.002 153.322 153.626 153.603 154.066 154.224 154.796 155.086 155.721 
156.078 156.744 157.078 157.72 157.999 158.633 158.917 152.801 152.986 
152.988 153.301 153.483 153.943 154.243 154.814 155.141 155.771 156.072 
156.715 156.985 157.628 157.906 158.561 158.858 152.459 152.582 152.609 
152.83 152.96 153.301 153.481 153.963 154.167 154.774 154.994 155.663 
155.904 156.584 156.856 157.535 157.833 158.5 158.783 161.276 160.477 
161.24 161.915 159.558 160.392 161.118 161.878 162.526 158.622 159.439 
160.178 161.022 161.717 162.46 163.071 157.809 158.562 159.301 160.099 
160.846 161.619 162.256 162.965 163.556 157.096 157.839 158.627 159.335 
160.121 160.834 161.545 162.194 162.798 163.452 164.051 156.543 157.215 
158.061 158.73 159.524 160.206 160.982 161.607 162.272 162.815 163.424 
164.006 164.61 156.381 156.832 157.66 158.217 158.981 159.619 160.403 
161.083 161.817 162.381 162.995 163.495 164.098 164.63 165.202 156.573 
156.833 157.566 157.941 158.625 159.107 159.814 160.472 161.235 161.901 
162.549 163.079 163.626 164.145 164.697 165.221 165.699 156.813 157.034 
157.674 157.945 158.532 158.836 159.389 159.884 160.562 161.256 161.949 
162.577 163.117 163.636 164.112 164.654 165.107 165.627 165.964 161.908 
162.536 162.493 163.047 163.157 163.131 163.713 163.672 164.256 163.752 
163.772 164.4 164.366 164.987 164.918 165.453 164.302 164.392 165.111 
165.098 165.743 165.665 166.22 166.077 166.483 164.793 164.94 165.753 
165.834 166.556 166.479 167.065 166.884 167.337 167.078 167.406 165.237 
165.375 166.129 166.359 167.126 167.243 167.888 167.788 168.279 168.009 
168.364 168.02 168.298 165.703 165.759 166.304 166.536 167.155 167.515 
168.136 168.392 168.887 168.875 169.202 168.961 169.184 168.866 169.056 
166.149 166.173 166.572 166.648 167.063 167.338 167.837 168.274 168.771 
169.129 169.486 169.571 169.767 169.621 169.754 169.507 169.597 166.397 
166.51 166.887 166.925 167.281 167.343 167.761 167.979 168.478 168.833 
169.301 169.596 169.895 169.981 170.119 170.038 170.096 169.903 169.871 
161.729 162.887 162.154 161.85 164.078 163.333 163.024 162.274 161.953 
165.232 164.518 164.177 163.428 163.074 162.349 162.022 166.221 165.594 
165.251 164.549 164.183 163.458 163.112 162.401 162.063 167.098 166.508 
166.183 165.554 165.207 164.539 164.179 163.477 163.089 162.385 161.988 
167.974 167.388 167.055 166.441 166.062 165.457 165.035 164.424 163.942 
163.308 162.819 162.203 161.791 168.745 168.232 167.868 167.279 166.811 
166.209 165.67 165.101 164.522 163.973 163.415 162.894 162.454 161.969 
161.666 169.274 168.873 168.437 167.946 167.376 166.831 166.2 165.642 
165.026 164.475 163.926 163.414 162.999 162.559 162.288 161.881 161.675 
169.53 169.238 168.71 168.309 167.639 167.196 166.524 166.073 165.499 
165.01 164.54 164.008 163.641 163.144 162.885 162.469 162.265 161.878 
161.651 167.692 168.303 168.042 168.171 169.092 168.772 168.913 168.573 
168.626 169.778 169.515 169.54 169.259 169.214 168.921 168.828 170.022 
169.952 169.789 169.64 169.418 169.273 169.066 168.915 168.709 169.752 
169.885 169.719 169.692 169.468 169.342 169.131 169 168.799 168.66 
168.377 169.452 169.563 169.614 169.635 169.653 169.512 169.458 169.202 
169.085 168.813 168.58 168.283 167.889 169.58 169.536 169.753 169.72 
169.899 169.811 169.832 169.62 169.474 169.195 168.934 168.591 168.199 
167.795 167.346 169.898 169.858 170.058 169.997 170.109 170.045 169.958 
169.833 169.517 169.37 168.957 168.799 168.355 168.098 167.644 167.296 
166.901 169.955 170.071 170.18 170.207 170.205 170.168 169.997 169.851 
169.454 169.245 168.737 168.595 168.118 168.036 167.616 167.482 167.109 
166.876 166.541 
POINT_DATA 1002
SCALARS Distance double
LOOKUP_TABLE default
156.166 156.61 155.883 155.489 155.298 155.536 154.877 154.807 154.681 
154.746 154.379 154.444 153.894 153.779 154.03 154.105 154.264 153.57 
153.197 153.407 153.676 153.888 154.11 153.653 153.263 153.223 153.507 
153.663 153.628 153.96 153.626 153.448 153.152 153.238 153.475 153.575 
153.644 154.05 153.572 153.445 152.978 152.761 152.954 153.113 153.152 
153.972 154.351 153.76 153.513 152.949 152.529 152.594 152.709 152.661 
152.637 154.211 154.565 153.911 153.563 152.988 152.524 152.546 152.666 
152.518 152.334 152.341 156.395 155.478 156.052 154.826 155.918 154.672 
154.581 156.309 153.729 154.099 155.265 157.05 153.605 153.311 154.03 
156.431 157.842 154.767 153.653 153.882 154.371 157.471 158.715 156.242 
155.006 154.466 154.68 154.554 158.369 159.665 157.297 156.322 155.384 
154.949 154.853 154.492 159.262 160.55 158.114 157.28 156.396 155.402 
154.848 154.713 154.559 160.161 161.326 158.98 158.113 157.425 156.397 
155.286 154.795 154.803 154.781 161.416 160.247 161.535 160.436 161.637 
159.176 160.608 161.708 159.47 158.435 160.649 161.709 159.569 158.621 
157.605 160.593 161.582 159.472 158.461 157.519 156.34 160.555 161.443 
159.485 158.386 157.396 156.363 155.339 160.616 161.446 159.636 158.636 
157.653 156.673 155.74 155.089 160.72 161.495 159.755 158.815 157.961 
157.073 156.183 155.491 155.076 160.715 161.406 159.78 158.769 157.9 
157.122 156.31 155.585 155.106 154.821 154.268 154.393 153.616 154.692 
153.729 152.962 155.281 154.19 153.269 152.715 156.049 154.917 153.901 
153.152 152.764 156.839 155.704 154.669 153.792 153.211 152.833 157.744 
156.607 155.53 154.596 153.928 153.466 152.964 158.848 157.757 156.646 
155.629 154.888 154.404 153.859 153.231 159.918 158.927 157.879 156.867 
156.041 155.482 154.919 154.2 153.598 160.733 159.848 158.911 158.032 
157.25 156.624 156.035 155.282 154.518 154.047 153.843 153.099 153.423 
152.511 152.6 152.868 152.435 152.13 152.091 152.358 152.48 152.124 
151.764 151.882 152.347 152.388 152.044 151.711 151.588 152.044 152.565 
152.47 151.951 151.659 151.448 151.565 152.081 152.45 152.897 152.283 
151.852 151.57 151.39 151.53 151.927 152.192 153.494 152.949 152.39 
151.945 151.627 151.457 151.611 151.944 152.168 154.284 153.777 154.593 
153.863 154.762 153.13 153.728 155.02 152.961 152.448 154.047 155.694 
152.873 152.352 152.006 155.025 156.487 153.582 152.665 152.155 151.748 
155.981 157.071 154.703 153.518 152.625 152.037 151.699 156.673 157.643 
155.58 154.399 153.306 152.533 152.154 151.975 157.38 158.347 156.341 
155.241 154.165 153.294 152.784 152.508 152.276 158.14 159.054 157.157 
156.166 155.209 154.333 153.622 153.102 152.701 152.418 154.828 155.126 
155.895 156.239 157.135 155.521 157.464 158.302 156.652 155.927 158.652 
159.444 157.835 157.17 156.515 159.835 160.647 159.071 158.37 157.823 
157.194 160.911 161.776 160.286 159.672 159.03 158.38 157.683 161.886 
162.795 161.321 160.935 160.385 159.641 158.839 158.148 162.889 163.682 
162.351 162.06 161.663 160.993 160.171 159.395 158.8 163.803 164.346 
163.414 163.186 162.811 162.141 161.354 160.617 160.003 159.506 161.606 
160.82 161.806 160.963 162.076 159.916 161.241 162.264 160.165 159.108 
161.517 162.45 160.619 159.561 158.418 162.02 163.094 161.138 160.14 
158.96 157.769 162.992 164.06 161.88 160.706 159.438 158.248 157.118 
163.821 164.626 162.68 161.319 159.872 158.612 157.492 156.336 163.948 
164.586 162.974 161.736 160.331 159.014 157.87 156.664 155.467 162.056 
162.39 162.657 163.203 163.335 162.801 164.055 164.159 163.813 163.166 
164.834 165.029 164.709 164.247 163.345 165.451 165.905 165.354 165.195 
164.563 163.668 166.143 166.921 165.85 165.906 165.659 164.969 164.355 
167.184 168.079 166.543 166.463 166.415 165.91 165.293 164.941 168.384 
169.122 167.536 167.064 166.922 166.559 165.919 165.416 165.077 169.304 