# vtk DataFile Version 4.0
vtk output
ASCII
DATASET POLYDATA
POINTS 1002 float
-78.8108 -113.821 72.0256 -78.5556 -115.223 71.4472 -78.4995 -114.66 70.6512 
-78.803 -113.048 71.2344 -78.5164 -113.853 69.8973 -78.9745 -112.027 72.7396 
-78.9281 -112.179 70.5037 -78.7538 -113.03 69.1927 -79.1102 -111.212 71.9362 
-79.4096 -110.393 73.3805 -79.4487 -111.555 69.8543 -79.3467 -112.426 68.5897 
-79.4844 -110.543 71.1707 -79.8062 -109.795 72.537 -80.267 -109.236 73.8757 
-80.3429 -111.149 69.3256 -80.187 -111.914 68.1504 -80.316 -110.128 70.4809 
-80.4181 -109.254 71.718 -80.8419 -108.693 73.0637 -81.1572 -108.023 74.3563 
-81.2414 -110.574 68.9268 -81.0822 -111.302 67.8385 -81.3226 -109.621 69.9441 
-81.313 -108.64 71.0218 -81.4605 -107.883 72.2926 -81.6973 -107.166 73.6212 
-81.7284 -106.248 74.7463 -82.0801 -109.822 68.5799 -82.062 -110.629 67.5931 
-82.1736 -108.851 69.5506 -82.2616 -107.888 70.5583 -82.2662 -107.021 71.7127 
-82.2837 -106.183 72.909 -82.2586 -105.247 73.9773 -82.1742 -104.352 74.8975 
-83.0729 -109.111 68.313 -83.1439 -109.934 67.4779 -83.0501 -108.099 69.2068 
-83.186 -107.159 70.2005 -83.2748 -106.348 71.3391 -83.164 -105.483 72.4062 
-82.9817 -104.5 73.2551 -82.8255 -103.562 74.0753 -82.7533 -102.879 75.0008 
-84.1803 -108.459 68.2356 -84.1937 -109.216 67.5312 -84.1049 -107.49 68.9798 
-84.1512 -106.528 69.8325 -84.3117 -105.746 70.9125 -84.2633 -104.945 72.0095 
-83.9518 -103.967 72.7794 -83.6444 -102.979 73.3962 -83.4768 -102.21 74.2269 
-83.4235 -101.731 75.2492 -85.2205 -107.82 68.266 -85.131 -108.512 67.626 
-85.1952 -106.933 68.8997 -85.1211 -105.936 69.5606 -85.1738 -105.069 70.4184 
-85.2213 -104.292 71.4729 -84.9745 -103.38 72.3722 -84.5508 -102.384 72.9778 
-84.2498 -101.547 73.6278 -84.1155 -100.984 74.5414 -84.0505 -100.657 75.5618 
-77.9766 -115.906 70.5203 -77.9477 -115.307 69.677 -77.199 -116.259 69.6401 
-77.2597 -115.605 68.6385 -76.5624 -116.579 68.5997 -78.0294 -114.5 68.8066 
-76.6631 -115.878 67.2885 -76.2215 -117.22 67.346 -77.3802 -114.85 67.4937 
-78.3213 -113.702 67.9402 -76.2859 -116.488 65.7398 -76.1568 -118.199 66.152 
-76.7717 -115.183 65.7935 -77.7351 -114.152 66.3633 -78.9745 -113.048 67.2364 
-76.3493 -117.526 64.4916 -76.5409 -119.256 65.2674 -76.5004 -115.83 64.1386 
-77.2984 -114.609 64.5698 -78.5685 -113.535 65.6289 -79.926 -112.442 66.8351 
-77.0753 -118.726 63.8942 -77.4254 -120.067 64.8056 -76.9065 -116.916 63.2931 
-77.3744 -115.343 63.352 -78.4497 -114.108 64.2099 -79.7615 -112.934 65.4893 
-81.0314 -111.814 66.6777 -78.2314 -119.593 63.9361 -78.531 -120.452 64.8238 
-77.9663 -118.106 63.3718 -78.1347 -116.381 63.2419 -78.8886 -114.9 63.6394 
-79.952 -113.559 64.5576 -81.1228 -112.304 65.6605 -82.2372 -111.14 66.6449 
-79.4533 -119.926 64.3704 -79.6647 -120.534 65.18 -79.2782 -118.904 63.8378 
-79.3446 -117.377 63.6701 -79.8557 -115.767 63.7519 -80.6569 -114.288 64.1552 
-81.5563 -112.9 64.9332 -82.5083 -111.618 65.855 -83.4109 -110.4 66.7334 
-80.6182 -119.935 64.908 -80.7863 -120.525 65.6141 -80.5616 -119.219 64.2996 
-80.6675 -118.057 63.9747 -81.0541 -116.521 63.8595 -81.6755 -114.951 63.9269 
-82.3508 -113.531 64.3748 -83.033 -112.22 65.1838 -83.7388 -110.915 66.0779 
-84.4467 -109.647 66.9019 -81.802 -120.057 65.63 -81.78 -119.409 64.917 
-82.9447 -119.502 65.6232 -83.1567 -118.799 64.8671 -84.225 -118.904 65.6422 
-81.9598 -118.6 64.2734 -84.6272 -118.124 64.9276 -85.575 -118.236 65.7968 
-83.5966 -117.903 64.149 -82.3243 -117.308 63.8557 -86.0162 -117.324 65.1639 
-86.8837 -117.378 66.0436 -85.2154 -117.129 64.2351 -84.1019 -116.459 63.6898 
-82.8324 -115.627 63.6885 -87.2965 -116.285 65.4839 -88.1457 -116.289 66.3572 
-86.6339 -116.173 64.5891 -85.7149 -115.55 63.9672 -84.5125 -114.669 63.748 
-83.3684 -114.021 63.9452 -88.5496 -115.029 65.9961 -89.3769 -115.096 66.7716 
-87.8765 -114.917 65.1875 -87.0745 -114.452 64.6829 -85.9532 -113.714 64.4624 
-84.8444 -113.125 64.4402 -83.8816 -112.677 64.7141 -89.7947 -113.722 66.6267 
-90.526 -113.897 67.1675 -89.0482 -113.491 66.0223 -88.2337 -113.081 65.593 
-87.2227 -112.537 65.4223 -86.1806 -112.106 65.3363 -85.257 -111.747 65.3817 
-84.4218 -111.305 65.6677 -91.017 -112.448 67.0635 -91.5865 -112.697 67.4511 
-90.2869 -112.113 66.7015 -89.3867 -111.654 66.3893 -88.4115 -111.143 66.1677 
-87.5053 -110.756 66.0139 -86.6525 -110.481 65.9727 -85.7831 -110.152 66.1566 
-85.0145 -109.825 66.5144 -92.1648 -111.212 67.2911 -92.5695 -111.531 67.6877 
-91.5983 -110.827 66.9864 -90.7343 -110.342 66.7764 -89.7071 -109.81 66.5846 
-88.821 -109.349 66.3762 -88.0645 -109.013 66.267 -87.2133 -108.753 66.4085 
-86.338 -108.562 66.7862 -85.6473 -108.492 67.2355 -86.1356 -107.37 68.0229 
-86.7423 -107.234 67.5411 -87.1652 -106.062 68.2693 -87.5433 -107.161 67.0228 
-87.8339 -105.837 67.7627 -88.0988 -104.526 68.405 -88.5129 -107.272 66.6474 
-88.7045 -105.693 67.3197 -88.8336 -104.254 67.9658 -88.9992 -102.884 68.5443 
-89.4131 -107.575 66.5315 -89.7698 -105.773 67.001 -89.8104 -104.063 67.5605 
-89.8668 -102.568 68.0503 -89.9356 -101.404 68.7229 -90.2889 -108 66.6121 
-90.8325 -106.038 66.7962 -91.002 -104.02 67.1201 -90.951 -102.272 67.436 
-90.8749 -101.03 68.0353 -90.7001 -100.073 68.9352 -91.3585 -108.528 66.7325 
-91.9359 -106.466 66.7109 -92.1973 -104.197 66.7932 -92.1506 -102.137 66.8996 
-91.9639 -100.731 67.3324 -91.6499 -99.7318 68.2289 -91.2944 -98.7367 69.1677 
-92.3655 -109.117 66.888 -93.0315 -107.127 66.7747 -93.3483 -104.821 66.7506 
-93.3271 -102.487 66.7765 -93.1625 -100.768 67.039 -92.8482 -99.6812 67.7626 
-92.4096 -98.6276 68.6486 -92.0388 -97.5787 69.4091 -92.9706 -109.654 67.2018 
-93.7393 -107.876 67.0809 -94.241 -105.825 66.9999 -94.3953 -103.501 66.9926 
-94.3553 -101.385 67.1668 -94.188 -99.9708 67.6899 -93.8277 -98.9085 68.4181 
-93.3678 -97.7832 69.0899 -92.9491 -96.8722 69.7602 -93.3014 -110.112 67.6627 
-94.0333 -108.518 67.6094 -94.6615 -106.777 67.5098 -95.0998 -104.782 67.4018 
-95.3109 -102.571 67.435 -95.3268 -100.657 67.7785 -95.1629 -99.3307 68.3727 
-94.8086 -98.2499 68.9959 -94.3167 -97.2586 69.6068 -93.7666 -96.5929 70.3389 
-86.2413 -106.553 68.663 -87.1999 -105.037 68.8808 -86.1488 -105.5 69.2666 
-88.0617 -103.332 69.0243 -86.9812 -103.83 69.5179 -85.9795 -104.418 69.9416 
-88.9735 -101.758 69.2749 -87.8338 -102.176 69.796 -86.75 -102.766 70.301 
-85.9539 -103.521 70.8521 -89.8362 -100.396 69.6052 -88.7933 -100.738 70.1713 
-87.6637 -101.229 70.701 -86.6969 -101.891 71.2638 -85.863 -102.633 71.8675 
-90.4667 -98.984 69.8571 -89.577 -99.3231 70.5131 -88.5796 -99.735 71.0979 
-87.5531 -100.327 71.6749 -86.5069 -100.956 72.2364 -85.4793 -101.625 72.6804 
-91.12 -97.6291 70.0327 -90.2131 -97.9423 70.7793 -89.2446 -98.2584 71.4751 
-88.2717 -98.739 72.0768 -87.2217 -99.3957 72.6203 -86.0796 -100.004 73.0594 
-85.0629 -100.709 73.3601 -91.9575 -96.7244 70.3206 -90.9741 -96.9167 71.1222 
-89.902 -97.0913 71.9376 -88.8277 -97.288 72.5515 -87.8184 -97.8748 73.0175 
-86.7538 -98.6095 73.4567 -85.7011 -99.2704 73.8556 -84.8299 -100.073 74.2011 
-92.755 -96.3481 70.8654 -91.7373 -96.3447 71.6595 -90.6448 -96.3035 72.5262 
-89.4862 -96.1606 73.1525 -88.3933 -96.4547 73.5127 -87.3631 -97.2846 73.8642 
-86.3468 -98.0956 74.3201 -85.4393 -98.8203 74.7929 -84.6937 -99.7044 75.2105 
-93.7504 -96.3604 71.4956 -92.6303 -96.1471 72.2152 -93.5625 -96.2558 72.9943 
-92.34 -95.8261 73.7809 -93.4232 -96.1285 74.5659 -91.4912 -95.8562 73.0968 
-92.1498 -95.5079 75.2376 -93.4036 -96.1544 76.0288 -91.1408 -95.0997 74.5073 
-90.3238 -95.3596 73.8091 -92.0596 -95.7568 76.5563 -93.2442 -96.5211 77.3687 
-90.9213 -94.8588 75.7373 -90.0211 -94.5482 74.9395 -89.1533 -95.2273 74.1676 
-91.8689 -96.4451 77.8786 -92.9417 -97.0523 78.6559 -90.741 -95.6252 77.012 
-89.7906 -94.8784 76.1297 -88.8601 -94.9976 75.2491 -87.991 -96.0088 74.4537 
-91.6852 -97.038 79.2384 -92.7442 -97.651 79.9278 -90.4929 -96.5066 78.4261 
-89.472 -95.9458 77.5832 -88.5024 -95.7079 76.699 -87.5466 -96.1714 75.7601 
-86.8421 -97.0949 74.9311 -91.5208 -97.7018 80.4593 -92.4944 -98.4447 80.9986 
-90.28 -97.1124 79.7906 -89.1057 -96.7032 79.0662 -88.0641 -96.4842 78.2952 
-87.0596 -96.6143 77.3719 -86.2919 -97.1469 76.362 -85.8249 -97.9255 75.4939 
-91.1392 -98.6629 81.3517 -91.9616 -99.3885 81.7433 -90.0373 -97.9797 80.8688 
-88.8283 -97.4484 80.3052 -87.7123 -97.1304 79.654 -86.6949 -97.0839 78.8282 
-85.8639 -97.3713 77.8143 -85.3513 -97.9748 76.8242 -85.0238 -98.7921 75.9835 
-90.6053 -99.6686 82.0401 -91.3268 -100.288 82.3441 -89.706 -99.0809 81.6727 
-88.627 -98.5455 81.2438 -87.5157 -98.1009 80.7185 -86.5167 -97.8641 80.0016 
-85.6854 -97.9454 79.0518 -85.08 -98.3567 78.0423 -84.6867 -99.0311 77.1628 
-84.3731 -99.8396 76.3655 -94.8619 -96.7995 70.6373 -94.809 -96.5709 71.967 
-95.874 -97.0834 71.1559 -95.7903 -96.8934 72.6151 -96.5453 -97.6736 71.8543 
-94.6557 -96.5145 73.5716 -96.41 -97.6374 73.3498 -96.783 -98.9461 72.6357 
-95.6103 -96.9411 74.2733 -94.5966 -96.5479 75.2282 -96.6329 -99.0347 74.1162 
-96.7366 -100.697 73.3773 -96.1888 -97.8548 75.0465 -95.4622 -97.1742 75.996 
-94.4887 -96.7616 76.7754 -96.6616 -100.748 74.8858 -96.6887 -102.435 74.07 
-96.5658 -99.2593 75.873 -96.0409 -98.2512 76.804 -95.1623 -97.6133 77.5249 
-94.0938 -97.2227 78.1212 -96.6791 -102.505 75.5959 -96.8434 -104.088 74.7737 
-96.7988 -100.842 76.66 -96.6012 -99.5991 77.6157 -95.7394 -98.8325 78.2339 
-94.6405 -98.2587 78.7762 -93.6877 -97.8529 79.4003 -96.7553 -104.246 76.1891 
-97.0614 -105.575 75.446 -96.7696 -102.598 77.2567 -96.8438 -101.104 78.3395 
-96.313 -100.172 78.9899 -95.2239 -99.544 79.4296 -94.2363 -98.98 80.0463 
-93.4452 -98.6058 80.65 -96.8036 -105.74 76.7106 -97.0825 -106.772 76.0352 
-96.64 -104.413 77.6856 -96.6629 -102.913 78.8443 -96.4757 -101.706 79.7004 
-95.7503 -100.899 80.1761 -94.7958 -100.229 80.691 -93.9455 -99.725 81.2589 
-93.0449 -99.4807 81.6062 -96.7399 -106.972 77.2306 -96.9229 -107.864 76.5635 
-96.5644 -105.988 78.1021 -96.4679 -104.776 79.1703 -96.3204 -103.506 80.1277 
[...]
CELL_DATA 2000
SCALARS Distance double
LOOKUP_TABLE default
155.21 154.323 154.688 154.449 153.446 153.768 153.54 153.856 153.655 
152.883 153.04 152.863 153.042 152.935 153.231 153.266 152.68 152.72 
152.619 152.605 152.508 152.659 152.751 153.061 153.168 152.558 152.612 
152.529 152.495 152.324 152.351 152.301 152.551 152.585 152.893 152.749 
152.412 152.451 152.314 152.337 152.127 152.149 151.976 152.102 151.996 
152.23 152.029 152.24 151.884 152.367 152.312 152.128 152.09 151.905 
151.919 151.805 151.841 151.732 151.762 151.553 151.586 151.271 151.357 
151.074 152.441 152.328 152.147 152.002 151.82 151.761 151.703 151.733 
151.698 151.662 151.465 151.327 151.001 150.911 150.64 150.716 150.605 
152.535 152.437 152.288 152.112 151.895 151.749 151.604 151.618 151.554 
151.604 151.415 151.312 150.937 150.764 150.409 150.374 150.2 150.354 
150.334 155.353 155.033 155.006 154.498 154.486 154.559 154.137 154.103 
153.607 154 153.956 153.498 153.607 153.211 153.245 152.928 153.855 
153.517 152.873 152.898 152.513 152.717 152.504 152.681 152.595 154.226 
153.548 152.722 152.385 151.916 152.019 151.888 152.17 152.192 152.442 
152.471 155.064 154.196 153.388 152.592 152.052 151.714 151.621 151.693 
151.829 152.048 152.205 152.379 152.426 156.054 155.246 154.64 153.651 
153.143 152.342 152.217 151.835 152 151.922 152.148 152.212 152.377 
152.418 152.458 156.944 156.296 155.893 155.046 154.635 153.723 153.506 
152.802 152.839 152.418 152.569 152.375 152.536 152.473 152.576 152.52 
152.543 157.721 157.175 156.873 156.24 155.92 155.163 154.87 154.126 
153.959 153.375 153.345 152.959 153.018 152.788 152.86 152.711 152.739 
152.627 152.624 158.024 158.205 157.817 157.213 158.418 158.02 157.44 
157.021 156.362 158.69 158.276 157.713 157.275 156.621 156.126 155.393 
158.926 158.553 158.003 157.577 156.905 156.385 155.623 155.125 154.436 
159.014 158.716 158.178 157.838 157.186 156.678 155.881 155.345 154.649 
154.237 153.73 159.017 158.743 158.201 157.934 157.339 156.931 156.191 
155.649 154.965 154.5 154.034 153.675 153.348 159.006 158.744 158.196 
157.926 157.344 157.024 156.363 155.938 155.299 154.867 154.393 154.024 
153.679 153.362 153.103 158.939 158.727 158.195 157.925 157.325 157.014 
156.357 156.026 155.396 155.093 154.574 154.305 153.881 153.624 153.281 
153.078 152.863 158.81 158.638 158.138 157.907 157.319 157.007 156.34 
156.001 155.35 155.076 154.523 154.324 153.853 153.679 153.283 153.143 
152.881 152.804 152.677 152.618 152.742 152.606 152.477 153.035 152.756 
152.548 152.405 152.167 153.548 153.125 152.831 152.533 152.25 152.027 
151.696 154.213 153.71 153.392 152.935 152.584 152.197 151.822 151.544 
151.232 155.036 154.452 154.135 153.578 153.159 152.622 152.126 151.712 
151.314 151.111 150.855 156.036 155.384 155.061 154.396 153.929 153.249 
152.646 152.06 151.549 151.216 150.912 150.753 150.504 157.047 156.432 
156.137 155.42 154.971 154.144 153.536 152.718 152.185 151.602 151.329 
150.972 150.798 150.49 150.279 157.884 157.381 157.132 156.505 156.142 
155.325 154.814 153.852 153.352 152.505 152.261 151.668 151.602 151.09 
150.985 150.483 150.385 158.569 158.144 157.933 157.424 157.147 156.491 
156.112 155.251 154.806 153.87 153.549 152.788 152.684 152.091 152.042 
151.447 151.374 150.813 150.832 152.532 152.391 152.435 152.288 152.029 
152.18 152.008 152.073 151.856 151.496 151.69 151.485 151.652 151.441 
151.58 151.474 151.06 151.172 150.977 151.096 150.912 151.089 151.029 
151.275 151.341 150.746 150.83 150.679 150.713 150.56 150.639 150.585 
150.798 150.844 151.142 151.165 150.351 150.491 150.346 150.449 150.288 
150.364 150.267 150.409 150.367 150.59 150.525 150.802 150.677 150.014 
150.071 149.931 150.066 149.918 150.036 149.898 150.053 149.956 150.13 
149.997 150.169 150.022 150.252 150.158 150.059 149.892 149.8 149.782 
149.721 149.722 149.587 149.645 149.529 149.685 149.586 149.724 149.606 
149.732 149.697 149.892 149.969 150.512 150.167 150.104 149.904 149.897 
149.732 149.598 149.452 149.271 149.29 149.216 149.355 149.332 149.444 
149.459 149.586 149.715 149.903 150.112 150.837 151.284 150.803 150.415 
151.782 151.247 150.759 150.408 150.09 152.352 151.702 151.016 150.608 
150.109 149.942 149.615 153.11 152.327 151.51 150.85 150.174 149.841 
149.415 149.356 149.158 153.968 153.171 152.426 151.548 150.842 150.128 
149.666 149.286 149.113 149.044 149.084 154.852 154.081 153.444 152.586 
151.96 151.093 150.617 149.904 149.675 149.263 149.264 149.153 149.263 
155.766 155.014 154.395 153.597 152.993 152.214 151.715 150.984 150.622 
150.025 149.849 149.499 149.501 149.376 149.46 156.567 155.908 155.311 
154.55 153.949 153.191 152.676 151.979 151.556 150.93 150.616 150.131 
150.006 149.725 149.778 149.638 149.766 157.186 156.637 156.126 155.459 
154.933 154.184 153.702 152.953 152.549 151.849 151.535 150.928 150.762 
150.324 150.351 150.085 150.232 150.052 150.211 151.33 152.331 151.793 
151.78 153.424 152.85 152.858 152.326 152.364 154.632 153.992 154.026 
153.465 153.564 152.995 153.063 156.005 155.288 155.316 154.693 154.825 
154.257 154.396 153.772 153.845 157.439 156.713 156.767 156.088 156.234 
155.594 155.737 155.108 155.191 154.552 154.615 158.894 158.16 158.251 
157.586 157.769 157.096 157.224 156.504 156.548 155.864 155.93 155.32 
155.445 160.343 159.628 159.684 159.042 159.218 158.611 158.751 158.037 
158.047 157.278 157.31 156.647 156.797 156.206 156.365 161.584 160.995 
161.012 160.417 160.538 159.982 160.132 159.509 159.55 158.802 158.795 
158.072 158.165 157.553 157.688 157.092 157.152 162.567 162.103 162.155 
161.654 161.772 161.251 161.391 160.827 160.897 160.243 160.237 159.537 
159.552 158.902 158.955 158.353 158.363 157.759 157.723 158.898 159.297 
158.81 158.272 159.816 159.23 158.585 158.113 157.497 160.331 159.721 
158.968 158.418 157.717 157.268 156.538 160.738 160.167 159.38 158.791 
158.031 157.507 156.743 156.224 155.352 161.1 160.551 159.824 159.224 
158.487 157.884 157.089 156.473 155.586 154.985 154.119 161.541 160.982 
160.328 159.718 159.031 158.401 157.607 156.9 155.96 155.264 154.392 
153.847 153.174 162.042 161.506 160.882 160.263 159.548 158.926 158.14 
157.451 156.513 155.73 154.809 154.168 153.489 153.04 152.5 162.429 
161.99 161.375 160.802 160.027 159.392 158.563 157.934 157.063 156.331 
155.432 154.693 153.968 153.405 152.859 152.403 151.871 162.643 162.288 
161.693 161.22 160.459 159.839 158.989 158.349 157.533 156.878 156.076 
155.362 154.635 153.98 153.408 152.85 152.347 151.824 151.345 159.333 
160.136 159.74 159.79 160.992 160.579 160.692 160.298 160.391 161.955 
161.47 161.555 161.189 161.359 160.954 160.989 163.044 162.491 162.498 
162.047 162.191 161.869 162.002 161.528 161.441 164.088 163.581 163.553 
163.022 163.081 162.701 162.873 162.498 162.518 161.936 161.781 164.999 
164.569 164.569 164.06 164.058 163.61 163.741 163.386 163.495 163.003 
162.922 162.282 162.16 165.906 165.485 165.547 165.061 165.026 164.532 
164.54 164.197 164.326 163.98 164.017 163.451 163.352 162.701 162.618 
166.839 166.425 166.525 166.068 166.028 165.472 165.317 164.879 164.909 
164.698 164.884 164.549 164.58 163.948 163.822 163.142 163.005 167.662 
167.299 167.344 166.984 166.946 166.447 166.222 165.648 165.5 165.198 
165.396 165.292 165.528 165.15 165.087 164.389 164.152 163.448 163.226 
168.038 168.24 167.998 167.668 168.229 168.094 167.815 167.631 167.269 
168.177 168.08 167.88 167.75 167.444 167.147 166.6 168.043 168.037 
167.925 167.864 167.651 167.361 166.869 166.404 165.879 167.764 167.832 
167.733 167.831 167.673 167.554 167.147 166.752 166.325 165.916 165.735 
167.556 167.553 167.405 167.517 167.345 167.404 167.036 166.899 166.52 
166.342 166.196 165.998 165.895 167.449 167.401 167.201 167.208 167.006 
167.031 166.691 166.638 166.26 166.28 166.101 166.196 166.028 165.925 
165.495 167.204 167.234 166.974 166.989 166.748 166.758 166.464 166.373 
166.016 165.957 165.732 165.856 165.677 165.754 165.32 165.164 164.519 
166.771 166.868 166.573 166.649 166.379 166.462 166.21 166.203 165.891 
165.796 165.526 165.521 165.331 165.362 165.019 164.899 164.331 164.107 
163.519 166.402 165.812 166.137 166.211 165.42 165.648 165.741 165.978 
166.07 165.092 165.379 165.505 165.639 165.682 165.876 165.933 164.348 
164.923 165.068 165.363 165.277 165.462 165.382 165.659 165.625 163.13 
163.903 164.033 164.623 164.46 164.819 164.586 164.965 164.912 165.295 
165.291 161.802 162.557 162.667 163.37 163.268 163.768 163.546 164.006 
163.983 164.511 164.629 165.026 165.071 160.508 161.214 161.311 162.009 
162.021 162.577 162.493 162.963 162.993 163.554 163.727 164.275 164.334 
164.734 164.65 159.278 159.929 160.027 160.702 160.778 161.397 161.418 
161.957 161.997 162.563 162.667 163.27 163.286 163.803 163.642 164.09 
163.891 158.216 158.777 158.887 159.486 159.565 160.18 160.22 160.838 
160.87 161.489 161.511 162.122 162.072 162.632 162.471 162.965 162.767 
163.246 163.098 166.368 166.072 166.064 165.772 165.734 165.743 165.433 
165.47 165.281 165.284 165.36 165.007 165.072 164.803 164.975 164.827 
164.572 164.797 164.446 164.581 164.236 164.394 164.089 164.35 164.039 
163.615 163.958 163.644 163.907 163.53 163.725 163.287 163.493 163.04 
163.326 162.861 162.593 162.95 162.632 162.982 162.573 162.857 162.327 
162.562 162.009 162.281 161.788 162.083 161.597 161.565 161.904 161.526 
161.897 161.456 161.781 161.208 161.469 160.872 161.177 160.685 161.023 
160.563 160.841 160.341 160.528 160.834 160.395 160.749 160.312 160.647 
160.128 160.363 159.789 160.037 159.565 159.908 159.496 159.811 159.333 
159.585 159.101 159.565 159.805 159.351 159.636 159.226 159.547 159.13 
159.375 158.879 159.058 158.586 158.845 158.458 158.766 158.348 158.6 
158.143 158.393 158.009 166.68 166.901 166.666 166.361 166.999 166.805 
166.543 166.335 166.037 167.127 166.906 166.616 166.447 166.187 165.985 
165.607 167.093 167.011 166.653 166.478 166.125 166.002 165.603 165.409 
164.861 166.566 166.785 166.497 166.447 165.992 165.844 165.342 165.224 
164.657 164.487 163.855 165.79 166.111 166.006 166.173 165.838 165.707 
165.151 164.935 164.345 164.185 163.599 163.438 162.84 165.28 165.437 
165.374 165.622 165.454 165.503 165.035 164.815 164.187 163.933 163.353 
163.178 162.633 162.456 161.87 165.052 165.069 164.873 165.02 164.811 
164.997 164.618 164.608 164.004 163.804 163.161 162.964 162.398 162.242 
161.681 161.486 160.875 164.774 164.811 164.487 164.533 164.19 164.321 
163.954 164.065 163.569 163.519 162.904 162.747 162.14 161.989 161.419 
161.267 160.685 160.488 159.901 164.403 163.562 164.059 164.106 162.57 
163.16 163.272 163.721 163.759 161.414 162.124 162.317 162.874 162.954 
163.391 163.455 160.04 160.842 161.052 161.816 161.956 162.537 162.567 
163.048 163.052 158.799 159.464 159.62 160.405 160.564 161.351 161.415 
162.051 162.004 162.524 162.427 157.985 158.446 158.587 159.096 159.194 
159.877 159.979 160.732 160.746 161.384 161.286 161.809 161.68 157.373 
157.792 157.945 158.279 158.276 158.682 158.69 159.305 159.352 160.041 
160.001 160.609 160.492 161.04 160.931 156.734 157.165 157.259 157.62 
157.515 157.837 157.679 158.126 158.063 158.674 158.642 159.281 159.196 
159.8 159.703 160.285 160.192 156.039 156.447 156.428 156.809 156.617 
156.962 156.696 157.091 156.907 157.432 157.358 157.957 157.91 158.51 
158.458 159.046 158.987 159.55 159.457 155.61 154.829 155.467 155.878 
154.011 154.591 154.971 155.62 155.978 153.558 153.88 154.168 154.679 
155.006 155.656 156.03 153.386 153.571 153.726 154.001 154.245 154.739 
155.137 155.778 156.261 152.93 153.292 153.399 153.647 153.83 154.152 
154.546 155.037 155.582 156.165 156.737 152.049 152.587 152.761 153.212 
153.46 153.829 154.239 154.634 155.189 155.646 156.236 156.745 157.317 
151.244 151.692 151.944 152.475 152.832 153.366 153.812 154.316 154.836 
155.314 155.862 156.327 156.87 157.351 157.891 150.818 151.099 151.387 
151.784 152.173 152.69 153.136 153.725 154.201 154.808 155.313 155.888 
156.398 156.915 157.419 157.914 158.421 150.586 150.82 151.119 151.405 
151.777 152.149 152.576 153.046 153.513 154.08 154.601 155.226 155.771 
156.368 156.878 157.412 157.889 158.403 158.874 158.932 157.937 158.508 
158.688 156.924 157.506 157.678 158.288 158.542 155.805 156.448 156.634 
157.283 157.532 158.181 158.448 154.612 155.271 155.467 156.187 156.426 
157.122 157.342 158.019 158.206 153.523 154.102 154.284 154.991 155.216 
155.931 156.099 156.814 156.987 157.701 157.903 152.604 153.084 153.221 
153.843 154.038 154.704 154.842 155.522 155.69 156.44 156.705 157.454 
157.75 151.803 152.203 152.242 152.779 152.882 153.518 153.627 154.284 
154.445 155.171 155.463 156.249 156.586 157.339 157.629 151.108 151.42 
151.347 151.769 151.736 152.312 152.364 153.042 153.19 153.935 154.21 
155.012 155.358 156.146 156.458 157.187 157.449 150.528 150.752 150.613 
150.896 150.779 151.198 151.207 151.797 151.958 152.673 152.949 153.742 
154.091 154.905 155.266 156.03 156.365 157.055 157.364 158.168 157.393 
158.071 158.72 156.597 157.287 157.913 158.668 159.428 155.794 156.518 
157.167 157.87 158.622 159.425 160.224 155.1 155.8 156.532 157.174 
157.909 158.654 159.508 160.275 161.05 154.679 155.246 156.043 156.629 
157.385 158.023 158.882 159.622 160.491 161.151 161.854 154.619 154.96 
155.703 156.218 157.002 157.583 158.432 159.093 159.978 160.636 161.393 
161.951 162.552 154.943 155.033 155.64 155.969 156.702 157.22 158.037 
158.668 159.514 160.164 160.926 161.497 162.133 162.63 163.184 155.467 
155.451 155.966 156.065 156.689 156.998 157.717 158.238 159.021 159.667 
160.426 161.037 161.7 162.225 162.826 163.288 163.824 155.841 155.928 
156.414 156.469 156.997 157.119 157.687 157.977 158.628 159.151 159.897 
160.527 161.242 161.804 162.422 162.92 163.47 163.912 164.349 158.788 
159.449 159.419 160.058 160.203 160.171 160.874 160.791 161.388 160.935 
160.911 161.581 161.576 162.185 162.079 162.565 161.663 161.599 162.21 
162.216 162.854 162.829 163.387 163.229 163.711 162.427 162.337 162.984 
162.92 163.668 163.596 164.312 164.129 164.717 164.458 164.993 163.098 
163.069 163.761 163.766 164.613 164.579 165.398 165.202 165.829 165.528 
166.047 165.771 166.239 163.667 163.658 164.271 164.402 165.189 165.396 
166.165 166.201 166.73 166.553 166.951 166.747 167.154 166.921 167.216 
164.244 164.191 164.67 164.758 165.381 165.681 166.355 166.633 167.096 
167.156 167.466 167.437 167.806 167.727 168.047 167.769 167.865 164.715 
164.698 165.061 165.085 165.557 165.764 166.376 166.667 167.184 167.334 
167.686 167.757 168.145 168.222 168.596 168.5 168.633 168.276 168.185 
158.672 159.849 159.093 158.834 161.127 160.32 159.98 159.249 159.019 
162.32 161.573 161.251 160.466 160.19 159.474 159.287 163.472 162.744 
162.486 161.74 161.498 160.733 160.494 159.764 159.54 164.737 163.962 
163.693 162.945 162.681 161.979 161.706 160.986 160.662 159.946 159.63 
165.963 165.24 164.911 164.138 163.742 163.033 162.65 162.025 161.644 
161.002 160.604 159.949 159.607 166.862 166.292 165.886 165.228 164.735 
164.021 163.523 162.861 162.427 161.837 161.434 160.844 160.453 159.871 
159.543 167.405 166.955 166.462 165.962 165.444 164.875 164.372 163.733 
163.269 162.625 162.199 161.599 161.189 160.634 160.252 159.743 159.419 
167.717 167.349 166.834 166.397 165.883 165.43 164.967 164.479 164.029 
163.458 162.979 162.364 161.892 161.318 160.904 160.393 160.038 159.572 
159.264 166.937 167.365 167.195 167.174 167.62 167.565 167.586 167.365 
167.287 167.743 167.758 167.859 167.742 167.721 167.487 167.421 167.949 
167.924 168.067 167.986 167.997 167.849 167.748 167.554 167.343 168.25 
168.224 168.4 168.268 168.274 168.084 167.933 167.745 167.414 167.205 
166.737 168.465 168.532 168.782 168.676 168.702 168.433 168.277 167.967 
167.629 167.263 166.737 166.419 165.928 168.581 168.72 169.022 169.017 
169.04 168.833 168.641 168.355 168.044 167.628 167.131 166.606 166.099 
165.738 165.443 168.59 168.796 169.063 169.151 169.1 168.996 168.683 
168.536 168.171 167.964 167.48 167.062 166.495 166.057 165.679 165.426 
165.246 168.357 168.668 168.853 169.042 168.918 168.889 168.49 168.389 
167.973 167.9 167.464 167.249 166.678 166.342 165.832 165.608 165.308 
165.199 164.969 
POINT_DATA 1002
SCALARS Distance double
LOOKUP_TABLE default
155.058 155.691 154.887 154.126 153.961 154.171 153.223 153.161 153.277 
153.523 152.741 152.754 152.632 152.901 153.379 152.673 152.621 152.449 
152.45 152.909 153.222 152.551 152.508 152.37 152.162 152.3 152.555 
152.477 152.301 152.434 152.096 151.923 151.853 151.844 151.696 151.485 
152.209 152.466 151.88 151.746 151.755 151.597 151.226 150.896 150.847 
152.316 152.549 151.925 151.664 151.707 151.641 151.164 150.618 150.41 
150.563 152.453 152.608 152.102 151.666 151.489 151.473 151.138 150.516 
150.099 150.095 150.347 155.486 154.649 154.967 154.064 154.43 153.704 
153.378 154.196 153.057 152.877 152.983 154.393 152.264 152.224 152.42 
153.275 155.014 151.914 151.576 151.874 152.292 154.303 155.878 152.591 
151.658 151.637 151.987 152.344 155.558 156.728 154.061 152.783 152.217 
152.153 152.312 152.482 156.603 157.504 155.52 154.328 153.413 152.894 
152.67 152.633 152.619 157.42 158.242 156.6 155.645 154.644 153.827 
153.322 153.068 152.885 152.719 158.413 157.622 158.584 157.859 158.816 
156.844 158.156 159.1 157.129 155.895 158.406 159.275 157.452 156.138 
154.843 158.471 159.3 157.661 156.451 155.062 154.049 158.462 159.293 
157.675 156.687 155.443 154.398 153.662 158.483 159.247 157.647 156.718 
155.692 154.768 154.019 153.364 158.456 159.12 157.651 156.684 155.677 
154.827 154.136 153.496 152.991 158.344 158.969 157.62 156.693 155.65 
154.731 154.018 153.413 152.949 152.709 152.541 152.575 152.322 152.751 
152.324 151.861 153.22 152.53 151.904 151.33 153.899 153.064 152.165 
151.404 150.967 154.735 153.778 152.645 151.575 150.968 150.635 155.774 
154.684 153.333 151.968 151.111 150.662 150.221 156.835 155.812 154.425 
152.859 151.734 151.148 150.591 150.031 157.694 156.874 155.746 154.277 
152.926 152.126 151.537 150.831 150.296 158.399 157.712 156.86 155.736 
154.411 153.315 152.615 151.978 151.316 150.888 152.316 151.909 151.807 
151.305 151.247 151.274 150.888 150.744 150.752 151.068 150.641 150.514 
150.429 150.581 150.891 150.203 150.2 150.157 150.223 150.307 150.383 
149.794 149.801 149.758 149.786 149.867 149.825 149.863 149.854 149.757 
149.613 149.396 149.41 149.486 149.512 149.72 150.355 150.106 149.834 
149.353 149.07 149.175 149.34 149.53 149.9 151.27 150.788 151.798 
151.161 152.391 150.335 151.558 153.111 150.334 149.664 152.314 153.909 
150.661 149.529 149.058 153.294 154.705 151.673 150.195 149.277 149.012 
154.246 155.607 152.796 151.414 150.247 149.509 149.279 155.191 156.504 
153.751 152.437 151.298 150.328 149.715 149.515 156.032 157.168 154.713 
153.388 152.208 151.168 150.357 149.95 149.873 156.714 157.679 155.635 
154.456 153.267 152.176 151.265 150.668 150.437 150.389 151.835 152.278 
152.884 153.393 153.998 152.908 154.59 155.312 154.098 153.691 155.968 
156.741 155.396 154.985 154.517 157.435 158.148 156.905 156.404 155.826 
155.233 158.903 159.637 158.424 157.984 157.286 156.535 156.026 160.349 
161.047 159.808 159.43 158.844 158.015 157.383 156.986 161.593 162.116 
161.1 160.713 160.257 159.552 158.822 158.292 157.788 162.604 162.984 
162.273 161.948 161.516 160.923 160.241 159.595 158.98 158.325 159.328 
158.708 159.858 159.128 160.467 157.924 159.573 160.958 158.207 157.024 
159.975 161.288 158.597 157.295 155.916 160.399 161.619 159.106 157.765 
156.214 154.635 160.935 162.076 159.655 158.336 156.726 154.948 153.597 
161.513 162.541 160.201 158.79 157.297 155.522 153.963 152.911 161.919 
162.831 160.696 159.187 157.717 156.182 154.599 153.346 152.324 159.708 
160.189 160.516 161.039 161.426 160.853 161.95 162.495 161.683 161.547 
163.034 163.606 162.516 162.381 162.083 164.108 164.553 163.523 163.211 
163.034 162.443 165.05 165.398 164.553 164.102 163.917 163.539 162.79 
166.01 166.314 165.585 164.946 164.578 164.489 164.029 163.241 166.955 
167.251 166.614 165.889 165.121 165.035 165.135 164.581 163.648 167.694 