# vtk DataFile Version 4.0
vtk output
ASCII
DATASET POLYDATA
POINTS 1002 float
-79.5952 -112.734 74.8319 -79.2815 -113.919 74.5156 -79.2976 -113.368 73.5397 
-79.7049 -112.132 73.8829 -79.358 -112.76 72.5189 -80.1492 -111.588 75.1788 
-80.0073 -111.608 72.9503 -79.6285 -112.229 71.5686 -80.4313 -110.985 74.3263 
-80.8698 -110.402 75.6039 -80.5436 -111.182 72.0855 -80.1616 -111.782 70.7242 
-80.8992 -110.478 73.4715 -81.2459 -109.776 74.8459 -81.5834 -109.051 76.137 
-81.1531 -110.629 71.247 -80.8632 -111.291 69.9858 -81.3982 -109.869 72.5729 
-81.6308 -109.093 73.9388 -81.9278 -108.315 75.3457 -82.1668 -107.483 76.5484 
-81.7931 -109.914 70.5405 -81.7176 -110.723 69.5214 -81.8796 -109.04 71.7168 
-81.9958 -108.207 72.9806 -82.2272 -107.413 74.326 -82.4415 -106.569 75.626 
-82.4726 -105.647 76.6474 -82.6105 -109.262 70.1605 -82.7119 -110.122 69.372 
-82.5771 -108.332 71.1336 -82.5958 -107.404 72.2822 -82.7358 -106.537 73.4686 
-82.8555 -105.656 74.6624 -82.7758 -104.706 75.7403 -82.6371 -103.819 76.6748 
-83.5472 -108.678 69.9567 -83.6796 -109.477 69.2573 -83.5141 -107.839 70.7851 
-83.5136 -106.926 71.8463 -83.5478 -105.972 72.9433 -83.5919 -105.034 73.9743 
-83.437 -104.057 75.0026 -83.1839 -103.151 75.9597 -83.0946 -102.483 76.8759 
-84.4272 -108.061 69.7136 -84.5247 -108.815 69.0465 -84.4278 -107.284 70.4554 
-84.4716 -106.449 71.4125 -84.4196 -105.498 72.4508 -84.3586 -104.551 73.3807 
-84.2716 -103.647 74.3388 -84.0588 -102.771 75.3612 -83.8816 -102.07 76.2835 
-83.8481 -101.591 77.1386 -85.2508 -107.469 69.493 -85.3112 -108.207 68.8626 
-85.2328 -106.657 70.1681 -85.294 -105.823 70.9828 -85.2343 -104.899 71.8964 
-85.0329 -103.942 72.7321 -84.9186 -103.115 73.5789 -84.8673 -102.376 74.6192 
-84.7491 -101.696 75.6615 -84.6098 -101.153 76.5142 -84.4987 -100.739 77.2948 
-79.0924 -114.85 73.6409 -79.0788 -114.243 72.5586 -78.8397 -115.752 72.8094 
-78.8618 -115.065 71.6551 -78.4626 -116.584 71.971 -79.0696 -113.506 71.4295 
-78.6256 -115.872 70.7194 -78.1635 -117.574 70.962 -78.8579 -114.16 70.3863 
-79.2446 -112.793 70.3557 -78.4934 -116.91 69.6183 -78.2048 -118.671 69.9712 
-78.6945 -114.899 69.2169 -78.9271 -113.242 69.0647 -79.7366 -112.238 69.4103 
-78.6436 -117.998 68.7051 -78.6591 -119.423 69.3916 -78.6561 -116.005 67.9898 
-78.7142 -113.901 67.6534 -79.385 -112.603 67.9952 -80.6151 -111.815 68.7592 
-79.2243 -118.676 68.3421 -79.5138 -119.789 69.1711 -79.0084 -117.186 67.2896 
-78.8769 -115.05 66.6058 -79.3309 -113.221 66.7628 -80.5426 -112.269 67.5779 
-81.8254 -111.378 68.5609 -80.2059 -118.974 68.3687 -80.6348 -120.097 69.0769 
-79.8659 -117.903 67.3222 -79.6724 -116.275 66.4518 -79.8928 -114.273 66.2782 
-80.8187 -112.858 66.7729 -82.0725 -111.927 67.6363 -83.0492 -110.787 68.5531 
-81.3168 -119.161 68.5572 -81.745 -120.38 69.1042 -80.9647 -118.15 67.7118 
-80.8316 -117.008 66.8922 -80.9808 -115.36 66.49 -81.5257 -113.683 66.5161 
-82.4264 -112.44 66.8958 -83.3405 -111.305 67.6183 -84.0241 -110.044 68.4222 
-82.3247 -119.293 68.8208 -82.6782 -120.502 69.2629 -82.032 -118.227 68.1366 
-81.96 -117.29 67.3761 -82.1359 -116.092 66.8119 -82.4845 -114.551 66.4813 
-82.9791 -113.057 66.3867 -83.591 -111.743 66.7354 -84.2314 -110.48 67.4785 
-84.8156 -109.284 68.2505 -83.3421 -119.714 69.2437 -83.1181 -118.545 68.6656 
-84.1981 -118.882 69.1044 -84.2571 -117.914 68.3069 -85.3514 -118.197 68.7769 
-83.0679 -117.593 67.8658 -85.6874 -117.454 67.7757 -86.5838 -117.572 68.4663 
-84.4717 -117.118 67.3331 -83.2378 -116.654 67.063 -86.958 -116.726 67.5371 
-87.5763 -116.619 68.4598 -85.9711 -116.533 66.8342 -84.7183 -116.01 66.4787 
-83.5359 -115.326 66.4265 -87.8042 -115.406 67.8623 -88.3606 -115.277 68.733 
-87.0992 -115.343 66.9881 -86.1125 -114.996 66.2839 -84.9632 -114.412 65.9227 
-83.8535 -113.708 66.0216 -88.5476 -113.834 68.4312 -89.1944 -113.863 69.0827 
-87.8956 -113.73 67.6432 -87.1979 -113.569 66.8308 -86.3187 -113.267 66.1342 
-85.1878 -112.708 65.847 -84.1825 -112.12 66.1169 -89.498 -112.329 68.921 
-90.17 -112.515 69.3762 -88.8248 -112.156 68.2579 -88.1948 -112.088 67.4925 
-87.5319 -112.022 66.825 -86.5348 -111.629 66.4133 -85.3877 -111.026 66.3926 
-84.6176 -110.634 66.7987 -90.5734 -110.926 69.2196 -91.2327 -111.258 69.5098 
-89.9528 -110.684 68.716 -89.3624 -110.621 67.9975 -88.731 -110.625 67.3446 
-87.826 -110.359 67.0199 -86.679 -109.823 67.0023 -85.7448 -109.433 67.2167 
-85.2012 -109.322 67.6599 -91.6396 -109.732 69.2841 -92.3222 -110.205 69.459 
-91.0409 -109.369 68.977 -90.5424 -109.193 68.4235 -89.9791 -109.087 67.7696 
-89.104 -108.806 67.3601 -87.9733 -108.379 67.3351 -86.9877 -108.132 67.5663 
-86.328 -108.156 67.9318 -85.8164 -108.227 68.3829 -86.1537 -107.169 69.1575 
-86.8271 -107.128 68.7006 -87.0997 -105.979 69.5142 -87.4552 -106.896 68.1884 
-87.8994 -105.857 69.0011 -87.9966 -104.597 69.7664 -88.188 -106.646 67.7286 
-88.6309 -105.524 68.4073 -88.8854 -104.449 69.2537 -88.7991 -103.093 69.7963 
-89.2841 -106.75 67.4965 -89.5246 -105.208 67.9038 -89.8007 -104.228 68.7335 
-89.8424 -103.044 69.4551 -89.6742 -101.658 69.8141 -90.479 -107.208 67.6368 
-90.777 -105.33 67.6102 -90.9299 -104.054 68.1285 -90.9619 -103.007 69.0474 
-90.861 -101.706 69.6089 -90.6471 -100.421 70.0058 -91.2569 -107.645 68.129 
-91.8902 -105.87 67.6619 -92.2072 -104.226 67.5156 -92.1475 -102.919 68.2625 
-91.9717 -101.667 69.2015 -91.7915 -100.378 69.6887 -91.5031 -99.3021 70.2359 
-91.7065 -107.965 68.6943 -92.4712 -106.449 68.121 -93.1298 -104.767 67.4573 
-93.2909 -103.118 67.567 -93.04 -101.626 68.5279 -92.8093 -100.253 69.3034 
-92.5873 -99.0948 69.761 -92.2235 -98.2816 70.4663 -92.2497 -108.379 69.0548 
-92.9233 -106.988 68.6721 -93.6595 -105.419 68.0771 -94.1553 -103.694 67.7195 
-94.1358 -101.995 68.1772 -93.8969 -100.407 68.9806 -93.7036 -99.0529 69.4916 
-93.3998 -98.1007 70.013 -92.9546 -97.5392 70.8543 -92.9812 -108.957 69.2245 
-93.6113 -107.636 68.9935 -94.2247 -106.124 68.7273 -94.7805 -104.416 68.4302 
-95.0573 -102.687 68.4427 -95.0154 -101.011 68.9043 -94.8761 -99.4652 69.4158 
-94.6425 -98.2842 69.8732 -94.2093 -97.5596 70.5509 -93.693 -97.1476 71.4536 
-86.0911 -106.29 69.8311 -86.9906 -104.947 70.1957 -86.08 -105.338 70.5486 
-87.8149 -103.452 70.3033 -86.9359 -103.913 70.85 -86.0775 -104.372 71.341 
-88.5975 -101.879 70.2265 -87.7318 -102.416 70.9257 -86.852 -102.896 71.5928 
-85.8588 -103.337 72.1365 -89.5089 -100.465 70.4221 -88.5436 -100.895 71.1034 
-87.6641 -101.451 71.8732 -86.5838 -101.852 72.4329 -85.5854 -102.397 72.9294 
-90.4504 -99.3483 70.8593 -89.4282 -99.6059 71.5629 -88.5148 -100.109 72.3036 
-87.4668 -100.556 72.9361 -86.3526 -101 73.3957 -85.5191 -101.679 73.9439 
-91.2356 -98.3866 71.2168 -90.2386 -98.587 71.9757 -89.2906 -98.961 72.6434 
-88.299 -99.4135 73.3458 -87.2096 -99.8149 73.9879 -86.241 -100.336 74.5161 
-85.4849 -101.043 75.0976 -91.9669 -97.5781 71.561 -90.9728 -97.7005 72.2945 
-89.9583 -97.9037 72.8911 -88.9352 -98.2497 73.5487 -87.9061 -98.6682 74.3463 
-86.8903 -99.0987 75.0075 -86.0159 -99.6883 75.5265 -85.3024 -100.449 76.0526 
-92.751 -97.0531 72.052 -91.7798 -97.0373 72.7154 -90.6976 -97.0295 73.3038 
-89.5346 -97.1297 73.9033 -88.4684 -97.4765 74.6526 -87.4719 -97.9467 75.3585 
-86.4721 -98.4395 75.8627 -85.6436 -99.1106 76.3313 -85.0452 -99.9581 76.8415 
-93.8409 -96.8132 72.5561 -92.9184 -96.6609 73.1486 -94.0057 -96.4699 73.7979 
-93.0594 -96.3126 74.4047 -94.0799 -96.1966 75.2171 -91.8391 -96.527 73.8023 
-93.0057 -96.096 75.9509 -93.9886 -96.1131 76.9577 -91.7587 -96.1459 75.1608 
-90.4825 -96.377 74.4801 -92.799 -95.9631 77.8567 -93.8366 -96.1177 78.8854 
-91.4978 -95.9857 76.7976 -90.1651 -96.0344 75.9484 -89.1417 -96.4826 75.2045 
-92.5893 -95.9055 79.7729 -93.6521 -96.2804 80.4833 -91.233 -95.8874 78.6613 
-89.8708 -96.0488 77.5341 -88.829 -96.3214 76.6303 -88.0609 -96.9633 75.882 
-92.3009 -96.3398 81.106 -93.3007 -96.9165 81.4858 -91.0211 -96.0153 80.3992 
-89.6623 -96.128 79.2926 -88.5989 -96.473 78.1728 -87.7298 -96.8693 77.1899 
-86.9664 -97.4982 76.3873 -91.8779 -97.3154 81.8781 -92.8282 -97.8491 82.2374 
-90.7611 -96.7685 81.5334 -89.4958 -96.4946 80.8633 -88.3838 -96.6569 79.8904 
-87.4284 -96.9602 78.816 -86.4985 -97.3281 77.7185 -85.8796 -98.0543 76.8488 
-91.4789 -98.2471 82.6475 -92.4121 -98.6483 83.0784 -90.4846 -97.7925 82.3112 
-89.3684 -97.3601 81.8742 -88.2517 -97.1978 81.2099 -87.2388 -97.2774 80.4079 
-86.2294 -97.4446 79.3981 -85.4516 -97.9344 78.2695 -85.1449 -98.8776 77.3895 
-91.1891 -98.9097 83.5648 -92.0849 -99.2926 83.9216 -90.2656 -98.574 83.1976 
-89.2793 -98.2736 82.7234 -88.2233 -98.0844 82.0793 -87.2091 -98.0264 81.4402 
-86.22 -98.01 80.7701 -85.3429 -98.2082 79.8308 -84.8549 -98.8813 78.7746 
-84.6829 -99.8472 77.919 -94.7404 -97.2133 71.6745 -94.8742 -96.8891 72.9714 
-95.7259 -97.5325 72.1487 -95.8646 -97.2158 73.64 -96.4373 -98.0802 72.8433 
-94.994 -96.5234 74.4223 -96.6353 -97.8184 74.422 -96.8515 -98.8495 73.6331 
-95.9882 -96.9095 75.2604 -95.0026 -96.3405 76.044 -97.0816 -98.6653 75.1773 
-97.2112 -99.9093 74.3708 -96.7708 -97.6369 76.1128 -95.9428 -96.8934 76.9673 
-94.8769 -96.4448 77.8744 -97.3911 -99.8417 75.9754 -97.6187 -101.283 75.1052 
-97.163 -98.5987 76.9579 -96.6705 -97.6911 77.8544 -95.7706 -97.0869 78.7105 
-94.7419 -96.6044 79.6595 -97.6518 -101.368 76.8663 -97.7576 -102.751 75.9538 
-97.3845 -99.9393 77.8324 -97.0467 -98.7215 78.7177 -96.4585 -97.8763 79.5141 
-95.5918 -97.3096 80.3294 -94.5265 -96.9535 81.0453 -97.5748 -102.883 77.6178 
-97.4408 -104.032 76.7627 -97.4784 -101.558 78.4998 -97.2144 -100.221 79.3563 
-96.7636 -99.1056 80.1727 -96.1172 -98.33 80.9616 -95.2479 -97.8632 81.6436 
-94.1042 -97.7216 82.0473 -97.1622 -104.151 78.0813 -96.9863 -105.152 77.3436 
-97.2555 -103.025 78.8623 -97.1702 -101.862 79.6927 -96.7856 -100.805 80.538 
-96.1824 -99.9114 81.3277 -95.5306 -99.1947 82.0612 -94.708 -98.7409 82.637 
-93.6051 -98.6029 82.9314 -96.817 -105.354 78.4331 -96.7447 -106.3 77.7718 
-96.9196 -104.332 79.1781 -96.9542 -103.299 80.0302 -96.7117 -102.415 80.9048 
[...]
CELL_DATA 2000
SCALARS Distance double
LOOKUP_TABLE default
156.064 155.209 155.606 155.584 154.464 154.814 154.857 155.229 155.293 
153.946 154.221 154.318 154.603 154.683 155 155.036 153.536 153.776 
153.82 154.086 154.072 154.383 154.354 154.69 154.593 153.206 153.347 
153.254 153.488 153.334 153.652 153.5 153.891 153.72 154.087 153.782 
153.094 153.058 152.889 152.945 152.766 152.922 152.765 153.026 152.858 
153.16 152.867 153.122 152.703 153.108 153.001 152.821 152.745 152.619 
152.584 152.494 152.519 152.421 152.499 152.305 152.371 152.074 152.152 
151.897 153.057 152.983 152.786 152.731 152.602 152.567 152.449 152.41 
152.261 152.246 152.072 152.053 151.852 151.807 151.653 151.665 151.635 
152.977 152.908 152.703 152.655 152.488 152.491 152.313 152.306 152.042 
152.036 151.766 151.817 151.62 151.674 151.541 151.566 151.498 151.556 
151.544 156.302 156.43 156.041 155.405 156.517 156.138 155.417 155.074 
154.527 156.59 156.193 155.425 155.028 154.342 154.184 153.845 156.836 
156.323 155.49 154.989 154.147 153.896 153.431 153.538 153.399 157.31 
156.689 155.81 155.125 154.129 153.653 153.026 153.055 152.953 153.189 
153.187 157.903 157.243 156.438 155.626 154.628 153.816 153.065 152.752 
152.656 152.829 153.042 153.163 153.219 158.597 157.901 157.223 156.421 
155.627 154.647 153.929 153.16 152.979 152.789 153.08 153.159 153.389 
153.327 153.309 159.371 158.655 158.031 157.295 156.701 155.836 155.277 
154.351 154.041 153.438 153.523 153.354 153.548 153.503 153.518 153.385 
153.258 160.086 159.42 158.796 158.122 157.6 156.915 156.479 155.707 
155.33 154.59 154.363 153.897 153.825 153.645 153.583 153.5 153.38 
153.27 153.138 160.213 159.981 159.719 158.968 159.884 159.563 158.873 
158.54 157.846 159.959 159.607 158.983 158.569 157.905 157.515 156.833 
159.946 159.712 159.12 158.742 158.035 157.611 156.879 156.491 155.76 
159.633 159.558 158.956 158.751 158.004 157.665 156.84 156.478 155.698 
155.369 154.711 159.201 159.139 158.529 158.42 157.723 157.51 156.747 
156.416 155.634 155.278 154.609 154.372 153.951 158.867 158.74 158.149 
158 157.386 157.218 156.627 156.37 155.725 155.32 154.648 154.294 
153.828 153.723 153.534 158.619 158.456 157.891 157.711 157.152 156.976 
156.467 156.287 155.742 155.437 154.783 154.399 153.847 153.63 153.375 
153.384 153.311 158.441 158.238 157.687 157.503 156.98 156.809 156.306 
156.14 155.576 155.358 154.688 154.418 153.817 153.63 153.309 153.27 
153.171 153.203 153.139 153.026 153.113 153.032 152.92 153.178 153.082 
153.004 152.923 152.724 153.466 153.148 152.982 152.934 152.805 152.676 
152.342 154.193 153.572 153.221 152.948 152.856 152.761 152.591 152.301 
151.913 155.158 154.446 154.006 153.403 153.203 152.928 152.882 152.64 
152.416 151.978 151.639 155.999 155.416 155.034 154.337 153.981 153.45 
153.274 152.981 152.815 152.492 152.172 151.757 151.453 156.686 156.208 
155.911 155.32 154.939 154.297 153.944 153.452 153.189 152.846 152.546 
152.196 151.843 151.515 151.266 157.398 156.92 156.698 156.166 155.884 
155.248 154.907 154.245 153.936 153.372 153.107 152.625 152.344 151.911 
151.674 151.356 151.264 158.206 157.715 157.578 157.039 156.869 156.246 
156.003 155.301 155.029 154.326 154.085 153.43 153.215 152.611 152.441 
151.936 151.881 151.527 151.606 152.91 152.758 152.754 152.617 152.524 
152.561 152.379 152.439 152.36 152.07 152.204 152.013 152.151 152.024 
152.173 152.124 151.527 151.644 151.459 151.694 151.585 151.777 151.644 
151.842 151.768 151.222 151.176 150.985 151.152 151.132 151.331 151.222 
151.343 151.204 151.431 151.435 151.14 151.028 150.85 150.853 150.875 
150.988 150.995 151.03 150.923 150.974 150.977 151.211 151.345 151.065 
151.002 150.866 150.826 150.794 150.84 150.861 150.903 150.857 150.841 
150.815 150.899 151.022 151.235 151.377 151.101 150.992 150.902 150.839 
150.746 150.74 150.662 150.738 150.679 150.757 150.688 150.762 150.76 
150.936 151.038 151.267 151.363 151.434 151.192 151.14 150.959 150.864 
150.714 150.565 150.518 150.42 150.505 150.453 150.558 150.484 150.612 
150.599 150.849 150.946 151.232 151.355 151.728 152.144 151.734 151.389 
152.647 152.176 151.749 151.373 151.029 153.28 152.716 152.227 151.733 
151.241 150.914 150.6 154.071 153.41 152.856 152.239 151.658 151.156 
150.715 150.486 150.353 154.903 154.221 153.617 152.913 152.296 151.659 
151.176 150.735 150.509 150.355 150.37 155.667 155.023 154.434 153.709 
153.097 152.388 151.912 151.337 151.036 150.649 150.499 150.373 150.382 
156.381 155.77 155.25 154.557 154 153.264 152.798 152.155 151.817 
151.273 150.974 150.587 150.43 150.351 150.439 157.091 156.502 156.047 
155.407 154.93 154.216 153.766 153.083 152.737 152.113 151.784 151.189 
150.929 150.557 150.58 150.541 150.798 157.782 157.225 156.817 156.229 
155.826 155.168 154.756 154.069 153.723 153.073 152.784 152.119 151.86 
151.265 151.208 150.896 151.107 151.048 151.319 152.109 153.009 152.535 
152.563 154.102 153.55 153.547 153.035 153.088 155.251 154.706 154.752 
154.145 154.173 153.628 153.752 156.422 155.874 155.998 155.422 155.498 
154.857 154.962 154.402 154.592 157.76 157.111 157.239 156.675 156.822 
156.222 156.33 155.712 155.857 155.297 155.458 159.238 158.552 158.658 
157.994 158.135 157.528 157.656 157.059 157.175 156.591 156.708 156.135 
156.224 160.474 159.966 160.065 159.442 159.517 158.875 158.962 158.351 
158.457 157.878 157.992 157.405 157.486 156.878 156.932 161.315 160.991 
161.075 160.657 160.697 160.18 160.219 159.643 159.7 159.125 159.216 
158.661 158.751 158.163 158.212 157.589 157.628 162.071 161.741 161.845 
161.504 161.598 161.208 161.307 160.833 160.904 160.346 160.382 159.826 
159.872 159.351 159.396 158.845 158.864 158.269 158.29 158.659 159.277 
158.672 158.083 159.926 159.316 158.68 158.052 157.378 160.444 159.88 
159.167 158.576 157.805 157.235 156.484 160.809 160.278 159.47 158.922 
158.071 157.544 156.735 156.244 155.493 161.007 160.534 159.718 159.184 
158.335 157.768 156.946 156.439 155.691 155.235 154.53 161.1 160.665 
159.946 159.472 158.756 158.153 157.367 156.726 155.96 155.433 154.735 
154.289 153.629 161.318 160.838 160.238 159.781 159.22 158.669 157.971 
157.272 156.469 155.798 155.075 154.54 153.905 153.441 152.857 161.696 
161.21 160.72 160.228 159.744 159.193 158.559 157.887 157.106 156.386 
155.65 155.01 154.415 153.845 153.313 152.788 152.318 162.056 161.644 
161.234 160.796 160.36 159.8 159.186 158.496 157.756 157.036 156.353 
155.685 155.133 154.502 154.016 153.396 152.941 152.388 152.03 159.143 
160.056 159.639 159.759 161 160.567 160.683 160.293 160.42 161.951 
161.507 161.588 161.197 161.338 160.951 161.02 162.892 162.446 162.497 
162.082 162.212 161.858 162.01 161.559 161.513 163.867 163.404 163.449 
162.989 163.063 162.701 162.882 162.545 162.616 162.035 161.803 164.876 
164.408 164.434 163.938 163.903 163.488 163.583 163.339 163.51 163.124 
163.016 162.277 161.916 165.832 165.397 165.393 164.897 164.762 164.263 
164.207 163.942 164.143 163.955 164.067 163.515 163.268 162.409 162.073 
166.715 166.317 166.331 165.842 165.695 165.111 164.946 164.541 164.683 
164.549 164.835 164.54 164.513 163.792 163.47 162.61 162.341 167.533 
167.186 167.253 166.796 166.691 166.079 165.861 165.313 165.315 165.09 
165.366 165.245 165.388 164.95 164.738 163.978 163.634 162.856 162.623 
167.988 168.52 168.126 167.738 168.758 168.537 168.131 167.726 167.136 
168.772 168.646 168.253 167.959 167.35 166.932 166.27 168.732 168.65 
168.297 168.026 167.464 167.083 166.512 166.117 165.71 168.447 168.525 
168.205 168.059 167.523 167.2 166.679 166.372 166.078 165.811 165.692 
167.894 168.046 167.723 167.805 167.33 167.195 166.679 166.487 166.184 
166.082 165.957 165.835 165.651 167.456 167.473 167.143 167.241 166.912 
166.919 166.539 166.435 166.164 166.105 165.971 165.926 165.69 165.538 
165.062 167.186 167.136 166.839 166.83 166.62 166.603 166.371 166.3 
166.109 166.077 165.988 165.942 165.728 165.522 165.02 164.713 164.044 
166.826 166.87 166.636 166.656 166.492 166.466 166.23 166.152 165.883 
165.911 165.78 165.89 165.717 165.602 165.112 164.737 164.046 163.66 
163.017 166.474 166.003 166.288 166.407 165.549 165.854 166.005 166.273 
166.339 164.941 165.336 165.433 165.796 165.811 166.086 166.004 164.092 
164.616 164.715 165.136 165.073 165.385 165.235 165.579 165.537 163.013 
163.647 163.824 164.368 164.378 164.661 164.508 164.77 164.804 165.227 
165.442 161.859 162.489 162.641 163.343 163.48 163.972 163.928 164.181 
164.193 164.554 164.789 165.255 165.42 160.806 161.347 161.395 162.06 
162.172 162.891 162.957 163.502 163.469 163.906 163.911 164.433 164.422 
164.944 164.752 159.828 160.334 160.353 160.873 160.901 161.535 161.603 
162.306 162.311 162.927 162.797 163.343 163.132 163.689 163.41 163.951 
163.62 158.838 159.358 159.404 159.893 159.903 160.391 160.405 160.982 
161.005 161.631 161.565 162.115 161.927 162.397 162.167 162.622 162.394 
162.851 162.633 166.424 166.144 166.157 165.923 165.961 165.956 165.785 
165.738 165.513 165.793 165.826 165.712 165.676 165.419 165.303 164.943 
165.394 165.526 165.32 165.474 165.193 165.174 164.684 164.569 164.044 
164.688 164.892 164.49 164.788 164.438 164.69 164.187 164.201 163.544 
163.502 162.916 163.753 164.007 163.495 163.774 163.319 163.686 163.223 
163.473 162.854 162.911 162.258 162.306 161.773 162.711 162.991 162.476 
162.726 162.211 162.524 162.049 162.382 161.839 162.061 161.44 161.58 
161.017 161.163 160.708 161.724 161.966 161.476 161.707 161.197 161.451 
160.961 161.246 160.739 160.999 160.44 160.658 160.111 160.329 159.856 
160.088 159.68 160.87 161.054 160.592 160.772 160.296 160.491 160.019 
160.235 159.755 159.974 159.477 159.683 159.191 159.4 158.948 159.184 
158.777 159.041 158.67 166.802 167.31 166.84 166.448 167.724 167.286 
166.786 166.419 166.12 167.995 167.631 167.135 166.729 166.364 166.122 
165.93 168.126 167.877 167.459 167.082 166.713 166.401 166.179 165.95 
165.682 167.997 167.929 167.564 167.343 166.942 166.689 166.362 166.164 
165.832 165.579 165.087 167.635 167.678 167.343 167.296 166.866 166.732 
166.257 166.14 165.664 165.554 165.006 164.792 164.139 167.225 167.27 
166.946 166.975 166.583 166.52 166.02 165.891 165.335 165.225 164.651 
164.542 163.922 163.733 163.068 166.798 166.841 166.493 166.554 166.203 
166.203 165.773 165.653 165.134 164.944 164.391 164.208 163.65 163.474 
162.893 162.677 162.078 166.314 166.364 165.996 166.081 165.75 165.811 
165.432 165.394 164.922 164.782 164.25 164.05 163.502 163.286 162.741 
162.524 161.979 161.748 161.21 165.896 165.19 165.547 165.595 164.499 
164.88 164.942 165.301 165.37 163.601 164.126 164.176 164.612 164.628 
165.028 165.029 162.407 163.064 163.091 163.678 163.626 164.141 164.073 
164.561 164.492 161.129 161.782 161.788 162.441 162.383 162.982 162.889 
163.466 163.402 163.94 163.838 159.915 160.508 160.491 161.119 161.097 
161.709 161.662 162.244 162.198 162.779 162.722 163.244 163.109 158.804 
159.321 159.274 159.851 159.846 160.464 160.481 161.067 161.05 161.599 
161.544 162.087 161.99 162.489 162.338 157.833 158.272 158.223 158.708 
158.718 159.279 159.351 159.936 159.979 160.508 160.461 160.948 160.848 
161.347 161.228 161.719 161.576 156.959 157.37 157.365 157.778 157.822 
158.277 158.369 158.881 158.964 159.477 159.468 159.923 159.817 160.255 
160.126 160.601 160.478 160.963 160.829 156.485 156.038 156.481 156.95 
155.7 156.091 156.569 156.985 157.444 155.352 155.724 156.119 156.574 
157.026 157.48 157.95 154.86 155.272 155.52 155.994 156.353 156.93 
157.397 157.962 158.464 154.031 154.603 154.768 155.273 155.505 156.111 
156.544 157.253 157.786 158.432 158.923 152.903 153.571 153.771 154.397 
154.628 155.232 155.628 156.334 156.888 157.631 158.165 158.811 159.25 
152.042 152.497 152.761 153.367 153.733 154.368 154.832 155.488 156.044 
156.738 157.298 157.982 158.472 159.094 159.532 151.762 151.938 152.211 
152.58 153.017 153.564 154.129 154.762 155.368 155.994 156.563 157.173 
157.698 158.313 158.812 159.409 159.881 151.676 151.814 152.044 152.265 
152.64 153.023 153.558 154.117 154.749 155.368 155.974 156.543 157.089 
157.634 158.162 158.725 159.235 159.794 160.256 160.278 159.27 159.851 
159.98 158.22 158.818 158.959 159.541 159.677 157.144 157.747 157.874 
158.488 158.613 159.22 159.367 155.992 156.617 156.678 157.333 157.417 
158.084 158.207 158.883 159.055 154.745 155.382 155.387 156.059 156.105 
156.809 156.924 157.656 157.843 158.566 158.769 153.574 154.128 154.138 
154.759 154.825 155.499 155.641 156.363 156.593 157.343 157.597 158.301 
158.517 152.675 153.075 153.08 153.589 153.679 154.294 154.467 155.141 
155.385 156.115 156.409 157.142 157.401 158.072 158.293 152.039 152.296 
152.218 152.604 152.63 153.197 153.364 154.019 154.247 154.94 155.221 
155.959 156.256 156.965 157.219 157.876 158.123 151.578 151.711 151.511 
151.762 151.671 152.153 152.286 152.93 153.169 153.831 154.096 154.793 
155.108 155.832 156.138 156.817 157.092 157.742 158.024 160.796 160.096 
160.855 161.603 159.31 160.092 160.872 161.623 162.317 158.619 159.328 
160.117 160.878 161.635 162.322 163.004 158.044 158.692 159.495 160.21 
161.034 161.698 162.447 163.066 163.807 157.541 158.127 158.923 159.641 
160.53 161.207 162.022 162.598 163.368 163.96 164.732 157.246 157.684 
158.407 159.06 159.948 160.7 161.555 162.2 162.953 163.546 164.273 
164.867 165.508 157.166 157.498 158.14 158.612 159.4 160.084 160.92 
161.64 162.371 163.04 163.687 164.328 164.882 165.468 165.89 157.067 
157.424 158.015 158.4 159.058 159.586 160.325 160.975 161.69 162.367 
163.005 163.658 164.179 164.764 165.142 165.683 165.978 156.878 157.255 
157.798 158.202 158.769 159.24 159.87 160.427 161.093 161.707 162.369 
162.99 163.566 164.102 164.511 164.965 165.264 165.736 166.011 161.364 
162.197 162.017 162.436 162.923 162.823 163.309 163.103 163.513 163.636 
163.56 164.142 163.991 164.498 164.226 164.598 164.468 164.358 165.051 
164.911 165.533 165.271 165.706 165.305 165.556 165.374 165.263 166.005 
165.903 166.62 166.389 166.873 166.452 166.7 166.205 166.379 166.096 
166.098 166.787 166.805 167.552 167.468 168.017 167.652 167.881 167.349 
167.461 166.986 167.117 166.449 166.615 167.212 167.382 168.062 168.213 
168.821 168.708 168.983 168.519 168.539 168.012 168.019 167.599 167.59 
166.523 166.786 167.326 167.586 168.139 168.445 169.007 169.232 169.591 
169.454 169.473 169.021 168.897 168.422 168.314 167.902 167.775 166.519 
166.788 167.293 167.568 168.015 168.326 168.768 169.143 169.534 169.758 
169.89 169.742 169.608 169.214 169.03 168.604 168.469 168.051 167.938 
160.993 162.052 161.262 160.744 163.125 162.329 161.807 161.012 160.569 
164.167 163.406 162.896 162.091 161.605 160.878 160.543 165.069 164.387 
163.892 163.162 162.678 161.925 161.489 160.834 160.483 165.9 165.239 
164.75 164.085 163.637 162.961 162.494 161.774 161.278 160.641 160.179 
166.693 166.084 165.58 164.907 164.416 163.811 163.352 162.711 162.151 
161.436 160.855 160.234 159.75 167.182 166.768 166.248 165.67 165.062 
164.482 163.938 163.414 162.868 162.246 161.629 160.952 160.408 159.827 
159.405 167.35 167.069 166.566 166.16 165.536 165.017 164.392 163.893 
163.352 162.851 162.31 161.709 161.168 160.545 160.096 159.538 159.162 
167.515 167.204 166.75 166.394 165.873 165.423 164.86 164.348 163.823 
163.325 162.858 162.343 161.882 161.308 160.87 160.282 159.901 159.34 
158.999 167.064 167.54 167.462 167.669 167.836 167.87 168.176 168.053 
168.132 168.166 168.124 168.393 168.412 168.56 168.404 168.36 168.603 
168.474 168.63 168.59 168.761 168.712 168.751 168.555 168.439 168.885 
168.834 168.966 168.892 169.082 168.99 169.099 168.908 168.811 168.537 
168.293 168.971 169.003 169.181 169.196 169.435 169.396 169.53 169.325 
169.193 168.869 168.559 168.256 167.917 168.97 169.058 169.241 169.333 
169.581 169.668 169.815 169.715 169.542 169.225 168.843 168.501 168.134 
167.853 167.526 168.729 168.959 169.108 169.302 169.517 169.704 169.879 
169.903 169.792 169.531 169.159 168.788 168.414 168.102 167.787 167.493 
167.149 168.215 168.562 168.703 169.019 169.211 169.515 169.727 169.905 
169.933 169.797 169.531 169.153 168.782 168.413 168.088 167.774 167.426 
167.095 166.692 
POINT_DATA 1002
SCALARS Distance double
LOOKUP_TABLE default
155.985 156.53 155.68 155.158 154.793 155.613 154.497 154.107 154.921 
155.348 154.065 153.671 154.397 154.736 155.029 153.599 153.346 153.802 
154.022 154.311 154.447 153.102 153.177 153.069 153.137 153.348 153.509 
153.395 152.9 153.21 152.671 152.566 152.6 152.632 152.466 152.253 
152.899 153.221 152.67 152.524 152.398 152.271 152.02 151.741 151.701 
152.835 153.119 152.629 152.514 152.315 152.075 151.875 151.667 151.557 
151.649 152.775 153.042 152.506 152.337 152.094 151.724 151.505 151.484 
151.477 151.464 151.522 156.7 155.747 156.846 155.824 156.886 154.685 
155.874 157.015 154.581 153.764 156.086 157.414 154.517 153.348 153.185 
156.572 157.948 154.777 153.099 152.638 153.043 157.213 158.551 155.534 
153.578 152.524 152.812 153.276 157.941 159.303 156.518 154.832 153.383 
153.037 153.397 153.501 158.725 160.087 157.429 156.16 154.842 153.902 
153.635 153.618 153.439 159.451 160.722 158.215 157.158 156.123 155.03 
154.16 153.686 153.448 153.256 160.469 159.239 160.238 159.215 160.201 
158.167 159.41 160.269 158.329 157.222 159.462 160.11 158.492 157.288 
156.133 159.105 159.688 158.304 157.218 156.018 154.948 158.63 159.29 
157.858 157.012 156.016 154.872 154.013 158.304 159.01 157.518 156.789 
156.087 155.077 154.003 153.474 158.058 158.792 157.317 156.627 155.992 
155.154 154.125 153.421 153.235 157.869 158.666 157.139 156.489 155.809 
154.935 153.982 153.352 153.159 153.123 152.917 153.062 152.786 153.029 
152.926 152.465 153.071 152.852 152.644 151.922 153.671 152.93 152.792 
152.342 151.479 154.74 153.616 153.068 152.793 152.119 151.323 155.707 
154.661 153.673 153.089 152.571 151.833 151.207 156.434 155.598 154.563 
153.602 152.884 152.19 151.509 151.086 157.192 156.471 155.588 154.575 
153.637 152.807 152.039 151.477 151.233 158.089 157.457 156.683 155.744 
154.772 153.852 152.992 152.295 151.875 151.714 152.576 152.326 152.242 
151.828 151.891 151.946 151.186 151.369 151.501 151.493 150.87 150.906 
151.128 151.043 151.081 150.896 150.789 150.936 150.926 150.805 151.052 
150.907 150.799 150.8 150.853 150.798 150.847 151.174 150.988 150.816 
150.627 150.565 150.626 150.646 150.792 151.153 151.36 151.077 150.705 
150.369 150.332 150.406 150.403 150.606 151.082 152.112 151.735 152.589 
152.207 153.151 151.311 152.796 153.9 151.686 150.733 153.539 154.778 
152.242 151.055 150.364 154.352 155.583 152.966 151.688 150.792 150.376 
155.138 156.282 153.815 152.516 151.538 150.785 150.341 155.894 156.97 
154.722 153.466 152.417 151.503 150.641 150.314 156.644 157.662 155.608 
154.464 153.373 152.424 151.431 150.722 150.709 157.372 158.316 156.438 
155.434 154.374 153.426 152.505 151.648 151.261 151.356 152.504 152.992 
153.536 154.125 154.647 153.529 155.35 155.759 154.786 154.209 156.516 
156.997 156.133 155.58 155.102 157.826 158.463 157.382 156.956 156.459 
156.016 159.374 159.883 158.78 158.25 157.766 157.303 156.809 160.649 
160.895 160.178 159.6 159.04 158.569 158.107 157.546 161.434 161.621 
161.148 160.768 160.293 159.772 159.311 158.838 158.255 162.171 162.425 
161.935 161.714 161.443 160.979 160.4 159.907 159.445 158.893 159.224 
158.705 159.906 159.341 160.533 157.997 159.769 161.032 158.394 157.028 
160.038 161.362 158.608 157.215 155.966 160.21 161.455 158.915 157.488 
156.141 154.972 160.336 161.516 159.298 158.064 156.555 155.191 154.048 
160.668 161.776 159.715 158.652 157.204 155.654 154.386 153.286 161.192 
162.125 160.307 159.217 157.811 156.306 154.996 153.867 152.787 159.544 
160.153 160.476 161.076 161.451 160.826 161.998 162.408 161.693 161.499 
162.938 163.335 162.562 162.385 162.151 163.943 164.328 163.472 163.161 
163.104 162.598 164.957 165.345 164.406 163.837 163.757 163.674 162.783 
165.893 166.261 165.333 164.553 164.237 164.439 164.093 162.933 166.8 
167.087 166.303 165.452 164.84 164.978 165.095 164.356 163.125 167.674 