# vtk DataFile Version 4.0
vtk output
ASCII
DATASET POLYDATA
POINTS 1002 float
-81.1705 -112.27 74.923 -81.0496 -113.742 74.5111 -81.0758 -113.352 73.6626 
-81.3127 -111.826 74.056 -81.1574 -112.856 72.8378 -81.5852 -110.904 75.3439 
-81.5667 -111.256 73.1732 -81.5307 -112.282 72.0285 -81.7998 -110.356 74.4355 
-82.016 -109.44 75.7067 -82.0112 -110.61 72.3414 -82.0867 -111.628 71.2697 
-82.1131 -109.64 73.5374 -82.229 -108.696 74.7878 -82.2389 -107.566 75.9981 
-82.5274 -109.977 71.6843 -82.5937 -110.918 70.6334 -82.5774 -108.949 72.8299 
-82.6556 -107.939 73.9595 -82.5933 -106.817 75.1175 -82.6883 -105.782 76.2722 
-83.2176 -109.407 71.1829 -83.2785 -110.287 70.2003 -83.254 -108.421 72.3309 
-83.3302 -107.396 73.3729 -83.3187 -106.32 74.3745 -83.3222 -105.298 75.4953 
-83.5942 -104.544 76.6246 -84.1929 -108.867 70.7848 -84.2222 -109.75 69.9474 
-84.2179 -107.917 71.8427 -84.192 -106.931 72.8566 -84.1721 -105.891 73.7677 
-84.1892 -104.909 74.8072 -84.2665 -104.062 75.9161 -84.4084 -103.309 76.9626 
-85.108 -108.243 70.4855 -85.1016 -109.141 69.7566 -85.1702 -107.273 71.3753 
-85.0899 -106.315 72.2981 -84.9378 -105.258 73.1505 -84.9332 -104.231 74.1304 
-84.955 -103.374 75.1989 -84.9007 -102.579 76.1755 -84.8283 -101.803 77.1131 
-85.8479 -107.542 70.263 -85.8861 -108.462 69.6221 -85.8833 -106.53 71.0109 
-85.861 -105.603 71.8406 -85.6833 -104.586 72.6172 -85.5704 -103.466 73.4768 
-85.573 -102.531 74.481 -85.4618 -101.766 75.4093 -85.2765 -101.056 76.2488 
-85.1639 -100.463 77.1401 -86.6556 -106.898 70.1249 -86.7396 -107.851 69.6109 
-86.5924 -105.833 70.7202 -86.5892 -104.913 71.472 -86.5174 -104.022 72.2299 
-86.3464 -102.942 72.9585 -86.2393 -101.913 73.8102 -86.1363 -101.12 74.711 
-85.922 -100.429 75.5259 -85.7286 -99.8541 76.3314 -85.6628 -99.4912 77.2054 
-81.0332 -114.949 73.6124 -80.9097 -114.492 72.6802 -80.6468 -115.812 72.7425 
-80.3835 -115.214 71.6653 -79.8381 -116.287 71.9055 -80.9451 -113.913 71.8335 
-79.6591 -115.606 70.6623 -79.3353 -116.948 71.1332 -80.4699 -114.556 70.7395 
-81.4368 -113.259 71.0429 -79.5495 -116.403 69.78 -79.6991 -118.021 70.5264 
-80.0206 -115.081 69.5244 -81.1117 -113.917 69.8471 -82.0756 -112.486 70.2624 
-80.2538 -117.569 69.2612 -80.5082 -118.893 70.1687 -80.2381 -116.08 68.5239 
-80.8456 -114.647 68.4658 -81.8836 -113.163 69.024 -82.6682 -111.664 69.652 
-81.2081 -118.287 69.2318 -81.4387 -119.346 70.0046 -81.0519 -116.999 68.3711 
-81.1377 -115.546 67.7274 -81.8343 -113.922 67.8479 -82.787 -112.327 68.5923 
-83.5351 -110.987 69.3491 -82.2791 -118.582 69.4361 -82.6183 -119.748 69.9542 
-82.0832 -117.259 68.9102 -81.9888 -115.977 68.1797 -82.3097 -114.602 67.5994 
-83.134 -113.015 67.7413 -83.9495 -111.563 68.4303 -84.5478 -110.364 69.1545 
-83.4766 -118.873 69.6442 -83.8588 -120.092 70.0483 -83.2463 -117.38 69.3505 
-83.1465 -116.063 68.8799 -83.2805 -115.008 68.127 -83.8176 -113.713 67.5421 
-84.4949 -112.135 67.5943 -84.9934 -110.764 68.1921 -85.414 -109.639 68.956 
-84.5659 -119.097 69.871 -84.8744 -120.161 70.2762 -84.3864 -117.707 69.4885 
-84.3399 -116.406 68.9963 -84.4235 -115.476 68.337 -84.7321 -114.45 67.626 
-85.1834 -112.881 67.17 -85.5367 -111.203 67.3048 -85.8332 -109.939 68.0191 
-86.2467 -108.935 68.91 -85.614 -119.462 70.2634 -85.4736 -118.332 69.7392 
-86.6301 -118.741 70.0816 -86.6289 -117.737 69.2399 -87.8863 -118.113 69.6645 
-85.4666 -117.148 68.9665 -87.8469 -117.207 68.6953 -88.9562 -117.305 69.3736 
-86.6649 -116.914 68.1042 -85.536 -116.236 68.0996 -88.8497 -116.29 68.6812 
-89.7604 -116.212 69.416 -87.8246 -116.338 67.7452 -86.7442 -116.016 67.2468 
-85.7208 -115.278 67.4363 -89.7812 -115.106 68.9981 -90.7207 -115.13 69.5169 
-88.923 -115.089 68.1322 -87.9642 -114.893 67.2491 -86.9881 -114.41 66.9065 
-86.0461 -113.662 66.9854 -90.8271 -113.89 69.2381 -91.8482 -113.941 69.6178 
-89.9816 -113.734 68.6056 -89.1766 -113.372 67.7673 -88.2809 -112.879 67.1095 
-87.2873 -112.298 66.813 -86.3126 -111.668 66.861 -91.8784 -112.354 69.5563 
-92.8822 -112.4 69.8489 -90.9551 -112.295 69.0756 -90.1945 -112.08 68.3733 
-89.4444 -111.646 67.703 -88.5103 -111.084 67.2735 -87.4346 -110.501 67.1367 
-86.4989 -110.087 67.398 -92.9635 -110.634 69.903 -93.9012 -110.859 70.0277 
-91.9824 -110.545 69.6448 -91.1454 -110.567 69.137 -90.4217 -110.484 68.5261 
-89.5859 -110.147 68.0777 -88.5768 -109.652 67.9157 -87.6132 -109.228 68.042 
-86.8475 -109.013 68.4131 -94.1624 -109.265 69.9697 -94.9853 -109.693 69.9978 
-93.208 -108.954 69.9135 -92.3101 -108.868 69.6657 -91.5196 -108.878 69.2345 
-90.6591 -108.753 68.8141 -89.6618 -108.488 68.6388 -88.7469 -108.254 68.7653 
-88.0237 -108.112 69.0386 -87.3697 -107.996 69.3239 -87.6545 -106.656 69.9497 
-88.3855 -106.775 69.7568 -88.5589 -105.152 70.137 -89.0357 -106.737 69.4793 
-89.3198 -105.091 69.8937 -89.3182 -103.429 70.2256 -89.788 -106.615 69.1281 
-90.0762 -104.852 69.529 -90.2181 -103.252 69.9177 -90.1072 -101.755 70.365 
-90.8549 -106.664 68.965 -91.0669 -104.64 69.1528 -91.2805 -103.098 69.6034 
-91.2819 -101.651 70.0972 -91.0781 -100.203 70.4816 -91.9993 -106.928 69.1142 
-92.3077 -104.791 68.9694 -92.4534 -103.076 69.3356 -92.5008 -101.673 69.9275 
-92.3207 -100.113 70.228 -91.9781 -98.7021 70.511 -92.9557 -107.208 69.3957 
-93.4844 -105.292 68.9456 -93.6515 -103.329 69.0421 -93.622 -101.66 69.6561 
-93.4749 -100.087 69.9943 -93.1254 -98.5681 70.1708 -92.6908 -97.474 70.7194 
-93.8517 -107.483 69.6302 -94.4834 -105.88 69.0507 -94.809 -103.899 68.8027 
-94.8218 -101.806 69.196 -94.6838 -100.003 69.5694 -94.393 -98.5339 69.7495 
-93.953 -97.4311 70.3089 -93.475 -96.6981 71.2365 -94.7892 -107.89 69.7474 
-95.3896 -106.439 69.2872 -95.7991 -104.615 68.9102 -95.9763 -102.417 68.9786 
-95.951 -100.314 69.2305 -95.7394 -98.6684 69.3976 -95.3755 -97.5218 69.8864 
-94.9103 -96.763 70.8467 -94.3876 -96.1724 71.8391 -95.6275 -108.417 69.8137 
-96.1736 -106.993 69.5649 -96.5353 -105.265 69.3318 -96.7692 -103.253 69.2694 
-96.8742 -101.217 69.3811 -96.7761 -99.4039 69.536 -96.5184 -97.9579 69.8807 
-96.1762 -96.96 70.6205 -95.739 -96.2881 71.5557 -95.2067 -95.7014 72.3681 
-87.524 -105.477 70.3631 -88.3812 -103.885 70.5413 -87.4315 -104.38 70.9759 
-89.1207 -102.205 70.7347 -88.3092 -102.836 71.2233 -87.4384 -103.491 71.7681 
-89.9169 -100.556 70.9 -89.0407 -101.147 71.4291 -88.2694 -101.849 71.9849 
-87.3156 -102.48 72.5024 -90.8608 -98.996 70.9632 -89.7686 -99.4539 71.5375 
-88.8285 -99.9611 72.0867 -87.9471 -100.655 72.6363 -87.047 -101.357 73.2291 
-91.6964 -97.646 71.1712 -90.6368 -98.0176 71.7242 -89.4469 -98.289 72.2701 
-88.3706 -98.7485 72.7757 -87.5719 -99.6478 73.4082 -86.8561 -100.488 74.1064 
-92.3999 -96.6598 71.6948 -91.44 -96.884 72.1761 -90.3393 -97.1247 72.7205 
-89.0862 -97.3344 73.2093 -88.1153 -98.0061 73.7386 -87.4306 -99.0022 74.4075 
-86.6841 -99.7876 75.0258 -93.2023 -95.9575 72.2851 -92.1433 -95.9298 72.7108 
-91.1889 -96.1465 73.2525 -90.0711 -96.4016 73.8237 -88.9295 -96.7905 74.3061 
-88.0697 -97.5391 74.8481 -87.3054 -98.4035 75.4319 -86.466 -99.1525 75.904 
-94.0902 -95.3732 72.76 -92.9152 -95.1277 73.1481 -91.898 -95.1765 73.6679 
-90.9191 -95.4909 74.3249 -89.7941 -95.8643 74.8892 -88.7278 -96.3407 75.3596 
-87.8804 -97.0473 75.8881 -87.0971 -97.9042 76.3872 -86.3238 -98.7516 76.7906 
-95.2663 -95.0039 73.1528 -94.1146 -94.5765 73.5414 -95.3019 -94.3253 74.2163 
-94.1439 -93.955 74.6903 -95.355 -93.9211 75.6723 -92.8819 -94.3727 74.0214 
-94.1473 -93.7769 76.198 -95.3104 -93.8743 77.1835 -92.8326 -93.9559 75.29 
-91.7602 -94.5492 74.7041 -93.9808 -93.9114 77.7195 -95.0201 -94.0741 78.5507 
-92.7028 -93.9513 76.8187 -91.5157 -94.2098 76.0268 -90.5933 -94.9372 75.4184 
-93.6448 -94.2121 79.1701 -94.5773 -94.568 79.9003 -92.4863 -94.1312 78.3492 
-91.215 -94.1412 77.5133 -90.0991 -94.5175 76.6889 -89.3161 -95.3503 75.9591 
-93.307 -94.8639 80.4803 -94.1469 -95.4407 81.0471 -92.2877 -94.58 79.7574 
-91.0372 -94.4242 78.9845 -89.7281 -94.4651 78.1359 -88.7595 -94.9955 77.2298 
-88.2468 -95.9358 76.4722 -93.004 -95.8099 81.4679 -93.7506 -96.4368 81.8591 
-92.1002 -95.4142 80.8918 -90.9495 -95.1899 80.2236 -89.6501 -95.0266 79.528 
-88.5278 -95.1873 78.6806 -87.8518 -95.8638 77.7783 -87.4737 -96.8509 77.0209 
-92.6912 -96.6893 82.3355 -93.3845 -97.2532 82.6434 -91.8489 -96.3069 81.8677 
-90.7668 -96.1136 81.2631 -89.5868 -95.9378 80.6707 -88.5527 -95.8816 80.0223 
-87.7902 -96.275 79.1796 -87.257 -97.0654 78.2859 -86.7877 -97.9315 77.4845 
-92.3902 -97.3989 83.295 -93.0662 -97.8995 83.5483 -91.5732 -97.0351 82.9119 
-90.5211 -96.8401 82.3659 -89.4016 -96.7173 81.7603 -88.4968 -96.6619 81.1704 
-87.8174 -96.9023 80.4672 -87.2181 -97.514 79.6012 -86.6362 -98.2271 78.7126 
-86.0917 -98.857 77.9 -96.1666 -95.6906 72.502 -96.1969 -95.0952 73.4748 
-96.8947 -95.982 72.8552 -96.9189 -95.5841 74.0119 -97.6232 -96.6459 73.3997 
-96.2087 -94.5983 74.8572 -97.7104 -96.3122 74.7026 -98.4936 -97.2864 73.9839 
-96.8717 -95.3257 75.6334 -96.2196 -94.3625 76.504 -98.6048 -96.8577 75.5029 
-99.0842 -97.843 74.6999 -97.5762 -96.1744 76.465 -96.7707 -95.3009 77.2994 
-96.0972 -94.4161 77.9536 -99.1528 -97.6304 76.4606 -99.1335 -99.0308 75.6798 
-98.4146 -96.8874 77.3767 -97.3794 -96.3589 78.0886 -96.6322 -95.4812 78.6617 
-95.7713 -94.731 79.2902 -99.1822 -99.2358 77.3867 -98.996 -100.835 76.6233 
-98.9746 -98.0218 78.2864 -98.1794 -97.3794 78.9277 -97.2703 -96.6701 79.4036 
-96.4138 -95.8199 80.0152 -95.3317 -95.4092 80.6224 -99.0149 -101.042 78.0476 
-98.9542 -102.422 77.3166 -98.9905 -99.6618 78.9553 -98.6477 -98.7013 79.6372 
-97.9137 -97.909 80.0912 -97.0131 -97.0075 80.6822 -96.0004 -96.4656 81.2619 
-94.845 -96.3963 81.6106 -98.9599 -102.446 78.6262 -99.0065 -103.662 77.9773 
-98.7863 -101.143 79.4208 -98.5457 -100.136 80.0808 -98.0927 -99.3676 80.5326 
-97.336 -98.4109 81.131 -96.4497 -97.6092 81.7784 -95.4557 -97.374 82.1314 
-94.3723 -97.3502 82.3466 -99.066 -103.745 79.3198 -99.1088 -104.929 78.7173 
-98.7388 -102.439 79.9173 -98.3001 -101.397 80.3989 -97.8726 -100.769 80.7678 
[...]
CELL_DATA 2000
SCALARS Distance double
LOOKUP_TABLE default
156.809 156.137 156.326 156.097 155.477 155.645 155.413 155.676 155.499 
154.898 155.013 154.722 154.954 154.723 155.005 154.683 154.386 154.472 
154.166 154.302 154.043 154.232 153.913 154.081 153.732 154.028 154.047 
153.836 153.869 153.672 153.71 153.477 153.491 153.25 153.323 153.231 
153.927 153.852 153.716 153.68 153.539 153.497 153.304 153.247 153.061 
153.051 152.96 153.067 153.057 153.895 153.821 153.632 153.601 153.406 
153.379 153.103 153.07 152.791 152.84 152.644 152.774 152.604 152.78 
152.578 153.788 153.724 153.451 153.434 153.171 153.174 152.847 152.803 
152.43 152.451 152.167 152.31 152.064 152.228 151.945 152.119 151.861 
153.748 153.609 153.299 153.205 152.925 152.908 152.644 152.579 152.243 
152.138 151.831 151.838 151.62 151.702 151.473 151.552 151.333 151.469 
151.358 157.223 157.474 157.095 156.493 157.267 157.13 156.582 156.324 
155.799 156.903 156.735 156.243 156.227 155.84 155.669 155.233 157.146 
156.565 155.982 155.828 155.542 155.57 155.275 155.109 154.689 158.012 
157.177 156.495 155.88 155.476 155.291 155.072 155.028 154.728 154.556 
154.234 158.891 158.143 157.505 156.691 156.121 155.52 155.168 154.905 
154.7 154.567 154.386 154.226 154.093 159.714 159.008 158.444 157.689 
157.102 156.346 155.864 155.286 155.021 154.697 154.588 154.409 154.34 
154.184 154.092 160.625 159.893 159.331 158.588 158.039 157.307 156.852 
156.164 155.842 155.276 155.067 154.702 154.564 154.379 154.267 154.135 
154.003 161.438 160.789 160.214 159.489 158.942 158.236 157.832 157.18 
156.888 156.238 155.926 155.321 154.995 154.602 154.386 154.234 154.139 
154.039 153.964 161.62 161.505 161.199 160.444 161.483 161.118 160.364 
159.996 159.22 161.467 161.132 160.401 159.998 159.276 158.866 158.185 
161.276 161.063 160.394 160.066 159.375 158.987 158.326 157.934 157.289 
161.037 160.848 160.244 160.002 159.302 159.002 158.267 157.978 157.246 
156.949 156.236 160.86 160.659 160.061 159.833 159.135 158.844 158.054 
157.776 156.969 156.728 155.941 155.746 155.109 160.561 160.432 159.8 
159.629 158.961 158.694 157.972 157.623 156.887 156.512 155.794 155.465 
154.878 154.718 154.387 160.159 160.048 159.417 159.298 158.683 158.516 
157.914 157.637 157.028 156.627 156.027 155.569 155.076 154.714 154.44 
154.273 154.177 159.898 159.705 159.119 158.942 158.376 158.236 157.704 
157.548 156.989 156.745 156.154 155.836 155.337 155.034 154.736 154.504 
154.36 154.2 154.087 153.977 154.33 154.061 153.756 154.641 154.379 
154.061 153.707 153.198 155.043 154.645 154.236 153.913 153.419 153.057 
152.534 155.723 155.112 154.581 154.103 153.672 153.309 152.917 152.503 
152.085 156.561 155.887 155.33 154.636 154.199 153.712 153.453 153.02 
152.664 152.143 151.701 157.322 156.739 156.269 155.534 155.044 154.402 
154.073 153.61 153.259 152.746 152.234 151.711 151.292 158.039 157.517 
157.179 156.514 156.056 155.32 154.855 154.249 153.81 153.282 152.776 
152.24 151.815 151.389 151.226 158.828 158.314 158.087 157.473 157.117 
156.364 155.89 155.116 154.63 153.929 153.47 152.845 152.504 152.01 
151.908 151.55 151.611 159.651 159.169 158.997 158.429 158.133 157.434 
157.007 156.215 155.762 154.95 154.548 153.769 153.48 152.842 152.756 
152.317 152.389 152.042 152.118 153.71 153.387 153.425 153.153 152.843 
152.984 152.722 152.854 152.719 152.212 152.38 152.206 152.407 152.328 
152.509 152.45 151.698 151.794 151.616 151.859 151.81 152.077 152.008 
152.2 152.057 151.28 151.334 151.075 151.261 151.103 151.408 151.278 
151.61 151.464 151.719 151.598 150.959 150.956 150.729 150.794 150.566 
150.689 150.458 150.741 150.64 151.031 151.022 151.333 151.348 150.961 
150.792 150.641 150.582 150.443 150.363 150.146 150.118 150.032 150.271 
150.409 150.769 150.893 151.161 151.204 151.315 150.989 150.788 150.61 
150.505 150.398 150.286 150.115 150.022 149.967 150.081 150.283 150.49 
150.741 150.837 151.032 151.082 151.775 151.403 151.091 150.802 150.595 
150.476 150.398 150.315 150.245 150.123 150.097 150.11 150.222 150.401 
150.548 150.733 150.849 151.003 151.144 151.921 151.916 151.649 151.19 
152.183 151.716 151.196 150.937 150.63 152.792 152.157 151.584 151.09 
150.729 150.528 150.414 153.481 152.848 152.271 151.641 151.167 150.749 
150.523 150.389 150.302 154.169 153.545 153.009 152.367 151.822 151.251 
150.825 150.514 150.303 150.224 150.142 154.985 154.312 153.83 153.151 
152.641 151.953 151.437 150.879 150.523 150.257 150.154 150.118 150.185 
155.84 155.193 154.753 154.064 153.618 152.875 152.407 151.656 151.27 
150.694 150.559 150.285 150.392 150.329 150.513 156.604 156.03 155.629 
155 154.587 153.894 153.472 152.727 152.369 151.662 151.502 150.975 
151.058 150.75 150.936 150.762 150.912 157.319 156.784 156.432 155.852 
155.465 154.829 154.42 153.755 153.415 152.773 152.599 152.035 152.05 
151.6 151.714 151.359 151.456 151.183 151.26 152.377 153.126 152.632 
152.444 154.106 153.5 153.391 152.829 152.77 155.311 154.636 154.564 
153.926 153.934 153.34 153.389 156.495 155.893 155.87 155.217 155.236 
154.593 154.63 154.02 154.056 157.682 157.096 157.19 156.565 156.63 
155.954 155.98 155.299 155.311 154.678 154.727 159.074 158.418 158.597 
157.955 158.104 157.404 157.458 156.71 156.725 156.006 156.058 155.412 
155.528 160.454 159.847 159.978 159.385 159.532 158.894 158.951 158.216 
158.195 157.452 157.466 156.791 156.863 156.246 156.351 161.642 161.104 
161.142 160.622 160.67 160.174 160.19 159.607 159.529 158.853 158.78 
158.136 158.144 157.546 157.587 157.01 157.074 162.834 162.265 162.266 
161.68 161.617 161.126 161.086 160.646 160.583 160.05 159.952 159.359 
159.326 158.755 158.782 158.212 158.246 157.686 157.751 160.059 160.441 
159.989 159.41 160.653 160.272 159.614 159.203 158.493 160.746 160.379 
159.668 159.282 158.515 158.136 157.349 161.011 160.524 159.846 159.357 
158.604 158.148 157.384 156.964 156.168 161.529 160.937 160.286 159.683 
158.956 158.366 157.633 157.108 156.356 155.837 155.028 161.993 161.459 
160.742 160.162 159.369 158.766 157.992 157.448 156.717 156.15 155.358 
154.756 153.988 162.238 161.792 161.044 160.527 159.661 159.083 158.231 
157.742 157.023 156.541 155.802 155.186 154.427 153.831 153.238 162.476 
162.004 161.322 160.808 159.999 159.369 158.501 157.942 157.242 156.812 
156.173 155.646 154.932 154.329 153.718 153.224 152.814 162.849 162.316 
161.678 161.157 160.47 159.826 159.037 158.343 157.645 157.104 156.539 
156.039 155.413 154.834 154.202 153.689 153.219 152.839 152.49 160.52 
161.353 160.938 160.928 162.211 161.778 161.772 161.337 161.23 163.114 
162.651 162.655 162.209 162.139 161.594 161.384 164.11 163.593 163.604 
163.129 163.107 162.563 162.425 161.791 161.641 165.197 164.636 164.593 
164.077 164.055 163.56 163.553 162.961 162.925 162.239 162.202 166.225 
165.712 165.605 165.046 164.912 164.437 164.48 164.091 164.239 163.664 
163.667 162.892 162.753 167.108 166.682 166.643 166.079 165.879 165.272 
165.162 164.845 165.033 164.815 164.923 164.349 164.135 163.314 163 
167.955 167.561 167.649 167.157 167.043 166.329 166.032 165.471 165.409 
165.287 165.421 165.275 165.172 164.605 164.276 163.491 163.203 168.783 
168.414 168.499 168.128 168.079 167.485 167.138 166.398 166.036 165.606 
165.546 165.483 165.533 165.368 165.263 164.736 164.531 163.781 163.589 
169.187 169.422 169.183 168.865 169.364 169.253 168.949 168.801 168.386 
169.29 169.14 168.792 168.712 168.299 168.122 167.468 169.153 169.072 
168.728 168.598 168.22 168.001 167.407 167.051 166.358 168.693 168.788 
168.525 168.545 168.247 168.053 167.532 167.105 166.467 166.077 165.694 
168.255 168.278 168.035 168.186 167.963 168.004 167.555 167.278 166.669 
166.285 165.893 165.691 165.593 168.059 167.968 167.665 167.709 167.507 
167.61 167.26 167.164 166.627 166.41 166.048 165.914 165.808 165.688 
165.523 167.693 167.723 167.371 167.404 167.208 167.267 167.03 166.92 
166.464 166.267 165.909 165.907 165.821 165.856 165.693 165.479 165.014 
167.081 167.214 166.889 167.016 166.837 166.997 166.87 166.844 166.471 
166.2 165.714 165.619 165.381 165.585 165.41 165.484 165.02 164.763 
164.088 166.691 166.279 166.456 166.521 165.944 166.083 166.072 166.332 
166.523 165.246 165.608 165.563 165.887 166.059 166.434 166.622 164.049 
164.668 164.672 165.204 165.318 165.849 165.969 166.367 166.241 162.729 
163.391 163.477 164.138 164.237 164.885 164.897 165.45 165.259 165.651 
165.395 161.573 162.168 162.282 162.927 163.028 163.676 163.628 164.202 
163.976 164.48 164.309 164.831 164.913 160.489 161.067 161.137 161.756 
161.805 162.432 162.372 162.921 162.711 163.193 163.044 163.655 163.807 
164.543 164.837 159.378 159.951 159.965 160.572 160.561 161.174 161.12 
161.692 161.578 162.048 161.926 162.439 162.505 163.262 163.498 164.338 
164.447 158.313 158.831 158.829 159.389 159.376 159.94 159.917 160.483 
160.486 161.01 161.009 161.455 161.468 162.006 162.114 162.85 162.938 
163.696 163.593 166.668 166.554 166.513 166.36 166.466 166.446 166.337 
166.292 166.072 166.21 166.246 165.963 166.075 165.766 165.809 165.318 
165.658 165.778 165.271 165.421 164.945 165.178 164.637 164.735 164.042 
164.816 165.043 164.512 164.62 164.073 164.247 163.745 163.901 163.286 
163.33 162.673 163.783 164.093 163.62 163.812 163.3 163.452 162.98 
163.098 162.562 162.593 161.979 162.016 161.476 162.734 163.039 162.573 
162.845 162.351 162.615 162.123 162.336 161.771 161.879 161.243 161.313 
160.73 160.857 160.376 161.792 162.044 161.604 161.828 161.354 161.604 
161.117 161.372 160.803 160.988 160.346 160.493 159.895 160.062 159.553 
159.74 159.281 160.965 161.182 160.792 160.962 160.518 160.686 160.223 
160.404 159.887 160.031 159.445 159.573 159.017 159.191 158.714 158.909 
158.469 158.653 158.233 167 167.454 167.019 166.728 167.952 167.456 
167.051 166.759 166.605 168.387 167.944 167.475 167.078 166.83 166.65 
166.476 168.591 168.324 167.839 167.433 166.981 166.776 166.498 166.379 
165.995 168.483 168.411 167.989 167.683 167.083 166.787 166.276 166.193 
165.753 165.674 165.111 168.18 168.196 167.849 167.714 167.183 166.857 
166.234 165.949 165.406 165.294 164.783 164.68 164.075 167.84 167.846 
167.483 167.471 167.047 166.894 166.348 166.013 165.398 165.076 164.518 
164.337 163.8 163.641 163.044 167.476 167.483 167.074 167.068 166.641 
166.633 166.163 166.031 165.428 165.129 164.459 164.17 163.559 163.37 
162.801 162.634 162.071 167.031 167.084 166.691 166.674 166.231 166.205 
165.747 165.713 165.178 165.025 164.361 164.093 163.413 163.167 162.564 
162.386 161.844 161.696 161.2 166.627 165.928 166.312 166.322 165.163 
165.587 165.59 165.942 165.868 164.207 164.731 164.718 165.153 165.067 
165.43 165.336 163.013 163.642 163.624 164.175 164.101 164.558 164.433 
164.848 164.724 161.761 162.395 162.39 162.99 162.924 163.485 163.367 
163.858 163.681 164.132 163.923 160.645 161.194 161.178 161.74 161.639 
162.224 162.108 162.691 162.54 163.038 162.815 163.248 163.005 159.644 
160.112 160.014 160.532 160.39 160.935 160.808 161.396 161.304 161.866 
161.714 162.164 161.939 162.347 162.152 158.639 159.059 158.858 159.347 
159.207 159.731 159.645 160.176 160.116 160.657 160.563 161.059 160.874 
161.304 161.105 161.544 161.415 157.649 158.015 157.793 158.218 158.117 
158.617 158.608 159.111 159.066 159.541 159.407 159.888 159.696 160.186 
159.995 160.484 160.359 160.851 160.785 157.059 156.385 156.863 157.232 
155.825 156.289 156.67 157.136 157.596 154.983 155.63 156.017 156.592 
157.047 157.585 158.097 153.995 154.644 155.055 155.781 156.234 156.924 
157.396 158.03 158.496 153.491 153.846 154.311 154.871 155.395 156.032 
156.489 157.162 157.584 158.283 158.719 153.286 153.556 153.975 154.374 
154.932 155.392 155.888 156.349 156.755 157.318 157.763 158.464 158.959 
152.752 153.183 153.421 153.943 154.351 154.94 155.429 155.917 156.346 
156.725 157.163 157.64 158.18 158.799 159.344 152.024 152.456 152.588 
153.122 153.356 154.063 154.482 155.259 155.753 156.351 156.808 157.241 
157.746 158.208 158.779 159.296 159.822 151.558 151.832 152.019 152.344 
152.565 153.043 153.43 154.162 154.727 155.541 156.098 156.766 157.264 
157.81 158.333 158.84 159.37 159.835 160.305 160.413 159.483 160.056 
160.218 158.398 159.018 159.15 159.776 159.907 157.205 157.815 157.854 
158.568 158.704 159.416 159.565 155.935 156.545 156.501 157.2 157.322 
158.112 158.311 159.053 159.194 154.568 155.22 155.233 155.906 156.044 
156.762 156.981 157.74 157.918 158.63 158.737 153.333 153.906 154.045 
154.72 154.938 155.59 155.767 156.44 156.598 157.316 157.461 158.169 
158.32 152.517 152.899 153.075 153.648 153.899 154.514 154.643 155.245 
155.312 155.992 156.141 156.891 157.107 157.828 158.049 151.988 152.264 
152.38 152.809 152.977 153.493 153.574 154.109 154.135 154.737 154.872 
155.596 155.866 156.627 156.906 157.606 157.832 151.511 151.753 151.775 
152.126 152.162 152.584 152.586 153.06 153.088 153.627 153.78 154.423 
154.722 155.441 155.775 156.479 156.75 157.402 157.619 162.04 161.246 
162.011 162.69 160.313 161.113 161.832 162.644 163.356 159.522 160.237 
160.952 161.747 162.551 163.348 164.094 158.781 159.542 160.299 160.994 
161.802 162.564 163.422 164.155 164.905 157.989 158.789 159.656 160.405 
161.2 161.902 162.716 163.474 164.283 164.98 165.646 157.639 158.144 
159.004 159.716 160.54 161.274 162.041 162.781 163.538 164.281 164.936 
165.604 166.09 157.887 158.091 158.797 159.205 159.952 160.575 161.353 
162.085 162.85 163.563 164.214 164.845 165.321 165.898 166.248 158.061 
158.337 158.905 159.16 159.739 160.123 160.812 161.42 162.204 162.903 
163.61 164.209 164.729 165.21 165.595 166.056 166.393 157.77 158.23 
158.734 159.133 159.625 159.975 160.529 160.982 161.665 162.28 162.994 
163.625 164.209 164.714 165.144 165.544 165.906 166.294 166.632 162.568 
163.287 163.137 163.53 164.008 163.894 164.378 164.163 164.594 164.713 
164.62 165.18 165.052 165.589 165.346 165.779 165.46 165.33 165.873 
165.816 166.455 166.357 166.879 166.545 166.841 166.218 166.107 166.631 
166.527 167.188 167.173 167.819 167.623 167.98 167.532 167.735 166.705 
166.792 167.375 167.325 167.966 167.934 168.625 168.525 168.996 168.647 
168.874 168.411 168.587 166.829 167.096 167.712 167.905 168.506 168.617 
169.205 169.245 169.708 169.559 169.816 169.48 169.612 169.183 169.193 
166.889 167.133 167.702 168.014 168.548 168.847 169.285 169.532 169.848 
169.984 170.173 170.153 170.249 170.043 170.01 169.589 169.391 167.059 
167.217 167.706 167.947 168.407 168.696 169.06 169.351 169.59 169.84 
169.97 170.166 170.243 170.345 170.339 170.21 170.045 169.647 169.39 
162.296 163.233 162.568 162.197 164.282 163.555 163.233 162.54 162.213 
165.399 164.654 164.332 163.638 163.328 162.596 162.201 166.37 165.693 
165.301 164.685 164.344 163.681 163.213 162.464 161.944 167.273 166.598 
166.159 165.539 165.146 164.567 164.102 163.412 162.842 162.121 161.642 
168.162 167.523 167.094 166.405 165.934 165.294 164.826 164.214 163.713 
163.031 162.537 161.869 161.464 168.7 168.265 167.791 167.259 166.701 
166.065 165.467 164.868 164.342 163.799 163.308 162.729 162.24 161.644 
161.169 168.824 168.529 167.968 167.665 167.091 166.658 165.997 165.442 
164.794 164.293 163.746 163.304 162.778 162.294 161.761 161.232 160.736 
168.877 168.566 168.013 167.71 167.199 166.882 166.334 165.882 165.257 
164.725 164.138 163.661 163.153 162.713 162.234 161.766 161.319 160.818 
160.435 167.311 168.022 167.773 167.897 168.416 168.408 168.614 168.352 
168.405 168.561 168.63 168.858 168.849 168.92 168.739 168.729 168.996 
168.887 169.112 169.013 169.097 169.013 169.001 168.898 168.822 169.538 
169.477 169.779 169.523 169.634 169.307 169.284 169.062 168.987 168.849 
168.69 169.689 169.856 170.199 170.183 170.317 170.025 169.942 169.529 
169.367 169.046 168.878 168.658 168.436 169.684 169.859 170.128 170.3 
170.391 170.424 170.291 170.102 169.817 169.494 169.204 168.909 168.667 
168.414 168.151 169.711 169.862 170.085 170.176 170.229 170.271 170.155 
170.142 169.894 169.757 169.432 169.202 168.89 168.651 168.359 168.112 
167.793 169.526 169.811 170.073 170.197 170.297 170.238 170.178 170.052 
169.921 169.775 169.575 169.368 169.093 168.846 168.525 168.277 167.919 
167.681 167.311 
POINT_DATA 1002
SCALARS Distance double
LOOKUP_TABLE default
156.502 157.298 156.633 155.848 155.935 155.948 155.158 155.342 155.238 
155.318 154.544 154.816 154.471 154.466 154.272 154.063 154.286 153.897 
153.767 153.513 153.417 153.797 154.005 153.655 153.471 153.2 153.045 
153.236 153.761 154.02 153.597 153.372 153.076 152.915 152.926 153.016 
153.687 153.984 153.454 153.176 152.768 152.535 152.488 152.406 152.317 
153.506 153.88 153.166 152.9 152.471 152.057 151.914 151.796 151.638 
151.631 153.447 153.924 152.949 152.665 152.372 151.891 151.55 151.402 
151.226 151.14 151.307 157.74 156.915 157.77 156.708 157.326 156.126 
156.174 157.212 155.852 155.547 156.312 157.918 155.463 155.317 154.969 
157.305 158.815 155.871 155.101 154.805 154.417 158.31 159.551 156.902 
155.593 154.816 154.486 154.26 159.166 160.428 157.859 156.548 155.455 
154.797 154.488 154.277 160.089 161.361 158.742 157.52 156.492 155.582 
154.829 154.379 154.149 160.918 162.037 159.639 158.45 157.531 156.644 
155.557 154.604 154.179 154.093 161.905 160.777 161.836 160.743 161.874 
159.576 160.783 161.746 159.68 158.577 160.663 161.422 159.739 158.708 
157.697 160.465 161.228 159.608 158.564 157.534 156.512 160.29 161.066 
159.433 158.368 157.237 156.143 155.173 159.945 160.678 159.17 158.286 
157.268 156.161 155.085 154.382 159.526 160.28 158.786 158.099 157.363 
156.457 155.467 154.681 154.263 159.316 160.104 158.52 157.829 157.189 
156.422 155.59 154.961 154.572 154.25 153.764 154.174 153.334 154.395 
153.62 152.646 154.587 153.732 152.912 152.051 155.167 154 153.292 
152.555 151.655 156.08 154.752 153.854 153.22 152.225 151.23 156.956 
155.778 154.609 153.764 152.799 151.683 150.967 157.774 156.815 155.581 
154.383 153.291 152.245 151.523 151.193 158.656 157.837 156.704 155.393 
154.121 153.005 152.268 151.939 151.706 159.539 158.8 157.766 156.556 
155.343 154.184 153.256 152.748 152.485 152.167 153.068 152.556 152.549 
151.944 152.123 152.319 151.393 151.516 151.796 151.914 150.96 150.879 
150.919 151.126 151.358 150.685 150.549 150.277 150.185 150.616 151.097 
150.727 150.517 150.271 149.898 150.02 150.598 150.989 151.052 150.591 
150.412 150.182 149.991 150.236 150.643 150.885 151.457 150.767 150.429 
150.357 150.2 150.107 150.328 150.678 150.989 152.143 151.351 152.258 
151.543 152.754 150.699 152.18 153.447 151.034 150.46 152.923 154.078 
151.715 150.759 150.354 153.639 154.795 152.47 151.286 150.435 150.125 
154.507 155.656 153.349 152.109 150.921 150.218 150.126 155.417 156.449 
154.338 153.171 151.944 150.949 150.517 150.539 156.225 157.142 155.249 
154.178 153.07 152.096 151.465 151.198 151.074 156.989 157.827 156.086 
155.065 154.022 153.156 152.548 152.142 151.808 151.489 152.822 152.934 
153.626 153.943 154.751 153.301 155.218 155.969 154.537 153.969 156.497 
157.022 155.9 155.276 154.647 157.775 158.255 157.303 156.689 155.978 
155.311 159.23 159.746 158.791 158.222 157.467 156.733 156.134 160.57 
161.05 160.139 159.672 158.962 158.159 157.509 156.95 161.697 162.183 
161.162 160.714 160.188 159.441 158.743 158.183 157.632 162.917 163.406 
162.187 161.506 161.04 160.525 159.896 159.343 158.822 158.286 160.537 
159.894 160.894 160.034 161.036 158.918 160.074 161.134 158.901 157.73 
160.368 161.537 159.101 157.816 156.61 160.91 162.145 159.587 158.184 
156.902 155.561 161.327 162.512 159.994 158.531 157.263 155.991 154.526 
161.544 162.665 160.266 158.73 157.438 156.373 155.045 153.714 161.806 
162.963 160.62 159.118 157.665 156.629 155.522 154.231 153.213 160.925 
161.358 161.782 162.198 162.659 161.765 163.101 163.586 162.671 161.987 
164.097 164.652 163.619 163.037 162.256 165.164 165.778 164.522 164.031 
163.596 162.927 166.198 166.702 165.457 164.765 164.652 164.472 163.606 
167.149 167.477 166.586 165.602 165.126 165.327 164.974 163.829 168.061 
168.33 167.741 166.806 165.695 165.414 165.528 165.019 163.985 168.854 