# vtk DataFile Version 4.0
vtk output
ASCII
DATASET POLYDATA
POINTS 1002 float
-77.8374 -113.015 75.4584 -77.1612 -113.835 75.0569 -77.4386 -113.568 74.1238 
-78.0765 -112.554 74.5511 -77.7779 -113.171 73.1763 -78.4058 -111.888 75.7928 
-78.418 -112.031 73.6822 -78.2519 -112.737 72.3454 -78.6105 -111.247 74.9342 
-78.7816 -110.395 76.1321 -79.0192 -111.624 72.9798 -78.8841 -112.309 71.6903 
-79.1276 -110.759 74.186 -79.2197 -109.821 75.3627 -79.4334 -109.014 76.5944 
-79.8162 -111.245 72.4234 -79.6859 -111.871 71.1595 -79.9484 -110.438 73.5827 
-80.0197 -109.451 74.6919 -80.1984 -108.628 75.897 -80.5475 -108.033 77.1403 
-80.6973 -110.759 71.9208 -80.6027 -111.43 70.7384 -80.8355 -110.022 73.068 
-80.8982 -109.045 74.085 -80.9794 -108.11 75.201 -81.2192 -107.47 76.408 
-81.4319 -106.842 77.5532 -81.6255 -110.212 71.4977 -81.5429 -110.963 70.4799 
-81.7368 -109.464 72.6006 -81.8008 -108.549 73.5953 -81.7767 -107.487 74.5735 
-81.8038 -106.649 75.6648 -81.8799 -105.976 76.7407 -81.8488 -105.209 77.742 
-82.599 -109.696 71.2265 -82.5151 -110.476 70.3841 -82.6665 -108.889 72.1748 
-82.7596 -108.043 73.1743 -82.7959 -107.039 74.1196 -82.7019 -106.035 75.0747 
-82.6012 -105.247 76.0443 -82.5079 -104.528 76.9684 -82.4077 -103.834 77.8789 
-83.6164 -109.251 71.1023 -83.5291 -110.012 70.3832 -83.6247 -108.406 71.8501 
-83.6655 -107.52 72.7332 -83.7884 -106.619 73.676 -83.7892 -105.68 74.5883 
-83.6394 -104.822 75.4912 -83.4914 -104.128 76.3826 -83.366 -103.51 77.2539 
-83.2902 -103.007 78.1291 -84.6191 -108.84 71.0545 -84.5068 -109.567 70.4088 
-84.6227 -108.032 71.679 -84.5797 -107.082 72.3832 -84.6269 -106.118 73.1924 
-84.6741 -105.25 74.0431 -84.5862 -104.435 74.913 -84.4524 -103.729 75.8094 
-84.3286 -103.17 76.7137 -84.1974 -102.7 77.6021 -84.1187 -102.346 78.4656 
-76.733 -114.514 73.962 -77.0207 -114.259 72.906 -76.3436 -115.213 72.7384 
-76.599 -114.927 71.6285 -75.8592 -115.764 71.5953 -77.4535 -113.909 71.9087 
-75.9756 -115.401 70.4209 -75.2704 -116.236 70.5401 -76.9931 -114.559 70.6194 
-77.9842 -113.454 71.0637 -75.2919 -115.91 69.1829 -74.9459 -117.034 69.506 
-76.2676 -115.025 69.3156 -77.5504 -114.068 69.7704 -78.697 -112.955 70.4143 
-75.1896 -116.883 68.1421 -75.2187 -118.164 68.8628 -75.7911 -115.669 68.0178 
-77.1066 -114.611 68.5133 -78.564 -113.589 69.2417 -79.6811 -112.525 69.9726 
-75.9288 -118.029 67.918 -76.0174 -119.098 68.9044 -76.2078 -116.725 67.3278 
-77.2102 -115.384 67.5401 -78.7027 -114.216 68.279 -79.9102 -113.179 68.9969 
-80.7283 -112.108 69.6936 -77.0947 -118.775 68.4121 -77.1018 -119.671 69.2359 
-77.2722 -117.682 67.6499 -77.9493 -116.368 67.3656 -79.2141 -114.982 67.674 
-80.4068 -113.736 68.1735 -81.0908 -112.667 68.7372 -81.7017 -111.595 69.5263 
-78.2569 -119.17 68.9472 -78.2356 -120.133 69.4546 -78.402 -118.174 68.3707 
-78.8871 -117.144 67.8394 -79.8856 -115.897 67.5559 -81.013 -114.413 67.5245 
-81.6776 -113.095 67.7725 -82.0745 -112.069 68.4804 -82.7058 -111.063 69.4859 
-79.2742 -119.519 69.2833 -79.2506 -120.575 69.6067 -79.4167 -118.448 68.879 
-79.8298 -117.585 68.2994 -80.6294 -116.726 67.6469 -81.6225 -115.367 67.143 
-82.332 -113.736 67.0113 -82.6739 -112.494 67.4783 -83.0785 -111.575 68.4788 
-83.7538 -110.597 69.5698 -80.2226 -120.272 69.6633 -80.3708 -119.071 69.321 
-81.4159 -119.85 69.7609 -81.7936 -118.687 69.2059 -82.8498 -119.459 69.7382 
-80.7632 -118.049 68.7165 -83.32 -118.39 69.0153 -84.154 -119.007 69.7604 
-82.429 -117.867 68.2533 -81.4735 -117.392 67.8188 -84.5894 -117.923 69.1215 
-85.3052 -118.358 69.9994 -83.9325 -117.598 68.0365 -83.2005 -117.211 67.1901 
-82.3534 -116.42 66.9737 -85.8534 -117.288 69.51 -86.5796 -117.629 70.3341 
-85.1322 -116.993 68.4766 -84.517 -116.617 67.3232 -83.8284 -115.797 66.6381 
-83.0551 -114.667 66.6043 -87.1206 -116.497 70.0404 -87.6877 -116.731 70.8324 
-86.3602 -116.209 69.2166 -85.5975 -115.743 68.2363 -84.9248 -114.913 67.3269 
-84.2152 -113.865 66.8576 -83.4337 -112.999 66.9248 -88.0585 -115.321 70.8238 
-88.5318 -115.538 71.5249 -87.4541 -115.139 70.0574 -86.6861 -114.777 69.2808 
-85.9485 -114.084 68.5157 -85.2832 -113.23 67.9261 -84.5587 -112.481 67.6693 
-83.7748 -111.936 67.8725 -89.0357 -114.036 71.5526 -89.5839 -114.399 72.0115 
-88.4937 -113.848 70.8935 -87.8039 -113.622 70.2118 -87.0436 -113.177 69.6159 
-86.3803 -112.601 69.1355 -85.747 -112.018 68.8032 -85.0374 -111.443 68.7371 
-84.3342 -110.946 69.0389 -90.3859 -113.156 71.7889 -90.9285 -113.644 72.0674 
-89.8838 -112.856 71.3008 -89.2613 -112.575 70.7611 -88.4527 -112.155 70.3631 
-87.6457 -111.685 70.0981 -86.9584 -111.233 69.845 -86.2969 -110.704 69.643 
-85.6302 -110.162 69.6828 -85.0274 -109.781 69.9969 -85.5502 -108.588 70.8156 
-86.1441 -108.66 70.4549 -86.6577 -107.438 71.1463 -86.809 -108.954 70.2511 
-87.3719 -107.328 70.7486 -87.8394 -106.162 71.3744 -87.5767 -109.471 70.342 
-88.2197 -107.486 70.5414 -88.739 -105.95 70.8407 -88.9692 -104.882 71.5033 
-88.4519 -110.005 70.5248 -89.2762 -107.939 70.5922 -89.8563 -106.008 70.4892 
-90.0608 -104.692 70.8884 -89.9903 -103.75 71.704 -89.4643 -110.588 70.5383 
-90.5065 -108.6 70.5827 -91.1681 -106.456 70.4116 -91.3283 -104.753 70.4903 
-91.2334 -103.665 71.1966 -91.154 -102.767 72.0474 -90.4687 -111.308 70.5468 
-91.6823 -109.55 70.3905 -92.4134 -107.359 70.4107 -92.5731 -105.348 70.5481 
-92.4876 -103.896 70.9662 -92.4726 -102.864 71.7045 -92.5093 -101.897 72.4031 
-91.1808 -111.924 70.8478 -92.4529 -110.59 70.4146 -93.2176 -108.573 70.4847 
-93.4782 -106.454 70.923 -93.5797 -104.738 71.2811 -93.7022 -103.389 71.6495 
-93.7717 -102.293 72.2397 -93.6699 -101.337 72.8744 -91.6137 -112.336 71.3511 
-92.8014 -111.335 70.8629 -93.5512 -109.655 70.8577 -93.9326 -107.628 71.3852 
-94.3334 -105.876 71.8323 -94.7822 -104.368 71.9773 -94.9698 -103.056 72.2877 
-94.7895 -102.042 72.9365 -94.4153 -101.23 73.6246 -92.0077 -112.777 71.7663 
-93.0333 -111.846 71.4473 -93.7547 -110.433 71.4662 -94.2235 -108.609 71.8944 
-94.7811 -106.919 72.2907 -95.5116 -105.419 72.3574 -95.9876 -103.977 72.4709 
-95.8818 -102.847 73.0196 -95.4003 -102.062 73.8126 -94.9079 -101.382 74.5057 
-85.6637 -107.824 71.4428 -86.7943 -106.616 71.8096 -85.6508 -106.899 72.0849 
-87.9087 -105.23 72.0499 -86.767 -105.524 72.4271 -85.5865 -105.766 72.7444 
-88.837 -103.855 72.1641 -87.7379 -104.001 72.5472 -86.5936 -104.28 72.9544 
-85.5216 -104.723 73.4634 -89.8309 -102.644 72.3525 -88.549 -102.543 72.592 
-87.4306 -102.753 73.0327 -86.3577 -103.261 73.6603 -85.4042 -103.87 74.3118 
-91.2039 -101.564 72.6214 -89.6609 -101.282 72.788 -88.2871 -101.342 73.2197 
-87.1967 -101.838 73.9452 -86.1849 -102.462 74.6412 -85.2801 -103.112 75.2618 
-92.5892 -100.759 72.9729 -91.1073 -100.364 73.1126 -89.4575 -100.311 73.5602 
-88.1269 -100.689 74.3489 -87.0694 -101.237 75.0828 -86.0573 -101.811 75.6723 
-85.1603 -102.512 76.25 -93.5425 -100.473 73.6168 -92.3645 -99.968 73.671 
-90.7883 -99.8517 74.0682 -89.1933 -100.059 74.8436 -87.9292 -100.412 75.5951 
-86.8253 -100.788 76.1492 -85.8038 -101.327 76.7179 -84.9709 -102.06 77.2564 
-94.1679 -100.587 74.5184 -93.2526 -99.9901 74.548 -91.9705 -99.7951 74.8714 
-90.3804 -99.8417 75.5631 -88.8602 -99.9419 76.2824 -87.5702 -100.096 76.7818 
-86.4083 -100.384 77.2652 -85.47 -100.946 77.8201 -84.7843 -101.701 78.2369 
-94.9831 -101.035 75.4441 -94.2281 -100.274 75.5611 -95.1802 -100.59 76.5089 
-94.2772 -100.007 76.8761 -95.1522 -100.316 77.794 -93.1911 -99.8722 75.8553 
-93.9297 -99.9835 78.3219 -94.5569 -100.536 79.1426 -92.9843 -99.7625 77.4738 
-91.7444 -99.7631 76.4885 -93.1489 -100.279 79.5953 -93.7635 -100.943 80.3618 
-92.3751 -99.7447 78.9083 -91.3328 -99.5137 78.1745 -90.0435 -99.634 77.2152 
-92.4786 -100.502 80.8385 -93.2685 -101.07 81.6287 -91.5675 -99.9488 80.0146 
-90.6375 -99.4146 79.387 -89.5655 -99.2527 78.6834 -88.4373 -99.5732 77.703 
-92.027 -100.564 82.257 -92.8159 -101.206 82.8916 -90.9756 -100.139 81.3349 
-89.9136 -99.6979 80.4648 -88.9586 -99.2776 79.824 -87.9482 -99.2701 79.0606 
-87.0228 -99.7164 78.1006 -91.4355 -100.957 83.3868 -92.1108 -101.727 83.8006 
-90.5308 -100.384 82.7683 -89.4305 -99.9697 81.9524 -88.398 -99.5482 81.1643 
-87.4678 -99.283 80.4188 -86.5538 -99.4727 79.5391 -85.8625 -100.102 78.6105 
-90.7709 -101.723 84.0806 -91.4062 -102.398 84.5149 -90.0628 -101.021 83.7043 
-89.1273 -100.339 83.324 -88.0228 -99.7299 82.7643 -87.0325 -99.3513 81.9655 
-86.215 -99.4279 81.0018 -85.551 -99.9957 79.988 -85.1003 -100.837 79.0452 
-90.3013 -102.412 84.858 -90.9445 -102.901 85.4071 -89.6385 -101.831 84.3842 
-88.8372 -101.067 84.1604 -87.777 -100.22 83.9693 -86.6903 -99.6278 83.4119 
-85.8899 -99.6093 82.4407 -85.3601 -100.152 81.3144 -84.9388 -100.949 80.2354 
-84.5331 -101.706 79.2786 -95.6462 -101.967 74.9564 -95.7737 -101.58 75.9663 
-96.3878 -102.495 75.3387 -96.4847 -102.154 76.4951 -97.057 -103.19 75.8641 
-95.981 -101.084 77.1435 -97.0265 -103.002 77.2406 -97.5466 -104.314 76.687 
-96.5401 -101.804 77.9324 -95.784 -100.938 78.575 -97.3112 -104.208 78.1193 
-97.5849 -105.603 77.5326 -96.8532 -102.849 78.8659 -96.1547 -101.871 79.4988 
-95.0185 -101.329 79.9388 -97.1833 -105.49 78.8859 -97.1886 -106.816 78.2329 
-96.9801 -104.116 79.6953 -96.4153 -102.992 80.3668 -95.3865 -102.272 80.7409 
-94.2763 -101.69 81.107 -96.8769 -106.836 79.6749 -96.887 -108.199 79.0254 
-96.9002 -105.494 80.4468 -96.6201 -104.261 81.1299 -95.7579 -103.296 81.5219 
-94.7202 -102.544 81.8361 -93.8285 -101.823 82.3448 -96.7431 -108.324 80.5292 
-96.8055 -109.641 79.8789 -96.7243 -106.982 81.2394 -96.6219 -105.716 81.9085 
-96.0291 -104.548 82.3752 -95.08 -103.57 82.6842 -94.2063 -102.793 83.0485 
-93.2665 -102.157 83.4876 -96.5741 -109.648 81.1506 -96.5532 -110.731 80.5216 
-96.4552 -108.392 81.8115 -96.3367 -107.166 82.5051 -96.0131 -105.992 83.1101 
-95.2878 -104.859 83.5286 -94.4281 -103.918 83.8135 -93.5494 -103.223 84.0908 
-92.5015 -102.715 84.3566 -96.1131 -110.638 81.4877 -96.0108 -111.488 80.9352 
-95.9702 -109.546 82.0493 -95.7933 -108.402 82.7309 -95.6534 -107.335 83.4674 
[...]
CELL_DATA 2000
SCALARS Distance double
LOOKUP_TABLE default
155.48 154.907 155.242 155.265 154.356 154.63 154.585 154.887 154.745 
153.995 154.161 154.123 154.274 154.153 154.322 154.203 153.805 153.914 
153.943 153.987 153.913 153.928 153.885 153.991 154.092 153.7 153.78 
153.833 153.887 153.815 153.797 153.687 153.76 153.785 154.01 154.084 
153.668 153.692 153.71 153.771 153.705 153.694 153.504 153.515 153.372 
153.569 153.486 153.777 153.591 153.73 153.68 153.648 153.654 153.606 
153.596 153.458 153.377 153.192 153.176 153.047 153.16 153.016 153.156 
152.954 153.901 153.788 153.723 153.633 153.549 153.516 153.426 153.378 
153.243 153.139 153.005 152.929 152.852 152.825 152.771 152.76 152.754 
154.125 153.995 153.927 153.767 153.634 153.506 153.368 153.321 153.191 
153.161 153.007 152.955 152.833 152.805 152.76 152.752 152.764 152.777 
152.858 155.424 155.169 155.164 154.887 154.863 154.885 154.62 154.626 
154.373 154.437 154.494 154.233 154.337 154.119 154.149 153.967 154.119 
154.016 153.693 153.852 153.685 153.848 153.71 153.798 153.718 154.418 
153.911 153.485 153.37 153.246 153.401 153.419 153.565 153.58 153.644 
153.652 155.398 154.594 154.168 153.566 153.434 153.229 153.392 153.427 
153.623 153.629 153.708 153.667 153.691 156.586 155.79 155.455 154.637 
154.473 153.871 153.989 153.715 153.945 153.816 153.917 153.802 153.81 
153.74 153.767 157.655 156.975 156.687 155.963 155.768 155.096 155.076 
154.57 154.632 154.279 154.258 154.023 153.955 153.856 153.866 153.847 
153.923 158.592 157.98 157.67 157.057 156.829 156.265 156.175 155.659 
155.586 155.064 154.88 154.426 154.244 154.008 153.992 153.95 154.058 
154.051 154.159 158.986 159.265 158.755 158.051 159.646 159.069 158.361 
157.853 157.245 160.068 159.503 158.825 158.259 157.685 157.178 156.673 
160.384 159.904 159.273 158.759 158.188 157.679 157.127 156.628 156.057 
160.681 160.227 159.645 159.171 158.583 158.114 157.457 156.978 156.246 
155.824 155.168 160.944 160.559 160.016 159.556 158.953 158.454 157.748 
157.219 156.429 155.934 155.223 154.879 154.409 160.97 160.727 160.191 
159.865 159.263 158.811 158.125 157.56 156.853 156.251 155.647 155.115 
154.717 154.355 154.174 160.916 160.68 160.18 159.934 159.394 159.05 
158.444 157.97 157.374 156.822 156.333 155.761 155.407 154.895 154.688 
154.329 154.256 161.071 160.736 160.325 160.005 159.586 159.222 158.738 
158.303 157.8 157.345 156.903 156.444 156.054 155.59 155.259 154.869 
154.661 154.407 154.317 154.358 154.665 154.452 154.381 155.222 154.837 
154.66 154.416 154.297 156.019 155.518 155.261 154.788 154.549 154.301 
154.162 156.88 156.385 156.163 155.54 155.198 154.679 154.449 154.179 
154.056 157.776 157.297 157.189 156.55 156.236 155.507 155.166 154.625 
154.474 154.175 154.137 158.739 158.28 158.288 157.676 157.481 156.681 
156.341 155.554 155.323 154.783 154.773 154.426 154.474 159.629 159.267 
159.358 158.839 158.729 157.984 157.711 156.868 156.641 155.882 155.838 
155.269 155.366 154.918 155.004 160.378 160.102 160.236 159.855 159.79 
159.183 158.941 158.214 158.029 157.299 157.253 156.551 156.611 155.995 
156.116 155.573 155.687 161.108 160.827 160.973 160.659 160.648 160.159 
159.966 159.354 159.193 158.594 158.561 157.95 157.959 157.322 157.37 
156.78 156.887 156.337 156.464 154.223 154.248 154.185 154.018 154.188 
154.175 154.009 153.915 153.691 154.026 154.057 153.873 153.838 153.564 
153.511 153.317 153.829 153.817 153.546 153.572 153.251 153.279 153.028 
153.12 153.041 153.815 153.626 153.218 153.15 152.772 152.847 152.596 
152.75 152.653 152.852 152.847 154.08 153.711 153.208 152.904 152.454 
152.39 152.191 152.322 152.28 152.457 152.482 152.673 152.71 154.548 
154.069 153.569 153.077 152.61 152.292 152.115 152.078 152.123 152.194 
152.255 152.366 152.45 152.603 152.681 155.205 154.636 154.205 153.617 
153.238 152.723 152.559 152.27 152.328 152.218 152.287 152.253 152.305 
152.391 152.508 152.644 152.734 156.01 155.401 155.048 154.421 154.162 
153.567 153.452 152.961 152.966 152.622 152.638 152.412 152.396 152.322 
152.382 152.482 152.631 152.748 152.859 156.37 156.686 156.165 155.452 
157.112 156.557 155.901 155.318 154.656 157.57 157.03 156.43 155.856 
155.239 154.621 154.013 157.973 157.463 156.827 156.333 155.698 155.177 
154.531 153.985 153.429 158.377 157.843 157.146 156.64 155.933 155.485 
154.797 154.364 153.739 153.35 152.903 158.847 158.282 157.592 156.99 
156.261 155.71 155.033 154.568 153.967 153.57 153.086 152.808 152.526 
159.3 158.772 158.139 157.524 156.849 156.188 155.542 154.938 154.377 
153.871 153.409 153.021 152.731 152.515 152.444 159.721 159.225 158.671 
158.113 157.534 156.886 156.273 155.59 155.01 154.401 153.937 153.452 
153.173 152.84 152.781 152.602 152.689 160.224 159.709 159.233 158.691 
158.203 157.604 157.053 156.37 155.78 155.103 154.623 154.067 153.815 
153.406 153.366 153.074 153.138 152.932 152.985 157.031 158.056 157.479 
157.339 159.094 158.508 158.414 157.822 157.725 160.337 159.632 159.563 
158.931 158.869 158.255 158.182 161.679 160.964 160.861 160.166 160.118 
159.454 159.38 158.722 158.62 162.764 162.209 162.117 161.485 161.414 
160.742 160.638 159.94 159.799 159.136 159.023 163.782 163.232 163.246 
162.687 162.679 162.038 161.925 161.196 161.014 160.315 160.186 159.557 
159.475 165.02 164.391 164.452 163.859 163.933 163.313 163.26 162.512 
162.325 161.554 161.404 160.734 160.652 160.022 159.922 166.107 165.617 
165.59 165.054 165.049 164.521 164.48 163.84 163.669 162.902 162.701 
161.973 161.845 161.193 161.074 160.433 160.307 166.714 166.451 166.327 
165.954 165.792 165.421 165.313 164.9 164.758 164.168 163.929 163.229 
162.992 162.336 162.16 161.55 161.417 160.816 160.745 161.62 162.349 
161.798 161.433 162.984 162.472 162.006 161.517 161.047 163.465 163.02 
162.542 162.039 161.492 160.987 160.395 163.945 163.493 163.064 162.558 
162.037 161.474 160.876 160.302 159.712 164.588 164.085 163.673 163.104 
162.593 162.033 161.46 160.867 160.271 159.69 159.138 165.291 164.827 
164.433 163.782 163.222 162.602 162.042 161.461 160.859 160.263 159.661 
159.117 158.549 165.885 165.519 165.169 164.548 163.95 163.275 162.727 
162.113 161.565 160.892 160.257 159.622 159.032 158.503 157.961 166.368 
166.066 165.733 165.202 164.579 163.949 163.367 162.821 162.326 161.683 
161.047 160.293 159.644 159.017 158.498 157.971 157.486 166.706 166.477 
166.139 165.698 165.068 164.48 163.824 163.342 162.832 162.362 161.764 
161.092 160.38 159.685 159.105 158.544 158.081 157.551 157.078 161.9 
162.672 162.424 162.694 163.426 163.208 163.487 163.221 163.388 164.11 
163.887 164.146 163.963 164.133 163.823 163.864 164.9 164.555 164.734 
164.547 164.75 164.519 164.583 164.237 164.29 165.834 165.399 165.487 
165.167 165.386 165.156 165.32 164.978 165.034 164.692 164.85 166.776 
166.358 166.419 165.982 166.133 165.857 166.115 165.807 165.906 165.476 
165.528 165.244 165.448 167.702 167.331 167.433 166.939 166.948 166.579 
166.756 166.567 166.756 166.403 166.39 165.945 165.987 165.774 165.984 
168.551 168.265 168.434 167.973 167.904 167.374 167.298 167.048 167.187 
167.083 167.169 166.828 166.779 166.384 166.473 166.287 166.49 169.208 
169.025 169.22 168.915 168.901 168.351 168.12 167.598 167.49 167.328 
167.438 167.382 167.434 167.172 167.167 166.864 166.96 166.772 166.88 
169.568 169.968 169.725 169.561 170.052 169.987 169.828 169.644 169.289 
169.746 169.858 169.737 169.772 169.458 169.159 168.54 169.396 169.471 
169.425 169.578 169.413 169.258 168.701 168.282 167.755 169.354 169.286 
169.283 169.347 169.326 169.239 168.838 168.455 167.959 167.677 167.522 
169.295 169.31 169.254 169.295 169.257 169.224 168.923 168.625 168.168 
167.886 167.702 167.62 167.588 168.9 169.073 168.927 169.093 168.939 
169.061 168.779 168.673 168.26 168.053 167.823 167.754 167.714 167.629 
167.471 168.469 168.601 168.434 168.588 168.39 168.574 168.349 168.431 
168.14 168.075 167.841 167.796 167.705 167.692 167.579 167.443 167.236 
168.229 168.271 168.144 168.175 168.019 168.079 167.938 168.023 167.892 
167.926 167.772 167.752 167.589 167.587 167.424 167.43 167.253 167.194 
167.026 168.07 167.748 167.971 168.004 167.384 167.668 167.797 167.909 
167.892 166.961 167.312 167.494 167.694 167.7 167.786 167.771 166.253 
166.744 166.838 167.236 167.254 167.517 167.515 167.683 167.718 165.18 
165.777 165.757 166.326 166.341 166.87 166.957 167.339 167.411 167.623 
167.643 164.048 164.59 164.553 165.123 165.19 165.839 166.055 166.644 
166.798 167.183 167.187 167.434 167.401 163.086 163.536 163.536 164.011 
164.153 164.762 165.096 165.739 165.992 166.461 166.473 166.814 166.77 
167.109 167.135 162.183 162.641 162.685 163.13 163.305 163.853 164.217 
164.852 165.191 165.687 165.781 166.098 166.097 166.427 166.525 166.893 
167.004 161.244 161.741 161.843 162.328 162.512 163.043 163.348 163.973 
164.317 164.9 165.101 165.485 165.555 165.849 165.977 166.322 166.509 
166.823 166.903 168.033 167.699 167.795 167.608 167.119 167.315 167.043 
167.239 167.095 166.284 166.614 166.345 166.578 166.392 166.712 166.65 
165.196 165.661 165.473 165.826 165.638 165.971 165.873 166.231 166.05 
164.05 164.507 164.335 164.836 164.678 165.126 164.928 165.341 165.098 
165.449 165.054 163.103 163.433 163.212 163.657 163.509 164.028 163.805 
164.257 163.923 164.35 164 164.353 163.938 162.272 162.568 162.306 
162.619 162.414 162.858 162.67 163.098 162.782 163.156 162.835 163.252 
162.984 163.317 162.978 161.381 161.716 161.417 161.712 161.401 161.789 
161.564 162.001 161.734 162.087 161.772 162.147 161.915 162.335 162.091 
162.401 162.051 160.489 160.798 160.473 160.757 160.378 160.726 160.431 
160.88 160.629 161.045 160.736 161.11 160.829 161.261 161.026 161.436 
161.126 161.431 161.066 168.15 168.092 168.086 167.873 167.801 167.883 
167.697 167.694 167.324 167.548 167.528 167.247 167.335 166.986 166.979 
166.443 167.376 167.305 166.889 166.85 166.428 166.476 165.989 165.964 
165.339 166.908 167.023 166.595 166.531 166.009 165.944 165.453 165.45 
164.929 164.844 164.244 166.142 166.39 166.062 166.151 165.642 165.563 
165.003 164.957 164.451 164.426 163.904 163.807 163.283 165.453 165.648 
165.398 165.564 165.158 165.147 164.578 164.513 163.946 163.931 163.383 
163.382 162.854 162.852 162.376 164.877 165.022 164.754 164.934 164.585 
164.642 164.129 164.076 163.512 163.448 162.876 162.827 162.263 162.291 
161.809 161.896 161.458 164.289 164.414 164.063 164.257 163.889 164.036 
163.567 163.603 163.08 163.042 162.492 162.39 161.809 161.73 161.229 
161.279 160.892 160.983 160.597 163.826 162.93 163.417 163.528 161.903 
162.441 162.514 163.115 163.281 160.775 161.354 161.409 162.031 162.183 
162.833 162.972 159.727 160.258 160.37 160.942 161.092 161.712 161.87 
162.481 162.553 158.934 159.365 159.535 160.009 160.141 160.652 160.73 
161.328 161.386 161.999 161.977 158.14 158.61 158.709 159.203 159.24 
159.703 159.606 160.122 160.045 160.71 160.692 161.345 161.28 157.163 
157.674 157.644 158.209 158.145 158.682 158.512 158.973 158.812 159.368 
159.384 160.043 160.116 160.7 160.728 156.354 156.721 156.702 157.114 
157.092 157.559 157.538 157.954 157.927 158.324 158.416 158.92 159.124 
159.661 159.824 160.307 160.421 155.91 156.136 156.237 156.436 156.537 
156.782 156.941 157.23 157.394 157.675 157.815 158.16 158.336 158.797 
158.975 159.465 159.585 160.058 160.143 155.772 155.616 155.883 156.122 
155.11 155.602 155.97 156.223 156.439 154.475 154.958 155.422 155.942 
156.337 156.581 156.838 154.301 154.472 154.843 155.31 155.822 156.329 
156.731 156.996 157.263 154.347 154.483 154.744 154.934 155.316 155.738 
156.166 156.652 156.983 157.328 157.6 153.838 154.287 154.551 154.872 
155.13 155.385 155.649 156.009 156.309 156.796 157.151 157.609 158.001 
153.077 153.527 153.788 154.363 154.679 155.125 155.355 155.626 155.844 
156.169 156.55 157.045 157.573 158.07 158.584 152.824 152.954 153.201 
153.586 153.977 154.495 154.861 155.275 155.573 155.871 156.26 156.615 
157.178 157.642 158.252 158.697 159.208 152.987 152.976 153.242 153.338 
153.738 153.993 154.427 154.779 155.203 155.582 156.06 156.439 156.992 
157.376 157.953 158.366 158.906 159.303 159.765 159.94 159.048 159.62 
159.843 158.152 158.707 158.903 159.468 159.718 157.244 157.828 158.058 
158.579 158.817 159.392 159.757 156.231 156.862 157.125 157.738 157.994 
158.552 158.875 159.504 159.928 155.277 155.827 156.07 156.737 157.044 
157.689 157.98 158.607 158.949 159.64 160.032 154.571 154.996 155.227 
155.752 156.054 156.68 156.979 157.634 157.932 158.62 158.995 159.716 
160.14 154.002 154.399 154.633 155.036 155.228 155.722 155.939 156.57 
156.866 157.574 157.961 158.695 159.153 159.877 160.331 153.497 153.857 
154.037 154.416 154.48 154.89 154.967 155.522 155.785 156.498 156.931 
157.686 158.161 158.894 159.337 160.051 160.435 153.12 153.365 153.435 
153.748 153.743 154.096 154.129 154.59 154.833 155.473 155.941 156.686 
157.208 157.927 158.371 159.049 159.423 160.095 160.421 159.014 158.06 
158.807 159.353 157.043 157.837 158.436 159.205 159.851 156.001 156.849 
157.58 158.373 159.134 159.843 160.538 155.118 155.896 156.763 157.598 
158.461 159.204 159.953 160.577 161.195 154.746 155.237 156.119 156.866 
157.775 158.534 159.292 159.967 160.61 161.213 161.819 154.926 155.132 
155.917 156.413 157.298 157.913 158.677 159.297 159.981 160.619 161.325 
161.921 162.595 155.274 155.394 156.064 156.381 157.175 157.596 158.317 
158.783 159.464 160.043 160.791 161.436 162.168 162.731 163.322 155.525 
155.652 156.211 156.503 157.185 157.541 158.151 158.506 159.066 159.557 
160.215 160.87 161.55 162.203 162.753 163.308 163.719 155.708 155.805 
156.225 156.504 157.076 157.465 158.018 158.348 158.795 159.158 159.66 
160.225 160.81 161.479 161.993 162.614 163.013 163.562 163.889 159.684 
160.074 160.199 160.825 160.556 160.631 161.302 161.371 161.962 161.153 
161.163 161.819 161.883 162.523 162.533 163.129 161.757 161.754 162.38 
162.434 163.102 163.127 163.754 163.746 164.396 162.378 162.335 162.968 
163.015 163.739 163.771 164.433 164.392 165.027 165.039 165.711 163.114 
162.999 163.592 163.603 164.356 164.444 165.185 165.143 165.76 165.686 
166.34 166.352 166.963 163.814 163.742 164.259 164.224 164.884 165.004 
165.768 165.862 166.514 166.456 167.062 167.02 167.656 167.587 168.037 
164.239 164.321 164.841 164.851 165.425 165.493 166.171 166.325 167 
167.096 167.713 167.737 168.352 168.313 168.799 168.593 168.829 164.411 
164.605 165.159 165.313 165.895 165.997 166.594 166.699 167.303 167.45 
168.083 168.25 168.898 168.976 169.483 169.346 169.587 169.276 169.349 
159.663 160.789 160.142 159.975 161.897 161.27 161.138 160.489 160.356 
163.057 162.396 162.278 161.647 161.544 160.902 160.757 164.372 163.65 
163.523 162.813 162.684 162.046 161.886 161.239 161.031 165.714 165.018 
164.879 164.107 163.881 163.169 162.946 162.301 162.07 161.447 161.255 
166.877 166.269 166.071 165.377 165.068 164.345 164.03 163.343 163.068 
162.439 162.214 161.652 161.464 167.801 167.265 166.963 166.377 166.027 
165.412 165.075 164.416 164.084 163.422 163.128 162.547 162.288 161.766 
161.489 168.511 168.039 167.689 167.149 166.783 166.247 165.928 165.371 
165.022 164.394 164.02 163.415 163.101 162.555 162.265 161.722 161.439 
169.047 168.657 168.344 167.847 167.491 166.967 166.623 166.12 165.749 
165.208 164.794 164.234 163.894 163.367 163.121 162.566 162.336 161.752 
161.565 168.269 168.501 168.344 168.23 168.935 168.667 168.525 168.246 
168.026 169.351 169.164 169.039 168.669 168.445 168.082 167.876 169.476 
169.488 169.459 169.198 168.959 168.577 168.323 167.986 167.728 169.617 
169.628 169.746 169.564 169.354 169.01 168.665 168.361 167.984 167.689 
167.221 170.017 169.963 170.192 169.963 169.793 169.365 168.96 168.603 
168.185 167.87 167.348 166.995 166.433 170.278 170.355 170.572 170.464 
170.282 169.841 169.329 168.876 168.423 168.089 167.642 167.217 166.667 
166.236 165.751 170.108 170.353 170.464 170.607 170.391 170.175 169.565 
169.16 168.556 168.272 167.826 167.531 167.029 166.59 166.05 165.641 
165.198 169.654 169.952 169.958 170.225 169.992 170.016 169.428 169.194 
168.496 168.264 167.704 167.55 167.045 166.818 166.266 165.937 165.412 
165.082 164.636 
POINT_DATA 1002
SCALARS Distance double
LOOKUP_TABLE default
155.605 155.671 155.169 154.956 154.602 155.24 154.336 154.135 154.469 
154.531 154.016 153.84 154.024 153.971 154.114 153.891 153.689 153.928 
153.795 153.894 154.273 153.765 153.653 153.849 153.674 153.598 153.87 
154.116 153.665 153.692 153.707 153.566 153.28 153.244 153.352 153.311 
153.69 153.815 153.596 153.522 153.293 153.011 152.892 152.811 152.746 
153.865 154.028 153.621 153.437 153.326 153.118 152.89 152.779 152.728 
152.792 154.098 154.254 153.822 153.466 153.207 153.045 152.862 152.75 
152.755 152.814 152.973 155.435 154.893 155.184 154.584 154.826 154.387 
154.077 154.41 154.045 153.931 153.565 154.386 153.441 153.575 153.63 
153.785 155.086 153.11 153.192 153.497 153.62 154.913 156.197 153.808 
153.391 153.601 153.777 153.734 156.262 157.302 155.194 154.421 154.163 
154.077 153.902 153.799 157.365 158.301 156.437 155.678 155.134 154.606 
154.097 153.872 153.931 158.278 159.2 157.371 156.683 156.169 155.461 
154.58 154.059 154.05 154.198 159.481 158.508 159.808 158.895 160.239 
157.683 159.38 160.59 158.204 157.172 159.746 160.82 158.697 157.667 
156.548 160.118 161.11 159.075 157.982 156.724 155.47 160.454 161.273 
159.479 158.31 156.956 155.612 154.592 160.46 161.182 159.665 158.65 
157.42 156.189 155.145 154.418 160.405 161.167 159.681 158.841 157.846 
156.862 155.954 155.128 154.524 160.64 161.409 159.933 159.15 158.229 
157.333 156.521 155.693 154.962 154.503 154.323 154.537 154.288 155.019 
154.43 154.179 155.849 154.923 154.301 154.011 156.793 155.858 154.822 
154.231 153.932 157.774 157.011 155.851 154.83 154.368 154.116 158.847 
158.254 157.19 155.988 155.156 154.801 154.51 159.812 159.425 158.517 
157.433 156.507 155.854 155.447 155.058 160.566 160.336 159.614 158.697 
157.961 157.295 156.688 156.218 155.788 161.279 161.079 160.533 159.757 
159.129 158.597 157.987 157.438 157.007 156.598 154.14 154.103 153.789 
153.895 153.627 153.283 153.55 153.199 152.932 152.876 153.403 152.706 
152.415 152.448 152.64 153.62 152.608 152.056 152.109 152.29 152.523 
154.081 153.01 152.219 152.077 152.191 152.29 152.542 154.771 153.765 
152.945 152.521 152.391 152.283 152.347 152.639 155.647 154.729 153.995 
153.424 152.96 152.568 152.341 152.465 152.794 156.866 155.982 157.213 
156.479 157.648 155.247 156.968 158.098 155.847 154.628 157.329 158.497 
156.19 155.064 153.91 157.707 158.93 156.406 155.208 154.126 153.188 
158.212 159.401 156.86 155.521 154.376 153.403 152.675 158.707 159.796 
157.504 156.188 154.922 153.839 152.99 152.533 159.176 160.193 158.132 
156.97 155.665 154.447 153.532 153.001 152.813 159.759 160.722 158.766 
157.712 156.479 155.2 154.227 153.69 153.412 153.192 157.632 157.94 
158.599 158.989 159.697 158.316 160.213 161.104 159.492 158.803 161.578 
162.359 160.797 160.07 159.27 162.694 163.243 162.085 161.364 160.485 
159.646 163.764 164.346 163.287 162.67 161.744 160.816 160.098 165.067 
165.653 164.531 163.987 163.127 162.106 161.291 160.57 166.137 166.534 
165.57 165.049 164.409 163.476 162.525 161.72 160.935 166.687 166.923 
166.161 165.649 165.244 164.624 163.69 162.765 161.997 161.321 162.175 
161.944 162.932 162.543 163.481 161.533 163.041 163.877 162.048 160.9 
163.567 164.396 162.589 161.479 160.254 164.297 165.075 163.159 162.034 
160.871 159.691 165.111 165.692 163.894 162.616 161.481 160.232 159.066 
165.759 166.209 164.642 163.32 162.25 160.97 159.574 158.461 166.234 
166.665 165.212 163.889 162.898 161.834 160.341 159.02 158.016 162.122 
162.981 162.919 163.728 163.635 163.756 164.303 164.395 164.411 164.238 
164.972 165.337 164.932 164.913 164.603 165.892 166.276 165.601 165.63 
165.424 165.082 166.911 167.145 166.457 166.346 166.374 165.928 165.58 
167.94 168.023 167.452 166.94 166.987 166.915 166.332 166.055 168.835 
168.797 168.531 167.735 167.226 167.354 167.242 166.769 166.599 169.444 