# vtk DataFile Version 4.0
vtk output
ASCII
DATASET POLYDATA
POINTS 1002 float
-78.7788 -111.106 70.7502 -78.7366 -112.815 70.5308 -78.7391 -112.274 69.4651 
-78.8177 -110.501 69.6832 -78.7236 -111.576 68.3486 -78.8881 -109.388 70.9636 
-78.9611 -109.914 68.543 -78.7904 -110.906 67.2593 -79.1327 -108.901 69.951 
-79.3692 -107.963 71.1792 -79.3627 -109.512 67.486 -79.2284 -110.505 66.3261 
-79.6254 -108.528 68.8986 -79.9392 -107.638 70.2734 -80.198 -106.72 71.446 
-80.1454 -109.283 66.7023 -80.0974 -110.305 65.6844 -80.3075 -108.222 67.9264 
-80.6765 -107.309 69.3472 -80.9359 -106.389 70.6035 -81.0477 -105.393 71.7157 
-81.1419 -108.977 66.1593 -81.0762 -109.958 65.2323 -81.121 -107.865 67.1615 
-81.3298 -106.838 68.4225 -81.6305 -105.905 69.7084 -81.703 -104.879 70.8361 
-81.7026 -103.877 71.8752 -82.096 -108.448 65.6596 -81.9759 -109.353 64.7693 
-82.0909 -107.439 66.5961 -82.0565 -106.305 67.6418 -82.2225 -105.253 68.7948 
-82.3785 -104.275 69.9294 -82.3344 -103.247 70.9717 -82.286 -102.326 71.9418 
-82.9855 -107.805 65.2116 -82.8682 -108.695 64.3782 -83.1425 -106.969 66.1864 
-83.1133 -105.892 67.1213 -83.0263 -104.641 68.0426 -83.1221 -103.611 69.0776 
-83.1721 -102.71 70.1349 -83.0524 -101.768 71.1073 -82.9596 -100.964 72.0091 
-83.9049 -107.184 64.9256 -83.813 -108.122 64.2118 -84.1274 -106.4 65.8929 
-84.2566 -105.485 66.8015 -84.0977 -104.191 67.5219 -83.9614 -102.966 68.3517 
-84.0019 -102.116 69.3614 -83.9341 -101.303 70.344 -83.7493 -100.445 71.24 
-83.6424 -99.7796 72.0814 -84.8709 -106.603 64.7555 -84.7832 -107.582 64.2001 
-85.0353 -105.743 65.6145 -85.2027 -104.899 66.4988 -85.1237 -103.746 67.1289 
-84.8582 -102.428 67.7527 -84.7356 -101.446 68.6347 -84.6822 -100.714 69.5908 
-84.4961 -99.913 70.4678 -84.2929 -99.1581 71.3051 -84.2001 -98.6502 72.1174 
-78.4693 -113.953 69.6479 -78.5117 -113.421 68.5126 -77.9129 -114.688 68.7466 
-78.0864 -114.26 67.636 -77.3493 -115.227 67.8753 -78.49 -112.639 67.4048 
-77.6949 -115.001 66.6958 -77.022 -116.076 66.9676 -78.1577 -113.514 66.3851 
-78.5414 -111.844 66.2019 -77.4488 -115.946 65.5841 -76.8161 -117.178 66.1251 
-77.9021 -114.399 64.9474 -78.2355 -112.671 64.6529 -78.9951 -111.373 65.0495 
-77.3917 -116.917 64.7264 -76.9067 -118.062 65.6265 -77.8679 -115.426 63.5734 
-78.0714 -113.565 62.7822 -78.6584 -112.125 63.2084 -79.8736 -111.143 64.3834 
-77.8856 -117.659 64.4627 -77.7397 -118.666 65.5124 -78.2337 -116.375 63.1861 
-78.3644 -114.567 62.0021 -78.6405 -112.899 61.8084 -79.6446 -111.85 62.8736 
-80.9516 -110.772 64.097 -79.0172 -118.181 64.5876 -79.1087 -119.1 65.6237 
-79.1025 -117.061 63.5593 -79.172 -115.45 62.6475 -79.3089 -113.71 61.9744 
-79.9528 -112.5 62.0794 -81.0483 -111.52 62.9626 -82.0673 -110.191 63.8184 
-80.3187 -118.495 64.8953 -80.4561 -119.34 65.8381 -80.2283 -117.482 64.0155 
-80.216 -116.078 63.4403 -80.3836 -114.455 62.851 -80.8517 -113.149 62.1631 
-81.5925 -112.17 62.1424 -82.3925 -111.023 62.8791 -83.1167 -109.576 63.6473 
-81.4798 -118.659 65.2866 -81.6145 -119.451 66.0472 -81.3387 -117.728 64.4533 
-81.2708 -116.511 63.827 -81.4528 -115.109 63.2956 -81.9059 -113.859 62.3957 
-82.4285 -112.825 61.6467 -82.9211 -111.732 61.9591 -83.4662 -110.421 62.9344 
-84.107 -108.981 63.7175 -82.6707 -119.074 65.8343 -82.5205 -118.182 65.1161 
-83.8459 -118.678 65.6476 -83.7815 -117.683 64.8416 -85.1684 -118.17 65.3722 
-82.4215 -117.093 64.2633 -85.2999 -117.19 64.4088 -86.5266 -117.45 65.0852 
-83.8482 -116.58 63.87 -82.5269 -115.84 63.5035 -86.7532 -116.532 64.2 
-87.7154 -116.471 65.0711 -85.4388 -116.177 63.5479 -84.0831 -115.483 62.9775 
-82.937 -114.659 62.5812 -87.9122 -115.456 64.4454 -88.742 -115.242 65.3359 
-86.7563 -115.38 63.7071 -85.5311 -114.992 62.9241 -84.4555 -114.363 62.0008 
-83.4221 -113.559 61.5039 -89.0186 -114.083 64.7902 -89.8039 -113.906 65.5666 
-87.8702 -114.018 64.113 -86.6845 -113.783 63.4203 -85.7677 -113.505 62.3912 
-84.7979 -112.984 61.4667 -83.7549 -112.303 61.3727 -90.2738 -112.759 64.931 
-90.9412 -112.647 65.6161 -89.1642 -112.593 64.4024 -87.8575 -112.235 63.9648 
-86.9701 -112.044 63.2716 -86.1866 -111.837 62.4485 -85.0945 -111.372 62.1137 
-84.112 -110.867 62.4058 -91.5554 -111.577 64.9245 -92.0662 -111.554 65.5711 
-90.6496 -111.334 64.544 -89.3128 -110.834 64.394 -88.2322 -110.517 64.0382 
-87.5621 -110.407 63.4352 -86.6453 -110.124 63.0979 -85.5293 -109.719 63.2034 
-84.687 -109.359 63.4647 -92.7403 -110.506 64.8855 -93.1449 -110.64 65.515 
-92.0786 -110.133 64.558 -90.939 -109.509 64.5991 -89.7112 -109.032 64.5282 
-88.8743 -108.876 64.0448 -88.1071 -108.688 63.6102 -87.0861 -108.352 63.6098 
-86.1126 -108.075 63.8189 -85.3779 -107.847 63.999 -85.8452 -106.294 64.433 
-86.542 -106.365 64.1417 -86.9022 -104.761 64.6142 -87.3711 -106.439 63.8808 
-87.6479 -104.609 64.228 -87.8549 -103.12 64.7934 -88.4109 -106.668 63.6609 
-88.5904 -104.564 63.8927 -88.709 -102.836 64.376 -88.8175 -101.548 64.904 
-89.4689 -106.999 63.7869 -89.8182 -104.837 63.6533 -89.9075 -102.808 63.9752 
-89.8863 -101.241 64.4322 -89.8684 -100.055 64.9286 -90.4092 -107.213 64.2989 
-91.0472 -105.277 63.7848 -91.3255 -103.23 63.6819 -91.2609 -101.259 64.0191 
-91.0702 -99.748 64.4536 -90.8692 -98.6434 65.0942 -91.5125 -107.57 64.5936 
-92.1195 -105.696 64.1704 -92.5064 -103.876 63.7576 -92.5669 -101.738 63.8325 
-92.3982 -99.7055 64.1689 -92.1077 -98.3783 64.6972 -91.7665 -97.4344 65.4567 
-92.7048 -108.323 64.4865 -93.2176 -106.368 64.3258 -93.4961 -104.578 64.0589 
-93.5967 -102.516 63.9864 -93.6167 -100.119 64.1334 -93.4654 -98.3246 64.4636 
-93.1165 -97.3139 65.0847 -92.6928 -96.4603 65.8402 -93.5431 -109.112 64.549 
-94.2055 -107.325 64.3577 -94.5332 -105.445 64.2818 -94.6251 -103.417 64.2835 
-94.7439 -100.991 64.2931 -94.7949 -98.7915 64.4033 -94.5669 -97.4394 64.843 
-94.1473 -96.5333 65.5396 -93.6831 -95.6533 66.237 -94.0052 -109.609 65.0532 
-94.8354 -108.185 64.6879 -95.3784 -106.386 64.5459 -95.589 -104.342 64.5858 
-95.7427 -102.049 64.5827 -95.9012 -99.7908 64.5532 -95.8138 -98.0999 64.8374 
-95.4713 -96.9292 65.4733 -95.0517 -95.9081 66.154 -94.5932 -95.0156 66.7401 
-85.9435 -105.256 65.0825 -86.9532 -103.694 65.3139 -86.0463 -104.305 65.9507 
-87.8816 -102.071 65.4471 -86.9552 -102.641 66.079 -86.0418 -103.248 66.6666 
-88.848 -100.47 65.5261 -87.8616 -100.934 66.1669 -86.8342 -101.435 66.7334 
-85.8113 -101.944 67.2347 -89.8184 -98.8865 65.6664 -88.7959 -99.2403 66.3343 
-87.7337 -99.692 66.9547 -86.6111 -100.187 67.4837 -85.5647 -100.762 68.0282 
-90.68 -97.4405 65.9551 -89.6215 -97.6042 66.5303 -88.5835 -98.0357 67.2021 
-87.5262 -98.5848 67.8721 -86.4131 -99.1752 68.4365 -85.4281 -99.9098 68.9908 
-91.518 -96.2613 66.2979 -90.3722 -96.2 66.7542 -89.2736 -96.4992 67.3434 
-88.2745 -97.0738 68.1424 -87.2626 -97.6643 68.8465 -86.1589 -98.2992 69.3415 
-85.2093 -99.0938 69.8704 -92.4693 -95.343 66.6385 -91.2252 -95.1524 67.0723 
-90.016 -95.2419 67.5759 -88.9071 -95.6739 68.3382 -87.9293 -96.2505 69.1681 
-86.8839 -96.8036 69.7074 -85.7852 -97.4488 70.1373 -84.9216 -98.2853 70.7094 
-93.467 -94.6591 67.0509 -92.1939 -94.4482 67.5103 -90.9219 -94.3781 68.0353 
-89.6865 -94.5328 68.6963 -88.5557 -94.9622 69.4842 -87.5155 -95.5198 70.0939 
-86.4291 -96.0853 70.4927 -85.4346 -96.793 70.9795 -84.7292 -97.7103 71.5803 
-94.7355 -94.2928 67.5266 -93.5054 -94.023 67.9579 -94.7016 -93.8285 68.6246 
-93.3878 -93.595 69.2509 -94.5199 -93.5535 70.1611 -92.1415 -93.8592 68.5782 
-93.1666 -93.2665 70.8325 -94.2944 -93.4205 71.935 -91.986 -93.3439 69.9691 
-90.7817 -93.7369 69.2436 -92.862 -93.2299 72.435 -93.9244 -93.6288 73.5404 
-91.7036 -93.0264 71.4655 -90.5166 -93.183 70.6413 -89.4021 -93.8675 69.9528 
-92.387 -93.6066 73.9526 -93.3245 -94.1314 74.8774 -91.2629 -93.2201 73.0071 
-90.0581 -93.0847 72.1238 -88.9386 -93.4573 71.2857 -88.0993 -94.3772 70.5954 
-91.8441 -94.077 75.4377 -92.7297 -94.6869 76.1055 -90.7413 -93.6661 74.6307 
-89.5137 -93.4486 73.7664 -88.3442 -93.5131 72.8148 -87.4753 -94.0749 71.8425 
-86.9054 -95.0158 71.054 -91.4051 -94.6046 76.8039 -92.2725 -95.3258 77.2264 
-90.3017 -94.1028 76.1817 -89.0834 -93.8933 75.389 -87.876 -93.8403 74.4874 
-86.8828 -94.0634 73.4245 -86.2507 -94.7395 72.3569 -85.8212 -95.7004 71.5341 
-91.0156 -95.3384 77.9162 -91.8358 -96.0591 78.1854 -89.9533 -94.7578 77.4674 
-88.7984 -94.5019 76.7529 -87.6532 -94.4207 75.9346 -86.5768 -94.4078 75.0359 
-85.7836 -94.7667 73.9605 -85.3363 -95.5935 72.9143 -85.0224 -96.6253 72.1282 
-90.6123 -96.1191 78.8342 -91.3871 -96.7389 79.049 -89.6283 -95.5904 78.5012 
-88.5656 -95.3329 77.8909 -87.5358 -95.2791 77.1113 -86.518 -95.1982 76.3536 
-85.6196 -95.2645 75.4791 -85.0541 -95.8202 74.4137 -84.7494 -96.7407 73.4228 
-84.4828 -97.7149 72.677 -95.6212 -95.0949 67.1041 -95.7352 -94.4163 68.0227 
-96.3463 -95.5732 67.7503 -96.3954 -94.9968 68.8091 -96.8487 -96.4715 68.5232 
-95.6729 -94.0196 69.3178 -96.8645 -96.0128 69.7549 -97.2954 -97.5223 69.3613 
-96.3617 -94.6251 70.3413 -95.5363 -93.797 71.1549 -97.2681 -97.1756 70.8239 
-97.3614 -98.5263 70.4261 -96.8802 -95.6165 71.5094 -96.3365 -94.3691 72.3745 
-95.3286 -93.791 73.1066 -97.3376 -98.3383 72.0138 -96.9201 -99.6571 71.6409 
-97.2735 -96.8504 72.638 -96.8673 -95.3561 73.4745 -96.0896 -94.4721 74.2121 
-94.7897 -94.2064 74.6128 -97.2069 -99.6497 73.089 -96.7506 -101.077 72.6657 
-97.4197 -98.2405 73.6262 -97.1453 -96.7563 74.3435 -96.5027 -95.6055 75.0504 
-95.3944 -95.0693 75.5003 -94.012 -94.8636 75.7626 -97.3548 -101.172 73.9018 
-97.1837 -102.602 73.4254 -97.4624 -99.7557 74.4349 -97.2331 -98.3392 75.1218 
-96.7174 -97.0869 75.8299 -95.8369 -96.253 76.3193 -94.5897 -95.809 76.5802 
-93.358 -95.547 76.8379 -97.5784 -102.718 74.5749 -97.5671 -103.993 74.0615 
-97.5048 -101.351 75.1475 -97.2397 -99.9267 75.8749 -96.8469 -98.6036 76.6516 
-96.2193 -97.5859 77.2039 -95.1449 -96.9167 77.4528 -93.8998 -96.5224 77.597 
-92.8229 -96.2745 77.8351 -97.4748 -104.108 75.1943 -97.4949 -105.211 74.634 
-97.3818 -102.902 75.8231 -97.167 -101.533 76.5681 -96.8858 -100.124 77.3595 
[...]
CELL_DATA 2000
SCALARS Distance double
LOOKUP_TABLE default
152.933 151.998 152.257 151.815 151.055 151.325 150.993 151.224 150.943 
150.397 150.536 150.353 150.539 150.43 150.602 150.504 150.216 150.159 
150.035 150.09 150.076 150.229 150.217 150.319 150.214 150.274 150.16 
149.971 149.902 149.786 149.904 149.864 150.023 149.868 149.958 149.712 
150.22 150.18 149.957 149.862 149.61 149.603 149.432 149.575 149.397 
149.531 149.24 149.331 149.026 150.061 150.045 149.893 149.845 149.639 
149.499 149.229 149.168 148.954 149.039 148.833 148.899 148.633 148.668 
148.43 150.004 149.918 149.823 149.814 149.734 149.608 149.333 149.093 
148.757 148.678 148.48 148.549 148.37 148.388 148.156 148.163 147.981 
150.086 149.931 149.798 149.775 149.711 149.679 149.43 149.21 148.759 
148.545 148.205 148.219 148.033 148.115 147.884 147.907 147.646 147.713 
147.538 153.406 153.558 153.213 152.481 153.427 153.27 152.666 152.221 
151.468 153.344 153.168 152.663 152.317 151.59 151.186 150.634 153.527 
153.21 152.649 152.278 151.498 151.155 150.58 150.461 150.282 153.931 
153.481 152.858 152.343 151.46 150.986 150.306 150.242 150.112 150.271 
150.319 154.607 153.997 153.453 152.764 151.962 151.173 150.43 150.037 
149.897 150.037 150.233 150.357 150.352 155.574 154.844 154.398 153.617 
153.03 152.064 151.415 150.57 150.341 150.061 150.303 150.334 150.492 
150.386 150.27 156.587 155.879 155.44 154.689 154.208 153.33 152.801 
151.852 151.506 150.839 150.884 150.626 150.809 150.642 150.638 150.372 
150.249 157.452 156.832 156.388 155.704 155.225 154.48 154.001 153.201 
152.803 152.057 151.853 151.346 151.34 151.06 151.08 150.825 150.762 
150.452 150.362 157.765 157.941 157.476 156.72 158.151 157.653 156.82 
156.352 155.542 158.337 157.871 157.04 156.486 155.626 155.15 154.355 
158.412 158.061 157.344 156.789 155.957 155.347 154.536 154.019 153.268 
158.299 158.092 157.467 157.07 156.299 155.741 154.91 154.314 153.524 
152.994 152.325 158.058 157.925 157.302 157.05 156.279 155.925 155.11 
154.653 153.833 153.3 152.583 152.138 151.66 157.831 157.696 157.103 
156.841 156.068 155.758 155 154.706 154.011 153.595 152.915 152.436 
151.921 151.59 151.291 157.672 157.525 157.013 156.725 156.012 155.617 
154.897 154.59 154.026 153.741 153.196 152.787 152.258 151.871 151.496 
151.247 150.974 157.588 157.417 156.949 156.691 156.042 155.651 154.927 
154.568 153.975 153.739 153.224 152.966 152.412 152.114 151.626 151.395 
151.032 150.86 150.557 150.347 150.767 150.383 150.037 151.293 150.797 
150.337 149.96 149.555 152.011 151.379 150.824 150.278 149.776 149.43 
149.056 152.835 152.176 151.617 150.896 150.345 149.771 149.347 148.978 
148.661 153.654 153.03 152.582 151.828 151.315 150.552 150.079 149.448 
149.063 148.643 148.359 154.617 153.938 153.589 152.857 152.435 151.646 
151.157 150.353 149.85 149.191 148.822 148.408 148.187 155.731 155.03 
154.716 153.953 153.592 152.804 152.358 151.499 150.938 150.094 149.614 
149.001 148.757 148.356 148.226 156.711 156.143 155.888 155.163 154.843 
154.035 153.647 152.758 152.244 151.283 150.768 149.942 149.657 149.084 
148.994 148.537 148.467 157.444 157.036 156.888 156.308 156.052 155.313 
154.951 154.093 153.624 152.665 152.166 151.23 150.901 150.153 150.046 
149.46 149.424 148.888 148.835 150.065 149.798 149.863 149.751 149.366 
149.532 149.456 149.61 149.593 148.874 149.058 148.961 149.192 149.113 
149.36 149.23 148.439 148.575 148.432 148.634 148.475 148.723 148.516 
148.775 148.525 148.091 148.154 147.965 148.107 147.924 148.091 147.876 
148.053 147.85 148.063 147.957 147.873 147.827 147.558 147.632 147.426 
147.576 147.411 147.544 147.395 147.525 147.466 147.685 147.747 147.847 
147.663 147.302 147.243 146.961 147.07 146.928 147.119 147.028 147.171 
147.067 147.232 147.205 147.5 147.554 148.024 147.715 147.315 147.086 
146.751 146.686 146.517 146.651 146.609 146.795 146.705 146.834 146.7 
146.907 146.881 147.234 147.301 148.37 147.981 147.605 147.248 146.935 
146.667 146.468 146.384 146.324 146.416 146.38 146.482 146.36 146.449 
146.367 146.592 146.678 147.034 147.204 148.496 148.564 148.241 147.74 
148.85 148.397 147.862 147.527 147.078 149.328 148.755 148.154 147.714 
147.204 146.903 146.561 149.941 149.276 148.584 148.035 147.442 147.051 
146.63 146.441 146.289 150.589 149.911 149.195 148.532 147.878 147.337 
146.837 146.521 146.279 146.236 146.235 151.215 150.567 149.906 149.211 
148.566 147.896 147.338 146.819 146.466 146.241 146.131 146.169 146.191 
151.888 151.245 150.649 149.958 149.359 148.663 148.104 147.45 147.001 
146.535 146.308 146.129 146.104 146.128 146.215 152.604 151.983 151.445 
150.753 150.206 149.503 149.005 148.303 147.86 147.213 146.912 146.474 
146.417 146.226 146.359 146.324 146.561 153.268 152.711 152.232 151.586 
151.099 150.411 149.987 149.284 148.919 148.197 147.905 147.267 147.171 
146.759 146.897 146.688 146.948 146.856 147.143 149.049 149.999 149.356 
149.126 151.139 150.398 150.167 149.538 149.429 152.444 151.641 151.429 
150.696 150.626 149.988 149.983 153.761 153.027 152.868 152.073 152.026 
151.312 151.358 150.666 150.675 154.92 154.345 154.314 153.572 153.523 
152.772 152.799 152.097 152.101 151.37 151.313 156.092 155.533 155.645 
155.002 154.996 154.259 154.224 153.514 153.475 152.763 152.668 151.948 
151.872 157.528 156.852 156.992 156.345 156.395 155.689 155.655 154.927 
154.872 154.131 154.029 153.278 153.182 152.494 152.481 159.015 158.343 
158.409 157.735 157.758 157.066 157.052 156.346 156.319 155.572 155.48 
154.679 154.552 153.805 153.754 153.117 153.144 160.2 159.671 159.673 
159.083 159.061 158.41 158.379 157.713 157.687 156.998 156.905 156.134 
155.952 155.171 155.031 154.36 154.328 153.749 153.766 157.79 158.268 
157.802 157.308 158.734 158.256 157.681 157.199 156.524 159.064 158.603 
157.892 157.448 156.67 156.228 155.395 159.311 158.835 158.005 157.522 
156.615 156.207 155.31 154.94 154.027 159.522 159.046 158.202 157.637 
156.664 156.126 155.191 154.784 153.914 153.526 152.625 159.679 159.212 
158.362 157.828 156.867 156.269 155.337 154.799 153.999 153.521 152.749 
152.241 151.452 159.87 159.357 158.441 157.914 156.945 156.432 155.55 
155.053 154.31 153.793 153.102 152.536 151.832 151.256 150.598 160.12 
159.592 158.684 158.047 157.073 156.499 155.681 155.245 154.597 154.158 
153.51 152.971 152.268 151.695 151.012 150.491 149.903 160.325 159.875 
159.094 158.431 157.537 156.817 156.048 155.486 154.918 154.464 153.883 
153.368 152.662 152.102 151.38 150.863 150.223 149.784 149.253 158.131 
158.882 158.533 158.658 159.84 159.389 159.515 159.133 159.221 160.85 
160.381 160.465 160.052 160.158 159.71 159.683 161.795 161.331 161.375 
160.979 161.097 160.69 160.721 160.163 160.019 162.84 162.29 162.275 
161.825 161.92 161.589 161.703 161.243 161.158 160.493 160.26 164.011 
163.427 163.344 162.744 162.685 162.313 162.448 162.171 162.236 161.684 
161.504 160.746 160.475 165.032 164.578 164.52 163.871 163.656 163.071 
163.051 162.801 163.005 162.718 162.723 162.06 161.816 160.989 160.706 
165.785 165.48 165.52 165.014 164.827 164.117 163.9 163.419 163.538 
163.375 163.568 163.202 163.055 162.332 161.989 161.191 160.882 166.369 
166.131 166.194 165.889 165.798 165.242 164.958 164.326 164.194 163.888 
164.038 163.881 163.875 163.416 163.069 162.366 161.952 161.266 160.954 
166.657 166.772 166.649 166.424 166.478 166.568 166.379 166.359 166.039 
166 166.158 166.025 166.157 165.917 165.82 165.295 165.627 165.758 
165.706 165.816 165.664 165.634 165.25 165.009 164.54 165.306 165.456 
165.441 165.56 165.437 165.432 165.154 165.002 164.693 164.472 164.276 
165.046 165.143 165.053 165.201 165.031 165.149 164.923 164.933 164.71 
164.622 164.422 164.297 164.053 164.901 164.933 164.77 164.793 164.558 
164.649 164.458 164.614 164.48 164.565 164.339 164.282 163.883 163.779 
163.254 164.58 164.735 164.604 164.607 164.386 164.315 164.103 164.155 
164.052 164.22 164.044 164.077 163.624 163.487 162.874 162.745 162.146 
163.925 164.235 164.157 164.372 164.24 164.25 164.009 163.933 163.7 
163.766 163.568 163.678 163.297 163.211 162.613 162.414 161.819 161.68 
161.174 163.454 162.791 163.317 163.711 162.035 162.613 163.043 163.614 
163.928 161.088 161.754 162.145 162.855 163.22 163.722 163.793 159.969 
160.687 161.004 161.795 162.109 162.824 162.95 163.417 163.4 158.818 
159.511 159.747 160.522 160.749 161.546 161.697 162.387 162.472 163.018 
163.12 157.661 158.325 158.462 159.191 159.349 160.132 160.311 161.079 
161.262 161.964 162.123 162.732 162.799 156.462 157.107 157.173 157.864 
157.994 158.749 158.964 159.742 159.982 160.733 160.919 161.606 161.657 
162.241 162.141 155.305 155.894 155.95 156.585 156.727 157.445 157.695 
158.459 158.714 159.458 159.623 160.333 160.384 161.021 160.955 161.491 
161.369 154.282 154.798 154.86 155.424 155.563 156.231 156.48 157.227 
157.47 158.193 158.316 159.002 159.038 159.71 159.701 160.309 160.258 
160.782 160.726 163.215 162.855 162.87 162.582 162.646 162.618 162.29 
162.239 161.869 162.204 162.325 161.976 161.969 161.473 161.425 160.924 
161.438 161.659 161.257 161.453 160.912 160.94 160.28 160.312 159.758 
160.595 160.786 160.329 160.579 160.081 160.219 159.546 159.58 158.928 
159.073 158.592 159.666 159.89 159.392 159.64 159.162 159.353 158.746 
158.802 158.132 158.225 157.698 157.919 157.482 158.617 158.882 158.347 
158.634 158.106 158.386 157.796 157.965 157.306 157.418 156.832 157.02 
156.545 156.786 156.32 157.627 157.844 157.312 157.549 156.995 157.265 
156.682 156.933 156.317 156.521 155.926 156.125 155.597 155.828 155.352 
155.602 155.155 156.773 156.931 156.417 156.581 156.056 156.233 155.692 
155.871 155.314 155.509 154.965 155.179 154.66 154.878 154.393 154.634 
154.209 154.479 154.114 163.535 163.827 163.479 163.145 164.089 163.753 
163.404 163.143 162.881 164.411 164.031 163.638 163.347 163.051 162.846 
162.49 164.736 164.39 163.926 163.555 163.176 162.964 162.641 162.372 
161.864 164.735 164.614 164.128 163.786 163.242 163.004 162.637 162.486 
162.065 161.712 161.094 164.325 164.406 164 163.843 163.221 162.963 
162.421 162.334 161.912 161.795 161.216 160.868 160.145 163.836 163.906 
163.56 163.573 163.064 162.868 162.242 162.053 161.515 161.461 160.913 
160.786 160.086 159.794 159.049 163.467 163.445 163.056 163.101 162.695 
162.644 162.102 161.895 161.279 161.088 160.497 160.376 159.753 159.591 
158.92 158.67 158.02 163.143 163.093 162.652 162.638 162.221 162.233 
161.763 161.683 161.098 160.901 160.262 160.05 159.432 159.256 158.666 
158.492 157.924 157.702 157.15 162.788 162.043 162.393 162.307 161.127 
161.596 161.519 161.88 161.808 159.935 160.563 160.502 160.989 160.878 
161.335 161.278 158.593 159.28 159.265 159.86 159.754 160.285 160.194 
160.729 160.629 157.428 158.016 158.069 158.631 158.588 159.116 159.026 
159.572 159.475 159.996 159.826 156.565 157.033 157.106 157.553 157.503 
157.976 157.865 158.386 158.261 158.804 158.65 159.152 158.97 155.821 
156.247 156.228 156.619 156.429 156.867 156.645 157.169 156.982 157.552 
157.397 157.952 157.81 158.326 158.198 154.981 155.408 155.229 155.623 
155.292 155.707 155.39 155.889 155.673 156.242 156.118 156.702 156.627 
157.179 157.107 157.61 157.511 153.977 154.403 154.1 154.499 154.128 
154.528 154.218 154.664 154.479 154.988 154.923 155.483 155.482 156.041 
156.024 156.537 156.457 156.927 156.79 153.263 152.127 152.899 153.31 
151.209 151.801 152.207 152.944 153.363 150.667 151.031 151.37 151.953 
152.411 153.084 153.539 150.313 150.58 150.808 151.234 151.643 152.237 
152.74 153.369 153.863 149.85 150.194 150.399 150.746 151.067 151.539 
152.026 152.633 153.204 153.804 154.354 149.174 149.618 149.872 150.309 
150.62 151.031 151.454 151.977 152.566 153.186 153.816 154.384 154.951 
148.52 148.907 149.141 149.663 149.998 150.518 150.897 151.421 151.909 
152.53 153.121 153.787 154.363 154.96 155.473 148.065 148.337 148.518 
148.935 149.253 149.795 150.186 150.767 151.181 151.799 152.257 152.957 
153.466 154.206 154.718 155.388 155.859 147.685 147.943 148.124 148.427 
148.72 149.13 149.535 150.049 150.494 151.045 151.47 152.066 152.522 
153.222 153.748 154.503 155.032 155.717 156.178 156.152 154.981 155.639 
155.747 153.681 154.384 154.533 155.237 155.383 152.448 153.082 153.242 
153.99 154.194 154.882 155.014 151.403 151.924 152.02 152.704 152.893 
153.634 153.778 154.47 154.59 150.438 150.921 150.942 151.519 151.6 
152.288 152.397 153.145 153.277 154.029 154.21 149.484 149.943 149.933 
150.45 150.459 151.032 151.087 151.764 151.917 152.683 152.909 153.684 
153.92 148.658 149.018 148.958 149.415 149.386 149.913 149.949 150.55 
150.707 151.398 151.657 152.403 152.681 153.423 153.677 148.011 148.252 
148.096 148.443 148.318 148.804 148.8 149.419 149.568 150.256 150.501 
151.212 151.497 152.221 152.518 153.232 153.522 147.483 147.628 147.38 
147.607 147.384 147.748 147.673 148.24 148.375 149.085 149.337 150.065 
150.35 151.072 151.397 152.12 152.469 153.157 153.478 157.963 157.131 
157.887 158.544 156.121 156.969 157.674 158.493 159.19 155.159 155.942 
156.681 157.564 158.345 159.153 159.889 154.49 155.107 155.888 156.679 
157.557 158.341 159.192 159.933 160.759 153.992 154.505 155.274 156.04 
157.021 157.747 158.644 159.305 160.166 160.88 161.674 153.671 154.002 
154.606 155.366 156.351 157.24 158.16 158.837 159.571 160.239 160.958 
161.679 162.258 153.779 153.847 154.291 154.72 155.536 156.408 157.331 
158.195 158.879 159.579 160.163 160.874 161.444 162.107 162.537 154.076 
154.142 154.59 154.673 155.287 155.722 156.518 157.255 157.994 158.755 
159.372 160.081 160.668 161.321 161.828 162.382 162.767 154.04 154.365 
154.88 155.041 155.554 155.718 156.304 156.668 157.324 157.912 158.593 
159.292 159.948 160.615 161.167 161.727 162.135 162.621 162.925 158.576 
159.197 159.153 159.751 159.869 159.825 160.451 160.421 161.093 160.552 
160.495 161.117 161.117 161.811 161.817 162.46 161.398 161.235 161.818 
161.758 162.448 162.501 163.198 163.15 163.66 162.306 162.151 162.711 
162.541 163.225 163.193 163.968 163.92 164.529 164.316 164.715 162.861 
162.914 163.472 163.423 164.103 164.075 164.877 164.802 165.451 165.226 
165.636 165.338 165.61 163.091 163.263 163.82 163.975 164.629 164.806 
165.525 165.623 166.151 166.053 166.336 166.145 166.336 166.1 166.201 
163.283 163.452 164.012 164.208 164.818 165.085 165.675 165.938 166.298 
166.413 166.543 166.565 166.685 166.647 166.754 166.544 166.526 163.406 
163.619 164.148 164.373 164.919 165.168 165.651 165.89 166.176 166.321 
166.434 166.541 166.699 166.821 167.028 166.999 167.06 166.797 166.716 
158.45 159.624 158.901 158.681 160.959 160.159 159.925 159.17 158.928 
162.283 161.506 161.211 160.429 160.114 159.368 159.056 163.404 162.718 
162.366 161.636 161.232 160.492 160.068 159.379 159.011 164.391 163.737 
163.348 162.663 162.222 161.521 161.036 160.324 159.841 159.218 158.825 
165.277 164.681 164.26 163.581 163.092 162.418 161.925 161.245 160.726 
160.034 159.539 158.953 158.559 165.873 165.438 165.007 164.424 163.876 
163.222 162.677 162.054 161.555 160.907 160.383 159.706 159.215 158.654 
158.287 166.175 165.865 165.46 165.036 164.522 163.944 163.36 162.746 
162.224 161.656 161.174 160.549 160.028 159.371 158.914 158.392 158.083 
166.376 166.107 165.753 165.417 165.001 164.531 163.995 163.402 162.831 
162.267 161.781 161.256 160.789 160.186 159.707 159.092 158.719 158.232 
157.993 163.946 164.606 164.28 164.217 164.955 164.814 164.777 164.506 
164.451 165.079 165.021 165.03 164.927 164.929 164.725 164.743 165.334 
165.205 165.289 165.172 165.271 165.131 165.205 165.021 165.035 165.774 
165.632 165.901 165.687 165.931 165.632 165.725 165.437 165.383 165.165 
164.987 166.282 166.188 166.617 166.472 166.821 166.494 166.556 166.086 
165.895 165.481 165.195 164.919 164.586 166.772 166.733 167.109 167.087 
167.311 167.19 167.121 166.815 166.506 166.057 165.683 165.234 164.897 
164.524 164.194 167.012 167.102 167.313 167.359 167.34 167.314 167.061 
166.989 166.651 166.474 166.124 165.781 165.44 165.003 164.672 164.235 
163.899 166.865 167.097 167.211 167.338 167.216 167.172 166.862 166.776 
166.506 166.452 166.235 166.084 165.786 165.485 165.1 164.724 164.317 
163.929 163.548 
POINT_DATA 1002
SCALARS Distance double
LOOKUP_TABLE default
152.481 153.601 152.723 151.573 151.703 151.398 150.705 150.763 150.706 
150.73 150.148 150.287 150.214 150.376 150.412 150.048 150.319 149.915 
150.106 150.176 150.062 150.12 150.392 149.752 149.7 149.794 149.641 
149.439 150.036 150.239 149.722 149.364 149.238 149.166 148.92 148.724 
149.868 150.084 149.784 149.42 148.91 148.721 148.619 148.368 148.202 
149.811 150.123 149.799 149.628 148.958 148.411 148.315 148.183 147.924 
147.821 149.866 150.274 149.725 149.617 149.052 148.275 147.937 147.853 
147.62 147.398 147.4 153.899 153.021 153.758 153.037 153.49 151.943 
152.981 153.566 151.974 150.857 153.088 153.932 151.886 150.643 150.247 
153.43 154.435 152.063 150.439 149.846 150.254 154.13 155.259 152.806 
151.023 149.834 150.019 150.434 155.148 156.32 153.92 152.368 150.858 
150.336 150.558 150.492 156.174 157.272 155.002 153.704 152.336 151.329 
150.991 150.883 150.546 157.055 158.034 155.94 154.736 153.567 152.511 
151.723 151.312 151.053 150.693 158.208 157.167 158.45 157.345 158.66 
155.952 157.613 158.742 156.165 154.764 157.832 158.668 156.592 155.117 
153.731 157.782 158.451 156.79 155.519 154.099 152.745 157.547 158.18 
156.581 155.47 154.345 153.059 151.949 157.367 157.95 156.401 155.228 
154.309 153.387 152.307 151.515 157.263 157.808 156.412 155.23 154.241 
153.535 152.675 151.801 151.181 157.185 157.775 156.402 155.318 154.242 
153.449 152.696 151.874 151.212 150.711 150.061 150.385 149.672 150.802 
149.833 149.168 151.471 150.209 149.296 148.71 152.37 151.019 149.817 
148.936 148.342 153.282 152.106 150.829 149.6 148.659 148.081 154.3 
153.193 152.012 150.637 149.321 148.492 147.994 155.482 154.375 153.213 
151.854 150.331 149.197 148.588 148.102 156.551 155.637 154.523 153.212 
151.674 150.306 149.472 148.926 148.377 157.376 156.741 155.784 154.55 
153.116 151.717 150.683 149.986 149.365 148.767 149.668 149.264 149.443 
148.75 148.876 149.026 148.271 148.283 148.274 148.254 147.856 147.774 
147.724 147.637 147.668 147.552 147.273 147.237 147.279 147.279 147.458 
147.45 146.911 146.706 146.848 146.963 146.968 147.196 147.599 146.901 
146.446 146.405 146.58 146.577 146.562 146.89 147.971 147.25 146.658 
146.307 146.268 146.296 146.213 146.33 146.818 148.753 148.003 148.939 
148.255 149.363 147.333 148.653 149.975 147.561 146.725 149.207 150.646 
147.899 146.873 146.3 149.886 151.24 148.496 147.247 146.397 146.147 
150.581 151.829 149.257 147.953 146.822 146.185 146.069 151.328 152.51 
150.042 148.785 147.582 146.607 146.141 146.109 152.115 153.189 150.894 
149.688 148.548 147.455 146.681 146.435 146.539 152.832 153.786 151.752 
150.655 149.621 148.593 147.671 147.166 147.096 147.215 149.63 149.688 
150.681 150.827 151.912 149.99 152.19 153.234 151.274 150.618 153.662 
154.392 152.759 152.05 151.41 154.984 155.389 154.301 153.514 152.837 
152.059 156.23 156.663 155.725 154.968 154.196 153.398 152.55 157.667 
158.258 157.085 156.379 155.622 154.802 153.891 153.108 159.106 159.683 
158.457 157.739 157.043 156.295 155.347 154.419 153.736 160.227 160.694 
159.69 159.041 158.362 157.66 156.762 155.75 154.927 154.324 158.223 
157.811 158.774 158.188 159.245 157.05 158.381 159.569 157.111 155.854 
158.56 159.808 157.081 155.661 154.421 158.775 159.987 157.277 155.643 
154.279 153.049 158.877 160.178 157.437 155.894 154.484 153.241 151.961 
159.02 160.417 157.432 155.973 154.791 153.66 152.411 151.128 159.344 
160.604 157.694 156.099 154.979 154.028 152.846 151.551 150.361 158.399 
158.981 159.269 159.92 160.336 159.648 160.89 161.327 160.591 160.24 
161.78 162.281 161.462 161.245 160.685 162.812 163.431 162.24 162.067 
161.804 160.991 164.041 164.566 163.184 162.639 162.647 162.262 161.264 
165.131 165.405 164.392 163.399 163.124 163.251 162.66 161.53 165.908 
166.048 165.525 164.568 163.741 163.757 163.7 162.811 161.631 166.442 
166.62 166.237 165.638 164.675 164.172 164.19 163.741 162.661 161.569 