# vtk DataFile Version 4.0
vtk output
ASCII
DATASET POLYDATA
POINTS 1002 float
-80.4612 -114.464 74.6742 -79.9975 -115.168 74.1469 -80.4531 -115.093 73.4093 
-80.8723 -114.121 74.0135 -80.9361 -114.892 72.6584 -81.1065 -113.521 75.3504 
-81.2534 -113.513 73.2812 -81.2315 -114.237 71.8505 -81.4335 -112.824 74.7151 
-81.6528 -112.11 75.9713 -81.5819 -112.651 72.5315 -81.4272 -113.307 71.1108 
-81.8386 -112.052 74.0165 -81.9955 -111.331 75.297 -82.0578 -110.508 76.4309 
-82.0736 -111.938 71.9113 -81.9145 -112.613 70.5776 -82.4029 -111.418 73.3721 
-82.6403 -110.806 74.665 -82.6552 -109.947 75.765 -82.8234 -109.247 76.9496 
-82.861 -111.494 71.4117 -82.7916 -112.149 70.242 -83.1385 -110.949 72.7759 
-83.4129 -110.345 74.0834 -83.496 -109.503 75.2073 -83.6116 -108.707 76.3529 
-83.9598 -108.271 77.6615 -83.7519 -110.971 71.0435 -83.7354 -111.587 70.0653 
-83.9264 -110.37 72.2273 -84.0833 -109.616 73.435 -84.1525 -108.713 74.5937 
-84.2676 -107.912 75.7619 -84.5145 -107.42 77.0482 -84.7573 -107.081 78.342 
-84.5828 -110.275 70.8703 -84.5586 -110.906 69.9887 -84.6987 -109.636 71.9107 
-84.7257 -108.757 72.9067 -84.6702 -107.73 73.918 -84.7499 -106.925 75.0841 
-84.9586 -106.445 76.3713 -85.1273 -106.105 77.6737 -85.1551 -105.677 78.8018 
-85.4298 -109.591 70.8131 -85.3689 -110.257 69.9713 -85.525 -108.944 71.7845 
-85.5052 -108.079 72.632 -85.3768 -107.032 73.4148 -85.4039 -106.227 74.4526 
-85.6121 -105.759 75.721 -85.7614 -105.39 77.0081 -85.761 -104.978 78.156 
-85.6452 -104.497 79.0592 -86.3684 -109.017 70.8209 -86.2612 -109.709 70.0623 
-86.4516 -108.37 71.6834 -86.4155 -107.573 72.4264 -86.2794 -106.588 73.057 
-86.2668 -105.801 73.9403 -86.4542 -105.367 75.1448 -86.6101 -104.979 76.3863 
-86.5989 -104.519 77.5158 -86.4775 -104.08 78.4598 -86.2919 -103.683 79.1986 
-80.0011 -115.948 73.2381 -80.5681 -115.993 72.3931 -80.1014 -116.934 72.3063 
-80.5939 -116.813 71.3733 -80.0227 -117.772 71.3436 -81.023 -115.768 71.5455 
-80.1253 -117.161 70.2639 -79.6816 -118.341 70.3243 -80.6971 -116.209 70.4234 
-81.105 -114.954 70.6533 -79.4481 -117.389 68.971 -79.388 -119.027 69.2804 
-79.7507 -116.105 69.0726 -80.4547 -115.19 69.3983 -81.1883 -113.986 69.872 
-79.3584 -118.174 67.7491 -79.4816 -119.905 68.4862 -79.1649 -116.34 67.5052 
-79.6336 -115.184 67.8864 -80.749 -114.423 68.5823 -81.8742 -113.356 69.4142 
-79.9546 -119.236 67.1605 -80.0109 -120.54 68.233 -79.7041 -117.398 66.4258 
-79.7638 -115.746 66.5221 -80.6416 -114.819 67.2853 -81.9528 -114.014 68.3299 
-83.0042 -112.851 69.2922 -80.8144 -119.949 67.299 -80.8949 -120.848 68.3695 
-80.7211 -118.536 66.3939 -80.7595 -116.829 66.1539 -81.2622 -115.5 66.5629 
-82.2875 -114.566 67.4354 -83.3334 -113.508 68.4761 -84.0221 -112.2 69.3004 
-81.822 -120.326 67.6811 -81.9913 -121.068 68.5667 -81.6798 -119.226 66.9374 
-81.7349 -117.752 66.6887 -82.1273 -116.306 66.7564 -82.855 -115.097 67.0143 
-83.7077 -113.969 67.6948 -84.3641 -112.762 68.5585 -84.8329 -111.472 69.2734 
-82.9278 -120.564 67.9948 -83.0709 -121.239 68.7517 -82.7204 -119.622 67.3702 
-82.6521 -118.352 67.2066 -82.9557 -116.997 67.2323 -83.5772 -115.671 67.0432 
-84.2572 -114.335 67.0617 -84.7899 -113.104 67.6824 -85.1865 -111.971 68.5278 
-85.6452 -110.816 69.3003 -84.0284 -120.893 68.5541 -83.9421 -120.117 67.7735 
-85.0285 -120.403 68.3723 -85.1267 -119.557 67.5718 -86.1424 -119.886 68.2004 
-83.8311 -119.02 67.353 -86.478 -118.992 67.487 -87.3402 -119.32 68.2582 
-85.3061 -118.425 67.1858 -83.9822 -117.72 67.3329 -87.7095 -118.256 67.7789 
-88.4132 -118.467 68.6727 -86.8638 -117.779 67.0632 -85.7324 -117.084 66.958 
-84.5363 -116.337 67.098 -88.6248 -117.173 68.3914 -89.3253 -117.314 69.1837 
-87.9713 -116.831 67.4627 -87.2349 -116.207 66.8015 -86.2856 -115.433 66.5904 
-85.1758 -114.755 66.7024 -89.4984 -115.929 69.0642 -90.293 -116.103 69.6384 
-88.7795 -115.654 68.3326 -88.1131 -115.127 67.56 -87.4715 -114.368 66.9117 
-86.5975 -113.641 66.6382 -85.5699 -113.237 66.9636 -90.5714 -114.668 69.7613 
-91.4204 -114.938 70.0875 -89.793 -114.384 69.3011 -89.0233 -114.004 68.7339 
-88.3019 -113.436 68.1176 -87.576 -112.772 67.5757 -86.6834 -112.286 67.4593 
-85.8111 -112.084 67.8888 -91.7829 -113.372 70.3406 -92.6324 -113.817 70.4142 
-90.9892 -112.962 70.1226 -90.2719 -112.653 69.6748 -89.5019 -112.36 69.1658 
-88.6709 -111.992 68.7562 -87.798 -111.592 68.5345 -86.9308 -111.271 68.5977 
-86.1994 -111.032 68.9018 -93.0201 -112.136 70.5666 -93.7922 -112.776 70.5201 
-92.2046 -111.536 70.5487 -91.531 -111.134 70.235 -90.8967 -110.908 69.7377 
-90.1046 -110.747 69.409 -89.1827 -110.584 69.3729 -88.283 -110.38 69.482 
-87.4939 -110.133 69.6179 -86.8249 -109.89 69.7945 -87.3602 -108.725 70.7031 
-88.0512 -108.796 70.5098 -88.5112 -107.621 71.3011 -88.7956 -108.886 70.3245 
-89.2476 -107.45 71.0104 -89.4541 -106.323 71.6177 -89.6441 -108.932 70.0402 
-90.0033 -107.239 70.607 -90.1848 -105.919 71.0897 -90.2414 -104.841 71.744 
-90.624 -108.982 69.7547 -90.9121 -107.12 70.2043 -91.0032 -105.591 70.5659 
-91.0638 -104.442 71.132 -91.0975 -103.383 71.9882 -91.5624 -109.152 69.7425 
-91.9899 -107.304 69.9784 -92.0791 -105.606 70.3105 -92.0558 -104.282 70.7453 
-92.0603 -103.179 71.5268 -91.9639 -102.169 72.3742 -92.277 -109.427 70.07 
-92.9824 -107.753 69.9465 -93.332 -106.012 70.1224 -93.2873 -104.386 70.5152 
-93.1415 -103.114 71.1776 -92.9748 -102.067 71.9928 -92.6999 -101.174 72.7204 
-92.9181 -109.816 70.4222 -93.7573 -108.243 70.054 -94.4322 -106.605 69.8673 
-94.5814 -104.729 70.0974 -94.3444 -103.102 70.7083 -94.0682 -101.953 71.5018 
-93.7614 -101.04 72.2658 -93.3902 -100.279 73.0484 -93.6897 -110.448 70.5269 
-94.4587 -108.821 70.2181 -95.2135 -107.255 69.8672 -95.6006 -105.392 69.8319 
-95.4952 -103.462 70.2877 -95.2204 -102.028 71.0534 -94.9348 -101.017 71.8189 
-94.5445 -100.199 72.5876 -94.0989 -99.5462 73.5066 -94.4604 -111.275 70.5004 
-95.1102 -109.633 70.385 -95.7303 -108.037 70.2127 -96.1881 -106.316 70.132 
-96.3099 -104.383 70.372 -96.2013 -102.677 70.9927 -96.0369 -101.414 71.7197 
-95.736 -100.421 72.3903 -95.2547 -99.6622 73.1673 -94.7389 -99.1094 74.1205 
-87.4714 -108.005 71.4426 -88.5057 -106.837 71.9102 -87.4403 -107.234 72.1313 
-89.3511 -105.4 72.2165 -88.3465 -105.851 72.4422 -87.2874 -106.235 72.6908 
-90.1583 -103.792 72.5144 -89.173 -104.255 72.8549 -88.1732 -104.736 73.0818 
-87.1998 -105.309 73.4631 -90.9995 -102.345 72.8128 -89.9754 -102.717 73.2827 
-88.9656 -103.218 73.6877 -88.0786 -103.964 74.1226 -87.2887 -104.806 74.6479 
-91.7694 -101.231 73.1258 -90.7619 -101.471 73.5803 -89.6789 -101.87 74.1292 
-88.6709 -102.493 74.6847 -87.9594 -103.459 75.2735 -87.3729 -104.402 75.8833 
-92.4768 -100.289 73.5719 -91.5431 -100.443 74.0337 -90.4917 -100.749 74.5187 
-89.2956 -101.132 75.0126 -88.2897 -101.788 75.5416 -87.7542 -102.841 76.2511 
-87.3111 -103.856 76.9859 -93.1951 -99.4181 74.1476 -92.3059 -99.436 74.7187 
-91.3523 -99.7057 75.1603 -90.1914 -100.089 75.5153 -88.9044 -100.448 75.8618 
-87.9798 -101.148 76.4448 -87.5772 -102.313 77.278 -87.1757 -103.395 78.0019 
-93.887 -98.7823 74.7651 -93.0206 -98.5347 75.3873 -92.1003 -98.6441 75.8413 
-91.0541 -99.173 76.1724 -89.8195 -99.6678 76.4874 -88.5961 -100.049 76.9421 
-87.827 -100.875 77.6364 -87.4697 -102.108 78.3548 -87.0118 -103.107 78.86 
-94.7751 -98.6792 75.2355 -93.9129 -98.1267 75.863 -94.7671 -98.3946 76.4239 
-93.8443 -97.723 76.8992 -94.6917 -98.434 77.6238 -92.9585 -97.7741 76.3546 
-93.6904 -97.9974 78.0119 -94.5557 -98.918 78.9447 -92.7749 -97.569 77.2737 
-91.882 -98.1615 76.7237 -93.5346 -98.8194 79.4781 -94.4064 -99.4582 80.4883 
-92.5996 -98.2265 78.5413 -91.5885 -98.3614 77.7787 -90.7004 -99.0243 77.1598 
-93.3702 -99.3293 81.2707 -94.2391 -99.6357 82.1581 -92.4607 -99.0326 80.3154 
-91.3698 -98.9771 79.3616 -90.3273 -99.2186 78.545 -89.4193 -99.5453 77.7448 
-93.1444 -99.447 82.9909 -94.0161 -99.8788 83.5914 -92.2149 -99.2964 82.1846 
-91.1238 -99.3173 81.2161 -90.0081 -99.3795 80.276 -89.0616 -99.5624 79.3768 
-88.3097 -100.028 78.4277 -92.8801 -100.033 84.1575 -93.7104 -100.714 84.4649 
-91.9192 -99.6512 83.5982 -90.8136 -99.582 82.766 -89.7195 -99.5752 81.8724 
-88.796 -99.7059 80.9846 -88.1039 -100.243 79.9921 -87.6811 -101.113 79.0385 
-92.5456 -101.235 84.7289 -93.2908 -101.904 84.902 -91.6636 -100.673 84.3837 
-90.6136 -100.376 83.7576 -89.5595 -100.233 83.0313 -88.662 -100.232 82.3063 
-87.9546 -100.645 81.3784 -87.4914 -101.446 80.3086 -87.231 -102.313 79.4417 
-92.1038 -102.477 85.0958 -92.8004 -102.996 85.249 -91.3405 -101.928 84.8781 
-90.46 -101.504 84.4326 -89.5214 -101.247 83.8386 -88.6427 -101.122 83.2973 
-87.8537 -101.268 82.621 -87.2243 -101.764 81.5929 -86.8218 -102.404 80.5152 
-86.55 -103.037 79.7329 -95.6302 -99.2475 74.2731 -95.6452 -99.0036 75.5147 
-96.4701 -99.565 74.6641 -96.5404 -99.3758 76.0313 -97.1327 -100.109 75.2608 
-95.6649 -98.9381 76.9101 -97.3151 -99.9627 76.7777 -97.5276 -101.139 76.0182 
-96.6705 -99.3421 77.6456 -95.6595 -99.1049 78.3959 -97.6529 -101.198 77.6148 
-97.6084 -102.654 76.8649 -97.4162 -99.9884 78.4907 -96.721 -99.4836 79.3476 
-95.5849 -99.4777 79.954 -97.5078 -102.851 78.3317 -97.4853 -104.16 77.5909 
-97.4183 -101.402 79.1266 -97.2316 -100.215 80.0908 -96.607 -99.7881 80.9677 
-95.4393 -99.7751 81.5682 -97.3626 -104.351 78.9215 -97.4393 -105.55 78.1362 
-97.089 -103.155 79.5659 -96.9309 -101.77 80.3911 -96.9222 -100.644 81.5232 
-96.365 -100.18 82.4852 -95.2002 -100.03 83.0898 -97.4987 -105.842 79.5192 
-97.5599 -107.149 78.6476 -97.1619 -104.752 80.124 -96.7126 -103.62 80.6974 
-96.6684 -102.31 81.7243 -96.6884 -101.276 82.9629 -96.0217 -100.821 83.7846 
-94.8547 -100.694 84.1953 -97.6415 -107.495 80.0337 -97.6364 -108.821 79.1115 
-97.4385 -106.314 80.7063 -96.9672 -105.318 81.2272 -96.6456 -104.236 82.0654 
-96.669 -103.044 83.2529 -96.431 -102.167 84.1998 -95.5565 -101.804 84.6339 
-94.392 -101.773 84.8011 -97.5606 -109.013 80.3133 -97.5293 -110.18 79.4162 
-97.4547 -107.842 81.0226 -97.1334 -106.853 81.6104 -96.7936 -105.976 82.4317 
[...]
CELL_DATA 2000
SCALARS Distance double
LOOKUP_TABLE default
157.556 157.302 157.431 157.467 156.794 157.038 156.946 157.247 157.21 
155.994 156.346 156.262 156.618 156.544 156.835 156.671 155.348 155.597 
155.663 155.975 156.056 156.268 156.193 156.304 156.228 155.134 155.21 
155.365 155.568 155.765 155.94 155.973 156.014 155.967 156.07 156.221 
155.112 155.137 155.218 155.37 155.457 155.649 155.592 155.741 155.596 
155.781 155.781 156.117 156.276 155.052 155.081 155.073 155.185 155.127 
155.248 155.031 155.183 154.943 155.207 155.118 155.507 155.563 155.995 
156.006 155.003 154.999 154.986 155.031 154.956 154.941 154.695 154.664 
154.449 154.576 154.586 154.864 155.013 155.322 155.432 155.683 155.648 
155.082 155.014 155.032 155.006 154.966 154.871 154.664 154.503 154.326 
154.304 154.399 154.554 154.806 154.987 155.184 155.319 155.399 155.476 
155.461 157.615 157.862 157.642 157.454 158.076 157.89 157.646 157.431 
157.035 157.898 157.83 157.423 157.425 156.95 156.776 156.183 157.552 
157.356 156.631 156.765 156.209 156.392 155.851 155.817 155.379 157.645 
157.081 156.118 155.862 155.19 155.402 155.088 155.354 155.154 155.214 
155.107 158.26 157.488 156.605 155.798 155.086 154.734 154.579 154.72 
154.898 155.067 155.184 155.164 155.165 159.059 158.325 157.684 156.734 
156.128 155.288 155.103 154.747 155.024 155.034 155.359 155.34 155.411 
155.256 155.174 159.89 159.232 158.758 157.942 157.465 156.601 156.34 
155.683 155.742 155.44 155.657 155.565 155.66 155.524 155.422 155.226 
155.108 160.702 160.111 159.706 159.011 158.595 157.865 157.574 156.914 
156.773 156.258 156.195 155.896 155.853 155.708 155.615 155.464 155.342 
155.182 155.144 161.005 161.115 160.739 160.031 161.225 160.838 160.144 
159.714 158.974 161.44 161.01 160.361 159.883 159.196 158.717 158.048 
161.647 161.262 160.634 160.163 159.489 159 158.34 157.867 157.252 
161.64 161.377 160.731 160.373 159.654 159.24 158.5 158.087 157.385 
157.022 156.48 161.51 161.283 160.664 160.376 159.673 159.309 158.547 
158.151 157.393 157.039 156.431 156.236 155.907 161.46 161.192 160.643 
160.342 159.749 159.368 158.72 158.263 157.603 157.129 156.564 156.22 
155.882 155.765 155.617 161.478 161.196 160.656 160.371 159.829 159.507 
158.956 158.55 158.012 157.523 157.053 156.568 156.24 155.897 155.72 
155.557 155.432 161.467 161.197 160.606 160.347 159.764 159.531 158.979 
158.726 158.211 157.903 157.458 157.097 156.752 156.38 156.14 155.822 
155.654 155.427 155.299 155.335 155.712 155.522 155.537 156.184 155.925 
155.842 155.645 155.512 156.698 156.371 156.139 155.869 155.571 155.411 
155.122 157.271 156.856 156.511 156.119 155.698 155.419 155.072 154.935 
154.681 157.941 157.447 157.101 156.58 156.177 155.686 155.351 155.016 
154.831 154.633 154.498 158.671 158.148 157.858 157.305 156.994 156.387 
156.067 155.523 155.309 154.952 154.836 154.579 154.451 159.448 158.907 
158.65 158.123 157.876 157.3 156.961 156.335 155.979 155.497 155.268 
154.963 154.801 154.547 154.406 160.322 159.748 159.516 158.958 158.748 
158.192 157.887 157.232 156.811 156.184 155.863 155.429 155.263 154.94 
154.824 154.545 154.485 161.244 160.69 160.496 159.896 159.706 159.115 
158.884 158.213 157.87 157.124 156.822 156.189 156.07 155.579 155.541 
155.11 155.094 154.749 154.796 155.201 155.388 155.238 155.136 155.368 
155.352 155.189 155.123 154.979 155.017 155.163 154.972 155.015 154.77 
154.8 154.58 154.573 154.722 154.557 154.662 154.423 154.488 154.309 
154.371 154.279 154.305 154.332 154.168 154.245 154.072 154.146 154.072 
154.171 154.269 154.315 154.457 154.207 154.141 153.942 153.941 153.788 
153.843 153.765 153.922 154.038 154.286 154.535 154.66 154.853 154.191 
154.087 153.907 153.826 153.692 153.654 153.525 153.582 153.525 153.825 
153.982 154.444 154.69 154.974 155.124 154.292 154.137 154.005 153.878 
153.785 153.678 153.576 153.46 153.306 153.314 153.3 153.669 153.935 
154.494 154.797 155.143 155.282 154.585 154.344 154.213 154.029 153.919 
153.801 153.734 153.615 153.525 153.331 153.249 153.21 153.391 153.747 
154.179 154.669 155.003 155.27 155.371 154.814 155.083 154.719 154.36 
155.474 154.965 154.46 154.219 153.963 156.167 155.437 154.814 154.347 
154.019 153.876 153.765 157.187 156.325 155.725 154.944 154.565 154.107 
153.986 153.787 153.666 158.194 157.43 156.929 156.085 155.673 154.933 
154.699 154.209 154.034 153.688 153.466 159.012 158.372 157.911 157.231 
156.782 156.068 155.659 155.029 154.711 154.205 153.971 153.577 153.542 
159.806 159.177 158.724 158.099 157.638 157.001 156.526 155.898 155.496 
154.938 154.711 154.251 154.265 153.951 154.231 160.603 160.003 159.587 
158.938 158.506 157.831 157.405 156.736 156.385 155.773 155.581 155.078 
155.089 154.737 154.928 154.737 155.018 161.284 160.775 160.404 159.816 
159.425 158.764 158.384 157.699 157.405 156.759 156.588 156.022 155.958 
155.528 155.549 155.301 155.375 155.283 155.369 155.186 156.011 155.57 
155.561 156.998 156.503 156.568 156.066 156.097 158.16 157.591 157.719 
157.191 157.341 156.748 156.856 159.511 158.871 159.005 158.423 158.622 
158.067 158.258 157.639 157.812 160.829 160.239 160.301 159.708 159.822 
159.319 159.524 159.018 159.194 158.606 158.746 162.002 161.471 161.496 
160.917 160.91 160.409 160.549 160.168 160.39 159.922 160.053 159.464 
159.553 163.271 162.674 162.769 162.122 162.128 161.495 161.59 161.145 
161.425 161.051 161.294 160.763 160.866 160.244 160.334 164.64 164.034 
164.162 163.493 163.555 162.836 162.944 162.331 162.628 162.167 162.51 
162.011 162.185 161.57 161.625 161.011 161.083 165.776 165.311 165.37 
164.827 164.845 164.242 164.326 163.748 164.001 163.493 163.809 163.287 
163.462 162.859 162.876 162.257 162.245 161.686 161.715 161.691 162.149 
161.625 160.985 162.549 162.056 161.41 160.863 160.184 162.877 162.407 
161.76 161.257 160.562 160.036 159.328 163.243 162.736 162.101 161.596 
160.918 160.388 159.641 159.107 158.321 163.769 163.188 162.588 162.008 
161.331 160.746 159.997 159.421 158.638 158.072 157.319 164.381 163.778 
163.166 162.558 161.847 161.2 160.392 159.773 159.007 158.447 157.754 
157.192 156.576 164.925 164.347 163.648 163.07 162.326 161.71 160.878 
160.206 159.396 158.817 158.157 157.654 157.057 156.54 155.997 165.39 
164.835 164.09 163.482 162.729 162.15 161.421 160.765 160.003 159.307 
158.623 158.053 157.481 156.987 156.438 155.964 155.492 165.786 165.293 
164.612 163.964 163.229 162.602 161.971 161.37 160.759 160.049 159.392 
158.662 158.071 157.46 156.956 156.428 155.978 155.515 155.164 162.165 
162.897 162.581 162.631 163.573 163.277 163.393 163.063 163.075 164.376 
164 164.167 163.856 163.997 163.546 163.49 165.331 164.894 165.087 
164.736 164.994 164.566 164.622 163.998 163.891 166.339 165.885 166.049 
165.688 165.956 165.613 165.766 165.204 165.134 164.446 164.379 167.374 
166.908 166.981 166.576 166.73 166.471 166.665 166.303 166.327 165.72 
165.655 165.002 164.996 168.303 167.921 167.944 167.471 167.485 167.149 
167.319 167.094 167.253 166.847 166.844 166.258 166.223 165.613 165.577 
168.936 168.732 168.809 168.404 168.353 167.907 167.965 167.713 167.925 
167.69 167.776 167.336 167.257 166.729 166.639 166.097 166.001 169.349 
169.254 169.414 169.174 169.141 168.726 168.63 168.315 168.409 168.271 
168.409 168.149 168.082 167.63 167.467 167.004 166.878 166.417 166.299 
169.641 170.116 169.841 169.709 170.433 170.231 170.009 169.762 169.435 
170.559 170.429 170.127 169.909 169.503 169.275 168.885 170.557 170.517 
170.255 169.995 169.57 169.295 168.973 168.791 168.629 170.284 170.433 
170.296 170.157 169.815 169.487 169.221 168.982 168.912 168.742 168.659 
169.843 170.045 169.967 170.068 169.822 169.707 169.467 169.308 169.221 
169.064 168.928 168.693 168.376 169.668 169.701 169.634 169.698 169.491 
169.514 169.276 169.344 169.24 169.275 169.096 168.906 168.502 168.207 
167.75 169.683 169.668 169.612 169.545 169.344 169.226 168.957 168.984 
168.879 169.066 168.963 168.958 168.576 168.311 167.81 167.544 167.135 
169.502 169.612 169.53 169.544 169.33 169.197 168.889 168.767 168.6 
168.685 168.633 168.723 168.447 168.306 167.807 167.576 167.124 166.948 
166.573 169.28 168.843 169.15 169.29 168.335 168.608 168.679 169.054 
169.079 167.92 168.092 168.061 168.375 168.44 168.768 168.711 167.465 
167.689 167.629 167.829 167.897 168.194 168.3 168.488 168.5 166.648 
167.093 167.045 167.357 167.377 167.716 167.858 168.145 168.227 168.394 
168.442 165.483 166.082 166.044 166.562 166.565 167.067 167.149 167.599 
167.599 167.94 167.839 168.175 168.09 164.252 164.854 164.859 165.45 
165.518 166.114 166.211 166.743 166.686 167.091 166.872 167.279 167.087 
167.562 167.42 163.146 163.686 163.747 164.318 164.442 165.05 165.179 
165.743 165.697 166.109 165.871 166.23 166.028 166.479 166.406 166.873 
166.807 162.2 162.674 162.748 163.281 163.397 163.986 164.069 164.653 
164.568 165.049 164.797 165.208 164.99 165.451 165.392 165.896 165.893 
166.337 166.278 169.111 168.745 168.892 168.754 168.429 168.577 168.543 
168.573 168.388 168.15 168.285 168.253 168.362 168.211 168.208 167.982 
167.812 167.95 167.769 167.937 167.675 167.84 167.545 167.691 167.406 
167.224 167.461 167.179 167.349 166.981 167.139 166.744 166.986 166.65 
166.924 166.538 166.304 166.668 166.389 166.662 166.32 166.468 166.056 
166.175 165.785 166.019 165.648 165.894 165.405 165.291 165.653 165.352 
165.724 165.39 165.713 165.314 165.51 165.045 165.202 164.749 164.962 
164.492 164.69 164.166 164.394 164.684 164.35 164.657 164.276 164.638 
164.225 164.579 164.095 164.365 163.831 164.057 163.537 163.759 163.263 
163.472 163.019 163.572 163.835 163.512 163.738 163.364 163.595 163.206 
163.474 163.06 163.328 162.861 163.094 162.601 162.819 162.359 162.582 
162.18 162.408 162.062 169.273 169.419 169.162 168.853 169.613 169.332 
168.919 168.697 168.439 169.565 169.469 169.055 168.786 168.446 168.321 
168.175 169.156 169.258 168.971 168.864 168.52 168.371 168.184 168.113 
167.95 168.807 168.826 168.585 168.628 168.326 168.325 168.066 168.075 
167.838 167.785 167.41 168.714 168.594 168.249 168.221 167.893 167.955 
167.641 167.753 167.42 167.498 167.06 167.026 166.475 168.513 168.467 
168.04 167.942 167.543 167.522 167.193 167.25 166.904 166.962 166.526 
166.547 166.037 166 165.466 168.037 168.123 167.714 167.677 167.226 
167.19 166.835 166.858 166.535 166.523 166.106 166.051 165.58 165.546 
165.081 165.039 164.574 167.476 167.6 167.238 167.266 166.798 166.795 
166.374 166.449 166.107 166.168 165.753 165.703 165.206 165.139 164.668 
164.645 164.206 164.177 163.735 167.073 166.29 166.752 166.793 165.289 
165.848 165.868 166.351 166.328 164.178 164.78 164.837 165.366 165.377 
165.856 165.904 163.09 163.678 163.795 164.353 164.418 164.913 164.991 
165.503 165.63 162.04 162.599 162.686 163.295 163.376 163.941 163.985 
164.539 164.621 165.2 165.262 160.915 161.496 161.478 162.109 162.147 
162.805 162.843 163.457 163.482 164.091 164.131 164.723 164.717 159.666 
160.281 160.249 160.865 160.896 161.547 161.653 162.291 162.384 162.961 
163.016 163.577 163.62 164.168 164.186 158.553 159.072 159.151 159.712 
159.854 160.422 160.622 161.202 161.398 161.942 162.048 162.546 162.591 
163.103 163.147 163.682 163.725 157.887 158.2 158.395 158.827 159.114 
159.58 159.858 160.332 160.543 161.029 161.14 161.616 161.642 162.118 
162.132 162.648 162.689 163.232 163.271 157.731 157.753 157.89 158.242 
157.586 157.907 158.32 158.518 158.958 156.998 157.538 158.013 158.474 
158.928 159.214 159.649 156.474 156.878 157.336 157.932 158.425 158.96 
159.378 159.78 160.201 156.534 156.629 157.036 157.34 157.822 158.31 
158.762 159.295 159.726 160.23 160.684 156.684 156.838 157.213 157.316 
157.705 157.907 158.348 158.716 159.209 159.687 160.199 160.692 161.174 
156.319 156.715 157.006 157.35 157.635 157.887 158.246 158.506 158.996 
159.332 159.883 160.272 160.795 161.205 161.685 155.754 156.102 156.248 
156.756 156.992 157.528 157.869 158.336 158.791 159.192 159.709 160.064 
160.562 160.905 161.386 161.758 162.246 155.464 155.585 155.629 155.945 
156.162 156.702 157.113 157.745 158.256 158.835 159.352 159.825 160.302 
160.685 161.139 161.498 161.974 162.35 162.833 163.017 162.159 162.719 
162.952 161.302 161.846 162.079 162.625 162.811 160.409 160.954 161.169 
161.75 161.962 162.477 162.641 159.384 159.963 160.115 160.776 161.023 
161.628 161.804 162.301 162.452 158.207 158.818 158.893 159.612 159.836 
160.587 160.809 161.422 161.534 162.067 162.208 156.985 157.567 157.62 
158.334 158.528 159.311 159.546 160.294 160.448 161.075 161.172 161.771 
161.931 156.01 156.421 156.5 157.116 157.355 158.052 158.301 159.013 
159.219 159.905 160.067 160.706 160.874 161.5 161.71 155.532 155.695 
155.786 156.179 156.435 156.994 157.259 157.869 158.08 158.718 158.93 
159.591 159.83 160.474 160.724 161.334 161.581 155.421 155.445 155.485 
155.662 155.8 156.18 156.358 156.878 157.043 157.636 157.826 158.482 
158.746 159.432 159.732 160.38 160.661 161.252 161.505 161.142 160.369 
161.028 161.624 159.611 160.263 160.893 161.594 162.332 158.96 159.579 
160.227 160.89 161.679 162.42 163.217 158.494 159.038 159.712 160.283 
161.067 161.801 162.698 163.373 164.111 158.351 158.731 159.422 159.859 
160.597 161.234 162.173 162.903 163.773 164.306 164.994 158.441 158.7 
159.34 159.683 160.374 160.85 161.718 162.403 163.33 163.969 164.698 
165.19 165.821 158.389 158.687 159.225 159.619 160.287 160.699 161.437 
161.98 162.796 163.461 164.195 164.793 165.371 165.907 166.415 158.085 
158.426 158.889 159.39 160.059 160.56 161.229 161.693 162.337 162.897 
163.551 164.185 164.78 165.368 165.867 166.378 166.773 157.818 158.067 
158.489 158.97 159.628 160.215 160.887 161.399 161.972 162.445 163.004 
163.55 164.137 164.733 165.283 165.829 166.277 166.71 167.045 161.708 
162.247 162.219 162.735 162.998 162.883 163.459 163.34 163.881 163.834 
163.703 164.288 164.159 164.72 164.562 165.09 164.615 164.494 165.056 
164.982 165.55 165.418 165.901 165.732 166.164 165.493 165.309 165.912 
165.781 166.414 166.258 166.766 166.542 166.939 166.729 167.097 166.418 
166.286 166.996 166.806 167.484 167.224 167.749 167.448 167.861 167.577 
167.961 167.691 168.023 167.008 167.096 167.801 167.832 168.424 168.266 
168.619 168.362 168.671 168.472 168.85 168.625 168.931 168.599 168.765 
167.241 167.438 168.004 168.278 168.748 168.863 169.039 168.952 169.065 
169.04 169.369 169.378 169.699 169.477 169.562 169.181 169.164 167.419 
167.552 168.002 168.257 168.699 168.917 169.147 169.154 169.239 169.237 
169.519 169.675 170.075 170.089 170.234 169.928 169.848 169.464 169.424 
161.619 162.584 161.978 161.741 163.671 162.978 162.713 162.081 161.843 
164.887 164.148 163.864 163.122 162.86 162.213 162.025 165.999 165.365 
165.114 164.353 164.042 163.292 163.039 162.419 162.219 166.902 166.371 
166.138 165.516 165.179 164.468 164.125 163.447 163.155 162.547 162.238 
167.745 167.219 166.934 166.384 166.019 165.436 165.068 164.468 164.125 
163.489 163.121 162.478 162.107 168.448 168.005 167.695 167.15 166.749 
166.168 165.783 165.265 164.937 164.396 164.017 163.378 162.968 162.34 
162.011 168.879 168.58 168.333 167.892 167.53 166.932 166.505 165.936 
165.564 165.082 164.699 164.174 163.741 163.174 162.808 162.274 162.005 
169.197 168.952 168.786 168.467 168.187 167.692 167.261 166.671 166.215 
165.677 165.246 164.75 164.316 163.832 163.464 163.008 162.737 162.269 
162.013 169.506 169.727 169.66 169.683 169.743 169.789 169.918 169.88 
169.896 169.877 169.81 169.916 169.978 170.008 169.965 169.778 170.255 
170.05 170.025 169.958 169.911 169.899 169.693 169.616 169.301 170.572 
170.419 170.333 170.145 170.047 169.881 169.741 169.566 169.396 169.209 
169.044 170.672 170.644 170.622 170.463 170.397 170.169 170.121 169.86 
169.838 169.549 169.511 169.193 169.075 170.568 170.677 170.738 170.711 
170.667 170.511 170.409 170.246 170.177 170.029 169.926 169.695 169.466 
169.164 168.849 170.208 170.458 170.56 170.731 170.712 170.676 170.433 
170.322 170.044 170.063 169.836 169.846 169.507 169.357 168.909 168.702 
168.281 169.696 169.988 170.1 170.421 170.475 170.595 170.339 170.214 
169.794 169.735 169.463 169.545 169.315 169.267 168.881 168.673 168.237 
168.051 167.683 
POINT_DATA 1002
SCALARS Distance double
LOOKUP_TABLE default
157.595 157.623 157.456 157.247 157.209 157.565 156.663 156.516 156.934 
157.138 155.865 155.607 156.263 156.441 156.44 155.325 155.118 155.805 
156.106 156.037 156.213 155.194 155.095 155.582 155.914 155.904 155.965 
156.491 155.129 155.117 155.339 155.456 155.411 155.48 155.902 156.441 
155.005 155.041 155.093 154.955 154.688 154.735 155.145 155.647 155.936 
154.958 155.014 155.001 154.781 154.354 154.311 154.718 155.181 155.473 
155.541 155.077 155.16 155.066 154.837 154.379 154.252 154.639 155.067 
155.308 155.419 155.425 157.771 157.703 158.117 157.855 158.26 157.385 
157.379 158.058 157.038 156.431 156.636 157.964 155.881 155.71 155.418 
156.648 158.326 155.074 154.62 154.938 155.113 157.495 158.961 155.676 
154.514 154.608 155.155 155.29 158.524 159.694 157.034 155.677 155.124 
155.347 155.581 155.369 159.48 160.498 158.271 157.094 156.253 155.855 
155.776 155.63 155.274 160.357 161.255 159.284 158.234 157.399 156.67 
156.064 155.725 155.494 155.262 161.406 160.455 161.486 160.575 161.618 
159.406 160.84 161.865 159.673 158.515 161.085 161.995 159.981 158.819 
157.691 161.054 161.875 160.058 158.927 157.759 156.712 160.924 161.734 
160.019 158.946 157.772 156.652 155.937 160.922 161.729 160.088 159.145 
158.076 156.967 156.077 155.638 160.942 161.768 160.111 159.295 158.435 
157.532 156.665 155.984 155.544 160.886 161.753 159.995 159.193 158.456 
157.75 157.099 156.498 155.943 155.479 155.371 155.721 155.526 156.119 
155.694 155.319 156.506 155.8 155.224 154.828 156.973 156.062 155.239 
154.758 154.464 157.625 156.713 155.764 155.058 154.683 154.351 158.371 
157.584 156.692 155.753 155.122 154.708 154.299 159.165 158.42 157.631 
156.568 155.623 155.064 154.636 154.286 160.092 159.297 158.533 157.504 
156.367 155.606 155.125 154.716 154.458 161.097 160.306 159.519 158.606 
157.505 156.599 156.008 155.493 155.075 154.859 155.271 155.264 155.038 
154.91 154.748 154.528 154.434 154.334 154.194 154.212 154.104 153.973 
153.915 154.115 154.486 153.974 153.752 153.645 153.742 154.264 154.859 
153.993 153.758 153.571 153.365 153.475 154.214 155.001 154.136 153.89 
153.712 153.451 153.107 153.322 154.273 155.123 154.443 154.065 153.807 
153.688 153.44 153.205 153.651 154.617 155.272 155.142 154.576 155.534 
154.789 156.103 154.02 155.42 156.981 154.236 153.805 156.578 158.006 
155.179 154.284 153.875 157.711 158.869 156.503 155.343 154.476 153.756 
158.54 159.631 157.486 156.365 155.276 154.388 153.775 159.362 160.429 
158.274 157.158 156.061 155.156 154.595 154.432 160.221 161.161 159.181 
158.065 156.994 156.105 155.486 155.191 155.167 160.945 161.75 160.05 
159.047 158.041 157.183 156.48 155.912 155.548 155.413 155.562 156.01 
156.462 157.039 157.495 156.657 158.241 158.748 157.88 157.488 159.628 
160.163 159.151 158.837 158.452 160.932 161.398 160.35 159.971 159.768 
159.366 162.087 162.526 161.475 160.912 160.769 160.636 160.161 163.414 
163.877 162.809 162.103 161.761 161.752 161.496 160.943 164.815 165.234 
164.259 163.598 163.135 162.994 162.788 162.273 161.662 165.89 166.208 
165.41 164.87 164.514 164.357 164.082 163.519 162.839 162.237 162.227 
161.556 162.669 161.946 163.036 160.732 162.241 163.357 161.097 159.863 
162.614 163.763 161.453 160.207 158.856 163.192 164.357 161.962 160.584 
159.203 157.859 163.787 165.002 162.523 161.06 159.538 158.285 157.124 
164.255 165.523 162.906 161.554 160.026 158.632 157.558 156.492 164.731 
165.921 163.29 161.995 160.722 159.269 157.973 156.915 155.911 162.521 
163.001 163.173 163.66 163.89 163.522 164.455 164.787 164.39 164.082 
165.443 165.766 165.367 165.229 164.56 166.449 166.804 166.258 166.246 
165.827 165.021 167.473 167.849 167.024 166.913 166.841 166.316 165.632 
168.443 168.619 167.92 167.514 167.534 167.389 166.832 166.208 169.136 
169.056 168.851 168.292 168.096 168.152 167.792 167.15 166.563 169.574 