# vtk DataFile Version 4.0
vtk output
ASCII
DATASET POLYDATA
POINTS 1002 float
-76.1934 -110.244 60.5387 -76.6358 -109.559 59.6005 -77.1409 -109.891 59.7245 
-76.6653 -110.656 60.6895 -77.7873 -110.271 59.8931 -75.8049 -111.191 61.5223 
-77.2058 -111.157 60.8129 -78.484 -110.622 60.1678 -76.2452 -111.711 61.6865 
-75.5412 -112.395 62.5157 -77.6656 -111.731 60.9723 -79.0208 -111.02 60.575 
-76.5984 -112.41 61.8172 -75.9266 -113.082 62.7533 -75.3578 -113.7 63.6316 
-77.878 -112.54 61.1906 -79.2527 -111.692 61.0002 -76.7846 -113.338 61.9693 
-76.1311 -114.051 63.0172 -75.6564 -114.644 63.9515 -75.138 -115.153 64.7962 
-77.8336 -113.696 61.4326 -79.1827 -112.735 61.2965 -76.8309 -114.529 62.15 
-76.2646 -115.262 63.2752 -75.8326 -115.884 64.2588 -75.342 -116.384 65.0801 
-74.8463 -116.916 65.8126 -77.7055 -114.992 61.7078 -78.8926 -114.008 61.4169 
-76.8764 -115.791 62.4287 -76.4428 -116.51 63.5152 -76.0805 -117.194 64.5228 
-75.5651 -117.725 65.3445 -75.0635 -118.163 66.1541 -74.6275 -118.623 66.8228 
-77.7074 -116.169 62.0221 -78.5471 -115.253 61.4642 -77.1372 -116.885 62.8624 
-76.7681 -117.569 63.8607 -76.4244 -118.323 64.8213 -75.9364 -118.928 65.6758 
-75.415 -119.303 66.5663 -75.0086 -119.592 67.3938 -74.5918 -119.852 67.9638 
-77.9297 -117.13 62.3945 -78.3788 -116.287 61.6195 -77.6566 -117.796 63.3724 
-77.3324 -118.44 64.3375 -76.9019 -119.202 65.2525 -76.4207 -119.862 66.1505 
-75.9342 -120.261 67.0639 -75.5199 -120.497 67.9472 -75.138 -120.669 68.619 
-74.6781 -120.805 69.0346 -78.3302 -117.891 62.8676 -78.5078 -117.12 61.9711 
-78.2503 -118.551 63.916 -77.9912 -119.189 64.879 -77.523 -119.904 65.7846 
-77.0356 -120.536 66.7477 -76.5948 -120.965 67.6683 -76.1692 -121.289 68.4597 
-75.7534 -121.53 69.1232 -75.3122 -121.672 69.6059 -74.8326 -121.769 69.9114 
-77.4041 -109.131 58.8367 -78.1018 -109.419 58.9963 -78.273 -108.541 58.2927 
-79.1225 -108.724 58.5395 -79.1459 -107.72 57.974 -78.9197 -109.702 59.2925 
-80.0458 -107.899 58.2763 -79.9431 -106.899 57.6162 -79.9848 -109.002 58.9324 
-79.7097 -109.973 59.7993 -80.9634 -107.154 58.0178 -80.7224 -106.275 57.1232 
-80.9407 -108.334 58.6772 -80.75 -109.396 59.5171 -80.2996 -110.313 60.4599 
-81.9671 -106.494 57.7372 -81.5393 -105.827 56.5692 -82.0374 -107.627 58.5166 
-81.7169 -108.885 59.215 -81.3673 -109.77 60.2691 -80.6267 -110.87 61.0697 
-82.7218 -106.104 57.2526 -82.1904 -105.641 55.8612 -83.1044 -106.944 58.3027 
-82.8381 -108.254 58.9932 -82.3441 -109.382 59.9654 -81.8526 -110.279 61.0355 
-80.6226 -111.848 61.3924 -82.884 -106.297 56.4834 -82.4104 -105.847 55.0833 
-83.5794 -106.851 57.687 -83.7999 -107.866 58.5546 -83.3629 -109.17 59.5589 
-82.8883 -110.176 60.8198 -81.9719 -111.322 61.4624 -80.1901 -113.198 61.3581 
-82.6289 -106.914 55.8067 -82.2597 -106.341 54.5546 -83.3971 -107.445 56.9242 
-84.1423 -108.138 57.805 -84.1595 -109.271 58.8312 -83.7177 -110.446 60.2544 
-83.002 -111.405 61.3159 -81.4539 -112.72 61.394 -79.5344 -114.541 61.205 
-82.3483 -107.586 55.4564 -82.0179 -106.927 54.36 -83.0043 -108.213 56.4527 
-83.9266 -108.788 57.2347 -84.4273 -109.61 58.0772 -84.2143 -110.695 59.3558 
-83.6065 -111.672 60.6917 -82.4122 -112.65 61.252 -80.6004 -114.03 61.1338 
-79.0824 -115.666 61.2284 -82.0788 -107.986 54.956 -82.5571 -108.738 55.9589 
-82.3057 -109.179 55.4024 -82.9289 -109.963 56.2564 -82.5649 -110.445 55.5696 
-83.3774 -109.396 56.8105 -83.4205 -111.308 56.3148 -82.8664 -111.663 55.7058 
-83.8225 -110.698 57.0793 -84.2149 -110.051 57.5609 -83.9083 -112.518 56.4381 
-83.0012 -112.568 56.1499 -84.3343 -112.15 57.1784 -84.3815 -111.401 57.9177 
-84.3738 -110.896 58.5307 -83.6473 -113.232 56.8753 -82.4622 -113.323 56.8225 
-84.4168 -113.264 57.2856 -84.3748 -112.724 58.0454 -84.033 -112.047 58.8593 
-83.837 -111.816 59.7792 -82.4044 -114.083 57.5433 -81.5055 -114.634 57.5307 
-83.298 -113.958 57.7076 -83.6101 -113.725 58.202 -83.3287 -113.172 58.9446 
-83.0044 -112.836 59.828 -82.783 -112.78 60.7007 -81.2791 -115.864 58.4453 
-80.8592 -116.566 58.4334 -81.7515 -115.257 58.5639 -82.1274 -114.814 58.8699 
-82.1667 -114.441 59.3611 -81.9296 -114.196 59.9451 -81.5995 -114.114 60.5346 
-81.1635 -114.064 60.9554 -80.887 -117.999 59.7077 -80.5845 -118.355 59.6702 
-81.0742 -117.394 59.8281 -81.2307 -116.646 60.0592 -81.2914 -116.072 60.4067 
-81.1197 -115.885 60.7302 -80.7346 -115.863 60.9354 -80.2097 -115.753 61.0562 
-79.6212 -115.643 61.1321 -80.7939 -119.535 61.1824 -80.3809 -119.526 61.0543 
-81.0938 -119.325 61.3251 -81.3197 -118.742 61.4787 -81.3989 -117.983 61.7345 
-81.1546 -117.558 62.0109 -80.6323 -117.541 62.0724 -80.0358 -117.497 61.9375 
-79.45 -117.291 61.8205 -78.9211 -117.138 61.8339 -78.8551 -118.349 63.1368 
-79.2989 -118.509 63.0731 -79.4581 -119.499 64.7117 -79.8217 -118.753 63.1575 
-79.9748 -119.733 64.771 -80.0051 -120.578 66.4433 -80.4553 -118.893 63.4054 
-80.5432 -119.915 64.9301 -80.6561 -120.806 66.5958 -80.5602 -121.702 68.0774 
-81.2557 -118.878 63.5576 -81.3038 -119.925 65.1237 -81.3213 -120.894 66.7325 
-81.2649 -121.933 68.2697 -81.0315 -122.983 69.5537 -81.9176 -119.14 63.3668 
-82.1994 -120.052 65.0164 -82.0886 -120.96 66.697 -81.8753 -122.069 68.3495 
-81.6393 -123.255 69.8445 -81.3494 -124.29 71.1018 -81.9717 -119.835 63.0776 
-82.575 -120.607 64.6371 -82.6612 -121.357 66.3029 -82.3768 -122.381 68.1288 
-82.1414 -123.582 69.9156 -82.0798 -124.656 71.464 -82.1222 -125.381 72.7055 
-81.5298 -120.402 62.9494 -82.1142 -121.181 64.4257 -82.5034 -121.924 65.8704 
-82.4911 -122.91 67.6118 -82.377 -124.094 69.5801 -82.5876 -125.164 71.3969 
-83.0766 -125.86 72.8466 -83.4618 -126.155 73.9279 -80.9968 -120.508 62.8239 
-81.3491 -121.311 64.3664 -81.8054 -122.173 65.6939 -82.1184 -123.263 67.1358 
-82.2145 -124.507 68.9494 -82.5199 -125.635 70.8606 -83.2939 -126.381 72.4734 
-84.1138 -126.68 73.6875 -84.4268 -126.682 74.5839 -80.4845 -120.375 62.5868 
-80.6959 -121.157 64.1672 -81.0876 -122.084 65.5621 -81.5454 -123.261 66.8361 
-81.8267 -124.564 68.3138 -82.0663 -125.769 70.0594 -82.7053 -126.658 71.7392 
-83.684 -127.115 73.0875 -84.3948 -127.208 74.105 -84.4207 -127.12 74.8844 
-78.8444 -119.042 64.2868 -79.2942 -120.156 65.9415 -78.6505 -119.718 65.3718 
-79.7146 -121.28 67.6399 -78.9201 -120.87 67.0116 -78.2223 -120.437 66.3417 
-80.284 -122.566 69.1876 -79.426 -122.046 68.7139 -78.5949 -121.557 68.1017 
-77.786 -121.073 67.4142 -80.6727 -123.975 70.669 -79.9895 -123.433 70.2402 
-79.2269 -122.735 69.8378 -78.3378 -122.075 69.2561 -77.3995 -121.521 68.4594 
-81.1539 -125.131 72.3428 -80.3014 -124.776 71.7692 -79.5958 -124.146 71.2827 
-78.8204 -123.326 70.8031 -77.8846 -122.582 70.0588 -76.9384 -121.961 69.1903 
-82.3765 -125.844 73.9219 -81.059 -125.599 73.4588 -79.9178 -125.268 72.7607 
-79.0117 -124.661 72.1147 -78.1615 -123.875 71.4061 -77.2607 -123.135 70.5366 
-76.4165 -122.383 69.7448 -83.6799 -126.294 74.9341 -82.3181 -125.992 74.8817 
-80.7596 -125.785 74.3239 -79.4112 -125.47 73.5355 -78.3993 -124.871 72.7929 
-77.5313 -124.153 71.979 -76.6641 -123.443 71.063 -75.8988 -122.608 70.26 
-84.0428 -126.709 75.4063 -83.0288 -126.328 75.7254 -81.5762 -126.056 75.5829 
-80.045 -125.818 74.9384 -78.7916 -125.374 74.1673 -77.8551 -124.711 73.4667 
-76.9875 -124.088 72.5975 -76.123 -123.487 71.5575 -75.3922 -122.693 70.6342 
-83.5723 -127.368 75.4175 -82.9559 -126.935 75.9984 -82.1767 -127.767 75.8634 
-81.388 -127.354 76.4587 -80.7262 -128.313 76.0606 -81.8799 -126.531 76.3533 
-79.9177 -127.913 76.5297 -79.3498 -128.871 75.911 -80.3911 -126.89 76.7243 
-80.5125 -126.191 76.1317 -78.4633 -128.366 76.1623 -77.7635 -129.199 75.6158 
-78.9611 -127.302 76.5389 -79.198 -126.393 76.2877 -79.1355 -125.776 75.3836 
-76.7114 -128.464 75.7601 -76.0656 -129.175 75.3589 -77.3316 -127.535 76.0077 
-77.7181 -126.606 75.9667 -77.9562 -125.749 75.4824 -78.0295 -125.101 74.6436 
-75.1003 -128.313 75.407 -74.6843 -128.961 74.8884 -75.5712 -127.495 75.6378 
-75.9675 -126.663 75.6693 -76.4076 -125.773 75.399 -76.9122 -124.915 74.8373 
-77.1215 -124.392 73.9052 -74.0181 -128.139 74.6892 -73.6681 -128.678 74.0287 
-74.3216 -127.373 75.1497 -74.4906 -126.534 75.4724 -74.7719 -125.674 75.4232 
-75.4317 -124.851 74.8598 -76.0529 -124.26 73.9553 -76.2138 -123.9 72.7967 
-73.1388 -127.873 73.6928 -72.7839 -128.272 73.0959 -73.4921 -127.221 74.1977 
-73.6479 -126.38 74.7291 -73.6872 -125.462 75.0521 -74.0879 -124.682 74.6917 
-74.8097 -124.191 73.7331 -75.27 -123.825 72.6197 -75.3645 -123.337 71.5605 
-72.1896 -127.423 72.8809 -71.9383 -127.751 72.3815 -72.5671 -126.898 73.2346 
-72.9214 -126.182 73.5821 -73.0576 -125.304 73.9459 -73.2224 -124.472 73.9361 
-73.7345 -123.958 73.2823 -74.2962 -123.634 72.3092 -74.5635 -123.15 71.3902 
-74.6774 -122.465 70.6009 -83.8801 -127.679 74.5834 -82.9339 -128.061 75.0585 
-82.9363 -128.272 74.0682 -82.1295 -128.721 74.4011 -81.8754 -128.685 73.2477 
-81.6529 -128.513 75.3696 -81.1004 -129.026 73.3829 -80.7025 -128.593 72.2907 
-80.9678 -129.035 74.5577 -80.2589 -128.976 75.4103 -79.7707 -128.791 72.2878 
-79.4401 -128.003 71.4722 -79.8107 -129.146 73.4424 -79.4093 -129.251 74.5446 
-78.6811 -129.388 75.2231 -78.5491 -128.286 71.3361 -78.3452 -127.33 70.6853 
-78.4794 -128.957 72.2636 -78.1602 -129.252 73.4164 -77.7074 -129.508 74.3213 
-76.9833 -129.612 74.9474 -77.6533 -127.755 70.3915 -77.4829 -126.717 69.7696 
-77.5234 -128.595 71.1516 -77.1084 -129.102 72.1381 -76.7148 -129.446 73.0549 
-76.2186 -129.696 73.826 -75.4371 -129.549 74.5202 -76.8187 -127.031 69.4594 
-76.7299 -125.992 68.8387 -76.7193 -127.93 70.1246 -76.3708 -128.607 70.9051 
-75.955 -129.149 71.6522 -75.4909 -129.539 72.3319 -74.8281 -129.593 73.1078 
-74.1406 -129.256 73.7782 -76.0087 -126.102 68.6043 -76.0726 -125.223 67.9177 
-75.8312 -126.95 69.2476 -75.5773 -127.724 69.8493 -75.2671 -128.475 70.392 
-74.7859 -129.084 70.9057 -74.1139 -129.315 71.555 -73.491 -129.171 72.3123 
-73.0778 -128.8 72.8715 -75.3631 -125.262 67.6908 -75.5174 -124.611 66.9323 
[...]
CELL_DATA 2000
SCALARS Distance double
LOOKUP_TABLE default
145.794 146.417 146.221 146.561 147.131 146.893 147.23 147.095 147.592 
147.871 147.62 147.964 147.813 148.344 148.258 148.879 148.653 148.382 
148.763 148.596 149.198 149.097 149.798 149.666 150.344 149.52 149.23 
149.679 149.483 150.18 150.061 150.862 150.699 151.447 151.224 151.929 
150.433 150.174 150.701 150.496 151.257 151.137 152.015 151.859 152.657 
152.409 153.129 152.873 153.575 151.317 151.14 151.764 151.583 152.373 
152.252 153.15 153.033 153.866 153.646 154.362 154.094 154.771 154.508 
155.123 152.163 152.073 152.825 152.693 153.523 153.384 154.263 154.151 
154.996 154.828 155.558 155.311 155.967 155.696 156.294 155.985 156.479 
153.022 152.983 153.846 153.778 154.65 154.527 155.373 155.248 156.069 
155.929 156.669 156.465 157.117 156.865 157.456 157.156 157.663 157.296 
157.716 145.497 145.311 145.638 146.132 145.107 145.476 146.013 146.341 
146.865 144.844 145.267 145.862 146.239 146.821 147.119 147.637 144.618 
145.043 145.718 146.114 146.775 147.105 147.689 147.922 148.429 144.503 
144.909 145.666 146.049 146.769 147.099 147.741 148.001 148.551 148.744 
149.259 144.443 144.852 145.644 146.051 146.806 147.142 147.818 148.089 
148.699 148.9 149.428 149.593 150.113 144.399 144.799 145.591 146.027 
146.826 147.199 147.952 148.237 148.958 149.149 149.758 149.835 150.299 
150.413 150.91 144.432 144.784 145.595 146.001 146.856 147.246 148.09 
148.425 149.26 149.509 150.222 150.28 150.721 150.663 150.994 151.127 
151.624 144.598 144.892 145.73 146.08 146.963 147.333 148.201 148.569 
149.406 149.763 150.491 150.702 151.137 151.098 151.291 151.244 151.542 
151.789 152.366 145.018 146.141 145.764 146.182 147.323 146.95 147.38 
146.99 147.421 148.51 148.17 148.656 148.24 148.667 148.238 148.65 
149.596 149.381 149.957 149.572 149.976 149.486 149.823 149.414 149.803 
150.258 150.275 150.85 150.746 151.086 150.699 150.832 150.445 150.687 
150.454 150.785 150.746 150.701 151.122 151.254 151.537 151.471 151.459 
151.206 151.213 151.08 151.273 151.211 151.352 151.838 151.376 151.707 
151.498 151.799 151.706 151.833 151.651 151.69 151.503 151.633 151.535 
151.658 151.536 151.514 153.522 152.856 153.282 152.595 152.991 152.405 
152.765 152.288 152.619 152.203 152.511 152.127 152.36 151.988 152.102 
151.75 151.824 155.093 154.618 155.166 154.496 154.989 154.171 154.625 
153.807 154.279 153.571 154.045 153.403 153.78 153.122 153.377 152.73 
152.961 152.409 152.703 153.6 153.89 154.234 155.312 154.348 154.63 
155.735 156.074 157.177 154.825 155.137 156.238 156.554 157.684 157.969 
159.023 155.197 155.6 156.727 157.053 158.159 158.474 159.568 159.831 
160.859 155.552 155.995 157.206 157.536 158.63 158.928 160.011 160.336 
161.42 161.679 162.689 155.955 156.409 157.66 158.014 159.097 159.383 
160.427 160.757 161.876 162.214 163.341 163.557 164.583 156.238 156.749 
157.893 158.35 159.343 159.736 160.707 161.112 162.208 162.642 163.839 
164.2 165.347 165.514 166.476 156.228 156.807 157.757 158.331 159.195 
159.75 160.645 161.21 162.238 162.831 163.979 164.553 165.693 166.127 
167.09 167.273 167.955 155.969 156.556 157.347 157.968 158.751 159.403 
160.266 160.953 161.922 162.641 163.674 164.417 165.436 166.137 167.021 
167.54 168.166 168.398 168.734 153.829 155.535 154.687 154.743 157.332 
156.451 156.462 155.602 155.579 159.132 158.231 158.204 157.316 157.265 
156.388 156.306 160.985 160.066 160.055 159.094 159.044 158.104 158.026 
157.105 156.993 162.829 161.945 161.985 161.014 160.976 159.968 159.875 
158.873 158.721 157.761 157.577 164.677 163.791 163.839 162.917 162.873 
161.904 161.768 160.748 160.523 159.498 159.234 158.272 158.015 166.513 
165.646 165.637 164.716 164.611 163.69 163.504 162.551 162.269 161.262 
160.925 159.922 159.591 158.647 158.338 167.97 167.325 167.237 166.417 
166.198 165.315 165.028 164.138 163.8 162.884 162.499 161.547 161.149 
160.196 159.806 158.892 158.516 168.742 168.421 168.272 167.732 167.425 
166.712 166.309 165.509 165.068 164.248 163.799 162.966 162.516 161.651 
161.197 160.306 159.852 158.976 158.544 168.895 168.8 168.773 168.47 
168.594 168.598 168.314 168.214 167.708 168.349 168.371 168.06 167.999 
167.519 167.328 166.642 167.877 168.023 167.659 167.675 167.142 167.047 
166.365 166.152 165.377 167.062 167.343 166.912 167.082 166.491 166.536 
165.827 165.752 164.994 164.833 164.075 166.091 166.4 165.937 166.168 
165.582 165.735 165.053 165.101 164.376 164.345 163.633 163.524 162.798 
165.091 165.417 164.994 165.205 164.668 164.814 164.195 164.282 163.616 
163.664 163.006 163.008 162.335 162.235 161.499 164.015 164.401 164.024 
164.29 163.789 163.955 163.356 163.451 162.798 162.878 162.249 162.331 
161.707 161.71 161.011 160.9 160.145 162.898 163.301 162.933 163.271 
162.785 163.037 162.442 162.594 161.922 162.031 161.385 161.523 160.928 
161.03 160.377 160.355 159.617 159.518 158.792 168.989 168.931 169.006 
168.939 168.603 168.881 168.925 168.908 168.766 167.832 168.399 168.532 
168.782 168.696 168.697 168.504 166.585 167.385 167.55 168.131 168.09 
168.406 168.235 168.331 168.03 165.199 166.028 166.235 166.956 166.985 
167.538 167.431 167.812 167.589 167.711 167.276 163.906 164.7 164.963 
165.669 165.77 166.364 166.331 166.846 166.722 167.084 166.779 166.849 
166.326 162.596 163.415 163.659 164.413 164.507 165.158 165.131 165.711 
165.605 166.102 165.862 166.177 165.744 165.823 165.261 161.241 162.042 
162.207 163.006 163.048 163.796 163.752 164.436 164.319 164.907 164.659 
165.116 164.718 165.031 164.53 164.682 164.125 159.98 160.677 160.782 
161.511 161.535 162.273 162.256 162.987 162.917 163.564 163.345 163.851 
163.476 163.885 163.45 163.782 163.319 163.511 162.998 156.018 156.457 
156.601 157.342 157.013 157.105 157.901 157.995 158.783 157.636 157.732 
158.59 158.667 159.548 159.57 160.402 158.21 158.349 159.228 159.373 
160.32 160.418 161.347 161.309 162.142 158.729 158.905 159.798 159.984 
160.976 161.167 162.181 162.264 163.181 163.098 163.91 159.105 159.368 
160.278 160.532 161.554 161.812 162.892 163.071 164.058 164.087 164.956 
164.862 165.644 159.32 159.649 160.543 160.908 161.904 162.295 163.367 
163.707 164.723 164.896 165.773 165.804 166.593 166.527 167.202 159.509 
159.831 160.711 161.093 162.041 162.486 163.481 163.971 164.963 165.376 
166.262 166.486 167.231 167.307 167.929 167.891 168.335 159.679 160.01 
160.876 161.254 162.173 162.578 163.492 163.949 164.863 165.387 166.28 
166.743 167.494 167.759 168.301 168.396 168.748 168.726 168.892 155.236 
154.177 155.027 155.666 153.088 153.945 154.605 155.476 156.176 152.042 
152.852 153.491 154.387 155.107 156.024 156.766 151.085 151.828 152.416 
153.27 153.961 154.903 155.658 156.604 157.337 150.172 150.877 151.417 
152.214 152.848 153.74 154.462 155.438 156.202 157.154 157.853 149.273 
149.942 150.433 151.203 151.795 152.642 153.319 154.247 154.999 155.978 
156.712 157.634 158.247 148.466 149.055 149.489 150.199 150.753 151.578 
152.241 153.135 153.869 154.805 155.545 156.473 157.121 157.973 158.501 
147.784 148.296 148.687 149.292 149.791 150.542 151.179 152.052 152.772 
153.694 154.421 155.335 156.002 156.861 157.431 158.219 158.716 147.176 
147.648 148.01 148.537 148.978 149.626 150.2 151 151.679 152.577 
153.277 154.198 154.861 155.751 156.346 157.167 157.686 158.446 158.908 
146.957 146.905 147.211 147.792 146.928 147.2 147.828 148.114 148.772 
147.07 147.299 147.972 148.228 148.965 149.222 150.002 147.293 147.509 
148.237 148.471 149.276 149.514 150.365 150.595 151.472 147.597 147.792 
148.58 148.81 149.679 149.912 150.809 151.024 151.927 152.145 153.052 
148.026 148.177 148.999 149.208 150.12 150.361 151.297 151.511 152.423 
152.625 153.539 153.748 154.635 148.523 148.665 149.489 149.673 150.576 
150.815 151.756 151.996 152.912 153.124 154.027 154.24 155.137 155.323 
156.143 148.986 149.158 149.981 150.17 151.044 151.267 152.171 152.421 
153.316 153.567 154.452 154.701 155.586 155.809 156.641 156.789 157.51 
149.387 149.587 150.405 150.626 151.485 151.714 152.58 152.813 153.664 
153.917 154.778 155.063 155.936 156.211 157.042 157.249 157.983 158.097 
158.735 149.855 150.951 150.562 150.911 152.173 151.733 152.127 151.694 
152.046 153.563 153.037 153.453 152.982 153.372 152.868 153.172 155.157 
154.529 154.928 154.377 154.776 154.24 154.556 153.991 154.249 156.902 
156.216 156.602 155.941 156.332 155.717 156.069 155.443 155.735 155.107 
155.382 158.64 157.992 158.387 157.683 158.075 157.385 157.793 157.093 
157.454 156.723 157.026 156.314 156.583 160.166 159.655 160.047 159.427 
159.812 159.164 159.596 158.915 159.304 158.544 158.821 158.034 158.243 
157.505 157.688 161.388 161.04 161.441 160.96 161.332 160.805 161.223 
160.662 161.032 160.355 160.563 159.79 159.896 159.136 159.232 158.522 
158.611 162.355 162.142 162.594 162.24 162.634 162.207 162.613 162.157 
162.514 161.95 162.134 161.424 161.477 160.722 160.762 160.032 160.075 
159.363 159.373 149.404 149.059 149.65 150.489 148.707 149.342 150.261 
150.819 151.72 148.362 149.038 150.07 150.658 151.655 152.16 153.138 
148.078 148.757 149.864 150.501 151.585 152.151 153.211 153.694 154.747 
147.862 148.52 149.618 150.282 151.358 152.024 153.121 153.743 154.853 
155.374 156.47 147.685 148.292 149.334 150.001 151.023 151.716 152.795 
153.535 154.697 155.394 156.561 157.117 158.196 147.628 148.104 149.078 
149.701 150.725 151.381 152.463 153.185 154.395 155.168 156.416 157.113 
158.255 158.783 159.738 147.775 148.093 148.989 149.498 150.529 151.135 
152.241 152.914 154.137 154.897 156.179 156.926 158.09 158.723 159.688 
160.175 160.952 148.037 148.278 149.094 149.487 150.461 150.994 152.062 
152.703 153.866 154.627 155.859 156.651 157.779 158.471 159.395 159.979 
160.743 161.228 161.877 148.657 147.392 148.093 148.249 146.146 146.797 
146.875 147.626 147.802 144.951 145.568 145.557 146.214 146.264 147.102 
147.331 143.687 144.359 144.329 144.911 144.812 145.509 145.602 146.587 
146.939 142.353 143.05 143.093 143.7 143.582 144.112 144.059 144.853 
145.143 146.244 146.725 141.25 141.786 141.892 142.502 142.536 143.009 
142.988 143.509 143.755 144.596 145.133 146.16 146.689 140.584 140.886 
140.971 141.441 141.591 142.076 142.225 142.664 142.965 143.535 144.1 
144.856 145.491 146.296 146.816 140.198 140.38 140.426 140.716 140.859 
141.264 141.503 141.979 142.352 142.898 143.447 144.078 144.714 145.37 
145.949 146.589 147.082 139.85 140.025 140.066 140.286 140.418 140.701 
140.946 141.341 141.727 142.261 142.769 143.408 143.973 144.648 145.195 
145.84 146.333 146.936 147.387 139.636 139.461 139.644 139.9 139.591 
139.614 139.936 140.039 140.337 140.119 139.954 140.308 140.267 140.627 
140.595 140.919 140.852 140.599 140.923 140.798 141.192 141.063 141.408 
141.298 141.708 141.642 141.337 141.596 141.436 141.832 141.714 142.089 
141.913 142.291 142.196 142.723 142.551 142.162 142.376 142.116 142.487 
142.363 142.796 142.64 143.009 142.836 143.289 143.27 143.881 143.527 
143.122 143.316 142.959 143.272 143.06 143.506 143.366 143.785 143.584 
143.982 143.86 144.417 144.456 145.096 144.397 144.063 144.25 143.908 
144.163 143.884 144.265 144.1 144.552 144.378 144.796 144.601 145.091 
145.028 145.648 145.677 146.269 145.131 144.86 145.061 144.785 145.035 
144.755 145.083 144.872 145.311 145.157 145.626 145.44 145.907 145.753 
146.301 146.258 146.845 146.827 147.343 145.58 146.376 145.822 145.573 
147.437 146.755 146.507 145.88 145.618 148.716 147.94 147.692 146.941 
146.666 145.97 145.715 150.136 149.295 149.048 148.221 147.954 147.149 
146.895 146.156 145.963 151.71 150.796 150.563 149.656 149.413 148.538 
148.307 147.468 147.257 146.49 146.308 153.372 152.45 152.244 151.27 
151.031 150.081 149.854 148.954 148.72 147.861 147.62 146.833 146.619 
154.894 154.076 153.87 152.959 152.699 151.745 151.486 150.544 150.276 
149.351 149.058 148.184 147.929 147.15 146.986 156.202 155.479 155.255 
154.465 154.194 153.339 153.071 152.172 151.905 150.951 150.645 149.676 
149.388 148.514 148.323 147.575 147.475 157.427 156.73 156.524 155.773 
155.528 154.74 154.504 153.69 153.472 152.587 152.326 151.339 151.037 
150.055 149.81 148.952 148.794 148.066 147.951 148.405 149.337 149.063 
149.511 150.434 150.119 150.657 150.324 150.88 151.709 151.35 151.945 
151.567 152.162 151.809 152.457 153.006 152.69 153.313 152.928 153.533 
153.145 153.827 153.492 154.26 154.134 153.928 154.586 154.288 154.915 
154.546 155.242 154.911 155.736 155.421 156.258 155.148 154.995 155.71 
155.507 156.196 155.903 156.609 156.318 157.125 156.875 157.706 157.406 
158.135 156.172 156.027 156.808 156.643 157.401 157.157 157.873 157.619 
158.376 158.173 158.943 158.726 159.406 159.115 159.684 157.177 157.07 
157.889 157.771 158.568 158.362 159.067 158.821 159.526 159.334 160.068 
159.879 160.544 160.288 160.848 160.535 161.011 158.08 158.036 158.847 
158.807 159.599 159.477 160.153 159.948 160.585 160.408 161.099 160.95 
161.62 161.403 161.972 161.674 162.149 161.799 162.18 143.862 143.712 
143.436 142.802 143.676 143.342 142.66 142.396 141.761 143.696 143.329 
142.605 142.27 141.529 141.284 140.625 143.769 143.371 142.667 142.267 
141.55 141.146 140.461 140.184 139.718 143.958 143.515 142.878 142.428 
141.834 141.356 140.814 140.323 139.926 139.597 139.475 144.265 143.804 
143.217 142.734 142.191 141.742 141.299 140.849 140.491 140.059 139.846 
139.591 139.58 144.583 144.163 143.608 143.122 142.556 142.107 141.629 
141.27 140.859 140.529 140.146 139.895 139.642 139.582 139.515 144.84 
144.482 143.985 143.531 142.981 142.491 141.976 141.563 141.117 140.772 
140.325 140.028 139.641 139.506 139.323 139.392 139.401 145.082 144.753 
144.339 143.929 143.451 142.957 142.461 141.97 141.54 141.1 140.718 
140.288 139.942 139.592 139.406 139.272 139.304 139.364 139.514 143.794 
142.7 143.266 143.387 141.701 142.234 142.329 142.916 143.16 140.656 
141.254 141.451 141.993 142.251 142.832 143.265 139.757 140.255 140.594 
141.192 141.566 142.083 142.508 143.109 143.715 139.453 139.615 139.967 
140.448 140.96 141.48 141.945 142.456 142.994 143.651 144.307 139.582 
139.573 139.829 140.061 140.581 140.999 141.551 141.977 142.491 142.997 
143.583 144.235 144.836 139.624 139.694 139.889 140.033 140.444 140.76 
141.327 141.7 142.254 142.618 143.162 143.621 144.198 144.762 145.305 
139.575 139.675 139.882 140.025 140.35 140.625 141.124 141.511 142.076 
142.447 142.973 143.324 143.845 144.26 144.8 145.281 145.791 139.671 
139.695 139.922 140.009 140.313 140.511 140.953 141.292 141.829 142.227 
142.745 143.121 143.598 143.97 144.455 144.869 145.37 145.81 146.28 
144.515 144.149 144.749 145.629 143.93 144.447 145.354 145.936 146.822 
144.025 144.361 145.265 145.741 146.631 147.13 147.972 144.485 144.639 
145.517 145.806 146.694 147.043 147.836 148.266 149.019 145.079 145.194 
146.025 146.193 147.043 147.254 148.025 148.258 148.911 149.242 149.802 
145.542 145.713 146.47 146.667 147.429 147.637 148.371 148.548 149.178 
149.308 149.833 149.996 150.496 145.909 146.071 146.743 146.971 147.646 
147.907 148.578 148.833 149.464 149.631 150.195 150.267 150.852 150.919 
151.631 146.319 146.412 147.015 147.184 147.809 148.042 148.679 148.953 
149.589 149.844 150.46 150.644 151.288 151.424 152.178 152.318 153.192 
146.761 146.818 147.37 147.473 148.057 148.223 148.85 149.073 149.726 
149.968 150.622 150.86 151.538 151.783 152.522 152.782 153.58 153.85 
154.655 148.651 148.237 148.102 147.408 147.776 147.662 146.96 146.841 
146.174 147.284 147.175 146.466 146.365 145.674 145.602 144.958 146.874 
146.711 146.004 145.868 145.161 145.069 144.371 144.331 143.653 146.612 
146.388 145.697 145.475 144.783 144.605 143.914 143.772 143.062 142.983 
142.32 146.434 146.192 145.526 145.255 144.575 144.324 143.68 143.448 
142.798 142.554 141.915 141.76 141.257 146.325 146.059 145.428 145.136 
144.476 144.186 143.565 143.309 142.726 142.448 141.863 141.575 141.081 
140.919 140.61 146.327 146.019 145.428 145.102 144.496 144.163 143.578 
143.27 142.721 142.432 141.885 141.595 141.091 140.866 140.509 140.416 
140.208 146.404 146.081 145.516 145.171 144.611 144.263 143.734 143.384 
142.871 142.516 141.992 141.649 141.147 140.879 140.487 140.342 140.082 
140.04 139.856 
POINT_DATA 1002
SCALARS Distance double
LOOKUP_TABLE default
146.051 145.385 145.948 146.667 146.641 146.969 147.374 147.382 147.654 
148.155 148.109 148.128 148.415 148.968 149.517 148.915 148.924 149.272 
149.913 150.516 151.002 149.86 149.786 150.27 151.005 151.673 152.157 
152.632 150.885 150.637 151.364 152.141 152.902 153.4 153.834 154.262 
151.907 151.416 152.506 153.253 154.058 154.639 155.051 155.431 155.677 
152.901 152.176 153.669 154.395 155.144 155.79 156.246 156.607 156.847 
156.914 153.875 153.016 154.765 155.518 156.208 156.857 157.362 157.744 
158.017 158.127 158.109 145.16 145.81 144.966 145.657 144.701 146.576 
145.444 144.389 146.486 147.404 145.298 144.168 146.414 147.427 148.24 
145.264 144.08 146.438 147.459 148.341 149.075 145.215 144.037 146.454 
147.531 148.469 149.289 149.928 145.148 144.015 146.413 147.614 148.716 
149.693 150.294 150.688 145.193 144.091 146.445 147.712 148.947 150.121 
150.856 151.019 151.287 145.395 144.311 146.603 147.843 149.051 150.224 
151.133 151.426 151.436 151.91 145.349 146.55 146.525 147.775 147.671 
147.818 149.066 148.795 149.128 149.055 150.282 149.711 150.523 150.278 
150.138 150.833 150.232 151.436 151.299 150.923 151.004 151.042 150.968 
151.497 151.681 151.401 151.32 151.503 152.123 152.429 151.962 151.948 
151.879 151.796 151.791 151.688 154.021 154.121 153.706 153.311 153.046 
152.941 152.803 152.494 152.134 155.715 155.446 155.766 155.5 155.067 
154.728 154.469 154.073 153.568 153.186 154.598 154.92 156.42 155.405 
156.884 158.231 155.936 157.375 158.795 160.046 156.398 157.85 159.255 
160.655 161.876 156.861 158.362 159.681 161.099 162.509 163.686 157.299 
158.821 160.11 161.495 163.036 164.479 165.585 157.45 158.932 160.28 
161.736 163.398 165.085 166.479 167.364 157.207 158.615 160.041 161.617 
163.363 165.178 166.817 167.976 168.526 156.75 158.086 159.556 161.204 
162.947 164.714 166.419 167.829 168.694 168.983 155.589 157.346 156.454 
159.12 158.149 157.193 161.034 160.014 158.973 157.915 162.927 161.996 
160.92 159.735 158.515 164.763 163.828 162.796 161.589 160.248 158.942 
166.593 165.56 164.449 163.268 161.952 160.577 159.255 168.02 167.1 
165.938 164.7 163.433 162.114 160.759 159.406 168.719 168.077 167.1 
165.893 164.613 163.353 162.081 160.755 159.397 168.985 168.618 168.802 
168.379 168.606 167.951 168.132 168.313 167.673 166.936 167.628 167.694 
167.223 166.533 165.628 166.713 166.784 166.4 165.854 165.096 164.259 
165.706 165.785 165.395 164.954 164.355 163.682 162.961 164.762 164.727 
164.515 164.094 163.541 162.957 162.384 161.663 163.717 163.604 163.596 
163.258 162.718 162.137 161.655 161.087 160.286 162.584 162.507 162.501 
162.26 161.809 161.239 160.781 160.351 159.694 158.872 169.002 169.034 
168.76 168.853 168.201 168.893 168.146 167.152 168.602 168.597 166.858 
165.745 167.649 168.023 168.088 165.483 164.371 166.366 166.945 167.329 
167.354 164.247 163.1 165.161 165.785 166.268 166.573 166.413 162.899 
161.79 163.833 164.53 165.081 165.467 165.549 165.275 161.438 160.496 
162.286 163.026 163.701 164.177 164.335 164.273 164.046 160.098 159.347 
160.811 161.508 162.235 162.817 163.044 163.051 163.028 162.885 155.862 
157.193 156.319 157.805 156.917 158.71 158.477 157.516 159.489 160.447 
159.055 158.063 160.154 161.319 162.277 159.598 158.528 160.744 162.03 
163.197 164.072 159.98 158.808 161.257 162.662 163.986 164.994 165.803 
160.162 158.992 161.489 162.967 164.474 165.71 166.618 167.361 160.342 
159.195 161.63 163.005 164.473 165.944 167.132 167.945 168.485 154.403 
154.82 153.312 153.706 152.25 155.293 152.606 151.276 154.167 155.866 
151.605 150.379 153.042 154.679 156.432 150.65 149.49 152.001 153.505 
155.206 156.97 149.688 148.645 150.963 152.424 154.032 155.762 157.407 
148.834 147.922 149.95 151.351 152.952 154.624 156.252 157.706 148.136 
147.298 149.096 150.33 151.858 153.51 155.131 156.626 157.962 147.512 