# vtk DataFile Version 4.0
vtk output
ASCII
DATASET POLYDATA
POINTS 1002 float
-75.3148 -106.215 57.7555 -75.7283 -105.266 56.6787 -76.3926 -105.564 56.9846 
-75.9375 -106.554 58.1555 -77.0784 -105.886 57.3771 -74.8687 -107.568 58.822 
-76.4961 -107.01 58.5066 -77.7307 -106.261 57.8436 -75.4211 -108.192 59.1152 
-74.4425 -109.544 59.6113 -76.8205 -107.862 58.6657 -78.1547 -107.04 58.2748 
-75.7787 -109.14 59.2317 -74.8859 -110.583 59.8091 -74.0959 -111.755 60.4463 
-76.7658 -109.4 58.5766 -78.0882 -108.456 58.4412 -75.8201 -110.645 59.1357 
-75.143 -111.925 59.9799 -74.4861 -112.961 60.856 -73.8559 -113.834 61.6157 
-76.4977 -111.231 58.3923 -77.6441 -110.124 58.2575 -75.7064 -112.484 59.0339 
-75.2493 -113.555 60.1364 -74.8538 -114.328 61.3171 -74.3062 -115.124 62.1657 
-73.7104 -116.114 62.7254 -76.4365 -112.75 58.3814 -77.2928 -111.637 58.0227 
-75.848 -113.98 59.2144 -75.4556 -115.071 60.4083 -75.1796 -115.844 61.6584 
-74.8191 -116.564 62.6464 -74.2647 -117.521 63.2563 -73.7029 -118.489 63.7595 
-76.7202 -114.03 58.7304 -77.292 -113.027 58.1436 -76.357 -115.077 59.7133 
-76.0046 -116.148 60.9134 -75.6267 -117.162 62.0237 -75.2994 -118.054 63.0114 
-74.8951 -118.889 63.8707 -74.3779 -119.682 64.538 -73.9024 -120.3 65.1228 
-77.2009 -115.277 59.4373 -77.5892 -114.353 58.7117 -76.9748 -116.172 60.4177 
-76.7438 -117.085 61.5791 -76.3599 -118.105 62.6365 -75.952 -119.174 63.5589 
-75.5981 -120.052 64.5442 -75.1929 -120.658 65.4727 -74.7256 -121.139 66.1418 
-74.2808 -121.552 66.6212 -77.7845 -116.364 60.3151 -78.0663 -115.51 59.5155 
-77.5874 -117.218 61.2277 -77.4348 -118.066 62.302 -77.1818 -118.949 63.3961 
-76.8142 -119.925 64.3625 -76.4528 -120.853 65.3185 -76.1101 -121.482 66.2994 
-75.7046 -121.876 67.0785 -75.226 -122.256 67.5622 -74.7396 -122.63 67.8858 
-76.5595 -104.552 55.9202 -77.3568 -104.932 56.1721 -77.4582 -103.803 55.2666 
-78.3863 -104.208 55.5621 -78.289 -103.136 54.5209 -78.1997 -105.313 56.5852 
-79.293 -103.484 54.9803 -78.9681 -102.709 53.4224 -79.3577 -104.662 56.0532 
-79.0796 -105.699 57.2865 -80.0566 -102.977 54.069 -79.6685 -102.346 52.2557 
-80.2864 -104.016 55.534 -80.3744 -105.203 56.9178 -79.6952 -106.468 58.1253 
-80.8727 -102.544 53.0153 -80.5228 -101.753 51.4813 -80.9963 -103.548 54.6146 
-81.2114 -104.822 56.3104 -81.0503 -106.14 57.9506 -79.6075 -107.826 58.5583 
-81.6437 -102.072 52.1341 -81.2874 -101.139 50.7976 -81.6581 -103.169 53.5303 
-81.6631 -104.578 55.2215 -81.7965 -106.058 57.2618 -80.9447 -107.527 58.487 
-78.9617 -109.409 58.3244 -82.0159 -101.887 51.1917 -81.6728 -100.957 49.7676 
-82.1087 -102.985 52.5909 -82.0452 -104.427 54.1033 -82.1572 -106.084 56.1337 
-81.7871 -107.514 57.8944 -80.2141 -108.977 58.2449 -78.3423 -110.911 57.8911 
-81.9509 -102.158 50.1052 -81.6952 -101.325 48.6705 -82.1228 -103.182 51.6832 
-82.276 -104.492 53.2226 -82.484 -106.113 55.0444 -82.2979 -107.575 56.9405 
-81.1007 -108.783 57.8162 -79.3522 -110.345 57.7061 -78.0772 -112.374 57.8379 
-81.7346 -102.726 49.2069 -81.5589 -102.069 47.9504 -81.8631 -103.623 50.8131 
-82.1623 -104.766 52.4554 -82.6091 -106.184 54.1313 -82.6161 -107.584 55.8891 
-81.6242 -108.717 57.0707 -80.0394 -109.999 57.319 -78.7704 -111.808 57.4824 
-78.1793 -113.806 58.2831 -81.5551 -103.33 48.2694 -81.6313 -104.01 49.7002 
-81.6134 -104.727 48.8907 -81.6532 -105.486 50.4438 -81.7004 -106.316 49.6949 
-81.7991 -104.989 51.4356 -81.7188 -107.213 51.2618 -81.6117 -108.061 50.6281 
-81.8515 -106.54 52.1811 -82.2957 -106.241 53.1518 -81.6133 -108.988 52.0946 
-81.3239 -109.731 51.6392 -81.7198 -108.206 52.8859 -82.1119 -107.72 53.7865 
-82.5706 -107.582 54.8092 -81.4189 -110.641 52.913 -81.051 -111.361 52.6468 
-81.3999 -109.841 53.5597 -81.4069 -109.234 54.2983 -81.6425 -108.931 55.1387 
-81.775 -108.792 56.1405 -81.2465 -112.479 53.7889 -80.7877 -113.147 53.759 
-81.2435 -111.627 54.2991 -80.9187 -110.961 54.9487 -80.5981 -110.62 55.4788 
-80.386 -110.359 56.0578 -80.2395 -110.107 56.7325 -80.9192 -114.53 55.0134 
-80.3681 -114.876 55.1476 -81.1421 -113.818 55.3411 -80.9737 -113.058 55.9663 
-80.4967 -112.657 56.4096 -79.8651 -112.467 56.5828 -79.3525 -112.178 56.7862 
-79.0589 -111.896 57.1323 -80.4373 -116.309 56.6367 -79.8859 -116.294 56.7061 
-80.8666 -116.032 56.8455 -81.0611 -115.408 57.3596 -80.9196 -114.804 57.8485 
-80.3708 -114.524 57.9968 -79.6252 -114.377 57.9238 -79.033 -114.141 57.9437 
-78.6109 -113.913 58.114 -80.0604 -117.654 58.2867 -79.5611 -117.507 58.1702 
-80.5881 -117.752 58.5096 -81.0375 -117.532 58.8829 -81.2387 -116.949 59.3089 
-81.0105 -116.371 59.5869 -80.388 -116.108 59.61 -79.6872 -116.003 59.5152 
-79.1108 -115.839 59.492 -78.5907 -115.651 59.5254 -78.5295 -117.008 60.9301 
-79.1326 -117.202 61.0268 -79.1168 -118.452 62.3948 -79.7176 -117.407 61.0931 
-79.7142 -118.768 62.5172 -79.6555 -120.128 63.9262 -80.3555 -117.532 61.1733 
-80.2992 -119.062 62.6424 -80.2112 -120.632 64.1112 -80.1902 -122.007 65.7455 
-81.0545 -117.754 61.147 -80.9879 -119.267 62.6934 -80.8626 -120.962 64.3136 
-80.8653 -122.47 66.0694 -81.1128 -123.5 67.8447 -81.5132 -118.343 60.9059 
-81.645 -119.693 62.4659 -81.5878 -121.189 64.2892 -81.6524 -122.666 66.2575 
-82.0264 -123.718 68.162 -82.399 -124.334 69.9294 -81.4502 -118.996 60.5714 
-81.8625 -120.335 62.0635 -82.0046 -121.641 63.8757 -82.1886 -122.968 66.0361 
-82.7501 -123.98 68.0831 -83.3006 -124.536 69.9827 -83.3736 -124.932 71.7459 
-80.9546 -119.214 60.2487 -81.4988 -120.66 61.7271 -81.8528 -122.054 63.349 
-82.1599 -123.463 65.4569 -82.8531 -124.607 67.5989 -83.6746 -125.119 69.585 
-84.0574 -125.334 71.5416 -83.9228 -125.636 73.2162 -80.3131 -119.05 59.9401 
-80.8126 -120.565 61.4337 -81.2866 -122.109 62.9118 -81.7131 -123.687 64.8088 
-82.4267 -125.136 66.9263 -83.3432 -125.922 68.94 -84.0566 -126.054 71.0056 
-84.4233 -126.145 72.9222 -84.4015 -126.351 74.2973 -79.7353 -118.847 59.6579 
-80.1199 -120.368 61.1274 -80.5882 -121.975 62.5351 -81.0841 -123.582 64.1983 
-81.7947 -125.131 66.1808 -82.6619 -126.259 68.1798 -83.4063 -126.666 70.2396 
-84.0573 -126.713 72.3234 -84.5804 -126.808 73.942 -84.6342 -126.869 74.9356 
-78.3221 -117.873 61.8471 -78.942 -119.426 63.4666 -78.1511 -118.814 62.8939 
-79.5224 -121.233 65.2586 -78.7623 -120.516 64.7085 -77.9721 -119.769 64.0748 
-80.2626 -123.013 67.2876 -79.4029 -122.352 66.6143 -78.5316 -121.588 65.9337 
-77.6895 -120.707 65.2002 -81.4387 -124.172 69.5288 -80.3734 -123.857 68.7076 
-79.2172 -123.375 67.7845 -78.1998 -122.573 66.9969 -77.3315 -121.638 66.2024 
-82.5295 -124.773 71.7571 -81.5789 -124.58 71.1879 -80.3213 -124.453 70.1005 
-78.9085 -124.163 68.9258 -77.8372 -123.371 67.9759 -76.9895 -122.369 67.1539 
-83.1041 -125.345 73.5594 -82.3194 -124.919 73.5511 -81.4415 -124.607 72.9112 
-80.0203 -124.657 71.6021 -78.5234 -124.538 70.0896 -77.495 -123.803 68.8733 
-76.6266 -122.788 67.9665 -83.5851 -126.009 74.7643 -82.6494 -125.41 75.1552 
-81.9826 -124.682 75.1916 -81.0251 -124.377 74.4393 -79.4687 -124.561 72.8881 
-78.0566 -124.554 71.0877 -77.0736 -123.984 69.6106 -76.1502 -123.112 68.5297 
-84.0103 -126.531 75.4661 -82.9381 -125.966 76.0629 -82.0994 -125.178 76.5172 
-81.4409 -124.498 76.354 -80.2549 -124.301 75.3569 -78.7028 -124.46 73.7136 
-77.4659 -124.504 71.8196 -76.5116 -124.149 70.1496 -75.5842 -123.453 68.895 
-84.0185 -126.935 75.5755 -83.1476 -126.493 76.3619 -82.4021 -126.813 76.1744 
-81.5217 -126.481 77.273 -80.4882 -127.017 76.7163 -82.069 -125.926 77.1873 
-80.0035 -126.933 77.661 -79.3883 -127.82 76.6815 -80.8164 -126.181 77.9744 
-81.3663 -125.297 77.4575 -79.0332 -127.59 77.0147 -78.5318 -128.665 75.9767 
-79.6357 -126.67 77.7273 -80.2784 -125.782 77.6119 -80.5532 -124.764 76.8488 
-77.5824 -127.97 76.0487 -76.8168 -129.112 75.3113 -78.2539 -126.902 76.6895 
-78.8622 -126.151 76.8711 -79.2191 -125.242 76.5856 -79.1329 -124.492 75.6481 
-75.5691 -128.265 75.4988 -74.9902 -129.324 74.8675 -76.3063 -127.082 75.9037 
-77.0676 -126.316 75.9818 -77.6337 -125.613 75.8527 -77.8178 -124.81 75.3885 
-77.6934 -124.503 73.9588 -74.0827 -128.529 74.9397 -73.8364 -129.33 74.2457 
-74.5904 -127.467 75.3466 -75.3439 -126.675 75.345 -76.1128 -126.049 75.0585 
-76.5814 -125.229 74.6632 -76.6742 -124.685 73.6824 -76.6038 -124.529 71.9297 
-73.0766 -128.491 74.1128 -72.883 -129.092 73.464 -73.4487 -127.615 74.5189 
-74.0736 -126.892 74.5857 -74.8425 -126.393 74.2679 -75.4692 -125.673 73.754 
-75.7161 -124.936 72.9713 -75.6902 -124.581 71.6562 -75.6303 -124.198 70.1346 
-72.0419 -128.236 73.2953 -71.8359 -128.76 72.7178 -72.3802 -127.429 73.6173 
-72.9166 -126.67 73.6827 -73.6072 -126.217 73.4449 -74.2763 -125.741 72.9456 
-74.6793 -125.054 72.2418 -74.7626 -124.52 71.2283 -74.7308 -124.107 69.9877 
-74.7299 -123.465 68.8369 -84.2957 -127.22 74.7376 -83.2344 -127.21 75.1407 
-83.0352 -127.419 74.1618 -81.6958 -127.438 74.3535 -81.491 -127.476 73.1005 
-81.3169 -127.155 75.4794 -80.3493 -127.756 73.1227 -80.3935 -127.583 71.666 
-80.1483 -127.658 74.5079 -79.7583 -127.652 75.7798 -79.5443 -128.21 71.5718 
-79.521 -127.73 70.2616 -79.4165 -128.372 73.1034 -79.2548 -128.424 74.6125 
-79.0199 -128.684 75.5928 -78.6445 -128.392 70.2301 -78.385 -127.567 69.1755 
-78.6688 -128.941 71.463 -78.5513 -129.126 73.0021 -78.2968 -129.342 74.3037 
-77.7382 -129.504 74.9805 -77.4653 -128 69.2517 -77.1732 -127.034 68.19 
-77.5566 -128.81 70.2225 -77.3875 -129.34 71.353 -77.0291 -129.701 72.6442 
-76.5095 -129.95 73.718 -75.7995 -129.86 74.4232 -76.3815 -127.36 68.1544 
-76.1919 -126.404 67.049 -76.4575 -128.18 69.1949 -76.2993 -128.915 70.1462 
-75.9152 -129.674 71.1087 -75.4341 -130.188 72.1381 -74.9549 -130.223 73.1017 
-74.4197 -129.895 73.8359 -75.5138 -126.729 66.8201 -75.4343 -125.769 65.8555 
-75.5501 -127.571 67.8441 -75.4824 -128.313 68.8783 -75.2564 -129.22 69.8123 
-74.8502 -130.085 70.6598 -74.4074 -130.354 71.5213 -73.979 -130.08 72.3811 
-73.4579 -129.64 73.0765 -74.8175 -126.047 65.557 -74.8289 -125.106 64.7674 
-74.7767 -126.968 66.3959 -74.7084 -127.763 67.3417 -74.6055 -128.566 68.331 
[...]
CELL_DATA 2000
SCALARS Distance double
LOOKUP_TABLE default
141.06 141.796 141.615 142.092 142.583 142.377 142.892 142.788 143.473 
143.471 143.199 143.755 143.653 144.443 144.366 145.218 144.518 144.175 
144.778 144.629 145.535 145.45 146.415 146.259 147.158 145.577 145.284 
145.958 145.793 146.791 146.68 147.745 147.564 148.535 148.285 149.218 
146.55 146.358 147.149 147.043 148.109 148.022 149.142 148.975 150.012 
149.754 150.739 150.453 151.438 147.625 147.439 148.373 148.276 149.404 
149.343 150.494 150.38 151.47 151.269 152.305 152.033 153.023 152.713 
153.629 148.947 148.718 149.762 149.604 150.765 150.661 151.827 151.72 
152.844 152.708 153.789 153.587 154.578 154.285 155.153 154.806 155.564 
150.381 150.164 151.224 151.051 152.182 152.053 153.197 153.073 154.188 
154.065 155.152 155.011 156.008 155.776 156.615 156.284 156.994 156.621 
157.253 140.625 140.3 140.768 141.385 140.017 140.502 141.182 141.596 
142.214 139.707 140.241 141.012 141.467 142.187 142.519 143.16 139.388 
139.941 140.778 141.315 142.188 142.604 143.381 143.605 144.257 139.125 
139.657 140.5 141.068 142.022 142.606 143.582 143.941 144.657 144.751 
145.303 138.888 139.422 140.238 140.783 141.706 142.378 143.48 144.1 
144.995 145.194 145.664 145.68 146.147 138.623 139.175 140 140.53 
141.423 142.054 143.187 143.941 145.025 145.459 146.009 146.015 146.305 
146.419 147.01 138.416 138.916 139.773 140.306 141.237 141.824 142.961 
143.693 144.868 145.446 146.127 146.257 146.486 146.526 146.94 147.309 
148.154 138.442 138.792 139.638 140.12 141.079 141.664 142.789 143.5 
144.652 145.289 146.024 146.285 146.515 146.586 146.876 147.188 147.927 
148.523 149.534 138.858 139.982 139.551 139.98 141.366 140.785 141.184 
140.811 141.428 142.929 142.277 142.655 142.143 142.777 142.434 143.211 
144.457 143.859 144.183 143.632 144.136 143.793 144.507 144.268 144.998 
145.892 145.336 145.607 145.053 145.343 144.977 145.42 145.292 145.788 
145.733 146.122 147.441 146.824 147.125 146.464 146.7 146.133 146.417 
146.068 146.381 146.226 146.463 146.412 146.545 149.116 148.502 148.928 
148.168 148.53 147.724 148.109 147.369 147.761 147.121 147.453 146.948 
147.232 146.878 147.137 150.681 150.207 150.797 150.132 150.669 149.828 
150.35 149.437 149.955 149.019 149.489 148.564 149.012 148.185 148.662 
147.969 148.444 152.069 151.724 152.444 151.992 152.69 152.033 152.642 
151.801 152.319 151.386 151.848 150.887 151.336 150.387 150.87 149.972 
150.483 149.649 150.142 151.361 151.787 152.172 153.353 152.225 152.631 
153.877 154.212 155.431 152.683 153.089 154.381 154.762 156.066 156.4 
157.739 153.19 153.576 154.883 155.282 156.655 157.059 158.481 158.828 
160.217 153.71 154.119 155.445 155.823 157.199 157.634 159.087 159.531 
160.951 161.291 162.555 154.029 154.577 155.9 156.357 157.668 158.132 
159.531 160.053 161.472 161.927 163.192 163.481 164.518 153.945 154.674 
155.915 156.592 157.8 158.418 159.713 160.362 161.76 162.349 163.632 
164.021 165.067 165.276 166.118 153.538 154.34 155.471 156.316 157.456 
158.264 159.477 160.308 161.668 162.471 163.769 164.34 165.381 165.719 
166.576 166.766 167.476 153.067 153.816 154.884 155.736 156.867 157.742 
158.922 159.849 161.141 162.129 163.399 164.235 165.243 165.818 166.612 
167.033 167.731 167.984 168.493 151.508 153.494 152.461 152.394 155.595 
154.518 154.514 153.424 153.385 157.932 156.757 156.812 155.647 155.654 
154.483 154.423 160.423 159.226 159.303 158.064 158.083 156.839 156.778 
155.534 155.422 162.763 161.705 161.793 160.588 160.577 159.311 159.223 
157.934 157.788 156.52 156.372 164.702 163.873 163.979 162.957 162.925 
161.751 161.62 160.359 160.161 158.879 158.653 157.413 157.19 166.254 
165.595 165.679 164.891 164.838 163.892 163.717 162.619 162.347 161.151 
160.824 159.608 159.263 158.084 157.741 167.572 166.998 167.016 166.357 
166.249 165.518 165.302 164.445 164.11 163.11 162.694 161.605 161.164 
160.038 159.598 158.481 158.064 168.553 168.14 168.064 167.515 167.327 
166.721 166.478 165.79 165.439 164.615 164.154 163.233 162.742 161.763 
161.279 160.241 159.767 158.708 158.27 168.824 168.609 168.697 168.351 
168.099 168.344 168.222 168.141 167.667 167.878 167.971 168.006 168.014 
167.722 167.458 166.874 167.79 167.839 167.748 167.824 167.572 167.464 
166.897 166.572 165.825 167.239 167.451 167.07 167.318 166.907 167.086 
166.488 166.406 165.601 165.344 164.497 166.388 166.612 166.105 166.351 
165.842 166.15 165.601 165.759 165.032 164.956 164.13 163.929 163.096 
165.6 165.772 165.306 165.416 164.953 165.133 164.712 164.872 164.322 
164.323 163.611 163.495 162.715 162.517 161.681 164.737 164.988 164.529 
164.675 164.199 164.367 163.967 164.132 163.656 163.686 163.027 162.952 
162.2 162.08 161.27 161.069 160.194 163.729 164.048 163.565 163.794 
163.236 163.494 162.996 163.302 162.791 162.98 162.31 162.328 161.549 
161.498 160.695 160.587 159.743 159.55 158.685 168.935 168.57 168.819 
168.62 167.628 168.143 167.992 168.22 167.964 166.565 167.127 167.164 
167.514 167.47 167.693 167.736 165.671 166.219 166.472 166.854 167.069 
167.335 167.579 167.756 167.85 164.709 165.396 165.743 166.27 166.554 
166.971 167.219 167.561 167.655 167.767 167.495 163.444 164.312 164.649 
165.393 165.6 166.234 166.344 166.913 166.914 167.315 167.084 167.151 
166.672 162.013 162.933 163.259 164.107 164.289 165.039 165.135 165.808 
165.842 166.381 166.268 166.572 166.262 166.295 165.839 160.606 161.485 
161.799 162.653 162.863 163.651 163.824 164.559 164.716 165.327 165.336 
165.739 165.528 165.748 165.37 165.428 164.938 159.284 160.095 160.38 
161.205 161.423 162.227 162.41 163.219 163.385 164.147 164.162 164.741 
164.502 164.887 164.483 164.747 164.277 164.41 163.89 153.167 154.024 
154.036 155.004 154.961 154.992 155.998 155.998 157.009 155.698 155.863 
156.91 157.014 158.077 158.072 159.109 156.329 156.514 157.603 157.834 
158.999 159.139 160.293 160.269 161.373 157.112 157.214 158.337 158.54 
159.799 160.027 161.291 161.418 162.599 162.579 163.616 157.844 158.011 
159.105 159.328 160.581 160.849 162.114 162.329 163.469 163.614 164.614 
164.637 165.428 158.28 158.581 159.59 159.948 161.094 161.505 162.666 
163.007 164.017 164.265 165.164 165.369 166.186 166.221 166.831 158.56 
158.893 159.859 160.255 161.312 161.793 162.862 163.324 164.234 164.587 
165.365 165.695 166.492 166.778 167.51 167.529 168.008 158.837 159.16 
160.118 160.485 161.501 161.932 162.955 163.404 164.289 164.659 165.353 
165.708 166.371 166.826 167.52 167.919 168.454 168.524 168.757 152.209 
150.995 152.045 152.991 149.699 150.785 151.733 152.889 153.891 148.367 
149.43 150.338 151.555 152.565 153.744 154.649 147.13 148.096 148.911 
150.09 151.08 152.337 153.305 154.438 155.302 146.035 146.918 147.674 
148.701 149.624 150.823 151.839 153.063 154.055 155.161 156.085 145.041 
145.889 146.669 147.571 148.436 149.463 150.443 151.619 152.677 153.888 
154.903 155.994 156.854 144.166 144.954 145.739 146.605 147.441 148.37 
149.276 150.322 151.331 152.509 153.542 154.725 155.618 156.656 157.345 
143.443 144.133 144.835 145.653 146.42 147.342 148.184 149.189 150.115 
151.21 152.186 153.339 154.248 155.344 156.086 157.049 157.651 142.818 
143.422 144.011 144.733 145.396 146.265 147.04 148.037 148.91 149.982 
150.901 152.009 152.904 153.99 154.784 155.784 156.454 157.359 157.945 
142.651 142.699 143.041 143.797 142.81 143.126 143.945 144.273 145.151 
143.14 143.373 144.281 144.538 145.501 145.786 146.807 143.643 143.84 
144.821 145.029 146.063 146.278 147.363 147.606 148.712 144.211 144.401 
145.422 145.645 146.729 146.939 148.058 148.267 149.417 149.619 150.735 
144.922 145.04 146.103 146.294 147.437 147.649 148.822 149.021 150.208 
150.395 151.552 151.69 152.751 145.813 145.865 146.957 147.077 148.258 
148.427 149.644 149.827 151.048 151.23 152.416 152.551 153.625 153.688 
154.635 146.714 146.789 147.869 147.985 149.142 149.295 150.479 150.659 
151.85 152.056 153.23 153.408 154.483 154.565 155.493 155.501 156.32 
147.506 147.633 148.677 148.838 149.936 150.124 151.236 151.437 152.551 
152.783 153.906 154.147 155.215 155.372 156.301 156.341 157.142 157.115 
157.835 148.256 149.863 149.181 149.474 151.586 150.867 151.171 150.461 
150.762 153.337 152.624 152.965 152.232 152.558 151.798 152.084 155.169 
154.434 154.863 154.109 154.503 153.686 153.997 153.155 153.42 157.146 
156.375 156.859 156.082 156.521 155.697 156.034 155.151 155.423 154.533 
154.787 159.115 158.391 158.838 158.077 158.458 157.678 158 157.18 
157.454 156.579 156.811 155.908 156.095 160.839 160.253 160.666 159.975 
160.328 159.571 159.902 159.11 159.414 158.577 158.803 157.912 158.038 
157.124 157.172 162.219 161.808 162.253 161.697 162.126 161.447 161.864 
161.075 161.415 160.545 160.749 159.844 159.917 159.002 158.983 158.067 
157.998 163.258 163.033 163.532 163.163 163.644 163.163 163.617 162.997 
163.304 162.511 162.607 161.715 161.684 160.791 160.713 159.82 159.704 
158.798 158.663 147.786 147.549 148.242 149.395 147.277 148.027 149.295 
149.97 151.158 147.018 147.772 149.128 149.9 151.225 151.807 152.95 
146.853 147.554 148.927 149.746 151.229 151.936 153.214 153.644 154.768 
146.743 147.426 148.759 149.558 151.11 151.962 153.422 153.968 155.15 
155.52 156.692 146.555 147.287 148.584 149.372 150.847 151.786 153.306 
154.091 155.349 155.863 157.013 157.473 158.651 146.312 147.048 148.329 
149.132 150.502 151.429 152.848 153.787 155.068 155.845 157.013 157.667 
158.836 159.361 160.411 146.17 146.814 148.061 148.84 150.167 151.026 
152.343 153.238 154.489 155.38 156.599 157.455 158.655 159.383 160.443 
160.947 161.786 146.179 146.71 147.881 148.588 149.88 150.68 151.954 
152.758 153.966 154.802 156.022 156.928 158.142 159.013 160.068 160.769 
161.591 162.104 162.762 146.748 145.033 146.069 146.414 143.157 144.24 
144.522 145.66 146.045 141.207 142.27 142.447 143.617 143.951 145.24 
145.717 139.357 140.343 140.407 141.449 141.609 142.94 143.414 144.901 
145.501 137.552 138.549 138.67 139.543 139.544 140.568 140.854 142.368 
143.041 144.685 145.354 135.772 136.735 137.01 137.948 138.106 138.829 
138.971 139.972 140.529 142.083 142.903 144.529 145.186 134.457 135.103 
135.37 136.314 136.72 137.574 137.892 138.567 138.999 139.962 140.745 
142.132 142.984 144.411 145.044 133.839 134.134 134.298 134.889 135.271 
136.158 136.667 137.547 138.062 138.84 139.483 140.425 141.258 142.429 
143.23 144.418 145.042 133.538 133.753 133.915 134.166 134.407 134.921 
135.364 136.222 136.841 137.8 138.453 139.356 140.061 141.02 141.8 
142.839 143.564 144.58 145.176 133.409 133.502 133.62 133.911 133.783 
133.824 134.145 134.115 134.36 134.294 134.212 134.56 134.453 134.703 
134.64 135.13 135.044 134.818 135.194 135.019 135.365 135.155 135.632 
135.669 136.522 136.009 135.651 136.015 135.784 136.238 135.994 136.504 
136.352 137.124 137.257 138.228 137.109 136.682 137 136.691 137.15 
136.929 137.465 137.284 137.955 137.947 138.84 138.988 139.918 138.205 
137.792 138.089 137.724 138.126 137.861 138.377 138.201 138.833 138.766 
139.583 139.664 140.621 140.727 141.65 139.225 138.854 139.156 138.804 
139.184 138.871 139.362 139.133 139.767 139.642 140.44 140.447 141.394 
141.487 142.45 142.508 143.383 140.184 139.842 140.15 139.834 140.232 
139.934 140.438 140.179 140.819 140.636 141.412 141.34 142.228 142.275 
143.201 143.283 144.142 144.184 144.961 140.803 141.872 141.137 140.826 
143.28 142.374 142.074 141.261 140.982 145.014 143.969 143.686 142.697 
142.433 141.532 141.286 146.927 145.824 145.572 144.478 144.239 143.183 
142.957 141.962 141.753 148.996 147.832 147.632 146.474 146.268 145.126 
144.906 143.793 143.579 142.534 142.375 151.234 150.027 149.882 148.65 
148.476 147.252 147.036 145.832 145.591 144.45 144.267 143.236 143.16 
153.418 152.299 152.178 150.967 150.805 149.545 149.345 148.061 147.819 
146.554 146.335 145.188 145.081 144.084 144.078 155.347 154.379 154.273 
153.192 153.03 151.853 151.663 150.414 150.2 148.889 148.656 147.366 
147.191 146.052 145.981 145.004 144.986 157.04 156.19 156.109 155.16 
155.014 153.965 153.774 152.649 152.439 151.239 151.006 149.734 149.498 
148.245 148.072 146.947 146.849 145.864 145.798 146.557 147.704 147.478 
148.271 149.025 148.756 149.631 149.372 150.274 150.482 150.181 151.08 
150.799 151.708 151.442 152.321 151.963 151.674 152.547 152.254 153.136 
152.871 153.752 153.469 154.309 153.38 153.136 154.019 153.719 154.588 
154.298 155.204 154.924 155.834 155.503 156.379 154.714 154.529 155.47 
155.204 156.105 155.788 156.689 156.395 157.312 157.032 157.933 157.612 
158.469 155.939 155.829 156.808 156.634 157.579 157.316 158.204 157.894 
158.728 158.441 159.246 159.018 159.807 159.579 160.306 157.012 156.988 
157.965 157.895 158.845 158.703 159.604 159.368 160.176 159.847 160.55 
160.236 160.919 160.717 161.4 161.218 161.8 157.918 157.972 158.931 
158.948 159.868 159.833 160.713 160.625 161.444 161.231 161.908 161.556 
162.134 161.81 162.415 162.206 162.797 162.574 163.023 137.733 137.62 
137.287 136.645 137.798 137.294 136.567 136.251 135.649 138.071 137.532 
136.793 136.332 135.677 135.31 134.652 138.313 137.793 137.064 136.604 
135.972 135.507 134.804 134.316 133.608 138.594 138.052 137.322 136.854 
136.238 135.816 135.164 134.617 133.843 133.322 132.735 138.957 138.397 
137.685 137.152 136.517 136.071 135.46 134.975 134.243 133.658 132.942 
132.54 132.168 139.327 138.801 138.135 137.578 136.943 136.415 135.808 
135.298 134.645 134.075 133.392 132.845 132.365 132.091 131.996 139.685 
139.197 138.599 138.062 137.47 136.907 136.319 135.747 135.162 134.57 
134.022 133.415 133.021 132.519 132.421 132.173 132.365 140.08 139.608 
139.096 138.574 138.055 137.487 136.954 136.349 135.83 135.216 134.787 
134.185 133.919 133.361 133.309 132.87 133.023 132.766 133.034 137.76 
136.679 137.347 137.72 135.632 136.268 136.623 137.407 137.889 134.521 
135.163 135.479 136.304 136.813 137.613 138.086 133.414 133.992 134.295 
135.142 135.733 136.58 137.143 137.848 138.324 132.629 133.022 133.373 
134.069 134.765 135.583 136.276 136.989 137.55 138.178 138.709 132.216 
132.483 132.911 133.408 134.138 134.797 135.548 136.208 136.821 137.449 
138.02 138.651 139.243 132.116 132.259 132.729 133.115 133.81 134.336 
135.045 135.597 136.212 136.776 137.375 137.992 138.652 139.271 139.934 
132.44 132.367 132.803 133.022 133.665 134.068 134.735 135.188 135.81 
136.282 136.926 137.455 138.182 138.763 139.526 140.078 140.785 133.028 
132.834 133.16 133.202 133.756 134 134.643 134.977 135.628 136.01 
136.703 137.148 137.911 138.416 139.21 139.739 140.492 140.986 141.648 
138.473 138.504 138.844 139.66 138.69 138.992 139.834 140.162 141.066 
138.831 139.16 139.995 140.368 141.273 141.642 142.595 138.995 139.264 
140.064 140.467 141.366 141.8 142.729 143.155 144.088 139.356 139.496 
140.265 140.564 141.478 141.878 142.824 143.242 144.184 144.604 145.529 
139.881 139.936 140.672 140.861 141.774 142.092 143.091 143.423 144.398 
144.741 145.725 146.093 147.073 140.537 140.513 141.202 141.306 142.162 
142.442 143.446 143.777 144.764 145.053 146.012 146.341 147.336 147.7 
148.682 141.347 141.242 141.901 141.885 142.669 142.842 143.781 144.105 
145.066 145.394 146.293 146.622 147.538 147.923 148.866 149.261 150.169 
142.187 142.088 142.738 142.657 143.394 143.423 144.28 144.466 145.372 
145.649 146.523 146.84 147.718 148.088 149.005 149.398 150.302 150.678 
151.534 146.588 145.77 145.771 144.896 144.847 144.879 143.971 143.987 
143.042 143.954 143.93 142.985 142.993 142.02 142.053 141.106 143.256 
143.117 142.159 142.051 141.054 141.016 140.052 140.11 139.226 142.706 
142.51 141.571 141.359 140.384 140.188 139.22 139.123 138.201 138.246 
137.38 142.256 142.021 141.129 140.876 139.963 139.684 138.764 138.497 
137.588 137.389 136.5 136.447 135.656 142.009 141.689 140.865 140.541 
139.689 139.364 138.497 138.176 137.322 137 136.167 135.865 135.121 
134.964 134.435 141.954 141.581 140.799 140.403 139.576 139.185 138.333 
137.97 137.141 136.813 136.04 135.715 135.014 134.722 134.194 134.063 
133.791 141.931 141.577 140.8 140.395 139.558 139.134 138.281 137.871 
137.056 136.689 135.955 135.634 134.973 134.679 134.105 133.912 133.52 
133.53 133.363 
POINT_DATA 1002
SCALARS Distance double
LOOKUP_TABLE default
141.442 140.521 141.221 142.186 141.986 142.653 142.965 142.803 143.529 
144.242 143.835 143.781 144.473 145.335 146.083 144.92 144.862 145.588 
146.552 147.365 148.029 146.085 145.799 146.883 147.909 148.78 149.465 
150.163 147.201 146.661 148.167 149.281 150.241 151.019 151.735 152.418 
148.46 147.761 149.463 150.584 151.622 152.549 153.349 153.988 154.482 
149.936 149.146 150.893 151.94 152.958 153.955 154.864 155.522 155.951 
156.261 151.411 150.589 152.326 153.329 154.323 155.285 156.217 156.944 
157.381 157.651 157.848 140.137 140.951 139.816 140.742 139.495 141.856 
140.489 139.14 141.807 142.901 140.198 138.831 141.651 143.109 144.139 
139.949 138.6 141.357 143.062 144.579 145.263 139.722 138.346 141.048 
142.718 144.664 145.748 145.993 139.458 138.068 140.823 142.401 144.447 
145.97 146.319 146.615 139.225 137.96 140.641 142.251 144.236 145.927 
146.492 146.658 147.557 139.196 138.174 140.498 142.103 144.016 145.709 
146.441 146.62 147.358 148.869 139.209 140.252 140.489 141.616 141.996 
141.687 143.224 143.572 143.13 143.517 144.785 145.018 144.546 144.736 
145.274 146.209 146.453 145.832 145.655 145.873 146.223 147.815 148.06 
147.356 146.918 146.685 146.592 146.582 149.637 149.655 149.337 148.904 
148.511 148.094 147.679 147.443 151.334 151.058 151.428 151.25 150.903 
150.456 149.922 149.439 149.11 152.784 152.368 153.219 153.428 153.254 
152.804 152.286 151.803 151.37 150.971 152.527 153.022 154.511 153.505 
155.105 156.679 153.962 155.678 157.419 159.122 154.483 156.208 158.082 
159.946 161.588 155.074 156.78 158.614 160.568 162.342 163.739 155.407 
157.221 159.005 160.979 162.872 164.366 165.454 155.191 157.149 159.032 
161.106 163.199 164.827 166.011 166.894 154.615 156.61 158.613 160.79 
163.112 164.998 166.323 167.397 168.14 154.053 155.985 158.007 160.148 
162.488 164.599 166.137 167.383 168.416 168.924 153.447 155.597 154.5 
157.998 156.845 155.621 160.562 159.351 158.055 156.661 162.968 161.854 
160.529 159.088 157.616 164.918 164.055 162.873 161.462 159.935 158.41 
166.418 165.707 164.758 163.528 162.059 160.482 158.9 167.685 166.95 
166.095 165.06 163.753 162.279 160.735 159.162 168.597 167.914 167.122 
166.22 165.043 163.676 162.28 160.827 159.313 168.951 168.544 168.335 
168.158 167.811 167.969 167.949 167.88 167.917 167.284 167.691 167.803 
167.608 167.195 166.214 166.865 167.055 166.658 166.459 165.813 164.78 
165.921 166.193 165.535 165.338 165.01 164.277 163.339 165.205 165.405 
164.797 164.53 164.273 163.686 162.873 161.94 164.357 164.45 164.026 
163.777 163.598 163.1 162.3 161.432 160.444 163.338 163.4 163.002 
162.681 162.533 162.245 161.587 160.766 159.89 158.896 168.931 168.578 
168.206 167.651 167.032 167.754 166.704 165.963 167.142 167.52 165.996 
165.059 166.722 167.348 167.873 165.138 163.933 166.098 166.849 167.466 
167.632 163.866 162.534 164.947 165.76 166.431 166.855 166.774 162.401 
161.107 163.511 164.412 165.238 165.863 166.093 165.922 160.949 159.764 
162.049 163.031 164.031 164.884 165.265 165.231 164.96 159.572 158.517 
160.62 161.603 162.598 163.53 164.076 164.169 164.052 163.822 153.082 
154.974 154.018 155.985 154.881 157.036 156.726 155.491 158.022 159.175 
157.329 156.171 158.756 160.221 161.486 158.146 157.02 159.537 161.107 
162.55 163.765 158.87 157.646 160.302 161.906 163.333 164.53 165.552 
159.23 157.967 160.673 162.309 163.787 164.937 166.032 166.981 159.485 
158.231 160.865 162.401 163.88 165.041 166.123 167.328 168.228 151.181 
151.877 149.93 150.551 148.618 152.777 149.124 147.363 151.342 153.579 
147.804 146.227 149.809 152.093 154.247 146.729 145.153 148.495 150.572 
152.854 155.067 145.788 144.183 147.493 149.327 151.433 153.745 155.898 
144.895 143.423 146.538 148.296 150.211 152.351 154.532 156.426 144.085 
142.824 145.529 147.197 149.065 151.072 153.137 155.077 156.758 143.363 