# vtk DataFile Version 4.0
vtk output
ASCII
DATASET POLYDATA
POINTS 1002 float
-79.0405 -103.394 57.4159 -79.4528 -102.325 56.717 -80.0341 -102.576 57.1731 
-79.5222 -103.802 57.8253 -80.6911 -103.001 57.4995 -78.3983 -104.8 58.02 
-79.9605 -104.398 57.9502 -81.3179 -103.71 57.6744 -78.7636 -105.399 58.235 
-77.6474 -106.42 58.5975 -80.1886 -105.339 57.8115 -81.6916 -104.871 57.8081 
-78.9415 -106.144 58.1645 -77.9553 -107.214 58.7055 -77.0492 -108.245 59.3783 
-80.1129 -106.681 57.6596 -81.5615 -106.342 57.8073 -78.8496 -107.268 57.9802 
-78.0532 -108.126 58.8047 -77.4007 -109.211 59.6727 -76.6893 -110.209 60.4711 
-79.706 -108.105 57.5176 -80.793 -107.74 57.3761 -78.6965 -108.769 57.9693 
-78.0393 -109.478 59.0061 -77.6441 -110.34 60.1483 -77.1146 -111.327 60.9783 
-76.4935 -112.172 61.6849 -79.1033 -109.353 57.2935 -79.7631 -108.933 56.6707 
-78.613 -110.206 58.1466 -78.1913 -111.104 59.3208 -77.8679 -111.858 60.604 
-77.4968 -112.66 61.5347 -76.9617 -113.442 62.2181 -76.4747 -114.07 62.897 
-78.8475 -110.472 57.2762 -79.23 -109.961 56.3402 -78.7071 -111.365 58.4616 
-78.5127 -112.434 59.7062 -78.1973 -113.33 60.9587 -77.8579 -114.093 61.9702 
-77.4291 -114.786 62.7385 -76.9826 -115.33 63.4821 -76.6273 -115.757 64.156 
-79.2602 -111.455 57.7756 -79.452 -110.827 56.7268 -79.1968 -112.342 59.0157 
-79.0011 -113.396 60.1891 -78.6452 -114.373 61.3297 -78.3257 -115.196 62.3952 
-77.9997 -115.895 63.2917 -77.5909 -116.411 64.1187 -77.2079 -116.781 64.8515 
-76.8514 -117.097 65.3823 -79.9685 -112.304 58.6358 -80.023 -111.633 57.5792 
-79.9193 -113.182 59.7792 -79.6612 -114.195 60.8067 -79.236 -115.177 61.8028 
-78.9215 -116.018 62.868 -78.7178 -116.703 63.8907 -78.3962 -117.216 64.8054 
-77.9646 -117.582 65.5683 -77.5342 -117.891 66.1037 -77.0978 -118.167 66.455 
-80.1462 -101.709 56.1666 -80.9336 -101.973 56.5691 -80.9797 -101.384 55.4057 
-81.9653 -101.574 55.8636 -81.8799 -101.013 54.6115 -81.8336 -102.367 56.9845 
-82.9137 -101.076 55.2479 -82.6169 -100.359 53.7668 -82.9414 -101.883 56.4934 
-82.6379 -103.155 57.4636 -83.5515 -100.58 54.4076 -83.1347 -99.8495 52.5249 
-83.6782 -101.536 55.9086 -83.5953 -102.844 57.1299 -83.037 -104.589 57.8911 
-83.9205 -100.47 53.0238 -83.5288 -99.7662 50.9347 -84.0486 -101.506 54.8225 
-83.9628 -102.826 56.2767 -83.7997 -104.584 57.5307 -82.7538 -106.327 57.8661 
-84.0682 -100.616 51.4864 -83.7983 -99.8365 49.4495 -84.2593 -101.704 53.4263 
-84.1574 -102.944 54.9715 -84.0659 -104.588 56.5597 -83.5066 -106.426 57.5298 
-81.7326 -107.822 57.1659 -84.0275 -100.833 50.1461 -83.9651 -100.052 48.2316 
-84.2398 -101.918 52.2057 -84.4022 -103.066 53.7846 -84.3962 -104.435 55.3603 
-84.0255 -106.215 56.8598 -82.5983 -107.827 56.9966 -80.5258 -108.943 56.2585 
-83.9874 -101.271 48.9778 -84.073 -100.611 47.2894 -84.0317 -102.221 51.117 
-84.3941 -103.282 52.8617 -84.7495 -104.422 54.2484 -84.565 -105.886 55.8188 
-83.3889 -107.495 56.6577 -81.4568 -108.79 56.2049 -79.9074 -109.8 55.8876 
-84.0254 -101.941 48.0722 -84.066 -101.417 46.73 -83.919 -102.68 50.0503 
-84.1461 -103.589 51.9447 -84.6917 -104.615 53.2863 -84.8648 -105.82 54.558 
-84.0232 -107.177 55.7294 -82.3539 -108.461 56.0047 -80.7689 -109.558 55.8015 
-80.0094 -110.576 56.279 -83.9969 -102.572 47.1562 -83.9964 -103.127 48.6803 
-83.9368 -103.766 47.8829 -84.0501 -104.349 49.3374 -83.9256 -105.087 48.6563 
-83.9697 -103.845 50.607 -84.0576 -105.827 49.8465 -83.792 -106.641 49.3691 
-84.0437 -105.122 50.9697 -84.2722 -104.774 52.2252 -83.9094 -107.652 50.4612 
-83.4611 -108.232 50.2172 -83.987 -106.835 51.3255 -84.1606 -106.177 52.4206 
-84.6401 -105.92 53.4236 -83.7628 -109.401 51.4099 -83.0789 -109.637 51.2427 
-84.0118 -108.857 52.0121 -83.9175 -107.953 52.8719 -84.0374 -107.34 53.6154 
-84.2134 -107.159 54.5521 -83.4779 -110.791 52.4409 -82.6048 -110.981 52.3265 
-84.084 -110.541 52.838 -83.936 -109.8 53.5002 -83.4643 -108.919 54.0467 
-83.1612 -108.476 54.5517 -82.8415 -108.383 55.3188 -82.7553 -112.088 53.4783 
-81.9858 -112.391 53.4927 -83.5595 -111.794 53.6703 -83.7292 -111.295 54.1223 
-83.1699 -110.584 54.6303 -82.5064 -110.036 54.9871 -81.9605 -109.737 55.3282 
-81.3815 -109.579 55.6567 -81.9302 -113.498 54.6972 -81.455 -113.755 54.7491 
-82.5638 -113.122 54.8208 -82.9301 -112.66 55.1326 -82.6749 -112.182 55.5593 
-82.1359 -111.819 55.9471 -81.6633 -111.503 56.2026 -81.1648 -111.096 56.3272 
-80.5851 -110.743 56.3244 -81.4811 -114.889 56.0593 -81.1847 -114.949 56.0216 
-81.9097 -114.668 56.277 -82.2876 -114.284 56.6305 -82.2725 -113.837 57.0091 
-81.936 -113.515 57.3499 -81.611 -113.307 57.6041 -81.3025 -112.936 57.7191 
-80.9056 -112.367 57.7041 -80.4632 -111.885 57.6273 -80.5481 -112.995 59.2157 
-80.864 -113.479 59.2684 -80.9401 -114.71 60.7803 -81.2298 -114.117 59.3218 
-81.2981 -115.336 60.8373 -81.405 -116.562 62.1671 -81.6357 -114.599 59.337 
-81.897 -115.797 60.9551 -82.1102 -117.066 62.3577 -82.2119 -118.131 63.6144 
-82.0059 -114.875 59.212 -82.5797 -116.01 60.9772 -83.0468 -117.183 62.6116 
-83.1241 -118.405 63.9724 -82.9115 -119.34 65.136 -82.3522 -115.28 58.937 
-83.0834 -116.497 60.6672 -83.7671 -117.455 62.4267 -83.9577 -118.537 64.1769 
-83.6647 -119.651 65.4782 -83.1448 -120.606 66.5837 -82.492 -115.825 58.5815 
-83.2705 -117.345 60.2073 -83.9788 -118.397 61.698 -84.2684 -119.21 63.6425 
-84.2151 -120.142 65.459 -83.8166 -121.132 66.7132 -83.2617 -122.034 67.8639 
-82.197 -116.175 58.1521 -82.9732 -117.851 59.8499 -83.679 -119.216 61.1274 
-83.9804 -120.116 62.7703 -84.1624 -120.891 64.8581 -84.2154 -121.76 66.4997 
-83.9419 -122.614 67.7213 -83.527 -123.304 68.9441 -81.6924 -116.239 57.7256 
-82.3008 -117.782 59.5172 -82.9721 -119.225 60.9611 -83.3338 -120.333 62.3544 
-83.5632 -121.23 64.2293 -83.8636 -122.149 66.054 -84.0447 -123.074 67.3848 
-84.0141 -123.832 68.6145 -83.8706 -124.341 69.8962 -81.2876 -116.141 57.4464 
-81.6409 -117.495 59.1643 -82.151 -118.849 60.8103 -82.5742 -120.018 62.2356 
-82.8483 -121.032 63.8365 -83.1077 -122.052 65.5927 -83.4072 -123.123 67.0031 
-83.7304 -124.115 68.1699 -84.0201 -124.855 69.4339 -84.1435 -125.294 70.6971 
-80.5458 -113.82 60.3339 -80.8976 -115.602 61.8424 -80.3759 -114.813 61.3674 
-81.4171 -117.37 63.3029 -80.7372 -116.548 62.92 -79.9891 -115.857 62.3417 
-82.1662 -118.805 64.8627 -81.367 -118.123 64.5729 -80.4892 -117.508 64.0323 
-79.6402 -116.805 63.4019 -82.5949 -120.123 66.4505 -81.99 -119.495 66.2391 
-81.1235 -118.945 65.7573 -80.2302 -118.357 65.1195 -79.4598 -117.538 64.5178 
-82.6919 -121.618 67.9804 -82.2952 -120.989 67.8962 -81.6285 -120.274 67.4899 
-80.7112 -119.664 66.8499 -79.9539 -118.931 66.2324 -79.222 -118.04 65.5826 
-82.8829 -122.989 69.2942 -82.4859 -122.482 69.3999 -82.0983 -121.648 69.2242 
-81.2759 -120.802 68.743 -80.361 -120.118 68.0528 -79.6129 -119.316 67.2868 
-78.7967 -118.41 66.4468 -83.2998 -124.024 70.4059 -82.7523 -123.607 70.6481 
-82.4603 -122.852 70.6848 -81.9595 -121.836 70.5266 -81.0181 -121.057 69.9707 
-80.0375 -120.462 69.0199 -79.1494 -119.658 67.965 -78.277 -118.737 66.9885 
-83.786 -124.937 71.376 -83.1446 -124.483 71.7964 -82.6608 -123.827 71.969 
-82.3128 -122.824 71.9608 -81.6259 -121.844 71.6009 -80.5799 -121.256 70.7035 
-79.5245 -120.715 69.4833 -78.571 -119.912 68.3083 -77.74 -119.013 67.3139 
-84.1635 -126.056 71.7878 -83.7008 -125.55 72.599 -83.755 -126.676 72.5614 
-83.219 -126.017 73.5681 -82.772 -126.908 72.8122 -82.9818 -124.907 73.153 
-82.3055 -126.15 73.8742 -81.434 -126.791 72.6906 -82.5328 -125.215 74.2637 
-82.4214 -124.008 73.3231 -81.033 -126.015 73.4864 -79.9464 -126.676 72.5948 
-81.7317 -125.277 74.379 -81.8676 -124.155 74.1571 -81.8468 -122.843 72.9838 
-79.4558 -125.792 73.0189 -78.4944 -126.515 72.5855 -80.4051 -125.077 73.608 
-80.8781 -124.136 73.8905 -80.9566 -122.881 73.3016 -80.8868 -121.89 72.1201 
-77.9733 -125.376 72.7266 -77.3631 -125.933 72.2657 -78.7229 -124.691 72.9426 
-79.3851 -123.856 73.1501 -79.7306 -122.731 73.0432 -79.8166 -121.798 72.2341 
-79.7344 -121.288 70.901 -76.8693 -124.72 72.1661 -76.4086 -125.048 71.4964 
-77.3318 -124.175 72.4983 -77.8185 -123.433 72.6108 -78.3305 -122.414 72.6276 
-78.6814 -121.489 72.1995 -78.7508 -121.031 71.0426 -78.6682 -120.639 69.5725 
-75.7746 -124.018 71.2852 -75.2557 -124.249 70.6683 -76.2686 -123.581 71.7853 
-76.6109 -122.933 72.0297 -76.9825 -122.066 72.013 -77.4801 -121.201 71.7344 
-77.7749 -120.683 70.9482 -77.7714 -120.359 69.655 -77.7271 -119.812 68.3442 
-74.4436 -123.366 70.5447 -73.9714 -123.62 70.1371 -75.0531 -122.922 70.9522 
-75.5083 -122.288 71.2868 -75.7617 -121.559 71.307 -76.1539 -120.891 70.9558 
-76.6389 -120.413 70.3466 -76.8507 -120.061 69.4444 -76.8747 -119.6 68.3343 
-76.9637 -118.93 67.3064 -84.0676 -126.005 70.4891 -83.9354 -126.884 71.3362 
-83.4957 -126.418 69.9589 -83.1074 -127.235 70.5323 -82.6934 -126.323 69.1693 
-83.1847 -127.408 71.7264 -82.069 -126.937 69.6009 -81.7809 -125.899 68.2581 
-82.1609 -127.513 70.845 -81.9056 -127.388 71.7729 -81.0059 -126.344 68.5731 
-80.6492 -125.335 67.3955 -81.1593 -127.022 70.012 -80.9574 -127.326 71.0989 
-80.447 -127.215 71.8727 -79.8649 -125.649 67.5493 -79.5195 -124.567 66.6118 
-80.1094 -126.406 68.8365 -80.0451 -126.887 70.2132 -79.5466 -127.253 71.2569 
-78.9375 -127.213 72.0451 -78.8054 -124.751 66.6405 -78.6326 -123.752 65.6498 
-78.8885 -125.723 67.5802 -78.8214 -126.41 68.702 -78.4999 -126.896 69.9467 
-78.0288 -127.191 71.0697 -77.6544 -126.87 71.8783 -77.8833 -123.926 65.5357 
-77.8384 -123.221 64.3628 -77.7682 -124.848 66.5156 -77.5248 -125.775 67.3297 
-77.2775 -126.331 68.3102 -77.0699 -126.549 69.5029 -76.9091 -126.465 70.5558 
-76.7094 -125.9 71.2218 -77.0418 -123.441 64.1166 -77.0788 -122.895 63.0318 
-76.8693 -124.062 65.257 -76.5594 -124.89 66.1872 -76.2981 -125.552 67.0392 
-76.1724 -125.711 68.0749 -76.1124 -125.597 69.1201 -75.98 -125.336 69.9105 
-75.6682 -124.852 70.415 -76.3782 -123.028 62.8059 -76.484 -122.422 61.9988 
-76.1899 -123.473 63.8546 -75.8901 -124.019 64.8885 -75.6045 -124.63 65.8048 
[...]
CELL_DATA 2000
SCALARS Distance double
LOOKUP_TABLE default
140.926 141.669 141.445 141.794 142.492 142.199 142.521 142.341 142.742 
143.423 143.004 143.22 143.03 143.454 143.347 143.895 144.414 143.916 
143.999 143.721 144.15 144.073 144.758 144.686 145.446 145.144 144.797 
144.891 144.59 145.086 144.923 145.761 145.672 146.599 146.443 147.301 
145.472 145.368 145.685 145.556 146.268 146.099 147.075 146.9 147.942 
147.73 148.671 148.397 149.24 145.836 145.785 146.435 146.441 147.423 
147.38 148.464 148.328 149.377 149.166 150.117 149.834 150.686 150.366 
151.161 146.644 146.518 147.455 147.424 148.566 148.56 149.685 149.632 
150.655 150.536 151.465 151.256 152.09 151.802 152.561 152.24 152.93 
147.814 147.658 148.728 148.65 149.806 149.753 150.842 150.78 151.786 
151.714 152.662 152.532 153.384 153.152 153.887 153.585 154.227 153.893 
154.451 140.56 140.394 140.735 141.326 140.364 140.669 141.275 141.591 
142.228 140.209 140.644 141.302 141.629 142.346 142.629 143.312 139.811 
140.407 141.169 141.631 142.429 142.818 143.665 143.877 144.486 139.369 
140.001 140.864 141.439 142.293 142.822 143.783 144.238 145.008 145.044 
145.32 138.998 139.608 140.521 141.146 142.027 142.6 143.561 144.215 
145.152 145.491 145.836 145.628 145.559 138.716 139.257 140.174 140.828 
141.763 142.337 143.26 143.911 144.912 145.5 146.06 146.058 145.954 
145.661 145.628 138.667 139.042 139.915 140.506 141.494 142.096 143.049 
143.638 144.602 145.225 145.936 146.184 146.245 146.017 145.868 145.77 
146.105 138.911 139.115 139.901 140.326 141.268 141.845 142.814 143.416 
144.328 144.925 145.635 146.024 146.254 146.228 146.14 146.007 146.196 
146.392 147.086 139.355 140.38 139.975 140.317 141.531 141.07 141.409 
141.061 141.587 142.797 142.283 142.581 142.17 142.657 142.422 143.073 
144.152 143.631 143.943 143.408 143.817 143.477 144.082 143.912 144.566 
145.488 145.064 145.532 144.932 145.291 144.711 145.119 144.829 145.338 
145.245 145.717 146.669 146.386 146.987 146.558 146.937 146.27 146.426 
145.855 146.045 145.818 146.057 146.05 146.199 147.732 147.484 148.024 
147.811 148.183 147.739 147.794 147.147 147.119 146.588 146.667 146.363 
146.441 146.285 146.252 148.857 148.522 148.972 148.721 149.096 148.771 
148.934 148.4 148.46 147.825 147.97 147.344 147.528 146.93 147.054 
146.533 146.609 150.101 149.707 150.206 149.806 150.305 149.846 150.242 
149.655 149.963 149.301 149.645 148.949 149.301 148.506 148.775 147.921 
148.157 147.366 147.648 148.727 149.268 149.557 150.759 149.925 150.182 
151.402 151.69 152.94 150.469 150.824 152.065 152.386 153.679 153.944 
155.174 150.8 151.271 152.556 152.994 154.32 154.684 155.953 156.178 
157.261 151.104 151.596 152.974 153.461 154.839 155.26 156.559 156.889 
157.999 158.146 159.055 151.386 151.939 153.404 153.946 155.373 155.778 
157.057 157.417 158.572 158.824 159.792 159.876 160.73 151.419 152.103 
153.53 154.277 155.666 156.22 157.373 157.805 158.88 159.287 160.301 
160.553 161.434 161.526 162.33 151.229 151.942 153.204 154.107 155.372 
156.183 157.195 157.832 158.725 159.341 160.27 160.822 161.693 162.051 
162.827 163.013 163.736 151.007 151.635 152.712 153.567 154.701 155.602 
156.566 157.348 158.159 158.899 159.724 160.478 161.303 161.965 162.726 
163.229 163.956 164.277 164.958 148.874 150.928 149.873 149.882 153.07 
151.989 151.994 150.942 150.944 155.256 154.156 154.138 153.056 153.028 
151.968 151.919 157.315 156.314 156.296 155.219 155.193 154.084 154.024 
152.921 152.849 159.122 158.266 158.298 157.328 157.307 156.248 156.187 
155.073 154.971 153.851 153.735 160.834 160.046 160.179 159.286 159.303 
158.294 158.204 157.155 157.019 155.949 155.763 154.669 154.448 162.463 
161.764 161.96 161.164 161.246 160.279 160.179 159.113 158.94 157.894 
157.683 156.623 156.327 155.247 154.918 163.915 163.325 163.511 162.846 
162.938 162.135 162.046 161.057 160.835 159.784 159.531 158.476 158.146 
157.058 156.647 155.588 155.199 165.213 164.711 164.896 164.286 164.354 
163.672 163.592 162.77 162.512 161.566 161.217 160.233 159.829 158.797 
158.313 157.253 156.764 155.77 155.355 165.96 166.822 166.221 165.659 
167.129 166.911 166.427 165.774 165.079 166.723 166.949 166.698 166.393 
165.724 165.063 164.258 165.877 166.314 166.229 166.388 165.86 165.501 
164.608 164.026 163.103 164.943 165.354 165.173 165.612 165.176 165.265 
164.38 164.082 163.055 162.657 161.716 163.914 164.319 163.946 164.388 
163.908 164.257 163.475 163.51 162.506 162.349 161.396 161.162 160.258 
162.63 163.14 162.722 163.122 162.588 162.932 162.248 162.444 161.595 
161.624 160.742 160.672 159.803 159.624 158.712 161.157 161.749 161.396 
161.859 161.344 161.674 161.013 161.244 160.498 160.653 159.88 159.94 
159.134 159.067 158.201 158.025 157.138 159.732 160.282 159.953 160.474 
159.992 160.399 159.735 160.019 159.271 159.518 158.799 159.005 158.279 
158.347 157.547 157.467 156.636 156.483 155.695 166.149 166.325 166.604 
167.015 165.83 166.482 166.929 167.183 167.208 164.8 165.675 166.124 
166.726 166.743 166.97 166.666 163.498 164.445 164.873 165.677 165.805 
166.269 166.062 166.231 165.853 162.054 163.022 163.407 164.311 164.523 
165.213 165.189 165.573 165.356 165.466 165.08 160.552 161.5 161.827 
162.766 162.953 163.805 163.828 164.521 164.4 164.851 164.543 164.663 
164.121 159.114 159.974 160.235 161.14 161.293 162.166 162.167 162.976 
162.847 163.578 163.303 163.818 163.302 163.485 162.768 157.834 158.568 
158.749 159.556 159.682 160.513 160.534 161.314 161.188 161.912 161.653 
162.315 161.89 162.363 161.735 161.957 161.227 156.703 157.339 157.456 
158.132 158.202 158.945 158.966 159.723 159.631 160.315 160.077 160.691 
160.345 160.882 160.424 160.803 160.233 160.434 159.814 151.189 151.911 
151.96 152.854 152.65 152.738 153.698 153.765 154.756 153.438 153.546 
154.577 154.641 155.617 155.665 156.574 154.261 154.379 155.438 155.528 
156.516 156.54 157.418 157.403 158.206 155.039 155.183 156.182 156.318 
157.294 157.4 158.314 158.306 159.124 159.039 159.817 155.629 155.851 
156.758 156.945 157.862 158.074 159.049 159.182 160.074 160.024 160.802 
160.68 161.412 155.985 156.282 157.14 157.395 158.274 158.554 159.559 
159.842 160.846 160.945 161.784 161.692 162.43 162.273 162.924 156.219 
156.532 157.371 157.683 158.564 158.9 159.897 160.276 161.331 161.618 
162.564 162.631 163.448 163.339 164.062 163.805 164.333 156.397 156.711 
157.512 157.859 158.727 159.12 160.085 160.526 161.547 161.974 162.956 
163.26 164.157 164.278 165.076 164.969 165.567 165.188 165.492 150.393 
149.403 150.275 151.022 148.26 149.2 149.913 150.863 151.664 147.038 
147.992 148.726 149.706 150.482 151.489 152.367 145.955 146.799 147.548 
148.52 149.312 150.293 151.132 152.2 153.153 145.073 145.784 146.438 
147.357 148.13 149.113 149.899 150.938 151.847 152.995 153.958 144.214 
144.885 145.38 146.221 146.891 147.882 148.631 149.665 150.496 151.64 
152.591 153.763 154.622 143.273 143.948 144.359 145.119 145.685 146.615 
147.34 148.365 149.168 150.265 151.158 152.341 153.237 154.346 155.057 
142.372 143.004 143.43 144.11 144.639 145.452 146.141 147.098 147.888 
148.933 149.778 150.906 151.785 152.932 153.73 154.746 155.361 141.62 
142.186 142.644 143.255 143.778 144.482 145.114 145.96 146.695 147.666 
148.459 149.525 150.357 151.489 152.316 153.41 154.127 155.062 155.606 
141.394 141.461 141.756 142.44 141.592 141.875 142.597 142.867 143.594 
141.764 142.039 142.792 143.066 143.846 144.105 144.922 142.038 142.268 
143.076 143.324 144.177 144.426 145.318 145.557 146.484 142.488 142.645 
143.508 143.709 144.65 144.871 145.857 146.056 147.051 147.241 148.245 
143.039 143.177 144.045 144.22 145.197 145.427 146.488 146.697 147.751 
147.905 148.949 149.098 150.145 143.552 143.732 144.622 144.797 145.777 
146.002 147.089 147.345 148.448 148.645 149.718 149.867 150.942 151.07 
152.111 144.07 144.257 145.22 145.405 146.423 146.62 147.708 147.951 
149.081 149.322 150.428 150.627 151.71 151.876 152.914 153.021 153.944 
144.718 144.856 145.868 146.046 147.091 147.284 148.357 148.585 149.699 
149.952 151.062 151.298 152.362 152.576 153.573 153.746 154.624 154.715 
155.442 145.472 147.084 146.384 146.643 148.764 148.051 148.311 147.602 
147.873 150.474 149.761 150.045 149.308 149.596 148.869 149.161 152.255 
151.542 151.912 151.129 151.477 150.679 151.027 150.235 150.545 154.053 
153.385 153.85 153.091 153.491 152.66 153.025 152.189 152.52 151.669 
151.933 155.724 155.157 155.613 154.975 155.346 154.621 154.916 154.15 
154.419 153.625 153.858 153.018 153.211 157.11 156.696 157.097 156.583 
156.893 156.295 156.535 155.88 156.085 155.39 155.574 154.836 155.002 
154.218 154.366 158.18 157.917 158.337 157.931 158.257 157.733 158.009 
157.408 157.65 156.982 157.165 156.452 156.59 155.878 156 155.271 
155.356 159.094 158.913 159.432 159.119 159.54 159.084 159.43 158.879 
159.18 158.552 158.765 158.046 158.155 157.413 157.48 156.78 156.825 
156.129 156.124 145.069 144.964 145.56 146.662 144.711 145.414 146.559 
147.211 148.346 144.249 145.069 146.296 147.083 148.338 148.948 150.081 
143.779 144.607 145.98 146.848 148.297 148.999 150.264 150.735 151.842 
143.54 144.273 145.741 146.62 148.229 149.038 150.461 150.985 152.134 
152.52 153.601 143.535 144.169 145.571 146.411 147.976 148.916 150.413 
151.15 152.362 152.822 153.874 154.267 155.287 143.627 144.198 145.459 
146.199 147.583 148.521 149.968 150.92 152.209 152.914 153.965 154.464 
155.407 155.836 156.688 143.741 144.26 145.419 146.047 147.29 148.086 
149.454 150.398 151.746 152.606 153.703 154.358 155.23 155.78 156.552 
157.031 157.716 143.89 144.35 145.434 145.983 147.129 147.807 149.089 
149.94 151.285 152.146 153.273 153.97 154.802 155.408 156.122 156.716 
157.403 157.925 158.569 144.05 142.483 143.473 143.896 140.843 141.812 
142.177 143.271 143.636 139.232 140.06 140.262 141.41 141.764 142.896 
143.15 137.89 138.479 138.452 139.407 139.692 140.9 141.211 142.328 
142.599 136.73 137.26 137.168 137.771 137.93 138.895 139.283 140.391 
140.762 141.854 142.301 135.452 136.107 136.149 136.681 136.799 137.445 
137.823 138.697 139.193 140.151 140.662 141.72 142.326 134.228 134.85 
135.008 135.653 135.856 136.47 136.816 137.524 138.041 138.837 139.389 
140.256 140.841 141.853 142.492 133.387 133.81 134.012 134.588 134.909 
135.533 135.92 136.589 137.088 137.833 138.396 139.156 139.702 140.52 
141.1 142.06 142.676 132.932 133.19 133.444 133.842 134.27 134.761 
135.243 135.778 136.285 136.926 137.498 138.223 138.786 139.506 140.037 
140.814 141.389 142.291 142.896 132.872 133.252 133.126 133.44 133.951 
133.688 134 133.878 134.31 134.709 134.435 134.742 134.569 134.98 
134.844 135.285 135.498 135.191 135.496 135.32 135.727 135.561 135.942 
135.803 136.267 136.466 136.065 136.357 136.095 136.482 136.291 136.662 
136.48 136.899 136.824 137.414 137.515 137.103 137.354 137.008 137.318 
137.054 137.405 137.204 137.63 137.507 138.068 138.049 138.697 138.449 
138.102 138.317 137.98 138.216 137.899 138.199 137.968 138.41 138.273 
138.841 138.759 139.378 139.335 139.956 139.28 138.968 139.186 138.882 
139.122 138.794 139.09 138.812 139.273 139.102 139.706 139.581 140.209 
140.087 140.706 140.618 141.275 140.107 139.792 140.023 139.729 140.002 
139.699 140.037 139.756 140.24 140.035 140.649 140.491 141.128 140.97 
141.596 141.454 142.116 142.024 142.743 140.661 141.529 140.914 140.592 
142.494 141.828 141.499 140.879 140.583 143.695 142.899 142.61 141.877 
141.624 140.951 140.709 145.274 144.315 144.094 143.185 143.008 142.181 
142.027 141.228 141.04 147.103 146.073 145.9 144.88 144.724 143.76 
143.616 142.71 142.541 141.669 141.483 149.017 147.975 147.823 146.777 
146.605 145.572 145.354 144.363 144.122 143.206 142.98 142.129 141.932 
150.941 149.922 149.782 148.724 148.55 147.476 147.236 146.148 145.863 
144.828 144.588 143.656 143.47 142.598 142.42 152.717 151.807 151.671 
150.666 150.482 149.424 149.208 148.094 147.836 146.694 146.458 145.388 
145.229 144.244 144.103 143.151 142.989 154.235 153.464 153.338 152.455 
152.264 151.297 151.091 150.06 149.833 148.723 148.467 147.345 147.129 
146.084 145.924 144.928 144.769 143.783 143.627 144.337 145.496 145.218 
145.855 146.67 146.4 147.065 146.798 147.522 147.921 147.621 148.342 
148.056 148.874 148.608 149.497 149.312 148.982 149.763 149.422 150.296 
150.034 151.014 150.743 151.68 150.695 150.43 151.262 150.924 151.762 
151.475 152.382 152.183 153.049 152.817 153.548 151.931 151.762 152.623 
152.387 153.18 152.892 153.632 153.408 154.115 153.954 154.575 154.401 
154.958 153.069 152.942 153.813 153.663 154.467 154.22 154.891 154.59 
155.209 154.957 155.578 155.357 155.951 155.726 156.285 154.113 154.035 
154.903 154.808 155.653 155.462 156.18 155.856 156.5 156.154 156.851 
156.527 157.234 156.879 157.502 157.133 157.658 154.99 154.994 155.852 
155.839 156.702 156.611 157.388 157.147 157.832 157.509 158.229 157.918 
158.675 158.316 158.969 158.511 159.013 158.529 158.919 138.309 138.001 
137.848 137.254 137.998 137.659 137.014 136.762 136.028 138.246 137.787 
137.153 136.719 135.937 135.498 134.724 138.594 138.081 137.482 137.013 
136.305 135.664 134.806 134.305 133.776 139.059 138.473 137.856 137.379 
136.792 136.188 135.429 134.689 134.04 133.628 133.372 139.537 138.98 
138.327 137.788 137.206 136.687 136.091 135.437 134.845 134.19 133.78 
133.375 133.122 139.773 139.38 138.746 138.249 137.608 137.103 136.518 
136.025 135.513 134.988 134.533 133.982 133.564 133.109 132.789 139.851 
139.535 138.984 138.589 137.991 137.507 136.896 136.412 135.877 135.47 
135.019 134.608 134.146 133.655 133.222 132.811 132.592 140.052 139.684 
139.228 138.844 138.377 137.919 137.403 136.864 136.338 135.835 135.394 
134.986 134.607 134.18 133.797 133.331 133.049 132.721 132.67 138.401 
137.315 138.002 138.281 135.996 136.791 137.099 137.903 138.3 134.671 
135.412 135.747 136.638 137.143 138.001 138.523 133.842 134.319 134.732 
135.418 135.959 136.792 137.383 138.255 138.77 133.453 133.775 134.248 
134.728 135.257 135.801 136.317 137.065 137.621 138.453 138.899 133.016 
133.349 133.687 134.264 134.759 135.273 135.695 136.194 136.687 137.365 
137.932 138.633 139.102 132.583 132.798 132.952 133.509 133.946 134.621 
135.077 135.637 136.089 136.638 137.206 137.821 138.411 138.991 139.51 
132.466 132.48 132.617 132.876 133.283 133.797 134.336 134.942 135.48 
136.066 136.621 137.212 137.803 138.387 138.951 139.493 140.018 132.628 
132.553 132.746 132.796 133.178 133.407 133.936 134.352 134.965 135.487 
136.106 136.655 137.26 137.818 138.408 138.957 139.517 140.035 140.558 
139.047 138.964 139.33 140.042 138.994 139.278 139.985 140.383 141.182 
139.22 139.392 140.045 140.354 141.176 141.606 142.471 139.478 139.661 
140.258 140.471 141.244 141.639 142.544 142.945 143.792 139.575 139.838 
140.431 140.668 141.386 141.748 142.649 143.049 143.889 144.232 145.016 
139.718 139.924 140.564 140.808 141.547 141.888 142.781 143.18 144.038 
144.348 145.08 145.405 146.161 140.104 140.2 140.907 141.064 141.867 
142.107 142.973 143.307 144.146 144.479 145.221 145.512 146.243 146.566 
147.322 140.61 140.68 141.411 141.541 142.364 142.532 143.338 143.54 
144.278 144.551 145.275 145.613 146.378 146.717 147.506 147.788 148.532 
141.118 141.187 141.875 142.029 142.795 142.999 143.743 143.914 144.572 
144.735 145.406 145.674 146.461 146.828 147.673 148.012 148.802 149.04 
149.759 143.844 143.197 143.108 142.324 142.724 142.555 141.759 141.618 
140.808 142.228 142.093 141.304 141.139 140.352 140.162 139.369 141.662 
141.539 140.722 140.621 139.83 139.726 138.965 138.799 138.072 141.241 
141.022 140.2 140.022 139.196 139.105 138.296 138.261 137.475 137.453 
136.741 141.012 140.72 139.939 139.639 138.819 138.555 137.69 137.523 
136.653 136.641 135.854 135.976 135.31 140.85 140.546 139.77 139.455 
138.653 138.318 137.46 137.096 136.205 135.929 135.151 135.088 134.489 
134.588 134.107 140.745 140.418 139.652 139.309 138.523 138.183 137.38 
136.993 136.159 135.735 134.982 134.675 134.128 134.005 133.612 133.616 
133.312 140.735 140.381 139.686 139.284 138.566 138.148 137.433 137.005 
136.285 135.826 135.126 134.707 134.13 133.858 133.437 133.314 133.005 
133 132.816 
POINT_DATA 1002
SCALARS Distance double
LOOKUP_TABLE default
141.247 140.421 141.113 141.977 141.921 142.163 142.704 142.857 142.889 
143.181 143.46 143.959 143.504 143.977 144.532 144.339 144.954 144.208 
144.745 145.557 146.256 145.11 145.381 145.234 145.824 146.721 147.523 
148.128 145.622 145.425 146.331 147.247 148.16 148.949 149.544 150.052 
146.315 145.776 147.374 148.568 149.581 150.392 151.011 151.504 151.93 
147.467 146.693 148.586 149.741 150.749 151.638 152.368 152.894 153.288 
153.573 148.818 147.933 149.9 150.934 151.853 152.758 153.591 154.195 
154.574 154.819 154.961 140.148 140.947 140.09 140.973 140.034 141.909 
140.928 139.671 142.007 143.125 140.624 139.143 141.96 143.323 144.552 
140.239 138.731 141.735 143.188 144.843 145.636 139.861 138.409 141.47 
142.881 144.619 146.002 145.88 139.508 138.237 141.159 142.663 144.239 
145.884 146.302 145.69 139.387 138.382 140.857 142.471 144.015 145.557 
146.374 146.07 145.849 139.582 138.772 140.741 142.211 143.763 145.207 
146.149 146.25 146.107 146.635 139.714 140.635 140.794 141.784 142.019 
141.814 143.048 143.329 142.916 143.246 144.521 144.609 144.265 144.274 
144.73 146.065 145.794 146.015 145.6 145.489 145.803 147.302 146.914 
147.599 147.202 146.482 146.169 146.207 148.239 148.047 148.535 148.421 
147.764 147.118 146.719 146.405 149.287 149.242 149.395 149.364 149.023 
148.599 148.2 147.67 147.09 150.596 150.468 150.74 150.787 150.584 
150.289 150.054 149.653 149.006 148.377 149.872 150.424 151.984 151.119 
152.666 154.172 151.703 153.375 154.997 156.355 152.06 153.907 155.681 
157.183 158.246 152.444 154.419 156.193 157.804 159.012 159.912 152.793 
154.977 156.725 158.257 159.659 160.707 161.575 152.736 155.063 156.96 
158.439 159.949 161.297 162.3 163.116 152.354 154.526 156.529 158.1 
159.64 161.225 162.56 163.624 164.471 151.959 153.825 155.754 157.418 
158.962 160.574 162.113 163.507 164.739 165.664 150.931 153.055 151.998 
155.243 154.116 152.973 157.346 156.301 155.164 153.939 159.211 158.34 
157.282 156.118 154.858 161.02 160.31 159.263 158.069 156.874 155.559 
162.7 162.163 161.267 160.011 158.742 157.437 155.988 164.16 163.675 
162.978 161.897 160.6 159.253 157.751 156.205 165.505 165.024 164.365 
163.437 162.204 160.849 159.388 157.803 156.286 166.712 166.449 167.306 
166.982 167.103 165.851 166.766 166.307 166.349 164.975 165.873 165.458 
166.053 165.181 163.669 164.737 164.639 164.914 164.562 163.398 162.099 
163.585 163.52 163.517 163.296 162.57 161.552 160.541 162.316 162.056 
162.266 161.984 161.467 160.75 159.926 158.946 160.877 160.541 160.995 
160.772 160.283 159.744 159.147 158.332 157.327 159.43 159.228 159.553 
159.43 159.004 158.527 158.127 157.566 156.745 155.838 166.073 167.029 
165.876 166.543 165.073 167.218 165.411 163.918 166.419 166.594 164.006 
162.571 165.202 165.797 165.797 162.49 161.103 163.726 164.643 165.129 
165.147 160.908 159.647 162.085 163.05 163.795 164.279 164.206 159.37 
158.326 160.429 161.366 162.088 162.662 162.972 162.731 158.01 157.169 
158.871 159.747 160.49 160.987 161.313 161.387 161.087 156.842 156.101 
157.518 158.219 158.934 159.47 159.776 159.949 159.937 159.676 151.143 
152.78 151.812 153.625 152.518 154.692 154.5 153.301 155.61 156.552 
155.338 154.146 156.477 157.462 158.241 156.068 154.906 157.142 158.264 
159.219 159.917 156.581 155.403 157.628 158.819 160.068 160.941 161.552 
156.863 155.691 157.979 159.218 160.642 161.831 162.584 163.155 157.044 
155.923 158.209 159.506 160.969 162.382 163.481 164.28 164.753 149.57 
150.116 148.527 148.96 147.296 150.665 147.723 146.1 149.497 151.287 
146.579 145.19 148.345 150.098 152.015 145.59 144.445 147.151 148.9 
150.705 152.826 144.627 143.573 145.928 147.6 149.396 151.392 153.558 
143.647 142.603 144.809 146.322 148.103 150.01 152.077 154.078 142.767 
141.749 143.881 145.232 146.875 148.692 150.635 152.645 154.47 142.046 
141.068 143.122 144.337 145.779 147.437 149.251 151.188 153.118 154.796 