# vtk DataFile Version 4.0
vtk output
ASCII
DATASET POLYDATA
POINTS 1002 float
-72.911 -108.233 61.3272 -73.1143 -107.05 60.6433 -73.766 -107.336 60.8335 
-73.5474 -108.673 61.5276 -74.4327 -107.677 61.0449 -72.7813 -109.547 62.1767 
-74.2108 -109.205 61.693 -75.1417 -108.13 61.2108 -73.4107 -110.142 62.3802 
-72.7407 -110.99 63.0748 -74.807 -109.89 61.8276 -75.7969 -108.914 61.3275 
-73.9985 -110.877 62.5477 -73.286 -111.815 63.2283 -72.6932 -112.895 63.7899 
-75.148 -110.919 61.9136 -76.119 -110.041 61.3837 -74.4186 -111.857 62.6836 
-73.7439 -112.885 63.3581 -73.1377 -114.093 63.8874 -72.6814 -115.37 64.4362 
-75.2222 -112.191 61.8757 -76.064 -111.216 61.2939 -74.6813 -113.182 62.7245 
-74.1743 -114.244 63.4604 -73.6265 -115.476 64.0574 -73.2207 -116.727 64.7117 
-72.915 -117.763 65.4281 -75.3447 -113.367 61.8259 -75.984 -112.339 61.1412 
-75.0202 -114.504 62.7899 -74.7039 -115.663 63.644 -74.2669 -116.808 64.4089 
-73.9232 -117.9 65.242 -73.6733 -118.832 66.0496 -73.375 -119.556 66.7443 
-75.7369 -114.414 62.0452 -76.1322 -113.481 61.2339 -75.5971 -115.507 63.1347 
-75.3943 -116.707 64.1346 -75.018 -117.803 65.0645 -74.7231 -118.723 66.0622 
-74.5356 -119.565 66.919 -74.2565 -120.339 67.5286 -73.903 -120.961 68.0549 
-76.2928 -115.434 62.6011 -76.4731 -114.571 61.6923 -76.2919 -116.37 63.75 
-76.1892 -117.439 64.859 -75.8606 -118.486 65.8885 -75.5786 -119.363 66.9539 
-75.437 -120.166 67.8476 -75.2054 -120.989 68.4017 -74.8585 -121.713 68.8264 
-74.5251 -122.203 69.3015 -76.8678 -116.391 63.2952 -76.9198 -115.535 62.3437 
-76.9348 -117.241 64.4264 -76.9576 -118.163 65.574 -76.7747 -119.127 66.635 
-76.5426 -120.033 67.6572 -76.4257 -120.876 68.5538 -76.2385 -121.687 69.1685 
-75.9003 -122.411 69.6141 -75.5667 -122.929 70.0735 -75.2763 -123.208 70.5428 
-73.7814 -106.15 60.1351 -74.5311 -106.371 60.3782 -74.5377 -105.397 59.5909 
-75.3986 -105.638 59.8504 -75.3454 -104.886 58.8827 -75.2873 -106.621 60.6687 
-76.3186 -105.244 59.0717 -76.1827 -104.519 58.0299 -76.2678 -105.927 60.1776 
-76.1531 -107.12 60.8937 -77.2497 -104.862 58.2753 -77.0377 -104.053 57.3439 
-77.2602 -105.619 59.4126 -77.2626 -106.553 60.4819 -76.9788 -108.081 61.0816 
-78.1573 -104.222 57.8675 -77.8878 -103.461 56.8372 -78.2258 -105.219 58.8023 
-78.2657 -106.247 59.9144 -78.1848 -107.507 60.927 -77.3472 -109.231 61.2537 
-78.9149 -103.679 57.4752 -78.6127 -103.024 56.026 -79.1631 -104.707 58.5698 
-79.2823 -105.841 59.5311 -79.2881 -107.014 60.7429 -78.6737 -108.483 61.4186 
-77.2346 -110.356 61.1929 -79.3503 -103.607 56.5456 -79.068 -102.98 54.8537 
-79.8089 -104.533 58.0828 -80.2712 -105.532 59.1984 -80.4555 -106.6 60.4213 
-80.0392 -107.901 61.4868 -78.674 -109.599 61.4452 -77.015 -111.583 60.9443 
-79.5181 -103.912 55.3819 -79.2803 -103.326 53.8096 -80.0009 -104.693 57.0959 
-80.7436 -105.473 58.4693 -81.3139 -106.398 59.7493 -81.2599 -107.617 61.0767 
-80.1663 -109.105 61.546 -78.3404 -110.9 61.0675 -76.9177 -112.832 60.9106 
-79.6065 -104.383 54.5163 -79.3719 -103.919 53.1744 -79.9988 -104.968 56.1013 
-80.6979 -105.544 57.5007 -81.4463 -106.359 58.7951 -81.8261 -107.589 60.2426 
-81.2823 -108.954 61.2011 -79.6612 -110.405 61.109 -77.9049 -112.13 60.8043 
-76.9953 -113.942 61.242 -79.575 -104.832 53.5908 -79.9075 -105.261 55.0434 
-79.73 -105.758 54.2891 -80.2816 -106.214 55.5781 -79.8604 -106.839 54.9467 
-80.4664 -105.724 56.4269 -80.6391 -107.6 55.9012 -80.0252 -108.188 55.3635 
-80.9444 -106.93 56.6869 -81.154 -106.454 57.6873 -80.7612 -109.071 56.2305 
-80.0824 -109.485 55.8311 -81.2799 -108.704 57.0185 -81.5026 -108.179 58.1038 
-81.7428 -107.757 59.2198 -80.3785 -110.128 56.8095 -79.822 -110.869 56.5636 
-81.0724 -109.95 57.5004 -81.5836 -109.94 58.6394 -81.7697 -109.641 59.7538 
-81.7286 -109.208 60.5858 -79.7507 -111.668 57.4758 -79.4314 -112.905 57.34 
-80.2198 -110.839 57.953 -80.8687 -110.836 58.8611 -81.2056 -111.019 59.8399 
-81.0078 -110.79 60.4868 -80.4631 -110.459 60.8731 -79.3852 -114.158 58.2807 
-79.1259 -115.164 58.2027 -79.5163 -112.906 58.5715 -79.7533 -112.2 59.0797 
-79.9578 -112.225 59.6577 -79.7494 -112.258 60.0842 -79.2085 -112.027 60.3854 
-78.5808 -111.943 60.6466 -79.2011 -116.471 59.5427 -78.824 -116.82 59.4562 
-79.3841 -115.723 59.7635 -79.3545 -114.843 60.042 -79.1641 -114.317 60.2829 
-78.7936 -114.147 60.4284 -78.3182 -113.946 60.5758 -77.876 -113.746 60.8273 
-77.451 -113.775 61.0831 -78.9674 -117.926 61.1604 -78.5249 -117.881 61.0205 
-79.4007 -117.856 61.3595 -79.6357 -117.466 61.5676 -79.4987 -116.805 61.7571 
-79.0313 -116.245 61.8821 -78.4981 -115.94 61.9274 -78.081 -115.725 61.9878 
-77.7165 -115.574 62.1137 -77.3184 -115.537 62.2426 -77.4739 -117.03 63.6803 
-77.9805 -117.192 63.6731 -78.2068 -118.558 65.173 -78.5333 -117.342 63.744 
-78.8647 -118.795 65.2959 -79.0834 -119.975 66.7729 -79.0637 -117.429 63.851 
-79.6278 -118.873 65.523 -79.836 -120.173 66.9313 -80.1644 -121.203 68.4815 
-79.6253 -117.58 63.8161 -80.3742 -118.803 65.583 -80.6811 -120.179 67.0106 
-80.907 -121.367 68.6014 -81.2396 -122.409 70.3503 -80.1444 -118.148 63.5514 
-80.9663 -119.075 65.2266 -81.3972 -120.255 66.7169 -81.588 -121.544 68.4539 
-81.8424 -122.668 70.5291 -82.0418 -123.742 72.4559 -80.2611 -118.945 63.2586 
-81.0994 -119.897 64.7403 -81.6596 -120.814 66.2026 -81.9221 -121.994 68.0225 
-82.2132 -123.156 70.2703 -82.4749 -124.216 72.5121 -82.7148 -124.942 74.3428 
-79.8362 -119.3 63.0922 -80.588 -120.52 64.5331 -81.2773 -121.503 65.9456 
-81.6834 -122.564 67.7231 -82.1227 -123.756 69.8082 -82.6411 -124.857 71.9585 
-83.0436 -125.602 73.8855 -83.4173 -125.759 75.4431 -79.1846 -119.141 62.9557 
-79.7596 -120.467 64.5141 -80.4962 -121.684 65.9428 -81.038 -122.787 67.645 
-81.5603 -124.024 69.4966 -82.3312 -125.268 71.2907 -83.069 -126.125 73.0392 
-83.5823 -126.456 74.6211 -83.9644 -126.411 75.9581 -78.6321 -118.919 62.764 
-79.0542 -120.177 64.4099 -79.7344 -121.481 65.8761 -80.3383 -122.644 67.4797 
-80.8498 -123.885 69.1831 -81.6289 -125.252 70.7387 -82.5858 -126.274 72.2806 
-83.3273 -126.758 73.833 -83.8186 -126.985 75.1967 -84.158 -127.163 76.3489 
-77.5236 -117.913 64.7964 -78.3227 -119.434 66.4133 -77.6514 -118.804 66.0332 
-79.355 -120.822 68.1644 -78.5545 -120.328 67.7655 -77.7033 -119.744 67.2288 
-80.4805 -122.145 69.9758 -79.5849 -121.766 69.5423 -78.6291 -121.316 68.9456 
-77.5956 -120.73 68.269 -81.4377 -123.512 72.0184 -80.534 -123.203 71.3994 
-79.5112 -122.814 70.7114 -78.5405 -122.375 69.8938 -77.5007 -121.71 69.1647 
-82.3221 -124.57 74.3121 -81.5825 -124.304 73.7118 -80.4832 -124.021 72.8673 
-79.4154 -123.704 71.8543 -78.4492 -123.274 70.781 -77.3516 -122.56 69.9063 
-83.217 -125.088 76.0708 -82.7501 -124.633 76.0487 -81.7797 -124.532 75.3673 
-80.5017 -124.468 74.2833 -79.3243 -124.223 72.9606 -78.1957 -123.818 71.6376 
-77.0016 -123.199 70.5327 -83.9068 -125.607 76.8959 -83.5753 -124.799 77.4923 
-82.8175 -124.589 77.3242 -81.6193 -124.824 76.4501 -80.2739 -124.811 75.201 
-79.0102 -124.496 73.7707 -77.798 -124.141 72.3451 -76.6234 -123.643 71.1022 
-84.241 -126.578 77.2602 -83.9253 -125.658 78.1029 -83.2037 -125.068 78.3778 
-82.1897 -125.183 77.8514 -81.0096 -125.384 76.8153 -79.7645 -125.139 75.5598 
-78.5562 -124.753 74.1707 -77.4138 -124.407 72.7949 -76.3087 -123.905 71.5772 
-84.1922 -127.933 77.245 -84.0993 -127.354 78.203 -83.8329 -128.737 78.0072 
-83.3965 -128.112 78.9384 -82.7951 -128.987 78.3699 -83.4023 -126.441 78.8912 
-82.0307 -128.313 79.0982 -81.0624 -128.91 78.1938 -82.3919 -127.181 79.3388 
-82.3755 -125.926 78.8149 -80.1744 -128.423 78.6308 -79.2762 -129.231 77.7185 
-80.983 -127.439 79.2075 -81.3372 -126.537 78.9479 -81.3335 -125.923 78.0039 
-78.4098 -128.872 77.9991 -77.9285 -129.621 77.2372 -79.2231 -127.767 78.58 
-80.0241 -126.714 78.6841 -80.3473 -126.194 77.9762 -80.2122 -125.781 76.8301 
-77.0211 -129.033 77.4276 -76.6862 -129.53 76.6723 -77.541 -128.218 77.867 
-78.3553 -127.072 78.0216 -78.9893 -126.262 77.6322 -79.1536 -125.898 76.628 
-78.9753 -125.382 75.4578 -75.7767 -128.742 76.652 -75.3733 -129.256 75.8849 
-76.2048 -128.203 77.1263 -76.844 -127.427 77.2231 -77.4811 -126.573 76.9575 
-77.8153 -126.042 76.1804 -77.918 -125.589 75.1178 -77.8013 -124.983 74.0327 
-74.6405 -128.432 75.6398 -74.2885 -129.003 74.9873 -75.0196 -127.872 76.1837 
-75.5886 -127.35 76.3635 -76.235 -126.76 76.164 -76.6121 -126.201 75.6004 
-76.7543 -125.69 74.7181 -76.8275 -125.091 73.7599 -76.6891 -124.482 72.739 
-73.6942 -128.15 74.6683 -73.4725 -128.632 74.1404 -73.9006 -127.57 75.2016 
-74.2902 -127.047 75.4807 -74.939 -126.583 75.3591 -75.5043 -126.111 74.9427 
-75.71 -125.598 74.2928 -75.7516 -124.997 73.4824 -75.7459 -124.371 72.5974 
-75.5743 -123.8 71.6007 -83.7755 -127.697 76.09 -83.636 -128.544 76.8284 
-82.9196 -127.922 75.7069 -82.5998 -128.661 76.0915 -81.8419 -128.07 74.9336 
-83.0776 -129.123 77.2557 -81.4413 -128.679 75.0538 -80.8101 -128.173 73.9047 
-81.8579 -129.052 76.1932 -81.749 -129.152 77.3366 -80.3266 -128.708 73.9956 
-79.7507 -128.021 72.9236 -80.6008 -129.092 75.1076 -80.4394 -129.287 76.2313 
-79.9703 -129.353 77.1344 -79.0917 -128.544 72.9382 -78.6007 -127.698 71.947 
-79.3722 -129.161 73.9968 -79.2603 -129.583 75.1629 -78.9688 -129.898 76.0948 
-78.571 -129.93 76.7413 -77.8335 -128.172 71.8419 -77.5385 -127.319 70.9204 
-78.0719 -128.931 72.7353 -78.1268 -129.567 73.8512 -78.0448 -130.125 74.9062 
-77.8592 -130.368 75.6216 -77.3942 -130.11 76.2129 -76.8149 -127.645 70.809 
-76.6901 -126.816 69.8786 -76.9187 -128.467 71.5864 -77.0051 -129.229 72.4527 
-77.0224 -129.881 73.4638 -76.8783 -130.31 74.3109 -76.4889 -130.318 74.9922 
-75.9256 -129.906 75.5744 -76.0857 -127.081 69.6872 -76.0666 -126.282 68.7443 
-76.079 -127.932 70.5176 -76.0868 -128.843 71.2481 -76.0496 -129.623 72.0255 
-75.8185 -130.102 72.8335 -75.372 -130.272 73.6373 -74.8965 -130.128 74.3868 
-74.5503 -129.67 74.858 -75.5638 -126.611 68.3915 -75.6162 -125.826 67.5629 
-75.4844 -127.429 69.2251 -75.4113 -128.373 69.9942 -75.2893 -129.3 70.6891 
[...]
CELL_DATA 2000
SCALARS Distance double
LOOKUP_TABLE default
142.685 143.369 143.289 143.866 144.124 144.032 144.664 144.577 145.244 
144.998 144.85 145.53 145.436 146.154 146.048 146.825 145.993 145.792 
146.484 146.369 147.16 147.038 147.898 147.79 148.765 146.934 146.79 
147.522 147.416 148.308 148.167 149.146 148.999 150.083 149.957 151.077 
147.764 147.699 148.559 148.526 149.565 149.453 150.542 150.377 151.519 
151.372 152.52 152.35 153.389 148.699 148.618 149.629 149.635 150.811 
150.774 151.93 151.811 152.934 152.807 153.911 153.769 154.772 154.561 
155.431 149.849 149.733 150.838 150.814 152.046 152.037 153.223 153.153 
154.256 154.158 155.223 155.103 156.093 155.904 156.779 156.517 157.292 
151.087 150.991 152.121 152.083 153.298 153.285 154.469 154.415 155.527 
155.439 156.518 156.402 157.417 157.23 158.131 157.869 158.664 158.349 
159.047 142.146 141.662 142.184 142.803 141.345 141.777 142.361 142.865 
143.524 141.162 141.549 142.148 142.528 143.171 143.663 144.411 141.014 
141.413 142.065 142.413 143.098 143.476 144.258 144.701 145.487 140.856 
141.277 141.975 142.365 143.112 143.496 144.334 144.717 145.498 145.825 
146.474 140.672 141.127 141.898 142.326 143.152 143.548 144.444 144.846 
145.674 145.943 146.515 146.719 147.244 140.451 140.939 141.802 142.306 
143.239 143.656 144.605 144.997 145.905 146.18 146.8 146.865 147.277 
147.451 148.052 140.315 140.751 141.636 142.199 143.167 143.703 144.658 
145.143 146.086 146.456 147.168 147.237 147.613 147.588 148.014 148.304 
149.066 140.407 140.714 141.545 142.03 142.925 143.5 144.399 145.021 
145.973 146.553 147.365 147.61 148.006 147.94 148.188 148.286 148.84 
149.331 150.209 140.803 141.801 141.47 141.903 142.892 142.525 142.928 
142.638 143.174 144.131 143.719 144.165 143.741 144.236 143.959 144.609 
145.368 145.012 145.581 145.147 145.734 145.247 145.93 145.569 146.311 
146.416 146.098 146.607 146.446 147.123 146.845 147.524 147.096 147.72 
147.296 147.771 147.704 147.111 147.354 147.169 147.699 147.814 148.409 
148.396 148.747 148.497 148.612 148.308 148.3 149.536 148.672 148.846 
148.12 148.463 148.226 148.748 148.815 149.13 149.072 149.039 148.826 
148.702 148.478 148.432 151.411 150.682 151.07 150.098 150.495 149.585 
150.102 149.501 149.999 149.56 149.826 149.362 149.507 149.06 149.287 
148.884 149.192 152.906 152.47 153.081 152.41 153.003 152.06 152.616 
151.57 152.112 151.143 151.657 150.78 151.265 150.457 150.972 150.25 
150.798 150.145 150.671 151.865 152.104 152.645 153.962 152.387 152.97 
154.415 154.864 156.183 152.714 153.321 154.861 155.372 156.747 157.108 
158.379 153.122 153.693 155.234 155.795 157.198 157.64 158.913 159.292 
160.573 153.685 154.18 155.678 156.16 157.534 158.011 159.305 159.766 
161.084 161.513 162.852 154.236 154.762 156.218 156.639 157.931 158.344 
159.626 160.112 161.477 161.989 163.388 163.822 165.091 154.428 155.104 
156.437 157.026 158.209 158.694 159.875 160.395 161.717 162.313 163.712 
164.274 165.548 165.931 166.903 154.207 154.961 156.108 156.908 158.01 
158.723 159.8 160.467 161.646 162.374 163.668 164.408 165.623 166.201 
167.145 167.464 168.125 153.844 154.534 155.557 156.377 157.461 158.294 
159.351 160.144 161.211 162.045 163.202 164.095 165.229 166.017 166.922 
167.473 168.127 168.459 168.987 152.15 154.223 153.191 153.258 156.41 
155.353 155.443 154.38 154.459 158.637 157.593 157.735 156.642 156.734 
155.613 155.636 160.894 159.87 160.068 158.976 159.093 157.943 157.96 
156.773 156.718 163.212 162.194 162.428 161.326 161.442 160.3 160.334 
159.143 159.091 157.853 157.742 165.419 164.509 164.759 163.695 163.791 
162.639 162.649 161.485 161.44 160.236 160.093 158.837 158.63 167.129 
166.484 166.668 165.852 165.911 164.913 164.863 163.751 163.628 162.48 
162.281 161.098 160.811 159.599 159.288 168.307 167.872 167.97 167.411 
167.412 166.729 166.652 165.785 165.586 164.542 164.232 163.12 162.765 
161.64 161.267 160.128 159.766 169.263 168.918 169.05 168.536 168.514 
167.95 167.873 167.259 167.085 166.279 165.924 164.922 164.479 163.434 
163.013 161.972 161.564 160.498 160.093 169.871 170.77 170.188 169.711 
171.162 170.942 170.437 169.789 169.105 170.645 170.933 170.567 170.292 
169.567 169.028 168.36 169.715 170.129 169.904 170.056 169.48 169.267 
168.579 168.211 167.549 169.005 169.262 169.017 169.245 168.803 168.886 
168.285 168.191 167.498 167.224 166.404 168.267 168.564 168.245 168.44 
167.981 168.115 167.555 167.642 166.984 166.934 166.129 165.873 164.95 
167.202 167.627 167.285 167.605 167.139 167.32 166.755 166.857 166.231 
166.272 165.551 165.458 164.622 164.369 163.478 166.05 166.457 166.094 
166.497 166.07 166.392 165.882 166.065 165.471 165.536 164.859 164.834 
164.074 163.956 163.127 162.902 162.029 164.985 165.332 164.937 165.293 
164.861 165.235 164.768 165.093 164.549 164.744 164.084 164.135 163.377 
163.341 162.532 162.436 161.591 161.41 160.541 169.898 169.788 170.228 
170.784 169.149 169.839 170.396 170.901 171.108 168.272 169.005 169.441 
170.142 170.315 170.776 170.543 167.306 168.054 168.43 169.085 169.254 
169.783 169.702 170.001 169.69 166.16 166.988 167.375 168.07 168.296 
168.826 168.921 169.268 169.216 169.339 169.107 164.892 165.741 166.088 
166.894 167.138 167.845 168.019 168.565 168.618 168.922 168.752 168.814 
168.414 163.627 164.436 164.73 165.534 165.766 166.564 166.752 167.501 
167.567 168.138 167.963 168.272 167.853 167.933 167.359 162.402 163.164 
163.448 164.207 164.467 165.222 165.451 166.183 166.282 166.919 166.795 
167.269 166.934 167.21 166.732 166.802 166.237 161.267 161.963 162.238 
162.961 163.236 163.983 164.242 164.954 165.077 165.674 165.578 166.063 
165.807 166.205 165.852 166.104 165.649 165.713 165.177 153.968 154.829 
154.793 155.692 155.876 155.813 156.752 156.667 157.616 156.838 156.875 
157.852 157.791 158.711 158.62 159.522 157.705 157.784 158.789 158.82 
159.758 159.709 160.616 160.519 161.415 158.589 158.661 159.679 159.729 
160.737 160.736 161.737 161.666 162.661 162.507 163.46 159.347 159.497 
160.502 160.613 161.635 161.71 162.777 162.806 163.874 163.801 164.795 
164.608 165.484 159.92 160.14 161.125 161.337 162.32 162.508 163.525 
163.72 164.758 164.883 165.82 165.806 166.598 166.464 167.115 160.411 
160.641 161.596 161.859 162.819 163.068 164.027 164.296 165.271 165.538 
166.426 166.583 167.317 167.347 167.957 167.859 168.321 160.822 161.066 
161.948 162.249 163.166 163.473 164.391 164.696 165.617 165.922 166.784 
167.022 167.762 167.901 168.555 168.582 169.125 168.962 169.295 153.107 
152.034 152.977 153.874 150.886 151.863 152.736 153.804 154.821 149.7 
150.683 151.517 152.592 153.561 154.723 155.74 148.517 149.488 150.294 
151.339 152.263 153.41 154.445 155.614 156.633 147.384 148.306 149.097 
150.113 151.035 152.139 153.204 154.363 155.468 156.569 157.569 146.445 
147.241 148.016 148.95 149.875 150.943 152.031 153.187 154.332 155.453 
156.488 157.504 158.374 145.736 146.416 147.157 147.962 148.834 149.813 
150.851 151.999 153.125 154.301 155.342 156.408 157.287 158.238 158.991 
145.115 145.749 146.432 147.161 147.939 148.807 149.72 150.785 151.817 
153.009 154.039 155.196 156.119 157.144 157.948 158.844 159.543 144.515 
145.109 145.728 146.417 147.11 147.903 148.699 149.648 150.564 151.669 
152.644 153.822 154.778 155.918 156.797 157.801 158.558 159.404 160.029 
144.385 144.602 144.837 145.586 144.895 145.103 145.872 146.121 146.956 
145.266 145.445 146.249 146.468 147.366 147.605 148.556 145.761 145.9 
146.783 146.954 147.951 148.145 149.198 149.37 150.43 146.396 146.508 
147.482 147.619 148.715 148.877 150.015 150.143 151.253 151.367 152.477 
147.144 147.245 148.282 148.408 149.54 149.71 150.882 151.026 152.151 
152.251 153.371 153.482 154.606 147.963 148.065 149.132 149.249 150.369 
150.535 151.701 151.878 153.025 153.156 154.296 154.411 155.561 155.644 
156.696 148.79 148.908 149.98 150.103 151.206 151.355 152.509 152.689 
153.867 154.027 155.196 155.335 156.49 156.602 157.655 157.667 158.525 
149.588 149.719 150.779 150.922 152.002 152.163 153.289 153.487 154.656 
154.857 156.014 156.194 157.304 157.462 158.469 158.551 159.379 159.341 
160 150.395 152.096 151.35 151.604 153.86 153.101 153.342 152.59 
152.844 155.578 154.86 155.144 154.384 154.681 153.894 154.178 157.319 
156.615 156.996 156.243 156.614 155.811 156.15 155.304 155.585 159.084 
158.42 158.873 158.153 158.571 157.784 158.138 157.306 157.601 156.727 
156.955 160.736 160.17 160.65 160.017 160.457 159.731 160.088 159.281 
159.567 158.72 158.952 158.062 158.231 162.246 161.775 162.293 161.734 
162.205 161.562 161.971 161.222 161.54 160.692 160.911 160.019 160.157 
159.259 159.339 163.566 163.23 163.784 163.318 163.784 163.231 163.649 
163.032 163.38 162.636 162.827 161.949 161.99 161.089 161.069 160.216 
160.173 164.56 164.411 164.965 164.674 165.106 164.682 165.031 164.551 
164.843 164.289 164.428 163.709 163.646 162.804 162.653 161.817 161.678 
160.886 160.75 149.942 149.854 150.483 151.681 149.851 150.47 151.748 
152.329 153.504 149.885 150.521 151.831 152.439 153.667 154.15 155.225 
149.809 150.555 151.906 152.546 153.81 154.323 155.44 155.858 156.915 
149.5 150.415 151.893 152.639 153.976 154.507 155.68 156.1 157.196 
157.593 158.661 149.087 150.046 151.632 152.566 154.018 154.683 155.893 
156.359 157.462 157.879 158.931 159.316 160.305 148.851 149.659 151.161 
152.176 153.654 154.562 155.785 156.452 157.506 158.051 159.054 159.519 
160.459 160.861 161.763 148.869 149.483 150.776 151.647 152.998 153.99 
155.203 156.09 157.131 157.881 158.858 159.487 160.397 160.904 161.753 
162.21 163.029 148.983 149.501 150.628 151.289 152.473 153.311 154.483 
155.383 156.464 157.325 158.333 159.116 160.045 160.697 161.517 162.066 
162.818 163.324 164.01 148.846 147.149 148.207 148.674 145.405 146.472 
146.906 148.049 148.609 143.508 144.603 144.958 146.193 146.709 147.982 
148.588 141.613 142.57 142.727 144.021 144.448 145.902 146.451 147.864 
148.415 140.08 140.745 140.708 141.733 142.03 143.451 143.98 145.525 
146.044 147.521 148.001 138.874 139.367 139.286 139.962 140.18 141.222 
141.756 143.092 143.702 145.108 145.649 147.065 147.605 137.831 138.234 
138.131 138.69 138.877 139.69 140.213 141.236 141.902 143.032 143.689 
144.9 145.56 146.849 147.523 137.093 137.325 137.175 137.577 137.696 
138.437 138.936 139.897 140.553 141.534 142.178 143.204 143.886 145.032 
145.775 146.976 147.69 136.684 136.796 136.681 136.828 136.889 137.356 
137.81 138.649 139.33 140.272 140.903 141.828 142.434 143.466 144.156 
145.319 146.047 147.217 147.878 136.484 136.303 136.462 136.547 136.255 
136.398 136.611 136.6 136.796 136.469 136.532 136.97 136.905 137.244 
137.146 137.693 137.095 136.973 137.526 137.46 137.975 137.824 138.383 
138.35 139.148 138.046 137.763 138.219 138.105 138.659 138.595 139.177 
139.116 139.79 139.855 140.669 139.031 138.715 139.028 138.815 139.269 
139.227 139.849 139.862 140.531 140.52 141.237 141.321 142.161 139.944 
139.639 139.928 139.634 140.02 139.868 140.503 140.525 141.301 141.293 
142.029 141.984 142.791 142.885 143.847 140.865 140.553 140.9 140.581 
140.994 140.728 141.331 141.259 142.077 142.098 142.914 142.853 143.642 
143.625 144.564 144.692 145.729 141.823 141.513 141.91 141.608 142.071 
141.777 142.34 142.161 142.906 142.894 143.743 143.742 144.569 144.53 
145.423 145.474 146.483 146.609 147.589 142.499 143.685 142.921 142.642 
145.067 144.219 143.951 143.138 142.869 146.675 145.721 145.486 144.564 
144.309 143.428 143.194 148.646 147.521 147.345 146.264 146.052 145.019 
144.817 143.873 143.765 150.945 149.706 149.578 148.343 148.198 146.988 
146.845 145.706 145.621 144.623 144.614 153.235 152.064 151.956 150.71 
150.6 149.324 149.235 147.965 147.904 146.699 146.66 145.573 145.53 
155.277 154.254 154.177 153.05 152.946 151.743 151.634 150.402 150.314 
149.086 149.009 147.79 147.706 146.534 146.466 157.13 156.201 156.163 
155.162 155.086 153.997 153.858 152.698 152.526 151.374 151.232 150.096 
149.98 148.809 148.714 147.543 147.509 158.858 157.998 157.959 157.052 
156.99 156.024 155.901 154.824 154.61 153.471 153.254 152.168 152.018 
150.966 150.848 149.766 149.671 148.584 148.537 149.397 150.539 150.313 
151.026 151.708 151.495 152.237 151.995 152.781 152.886 152.694 153.511 
153.267 154.073 153.829 154.693 154.159 153.941 154.844 154.606 155.474 
155.184 156.018 155.772 156.643 155.546 155.312 156.252 156.003 156.888 
156.597 157.403 157.114 157.928 157.703 158.532 156.829 156.688 157.621 
157.418 158.274 157.994 158.747 158.448 159.198 158.966 159.758 159.549 
160.28 157.895 157.857 158.786 158.69 159.567 159.353 160.126 159.8 
160.518 160.215 160.962 160.737 161.452 161.204 161.79 158.863 158.862 
159.808 159.77 160.695 160.587 161.45 161.202 161.961 161.602 162.296 
161.96 162.621 162.339 162.921 162.62 163.099 159.766 159.811 160.767 
160.766 161.686 161.653 162.535 162.44 163.231 163 163.658 163.314 
163.879 163.524 164.039 163.719 164.185 163.867 164.272 139.749 139.617 
139.359 138.783 139.758 139.361 138.752 138.432 137.784 140.004 139.577 
138.959 138.531 137.827 137.401 136.72 140.183 139.785 139.143 138.744 
138.041 137.554 136.828 136.421 135.998 140.319 139.909 139.216 138.849 
138.178 137.77 137.09 136.636 136.125 135.894 135.752 140.495 140.051 
139.34 138.916 138.259 137.887 137.27 136.88 136.319 136.017 135.679 
135.645 135.565 140.749 140.287 139.647 139.144 138.528 138.066 137.481 
137.055 136.476 136.128 135.692 135.545 135.382 135.438 135.492 141.116 
140.636 140.108 139.581 139.072 138.521 138.015 137.436 136.898 136.363 
135.942 135.618 135.497 135.41 135.552 135.578 135.829 141.619 141.111 
140.666 140.143 139.733 139.189 138.793 138.171 137.739 137.046 136.685 
136.115 136.023 135.728 135.897 135.808 136.071 136.065 136.318 139.767 
138.766 139.359 139.624 137.661 138.291 138.536 139.275 139.682 136.559 
137.116 137.328 138.118 138.594 139.419 139.954 135.96 136.222 136.453 
137.001 137.509 138.311 138.965 139.782 140.385 135.884 135.988 136.286 
136.489 136.942 137.413 138.061 138.811 139.541 140.298 140.922 135.776 
135.986 136.331 136.527 136.906 137.118 137.601 138.072 138.788 139.507 
140.277 140.934 141.549 135.668 135.823 136.164 136.46 136.871 137.121 
137.536 137.804 138.403 138.915 139.719 140.361 141.097 141.628 142.188 
135.934 135.859 136.14 136.289 136.738 137.023 137.547 137.81 138.401 
138.727 139.468 139.948 140.712 141.219 141.838 142.276 142.792 136.409 
136.261 136.473 136.428 136.811 136.972 137.54 137.829 138.479 138.788 
139.469 139.824 140.517 140.925 141.552 141.959 142.507 142.902 143.429 
140.411 140.29 140.67 141.394 140.36 140.619 141.28 141.674 142.449 
140.645 140.788 141.406 141.638 142.355 142.771 143.627 141.076 141.164 
141.823 141.923 142.633 142.833 143.657 144.035 144.895 141.549 141.616 
142.308 142.427 143.201 143.307 144.118 144.267 145.116 145.366 146.157 
142.072 142.084 142.706 142.862 143.638 143.859 144.67 144.823 145.626 
145.769 146.625 146.763 147.616 142.653 142.616 143.157 143.234 143.923 
144.171 144.967 145.246 146.035 146.261 147.105 147.326 148.267 148.419 
149.371 143.266 143.216 143.763 143.74 144.371 144.477 145.238 145.481 
146.313 146.587 147.448 147.738 148.667 148.974 149.919 150.164 151.059 
143.923 143.87 144.469 144.412 145.046 145.028 145.747 145.853 146.693 
146.911 147.812 148.075 148.991 149.293 150.204 150.523 151.375 151.667 
152.455 148.641 147.811 147.793 146.94 146.967 146.932 146.03 146.055 
145.196 146.174 146.099 145.185 145.15 144.28 144.301 143.415 145.497 
145.376 144.503 144.387 143.556 143.483 142.671 142.581 141.718 144.932 
144.779 143.944 143.789 142.982 142.865 142.098 141.977 141.197 141.027 
140.257 144.487 144.291 143.466 143.271 142.449 142.315 141.535 141.435 
140.657 140.54 139.784 139.671 139.001 144.147 143.918 143.122 142.866 
142.059 141.837 141.071 140.904 140.14 139.993 139.24 139.149 138.504 
138.47 137.939 143.88 143.633 142.897 142.615 141.878 141.578 140.873 
140.588 139.889 139.609 138.893 138.671 138.046 137.971 137.517 137.521 
137.179 143.703 143.433 142.764 142.475 141.811 141.496 140.829 140.505 
139.838 139.507 138.829 138.495 137.856 137.629 137.153 137.116 136.821 
136.881 136.681 
POINT_DATA 1002
SCALARS Distance double
LOOKUP_TABLE default
143.193 142.119 142.747 143.93 143.434 144.477 144.736 144.207 145.328 
145.93 145.61 145.18 146.247 146.89 147.657 146.593 146.211 147.255 
147.982 148.827 149.815 147.573 147.026 148.405 149.27 150.193 151.231 
152.186 148.504 147.768 149.605 150.688 151.671 152.694 153.634 154.347 
149.587 148.745 150.799 152.03 153.074 154.059 154.98 155.704 156.242 
150.87 149.933 152.058 153.284 154.355 155.342 156.271 157.03 157.605 
158.031 152.173 151.157 153.322 154.516 155.608 156.621 157.593 158.388 
158.975 159.414 159.697 141.575 142.231 141.181 141.921 140.934 142.934 
141.795 140.759 142.731 143.852 141.687 140.599 142.717 143.849 145.076 
141.547 140.426 142.695 143.927 145.229 146.194 141.41 140.184 142.739 
144.024 145.384 146.412 146.947 141.227 139.946 142.772 144.207 145.586 
146.749 147.247 147.648 141.085 139.916 142.6 144.131 145.638 147.038 
147.723 147.88 148.524 141.145 140.162 142.407 143.77 145.297 146.987 
148.075 148.23 148.464 149.538 141.106 142.161 142.14 143.276 143.262 
143.349 144.621 144.512 144.601 144.762 145.904 145.688 146.222 146.382 
146.65 146.703 146.861 147.216 147.934 148.258 148.254 147.773 148.482 
147.59 148.295 149.001 148.985 148.603 149.767 150.365 149.004 148.799 
149.156 149.24 148.901 148.613 151.917 151.955 151.53 150.958 150.556 
150.293 149.953 149.674 149.581 153.541 153.226 153.789 153.696 153.199 
152.585 152.098 151.746 151.497 151.319 153.122 153.497 155.269 153.919 
155.83 157.452 154.299 156.368 158.045 159.643 154.685 156.719 158.508 
160.19 161.89 155.272 157.079 158.806 160.603 162.463 164.206 155.817 
157.568 159.147 160.929 162.904 164.801 166.27 155.802 157.695 159.368 
161.113 163.113 165.123 166.724 167.717 155.295 157.228 159.11 160.925 
162.902 164.991 166.758 167.954 168.704 154.77 156.61 158.546 160.398 
162.312 164.395 166.303 167.708 168.722 169.535 154.281 156.511 155.54 
158.818 157.877 156.786 161.152 160.236 159.168 157.927 163.542 162.593 
161.498 160.337 159.012 165.784 164.954 163.829 162.624 161.361 159.908 
167.401 166.823 165.963 164.804 163.46 162.027 160.501 168.501 168.011 
167.405 166.594 165.365 163.877 162.394 160.91 169.552 169.099 168.435 
167.781 166.883 165.529 164.034 162.614 161.17 170.529 170.487 171.298 
171.044 171.148 169.784 170.611 170.183 170.051 168.868 169.598 169.37 
169.509 168.884 167.987 168.824 168.824 168.635 168.269 167.705 166.804 
168.047 167.931 167.867 167.447 166.954 166.296 165.289 166.906 166.77 
166.904 166.649 166.173 165.57 164.792 163.788 165.696 165.685 165.683 
165.623 165.376 164.867 164.143 163.29 162.305 164.616 164.654 164.502 
164.401 164.282 163.99 163.398 162.593 161.716 160.756 169.63 170.527 
169.21 169.782 168.456 170.882 168.777 167.585 169.766 170.302 167.801 
166.535 168.714 169.286 169.522 166.629 165.318 167.697 168.481 169.001 
169.132 165.276 164.083 166.36 167.362 168.218 168.637 168.491 163.949 
162.851 164.968 165.972 166.925 167.563 167.693 167.38 162.693 161.664 
163.705 164.73 165.654 166.272 166.554 166.56 166.26 161.536 160.602 
162.488 163.517 164.482 165.099 165.367 165.504 165.495 165.195 153.911 
155.7 154.878 156.863 155.889 157.693 157.874 156.751 158.819 159.622 
158.728 157.638 159.768 160.689 161.537 159.619 158.513 160.694 161.752 
162.772 163.674 160.362 159.169 161.529 162.685 163.894 164.958 165.756 
160.892 159.701 162.122 163.311 164.581 165.799 166.705 167.337 161.332 
160.203 162.565 163.773 164.999 166.235 167.248 168.002 168.535 152.188 
152.838 151.081 151.676 149.904 153.7 150.475 148.724 152.406 154.581 
149.269 147.561 151.142 153.245 155.511 148.093 146.501 149.933 152.033 
154.336 156.559 147.133 145.704 148.827 150.867 153.194 155.466 157.442 
146.413 145.095 147.929 149.749 151.939 154.244 156.319 158.104 145.743 
144.511 147.144 148.747 150.668 152.845 155.029 157.013 158.727 145.077 