# vtk DataFile Version 4.0
vtk output
ASCII
DATASET POLYDATA
POINTS 1002 float
-77.4899 -108.149 61.1821 -77.8644 -107.131 60.6159 -78.435 -107.232 60.9008 
-78.0605 -108.454 61.4521 -78.9526 -107.398 61.2275 -77.0437 -109.35 61.8493 
-78.6149 -108.794 61.8513 -79.5336 -107.732 61.6713 -77.5725 -109.707 62.2561 
-76.4919 -110.571 62.8343 -79.169 -109.261 62.4075 -80.1971 -108.289 62.2129 
-78.0666 -110.19 62.7792 -76.9393 -111.142 63.2796 -75.963 -112.305 63.7936 
-79.5325 -110.029 62.8825 -80.6521 -109.036 62.7035 -78.4304 -111.072 63.2426 
-77.319 -112.193 63.5924 -76.3559 -113.515 63.9877 -75.6227 -114.879 64.3966 
-79.559 -111.198 63.0682 -80.7988 -110.092 63.0145 -78.4893 -112.471 63.3688 
-77.5512 -113.784 63.688 -76.6456 -115.148 64.0137 -75.9619 -116.369 64.5835 
-75.3951 -117.328 65.1754 -79.4913 -112.781 63.0532 -80.7789 -111.598 63.1028 
-78.3656 -114.15 63.246 -77.6351 -115.502 63.6981 -76.9016 -116.773 64.1589 
-76.2191 -117.755 64.8881 -75.7598 -118.417 65.7825 -75.2635 -118.954 66.4581 
-79.4298 -114.58 63.0153 -80.5263 -113.328 63.0072 -78.3644 -115.849 63.224 
-77.78 -116.958 63.9025 -77.3068 -118.008 64.6692 -76.6555 -118.881 65.4749 
-76.1899 -119.421 66.4491 -75.8645 -119.851 67.2504 -75.3944 -120.308 67.7529 
-79.3235 -116.206 63.1132 -80.1118 -114.919 62.9067 -78.5452 -117.366 63.5036 
-78.1487 -118.187 64.4082 -77.9383 -118.926 65.4785 -77.4399 -119.77 66.3221 
-76.8831 -120.456 67.1216 -76.5576 -120.913 67.8871 -76.2119 -121.326 68.4352 
-75.7254 -121.694 68.8336 -79.3916 -117.426 63.4817 -79.8993 -116.24 63.0283 
-78.9395 -118.496 64.0998 -78.7348 -119.222 65.1258 -78.6787 -119.778 66.3277 
-78.3722 -120.515 67.2279 -77.8144 -121.33 67.8652 -77.3592 -121.918 68.4895 
-76.9924 -122.303 69.0641 -76.531 -122.598 69.5338 -76.0329 -122.786 69.9387 
-78.6064 -106.341 60.1283 -79.1696 -106.217 60.5545 -79.3577 -105.572 59.6188 
-79.9446 -105.383 60.128 -80.1082 -104.906 59.1364 -79.6728 -106.265 60.9912 
-80.8246 -105.001 59.4775 -80.9432 -104.384 58.5164 -80.5238 -105.584 60.5515 
-80.3695 -106.732 61.4806 -81.821 -104.784 58.6326 -81.8941 -103.817 57.7308 
-81.5826 -105.533 59.7348 -81.3776 -106.3 61.0344 -81.2105 -107.491 62.0546 
-82.7966 -104.233 57.9127 -82.797 -103.182 56.981 -82.7046 -105.352 58.9022 
-82.5163 -106.226 60.2469 -82.2437 -107.148 61.6125 -81.7409 -108.346 62.5679 
-83.5834 -103.706 57.2385 -83.4712 -102.899 56.1539 -83.6338 -104.761 58.3464 
-83.5909 -105.797 59.57 -83.2026 -106.933 60.8364 -82.5902 -108.118 61.9949 
-81.8535 -109.519 62.8389 -84.112 -103.786 56.2335 -83.8835 -103.186 55.0991 
-84.232 -104.596 57.5787 -84.3847 -105.447 59.0058 -84.1116 -106.657 60.2035 
-83.2783 -108.127 61.1646 -82.4574 -109.455 62.1317 -81.6446 -111.07 62.84 
-84.3755 -104.298 55.1115 -84.0686 -103.824 54.0967 -84.498 -105.034 56.436 
-84.7414 -105.814 58.0406 -84.799 -106.846 59.5745 -84.0812 -108.277 60.6485 
-82.9749 -109.633 61.4162 -82.0542 -110.912 62.1463 -81.1275 -112.695 62.6523 
-84.4092 -104.908 54.3149 -84.0708 -104.596 53.4328 -84.5164 -105.546 55.4669 
-84.7148 -106.401 56.901 -84.9933 -107.42 58.55 -84.7158 -108.629 60.0706 
-83.6925 -109.817 61.0459 -82.5097 -110.905 61.5791 -81.4863 -112.311 62.0227 
-80.5775 -114.226 62.4849 -84.1972 -105.578 53.5636 -84.3803 -105.94 54.6153 
-84.1322 -106.747 53.9623 -84.2931 -107.193 55.1954 -84.0487 -108.164 54.5098 
-84.4923 -106.677 55.8761 -84.3343 -108.762 55.8145 -84.0537 -109.678 55.0889 
-84.4902 -108.026 56.4698 -84.7678 -107.752 57.3065 -84.231 -110.351 56.3789 
-83.8539 -110.969 55.71 -84.3576 -109.56 57.0617 -84.553 -109.114 57.7992 
-84.8259 -108.945 58.9734 -83.5732 -111.684 57.046 -83.2211 -112.171 56.4981 
-83.7215 -111.074 57.718 -83.8262 -110.436 58.3247 -84.0868 -110.135 59.319 
-84.1408 -110.016 60.4581 -82.7852 -113.195 57.9687 -82.5658 -113.791 57.5417 
-82.9365 -112.727 58.6288 -82.9247 -112.126 59.101 -82.9723 -111.518 59.6228 
-83.1041 -111.187 60.4989 -82.9296 -111.049 61.2068 -82.4815 -115.196 59.1083 
-82.2534 -115.76 58.7741 -82.7412 -114.773 59.7244 -82.7186 -114.371 60.2211 
-82.3443 -113.774 60.3768 -82.0749 -113.143 60.6069 -81.9502 -112.709 61.0684 
-81.7126 -112.458 61.5385 -82.4132 -117.176 60.3571 -82.0783 -117.507 60.0731 
-82.8644 -116.819 60.832 -83.1137 -116.533 61.3384 -82.6694 -116.173 61.5703 
-81.8485 -115.666 61.52 -81.3192 -115.141 61.502 -81.0295 -114.682 61.6921 
-80.7652 -114.359 62.0595 -82.1739 -118.679 61.6406 -81.8202 -118.795 61.3525 
-82.675 -118.412 61.9656 -83.216 -118.112 62.3101 -83.2248 -117.814 62.6503 
-82.4648 -117.52 62.8605 -81.5775 -117.276 62.8452 -81.0267 -116.997 62.7422 
-80.6198 -116.631 62.7507 -80.225 -116.343 62.885 -79.9316 -118.046 63.9317 
-80.5262 -118.241 64.0653 -80.6092 -119.545 65.4437 -81.115 -118.542 64.2181 
-81.3039 -119.84 65.6715 -81.362 -120.874 67.054 -81.6859 -118.679 64.389 
-81.928 -120.087 65.8328 -81.9302 -121.305 67.1063 -81.8921 -122.245 68.4861 
-82.4507 -118.625 64.3726 -82.6502 -120.012 65.8799 -82.615 -121.531 67.1086 
-82.5259 -122.647 68.4912 -82.7144 -123.393 70.1783 -83.2293 -118.744 64.0124 
-83.4456 -119.942 65.5913 -83.5449 -121.513 67.0508 -83.4213 -122.768 68.5113 
-83.5362 -123.533 70.3357 -83.7191 -124.126 72.219 -83.3315 -119.109 63.5932 
-83.6887 -120.276 65.0684 -84.1695 -121.759 66.7062 -84.2712 -122.935 68.3794 
-84.2885 -123.614 70.2687 -84.3739 -124.258 72.2775 -84.2581 -124.832 74.0212 
-82.7447 -119.491 63.3707 -83.1202 -120.721 64.7724 -83.9192 -122.221 66.2724 
-84.4385 -123.418 67.9174 -84.5581 -124.044 69.7945 -84.7056 -124.63 71.8638 
-84.7303 -125.315 73.7782 -84.5986 -125.711 75.3085 -82.1249 -119.773 63.1731 
-82.3471 -120.97 64.6737 -83.1261 -122.402 66.0655 -83.902 -123.699 67.4706 
-84.1966 -124.543 69.1159 -84.4896 -125.23 71.0786 -84.8843 -125.917 73.1054 
-85.0452 -126.361 74.849 -85.0264 -126.474 76.1631 -81.7347 -119.889 62.8516 
-81.8234 -121.043 64.4221 -82.371 -122.318 65.8733 -83.1198 -123.548 67.2027 
-83.5271 -124.57 68.6319 -83.846 -125.516 70.3281 -84.4613 -126.354 72.2108 
-85.0074 -126.819 74.0339 -85.1899 -126.94 75.5428 -85.1014 -126.942 76.6123 
-79.685 -119.062 64.7417 -80.5267 -120.355 66.5344 -79.5516 -119.903 65.8033 
-81.2342 -121.665 68.2151 -80.3886 -121.172 67.6805 -79.4876 -120.563 67.022 
-81.8925 -123.033 69.8326 -80.9811 -122.591 69.2693 -80.0786 -122.027 68.6525 
-79.2441 -121.274 68.0125 -82.8999 -124.008 71.8937 -81.7939 -123.806 71.1476 
-80.6061 -123.446 70.2625 -79.6229 -122.815 69.4968 -78.7436 -122.083 68.711 
-83.6868 -124.547 74.067 -82.8125 -124.353 73.573 -81.5687 -124.258 72.5736 
-80.2811 -123.927 71.4666 -79.1919 -123.341 70.4118 -78.2271 -122.715 69.3669 
-84.1014 -125.117 75.7202 -83.4538 -124.537 75.7652 -82.4819 -124.363 75.1464 
-81.2347 -124.395 73.9468 -79.9357 -124.091 72.5982 -78.7312 -123.6 71.2499 
-77.749 -123.08 70.0061 -84.6054 -125.872 76.747 -83.9267 -125.02 77.1605 
-82.9452 -124.427 77.0784 -81.8073 -124.458 76.1594 -80.6402 -124.537 74.7257 
-79.3442 -124.2 73.2751 -78.0936 -123.768 71.8614 -77.1846 -123.313 70.5556 
-84.8947 -126.578 77.2477 -84.2682 -125.865 77.7884 -83.1546 -125.036 78.0849 
-81.8877 -124.681 77.6607 -80.8803 -124.818 76.4143 -79.8738 -124.763 74.9494 
-78.5724 -124.345 73.6252 -77.3771 -123.907 72.3061 -76.5978 -123.452 71.0148 
-84.4937 -127.199 77.1276 -84.1427 -126.87 77.7456 -83.1659 -127.567 77.326 
-82.4794 -127.206 77.9658 -81.6069 -127.937 77.4217 -83.1735 -126.185 78.29 
-80.7815 -127.536 78.0897 -80.515 -128.388 77.4878 -81.3634 -126.597 78.4729 
-81.7904 -125.467 78.4479 -79.7955 -128.024 77.904 -79.5899 -129.022 77.1432 
-79.9699 -127.028 78.3105 -80.3408 -126.022 78.3304 -80.7159 -125.219 77.6808 
-78.6983 -128.503 77.136 -78.0962 -129.407 76.3519 -79.0243 -127.454 77.5802 
-79.3559 -126.497 77.6572 -79.7811 -125.746 77.2249 -80.0114 -125.233 76.2309 
-76.9297 -128.62 76.327 -76.3294 -129.367 75.6857 -77.5019 -127.677 76.6699 
-78.0457 -126.795 76.6892 -78.6554 -126.076 76.4342 -79.0331 -125.501 75.821 
-78.922 -124.928 74.8623 -75.3205 -128.65 75.8137 -74.9745 -129.314 75.1752 
-75.7934 -127.794 76.1384 -76.3022 -126.969 76.0978 -76.9146 -126.232 75.8139 
-77.5101 -125.557 75.3754 -77.7035 -124.93 74.6909 -77.5301 -124.365 73.6489 
-74.3432 -128.753 75.0746 -74.1072 -129.276 74.3623 -74.7134 -127.993 75.5275 
-75.1027 -127.165 75.648 -75.459 -126.334 75.463 -75.896 -125.491 75.0723 
-76.3191 -124.751 74.4675 -76.4957 -124.216 73.5539 -76.5194 -123.84 72.3282 
-73.6921 -128.59 73.9488 -73.4995 -128.965 73.2665 -74.0096 -127.977 74.4504 
-74.4079 -127.212 74.7099 -74.7086 -126.363 74.7293 -74.9031 -125.432 74.5475 
-75.1933 -124.573 74.0885 -75.555 -123.981 73.2833 -75.7904 -123.624 72.2 
-75.9123 -123.289 71.0113 -84.6745 -127.21 76.1672 -83.6773 -127.563 76.528 
-83.7036 -127.404 75.3642 -82.7038 -127.984 75.6045 -82.5776 -127.608 74.3556 
-82.4081 -128.122 76.6003 -81.9071 -128.352 74.5508 -81.6173 -127.709 73.3786 
-81.9439 -128.746 75.5915 -81.3573 -128.658 76.6136 -81.0761 -128.405 73.5178 
-80.7455 -127.656 72.4182 -81.4152 -129.062 74.4501 -81.1467 -129.286 75.4786 
-80.3786 -129.22 76.5266 -80.1029 -128.286 72.3801 -79.8935 -127.505 71.3386 
-80.3745 -128.99 73.2451 -80.2748 -129.422 74.1815 -79.6691 -129.673 75.2329 
-78.9187 -129.758 76.0204 -79.2476 -128.066 71.1164 -79.1721 -127.227 70.1334 
-79.2954 -128.878 71.9126 -79.0849 -129.384 72.7641 -78.5386 -129.678 73.793 
-77.8858 -129.937 74.6901 -77.1653 -129.883 75.2909 -78.5195 -127.585 69.8697 
-78.5917 -126.844 68.8421 -78.4679 -128.518 70.6295 -78.2374 -129.314 71.2919 
-77.731 -129.714 72.1692 -77.1257 -129.908 73.1414 -76.4593 -129.974 73.9951 
-75.6781 -129.763 74.707 -77.8406 -127.004 68.632 -78.0674 -126.428 67.5599 
-77.6883 -127.791 69.498 -77.5061 -128.727 70.0862 -77.1248 -129.475 70.6664 
-76.6029 -129.881 71.4152 -76.0011 -130.026 72.3088 -75.2717 -129.952 73.2668 
-74.5673 -129.689 74.0275 -77.2864 -126.525 67.3841 -77.5621 -125.953 66.4336 
-77.0359 -127.126 68.321 -76.7926 -127.846 69.0671 -76.4263 -128.632 69.6217 
[...]
CELL_DATA 2000
SCALARS Distance double
LOOKUP_TABLE default
145.079 145.637 145.555 145.962 146.301 146.184 146.65 146.511 146.954 
147.169 146.96 147.457 147.264 147.751 147.581 148.166 148.151 147.899 
148.412 148.179 148.747 148.511 149.214 149.04 149.911 149.127 148.867 
149.422 149.218 149.916 149.676 150.496 150.268 151.228 151.044 152.015 
150.207 149.888 150.495 150.288 151.116 150.947 151.866 151.654 152.601 
152.402 153.333 153.13 153.938 151.384 151.073 151.727 151.468 152.339 
152.194 153.184 153.026 153.966 153.752 154.629 154.408 155.217 154.95 
155.653 152.464 152.276 153.013 152.775 153.657 153.48 154.497 154.348 
155.34 155.117 156.013 155.738 156.581 156.281 157.052 156.692 157.367 
153.454 153.358 154.22 154.064 155.002 154.833 155.856 155.697 156.717 
156.51 157.435 157.162 158.002 157.696 158.46 158.118 158.779 158.388 
158.949 144.689 144.277 144.692 145.165 143.947 144.288 144.703 145.165 
145.755 143.783 144.059 144.494 144.797 145.388 145.884 146.641 143.684 
144.004 144.565 144.779 145.408 145.715 146.509 146.939 147.72 143.497 
143.916 144.594 144.923 145.618 145.889 146.658 146.972 147.745 148.063 
148.754 143.307 143.728 144.446 144.893 145.64 146.036 146.77 147.122 
147.831 148.141 148.812 149.107 149.799 143.264 143.607 144.344 144.763 
145.566 145.995 146.788 147.167 147.884 148.196 148.845 149.151 149.812 
150.166 150.885 143.368 143.639 144.372 144.733 145.574 145.988 146.898 
147.268 148.109 148.346 149.015 149.202 149.788 150.092 150.716 151.154 
151.843 143.587 143.785 144.457 144.773 145.572 146.011 146.953 147.426 
148.365 148.678 149.384 149.485 149.958 150.075 150.543 150.88 151.48 
152.004 152.723 143.969 144.848 144.5 144.791 145.925 145.46 145.751 
145.43 145.895 147.233 146.684 146.98 146.511 147.005 146.71 147.329 
148.474 148.035 148.311 147.803 148.183 147.852 148.461 148.232 148.796 
149.399 149.122 149.376 149.002 149.196 148.882 149.263 149.172 149.662 
149.515 149.79 150.439 150.037 150.393 150.008 150.262 149.822 150.04 
149.794 150.13 150.09 150.351 150.199 150.266 152.037 151.389 151.945 
151.351 151.922 151.218 151.598 150.86 151.155 150.671 150.971 150.691 
150.891 150.618 150.778 153.851 153.218 153.857 153.233 153.969 153.253 
153.831 152.88 153.219 152.232 152.538 151.762 152.103 151.512 151.844 
151.382 151.747 155.375 154.941 155.52 155.069 155.701 155.226 155.778 
155.099 155.432 154.503 154.756 153.779 154.131 153.232 153.65 152.853 
153.289 152.645 153.095 154.137 154.492 154.889 156.109 154.973 155.378 
156.699 157.033 158.248 155.469 155.892 157.243 157.645 158.875 159.145 
160.24 155.984 156.345 157.627 158.103 159.351 159.721 160.834 161.083 
162.171 156.498 156.796 157.942 158.412 159.689 160.153 161.339 161.65 
162.759 163.032 164.133 156.758 157.145 158.166 158.664 159.947 160.502 
161.776 162.15 163.251 163.55 164.618 164.929 165.907 156.684 157.189 
158.155 158.744 159.987 160.691 161.996 162.525 163.591 163.943 164.932 
165.308 166.311 166.6 167.442 156.493 157.025 157.972 158.597 159.758 
160.559 161.808 162.542 163.563 164.083 164.988 165.484 166.479 166.929 
167.851 168.075 168.764 156.279 156.818 157.724 158.345 159.393 160.181 
161.306 162.133 163.099 163.796 164.64 165.311 166.247 166.918 167.826 
168.308 168.97 169.201 169.616 154.348 156.265 155.256 155.224 158.366 
157.306 157.268 156.195 156.129 160.369 159.39 159.389 158.326 158.273 
157.148 157.044 162.351 161.391 161.437 160.413 160.373 159.297 159.179 
158.051 157.884 164.369 163.447 163.536 162.485 162.437 161.349 161.214 
160.121 159.924 158.814 158.573 166.125 165.382 165.486 164.56 164.501 
163.428 163.256 162.13 161.894 160.781 160.51 159.412 159.114 167.575 
166.951 167.003 166.28 166.196 165.341 165.147 164.135 163.83 162.716 
162.35 161.257 160.899 159.854 159.507 168.852 168.296 168.292 167.624 
167.467 166.762 166.531 165.771 165.451 164.523 164.068 163.011 162.524 
161.507 161.085 160.131 159.746 169.732 169.406 169.374 168.817 168.575 
167.894 167.553 166.895 166.555 165.87 165.451 164.577 164.032 163.038 
162.506 161.572 161.13 160.258 159.852 169.968 169.935 169.962 169.695 
169.541 169.735 169.54 169.474 168.911 169.177 169.267 169.054 169.133 
168.665 168.509 167.832 169.028 168.986 168.685 168.663 168.253 168.176 
167.608 167.42 166.8 168.57 168.719 168.302 168.31 167.82 167.784 
167.267 167.168 166.596 166.416 165.751 167.572 167.934 167.451 167.67 
167.069 167.211 166.632 166.723 166.142 166.114 165.413 165.23 164.386 
166.586 166.876 166.461 166.675 166.124 166.3 165.713 165.903 165.307 
165.455 164.752 164.739 163.888 163.718 162.833 165.801 166.039 165.713 
165.846 165.408 165.473 164.948 165.012 164.418 164.524 163.852 163.933 
163.161 163.129 162.314 162.188 161.42 164.901 165.241 164.904 165.139 
164.698 164.834 164.295 164.343 163.704 163.715 163.017 163.05 162.343 
162.374 161.665 161.637 160.933 160.841 160.146 169.926 169.491 169.833 
169.848 168.788 169.278 169.43 169.659 169.552 168.043 168.614 168.98 
169.307 169.41 169.427 169.326 167.207 167.88 168.346 168.875 169.126 
169.334 169.344 169.319 169.212 166.234 166.966 167.365 168.072 168.299 
168.824 168.817 169.129 168.98 169.088 168.754 165.173 165.913 166.251 
166.971 167.146 167.768 167.734 168.26 168.094 168.502 168.178 168.322 
167.776 164.028 164.767 165.057 165.802 165.988 166.613 166.62 167.12 
167.006 167.454 167.241 167.557 167.179 167.254 166.76 162.856 163.548 
163.741 164.512 164.677 165.41 165.453 166.039 165.951 166.417 166.253 
166.629 166.377 166.612 166.258 166.332 165.92 161.745 162.364 162.487 
163.172 163.286 164.022 164.06 164.759 164.679 165.284 165.112 165.615 
165.375 165.762 165.445 165.708 165.316 165.456 164.997 156.385 156.996 
157.086 157.886 157.72 157.792 158.717 158.721 159.606 158.522 158.596 
159.547 159.597 160.531 160.537 161.449 159.178 159.339 160.254 160.389 
161.308 161.401 162.29 162.333 163.156 159.678 159.869 160.773 160.996 
161.964 162.14 163.091 163.148 164.027 163.993 164.78 160.274 160.379 
161.266 161.469 162.487 162.758 163.813 163.969 164.932 164.933 165.829 
165.71 166.506 160.925 161.026 161.862 161.998 162.938 163.225 164.244 
164.561 165.484 165.699 166.527 166.656 167.449 167.417 168.066 161.342 
161.574 162.361 162.548 163.365 163.62 164.499 164.836 165.654 165.985 
166.683 167.01 167.678 167.987 168.602 168.712 169.134 161.484 161.818 
162.571 162.882 163.647 163.944 164.731 165.031 165.794 166.08 166.76 
167.032 167.642 167.96 168.535 168.866 169.333 169.49 169.741 155.572 
154.44 155.346 156.069 153.295 154.155 154.831 155.838 156.693 152.222 
153.021 153.626 154.576 155.43 156.539 157.493 151.132 151.953 152.53 
153.405 154.176 155.251 156.211 157.343 158.212 150.002 150.836 151.442 
152.315 153.013 153.998 154.863 156 156.916 157.995 158.77 149.047 
149.752 150.359 151.215 151.935 152.859 153.663 154.682 155.581 156.678 
157.583 158.595 159.399 148.387 148.917 149.437 150.175 150.889 151.793 
152.624 153.57 154.436 155.429 156.338 157.396 158.297 159.288 160.063 
147.869 148.32 148.731 149.319 149.915 150.748 151.555 152.527 153.386 
154.349 155.178 156.175 157.021 158.086 158.888 159.874 160.505 147.329 
147.78 148.135 148.635 149.109 149.801 150.498 151.418 152.254 153.248 
154.053 155.019 155.782 156.788 157.556 158.592 159.277 160.204 160.708 
147.109 147.069 147.371 147.946 147.178 147.425 148.082 148.3 148.963 
147.453 147.665 148.415 148.586 149.344 149.503 150.346 147.782 148.002 
148.815 149.017 149.853 150.01 150.907 151.084 152.071 148.174 148.36 
149.188 149.423 150.32 150.549 151.507 151.707 152.712 152.899 153.885 
148.699 148.822 149.662 149.842 150.784 151.027 152.07 152.32 153.391 
153.582 154.594 154.712 155.642 149.261 149.391 150.26 150.408 151.385 
151.582 152.67 152.915 154.054 154.279 155.358 155.481 156.448 156.492 
157.401 149.771 149.937 150.828 151.021 152.027 152.243 153.332 153.563 
154.69 154.936 156.051 156.248 157.264 157.342 158.242 158.258 159.098 
150.28 150.446 151.348 151.564 152.573 152.842 153.921 154.194 155.272 
155.536 156.611 156.879 157.914 158.103 158.999 159.06 159.818 159.839 
160.522 150.885 152.307 151.708 152.006 153.904 153.251 153.574 152.927 
153.278 155.587 154.924 155.296 154.6 154.97 154.295 154.668 157.384 
156.69 157.126 156.396 156.791 156.062 156.438 155.719 156.05 159.213 
158.543 159.009 158.285 158.698 157.934 158.304 157.538 157.876 157.107 
157.403 160.816 160.283 160.723 160.119 160.511 159.813 160.136 159.391 
159.696 158.946 159.241 158.467 158.71 162.139 161.732 162.17 161.694 
162.078 161.499 161.776 161.111 161.337 160.666 160.897 160.221 160.412 
159.675 159.776 163.323 162.991 163.477 163.063 163.483 162.973 163.276 
162.659 162.864 162.207 162.379 161.74 161.872 161.22 161.268 160.561 
160.542 164.354 164.129 164.634 164.313 164.734 164.317 164.642 164.111 
164.341 163.712 163.878 163.202 163.304 162.613 162.634 161.941 161.908 
161.216 161.175 150.451 150.202 150.827 151.86 149.927 150.597 151.697 
152.334 153.435 149.634 150.349 151.493 152.171 153.322 153.949 155.082 
149.256 150.066 151.298 152.01 153.214 153.848 155.052 155.66 156.859 
148.8 149.668 151.032 151.851 153.161 153.811 155.082 155.688 156.983 
157.546 158.741 148.493 149.256 150.664 151.571 152.998 153.768 155.103 
155.766 157.113 157.722 158.969 159.424 160.43 148.436 149.038 150.343 
151.205 152.64 153.526 154.899 155.707 157.062 157.805 159.062 159.615 
160.603 160.962 161.755 148.479 148.991 150.142 150.892 152.218 153.103 
154.453 155.363 156.708 157.599 158.843 159.562 160.524 161.012 161.764 
162.148 162.864 148.539 148.995 150.037 150.672 151.864 152.66 153.928 
154.836 156.144 157.106 158.33 159.175 160.121 160.752 161.472 161.997 
162.689 163.171 163.854 149.57 148.164 148.979 149.233 146.753 147.525 
147.701 148.595 148.893 145.334 146.082 146.178 147.025 147.243 148.217 
148.536 143.86 144.616 144.636 145.45 145.559 146.505 146.721 147.778 
148.066 142.407 143.133 143.125 143.872 143.876 144.75 144.88 145.905 
146.142 147.246 147.568 141.144 141.778 141.824 142.444 142.413 143.098 
143.159 144.067 144.352 145.402 145.812 146.874 147.343 140.093 140.644 
140.75 141.295 141.324 141.821 141.843 142.495 142.779 143.728 144.283 
145.317 145.908 146.872 147.421 139.257 139.696 139.818 140.322 140.453 
140.91 141.022 141.458 141.7 142.369 142.921 143.886 144.582 145.57 
146.165 147.051 147.555 138.72 138.999 139.123 139.503 139.703 140.149 
140.431 140.847 141.182 141.6 142.068 142.721 143.38 144.276 144.936 
145.837 146.363 147.195 147.662 138.587 138.646 138.696 138.953 138.948 
138.859 139.083 139.128 139.498 139.514 139.285 139.497 139.385 139.755 
139.824 140.311 140.241 139.926 140.064 139.865 140.22 140.223 140.757 
140.777 141.232 141.022 140.667 140.708 140.42 140.664 140.664 141.203 
141.294 141.804 141.722 142.141 141.864 141.481 141.532 141.114 141.249 
141.086 141.568 141.686 142.297 142.325 142.824 142.723 143.309 142.745 
142.37 142.499 142.044 142.195 141.818 142.242 142.155 142.851 142.875 
143.539 143.461 144.078 144.028 144.758 143.586 143.252 143.427 143.049 
143.287 142.887 143.306 143.039 143.714 143.613 144.363 144.265 144.928 
144.819 145.478 145.467 146.171 144.374 144.073 144.282 143.971 144.273 
143.967 144.404 144.143 144.73 144.568 145.244 145.139 145.786 145.672 
146.282 146.196 146.833 146.819 147.479 144.884 145.75 145.147 144.846 
146.754 146.099 145.829 145.178 144.917 147.99 147.205 146.986 146.266 
146.056 145.358 145.151 149.725 148.679 148.467 147.559 147.369 146.586 
146.417 145.68 145.521 151.812 150.655 150.429 149.287 149.068 148.057 
147.87 147.013 146.865 146.11 145.994 153.721 152.71 152.5 151.376 
151.15 149.985 149.77 148.666 148.483 147.539 147.414 146.624 146.52 
155.402 154.483 154.298 153.326 153.133 152.082 151.882 150.737 150.525 
149.376 149.2 148.182 148.053 147.181 147.056 157.092 156.167 156.004 
155.054 154.883 153.933 153.76 152.76 152.554 151.465 151.245 150.129 
149.935 148.877 148.706 147.758 147.62 158.692 157.857 157.719 156.791 
156.628 155.669 155.491 154.531 154.323 153.346 153.112 152.101 151.865 
150.815 150.583 149.532 149.327 148.365 148.237 148.906 150.051 149.758 
150.432 151.332 151.005 151.693 151.414 152.211 152.609 152.309 153.014 
152.725 153.537 153.301 154.223 153.85 153.583 154.339 154.07 154.936 
154.691 155.671 155.438 156.452 155.1 154.86 155.688 155.434 156.347 
156.118 157.103 156.901 157.891 157.675 158.591 156.334 156.151 157.038 
156.814 157.713 157.499 158.399 158.231 159.095 158.957 159.743 159.594 
160.279 157.495 157.38 158.277 158.117 158.962 158.78 159.594 159.425 
160.212 160.05 160.781 160.612 161.268 161.085 161.648 158.545 158.485 
159.339 159.246 160.026 159.901 160.657 160.531 161.317 161.167 161.944 
161.72 162.432 162.15 162.78 162.462 162.978 159.445 159.436 160.228 
160.192 160.924 160.852 161.562 161.492 162.241 162.192 162.958 162.86 
163.558 163.354 163.955 163.663 164.17 163.803 164.197 143.013 142.734 
142.576 142.015 142.624 142.366 141.79 141.597 141.047 142.692 142.353 
141.823 141.519 140.974 140.694 140.164 142.879 142.494 141.991 141.66 
141.136 140.753 140.13 139.819 139.348 143.076 142.689 142.128 141.814 
141.272 140.925 140.2 139.787 139.092 138.964 138.678 143.269 142.882 
142.266 141.899 141.31 140.996 140.292 139.843 139.017 138.679 138.191 
138.318 138.279 143.539 143.137 142.578 142.094 141.51 141.092 140.545 
140.058 139.408 138.817 138.293 138.005 137.905 138.051 138.162 143.896 
143.499 143.05 142.531 142.023 141.486 141.069 140.545 140.161 139.511 
139.129 138.502 138.347 138.037 138.131 138.111 138.234 144.275 143.897 
143.509 143.059 142.63 142.113 141.722 141.215 140.899 140.368 140.066 
139.476 139.24 138.737 138.674 138.378 138.439 138.315 138.413 143.071 
142.054 142.674 142.933 141.019 141.608 141.834 142.539 142.861 140.07 
140.573 140.748 141.419 141.749 142.485 142.873 139.334 139.712 139.863 
140.397 140.751 141.432 141.885 142.59 143.081 138.915 139.186 139.393 
139.693 140.036 140.561 141.098 141.742 142.31 142.944 143.517 138.675 
138.951 139.273 139.444 139.736 140.029 140.543 141.087 141.75 142.328 
142.945 143.5 144.121 138.453 138.738 139.103 139.363 139.672 139.874 
140.294 140.671 141.33 141.864 142.561 143.064 143.709 144.212 144.883 
138.335 138.502 138.802 139.119 139.51 139.803 140.249 140.538 141.129 
141.544 142.254 142.736 143.422 143.892 144.556 145.044 145.699 138.432 
138.435 138.662 138.861 139.296 139.628 140.183 140.51 141.102 141.432 
142.08 142.487 143.163 143.616 144.262 144.732 145.346 145.826 146.378 
143.673 143.61 143.953 144.596 143.594 143.95 144.648 144.952 145.668 
143.628 143.973 144.715 145.033 145.759 146.089 146.894 143.835 144.099 
144.888 145.158 145.878 146.161 146.906 147.309 148.086 144.242 144.422 
145.259 145.46 146.21 146.359 147.046 147.311 148.05 148.421 149.086 
144.79 144.893 145.715 145.901 146.681 146.79 147.475 147.583 148.326 
148.528 149.297 149.482 150.197 145.49 145.488 146.222 146.346 147.077 
147.227 147.919 148.058 148.826 148.986 149.845 149.954 150.8 150.859 
151.748 146.253 146.206 146.831 146.849 147.467 147.571 148.226 148.423 
149.199 149.462 150.337 150.56 151.424 151.557 152.417 152.55 153.472 
146.881 146.883 147.42 147.415 147.931 147.965 148.55 148.707 149.453 
149.747 150.592 150.918 151.727 152.011 152.78 153.054 153.853 154.138 
154.951 149.49 148.988 148.873 148.139 148.479 148.372 147.625 147.507 
146.76 147.917 147.827 147.061 146.966 146.195 146.108 145.353 147.39 
147.257 146.472 146.365 145.568 145.493 144.699 144.647 143.871 146.993 
146.788 145.997 145.815 145.005 144.864 144.042 143.952 143.137 143.107 
142.37 146.693 146.454 145.686 145.435 144.649 144.401 143.597 143.379 
142.572 142.419 141.669 141.649 141.051 146.492 146.218 145.505 145.213 
144.48 144.167 143.42 143.098 142.353 142.045 141.316 141.092 140.463 
140.442 139.984 146.454 146.124 145.469 145.124 144.439 144.087 143.387 
143.032 142.35 141.992 141.313 140.945 140.286 140.027 139.509 139.488 
139.158 146.531 146.178 145.545 145.166 144.497 144.114 143.426 143.051 
142.381 142.034 141.403 141.04 140.412 140.026 139.464 139.207 138.839 
138.812 138.631 
POINT_DATA 1002
SCALARS Distance double
LOOKUP_TABLE default
145.438 144.651 145.15 146.079 145.686 146.372 146.791 146.429 147.084 
147.409 147.662 147.421 147.921 148.253 148.841 148.62 148.417 148.96 
149.365 150.031 150.865 149.573 149.399 150.083 150.714 151.418 152.242 
152.942 150.704 150.53 151.222 152.053 152.838 153.551 154.208 154.664 
151.999 151.636 152.49 153.313 154.191 154.871 155.467 155.979 156.318 
153.205 152.563 153.845 154.64 155.542 156.291 156.88 157.397 157.782 
158.003 154.312 153.493 155.146 156.017 156.913 157.7 158.317 158.81 
159.174 159.382 159.464 144.269 144.66 143.906 144.301 143.637 145.151 
144.243 143.472 144.941 146.075 144.3 143.283 145.155 146.13 147.326 
144.168 143.044 145.317 146.386 147.462 148.45 143.974 142.906 145.198 
146.408 147.521 148.513 149.477 143.944 142.944 145.119 146.382 147.577 
148.559 149.467 150.497 144.033 143.13 145.141 146.467 147.849 148.906 
149.587 150.317 151.339 144.192 143.442 145.149 146.43 147.967 149.285 
149.967 150.327 150.989 152.117 144.276 145.035 145.237 146.113 146.428 
146.109 147.515 147.758 147.314 147.594 148.836 148.831 148.585 148.652 
149.141 149.705 149.666 149.592 149.415 149.729 150.124 150.746 150.91 
150.734 150.465 150.247 150.423 150.511 152.516 152.69 152.578 152.459 
151.874 151.351 151.147 151.023 154.452 154.415 154.608 154.725 154.311 
153.475 152.795 152.374 152.142 155.961 155.751 156.151 156.347 156.263 
155.726 155.071 154.532 154.048 153.681 155.241 155.747 157.341 156.34 
158.012 159.395 156.808 158.584 160.03 161.298 157.158 158.919 160.551 
161.923 163.294 157.508 159.161 160.991 162.478 163.881 165.228 157.667 
159.325 161.356 162.983 164.296 165.683 166.815 157.558 159.244 161.396 
163.24 164.554 165.95 167.305 168.209 157.37 158.992 161.04 162.992 
164.46 165.953 167.538 168.713 169.371 157.127 158.677 160.512 162.368 
163.939 165.525 167.266 168.678 169.523 169.957 156.216 158.363 157.225 
160.415 159.392 158.203 162.463 161.434 160.296 159.04 164.587 163.561 
162.319 161.029 159.705 166.337 165.538 164.41 163.044 161.611 160.215 
167.704 166.972 166.083 164.956 163.496 161.948 160.538 168.977 168.197 
167.236 166.28 165.122 163.592 162.038 160.684 169.87 169.278 168.252 
167.174 166.214 165.022 163.487 161.998 160.712 170.078 169.941 169.791 
169.479 169.358 169.206 168.968 169.208 168.72 168.074 168.784 169.095 
168.304 167.737 167.016 168.282 168.336 167.844 167.314 166.753 166.022 
167.188 167.197 166.888 166.48 166.105 165.57 164.651 166.248 166.316 
165.952 165.535 165.127 164.692 163.997 163.018 165.555 165.535 165.339 
164.934 164.375 163.755 163.112 162.375 161.551 164.633 164.536 164.525 
164.23 163.722 163.015 162.284 161.636 160.987 160.262 169.745 169.678 
169.053 169.106 168.209 169.511 168.531 167.391 169.307 169.416 167.719 
166.512 168.789 169.284 169.338 166.668 165.523 167.711 168.402 168.771 
168.836 165.549 164.45 166.537 167.194 167.612 167.904 167.798 164.303 
163.333 165.321 166.11 166.56 166.852 166.972 166.77 163.011 162.227 
163.912 164.801 165.451 165.845 166.067 166.097 165.912 161.857 161.153 
162.595 163.353 164.029 164.559 164.936 165.126 165.118 164.922 156.279 
157.855 156.857 158.665 157.639 159.632 159.485 158.445 160.495 161.468 
160.09 159.001 161.191 162.242 163.164 160.52 159.515 161.711 162.991 
164.042 164.879 161.104 160.207 162.177 163.574 164.875 165.88 166.729 
161.77 160.802 162.715 163.924 165.236 166.343 167.361 168.259 162.155 
161.073 163.16 164.223 165.351 166.379 167.33 168.346 169.204 154.688 
155.076 153.56 153.835 152.495 155.585 152.738 151.438 154.313 156.396 
151.687 150.274 153.171 155.049 157.191 150.55 149.186 152.093 153.78 
155.763 157.796 149.524 148.434 151.007 152.708 154.506 156.477 158.478 
148.796 147.935 149.996 151.668 153.501 155.306 157.234 159.181 148.233 
147.442 149.169 150.583 152.417 154.244 155.988 157.844 159.641 147.667 