# vtk DataFile Version 4.0
vtk output
ASCII
DATASET POLYDATA
POINTS 1002 float
-76.1645 -110.922 61.151 -76.6822 -109.709 60.6928 -77.3115 -110.148 61.0185 
-76.8132 -111.453 61.4508 -77.8639 -110.78 61.282 -75.6455 -112.447 61.5045 
-77.4017 -112.013 61.885 -78.4728 -111.445 61.6108 -76.2167 -112.785 62.0119 
-75.0467 -113.973 62.0511 -77.9303 -112.607 62.454 -79.1147 -112.011 62.3099 
-76.6872 -113.242 62.6607 -75.4667 -114.376 62.6852 -74.3741 -115.9 62.7723 
-78.2334 -113.45 62.896 -79.5028 -112.797 63.0506 -76.9627 -114.201 62.9659 
-75.7745 -115.332 63.0991 -74.7075 -116.933 63.2272 -73.8246 -118.447 63.5692 
-78.1814 -114.69 62.7422 -79.4581 -114.045 62.9707 -76.9601 -115.664 62.6486 
-75.9611 -116.931 62.8989 -75.023 -118.426 63.3642 -74.2004 -119.807 63.9591 
-73.555 -120.712 64.6682 -78.012 -116.015 62.1232 -79.104 -115.373 62.134 
-76.9247 -117.088 62.2146 -76.1581 -118.468 62.6685 -75.4743 -119.838 63.4766 
-74.7264 -120.989 64.405 -74.1159 -121.781 65.2794 -73.609 -122.294 66.0531 
-78.0254 -117.141 61.8413 -78.7317 -116.484 61.519 -77.2509 -118.177 62.3654 
-76.6412 -119.495 63.1544 -76.1598 -120.738 64.1938 -75.5351 -121.758 65.2501 
-74.9225 -122.579 66.1191 -74.4367 -123.221 66.828 -73.938 -123.765 67.4192 
-78.284 -118.156 62.3017 -78.6394 -117.491 61.6561 -77.8889 -119.149 63.1599 
-77.4145 -120.371 64.1298 -76.9806 -121.496 65.2242 -76.4776 -122.436 66.3101 
-75.8928 -123.319 67.1206 -75.3993 -124.113 67.7103 -74.921 -124.746 68.2502 
-74.3761 -125.238 68.7146 -78.7235 -119.129 63.1899 -78.9133 -118.469 62.3263 
-78.5368 -120.114 64.1711 -78.1543 -121.336 65.0703 -77.6945 -122.467 65.9707 
-77.2862 -123.368 67.0077 -76.8322 -124.208 67.9228 -76.3476 -125.026 68.5405 
-75.8825 -125.677 69.0639 -75.3616 -126.124 69.5741 -74.7993 -126.421 69.9701 
-77.6031 -109.093 60.2469 -78.1325 -109.37 60.7537 -78.3534 -108.456 59.7973 
-78.8682 -108.485 60.498 -78.939 -107.537 59.3844 -78.6694 -109.953 61.0146 
-79.6678 -107.499 60.1195 -79.5702 -106.622 58.7637 -79.5469 -108.957 60.7626 
-79.4062 -110.599 61.3409 -80.521 -106.762 59.3412 -80.3119 -106.163 57.7908 
-80.5292 -108.008 60.2695 -80.3656 -109.569 61.0553 -80.1644 -111.185 62.2487 
-81.3137 -106.444 58.2805 -81.1422 -105.978 56.6891 -81.438 -107.402 59.3905 
-81.2606 -108.711 60.3654 -81.0185 -110.329 61.8537 -80.5715 -112.207 63.0816 
-82.1527 -106.349 57.3094 -81.9633 -105.77 55.7021 -82.3511 -107.174 58.5172 
-82.1849 -108.269 59.4222 -81.7542 -109.716 60.8038 -81.3296 -111.681 62.4 
-80.4501 -113.702 62.811 -82.8428 -106.401 56.4964 -82.4158 -105.761 54.9258 
-83.2813 -107.178 57.8225 -83.2634 -108.156 58.7408 -82.6702 -109.392 59.7341 
-82.0208 -111.162 61.1668 -81.1957 -113.261 62.0835 -79.9056 -115.065 61.8512 
-82.9752 -106.701 55.7581 -82.3533 -106.165 54.3692 -83.735 -107.355 57.0317 
-84.0789 -108.204 58.103 -83.5942 -109.264 59.0585 -82.7879 -110.693 60.1697 
-81.9402 -112.599 61.1804 -80.6933 -114.572 61.4187 -79.3615 -116.184 61.2497 
-82.6775 -107.228 55.1195 -82.0949 -106.827 53.9605 -83.5472 -107.746 56.1545 
-84.2552 -108.461 57.1885 -84.1482 -109.38 58.3158 -83.4095 -110.502 59.4498 
-82.6045 -112.01 60.4287 -81.5632 -113.91 60.9432 -80.2256 -115.778 61.0306 
-79.2219 -117.272 61.3565 -82.1998 -107.78 54.2734 -82.8721 -108.232 55.2217 
-82.4183 -108.9 54.5056 -83.1384 -109.563 55.3854 -82.6216 -110.321 54.8659 
-83.8217 -108.901 56.0939 -83.3019 -111.135 55.8828 -82.6145 -111.801 55.3262 
-84.0395 -110.507 56.329 -84.3312 -109.806 57.2187 -82.9566 -112.472 56.3714 
-82.3016 -113.179 55.6251 -83.9137 -112.115 56.8628 -84.2388 -111.518 57.5152 
-83.9019 -110.799 58.5398 -82.1652 -113.923 56.6496 -81.8785 -114.999 56.0451 
-83.0052 -113.401 57.2403 -83.632 -113.063 57.8159 -83.4778 -112.456 58.6789 
-83.0476 -111.971 59.6666 -81.7783 -116.287 57.2954 -81.661 -117.307 57.046 
-82.0777 -115.33 57.734 -82.5083 -114.708 58.1968 -82.5991 -114.201 58.7713 
-82.4175 -113.77 59.584 -82.1034 -113.666 60.3789 -81.9569 -118.802 58.4605 
-81.5337 -119.162 58.3983 -82.1206 -118.097 58.7655 -82.067 -117.226 59.1524 
-81.8176 -116.429 59.4678 -81.5995 -115.905 59.8443 -81.4123 -115.702 60.3494 
-80.9244 -115.702 60.7731 -81.8539 -120.322 59.7321 -81.1401 -120.198 59.7181 
-82.3549 -120.241 59.9941 -82.4134 -119.775 60.4075 -81.9387 -118.961 60.7458 
-81.3352 -118.203 60.9435 -80.9846 -117.813 61.108 -80.5795 -117.643 61.2522 
-79.8902 -117.466 61.3221 -81.171 -121.108 61.0058 -80.4933 -120.943 60.9899 
-81.86 -121.29 61.1901 -82.3509 -121.284 61.5198 -82.3099 -120.865 61.893 
-81.7458 -120.176 62.225 -81.1509 -119.64 62.4454 -80.6995 -119.354 62.504 
-80.1278 -119.09 62.4493 -79.4505 -118.764 62.3753 -79.3161 -119.858 63.7999 
-79.8684 -120.212 63.8608 -79.7603 -121.56 65.2881 -80.4678 -120.599 63.932 
-80.2586 -122.003 65.2973 -80.0826 -123.649 66.5497 -81.0228 -120.904 63.9383 
-80.7894 -122.421 65.3366 -80.6076 -124.145 66.6848 -80.6871 -125.593 68.2416 
-81.6257 -121.23 63.6861 -81.4492 -122.661 65.2463 -81.2411 -124.426 66.8756 
-81.3882 -125.873 68.7021 -81.7739 -126.712 70.6303 -82.1539 -121.732 63.2331 
-82.1076 -122.923 64.8103 -82.0286 -124.554 66.7734 -82.1489 -126.005 68.9458 
-82.6218 -126.858 71.0352 -82.8878 -127.472 72.7093 -82.134 -122.168 62.8699 
-82.2147 -123.339 64.3245 -82.4738 -124.897 66.2563 -82.7257 -126.369 68.6146 
-83.2799 -127.32 70.8424 -83.7824 -127.933 72.627 -83.7125 -128.58 74.0118 
-81.5346 -122.245 62.6679 -81.6093 -123.597 64.1556 -82.1529 -125.307 65.8177 
-82.6375 -126.91 67.9668 -83.2716 -128.057 70.2278 -84.131 -128.755 72.0827 
-84.4921 -129.261 73.6727 -84.2736 -129.694 75.1627 -80.7978 -122.091 62.5274 
-80.7857 -123.541 64.1612 -81.3996 -125.378 65.6943 -82.0401 -127.1 67.4619 
-82.5854 -128.419 69.6257 -83.532 -129.337 71.5846 -84.4176 -129.904 73.1816 
-84.6775 -130.275 74.7806 -84.5864 -130.479 76.315 -80.1787 -121.95 62.4186 
-80.1086 -123.368 64.0901 -80.6385 -125.15 65.6307 -81.3673 -126.883 67.0961 
-81.8454 -128.255 69.0038 -82.5152 -129.318 71.1078 -83.5021 -130.095 72.7928 
-84.2141 -130.613 74.2443 -84.5224 -130.981 75.743 -84.6609 -131.155 77.0698 
-79.1647 -120.799 64.8496 -79.4649 -122.829 66.2358 -78.826 -122.096 65.7403 
-79.8469 -124.961 67.6535 -78.9855 -124.243 67.0505 -78.302 -123.428 66.4655 
-80.7878 -126.493 69.8823 -79.6161 -126.046 68.9538 -78.6008 -125.397 68.0281 
-77.9153 -124.458 67.4152 -81.9211 -127.368 72.3243 -80.784 -127.205 71.5188 
-79.5655 -126.831 70.4441 -78.5229 -126.203 69.3482 -77.6631 -125.269 68.5569 
-82.7254 -128.34 74.0199 -81.7043 -128.219 73.5595 -80.6643 -127.967 72.8244 
-79.5424 -127.51 71.7659 -78.3703 -126.877 70.5036 -77.2777 -126.028 69.4203 
-83.3896 -129.366 75.39 -82.3185 -129.19 75.076 -81.3023 -129.048 74.4744 
-80.3143 -128.694 73.7042 -79.1606 -128.11 72.5493 -77.8825 -127.435 71.1893 
-76.7682 -126.636 70.0195 -84.055 -130.027 76.7962 -83.0606 -129.633 76.6993 
-81.8561 -129.514 76.0881 -80.7421 -129.478 75.2631 -79.7062 -129.128 74.2389 
-78.5124 -128.495 72.9568 -77.2609 -127.802 71.6712 -76.2132 -127.025 70.5655 
-84.51 -130.597 77.7799 -83.7772 -129.872 78.0353 -82.5355 -129.443 77.6953 
-81.1841 -129.499 76.8928 -80.0668 -129.579 75.8213 -79.0294 -129.281 74.5481 
-77.8292 -128.721 73.2216 -76.6208 -128.043 72.0431 -75.6148 -127.263 70.9926 
-84.5996 -131.614 77.8741 -84.2708 -130.782 78.5469 -83.9916 -132.025 78.2928 
-83.23 -131.129 78.9106 -82.4746 -132.267 78.5605 -83.2177 -129.856 78.7518 
-81.3919 -131.607 79.1408 -80.5074 -132.34 78.6951 -81.8728 -130.324 79.0787 
-81.7212 -129.467 78.3488 -79.3896 -131.91 79.1204 -78.6696 -132.431 78.3613 
-80.0379 -131.019 79.1967 -80.3872 -129.961 78.6283 -80.3404 -129.57 77.4119 
-77.4522 -132.039 78.5543 -76.8213 -132.692 77.6253 -78.0968 -131.284 78.9933 
-78.6951 -130.376 78.6566 -79.1317 -129.755 77.6006 -79.2467 -129.591 76.0853 
-75.6218 -132.247 77.6448 -75.07 -132.936 76.7906 -76.2443 -131.296 78.3151 
-76.8888 -130.381 78.3312 -77.5356 -129.817 77.4695 -78.0341 -129.63 76.0309 
-78.1127 -129.344 74.5443 -74.2541 -132.286 76.6191 -73.8628 -132.801 75.8206 
-74.776 -131.388 77.2949 -75.398 -130.417 77.4915 -75.9931 -129.852 76.8806 
-76.5318 -129.704 75.6302 -76.8588 -129.447 74.2869 -76.8284 -128.816 73.1404 
-73.2532 -131.873 75.553 -73.0298 -132.297 74.7651 -73.5756 -131.242 76.1858 
-74.1369 -130.476 76.3744 -74.7357 -129.894 75.9304 -75.1716 -129.633 75.0085 
-75.4908 -129.351 73.9357 -75.6537 -128.762 72.9472 -75.6491 -128.01 72.0075 
-72.26 -131.302 74.6109 -72.1852 -131.759 73.8524 -72.3394 -130.819 75.2211 
-72.7129 -130.292 75.3992 -73.344 -129.748 75.0455 -73.8681 -129.284 74.4211 
-74.2083 -128.863 73.7062 -74.4827 -128.353 72.8602 -74.6513 -127.761 71.9138 
-74.7259 -127.131 70.9374 -84.3414 -131.772 76.6559 -84.1477 -132.374 77.2819 
-83.581 -132.118 75.9197 -83.1323 -132.567 76.4467 -82.5046 -132.131 74.9623 
-83.2388 -132.687 77.6487 -81.7244 -132.401 75.3603 -81.2849 -132.071 73.8192 
-81.9102 -132.684 76.7557 -81.4809 -132.682 77.8501 -80.359 -132.462 73.9094 
-80.1373 -132.059 72.5023 -80.4107 -132.66 75.4508 -80.2152 -132.823 76.7136 
-79.6304 -132.722 77.6995 -79.3108 -132.583 72.3015 -79.1277 -131.859 71.1677 
-79.2583 -132.936 73.7686 -79.0822 -133.152 75.2132 -78.7257 -133.197 76.3155 
-77.9329 -132.977 77.1531 -78.3121 -132.242 70.9496 -78.1326 -131.371 70.0025 
-78.3251 -132.908 72.1091 -78.1472 -133.342 73.5179 -77.8016 -133.551 74.7753 
-77.0783 -133.456 75.7852 -76.0152 -133.234 76.5014 -77.2181 -131.585 69.8416 
-77.1803 -130.741 68.9334 -77.237 -132.407 70.7221 -77.1045 -133.108 71.7821 
-76.7359 -133.544 72.9404 -76.054 -133.618 74.0826 -75.1191 -133.472 75.1074 
-74.3272 -133.252 75.6877 -76.316 -130.902 68.661 -76.4344 -130.048 67.7848 
-76.2317 -131.78 69.4516 -76.0868 -132.625 70.2406 -75.7115 -133.278 71.0756 
-75.076 -133.582 72.0154 -74.2756 -133.551 73.149 -73.61 -133.339 74.1321 
-73.2744 -132.946 74.6072 -75.7296 -130.193 67.3566 -75.9124 -129.327 66.5773 
-75.5813 -131.081 68.136 -75.4248 -131.916 68.9373 -75.0687 -132.603 69.7106 
[...]
CELL_DATA 2000
SCALARS Distance double
LOOKUP_TABLE default
146.508 147.347 147.07 147.426 148.255 147.947 148.265 148.021 148.438 
149.238 148.883 149.168 148.858 149.234 149.058 149.644 150.276 149.873 
150.14 149.791 150.199 149.953 150.636 150.504 151.397 151.211 150.841 
151.067 150.768 151.263 151.042 151.848 151.687 152.695 152.535 153.522 
151.879 151.632 151.864 151.669 152.278 152.17 153.104 153.002 154.05 
153.903 154.888 154.666 155.507 152.421 152.261 152.688 152.54 153.337 
153.271 154.348 154.289 155.387 155.25 156.233 156.017 156.886 156.597 
157.382 153.177 153.009 153.764 153.604 154.635 154.516 155.71 155.608 
156.769 156.607 157.634 157.396 158.326 158.03 158.89 158.531 159.31 
154.26 154.071 155.059 154.921 156.085 155.959 157.159 157.029 158.173 
158.015 159.063 158.844 159.802 159.522 160.402 160.066 160.844 160.447 
161.107 146.179 145.955 146.357 146.964 145.569 146.064 146.656 147.153 
147.845 145.049 145.614 146.26 146.807 147.539 148.079 148.845 144.619 
145.141 145.858 146.411 147.171 147.752 148.614 149.166 149.962 144.403 
144.831 145.555 146.059 146.807 147.367 148.239 148.906 149.869 150.374 
151.057 144.349 144.728 145.484 145.883 146.64 147.06 147.872 148.492 
149.508 150.219 151.08 151.414 151.815 144.347 144.746 145.611 145.97 
146.804 147.075 147.835 148.212 149.122 149.799 150.744 151.314 151.827 
151.995 152.221 144.351 144.771 145.677 146.117 146.995 147.323 148.05 
148.29 149.009 149.465 150.312 150.914 151.554 151.898 152.196 152.351 
152.72 144.422 144.783 145.62 146.093 146.946 147.408 148.143 148.457 
149.067 149.379 150.05 150.527 151.202 151.628 152.096 152.322 152.738 
152.982 153.628 144.777 145.71 145.425 145.906 146.887 146.463 146.925 
146.653 147.219 148.225 147.775 148.267 147.841 148.355 148.004 148.466 
149.3 149.007 149.516 149.225 149.699 149.254 149.581 149.144 149.431 
150.309 149.912 150.297 150.193 150.646 150.441 150.676 150.26 150.43 
150.038 150.345 152.018 151.204 151.534 151.023 151.476 151.202 151.522 
151.2 151.382 151.027 151.299 151.009 151.389 154.12 153.296 153.792 
152.843 153.366 152.509 152.959 152.246 152.596 152.053 152.421 152.021 
152.394 152.052 152.334 155.63 155.258 155.877 155.236 155.809 154.887 
155.327 154.256 154.605 153.658 154.074 153.381 153.824 153.238 153.545 
152.984 153.163 156.481 156.395 156.986 156.84 157.399 157.009 157.404 
156.643 156.865 155.898 156.156 155.28 155.667 154.906 155.258 154.485 
154.725 153.964 154.185 155.184 155.756 155.995 157.15 156.345 156.603 
157.748 158.057 159.333 156.831 157.156 158.329 158.663 159.962 160.322 
161.712 157.334 157.622 158.813 159.196 160.525 160.957 162.396 162.79 
164.183 157.929 158.14 159.241 159.626 160.954 161.47 162.942 163.436 
164.86 165.214 166.432 158.283 158.586 159.518 159.962 161.224 161.83 
163.326 163.921 165.394 165.839 167.116 167.355 168.395 158.113 158.601 
159.409 160.022 161.216 161.973 163.443 164.189 165.67 166.279 167.601 
167.992 169.085 169.248 170.137 157.616 158.184 158.965 159.702 160.881 
161.782 163.192 164.096 165.48 166.307 167.574 168.257 169.33 169.765 
170.624 170.833 171.538 157.113 157.658 158.461 159.2 160.369 161.313 
162.659 163.637 164.896 165.835 166.983 167.894 168.914 169.667 170.48 
171.002 171.66 171.987 172.54 155.264 157.316 156.239 156.224 159.539 
158.429 158.472 157.344 157.344 161.928 160.746 160.786 159.623 159.618 
158.466 158.407 164.408 163.231 163.272 162.009 161.971 160.742 160.675 
159.492 159.387 166.63 165.636 165.727 164.539 164.507 163.201 163.121 
161.824 161.714 160.461 160.295 168.525 167.683 167.802 166.84 166.861 
165.716 165.63 164.341 164.171 162.843 162.61 161.316 161.043 170.233 
169.473 169.556 168.726 168.742 167.839 167.759 166.694 166.451 165.218 
164.853 163.575 163.192 161.954 161.595 171.669 171.059 171.074 170.329 
170.222 169.465 169.314 168.51 168.243 167.249 166.805 165.643 165.14 
163.967 163.512 162.377 161.963 172.742 172.32 172.293 171.656 171.399 
170.71 170.405 169.767 169.46 168.74 168.316 167.375 166.829 165.756 
165.214 164.143 163.652 162.607 162.148 173.26 173.674 173.323 172.778 
173.576 173.487 172.889 172.53 171.788 173.033 173.187 172.681 172.472 
171.73 171.405 170.711 172.221 172.548 172.218 172.196 171.546 171.29 
170.607 170.353 169.741 171.243 171.658 171.375 171.607 171.041 171.002 
170.299 170.161 169.505 169.34 168.635 170.244 170.632 170.292 170.621 
170.079 170.267 169.575 169.647 168.958 168.955 168.236 168.081 167.217 
169.223 169.61 169.243 169.537 169.01 169.224 168.598 168.762 168.125 
168.25 167.576 167.565 166.744 166.551 165.621 168.046 168.497 168.105 
168.463 167.941 168.193 167.595 167.787 167.176 167.351 166.707 166.806 
166.035 165.983 165.095 164.926 164.027 166.808 167.244 166.826 167.236 
166.724 167.07 166.477 166.75 166.109 166.344 165.668 165.855 165.103 
165.183 164.349 164.312 163.457 163.342 162.507 173.361 173.292 173.616 
173.866 172.606 173.269 173.612 173.885 173.781 171.502 172.301 172.61 
173.258 173.233 173.484 173.125 170.349 171.096 171.346 172.06 172.13 
172.656 172.452 172.67 172.25 169.221 169.956 170.226 170.869 171.038 
171.585 171.591 171.931 171.688 171.788 171.345 167.947 168.766 169.047 
169.771 169.962 170.586 170.669 171.126 170.984 171.206 170.837 170.875 
170.385 166.55 167.396 167.628 168.46 168.618 169.396 169.438 170.087 
169.925 170.366 169.994 170.244 169.771 169.874 169.346 165.156 165.962 
166.161 166.981 167.137 167.942 167.99 168.708 168.562 169.13 168.797 
169.221 168.797 169.097 168.618 168.763 168.19 163.814 164.574 164.763 
165.544 165.713 166.486 166.563 167.262 167.169 167.751 167.502 167.98 
167.649 168.042 167.658 167.933 167.455 167.566 166.987 157.083 157.726 
157.74 158.574 158.63 158.604 159.591 159.547 160.603 159.615 159.613 
160.685 160.689 161.827 161.786 162.898 160.601 160.64 161.753 161.8 
162.971 162.995 164.114 164.058 165.078 161.451 161.595 162.727 162.845 
164.044 164.123 165.281 165.248 166.286 166.173 167.139 162.112 162.351 
163.465 163.696 164.863 165.092 166.275 166.384 167.443 167.379 168.321 
168.194 169.058 162.696 162.96 164.051 164.316 165.411 165.727 166.861 
167.181 168.24 168.394 169.279 169.27 170.049 169.964 170.632 163.171 
163.484 164.53 164.833 165.867 166.179 167.226 167.592 168.608 168.937 
169.818 170.005 170.757 170.809 171.473 171.381 171.886 163.437 163.818 
164.777 165.177 166.143 166.531 167.489 167.872 168.784 169.155 169.984 
170.318 171.088 171.34 172.058 172.139 172.711 172.55 172.876 156.377 
155.363 156.176 156.867 154.228 155.104 155.812 156.762 157.647 153.086 
153.952 154.661 155.646 156.534 157.585 158.57 151.995 152.826 153.484 
154.453 155.315 156.412 157.407 158.514 159.52 150.882 151.711 152.315 
153.255 154.06 155.15 156.128 157.288 158.288 159.413 160.349 149.816 
150.593 151.201 152.094 152.891 153.916 154.875 155.997 156.98 158.112 
159.031 160.143 161.006 148.963 149.633 150.287 151.078 151.902 152.823 
153.767 154.794 155.761 156.826 157.74 158.813 159.694 160.775 161.617 
148.301 148.91 149.588 150.295 151.1 151.916 152.78 153.711 154.609 
155.632 156.543 157.585 158.482 159.517 160.381 161.4 162.166 147.711 
148.299 148.951 149.633 150.371 151.131 151.881 152.714 153.48 154.445 
155.304 156.378 157.29 158.35 159.208 160.204 160.959 161.903 162.526 
147.58 147.767 148.047 148.831 147.972 148.261 149.106 149.397 150.256 
148.317 148.548 149.452 149.721 150.635 150.879 151.744 148.878 149.044 
150.025 150.202 151.159 151.323 152.217 152.394 153.297 149.557 149.715 
150.752 150.897 151.888 151.974 152.89 152.97 153.93 154.08 155.123 
150.259 150.417 151.446 151.623 152.618 152.738 153.672 153.739 154.728 
154.839 155.95 156.083 157.175 150.969 151.104 152.08 152.264 153.244 
153.42 154.386 154.518 155.525 155.667 156.771 156.943 158.05 158.149 
159.122 151.628 151.768 152.68 152.857 153.815 154.019 155.029 155.221 
156.272 156.444 157.525 157.71 158.778 158.946 159.913 159.989 160.83 
152.17 152.348 153.217 153.409 154.339 154.569 155.596 155.853 156.943 
157.17 158.242 158.425 159.445 159.613 160.559 160.691 161.534 161.597 
162.349 152.724 154.024 153.504 153.82 155.567 154.933 155.266 154.673 
155.001 157.271 156.591 156.972 156.282 156.671 155.984 156.35 158.987 
158.34 158.79 158.102 158.547 157.807 158.216 157.446 157.782 160.725 
160.077 160.565 159.924 160.39 159.701 160.097 159.352 159.677 158.878 
159.11 162.538 161.875 162.369 161.707 162.177 161.5 161.887 161.172 
161.492 160.741 160.985 160.154 160.306 164.192 163.661 164.156 163.528 
163.996 163.308 163.715 162.972 163.324 162.559 162.856 162.034 162.21 
161.313 161.399 165.433 165.136 165.642 165.193 165.637 165.069 165.458 
164.794 165.138 164.412 164.709 163.919 164.098 163.212 163.256 162.34 
162.343 166.335 166.205 166.747 166.48 166.914 166.519 166.87 166.378 
166.679 166.104 166.346 165.677 165.802 165.014 165.002 164.13 164.06 
163.189 163.132 152.236 151.85 152.538 153.544 151.496 152.211 153.36 
154.007 155.12 151.261 151.954 153.212 153.904 155.137 155.707 156.834 
151.066 151.76 153.031 153.791 155.101 155.756 156.938 157.446 158.531 
150.763 151.491 152.708 153.553 154.897 155.684 156.931 157.529 158.659 
159.153 160.257 150.384 151.097 152.277 153.159 154.552 155.444 156.774 
157.473 158.662 159.249 160.424 160.938 162.069 150.11 150.727 151.879 
152.716 154.143 155.097 156.517 157.302 158.528 159.189 160.383 161.031 
162.192 162.717 163.716 150.043 150.546 151.649 152.364 153.719 154.661 
156.091 156.993 158.25 159 160.165 160.887 162.019 162.677 163.639 
164.153 164.926 150.135 150.57 151.632 152.208 153.428 154.224 155.539 
156.464 157.725 158.609 159.783 160.589 161.683 162.392 163.311 163.9 
164.63 165.142 165.779 151.387 149.914 150.738 150.9 148.298 149.184 
149.29 150.182 150.418 146.517 147.487 147.582 148.499 148.677 149.703 
150.089 144.666 145.662 145.77 146.72 146.839 147.878 148.228 149.413 
149.891 142.902 143.844 143.984 144.915 144.979 145.953 146.174 147.41 
147.894 149.191 149.637 141.35 142.151 142.331 143.223 143.342 144.168 
144.236 145.269 145.625 147.014 147.566 148.892 149.304 140.24 140.766 
140.92 141.683 141.936 142.703 142.841 143.549 143.752 144.795 145.348 
146.73 147.369 148.618 149.08 139.661 139.922 140 140.473 140.73 
141.429 141.777 142.422 142.713 143.335 143.804 144.774 145.526 146.74 
147.449 148.541 149.067 139.318 139.511 139.555 139.784 139.922 140.396 
140.775 141.456 141.946 142.557 143.055 143.679 144.356 145.232 146.033 
147.036 147.715 148.654 149.195 139.133 139.006 139.189 139.418 139.11 
139.15 139.39 139.475 139.751 139.591 139.432 139.672 139.591 139.901 
139.976 140.526 140.382 140.082 140.344 140.095 140.417 140.304 140.872 
141.019 141.757 141.407 140.983 141.27 140.933 141.249 140.983 141.482 
141.485 142.236 142.362 143.048 142.598 142.071 142.298 141.921 142.225 
141.89 142.298 142.157 142.856 142.933 143.731 143.721 144.403 143.726 
143.206 143.313 142.931 143.216 142.886 143.275 143.022 143.647 143.622 
144.464 144.495 145.293 145.211 145.964 144.682 144.215 144.291 143.909 
144.213 143.901 144.344 144.048 144.628 144.479 145.256 145.265 146.08 
146.076 146.818 146.788 147.535 145.584 145.149 145.306 144.915 145.281 
144.961 145.462 145.157 145.715 145.482 146.151 146.074 146.822 146.819 
147.542 147.544 148.252 148.273 148.994 146.145 147.124 146.404 146.001 
148.246 147.526 147.224 146.419 146.091 149.515 148.736 148.529 147.737 
147.455 146.613 146.305 151.238 150.216 150.022 149.114 148.877 148.009 
147.714 146.852 146.567 153.311 152.166 151.953 150.832 150.624 149.576 
149.352 148.358 148.12 147.191 147.009 155.278 154.226 154.026 152.899 
152.706 151.553 151.377 150.224 150.025 148.916 148.725 147.747 147.638 
157.148 156.134 155.977 154.922 154.735 153.647 153.444 152.327 152.101 
150.953 150.711 149.593 149.401 148.424 148.331 159.065 158.052 157.944 
156.884 156.723 155.63 155.389 154.291 154.015 152.942 152.691 151.608 
151.39 150.301 150.141 149.147 149.066 160.849 159.944 159.85 158.864 
158.733 157.652 157.423 156.254 155.944 154.803 154.551 153.511 153.349 
152.311 152.158 151.077 150.93 149.913 149.819 150.535 151.742 151.44 
152.102 153.015 152.746 153.464 153.121 153.871 154.192 154.012 154.785 
154.507 155.258 154.965 155.837 155.408 155.212 156.096 155.85 156.688 
156.374 157.253 157.009 157.971 156.87 156.586 157.581 157.287 158.252 
157.898 158.844 158.512 159.505 159.209 160.136 158.394 158.151 159.153 
158.867 159.817 159.496 160.407 160.108 161.044 160.773 161.664 161.323 
162.064 159.685 159.575 160.521 160.342 161.19 160.951 161.736 161.512 
162.312 162.143 162.918 162.71 163.357 163.051 163.589 160.757 160.723 
161.639 161.547 162.378 162.201 162.964 162.738 163.486 163.284 164.013 
163.818 164.443 164.19 164.697 164.402 164.853 161.712 161.713 162.624 
162.583 163.453 163.34 164.157 163.957 164.716 164.471 165.187 164.931 
165.58 165.287 165.838 165.501 165.976 165.623 166.038 143.664 143.482 
143.157 142.368 143.492 143.048 142.148 141.793 141.038 143.631 143.174 
142.331 141.748 140.859 140.503 139.956 143.766 143.373 142.695 142.109 
141.262 140.594 139.926 139.644 139.425 143.972 143.548 142.966 142.506 
141.838 141.18 140.503 139.917 139.558 139.348 139.25 144.459 143.905 
143.348 142.832 142.27 141.736 141.139 140.565 140.037 139.617 139.263 
139.106 138.856 145.079 144.535 144.023 143.39 142.784 142.179 141.554 
141.048 140.442 140.005 139.437 139.116 138.69 138.587 138.38 145.468 
145.087 144.595 144.075 143.419 142.759 142.015 141.414 140.757 140.291 
139.731 139.315 138.88 138.577 138.407 138.314 138.405 145.632 145.323 
144.809 144.462 143.847 143.324 142.595 141.945 141.284 140.697 140.219 
139.72 139.394 138.97 138.846 138.587 138.707 138.618 138.862 143.616 
142.368 143.108 143.36 141.121 141.877 142.227 142.971 143.331 140.123 
140.753 141.22 141.939 142.397 143.046 143.442 139.549 139.935 140.356 
141.011 141.541 142.209 142.658 143.242 143.684 139.253 139.476 139.645 
140.14 140.545 141.291 141.819 142.518 143.001 143.582 144.099 138.864 
139.118 139.156 139.461 139.683 140.272 140.828 141.628 142.275 142.948 
143.488 144.058 144.612 138.471 138.685 138.846 139.063 139.335 139.65 
140.216 140.805 141.595 142.265 142.946 143.496 144.046 144.591 145.162 
138.5 138.499 138.769 138.901 139.32 139.537 140.14 140.503 141.28 
141.784 142.54 143.033 143.651 144.113 144.699 145.203 145.808 138.913 
138.764 138.996 139.002 139.419 139.606 140.199 140.516 141.203 141.603 
142.297 142.731 143.381 143.808 144.434 144.862 145.496 145.939 146.555 
144.313 144.102 144.547 145.297 144.07 144.452 145.252 145.651 146.489 
144.158 144.502 145.383 145.752 146.64 146.979 147.826 144.387 144.662 
145.611 145.989 146.989 147.271 148.118 148.334 149.025 144.796 144.981 
145.917 146.272 147.323 147.662 148.582 148.755 149.485 149.539 150.211 
145.3 145.443 146.309 146.597 147.559 147.93 148.845 149.157 149.963 
150.118 150.897 150.935 151.847 145.817 145.935 146.725 146.956 147.801 
148.116 148.95 149.307 150.114 150.458 151.277 151.561 152.454 152.701 
153.697 146.394 146.443 147.149 147.313 148.065 148.322 149.105 149.416 
150.207 150.547 151.346 151.733 152.566 153.003 153.853 154.299 155.095 
147.078 147.047 147.683 147.735 148.407 148.573 149.312 149.586 150.38 
150.689 151.474 151.791 152.571 152.96 153.752 154.207 154.944 155.385 
156.006 151.365 150.791 150.707 149.905 150.056 150.018 149.158 149.129 
148.253 149.266 149.197 148.246 148.244 147.301 147.339 146.415 148.544 
148.409 147.417 147.322 146.343 146.324 145.381 145.434 144.541 147.925 
147.748 146.803 146.606 145.662 145.494 144.583 144.489 143.614 143.613 
142.798 147.461 147.236 146.373 146.117 145.224 144.966 144.093 143.878 
143.034 142.864 142.051 141.986 141.288 147.183 146.904 146.108 145.803 
144.948 144.626 143.767 143.494 142.684 142.44 141.654 141.436 140.755 
140.673 140.209 147.006 146.711 145.948 145.624 144.816 144.446 143.627 
143.271 142.516 142.202 141.488 141.184 140.53 140.319 139.866 139.837 
139.608 146.855 146.561 145.818 145.5 144.749 144.389 143.646 143.254 
142.555 142.172 141.514 141.143 140.515 140.206 139.703 139.574 139.284 
139.347 139.207 
POINT_DATA 1002
SCALARS Distance double
LOOKUP_TABLE default
146.798 145.969 146.76 147.655 147.629 147.828 148.559 148.579 148.584 
148.908 149.513 149.626 149.437 149.688 150.344 150.484 150.721 150.427 
150.74 151.487 152.365 151.325 151.595 151.402 151.969 152.845 153.759 
154.447 151.987 152.066 152.291 153.15 154.2 155.11 155.797 156.28 
152.736 152.467 153.348 154.376 155.522 156.443 157.148 157.714 158.154 
153.826 153.241 154.733 155.828 156.929 157.86 158.601 159.23 159.726 
160.053 155.149 154.394 156.206 157.319 158.333 159.259 160.073 160.735 
161.243 161.564 161.705 145.81 146.504 145.553 146.137 145.021 147.329 
145.688 144.44 146.958 148.333 145.298 144.122 146.591 147.969 149.544 
145.078 144.014 146.291 147.544 149.208 150.86 145.094 143.942 146.283 
147.349 148.728 150.595 151.793 145.205 143.895 146.534 147.597 148.563 
150.082 151.562 152.136 145.216 143.945 146.612 147.84 148.715 149.755 
151.105 152.005 152.456 145.19 144.132 146.454 147.773 148.819 149.672 
150.728 151.782 152.511 153.252 145.01 146.076 146.047 147.269 147.349 
147.432 148.71 148.618 148.825 148.81 149.697 149.59 150.145 150.131 
149.807 150.456 150.888 150.744 151.053 150.849 150.64 152.275 152.896 
151.876 151.815 151.704 151.599 151.665 154.72 154.749 154.384 153.842 
153.228 152.863 152.809 152.718 156.307 155.837 156.606 156.44 155.703 
154.89 154.476 154.193 153.73 157.044 156.564 157.609 157.986 157.79 
157.104 156.477 156.051 155.535 154.911 156.251 156.824 158.378 157.452 
158.97 160.652 157.968 159.571 161.348 163.138 158.423 160.05 161.956 
163.889 165.529 158.896 160.408 162.406 164.468 166.229 167.542 159.075 
160.585 162.681 164.894 166.824 168.297 169.348 158.748 160.409 162.656 
164.997 167.122 168.859 170.1 170.966 158.2 159.953 162.284 164.639 
166.809 168.795 170.339 171.436 172.216 157.736 159.452 161.705 163.991 
166.062 168.081 169.869 171.233 172.313 173.095 157.32 159.59 158.509 
161.997 160.774 159.572 164.562 163.259 161.882 160.572 166.823 165.8 
164.467 163.019 161.555 168.687 167.899 166.886 165.542 163.956 162.322 
170.386 169.596 168.735 167.656 166.159 164.449 162.807 171.83 171.008 
170.067 169.142 167.934 166.326 164.648 163.083 172.918 172.133 171.059 
170.095 169.148 167.869 166.296 164.698 163.175 173.768 173.285 173.971 
173.21 173.552 172.175 172.805 172.748 172.035 170.984 172.098 171.822 
171.755 170.856 169.984 171.058 170.856 170.973 170.399 169.646 168.891 
169.988 169.893 169.837 169.432 168.899 168.334 167.489 168.953 168.826 
168.791 168.406 167.959 167.524 166.876 165.87 167.716 167.6 167.648 
167.385 166.998 166.576 166.024 165.206 164.21 166.418 166.408 166.347 
166.178 165.871 165.462 164.968 164.32 163.521 162.641 173.223 173.861 
172.796 173.153 171.873 173.825 171.882 170.754 172.798 173.081 170.658 
169.64 171.503 172.094 172.186 169.575 168.449 170.452 171.164 171.52 
171.363 168.277 167.117 169.291 170.149 170.698 170.741 170.412 166.795 
165.739 167.816 168.751 169.419 169.664 169.584 169.321 165.355 164.377 
166.334 167.263 167.959 168.313 168.421 168.391 168.145 163.991 163.075 
164.944 165.863 166.566 166.986 167.212 167.32 167.266 166.957 156.952 
158.537 157.694 159.585 158.614 160.655 160.643 159.591 161.829 163.001 
161.689 160.526 162.929 164.158 165.185 162.574 161.255 163.919 165.284 
166.403 167.276 163.227 161.855 164.596 166.075 167.469 168.462 169.228 
163.801 162.433 165.127 166.511 168.001 169.253 170.123 170.797 164.218 
162.861 165.574 166.903 168.266 169.561 170.641 171.509 172.116 155.62 
155.961 154.513 154.842 153.335 156.636 153.683 152.246 155.463 157.508 
152.556 151.187 154.219 156.268 158.447 151.396 150.068 152.997 154.968 
157.152 159.268 150.317 149.066 151.892 153.788 155.874 157.919 159.908 
149.519 148.308 151.027 152.792 154.724 156.689 158.614 160.563 148.905 
147.694 150.344 151.933 153.62 155.485 157.456 159.377 161.206 148.299 