# vtk DataFile Version 4.0
vtk output
ASCII
DATASET POLYDATA
POINTS 1002 float
-72.5821 -107.181 56.7294 -72.8531 -106.187 55.971 -73.6039 -106.477 56.2816 
-73.3392 -107.585 57.0902 -74.4449 -106.925 56.7062 -72.1495 -108.489 57.4851 
-74.1904 -108.174 57.6303 -75.3243 -107.615 57.2859 -72.8737 -109.123 57.8503 
-71.7315 -110.186 58.3355 -74.926 -109.103 58.1909 -76.0237 -108.568 57.9053 
-73.5637 -110.007 58.2659 -72.4212 -111.069 58.6692 -71.5412 -112.124 59.3591 
-75.2171 -110.426 58.3364 -76.4136 -109.765 58.2934 -73.9028 -111.268 58.3481 
-72.9212 -112.211 58.8237 -72.2378 -113.19 59.6568 -71.4846 -114.306 60.3092 
-75.1973 -111.873 57.9762 -76.6107 -111 58.2944 -73.88 -112.725 57.9061 
-73.1045 -113.54 58.6015 -72.7251 -114.451 59.7543 -72.1467 -115.594 60.5753 
-71.3717 -116.816 61.0248 -75.2934 -113.02 57.57 -76.6854 -112.012 57.9798 
-74.0221 -113.912 57.5471 -73.3417 -114.711 58.4015 -73.1327 -115.672 59.7919 
-72.7211 -116.92 60.8315 -71.9919 -118.193 61.3559 -71.3674 -119.146 61.8728 
-75.5261 -113.911 57.46 -76.6075 -112.941 57.5866 -74.5492 -114.773 57.7805 
-73.951 -115.592 58.8043 -73.7259 -116.669 60.1681 -73.3759 -118.066 61.2086 
-72.7017 -119.397 61.8073 -72.0712 -120.301 62.3757 -71.6465 -120.824 63.0868 
-75.7552 -114.881 57.7261 -76.5084 -114.015 57.4585 -75.1604 -115.705 58.413 
-74.7197 -116.539 59.5882 -74.4325 -117.615 60.88 -74.1006 -119.012 61.8055 
-73.5351 -120.362 62.3872 -72.9331 -121.273 62.9725 -72.477 -121.781 63.6846 
-72.0485 -122.153 64.3569 -76.0827 -115.92 58.3736 -76.6017 -115.133 57.7858 
-75.7341 -116.767 59.2217 -75.4222 -117.679 60.3439 -75.1025 -118.696 61.5393 
-74.7861 -119.883 62.4624 -74.3707 -121.101 63.0877 -73.8592 -122.053 63.6736 
-73.3877 -122.667 64.3151 -72.9298 -123.107 64.9142 -72.3883 -123.501 65.377 
-73.4701 -105.426 55.3583 -74.3088 -105.79 55.6477 -74.1525 -104.657 54.7056 
-75.0728 -105.178 54.9088 -74.9831 -103.992 53.9716 -75.1614 -106.426 55.952 
-75.9588 -104.646 54.1077 -75.7853 -103.54 52.9873 -75.8375 -106.021 55.0096 
-75.962 -107.256 56.3997 -76.8186 -104.168 53.2181 -76.4196 -103.153 51.8273 
-76.7082 -105.519 54.2247 -76.5524 -106.909 55.3432 -76.7246 -108.172 57.1282 
-77.5843 -103.607 52.3775 -77.1348 -102.591 50.9002 -77.7465 -104.857 53.7333 
-77.5358 -106.35 54.696 -77.5012 -107.783 56.2048 -77.4403 -109.22 57.9362 
-78.3261 -103.053 51.6919 -77.9659 -102.039 50.2068 -78.6583 -104.162 53.3195 
-78.6771 -105.625 54.4232 -78.5306 -107.311 55.5211 -78.441 -108.763 57.2858 
-77.8882 -110.25 58.3628 -78.8326 -102.893 50.8946 -78.4927 -101.879 49.3911 
-79.2128 -103.809 52.6339 -79.4283 -105.011 53.9699 -79.3791 -106.781 54.9266 
-79.2697 -108.409 56.4576 -78.9194 -109.653 57.995 -77.906 -111.164 58.1748 
-78.9192 -103.196 49.8994 -78.582 -102.166 48.4754 -79.3554 -104.012 51.6023 
-79.7529 -104.858 53.098 -79.9267 -106.368 54.1579 -79.9187 -108.11 55.5389 
-79.7258 -109.324 57.2681 -78.9601 -110.528 58.0182 -77.653 -112.233 57.6594 
-78.8125 -103.693 48.9961 -78.5247 -102.728 47.7341 -79.2587 -104.512 50.5497 
-79.841 -105.182 52.0734 -80.3639 -106.296 53.2616 -80.6188 -107.894 54.5784 
-80.5424 -109.186 56.3466 -79.9516 -110.223 57.5564 -78.7451 -111.71 57.5802 
-77.4211 -113.527 57.3516 -78.6978 -103.981 47.9393 -79.0494 -104.863 49.3371 
-79.003 -105.241 48.3855 -79.442 -106.053 49.8891 -79.3001 -106.579 48.985 
-79.6648 -105.612 50.9177 -79.7805 -107.399 50.5224 -79.4956 -108.119 49.6435 
-80.2328 -106.897 51.3913 -80.5201 -106.484 52.2844 -79.8006 -108.902 51.1956 
-79.6132 -109.8 50.3786 -80.4011 -108.336 51.915 -81.1267 -108.014 52.6222 
-81.2025 -107.85 53.5625 -79.5221 -110.703 52.0403 -79.4879 -111.649 51.2901 
-79.7943 -109.965 52.6506 -80.6542 -109.576 53.1307 -81.4243 -109.36 54.0662 
-81.2935 -109.228 55.3106 -79.2425 -112.981 52.9837 -79.0189 -113.671 52.3858 
-79.2467 -112.146 53.6379 -79.4982 -111.482 53.9618 -80.266 -110.983 54.5644 
-80.8933 -110.587 55.751 -80.6976 -110.327 56.8668 -79.1374 -115.237 53.7777 
-78.5394 -115.548 53.5374 -79.5164 -114.552 54.3699 -79.4555 -113.763 54.8324 
-79.3134 -113.048 55.1717 -79.5775 -112.44 55.8461 -79.8254 -112.02 56.6861 
-79.4806 -111.788 57.2648 -79.0787 -116.906 54.5168 -78.3248 -117.015 54.6644 
-79.9312 -116.389 54.7368 -80.3358 -115.648 55.2643 -79.8816 -115 55.7897 
-79.1523 -114.51 56.2374 -78.8371 -114.143 56.6699 -78.622 -113.878 57.011 
-78.0932 -113.669 57.221 -78.8983 -118.083 55.5018 -78.2428 -118.118 55.8015 
-79.7601 -117.695 55.3616 -80.5299 -117.026 55.6669 -80.558 -116.455 56.3528 
-79.7189 -116.195 57.0215 -78.7892 -116.072 57.4297 -78.248 -115.887 57.6448 
-77.784 -115.625 57.7669 -77.1856 -115.354 57.8081 -76.7365 -116.655 59.0357 
-77.3764 -116.957 59.1844 -77.3468 -118.222 60.7405 -77.9473 -117.358 59.1599 
-77.9737 -118.655 60.8725 -77.9887 -119.997 62.3231 -78.4368 -117.714 59.0033 
-78.4234 -119.245 60.7551 -78.5258 -120.602 62.3706 -78.5364 -121.785 63.8777 
-79.1441 -117.815 58.7161 -78.8762 -119.657 60.556 -79.0299 -121.174 62.255 
-79.2181 -122.301 63.9777 -79.3836 -123.295 65.5132 -79.9631 -117.807 58.1084 
-79.4644 -119.766 60.245 -79.7235 -121.468 62.0934 -80.1455 -122.56 63.8659 
-80.3549 -123.561 65.5999 -80.4069 -124.788 66.7604 -80.1995 -118.096 57.2725 
-79.7362 -119.959 59.6424 -80.2019 -121.793 61.7987 -81.0502 -122.851 63.4941 
-81.3578 -123.764 65.2236 -81.2911 -125.069 66.7137 -81.0681 -126.412 67.7666 
-79.7071 -118.659 56.7291 -79.4199 -120.343 58.9794 -79.9297 -122.273 61.3563 
-81.0908 -123.463 63.0718 -81.7247 -124.282 64.5553 -81.7593 -125.529 66.1727 
-81.6654 -126.898 67.6816 -81.5114 -127.82 69.0805 -79.0031 -119.073 56.7178 
-78.8856 -120.542 58.627 -79.2414 -122.422 60.8991 -80.2625 -123.88 62.7506 
-81.083 -124.822 64.1308 -81.4222 -126.03 65.5582 -81.7145 -127.455 67.1567 
-81.98 -128.455 68.8261 -82.0642 -128.879 70.4227 -78.3983 -119.153 56.9501 
-78.3871 -120.426 58.5518 -78.6073 -122.095 60.5034 -79.3321 -123.712 62.3537 
-80.0725 -124.91 63.8698 -80.5396 -126.147 65.2246 -81.1226 -127.663 66.5946 
-81.8444 -128.91 68.1045 -82.3409 -129.531 69.7469 -82.473 -129.699 71.2427 
-76.4787 -117.541 59.9717 -77.1426 -119.3 61.7369 -76.2128 -118.606 60.9709 
-77.7488 -121.086 63.4323 -76.7768 -120.475 62.7377 -75.8497 -119.704 62.059 
-78.4723 -122.754 65.172 -77.4513 -122.128 64.5861 -76.4095 -121.522 63.8036 
-75.5123 -120.757 63.084 -79.4442 -124.501 66.5506 -78.3465 -123.943 66.1755 
-77.2198 -123.262 65.5455 -76.1604 -122.556 64.7136 -75.2026 -121.831 63.8805 
-80.2358 -126.266 67.614 -79.1811 -125.984 67.2883 -78.0364 -125.405 66.8306 
-76.9095 -124.556 66.1789 -75.7986 -123.64 65.4188 -74.7635 -122.826 64.5598 
-80.7865 -127.55 69.1295 -79.8154 -127.352 68.8186 -78.7038 -127.085 68.2605 
-77.5337 -126.509 67.5218 -76.3399 -125.574 66.7931 -75.2127 -124.551 66.0607 
-74.2411 -123.6 65.1906 -81.4601 -128.397 70.8864 -80.5358 -127.926 70.8523 
-79.4173 -127.598 70.3512 -78.183 -127.364 69.4424 -76.8753 -126.915 68.3916 
-75.6178 -126.145 67.4618 -74.5679 -125.219 66.5731 -73.7055 -124.19 65.6923 
-82.0972 -129.184 72.0527 -81.2842 -128.499 72.3603 -80.1371 -127.852 72.1345 
-78.8193 -127.51 71.4173 -77.441 -127.37 70.3225 -76.0786 -127.055 69.1159 
-74.8745 -126.483 67.958 -73.9039 -125.692 66.9084 -73.0955 -124.65 66.0599 
-82.271 -130.095 72.1967 -81.7731 -129.528 72.922 -81.1913 -130.335 72.7864 
-80.4152 -129.814 73.3062 -79.2163 -130.452 73.1826 -80.7015 -128.723 73.0521 
-78.2003 -130.027 73.5754 -77.0971 -130.777 73.4 -79.0762 -129.074 73.2096 
-79.2586 -128.034 72.6568 -76.064 -130.385 73.6642 -75.4052 -131.445 73.1951 
-76.8978 -129.417 73.2803 -77.5659 -128.529 72.6626 -77.7589 -127.75 71.8543 
-74.2571 -130.895 73.3074 -73.7565 -131.88 72.7068 -74.9004 -129.715 73.2206 
-75.6148 -128.883 72.6346 -76.1736 -128.176 71.9107 -76.3302 -127.546 70.7514 
-72.4553 -131.081 72.7975 -71.983 -131.714 72.1848 -73.0252 -129.954 72.9699 
-73.7325 -128.905 72.7052 -74.4206 -128.204 72.0324 -74.8999 -127.625 70.9427 
-75.0083 -127.129 69.4441 -70.9478 -130.818 72.2039 -70.5513 -131.309 71.4797 
-71.4026 -129.944 72.5746 -72.034 -128.861 72.6579 -72.7623 -127.981 72.2092 
-73.3978 -127.402 71.1134 -73.7646 -127.032 69.5941 -73.8751 -126.573 68.0852 
-69.8808 -130.437 71.3261 -69.5132 -130.943 70.5743 -70.2854 -129.679 71.8056 
-70.8038 -128.765 72.0849 -71.4598 -127.91 71.9078 -72.1193 -127.249 71.0161 
-72.5728 -126.834 69.6105 -72.7843 -126.475 68.1385 -72.9368 -125.757 66.9569 
-68.8876 -130.068 70.3638 -68.5554 -130.518 69.7183 -69.3 -129.332 70.7989 
-69.7902 -128.506 71.0664 -70.3769 -127.8 70.9996 -71.0265 -127.207 70.3822 
-71.5514 -126.689 69.3164 -71.7992 -126.245 68.0944 -71.9351 -125.62 66.998 
-72.158 -124.626 66.1411 -82.3527 -130.281 70.6836 -81.6449 -130.538 71.5094 
-81.4512 -130.495 69.798 -80.2431 -130.524 70.5598 -79.9669 -130.266 68.9869 
-80.034 -130.554 72.1048 -78.6446 -130.284 69.6402 -78.4534 -129.793 68.3482 
-78.5089 -130.476 71.062 -78.0042 -130.715 72.4192 -77.3372 -130.081 68.7052 
-77.1988 -129.294 67.5404 -77.209 -130.512 69.887 -76.9033 -130.967 71.0924 
-76.3186 -131.433 72.3394 -76.1739 -129.722 67.61 -76.0686 -128.734 66.5095 
-76.108 -130.519 68.7509 -75.9446 -131.209 69.777 -75.5957 -131.866 70.8413 
-74.8408 -132.174 71.9807 -74.9595 -128.974 66.5676 -74.9497 -127.986 65.5867 
-74.9214 -129.986 67.689 -74.824 -130.95 68.7749 -74.5551 -131.758 69.6332 
-73.9363 -132.239 70.5409 -72.988 -132.21 71.5449 -73.8636 -128.084 65.6517 
-73.9338 -127.115 64.7668 -73.8028 -129.116 66.6191 -73.6949 -130.142 67.7338 
-73.3541 -131.05 68.6613 -72.7012 -131.749 69.2582 -71.8981 -132.043 69.998 
-71.147 -131.846 70.9103 -73.0614 -127.319 64.6232 -73.1493 -126.293 63.8057 
-72.9805 -128.413 65.3917 -72.8439 -129.398 66.3219 -72.4641 -130.162 67.3944 
-71.7568 -130.905 68.1037 -70.9454 -131.582 68.4943 -70.2998 -131.798 69.1801 
-69.8533 -131.503 70.0529 -72.5064 -126.619 63.4624 -72.5991 -125.597 62.7025 
-72.4053 -127.768 64.105 -72.2217 -128.82 64.7633 -71.841 -129.475 65.7472 
[...]
CELL_DATA 2000
SCALARS Distance double
LOOKUP_TABLE default
139.963 140.803 140.549 140.969 141.89 141.512 141.949 141.66 142.216 
143.174 142.719 143.149 142.757 143.331 143.078 143.826 144.439 144.001 
144.376 143.978 144.512 144.256 145.035 144.857 145.757 145.518 145.138 
145.403 145.078 145.551 145.382 146.19 146.098 147.077 146.914 147.896 
146.345 146.053 146.256 145.985 146.458 146.348 147.232 147.244 148.351 
148.276 149.343 149.126 150.101 146.997 146.789 147.106 146.864 147.461 
147.325 148.332 148.349 149.595 149.586 150.753 150.585 151.57 151.303 
152.171 147.73 147.536 148.106 147.882 148.7 148.521 149.642 149.589 
150.897 150.886 152.11 151.986 152.988 152.74 153.581 153.279 154.03 
148.72 148.504 149.308 149.103 150.108 149.929 151.102 150.994 152.252 
152.207 153.396 153.31 154.314 154.115 154.955 154.669 155.412 155.076 
155.745 139.493 139.036 139.604 140.329 138.65 139.198 139.983 140.546 
141.398 138.365 138.892 139.686 140.228 141.1 141.707 142.654 138.069 
138.645 139.463 139.976 140.807 141.389 142.36 143.019 143.977 137.717 
138.339 139.245 139.793 140.654 141.154 142.116 142.741 143.815 144.393 
145.236 137.446 138.029 139.002 139.596 140.554 141.064 142.044 142.595 
143.694 144.288 145.256 145.625 146.2 137.3 137.838 138.807 139.387 
140.36 140.933 141.916 142.517 143.575 144.201 145.175 145.635 146.256 
146.452 146.805 137.213 137.729 138.685 139.225 140.154 140.708 141.662 
142.297 143.352 144.029 145.023 145.543 146.217 146.47 146.848 146.987 
147.373 137.23 137.675 138.63 139.123 140.051 140.541 141.497 142.065 
143.16 143.811 144.899 145.433 146.223 146.487 146.947 147.055 147.454 
147.633 148.206 137.641 138.809 138.458 139.002 140.127 139.692 140.206 
139.866 140.422 141.561 141.061 141.598 141.177 141.773 141.357 141.942 
143.052 142.495 142.985 142.587 143.242 142.848 143.529 143.039 143.689 
144.638 143.989 144.333 143.884 144.442 144.197 144.903 144.628 145.291 
144.842 145.4 146.39 145.685 146.047 145.343 145.768 145.314 145.889 
145.722 146.341 146.185 146.643 146.307 146.596 148.138 147.539 148.09 
147.304 147.765 146.933 147.361 146.771 147.259 146.997 147.443 147.246 
147.484 147.17 147.257 149.656 149.234 149.838 149.294 149.79 149.048 
149.4 148.546 148.856 148.16 148.541 148.086 148.428 148.023 148.201 
147.749 147.837 150.932 150.608 151.117 150.769 151.192 150.758 151.082 
150.467 150.714 149.957 150.244 149.523 149.894 149.253 149.587 148.941 
149.17 148.52 148.709 149.608 150.139 150.388 151.53 150.633 150.955 
152.165 152.491 153.785 151.032 151.437 152.727 153.133 154.481 154.808 
156.103 151.397 151.815 153.147 153.654 155.064 155.486 156.828 157.118 
158.372 151.732 152.129 153.406 154.007 155.478 156.028 157.42 157.798 
159.077 159.36 160.57 151.929 152.332 153.497 154.174 155.709 156.411 
157.893 158.352 159.628 159.975 161.19 161.502 162.643 151.977 152.391 
153.459 154.163 155.708 156.574 158.146 158.762 160.018 160.425 161.585 
162.003 163.187 163.516 164.579 151.929 152.367 153.352 154.032 155.449 
156.419 157.957 158.816 160.027 160.612 161.654 162.219 163.379 163.928 
165.073 165.397 166.346 151.776 152.265 153.16 153.81 155.001 155.958 
157.33 158.357 159.524 160.333 161.289 162.024 163.089 163.878 165.03 
165.676 166.664 167.011 167.745 149.639 151.632 150.52 150.405 153.926 
152.733 152.673 151.457 151.365 156.24 155.085 155.063 153.844 153.777 
152.516 152.432 158.527 157.41 157.415 156.223 156.166 154.94 154.853 
153.607 153.535 160.79 159.735 159.822 158.619 158.597 157.336 157.255 
155.999 155.895 154.677 154.584 162.899 161.977 162.156 161.056 161.098 
159.842 159.769 158.443 158.296 157.004 156.83 155.627 155.444 164.802 
163.994 164.176 163.26 163.313 162.251 162.155 160.929 160.698 159.39 
159.104 157.836 157.549 156.359 156.069 166.533 165.806 165.922 165.1 
165.063 164.191 164.021 163.046 162.731 161.609 161.205 160.008 159.608 
158.418 158.038 156.878 156.508 167.939 167.393 167.444 166.701 166.527 
165.711 165.412 164.593 164.218 163.331 162.875 161.872 161.388 160.322 
159.862 158.769 158.322 157.221 156.794 168.533 168.866 168.614 168.072 
168.524 168.656 168.205 167.873 167.072 167.835 168.089 167.718 167.703 
166.971 166.673 165.828 167.292 167.404 167.005 167.065 166.449 166.372 
165.63 165.386 164.594 166.79 166.882 166.361 166.371 165.765 165.783 
165.153 165.079 164.358 164.119 163.287 165.923 166.203 165.63 165.696 
165.012 165.071 164.433 164.498 163.818 163.754 162.95 162.723 161.828 
164.76 165.164 164.672 164.858 164.195 164.284 163.619 163.71 163.037 
163.081 162.326 162.259 161.423 161.219 160.319 163.592 163.998 163.577 
163.846 163.268 163.431 162.809 162.909 162.26 162.298 161.593 161.578 
160.818 160.73 159.9 159.693 158.789 162.47 162.867 162.442 162.746 
162.185 162.438 161.84 162.048 161.423 161.536 160.854 160.873 160.144 
160.104 159.321 159.204 158.346 158.137 157.243 168.661 168.415 168.779 
168.903 167.434 168.121 168.234 168.65 168.482 166.135 166.912 167.025 
167.659 167.621 168.027 167.815 164.863 165.635 165.841 166.454 166.565 
167.098 167.192 167.503 167.41 163.54 164.389 164.707 165.387 165.617 
166.182 166.424 166.901 167.032 167.23 167.018 162.059 162.978 163.292 
164.172 164.449 165.214 165.428 166.073 166.15 166.632 166.437 166.625 
166.116 160.543 161.433 161.696 162.636 162.912 163.845 164.025 164.843 
164.806 165.468 165.205 165.69 165.234 165.471 164.873 159.119 159.949 
160.231 161.088 161.373 162.257 162.44 163.275 163.242 163.956 163.722 
164.309 163.965 164.403 163.975 164.208 163.688 157.813 158.595 158.913 
159.719 160.01 160.807 160.967 161.716 161.691 162.383 162.225 162.851 
162.624 163.15 162.853 163.239 162.846 163.063 162.57 151.894 152.497 
152.566 153.344 153.122 153.225 154.147 154.197 155.203 153.888 153.969 
155.027 155.103 156.248 156.3 157.468 154.779 154.867 156.044 156.123 
157.354 157.404 158.581 158.594 159.622 155.619 155.778 156.964 157.142 
158.386 158.52 159.686 159.698 160.706 160.618 161.475 156.313 156.552 
157.673 157.926 159.079 159.361 160.505 160.697 161.751 161.749 162.722 
162.537 163.415 156.811 157.143 158.247 158.538 159.612 159.9 160.986 
161.309 162.419 162.67 163.764 163.818 164.835 164.619 165.444 157.115 
157.512 158.587 158.989 160.045 160.377 161.409 161.73 162.803 163.17 
164.278 164.621 165.679 165.839 166.714 166.535 167.109 157.356 157.728 
158.708 159.171 160.176 160.649 161.642 162.07 163.05 163.462 164.426 
164.876 165.812 166.273 167.117 167.399 168.008 167.898 168.186 151.091 
149.906 150.902 151.635 148.581 149.654 150.456 151.442 152.2 147.264 
148.332 149.169 150.221 151.027 152.021 152.862 145.974 147.021 147.836 
148.916 149.736 150.795 151.648 152.72 153.659 144.72 145.716 146.496 
147.569 148.379 149.466 150.325 151.448 152.393 153.531 154.493 143.605 
144.489 145.24 146.251 147.076 148.131 149.006 150.112 151.062 152.22 
153.186 154.32 155.208 142.666 143.434 144.138 145.06 145.892 146.898 
147.788 148.841 149.78 150.895 151.849 152.982 153.865 154.957 155.73 
141.847 142.529 143.16 144.001 144.781 145.751 146.612 147.644 148.543 
149.626 150.559 151.666 152.565 153.63 154.427 155.435 156.119 141.129 
141.728 142.28 143.03 143.725 144.634 145.433 146.44 147.284 148.355 
149.255 150.376 151.302 152.384 153.232 154.21 154.938 155.84 156.465 
140.922 140.972 141.291 142.05 141.091 141.395 142.217 142.554 143.479 
141.359 141.62 142.534 142.827 143.83 144.145 145.189 141.811 142.03 
143.053 143.296 144.383 144.624 145.72 145.97 147.058 142.396 142.594 
143.687 143.927 145.093 145.306 146.454 146.627 147.764 147.946 149.072 
143.076 143.25 144.367 144.606 145.819 146.066 147.272 147.447 148.622 
148.766 149.948 150.072 151.182 143.832 143.99 145.123 145.326 146.559 
146.812 148.065 148.278 149.463 149.632 150.798 150.969 152.092 152.18 
153.148 144.618 144.783 145.932 146.115 147.334 147.575 148.843 149.08 
150.264 150.434 151.533 151.727 152.813 153.007 153.988 154.041 154.854 
145.398 145.577 146.719 146.909 148.074 148.316 149.538 149.824 151.012 
151.215 152.27 152.417 153.437 153.639 154.646 154.801 155.662 155.662 
156.372 146.213 147.94 147.235 147.562 149.765 149.025 149.362 148.604 
148.926 151.703 150.92 151.289 150.47 150.814 150.027 150.397 153.694 
152.914 153.314 152.471 152.831 151.993 152.377 151.568 151.897 155.556 
154.855 155.258 154.498 154.869 154.045 154.408 153.578 153.879 153.006 
153.176 157.297 156.64 157.074 156.393 156.81 156.046 156.402 155.589 
155.883 155.003 155.178 154.224 154.338 159.035 158.4 158.904 158.235 
158.715 157.97 158.341 157.536 157.843 157.003 157.241 156.296 156.433 
155.429 155.535 160.629 160.127 160.655 160.067 160.54 159.857 160.2 
159.429 159.693 158.912 159.163 158.332 158.484 157.529 157.552 156.561 
156.534 161.858 161.569 162.064 161.653 162.049 161.524 161.802 161.16 
161.357 160.661 160.839 160.122 160.226 159.418 159.362 158.45 158.292 
157.366 157.205 145.675 145.451 146.167 147.41 145.321 146.007 147.27 
147.957 149.227 145.214 145.936 147.21 147.857 149.145 149.827 151.148 
144.975 145.813 147.176 147.849 149.163 149.811 151.207 151.862 153.197 
144.674 145.538 146.996 147.795 149.214 149.908 151.385 152.037 153.481 
153.988 155.186 144.536 145.29 146.737 147.578 149.062 149.899 151.432 
152.224 153.735 154.341 155.611 155.949 156.976 144.555 145.215 146.596 
147.364 148.799 149.656 151.135 152.074 153.561 154.431 155.747 156.321 
157.379 157.695 158.651 144.597 145.211 146.517 147.242 148.604 149.393 
150.768 151.652 153.035 154.005 155.316 156.189 157.303 157.918 158.865 
159.281 160.168 144.677 145.212 146.415 147.106 148.399 149.173 150.49 
151.295 152.59 153.446 154.69 155.591 156.723 157.562 158.538 159.226 
160.078 160.604 161.354 144.511 142.653 143.774 144.221 140.792 141.874 
142.255 143.482 144.025 138.867 139.94 140.173 141.407 141.839 143.231 
143.803 136.852 137.88 137.969 139.189 139.458 140.874 141.359 142.897 
143.468 135.104 135.865 135.857 136.933 137.174 138.48 138.953 140.415 
141.046 142.561 143.202 133.975 134.376 134.293 135.013 135.299 136.384 
136.987 138.25 138.991 140.323 141.088 142.453 143.169 133.224 133.515 
133.428 133.806 134.04 134.813 135.479 136.567 137.402 138.562 139.364 
140.557 141.315 142.564 143.27 132.438 132.842 132.873 133.168 133.342 
133.837 134.4 135.268 136.097 137.142 137.953 139.014 139.754 140.861 
141.577 142.738 143.409 131.643 132.095 132.28 132.654 132.875 133.268 
133.714 134.35 135.074 135.952 136.762 137.718 138.485 139.46 140.202 
141.213 141.933 142.968 143.622 131.363 131.362 131.563 132.027 131.619 
131.662 132.117 132.283 132.756 132.217 132.066 132.531 132.54 133.087 
133.138 133.702 133.188 132.847 133.295 133.131 133.697 133.644 134.283 
134.29 135.026 134.366 133.931 134.316 134.02 134.53 134.37 135.005 
134.97 135.74 135.788 136.646 135.554 135.106 135.431 135.075 135.521 
135.27 135.864 135.758 136.549 136.565 137.464 137.497 138.38 136.737 
136.273 136.568 136.174 136.584 136.286 136.849 136.677 137.457 137.435 
138.383 138.396 139.321 139.273 140.12 137.923 137.46 137.733 137.305 
137.674 137.347 137.884 137.683 138.422 138.368 139.295 139.332 140.292 
140.268 141.123 141.023 141.825 139.023 138.614 138.868 138.451 138.779 
138.431 138.941 138.721 139.44 139.342 140.221 140.228 141.176 141.203 
142.083 142.026 142.803 142.702 143.463 139.675 140.666 139.957 139.561 
141.927 141.068 140.7 139.902 139.538 143.584 142.546 142.248 141.261 
140.976 140.052 139.804 145.55 144.408 144.2 143.077 142.906 141.794 
141.626 140.561 140.418 147.694 146.505 146.345 145.182 145.085 143.933 
143.829 142.635 142.487 141.335 141.237 149.909 148.732 148.588 147.391 
147.272 146.13 146.023 144.875 144.706 143.512 143.339 142.215 142.147 
151.992 150.932 150.819 149.652 149.485 148.302 148.125 146.988 146.8 
145.666 145.459 144.326 144.166 143.11 143.019 153.848 152.918 152.842 
151.802 151.646 150.495 150.278 149.091 148.87 147.715 147.506 146.383 
146.182 145.097 144.918 143.895 143.735 155.548 154.697 154.643 153.717 
153.602 152.57 152.384 151.243 151.011 149.825 149.587 148.423 148.19 
147.072 146.845 145.776 145.57 144.552 144.381 145.122 146.333 146.056 
146.814 147.644 147.337 148.135 147.89 148.784 149.052 148.732 149.587 
149.297 150.249 149.982 150.914 150.524 150.221 151.14 150.826 151.811 
151.525 152.506 152.162 153.033 151.984 151.734 152.689 152.397 153.355 
153.083 154.045 153.754 154.623 154.245 155.047 153.34 153.172 154.144 
153.911 154.831 154.567 155.456 155.206 156.043 155.75 156.517 156.191 
156.967 154.531 154.455 155.45 155.307 156.251 156.008 156.877 156.59 
157.406 157.108 157.872 157.573 158.325 158.045 158.776 155.562 155.565 
156.572 156.532 157.504 157.365 158.257 158.012 158.827 158.508 159.262 
158.923 159.651 159.352 160.069 159.774 160.387 156.46 156.528 157.52 
157.561 158.503 158.486 159.343 159.253 160.034 159.853 160.56 160.288 
160.942 160.645 161.289 161.012 161.604 161.274 161.715 136.354 136.301 
135.888 135.136 136.411 135.928 135.159 134.781 134.155 136.577 136.079 
135.34 134.902 134.223 133.853 133.221 136.85 136.294 135.546 135.09 
134.376 133.946 133.201 132.845 132.234 137.229 136.633 135.848 135.318 
134.56 134.074 133.276 132.833 132.144 131.901 131.538 137.58 137.021 
136.248 135.672 134.905 134.322 133.521 132.961 132.251 131.877 131.455 
131.36 131.194 137.921 137.379 136.67 136.099 135.39 134.772 134.02 
133.352 132.632 132.091 131.605 131.343 131.094 131.042 130.875 138.374 
137.807 137.172 136.577 135.945 135.329 134.674 133.983 133.302 132.619 
132.074 131.6 131.297 131.053 130.895 130.769 130.688 138.903 138.352 
137.782 137.169 136.586 135.957 135.389 134.721 134.147 133.418 132.894 
132.233 131.897 131.435 131.308 131.012 131.023 130.825 130.965 136.261 
135.055 135.714 136.031 134.046 134.591 134.893 135.674 136.238 133.073 
133.596 133.824 134.575 135.136 136.016 136.677 132.143 132.607 132.8 
133.495 134.022 134.911 135.612 136.497 137.157 131.594 131.865 132.136 
132.607 133.157 133.878 134.632 135.477 136.237 137.032 137.694 131.321 
131.542 131.901 132.224 132.822 133.284 134.049 134.677 135.486 136.202 
136.938 137.635 138.274 130.932 131.225 131.55 132.004 132.602 133.097 
133.803 134.292 135.008 135.575 136.283 136.93 137.596 138.242 138.843 
130.666 130.805 131.05 131.502 132.079 132.724 133.432 134.016 134.649 
135.152 135.762 136.326 136.985 137.607 138.258 138.848 139.435 130.948 
130.787 131.03 131.155 131.722 132.195 132.976 133.569 134.284 134.782 
135.387 135.866 136.518 137.073 137.776 138.339 138.989 139.494 140.056 
137.065 136.875 137.361 138.288 137.085 137.366 138.251 138.687 139.643 
137.503 137.69 138.516 138.796 139.713 140.123 141.108 137.944 138.111 
138.912 139.13 140.026 140.33 141.34 141.708 142.718 138.427 138.553 
139.34 139.533 140.428 140.704 141.733 142.066 143.132 143.415 144.398 
138.958 139.053 139.803 139.965 140.807 141.078 142.048 142.428 143.46 
143.831 144.801 145.085 146.031 139.486 139.57 140.274 140.413 141.17 
141.402 142.255 142.629 143.565 144.015 144.935 145.35 146.249 146.646 
147.606 140.026 140.082 140.756 140.864 141.577 141.745 142.53 142.808 
143.689 144.072 144.991 145.403 146.321 146.752 147.71 148.167 149.122 
140.594 140.624 141.278 141.353 142.059 142.175 142.953 143.14 144.023 
144.295 145.249 145.563 146.53 146.876 147.859 148.262 149.237 149.64 
150.498 144.349 143.557 143.467 142.508 142.788 142.677 141.697 141.618 
140.682 142.055 141.923 140.932 140.816 139.841 139.786 138.824 141.399 
141.232 140.25 140.081 139.089 138.965 137.994 137.907 136.922 140.87 
140.656 139.73 139.492 138.547 138.314 137.393 137.197 136.317 136.128 
135.297 140.517 140.247 139.405 139.102 138.232 137.916 137.064 136.774 
135.982 135.72 135.005 134.771 134.178 140.341 140.028 139.253 138.899 
138.064 137.7 136.865 136.545 135.751 135.477 134.722 134.512 133.854 
133.754 133.26 140.274 139.946 139.207 138.826 137.997 137.588 136.745 
136.385 135.592 135.278 134.468 134.187 133.378 133.256 132.602 132.706 
132.265 140.256 139.926 139.22 138.828 138.034 137.584 136.771 136.341 
135.61 135.22 134.501 134.062 133.253 132.851 132.102 131.975 131.471 
131.658 131.378 
POINT_DATA 1002
SCALARS Distance double
LOOKUP_TABLE default
140.331 139.415 140.148 141.172 141.094 141.408 142.274 142.306 142.406 
142.838 143.582 143.637 143.597 143.994 144.649 144.791 144.896 144.763 
145.182 145.933 146.693 145.737 145.931 145.692 146.207 147.184 148.119 
148.88 146.503 146.612 146.537 147.15 148.344 149.53 150.384 151.044 
147.262 147.124 147.557 148.293 149.557 150.889 151.844 152.484 152.986 
148.228 147.844 148.83 149.716 150.921 152.215 153.229 153.893 154.368 
154.738 149.445 148.876 150.253 151.244 152.35 153.488 154.488 155.226 
155.746 156.124 156.375 138.919 139.748 138.443 139.404 138.104 140.797 
139.172 137.822 140.485 142.021 138.944 137.444 140.275 141.663 143.401 
138.632 137.078 140.162 141.527 143.162 144.886 138.381 136.882 139.996 
141.508 143.102 144.822 146.065 138.255 136.768 139.788 141.299 142.945 
144.683 146.022 146.686 138.168 136.706 139.636 141.039 142.651 144.463 
145.927 146.707 147.159 138.156 136.832 139.57 140.949 142.506 144.325 
145.914 146.831 147.309 147.902 137.937 139.283 139.208 140.588 140.588 
140.75 142.011 142.087 142.197 142.374 143.391 143.68 143.555 143.975 
144.239 144.902 145.337 144.711 145.065 145.672 145.965 146.822 147.018 
146.424 146.174 146.436 146.924 147.047 148.781 148.62 148.67 148.204 
147.709 147.641 147.775 147.637 150.303 150.048 150.432 150.27 149.727 
149.135 148.852 148.666 148.31 151.476 151.275 151.574 151.575 151.404 
151.013 150.587 150.247 149.853 149.353 150.599 151.214 152.781 151.803 
153.482 155.096 152.266 154.116 155.848 157.367 152.596 154.584 156.495 
158.142 159.61 152.783 154.846 157.007 158.76 160.331 161.771 152.814 
154.902 157.383 159.291 160.836 162.405 163.756 152.79 154.784 157.443 
159.615 161.15 162.771 164.388 165.596 152.743 154.533 157.035 159.394 
161.074 162.741 164.627 166.208 167.237 152.581 154.162 156.312 158.644 
160.535 162.261 164.268 166.196 167.591 168.408 151.518 153.903 152.601 
156.259 155.029 153.705 158.605 157.384 156.089 154.769 160.99 159.87 
158.539 157.14 155.777 163.172 162.308 161.119 159.652 158.097 156.619 
165.055 164.303 163.33 162.019 160.425 158.793 157.236 166.769 165.947 
164.945 163.792 162.385 160.808 159.225 157.654 168.175 167.39 166.247 
165.047 163.82 162.426 160.934 159.428 157.885 169.017 168.653 168.933 
168.387 168.259 167.579 167.629 167.625 167.145 166.194 166.966 167.29 
166.428 165.782 164.92 166.397 166.687 165.726 165.146 164.538 163.621 
165.529 165.556 164.969 164.346 163.814 163.107 162.127 164.41 164.315 
164.079 163.54 162.975 162.327 161.548 160.598 163.27 163.192 163.052 
162.677 162.213 161.595 160.862 160.048 159.056 162.139 162.081 161.917 
161.589 161.256 160.803 160.167 159.406 158.511 157.471 168.562 168.764 
167.923 167.684 166.7 168.26 166.358 165.351 167.04 167.569 165.2 
164.04 165.97 166.692 167.322 163.929 162.653 164.995 165.89 166.696 
167.085 162.354 161.171 163.595 164.761 165.636 166.123 166.11 160.776 
159.684 161.96 163.183 164.135 164.651 164.845 164.752 159.388 158.286 
160.531 161.631 162.51 163.084 163.435 163.617 163.56 158.113 157.041 
159.24 160.261 161.012 161.557 162.038 162.401 162.542 162.439 151.829 
153.292 152.373 154.014 152.983 155.139 154.913 153.771 156.158 157.451 
155.92 154.649 157.301 158.607 159.689 156.767 155.444 158.205 159.654 
160.801 161.632 157.447 156.051 158.806 160.227 161.638 162.817 163.719 
157.934 156.449 159.362 160.67 162.065 163.558 164.917 165.869 158.155 
156.743 159.675 161.102 162.457 163.89 165.389 166.733 167.542 150.173 
150.706 148.841 149.416 147.49 151.25 148.093 146.212 150.001 151.835 
146.762 144.951 148.658 150.554 152.559 145.44 143.774 147.292 149.192 
151.235 153.388 144.259 142.787 146.026 147.915 149.914 152.042 154.131 
143.26 141.954 144.9 146.756 148.698 150.732 152.775 154.691 142.376 
141.214 143.847 145.601 147.482 149.452 151.495 153.427 155.165 141.597 