# vtk DataFile Version 4.0
vtk output
ASCII
DATASET POLYDATA
POINTS 1002 float
-73.826 -107.262 56.5312 -73.9736 -106.516 55.7108 -74.679 -106.776 55.9344 
-74.4876 -107.593 56.8318 -75.317 -106.952 56.3569 -73.5664 -108.231 57.4669 
-75.0996 -107.906 57.3153 -75.9576 -107.085 57.0882 -74.1581 -108.775 57.8176 
-73.2287 -109.543 58.6087 -75.7442 -108.365 57.9847 -76.735 -107.465 57.9065 
-74.7492 -109.47 58.2236 -73.739 -110.377 58.9453 -72.9672 -111.075 59.9129 
-76.3877 -109.273 58.4348 -77.493 -108.389 58.274 -75.3451 -110.389 58.6678 
-74.2772 -111.422 59.2088 -73.4186 -112.132 60.1765 -72.8389 -112.687 61.1865 
-76.7845 -110.582 58.2649 -77.9083 -109.678 58.1685 -75.7888 -111.558 58.8593 
-74.785 -112.481 59.5589 -73.8859 -113.264 60.4021 -73.2583 -113.831 61.4539 
-72.7277 -114.38 62.4002 -76.9217 -111.817 57.9016 -78.0384 -110.89 58.0924 
-76.0349 -112.711 58.7637 -75.2308 -113.457 59.949 -74.393 -114.206 60.8825 
-73.7026 -114.918 61.8189 -73.1534 -115.527 62.8019 -72.6039 -116.17 63.5754 
-77.0978 -112.75 57.9623 -78.146 -111.858 58.1745 -76.3221 -113.579 58.9091 
-75.731 -114.261 60.4361 -75.0491 -115.006 61.5861 -74.3145 -115.848 62.457 
-73.6825 -116.617 63.3563 -73.1158 -117.296 64.1253 -72.5865 -117.913 64.7015 
-77.4328 -113.496 58.4827 -78.2819 -112.663 58.2928 -76.7999 -114.262 59.5671 
-76.3286 -114.926 61.1692 -75.7886 -115.721 62.4081 -75.1089 -116.683 63.2426 
-74.4244 -117.574 64.0911 -73.8043 -118.322 64.8348 -73.2352 -118.931 65.3843 
-72.7372 -119.338 65.9011 -77.8149 -114.157 59.2845 -78.3925 -113.42 58.5618 
-77.367 -114.888 60.5475 -76.9521 -115.582 62.0585 -76.4509 -116.42 63.2355 
-75.8578 -117.442 64.0249 -75.238 -118.384 64.8504 -74.6283 -119.133 65.6493 
-74.0354 -119.751 66.194 -73.4825 -120.17 66.6649 -73.0018 -120.34 67.2115 
-74.5791 -105.888 55.039 -75.3513 -106.158 55.293 -75.3529 -105.06 54.4508 
-76.2472 -105.457 54.7285 -76.3665 -104.163 53.9644 -76.0671 -106.368 55.8168 
-77.4015 -104.71 54.2614 -77.501 -103.48 53.3375 -77.1249 -105.885 55.274 
-76.8918 -106.523 56.7034 -78.5171 -104.068 53.657 -78.4571 -103.221 52.3487 
-78.3627 -105.36 54.7608 -78.1596 -106.207 56.1594 -77.9166 -106.914 57.6171 
-79.2835 -103.759 52.7111 -79.0932 -103.275 51.1342 -79.3449 -104.816 54.1699 
-79.3688 -105.9 55.5727 -79.2338 -106.697 57.1352 -78.7596 -107.857 58.2009 
-79.8198 -103.758 51.5831 -79.6286 -103.326 49.9063 -80.0309 -104.553 53.397 
-80.2304 -105.622 54.9893 -80.2171 -106.657 56.5302 -79.8862 -107.734 58.1144 
-79.13 -109.157 58.6629 -80.3396 -103.844 50.5363 -80.2371 -103.319 48.7973 
-80.6213 -104.599 52.5424 -80.9709 -105.555 54.3506 -80.9619 -106.659 55.8169 
-80.6316 -107.84 57.6337 -80.1456 -109.016 59.1469 -79.2552 -110.347 59.0269 
-80.7724 -104.042 49.7015 -80.7572 -103.495 48.0055 -80.9963 -104.79 51.7225 
-81.4919 -105.641 53.6373 -81.6855 -106.615 55.0761 -81.3308 -107.792 56.7407 
-80.9009 -108.96 58.8108 -80.3191 -110.045 59.6616 -79.3028 -111.293 58.9124 
-81.0122 -104.505 49.1172 -80.9955 -103.998 47.6426 -81.1082 -105.163 50.9554 
-81.5658 -105.866 52.829 -82.0712 -106.631 54.3273 -82.0485 -107.613 55.8111 
-81.662 -108.734 57.8252 -81.1795 -109.797 59.3324 -80.335 -110.907 59.2153 
-79.2279 -112.171 58.4526 -81.0705 -105.087 48.326 -81.1413 -105.669 49.822 
-81.1996 -106.413 48.9744 -81.4232 -106.954 50.4005 -81.524 -107.692 49.5521 
-81.3805 -106.266 51.6116 -81.8163 -108.175 51.0511 -81.6982 -108.842 50.3746 
-81.8126 -107.49 52.11 -81.981 -106.884 53.3104 -81.7986 -109.363 52.0275 
-81.4218 -110.159 51.4582 -82.1576 -108.808 52.7763 -82.4359 -108.191 53.7933 
-82.4641 -107.685 54.8738 -81.3648 -110.796 52.948 -81.1039 -111.93 52.3956 
-81.886 -110.102 53.5055 -82.5325 -109.651 54.3404 -82.7783 -109.069 55.5699 
-82.3914 -108.687 56.7898 -81.1445 -112.654 53.6668 -80.9639 -113.782 53.2882 
-81.3574 -111.603 54.0695 -81.93 -111.028 54.6886 -82.4847 -110.582 55.8899 
-82.4617 -110.049 57.3118 -81.9001 -109.768 58.4913 -80.9874 -114.456 54.7672 
-80.5452 -115.041 54.6196 -81.1536 -113.552 55.0122 -81.3328 -112.729 55.3945 
-81.6449 -112.208 56.1577 -81.7846 -111.755 57.1498 -81.5297 -111.268 58.0214 
-80.9924 -110.964 58.7524 -80.3627 -115.678 56.3955 -79.736 -115.724 56.3564 
-80.8366 -115.411 56.5645 -81.0834 -114.821 56.8923 -81.1181 -114.141 57.3467 
-80.9681 -113.649 57.6791 -80.6637 -113.206 57.7478 -80.2586 -112.683 57.8688 
-79.7833 -112.291 58.2068 -79.499 -116.504 58.1099 -78.961 -116.341 58.0948 
-80.1016 -116.715 58.2101 -80.6453 -116.63 58.5055 -80.8784 -116.062 58.9658 
-80.6526 -115.408 59.2197 -80.1353 -114.989 58.9488 -79.6106 -114.553 58.4781 
-79.1922 -113.989 58.3197 -78.8154 -113.568 58.4515 -78.2632 -114.658 59.9157 
-78.5872 -115.022 59.9645 -78.4542 -116.059 62.146 -78.9211 -115.608 60.0878 
-78.7618 -116.652 62.3305 -78.7883 -117.774 64.1168 -79.4182 -116.098 60.4441 
-79.1457 -117.242 62.4639 -79.2203 -118.478 64.2498 -79.2371 -119.585 65.5041 
-80.0769 -116.414 60.7968 -79.7421 -117.515 62.5126 -79.833 -118.871 64.2914 
-79.9656 -120.086 65.7433 -79.7863 -121.015 67.063 -80.5499 -116.998 60.6745 
-80.359 -117.846 62.2307 -80.5866 -119.019 64.0557 -80.8842 -120.237 65.9495 
-80.7014 -121.205 67.5523 -80.1401 -122.204 68.9018 -80.4428 -117.739 60.1943 
-80.5043 -118.598 61.6887 -81.0341 -119.527 63.4454 -81.6217 -120.563 65.6402 
-81.5604 -121.44 67.7488 -80.967 -122.367 69.3739 -80.4409 -123.419 70.6301 
-79.8547 -117.947 59.8537 -80.0267 -119.114 61.3896 -80.7887 -120.164 63.0261 
-81.6879 -121.199 64.9754 -81.9045 -122.104 67.1637 -81.4935 -122.906 69.2391 
-81.1862 -123.711 70.9084 -81.1586 -124.32 72.3003 -79.2148 -117.628 59.7601 
-79.3433 -118.967 61.4025 -80.0633 -120.258 63.0931 -81.0593 -121.464 64.7336 
-81.5672 -122.61 66.4149 -81.4632 -123.616 68.4335 -81.4728 -124.371 70.5286 
-81.825 -124.757 72.3 -82.0657 -124.807 73.8345 -78.7256 -117.302 59.7388 
-78.8001 -118.59 61.4071 -79.3179 -119.955 63.1595 -80.1563 -121.249 64.7881 
-80.8035 -122.522 66.131 -80.9742 -123.775 67.6906 -81.194 -124.826 69.7343 
-81.8455 -125.404 71.7325 -82.4672 -125.462 73.4025 -82.5766 -125.265 74.9092 
-77.9826 -115.374 61.3384 -78.2879 -116.853 63.5585 -77.6489 -116.163 62.8038 
-78.5977 -118.683 65.1795 -77.8933 -117.832 64.6539 -77.1396 -117.098 63.9601 
-79.0045 -120.465 66.6886 -78.221 -119.712 66.2331 -77.3502 -118.98 65.5406 
-76.5481 -118.21 64.7761 -79.3371 -121.989 68.4965 -78.5904 -121.438 68.0447 
-77.742 -120.791 67.3121 -76.8025 -120.071 66.4434 -75.9756 -119.225 65.6379 
-79.592 -123.406 70.297 -78.7737 -123.048 69.8501 -77.998 -122.411 69.1554 
-77.1122 -121.704 68.2636 -76.2016 -120.852 67.4134 -75.3889 -119.96 66.5606 
-80.2978 -124.34 72.1896 -79.264 -124.229 71.7559 -78.2713 -123.757 71.009 
-77.3221 -123.126 70.0387 -76.3885 -122.339 69.0906 -75.5463 -121.4 68.1853 
-74.7747 -120.544 67.1969 -81.3564 -124.604 74.1789 -80.3127 -124.54 74.0101 
-79.1274 -124.32 73.2699 -77.9127 -123.959 72.1291 -76.7441 -123.489 70.8985 
-75.741 -122.713 69.769 -74.9202 -121.788 68.7106 -74.1742 -120.965 67.6612 
-82.068 -124.794 75.7403 -81.2242 -124.522 76.0366 -80.1605 -124.295 75.5468 
-78.8969 -124.05 74.4231 -77.4977 -123.884 73.0162 -76.1874 -123.555 71.5842 
-75.1516 -122.829 70.3074 -74.3408 -121.944 69.2208 -73.6282 -121.124 68.2072 
-82.3083 -125.535 76.2522 -81.7068 -125.005 77.1985 -81.5367 -125.931 77.2371 
-80.9099 -125.406 77.84 -80.4744 -126.168 77.3547 -80.8646 -124.563 77.2613 
-79.6587 -125.643 77.3759 -78.8898 -126.186 76.5802 -79.9485 -124.745 77.4271 
-79.7403 -124.099 76.4006 -77.5792 -125.691 76.4776 -76.5545 -126.389 75.7704 
-78.2429 -124.817 76.8827 -78.5281 -124.019 76.4676 -78.2688 -123.801 75.0649 
-74.971 -125.914 75.9521 -74.1188 -126.764 75.5058 -75.8467 -124.89 76.423 
-76.5232 -124.034 76.3232 -76.8641 -123.693 75.2582 -76.6819 -123.739 73.5001 
-72.8593 -126.198 75.6121 -72.2908 -126.91 75.2631 -73.654 -125.149 75.9836 
-74.4473 -124.207 76.076 -75.0736 -123.78 75.2033 -75.3995 -123.671 73.6076 
-75.348 -123.42 71.8923 -71.519 -126.246 74.9349 -71.0395 -126.777 74.5275 
-72.2098 -125.382 75.1661 -72.9435 -124.44 75.306 -73.5612 -123.924 74.7178 
-74.05 -123.703 73.3474 -74.3242 -123.281 71.9126 -74.3683 -122.638 70.5741 
-70.5274 -126.019 73.9436 -70.1034 -126.452 73.4801 -71.1342 -125.381 74.1152 
-71.7921 -124.558 74.1948 -72.35 -123.939 73.8504 -72.8416 -123.633 72.8101 
-73.2665 -123.157 71.6481 -73.5091 -122.4 70.663 -73.5905 -121.705 69.5155 
-69.6297 -125.583 72.9316 -69.3295 -125.984 72.4615 -70.0732 -125.099 73.1178 
-70.6176 -124.462 73.1575 -71.1419 -123.815 72.9499 -71.6354 -123.374 72.2334 
-72.1418 -122.911 71.2753 -72.5602 -122.164 70.4817 -72.7985 -121.398 69.6231 
-72.9145 -120.844 68.4522 -82.6359 -126.05 74.5412 -82.1063 -126.406 75.5954 
-82.0628 -126.729 73.782 -81.3017 -126.944 74.5257 -80.8625 -126.843 72.8595 
-81.0708 -126.579 76.3354 -79.929 -126.893 73.3129 -79.3829 -126.514 71.8003 
-79.9849 -126.754 75.0103 -79.6644 -126.457 76.2707 -78.3649 -126.651 71.9859 
-78.0132 -126.152 70.605 -78.4032 -126.704 73.5252 -78.208 -126.585 74.8603 
-77.6981 -126.537 75.5458 -76.9588 -126.406 70.6511 -76.7875 -125.687 69.5089 
-76.862 -126.734 72.0003 -76.6028 -126.874 73.3727 -76.2267 -127.012 74.4078 
-75.3861 -127.027 75.0759 -75.717 -125.858 69.5344 -75.6508 -124.979 68.5612 
-75.6175 -126.511 70.6259 -75.3761 -127.016 71.88 -75.0251 -127.403 73.0865 
-74.3754 -127.524 74.1133 -73.3185 -127.337 74.9128 -74.6428 -125.083 68.4885 
-74.7168 -124.241 67.5247 -74.5529 -125.868 69.4475 -74.4197 -126.631 70.4876 
-74.1026 -127.285 71.5631 -73.5085 -127.615 72.5794 -72.6323 -127.583 73.573 
-71.6882 -127.281 74.3346 -73.8335 -124.385 67.2879 -74.0381 -123.6 66.3683 
-73.6818 -125.174 68.1972 -73.5748 -125.99 69.1388 -73.2769 -126.735 70.0962 
-72.661 -127.247 70.932 -71.8803 -127.489 71.7244 -71.0938 -127.438 72.6124 
-70.4657 -127.058 73.302 -73.2781 -123.755 66.0588 -73.5405 -122.984 65.2626 
-73.0683 -124.577 66.8367 -72.9139 -125.409 67.6764 -72.6079 -126.106 68.6387 
[...]
CELL_DATA 2000
SCALARS Distance double
LOOKUP_TABLE default
140.632 141.3 141.14 141.517 142.004 141.84 142.29 142.127 142.641 
142.906 142.649 143.187 142.993 143.601 143.412 144.076 144.06 143.707 
144.298 144.035 144.717 144.478 145.191 144.979 145.722 145.228 144.894 
145.469 145.225 145.91 145.664 146.381 146.147 146.896 146.684 147.45 
146.211 145.937 146.453 146.318 147.004 146.839 147.548 147.335 148.084 
147.879 148.667 148.451 149.238 147.075 146.815 147.304 147.216 147.968 
147.89 148.687 148.509 149.308 149.095 149.935 149.712 150.546 150.289 
151.076 147.905 147.678 148.235 148.122 148.967 148.901 149.827 149.689 
150.586 150.382 151.28 151.047 151.928 151.651 152.458 152.141 152.856 
148.731 148.573 149.274 149.164 150.086 150.003 150.989 150.877 151.83 
151.676 152.602 152.411 153.295 153.046 153.837 153.526 154.209 153.856 
154.442 140.222 139.816 140.32 140.89 139.479 139.966 140.597 141.018 
141.593 139.298 139.738 140.472 140.844 141.483 141.811 142.48 139.217 
139.631 140.435 140.836 141.59 141.864 142.57 142.857 143.636 139.137 
139.539 140.326 140.808 141.661 142.042 142.84 143.093 143.879 144.135 
144.891 139.047 139.431 140.201 140.695 141.616 142.101 143.018 143.376 
144.254 144.504 145.294 145.426 146.037 138.99 139.352 140.172 140.638 
141.64 142.125 143.122 143.53 144.49 144.856 145.768 145.956 146.608 
146.557 146.991 139.059 139.361 140.215 140.666 141.704 142.212 143.223 
143.648 144.568 145.002 145.945 146.346 147.101 147.175 147.556 147.424 
147.735 139.331 139.537 140.36 140.736 141.712 142.229 143.205 143.691 
144.551 145.003 145.871 146.379 147.184 147.505 147.936 147.913 148.087 
148.041 148.369 139.822 141.006 140.514 140.846 142.321 141.776 142.083 
141.646 142.134 143.636 143.116 143.421 142.932 143.368 143.009 143.562 
144.862 144.393 144.754 144.301 144.75 144.307 144.816 144.43 144.934 
146.152 145.592 145.908 145.539 146.027 145.691 146.214 145.783 146.272 
145.809 146.294 147.712 146.991 147.156 146.632 147.006 146.769 147.292 
147.074 147.531 147.161 147.545 147.141 147.523 149.225 148.613 148.798 
148.06 148.324 147.792 148.253 147.989 148.452 148.211 148.478 148.181 
148.326 148.071 148.164 150.271 149.976 150.36 149.793 150.164 149.431 
149.863 149.216 149.668 149.166 149.441 148.991 149.04 148.67 148.636 
148.383 148.329 151.03 150.892 151.441 151.204 151.76 151.287 151.762 
151.071 151.439 150.683 150.927 150.187 150.276 149.579 149.589 149.016 
149.059 148.626 148.711 149.36 149.766 149.982 151.037 150.379 150.513 
151.641 151.949 153.239 151.135 151.228 152.352 152.631 153.967 154.266 
155.522 151.87 151.988 153.027 153.298 154.586 154.976 156.281 156.528 
157.653 152.487 152.674 153.633 153.868 155.049 155.496 156.845 157.24 
158.426 158.592 159.599 152.81 153.166 154.097 154.377 155.467 155.903 
157.265 157.76 159.043 159.314 160.344 160.462 161.414 152.65 153.223 
154.12 154.636 155.683 156.233 157.532 158.127 159.432 159.853 160.922 
161.142 162.1 162.253 163.198 152.164 152.816 153.671 154.401 155.45 
156.215 157.433 158.2 159.409 160.045 161.094 161.549 162.522 162.852 
163.812 164.003 164.849 151.686 152.272 153.111 153.858 154.916 155.778 
156.949 157.838 158.948 159.752 160.728 161.434 162.395 163.027 164.01 
164.465 165.318 165.511 166.145 149.444 151.206 150.234 150.222 153.376 
152.255 152.234 151.173 151.148 155.597 154.479 154.417 153.294 153.218 
152.134 152.057 157.72 156.67 156.635 155.5 155.418 154.26 154.15 
153.031 152.915 159.703 158.764 158.812 157.732 157.695 156.515 156.403 
155.196 155.047 153.885 153.725 161.581 160.734 160.859 159.876 159.859 
158.756 158.615 157.441 157.221 156.034 155.794 154.647 154.408 163.396 
162.619 162.795 161.883 161.861 160.82 160.634 159.53 159.245 158.109 
157.77 156.642 156.304 155.217 154.896 165.01 164.362 164.531 163.74 
163.706 162.738 162.508 161.444 161.117 160.021 159.625 158.51 158.082 
157.005 156.601 155.579 155.203 166.26 165.787 165.908 165.3 165.235 
164.43 164.142 163.187 162.78 161.774 161.318 160.267 159.762 158.693 
158.197 157.183 156.738 155.78 155.371 166.843 167.405 166.982 166.521 
167.505 167.39 166.946 166.501 165.822 166.835 167.155 166.728 166.634 
165.9 165.534 164.658 165.583 166.125 165.727 166.01 165.285 165.27 
164.404 164.159 163.236 164.409 164.813 164.425 164.796 164.192 164.398 
163.65 163.673 162.859 162.669 161.758 163.531 163.78 163.371 163.613 
163.12 163.328 162.741 162.858 162.176 162.157 161.344 161.135 160.192 
162.644 162.927 162.508 162.703 162.219 162.395 161.874 162.013 161.406 
161.454 160.714 160.624 159.75 159.526 158.6 161.583 161.956 161.546 
161.815 161.308 161.516 160.966 161.148 160.545 160.665 159.961 159.962 
159.146 159.023 158.153 157.953 157.105 160.422 160.828 160.417 160.763 
160.254 160.53 159.951 160.178 159.552 159.738 159.055 159.158 158.391 
158.377 157.554 157.453 156.638 156.489 155.713 167.069 167.27 167.379 
167.575 166.781 167.275 167.457 167.648 167.593 165.595 166.41 166.563 
167.116 166.993 167.279 166.871 164.136 165.021 165.165 165.893 165.772 
166.319 165.985 166.252 165.673 162.709 163.56 163.729 164.45 164.435 
165.029 164.9 165.309 165.019 165.117 164.622 161.25 162.12 162.31 
163.068 163.158 163.804 163.853 164.356 164.293 164.549 164.27 164.247 
163.784 159.757 160.615 160.801 161.626 161.763 162.537 162.642 163.312 
163.287 163.766 163.527 163.776 163.349 163.381 162.844 158.364 159.141 
159.318 160.12 160.284 161.102 161.226 161.992 161.951 162.576 162.322 
162.793 162.397 162.703 162.211 162.32 161.746 157.118 157.81 157.98 
158.711 158.892 159.663 159.805 160.551 160.526 161.161 160.936 161.472 
161.148 161.601 161.219 161.523 161.043 161.158 160.589 151.707 152.355 
152.382 153.201 153.086 153.158 154.078 154.094 155.063 153.744 153.888 
154.901 155.02 156.071 156.098 157.122 154.494 154.59 155.674 155.841 
156.994 157.106 158.175 158.163 159.101 155.313 155.407 156.499 156.669 
157.891 158.049 159.181 159.194 160.14 160.058 160.882 155.917 156.127 
157.146 157.423 158.594 158.89 160.032 160.165 161.141 161.104 162.004 
161.864 162.671 156.308 156.585 157.542 157.892 158.973 159.396 160.501 
160.84 161.849 162.017 162.999 163.023 163.968 163.756 164.462 156.609 
156.911 157.842 158.195 159.226 159.653 160.732 161.156 162.19 162.544 
163.573 163.86 164.873 164.958 165.732 165.448 165.85 156.796 157.142 
158.019 158.416 159.377 159.834 160.849 161.32 162.31 162.757 163.732 
164.195 165.173 165.565 166.359 166.441 166.858 166.551 166.654 151.011 
150.126 150.854 151.522 149.184 149.912 150.507 151.389 152.151 148.215 
148.93 149.453 150.303 151.006 151.972 152.762 147.234 147.95 148.429 
149.218 149.85 150.788 151.603 152.61 153.495 146.201 146.938 147.4 
148.175 148.746 149.632 150.422 151.453 152.4 153.433 154.338 145.186 
145.882 146.328 147.109 147.67 148.533 149.273 150.276 151.2 152.292 
153.218 154.231 154.996 144.318 144.915 145.337 146.055 146.624 147.459 
148.187 149.139 150.004 151.062 151.965 153.029 153.822 154.777 155.421 
143.591 144.114 144.52 145.146 145.695 146.455 147.156 148.053 148.873 
149.873 150.735 151.769 152.577 153.567 154.263 155.163 155.748 142.946 
143.426 143.822 144.393 144.912 145.587 146.221 147.03 147.778 148.724 
149.546 150.556 151.359 152.346 153.065 153.992 154.609 155.465 155.98 
142.707 142.673 142.984 143.618 142.694 143.019 143.736 144.025 144.748 
142.755 143.085 143.873 144.199 145.002 145.261 146.059 142.965 143.221 
144.063 144.386 145.277 145.566 146.454 146.688 147.598 143.413 143.566 
144.443 144.684 145.662 145.932 146.934 147.167 148.176 148.374 149.375 
143.979 144.117 145.028 145.201 146.222 146.442 147.525 147.748 148.832 
149.028 150.08 150.23 151.204 144.522 144.709 145.676 145.857 146.894 
147.087 148.177 148.395 149.496 149.71 150.767 150.942 151.915 152.027 
152.901 145.056 145.265 146.275 146.499 147.546 147.761 148.825 149.049 
150.13 150.359 151.411 151.605 152.571 152.706 153.572 153.655 154.435 
145.621 145.819 146.813 147.059 148.082 148.345 149.379 149.644 150.697 
150.959 152.01 152.232 153.209 153.354 154.216 154.299 155.064 155.117 
155.805 146.268 147.644 147.115 147.462 149.114 148.549 148.926 148.368 
148.742 150.807 150.156 150.608 149.944 150.36 149.716 150.09 152.689 
152.001 152.53 151.788 152.236 151.473 151.869 151.13 151.472 154.529 
153.889 154.4 153.729 154.158 153.407 153.773 152.997 153.337 152.551 
152.826 156.233 155.643 156.096 155.494 155.899 155.235 155.575 154.864 
155.191 154.44 154.707 153.88 154.041 157.749 157.262 157.719 157.144 
157.554 156.911 157.265 156.594 156.934 156.243 156.517 155.732 155.855 
154.99 155.021 158.973 158.664 159.169 158.71 159.121 158.539 158.881 
158.25 158.578 157.933 158.195 157.469 157.56 156.73 156.695 155.85 
155.81 159.925 159.772 160.321 160.027 160.446 159.999 160.32 159.784 
160.076 159.502 159.727 159.064 159.118 158.34 158.257 157.441 157.345 
156.558 156.501 145.787 145.486 146.158 147.168 145.087 145.858 146.945 
147.582 148.623 144.594 145.457 146.652 147.368 148.472 149.09 150.232 
144.139 145.009 146.318 147.098 148.285 148.943 150.136 150.807 152.07 
143.912 144.656 146.013 146.805 148.063 148.761 150.017 150.733 152.09 
152.755 154.015 144.013 144.553 145.836 146.552 147.817 148.534 149.815 
150.599 152.044 152.819 154.198 154.728 155.833 144.315 144.714 145.848 
146.43 147.635 148.305 149.553 150.345 151.771 152.687 154.125 154.861 
155.998 156.439 157.327 144.572 144.957 145.96 146.452 147.571 148.172 
149.378 150.089 151.408 152.299 153.666 154.577 155.716 156.4 157.246 
157.731 158.462 144.698 145.112 146.045 146.508 147.544 148.115 149.282 
149.944 151.174 151.928 153.145 153.993 155.079 155.89 156.752 157.423 
158.141 158.695 159.36 144.848 143.372 144.221 144.488 142.022 142.761 
142.906 143.784 144.01 140.685 141.415 141.458 142.211 142.277 143.198 
143.411 139.184 139.975 140.003 140.757 140.736 141.504 141.574 142.56 
142.874 137.731 138.438 138.48 139.253 139.3 140.029 140.102 140.88 
141.148 142.156 142.677 136.558 137.104 137.144 137.812 137.956 138.669 
138.893 139.597 139.948 140.722 141.275 142.222 142.917 135.615 136.045 
136.058 136.612 136.776 137.451 137.78 138.508 138.975 139.711 140.292 
141.082 141.764 142.651 143.348 134.902 135.202 135.171 135.598 135.713 
136.338 136.68 137.447 137.954 138.753 139.32 140.123 140.711 141.562 
142.17 143.069 143.652 134.424 134.616 134.569 134.823 134.888 135.352 
135.675 136.378 136.91 137.718 138.286 139.089 139.608 140.429 140.932 
141.823 142.343 143.273 143.78 134.188 133.906 134.144 134.333 133.791 
133.957 134.227 134.364 134.665 134.003 134.039 134.452 134.474 134.873 
134.926 135.473 134.53 134.428 134.916 134.905 135.422 135.368 135.943 
135.994 136.727 135.325 135.066 135.502 135.454 136.03 136.009 136.612 
136.6 137.28 137.356 138.106 136.372 135.964 136.317 136.115 136.662 
136.624 137.287 137.295 137.98 137.977 138.647 138.701 139.4 137.552 
137.082 137.372 137.016 137.458 137.305 137.96 137.979 138.735 138.728 
139.387 139.31 139.924 139.96 140.673 138.709 138.254 138.485 138.074 
138.394 138.134 138.682 138.66 139.429 139.486 140.209 140.118 140.697 
140.58 141.227 141.282 142.062 139.751 139.347 139.541 139.134 139.399 
139.071 139.538 139.41 140.135 140.176 140.966 140.942 141.587 141.433 
142.043 141.954 142.691 142.744 143.533 140.348 141.239 140.579 140.176 
142.394 141.602 141.242 140.476 140.106 143.869 142.958 142.702 141.778 
141.494 140.587 140.348 145.531 144.581 144.42 143.454 143.293 142.259 
142.075 141.071 140.986 147.263 146.305 146.165 145.23 145.125 144.155 
144.005 142.96 142.802 141.832 141.77 149.069 148.095 147.971 146.998 
146.874 145.936 145.787 144.827 144.626 143.647 143.452 142.546 142.386 
150.907 149.95 149.874 148.869 148.743 147.721 147.546 146.551 146.356 
145.391 145.193 144.233 144.033 143.092 142.902 152.657 151.772 151.709 
150.768 150.653 149.634 149.436 148.37 148.142 147.123 146.94 145.976 
145.818 144.835 144.67 143.679 143.557 154.22 153.434 153.346 152.505 
152.374 151.463 151.258 150.251 149.982 148.94 148.7 147.72 147.547 
146.61 146.453 145.496 145.353 144.404 144.326 145.043 146.064 145.832 
146.42 147.159 146.913 147.549 147.287 147.948 148.284 148.052 148.775 
148.518 149.295 148.988 149.751 149.483 149.24 150.053 149.821 150.704 
150.436 151.295 150.917 151.679 150.775 150.516 151.358 151.138 152.047 
151.845 152.726 152.444 153.203 152.816 153.529 152.034 151.82 152.643 
152.441 153.313 153.138 153.99 153.78 154.523 154.228 154.894 154.582 
155.284 153.153 153.018 153.844 153.684 154.538 154.369 155.208 155.004 
155.769 155.498 156.184 155.875 156.536 156.258 156.915 154.138 154.076 
154.93 154.832 155.701 155.567 156.415 156.225 157.01 156.758 157.481 
157.177 157.846 157.515 158.137 157.815 158.37 155.001 155.008 155.868 
155.851 156.723 156.67 157.515 157.395 158.167 157.973 158.675 158.435 
159.085 158.801 159.39 159.058 159.576 159.211 159.646 138.677 138.38 
138.204 137.615 138.322 138.014 137.355 137.132 136.527 138.406 138.042 
137.344 136.965 136.254 136.038 135.523 138.477 138.129 137.44 137.019 
136.273 135.885 135.3 135.154 134.84 138.498 138.159 137.508 137.137 
136.472 136.028 135.428 135.088 134.674 134.573 134.324 138.561 138.174 
137.538 137.21 136.647 136.278 135.703 135.297 134.741 134.459 134.024 
133.989 133.739 138.791 138.312 137.664 137.276 136.711 136.408 135.829 
135.492 134.829 134.485 133.892 133.713 133.393 133.453 133.418 139.207 
138.668 138.041 137.515 136.906 136.489 135.892 135.535 134.894 134.525 
133.94 133.651 133.35 133.27 133.309 133.396 133.609 139.678 139.167 
138.602 138.016 137.42 136.837 136.259 135.731 135.206 134.725 134.308 
133.892 133.688 133.435 133.502 133.456 133.694 133.76 134.015 138.762 
137.677 138.35 138.672 136.599 137.265 137.628 138.361 138.845 135.636 
136.222 136.638 137.377 137.982 138.717 139.342 134.967 135.393 135.792 
136.45 137.11 137.903 138.635 139.34 139.954 134.473 134.849 135.214 
135.733 136.335 137.055 137.802 138.59 139.258 139.917 140.424 133.95 
134.349 134.754 135.244 135.824 136.398 137.078 137.763 138.45 139.158 
139.738 140.345 140.83 133.642 133.888 134.31 134.776 135.387 135.945 
136.588 137.148 137.773 138.391 139.017 139.657 140.232 140.798 141.301 
133.774 133.785 134.12 134.397 134.955 135.478 136.125 136.678 137.26 
137.796 138.382 138.986 139.605 140.21 140.764 141.288 141.743 134.138 
134.048 134.282 134.343 134.78 135.115 135.745 136.232 136.858 137.333 
137.912 138.425 139.042 139.618 140.212 140.752 141.237 141.705 142.105 
139.48 139.437 139.833 140.667 139.58 139.86 140.707 141.117 142.001 
139.994 140.103 140.888 141.212 142.113 142.492 143.331 140.546 140.584 
141.29 141.485 142.362 142.666 143.534 143.82 144.595 140.998 141.084 
141.754 141.922 142.756 143 143.884 144.114 144.965 145.16 145.987 
141.392 141.481 142.132 142.319 143.104 143.373 144.224 144.491 145.363 
145.607 146.521 146.705 147.591 141.838 141.897 142.513 142.658 143.377 
143.637 144.424 144.743 145.559 145.912 146.777 147.141 147.993 148.258 
148.991 142.246 142.329 142.898 143.023 143.663 143.872 144.591 144.884 
145.644 146 146.776 147.199 147.953 148.382 149.026 149.369 149.898 
142.577 142.68 143.214 143.349 143.931 144.12 144.779 145.041 145.767 
146.078 146.807 147.149 147.841 148.221 148.85 149.225 149.774 150.103 
150.614 144.748 144.166 144.055 143.306 143.658 143.511 142.762 142.668 
141.996 143.166 143.032 142.275 142.152 141.435 141.372 140.669 142.634 
142.526 141.771 141.653 140.887 140.79 140.022 139.963 139.188 142.208 
142.03 141.304 141.153 140.419 140.27 139.526 139.374 138.618 138.491 
137.779 142.029 141.737 141.049 140.792 140.123 139.899 139.243 139.018 
138.327 138.078 137.376 137.203 136.609 142.017 141.681 141.027 140.686 
140.028 139.72 139.081 138.826 138.164 137.889 137.158 136.894 136.229 
136.117 135.636 142.066 141.735 141.13 140.758 140.105 139.716 139.036 
138.709 138.036 137.746 137.017 136.704 135.981 135.771 135.246 135.224 
134.902 142.175 141.845 141.308 140.924 140.314 139.866 139.188 138.747 
138.087 137.704 137.054 136.657 135.974 135.611 135.047 134.892 134.564 
134.597 134.405 
POINT_DATA 1002
SCALARS Distance double
LOOKUP_TABLE default
140.955 140.144 140.798 141.669 141.434 141.928 142.418 142.164 142.786 
143.212 143.369 143.188 143.78 144.242 144.779 144.569 144.428 144.961 
145.416 145.919 146.471 145.694 145.569 146.152 146.622 147.11 147.664 
148.218 146.556 146.517 147.116 147.749 148.279 148.867 149.473 150.026 
147.379 147.335 147.982 148.811 149.505 150.144 150.799 151.37 151.836 
148.324 148.061 149.008 149.917 150.757 151.5 152.201 152.788 153.218 
153.517 149.339 148.797 150.165 151.093 151.961 152.774 153.536 154.152 
154.574 154.836 154.976 139.726 140.438 139.288 140.174 138.978 141.183 
140.066 138.855 141.18 142.09 139.976 138.823 141.268 142.327 143.296 
139.82 138.772 141.184 142.536 143.661 144.683 139.705 138.67 141.083 
142.585 143.935 145.17 146.031 139.684 138.622 141.132 142.709 144.074 
145.467 146.669 147.129 139.781 138.777 141.185 142.798 144.164 145.47 
146.905 147.73 147.815 140.057 139.163 141.247 142.706 144.111 145.381 
146.769 147.882 148.2 148.252 140.249 141.24 141.533 142.559 142.873 
142.454 143.921 144.117 143.786 143.869 145.145 145.33 145.2 145.269 
145.313 146.308 146.823 146.277 146.607 146.771 146.737 147.847 148.47 
147.317 147.427 147.848 147.981 147.922 149.528 149.683 149.021 148.638 
148.7 148.813 148.647 148.414 150.724 150.414 150.835 150.642 150.318 
149.993 149.523 148.959 148.542 151.546 151.136 152.06 152.393 152.261 
151.745 151.05 150.262 149.553 149.088 150.2 150.664 152.255 151.33 
152.936 154.529 152.1 153.634 155.336 156.702 152.821 154.166 155.962 
157.548 158.712 153.461 154.621 156.362 158.212 159.52 160.567 153.781 
155.051 156.73 158.707 160.213 161.303 162.376 153.502 155.081 156.92 
158.95 160.644 161.915 163.084 164.135 152.892 154.624 156.648 158.733 
160.547 162.096 163.561 164.792 165.623 152.383 154.061 156.066 158.135 
159.979 161.663 163.429 165.044 166.121 166.695 151.167 153.348 152.191 
155.562 154.345 153.122 157.748 156.596 155.317 154.014 159.834 158.856 
157.636 156.259 154.87 161.806 160.942 159.781 158.431 156.976 155.539 
163.68 162.904 161.741 160.382 158.924 157.413 155.964 165.275 164.644 
163.575 162.214 160.759 159.197 157.64 156.202 166.467 165.987 165.079 
163.778 162.354 160.848 159.243 157.709 156.304 167.369 167.113 167.738 
167.322 167.458 166.405 166.686 166.365 166.177 165.121 165.33 165.06 
165.169 164.513 163.583 164.057 164.118 163.896 163.516 162.926 162.076 
163.17 163.308 162.893 162.577 162.135 161.474 160.488 162.305 162.321 
162.05 161.719 161.331 160.758 159.916 158.848 161.243 161.186 161.092 
160.784 160.399 159.912 159.216 158.307 157.304 160.055 160.026 159.955 
159.717 159.354 158.908 158.348 157.609 156.749 155.862 167.148 167.626 
167.043 167.163 166.142 167.588 165.929 164.719 166.603 166.795 164.419 
163.273 165.153 165.566 165.601 162.99 161.866 163.783 164.374 164.769 
164.697 161.507 160.38 162.436 163.26 163.931 164.188 163.932 159.96 
158.932 160.938 161.918 162.75 163.186 163.213 162.907 158.533 157.63 
159.463 160.453 161.311 161.797 161.987 161.995 161.735 157.268 156.456 
158.14 159.075 159.891 160.38 160.635 160.824 160.843 160.556 151.606 
153.161 152.303 154.013 152.946 155.064 154.71 153.579 155.984 157.167 
155.485 154.42 156.831 158.169 159.191 156.318 155.205 157.694 159.15 
160.226 161.007 156.861 155.688 158.26 159.829 161.121 162.081 162.926 
157.21 156.03 158.557 160.103 161.575 162.854 164.066 164.916 157.497 
156.303 158.821 160.302 161.793 163.207 164.661 165.894 166.388 150.299 
150.663 149.424 149.657 148.479 151.209 148.66 147.511 150.05 151.766 
147.685 146.509 148.95 150.556 152.49 146.626 145.472 147.897 149.398 
151.319 153.394 145.555 144.538 146.81 148.31 150.117 152.168 154.097 
144.657 143.765 145.804 147.262 148.994 150.906 152.825 154.549 143.924 
143.09 144.981 146.303 147.907 149.722 151.578 153.33 154.912 143.269 
142.482 144.277 145.481 146.884 148.547 150.371 152.131 153.735 155.181 