# vtk DataFile Version 4.0
vtk output
ASCII
DATASET POLYDATA
POINTS 1002 float
-74.2612 -107.08 54.7755 -74.7057 -106.197 53.8984 -75.2981 -106.469 54.2326 
-74.7723 -107.599 55.0546 -75.8515 -106.96 54.6482 -73.8597 -108.481 55.5251 
-75.097 -108.537 55.2843 -76.241 -107.749 55.0703 -74.1341 -109.511 55.5494 
-73.4896 -110.395 56.1756 -75.2106 -109.854 55.2555 -76.4028 -108.854 55.2732 
-74.1759 -110.897 55.4228 -73.5294 -111.762 56.044 -73.1149 -112.321 57.0819 
-75.285 -111.238 54.939 -76.4374 -110.05 55.2019 -74.2436 -112.24 55.1119 
-73.5702 -112.998 55.9459 -73.2077 -113.529 57.1677 -72.873 -113.919 58.413 
-75.4902 -112.334 54.824 -76.5048 -111.164 55.122 -74.5918 -113.214 55.0232 
-73.9375 -113.804 56.0888 -73.5618 -114.331 57.5637 -73.2201 -114.897 58.8732 
-72.8173 -115.418 59.924 -75.801 -113.24 55.2902 -76.6365 -112.301 55.311 
-75.127 -113.907 55.6832 -74.5869 -114.407 56.8142 -74.2202 -114.934 58.3822 
-73.8321 -115.634 59.7082 -73.3297 -116.362 60.6525 -72.866 -116.912 61.4379 
-76.1337 -114.185 56.1767 -76.8086 -113.408 55.8523 -75.6347 -114.684 56.8546 
-75.2304 -115.121 58.0293 -74.9337 -115.669 59.4926 -74.5993 -116.362 60.7527 
-74.0603 -117.118 61.6174 -73.5032 -117.746 62.301 -73.0756 -118.165 62.9427 
-76.5146 -115.021 57.2166 -77.0569 -114.293 56.6383 -76.1003 -115.559 58.0206 
-75.7734 -116.025 59.1758 -75.5351 -116.544 60.5142 -75.3029 -117.156 61.6638 
-74.8737 -117.818 62.5012 -74.3186 -118.413 63.1747 -73.8464 -118.852 63.7986 
-73.4445 -119.161 64.3423 -76.9794 -115.644 58.2335 -77.3906 -114.998 57.4718 
-76.617 -116.277 59.0465 -76.3127 -116.907 60.0587 -76.0851 -117.466 61.2492 
-75.8842 -117.992 62.3114 -75.5558 -118.583 63.129 -75.0962 -119.156 63.8569 
-74.6516 -119.583 64.537 -74.2388 -119.873 65.0999 -73.7897 -120.092 65.5115 
-75.478 -105.66 53.1751 -76.135 -106.033 53.456 -76.1454 -105.231 52.3866 
-76.8601 -105.728 52.5174 -76.808 -104.768 51.5987 -76.7847 -106.493 53.9014 
-77.5972 -105.3 51.6878 -77.702 -104.174 50.9454 -77.5854 -106.222 52.8986 
-77.2927 -107.092 54.5358 -78.6006 -104.708 51.1927 -78.8037 -103.575 50.4461 
-78.3946 -105.96 52.0146 -78.2305 -106.716 53.6617 -77.5619 -107.884 55.1174 
-79.7812 -104.087 50.8359 -79.8296 -103.096 49.8356 -79.4069 -105.587 51.5176 
-79.1717 -106.529 52.795 -78.7404 -107.152 54.5915 -77.6801 -108.797 55.386 
-80.7077 -103.538 50.1911 -80.529 -102.815 48.8777 -80.4042 -105.023 51.1905 
-80.1416 -106.281 52.2973 -79.9349 -106.741 53.9811 -79.1164 -107.71 55.2679 
-77.7535 -109.928 55.3958 -81.136 -103.405 49.1653 -80.815 -102.97 47.7976 
-81.0233 -104.577 50.5814 -80.9077 -105.938 51.962 -80.9453 -106.623 53.5645 
-80.4947 -107.183 55.0115 -79.2113 -108.839 55.5022 -77.7503 -111.302 55.4543 
-81.2076 -103.958 48.133 -80.794 -103.651 47.0246 -81.2595 -104.767 49.6245 
-81.3301 -105.889 51.3093 -81.592 -106.782 53.0444 -81.4562 -107.381 54.5955 
-80.4345 -108.434 55.3905 -78.9371 -110.385 55.4945 -77.7092 -112.598 55.7694 
-81.1372 -104.89 47.4795 -80.6409 -104.568 46.7016 -81.3138 -105.499 48.7214 
-81.4806 -106.287 50.3853 -81.8575 -107.11 52.1988 -81.9279 -107.916 53.8454 
-81.1431 -108.777 54.9185 -79.8011 -110.044 55.2957 -78.5595 -111.843 55.5634 
-77.7602 -113.656 56.3085 -80.8223 -105.657 47.0404 -81.2188 -106.185 47.9035 
-80.8794 -106.736 47.6428 -81.2748 -107.361 48.6263 -80.8865 -107.882 48.4248 
-81.4374 -106.806 49.2869 -81.3735 -108.574 49.4198 -80.9552 -109.268 49.1283 
-81.5979 -107.904 50.0763 -81.7951 -107.435 51.0694 -81.22 -109.96 50.1675 
-80.6448 -110.512 49.9048 -81.5075 -109.156 50.865 -81.7727 -108.579 51.8168 
-81.9971 -108.307 52.8535 -80.3347 -111.17 51.2681 -79.6643 -111.458 51.1829 
-80.8079 -110.671 51.7046 -81.0969 -110.057 52.5148 -81.3133 -109.713 53.3783 
-81.3655 -109.37 54.1997 -79.3372 -112.392 52.7973 -78.8816 -112.762 52.7008 
-79.907 -112.178 52.8794 -80.3184 -111.778 53.3117 -80.4111 -111.282 53.963 
-80.293 -110.885 54.4671 -80.1137 -110.433 54.9054 -79.1449 -113.996 54.1477 
-78.8446 -114.468 53.9232 -79.6704 -113.738 54.1892 -80.2407 -113.491 54.3486 
-80.3604 -112.963 54.8477 -79.9195 -112.415 55.1934 -79.3728 -112.058 55.235 
-78.978 -111.84 55.3565 -79.3122 -115.559 55.1557 -78.9257 -115.906 54.946 
-79.8356 -115.25 55.3053 -80.5131 -115.033 55.4463 -80.8688 -114.616 55.8859 
-80.4237 -114.065 56.335 -79.507 -113.756 56.2928 -78.754 -113.637 56.1025 
-78.2455 -113.58 56.166 -79.1393 -116.736 56.2087 -78.6678 -116.907 56.0897 
-79.6526 -116.489 56.3946 -80.3055 -116.297 56.5534 -80.8626 -116.012 56.8592 
-80.7641 -115.567 57.3505 -79.9393 -115.322 57.5608 -79.0051 -115.32 57.3989 
-78.3585 -115.231 57.3208 -77.8735 -115.062 57.4253 -77.6047 -116.065 58.8759 
-78.0981 -116.339 58.8722 -78.0409 -117.188 60.4152 -78.5862 -116.615 58.7928 
-78.5907 -117.515 60.4879 -78.6934 -118.467 61.9635 -79.2526 -116.602 58.7766 
-79.1383 -117.653 60.4279 -79.4164 -118.677 62.1538 -79.4336 -119.787 63.4494 
-80.0761 -116.556 58.6305 -79.7771 -117.555 60.2011 -80.1483 -118.657 62.1543 
-80.3039 -119.927 63.7197 -79.9781 -120.924 64.8011 -80.503 -116.907 58.2501 
-80.2728 -117.808 59.7842 -80.7372 -118.804 61.8009 -81.11 -120.043 63.7574 
-80.7978 -121.174 65.0419 -80.3368 -121.916 66.1505 -80.2074 -117.337 57.9884 
-80.2106 -118.454 59.5267 -80.8466 -119.515 61.3164 -81.5072 -120.579 63.343 
-81.4446 -121.615 65.01 -81.0334 -122.346 66.3348 -80.7743 -122.885 67.6786 
-79.6014 -117.541 57.8823 -79.7188 -118.862 59.5467 -80.4306 -120.205 61.1416 
-81.2827 -121.334 62.7953 -81.5761 -122.329 64.51 -81.4393 -123.066 66.1609 
-81.3209 -123.471 67.7651 -81.1965 -123.773 69.1464 -79.0697 -117.697 57.6953 
-79.2016 -118.975 59.4551 -79.8394 -120.403 61.0962 -80.6472 -121.645 62.4912 
-81.1321 -122.758 63.9158 -81.3221 -123.733 65.5651 -81.4385 -124.309 67.3629 
-81.4923 -124.546 68.9863 -81.3459 -124.652 70.1657 -78.5856 -117.824 57.5084 
-78.7247 -119.018 59.1895 -79.2697 -120.357 60.8585 -79.9257 -121.539 62.2788 
-80.374 -122.641 63.5689 -80.7315 -123.812 64.9912 -81.0868 -124.764 66.6334 
-81.3284 -125.311 68.3087 -81.3949 -125.583 69.7057 -81.2574 -125.648 70.7089 
-77.312 -116.69 59.7982 -77.8447 -117.962 61.4063 -77.0105 -117.496 60.7213 
-78.5274 -119.371 63.0026 -77.6038 -118.884 62.4296 -76.7554 -118.274 61.8045 
-79.1705 -120.572 64.5371 -78.3148 -120.123 64.154 -77.377 -119.601 63.5376 
-76.5246 -118.859 62.8782 -79.6328 -121.6 66.0266 -78.9174 -121.173 65.8228 
-78.0238 -120.764 65.2816 -76.9976 -120.264 64.4735 -76.1656 -119.474 63.732 
-80.0738 -122.697 67.6131 -79.315 -122.413 67.4345 -78.4888 -121.979 66.9872 
-77.4534 -121.61 66.22 -76.4346 -121.075 65.3446 -75.7016 -120.149 64.5557 
-80.5452 -123.59 69.1992 -79.6272 -123.537 69.0067 -78.722 -123.155 68.5863 
-77.8422 -122.615 67.976 -76.859 -122.254 67.2195 -75.9712 -121.659 66.3123 
-75.2923 -120.62 65.3825 -80.8351 -124.181 70.4398 -79.8986 -123.992 70.4103 
-78.8708 -123.685 70.0891 -78.0827 -123.007 69.5505 -77.3371 -122.54 68.9082 
-76.4267 -122.413 68.0682 -75.5729 -121.891 67.013 -74.8833 -120.868 65.99 
-80.8976 -124.899 71.1996 -80.1014 -124.243 71.4604 -79.0875 -123.709 71.433 
-78.2705 -122.993 71.0212 -77.6577 -122.355 70.3123 -76.8502 -122.362 69.4331 
-75.8488 -122.52 68.3774 -75.0002 -122.018 67.2891 -74.364 -121.024 66.3496 
-80.9492 -126.226 71.4458 -80.4114 -125.201 72.0195 -80.4082 -126.529 72.1251 
-79.7216 -125.371 72.7156 -79.2989 -126.345 72.4442 -79.5151 -124.19 72.4096 
-78.5461 -125.403 72.8925 -77.5097 -126.053 72.2306 -78.862 -124.265 73.0927 
-78.6022 -123.286 72.3849 -76.786 -125.466 72.6049 -75.5957 -126.3 71.9486 
-77.7457 -124.514 73.1208 -78.0314 -123.292 72.8925 -77.8828 -122.457 71.7284 
-74.9144 -125.741 72.3729 -74.1164 -126.839 71.8544 -75.9906 -124.732 72.783 
-76.8132 -123.661 72.815 -77.0976 -122.683 71.9647 -77.05 -122.254 70.6346 
-73.4283 -126.035 72.1024 -72.9952 -126.947 71.5591 -74.1482 -124.924 72.3909 
-75.0055 -123.908 72.4765 -75.6318 -123.203 71.9044 -75.8674 -122.84 70.6314 
-75.901 -122.69 69.3926 -72.314 -126.06 71.5074 -71.9831 -126.622 70.9384 
-72.7454 -125.106 71.759 -73.3133 -124.018 71.8726 -73.9523 -123.323 71.6278 
-74.3995 -123.166 70.6035 -74.6208 -123.074 69.2544 -74.8255 -122.686 68.1909 
-71.3469 -125.832 70.7502 -71.0662 -126.218 70.1857 -71.6864 -125.122 70.978 
-72.0646 -124.101 71.0468 -72.5485 -123.185 71.006 -73.0797 -122.834 70.4225 
-73.4624 -122.815 69.249 -73.7665 -122.536 68.0859 -74.1093 -121.863 67.1901 
-70.4771 -125.462 69.9476 -70.3144 -125.809 69.3634 -70.7385 -124.915 70.2248 
-71.0798 -124.081 70.2805 -71.4764 -123.102 70.2744 -71.9705 -122.412 69.9967 
-72.4804 -122.18 69.1727 -72.8872 -122.012 68.0827 -73.2509 -121.543 67.1348 
-73.5861 -120.83 66.3309 -81.128 -126.658 70.4115 -80.8227 -127.271 71.164 
-80.6719 -127.13 69.8161 -80.21 -127.451 70.555 -79.8014 -126.861 68.9816 
-80.0541 -127.239 71.762 -79.0403 -126.878 69.5611 -78.6487 -126.439 68.0405 
-79.0401 -127.026 70.9821 -78.4049 -126.649 71.8074 -77.705 -126.431 68.3932 
-77.5415 -126.16 67.2058 -77.6012 -126.565 69.7662 -77.0634 -126.689 70.8225 
-76.3064 -126.62 71.4359 -76.6053 -126.202 67.4074 -76.5177 -125.627 66.5404 
-76.3528 -126.48 68.5022 -75.8243 -126.987 69.6779 -75.2753 -127.521 70.5408 
-74.7137 -127.448 71.2342 -75.6007 -125.731 66.5816 -75.4917 -124.883 65.8066 
-75.4203 -126.345 67.4335 -74.9659 -127.101 68.6067 -74.6186 -128.079 69.6857 
-74.2617 -128.413 70.425 -73.6455 -127.831 71.0775 -74.6545 -125.141 65.6453 
-74.6761 -124.34 64.7949 -74.5465 -125.903 66.3899 -74.2376 -126.681 67.4015 
-74.0176 -127.628 68.6143 -73.8509 -128.237 69.4917 -73.3188 -128.018 70.0568 
-72.5676 -127.329 70.5861 -74.008 -124.656 64.5136 -74.1821 -123.967 63.6086 
-73.8448 -125.398 65.2801 -73.5858 -126.148 66.0349 -73.3427 -126.882 67.0316 
-73.1741 -127.394 68.0648 -72.765 -127.441 68.8 -72.0801 -127.142 69.3581 
-71.473 -126.719 69.8691 -73.6201 -124.213 63.3036 -73.8232 -123.534 62.4965 
-73.4194 -124.926 64.1068 -73.1509 -125.685 64.7655 -72.8117 -126.401 65.4015 
[...]
CELL_DATA 2000
SCALARS Distance double
LOOKUP_TABLE default
140.056 140.804 140.57 140.993 141.723 141.424 141.884 141.686 142.32 
142.726 142.418 142.901 142.665 143.316 143.168 143.913 143.682 143.425 
143.893 143.676 144.29 144.165 144.903 144.799 145.554 144.568 144.351 
144.82 144.618 145.194 145.083 145.821 145.767 146.579 146.47 147.257 
145.534 145.282 145.819 145.572 146.203 146.027 146.837 146.743 147.669 
147.559 148.454 148.261 149.068 146.662 146.375 147.009 146.703 147.438 
147.184 148.096 147.925 148.947 148.785 149.752 149.531 150.372 150.101 
150.837 147.823 147.578 148.284 148.002 148.798 148.54 149.478 149.288 
150.304 150.134 151.08 150.861 151.671 151.403 152.114 151.819 152.456 
148.904 148.728 149.469 149.271 150.089 149.899 150.81 150.647 151.588 
151.435 152.314 152.129 152.908 152.669 153.367 153.08 153.709 153.381 
153.93 139.71 139.476 139.868 140.448 139.234 139.66 140.282 140.678 
141.333 139.004 139.43 140.096 140.522 141.195 141.61 142.308 138.916 
139.271 139.974 140.373 141.086 141.483 142.173 142.584 143.259 138.94 
139.27 140.011 140.36 141.114 141.441 142.122 142.458 143.096 143.487 
144.126 138.859 139.262 140.008 140.428 141.215 141.553 142.239 142.481 
143.075 143.353 143.97 144.353 145.045 138.708 139.106 139.835 140.334 
141.176 141.637 142.423 142.688 143.314 143.458 144.038 144.271 144.949 
145.341 146.117 138.784 139.034 139.773 140.176 141.078 141.579 142.527 
142.91 143.693 143.832 144.413 144.474 145.047 145.288 146.001 146.437 
147.227 139.166 139.284 140.034 140.273 141.162 141.564 142.562 143.024 
143.945 144.231 144.871 144.915 145.358 145.428 145.965 146.295 147.018 
147.514 148.286 139.671 140.748 140.319 140.563 141.858 141.438 141.747 
141.302 141.662 143.088 142.612 142.94 142.495 142.894 142.506 143.004 
144.278 143.871 144.145 143.69 144.045 143.694 144.198 143.895 144.374 
145.099 144.889 145.167 144.83 145.107 144.776 145.178 144.95 145.359 
145.085 145.297 145.986 145.675 146.102 145.804 146.197 145.837 146.188 
145.861 146.158 145.884 146.032 145.718 145.736 147.47 146.893 147.461 
146.983 147.61 147.124 147.643 147.069 147.387 146.805 146.97 146.471 
146.585 146.164 146.321 149.104 148.557 149.1 148.581 149.246 148.755 
149.398 148.773 149.196 148.384 148.612 147.78 147.995 147.3 147.602 
147.046 147.411 150.363 150.016 150.47 150.101 150.635 150.299 150.866 
150.457 150.873 150.237 150.46 149.646 149.848 149.029 149.332 148.601 
148.978 148.344 148.723 149.639 150 150.282 151.24 150.402 150.694 
151.724 151.988 153.038 150.841 151.092 152.098 152.439 153.546 153.88 
154.995 151.319 151.498 152.376 152.725 153.841 154.322 155.535 155.873 
156.895 151.684 151.907 152.7 152.989 154.084 154.588 155.918 156.384 
157.52 157.692 158.533 151.714 152.116 152.96 153.32 154.437 154.911 
156.293 156.795 158.056 158.315 159.235 159.28 160.072 151.498 152.01 
152.94 153.487 154.661 155.249 156.591 157.159 158.421 158.815 159.814 
159.974 160.801 160.854 161.633 151.289 151.783 152.727 153.372 154.556 
155.297 156.549 157.254 158.388 158.987 159.974 160.406 161.273 161.508 
162.282 162.355 162.995 151.113 151.585 152.474 153.121 154.241 155.031 
156.177 156.952 157.939 158.67 159.57 160.274 161.144 161.71 162.489 
162.826 163.468 163.565 164.048 149.738 151.317 150.458 150.366 153.146 
152.173 152.118 151.17 151.092 155.135 154.129 154.115 153.077 153.028 
151.99 151.899 156.979 156.097 156.091 155.114 155.053 154.004 153.88 
152.811 152.663 158.58 157.823 157.85 156.998 156.959 155.991 155.853 
154.791 154.586 153.526 153.331 160.178 159.434 159.568 158.742 158.783 
157.851 157.777 156.747 156.576 155.476 155.247 154.161 153.923 161.735 
161.062 161.225 160.476 160.507 159.641 159.528 158.596 158.434 157.444 
157.23 156.133 155.838 154.714 154.396 163 162.463 162.485 161.92 
161.798 161.134 160.826 160.087 159.752 159.032 158.766 157.954 157.626 
156.607 156.185 155.099 154.699 164.006 163.528 163.407 162.901 162.641 
162.102 161.674 161.062 160.562 159.991 159.613 159.108 158.789 158.12 
157.682 156.766 156.258 155.278 154.837 164.522 164.926 164.46 163.823 
164.868 164.696 164.002 163.596 162.919 164.148 164.397 163.896 163.674 
162.92 162.571 161.865 163.18 163.551 163.328 163.424 162.809 162.527 
161.712 161.399 160.708 162.552 162.719 162.502 162.74 162.317 162.29 
161.553 161.257 160.505 160.269 159.744 162.079 162.177 161.768 161.925 
161.486 161.639 161.064 161.004 160.324 160.12 159.555 159.416 158.966 
161.322 161.556 161.071 161.185 160.614 160.757 160.203 160.357 159.796 
159.823 159.244 159.181 158.625 158.55 157.935 160.332 160.668 160.24 
160.409 159.797 159.888 159.252 159.424 158.87 159.089 158.534 158.663 
158.038 158.064 157.377 157.323 156.562 159.303 159.662 159.28 159.521 
158.957 159.064 158.406 158.502 157.897 158.093 157.554 157.776 157.194 
157.327 156.662 156.686 155.968 155.897 155.154 164.893 165.253 165.299 
165.394 164.75 165.327 165.531 165.553 165.257 163.525 164.387 164.589 
165.157 164.843 164.922 164.284 162.245 162.997 163.104 163.835 163.653 
164.094 163.626 163.737 163.23 161.12 161.772 161.847 162.428 162.458 
162.952 162.948 163.181 163.074 163.012 162.795 159.879 160.617 160.755 
161.333 161.479 162.023 162.338 162.77 163.008 163.08 162.992 162.768 
162.427 158.585 159.337 159.536 160.215 160.365 161.051 161.335 162.079 
162.331 162.829 162.67 162.761 162.247 162.137 161.555 157.461 158.118 
158.331 158.998 159.15 159.838 159.998 160.81 160.928 161.705 161.493 
161.96 161.39 161.586 160.946 161.024 160.453 156.468 157.062 157.262 
157.875 158.047 158.655 158.777 159.432 159.477 160.161 160.003 160.558 
160.143 160.507 159.997 160.238 159.758 159.895 159.413 151.213 151.825 
151.874 152.663 152.596 152.636 153.592 153.57 154.501 153.439 153.496 
154.484 154.54 155.504 155.487 156.373 154.206 154.309 155.246 155.365 
156.29 156.373 157.222 157.239 158.03 154.846 154.993 155.911 156.061 
157.007 157.118 158.023 158.044 158.894 158.863 159.672 155.361 155.546 
156.426 156.644 157.623 157.836 158.837 158.913 159.827 159.788 160.654 
160.57 161.336 155.741 155.961 156.748 157.028 157.956 158.332 159.353 
159.644 160.547 160.655 161.456 161.495 162.263 162.189 162.774 155.996 
156.244 156.968 157.252 158.104 158.527 159.516 159.965 160.859 161.15 
161.9 162.099 162.858 162.983 163.645 163.511 163.867 156.165 156.433 
157.135 157.422 158.215 158.613 159.524 160.004 160.862 161.267 161.998 
162.34 163.115 163.434 164.206 164.293 164.763 164.471 164.556 150.525 
149.548 150.341 150.979 148.443 149.291 149.917 150.813 151.618 147.285 
148.163 148.833 149.74 150.554 151.536 152.457 146.171 147.026 147.734 
148.664 149.501 150.484 151.396 152.386 153.265 145.228 145.984 146.675 
147.571 148.391 149.392 150.253 151.274 152.119 153.12 153.913 144.479 
145.138 145.764 146.545 147.283 148.233 149.033 150.052 150.842 151.888 
152.699 153.724 154.472 143.756 144.404 144.95 145.65 146.264 147.115 
147.847 148.815 149.581 150.589 151.388 152.452 153.273 154.266 154.936 
142.986 143.632 144.127 144.796 145.313 146.08 146.725 147.64 148.399 
149.372 150.161 151.17 151.987 153.026 153.777 154.693 155.251 142.285 
142.866 143.357 143.972 144.463 145.134 145.708 146.531 147.257 148.209 
149.005 149.984 150.777 151.771 152.532 153.499 154.141 154.976 155.454 
142.119 142.288 142.519 143.177 142.48 142.723 143.383 143.606 144.278 
142.639 142.919 143.638 143.859 144.564 144.76 145.52 142.906 143.142 
143.961 144.178 144.98 145.144 145.975 146.154 147.068 143.38 143.54 
144.421 144.607 145.499 145.655 146.563 146.718 147.691 147.862 148.846 
143.934 144.078 144.953 145.136 146.054 146.231 147.182 147.358 148.373 
148.551 149.576 149.701 150.653 144.479 144.624 145.491 145.677 146.613 
146.807 147.797 147.995 149.055 149.257 150.327 150.469 151.449 151.508 
152.393 145.046 145.177 146.068 146.238 147.222 147.412 148.46 148.651 
149.751 149.957 151.064 151.233 152.236 152.31 153.177 153.201 153.981 
145.655 145.776 146.687 146.849 147.857 148.061 149.136 149.346 150.436 
150.65 151.73 151.938 152.938 153.067 153.915 153.95 154.672 154.68 
155.317 146.306 147.734 147.126 147.385 149.281 148.645 148.955 148.304 
148.613 150.873 150.252 150.621 149.96 150.324 149.628 149.947 152.458 
151.875 152.291 151.658 152.043 151.37 151.715 150.988 151.267 154.001 
153.464 153.916 153.327 153.721 153.07 153.415 152.733 153.04 152.302 
152.55 155.477 154.994 155.482 154.941 155.376 154.746 155.109 154.428 
154.759 154.053 154.329 153.565 153.745 156.816 156.426 156.924 156.463 
156.909 156.364 156.739 156.115 156.439 155.763 156.023 155.295 155.443 
154.657 154.698 157.926 157.661 158.135 157.787 158.19 157.772 158.116 
157.629 157.908 157.342 157.53 156.887 156.962 156.246 156.222 155.46 
155.399 158.812 158.651 159.115 158.864 159.265 158.939 159.306 158.9 
159.182 158.677 158.814 158.233 158.242 157.614 157.541 156.865 156.758 
156.054 155.964 145.906 145.739 146.322 147.331 145.56 146.18 147.254 
147.821 148.86 145.34 145.998 147.092 147.728 148.807 149.372 150.414 
145.058 145.755 146.849 147.527 148.637 149.28 150.373 150.941 151.983 
144.779 145.491 146.634 147.295 148.434 149.097 150.272 150.905 152.034 
152.544 153.556 144.551 145.266 146.478 147.134 148.29 148.927 150.136 
150.817 152.045 152.629 153.699 154.116 155.044 144.329 145.039 146.237 
146.961 148.103 148.775 149.911 150.635 151.844 152.572 153.676 154.22 
155.124 155.532 156.354 144.143 144.772 145.873 146.628 147.743 148.493 
149.557 150.304 151.391 152.207 153.275 154.016 154.911 155.476 156.248 
156.719 157.445 144.104 144.585 145.575 146.234 147.314 148.067 149.133 
149.873 150.886 151.657 152.657 153.46 154.374 155.085 155.867 156.466 
157.182 157.691 158.333 144.991 143.497 144.397 144.728 141.947 142.825 
143.1 144.103 144.493 140.427 141.227 141.421 142.416 142.783 143.857 
144.266 139.027 139.698 139.736 140.659 140.925 142.055 142.43 143.567 
143.944 137.746 138.329 138.189 138.925 138.977 140.055 140.331 141.576 
141.922 143.153 143.557 136.424 137.045 136.883 137.444 137.337 138.135 
138.304 139.423 139.783 141.037 141.482 142.771 143.279 135.14 135.739 
135.707 136.23 136.182 136.728 136.888 137.667 138.084 139.081 139.617 
140.764 141.358 142.584 143.147 134.295 134.674 134.767 135.201 135.3 
135.758 135.999 136.584 137.055 137.776 138.356 139.201 139.828 140.838 
141.482 142.565 143.118 134.005 134.156 134.311 134.543 134.713 135.036 
135.31 135.816 136.306 136.96 137.552 138.227 138.815 139.571 140.201 
141.103 141.741 142.673 143.218 134.016 134.129 134.156 134.299 134.175 
134.273 134.454 134.454 134.635 134.325 134.379 134.656 134.634 134.832 
134.833 135.185 134.864 134.731 135.085 134.957 135.231 135.129 135.536 
135.591 136.206 135.751 135.472 135.812 135.557 135.856 135.658 136.099 
136.078 136.741 136.814 137.507 136.713 136.4 136.656 136.346 136.571 
136.336 136.744 136.705 137.368 137.425 138.13 138.139 138.772 137.626 
137.308 137.503 137.165 137.325 137.042 137.409 137.347 138.029 138.089 
138.845 138.829 139.503 139.437 140.11 138.488 138.171 138.369 138.02 
138.229 137.873 138.264 138.084 138.793 138.8 139.634 139.618 140.364 
140.265 140.964 140.875 141.604 139.294 138.995 139.23 138.922 139.244 
138.9 139.375 139.095 139.792 139.67 140.488 140.445 141.215 141.151 
141.854 141.767 142.452 142.379 143.059 139.809 140.767 140.096 139.817 
142.118 141.259 141.009 140.238 139.973 143.723 142.777 142.548 141.64 
141.432 140.536 140.282 145.376 144.431 144.203 143.267 143.069 142.142 
141.932 140.967 140.757 147.08 146.115 145.906 144.939 144.72 143.787 
143.561 142.633 142.408 141.496 141.349 148.868 147.884 147.708 146.695 
146.491 145.484 145.252 144.263 144.021 143.094 142.92 142.088 141.997 
150.628 149.692 149.53 148.529 148.34 147.315 147.112 146.056 145.831 
144.785 144.606 143.669 143.578 142.739 142.66 152.255 151.408 151.27 
150.327 150.131 149.145 148.942 147.934 147.728 146.681 146.483 145.455 
145.315 144.375 144.271 143.395 143.274 153.714 152.963 152.856 152.009 
151.83 150.896 150.678 149.712 149.492 148.517 148.302 147.316 147.112 
146.14 145.954 145.025 144.855 143.98 143.838 144.46 145.491 145.237 
145.873 146.651 146.358 147.019 146.787 147.57 147.854 147.578 148.282 
148.016 148.794 148.58 149.389 149.048 148.804 149.545 149.299 150.085 
149.846 150.631 150.389 151.145 150.263 150.034 150.828 150.583 151.403 
151.15 151.949 151.669 152.415 152.133 152.874 151.482 151.286 152.132 
151.903 152.74 152.484 153.287 153.004 153.751 153.442 154.148 153.863 
154.56 152.617 152.486 153.323 153.165 153.952 153.755 154.478 154.264 
154.953 154.722 155.386 155.122 155.76 155.484 156.08 153.603 153.543 
154.337 154.248 154.976 154.838 155.473 155.309 155.904 155.761 156.378 
156.234 156.854 156.645 157.223 156.935 157.438 154.445 154.442 155.221 
155.176 155.899 155.788 156.419 156.242 156.795 156.621 157.184 157.083 
157.7 157.614 158.213 158.031 158.534 158.229 158.615 138.547 138.161 
138.045 137.476 138.068 137.773 137.129 136.95 136.332 138.176 137.784 
137.054 136.695 135.95 135.766 135.199 138.261 137.9 137.177 136.724 
135.936 135.521 134.876 134.738 134.406 138.285 137.96 137.347 136.925 
136.248 135.711 135.08 134.66 134.288 134.172 134.05 138.381 138.017 
137.446 137.1 136.518 136.086 135.468 134.997 134.503 134.214 133.977 
133.929 133.862 138.618 138.191 137.587 137.207 136.611 136.267 135.629 
135.261 134.632 134.345 133.934 133.855 133.715 133.771 133.762 138.926 
138.494 137.935 137.455 136.892 136.428 135.857 135.402 134.822 134.421 
133.994 133.795 133.667 133.666 133.718 133.758 133.809 139.237 138.844 
138.395 137.918 137.467 136.92 136.484 135.885 135.464 134.856 134.534 
134.073 133.997 133.79 133.914 133.842 133.96 133.886 133.916 138.674 
137.569 138.264 138.564 136.415 137.125 137.433 138.177 138.547 135.354 
136.004 136.35 137.07 137.479 138.211 138.627 134.602 135.09 135.516 
136.127 136.588 137.22 137.654 138.328 138.752 134.177 134.496 134.901 
135.433 135.969 136.512 136.986 137.496 137.943 138.525 138.993 133.945 
134.139 134.407 134.85 135.356 135.942 136.492 136.993 137.482 137.922 
138.433 138.922 139.453 133.851 133.943 134.134 134.405 134.814 135.322 
135.895 136.479 137.046 137.548 138.078 138.523 139.06 139.502 140.033 
133.842 133.88 134.05 134.213 134.58 134.91 135.46 135.937 136.556 
137.081 137.672 138.167 138.713 139.161 139.676 140.105 140.615 133.863 
133.865 133.989 134.135 134.489 134.77 135.313 135.673 136.298 136.704 
137.336 137.779 138.384 138.823 139.38 139.785 140.306 140.708 141.226 
139.374 139.275 139.675 140.401 139.244 139.586 140.272 140.688 141.455 
139.329 139.611 140.264 140.584 141.343 141.798 142.677 139.458 139.736 
140.411 140.658 141.377 141.743 142.615 143.094 143.913 139.63 139.868 
140.557 140.821 141.516 141.825 142.604 143.028 143.788 144.194 144.769 
139.992 140.098 140.734 140.955 141.639 141.936 142.669 143.028 143.754 
144.09 144.727 145.001 145.641 140.542 140.549 141.155 141.234 141.903 
142.088 142.834 143.119 143.906 144.183 144.955 145.163 145.982 146.186 
147.109 141.141 141.14 141.779 141.787 142.466 142.503 143.231 143.377 
144.184 144.428 145.282 145.532 146.428 146.669 147.613 147.849 148.757 
141.739 141.746 142.412 142.446 143.144 143.157 143.843 143.88 144.606 
144.763 145.573 145.847 146.705 147.035 147.895 148.233 149.038 149.327 
150.022 144.854 144.255 144.182 143.42 143.701 143.607 142.845 142.731 
141.93 143.136 143.047 142.278 142.17 141.37 141.244 140.461 142.552 
142.452 141.658 141.573 140.767 140.673 139.899 139.813 139.108 142.102 
141.908 141.122 140.971 140.171 140.052 139.267 139.208 138.496 138.482 
137.818 141.901 141.6 140.859 140.575 139.821 139.567 138.792 138.611 
137.856 137.8 137.083 137.115 136.422 141.792 141.492 140.779 140.448 
139.721 139.379 138.641 138.308 137.558 137.288 136.538 136.389 135.677 
135.678 135.081 141.624 141.371 140.675 140.383 139.665 139.336 138.613 
138.261 137.549 137.18 136.468 136.098 135.414 135.142 134.6 134.536 
134.217 141.473 141.209 140.56 140.28 139.621 139.298 138.618 138.263 
137.586 137.225 136.569 136.182 135.551 135.154 134.635 134.352 134.059 
133.987 133.914 
POINT_DATA 1002
SCALARS Distance double
LOOKUP_TABLE default
140.355 139.584 140.233 141.125 141.058 141.501 142.095 142.022 142.438 
143.026 143.145 143.02 143.471 144.046 144.671 144.121 143.917 144.421 
144.983 145.685 146.31 145.025 144.77 145.318 145.847 146.636 147.42 
148.046 146.058 145.779 146.376 146.919 147.751 148.625 149.32 149.839 
147.292 146.921 147.679 148.265 149.113 149.984 150.652 151.146 151.528 
148.526 148.026 149.039 149.683 150.493 151.311 151.95 152.415 152.784 
153.057 149.634 149.057 150.252 150.98 151.77 152.503 153.13 153.646 
154.042 154.303 154.432 139.316 140.057 139.057 139.869 138.779 140.923 
139.645 138.59 140.778 141.888 139.58 138.581 140.7 141.786 142.85 
139.654 138.589 140.804 141.843 142.743 143.702 139.546 138.445 140.828 
142.016 142.866 143.622 144.597 139.331 138.35 140.632 142.07 143.187 
143.893 144.605 145.658 139.423 138.58 140.569 142.038 143.477 144.419 
144.931 145.614 146.741 139.853 139.066 140.83 142.09 143.562 144.8 
145.399 145.75 146.539 147.778 140.097 141.009 141.141 142.166 142.27 
142.069 143.403 143.592 143.254 143.364 144.619 144.627 144.416 144.469 
144.766 145.427 145.25 145.463 145.448 145.622 145.696 146.356 146.36 
146.531 146.606 146.518 146.34 146.066 147.966 148.088 148.064 148.24 
148.086 147.562 147.013 146.682 149.62 149.607 149.715 149.961 149.996 
149.507 148.769 148.208 147.921 150.822 150.664 150.969 151.224 151.416 
151.209 150.667 150.113 149.678 149.337 150.526 150.987 152.211 151.419 
152.77 154.134 151.748 153.132 154.738 156.113 152.085 153.298 155.098 
156.771 157.803 152.431 153.586 155.373 157.286 158.506 159.292 152.505 
153.947 155.78 157.73 159.156 160.045 160.882 152.306 154.014 156.025 
157.972 159.564 160.725 161.636 162.383 152.08 153.8 155.857 157.766 
159.428 160.932 162.165 163.049 163.556 151.858 153.487 155.439 157.236 
158.818 160.465 162.038 163.266 164.092 164.5 151.216 153.096 152.046 
155.158 154.091 152.948 157.021 156.094 154.977 153.717 158.648 157.882 
156.903 155.681 154.361 160.363 159.697 158.771 157.661 156.389 154.994 
161.944 161.37 160.458 159.358 158.286 157.019 155.503 163.064 162.449 
161.577 160.447 159.455 158.56 157.302 155.753 163.966 163.193 162.284 
161.166 160.076 159.311 158.499 157.245 155.778 165.104 164.313 165.365 
164.412 164.831 163.284 163.951 163.665 163.328 162.149 163.041 162.84 
162.997 162.105 160.884 162.282 162.538 162.188 161.771 160.785 159.848 
161.714 161.987 161.311 160.963 160.461 159.731 159.092 160.969 161.01 
160.534 160.001 159.65 159.282 158.725 158.063 160.028 159.958 159.725 
159.132 158.625 158.338 157.985 157.407 156.663 159.002 158.948 158.811 
158.336 157.751 157.317 157.008 156.592 155.99 155.253 165.078 165.718 
164.965 165.3 163.987 165.579 163.877 162.713 164.595 164.36 162.403 
161.622 163.037 163.332 163.191 161.294 160.446 161.849 162.494 163.025 
163.011 160.112 159.079 160.86 161.732 162.794 163.209 162.758 158.822 
157.857 159.675 160.563 161.713 162.487 162.317 161.669 157.677 156.851 
158.497 159.278 160.157 160.916 161.079 160.776 160.394 156.659 155.896 
157.451 158.193 158.863 159.415 159.684 159.67 159.547 159.334 151.119 
152.647 151.711 153.553 152.525 154.578 154.411 153.385 155.491 156.445 
155.135 154.1 156.196 157.186 158.038 155.746 154.694 156.853 157.975 
158.911 159.737 156.2 155.191 157.333 158.683 159.854 160.719 161.509 
156.493 155.54 157.554 158.982 160.397 161.393 162.258 163.023 156.701 
155.75 157.712 159.049 160.52 161.661 162.648 163.669 164.246 149.796 
150.112 148.742 149.024 147.567 150.621 147.901 146.39 149.579 151.465 
146.79 145.336 148.516 150.413 152.313 145.83 144.522 147.41 149.25 
151.1 152.949 145.065 143.852 146.4 148.044 149.811 151.619 153.532 
144.3 143.12 145.489 146.908 148.596 150.341 152.209 154.078 143.478 
142.361 144.605 145.849 147.423 149.183 150.963 152.792 154.463 142.76 