# vtk DataFile Version 4.0
vtk output
ASCII
DATASET POLYDATA
POINTS 1002 float
-74.6327 -105.21 59.4978 -74.9135 -104.285 58.8257 -75.6035 -104.497 59.1335 
-75.2305 -105.49 59.8628 -76.2206 -104.593 59.6686 -74.0423 -106.485 60.2415 
-75.7982 -105.741 60.4078 -76.8847 -104.846 60.3077 -74.5582 -106.943 60.5968 
-73.4156 -108.151 60.9881 -76.3474 -106.396 60.8741 -77.4973 -105.711 60.6731 
-75.0366 -107.666 60.9142 -73.8836 -109.007 61.2046 -73.0702 -110.122 61.807 
-76.586 -107.75 60.867 -77.7372 -107.068 60.6502 -75.3162 -108.963 60.9766 
-74.2178 -110.301 61.2899 -73.4996 -111.293 62.0518 -72.9439 -112.17 62.8889 
-76.4642 -109.309 60.4898 -77.6926 -108.364 60.5037 -75.351 -110.527 60.7915 
-74.4075 -111.801 61.3582 -73.7829 -112.684 62.2998 -73.3286 -113.357 63.3591 
-72.7914 -114.21 64.102 -76.437 -110.583 60.2603 -77.6717 -109.522 60.3387 
-75.5129 -111.741 60.7565 -74.7853 -112.91 61.6916 -74.1831 -113.868 62.7308 
-73.679 -114.624 63.7689 -73.1731 -115.434 64.6232 -72.649 -116.265 65.2297 
-76.6324 -111.727 60.4255 -77.6325 -110.748 60.1906 -75.9401 -112.709 61.126 
-75.4067 -113.697 62.2848 -74.8428 -114.717 63.4048 -74.2265 -115.761 64.2385 
-73.6293 -116.747 64.996 -73.1242 -117.553 65.7248 -72.7102 -118.129 66.3626 
-76.8435 -112.876 60.9135 -77.5329 -111.974 60.2827 -76.3669 -113.76 61.7828 
-75.9299 -114.677 62.8881 -75.4201 -115.674 64.0122 -74.8523 -116.793 64.8372 
-74.2623 -117.902 65.499 -73.7398 -118.733 66.2467 -73.3379 -119.247 66.9776 
-72.99 -119.605 67.5574 -77.0694 -113.923 61.5717 -77.5294 -113.064 60.7144 
-76.732 -114.794 62.5286 -76.3269 -115.769 63.4844 -75.8393 -116.807 64.4757 
-75.3951 -117.832 65.4112 -74.9783 -118.817 66.2085 -74.5308 -119.615 66.9828 
-74.1097 -120.119 67.7299 -73.7348 -120.46 68.3048 -73.3542 -120.765 68.6997 
-75.4259 -103.662 58.3383 -76.2102 -103.725 58.8033 -75.9726 -102.97 57.8269 
-76.9266 -102.969 58.4422 -76.7724 -102.356 57.0785 -76.9558 -103.8 59.4338 
-77.8558 -102.553 57.6962 -77.6704 -102.077 56.0525 -77.7929 -103.271 58.9857 
-77.7372 -104.331 59.9096 -78.7412 -102.505 56.6203 -78.4717 -101.859 55.1292 
-78.6907 -103.176 58.0856 -78.5538 -104.189 59.1179 -78.4203 -105.457 60.1089 
-79.5606 -102.205 55.7126 -79.3606 -101.307 54.427 -79.5196 -103.154 57.1022 
-79.3403 -104.168 58.1733 -79.2716 -105.311 59.3758 -78.8536 -106.623 60.4353 
-80.4123 -101.612 54.9624 -80.1789 -100.836 53.6589 -80.4146 -102.775 56.4101 
-80.2171 -103.97 57.5215 -80.1297 -105.05 58.7804 -80.022 -106.13 60.2912 
-79.1221 -107.597 60.7813 -80.9065 -101.505 54.0905 -80.4651 -100.991 52.8378 
-81.1935 -102.49 55.7031 -81.1917 -103.707 57.026 -81.021 -104.842 58.2422 
-81.0073 -105.804 59.911 -80.5429 -106.973 60.9112 -79.1328 -108.734 60.5714 
-80.8901 -102.07 53.2209 -80.3444 -101.624 52.1644 -81.44 -102.803 54.7975 
-81.8218 -103.752 56.3065 -81.7912 -104.838 57.5019 -81.678 -105.85 59.0592 
-81.4909 -106.791 60.4685 -80.4691 -108.167 60.5633 -78.8043 -110.077 60.0658 
-80.7531 -102.819 52.5433 -80.2511 -102.345 51.6636 -81.2924 -103.447 53.9335 
-81.8537 -104.129 55.461 -82.147 -105.002 56.6566 -82.1362 -106.07 57.9924 
-82.0419 -107.011 59.5923 -81.4303 -107.998 60.3072 -79.9753 -109.515 60.0034 
-78.4216 -111.378 59.9424 -80.6111 -103.336 51.7447 -81.0308 -103.941 52.8878 
-80.9346 -104.459 52.0816 -81.1885 -105.074 53.4914 -81.0618 -105.788 52.7015 
-81.4758 -104.552 54.446 -81.2471 -106.42 54.2705 -81.1362 -107.337 53.5035 
-81.5242 -105.691 55.0795 -81.9751 -105.237 55.8261 -81.4205 -108.008 55.0034 
-81.1955 -108.844 54.3139 -81.6635 -107.183 55.7431 -82.102 -106.618 56.3404 
-82.3359 -106.301 57.0383 -81.4209 -109.597 55.5583 -80.9475 -110.253 55.0669 
-81.7445 -108.88 56.2437 -82.2534 -108.332 56.9296 -82.6335 -107.902 57.7263 
-82.4733 -107.451 58.6645 -81.0231 -111.301 56.1725 -80.4963 -111.809 55.8968 
-81.2824 -110.625 56.7155 -81.7272 -110.065 57.3776 -82.4076 -109.602 58.28 
-82.5724 -108.992 59.2754 -82.0819 -108.374 59.9292 -80.6837 -113.122 57.0324 
-80.1648 -113.368 56.8798 -80.7797 -112.554 57.4774 -80.7377 -111.873 57.9427 
-81.1563 -111.32 58.5003 -81.6707 -110.701 59.359 -81.4912 -110.013 59.9672 
-80.7595 -109.595 60.0258 -80.4837 -114.605 57.9809 -79.8332 -114.61 57.9354 
-80.7563 -114.311 58.3553 -80.4818 -113.696 58.7589 -80.1585 -113.067 58.9198 
-80.2412 -112.529 59.2634 -80.2861 -111.954 59.8506 -79.8203 -111.506 60.0719 
-79.0838 -111.354 59.9523 -80.0386 -115.648 58.9444 -79.3112 -115.597 59.018 
-80.6467 -115.554 59.1477 -80.7462 -115.161 59.5432 -80.2586 -114.603 59.7175 
-79.6748 -114.153 59.7495 -79.3549 -113.816 60.1008 -79.0572 -113.504 60.5488 
-78.5569 -113.274 60.6792 -77.994 -113.149 60.6541 -77.4895 -114.644 61.9821 
-77.9283 -114.905 61.9681 -77.7629 -116.317 63.4873 -78.3764 -115.156 61.9199 
-78.1978 -116.744 63.5573 -78.1252 -118.105 65.0837 -78.7745 -115.316 61.6446 
-78.6211 -117.025 63.5843 -78.6487 -118.598 65.2919 -78.7168 -119.825 66.8186 
-79.2595 -115.416 61.2033 -79.0976 -117.08 63.3976 -79.2539 -118.848 65.4411 
-79.4887 -120.246 67.0476 -79.7079 -121.294 68.4629 -79.9676 -115.653 60.9378 
-79.6604 -117.197 63.0035 -79.7973 -119.038 65.2869 -80.287 -120.547 67.0672 
-80.6254 -121.627 68.5969 -80.711 -122.584 69.9837 -80.5283 -116.095 60.7228 
-80.0585 -117.564 62.5541 -79.9854 -119.482 64.8468 -80.6617 -121.068 66.762 
-81.3299 -122.094 68.3833 -81.4728 -122.993 70.068 -81.3509 -123.748 71.5777 
-80.4413 -116.495 60.3453 -79.9432 -117.924 62.0622 -79.7181 -119.922 64.327 
-80.4042 -121.705 66.3714 -81.4603 -122.783 67.9545 -81.9508 -123.609 69.6716 
-81.9179 -124.361 71.4708 -81.7536 -124.712 72.9497 -79.805 -116.657 60.0979 
-79.3861 -118.051 61.6859 -79.1975 -119.991 63.8225 -79.8003 -121.937 65.974 
-80.9966 -123.265 67.5918 -81.9101 -124.175 69.0857 -82.2257 -124.974 70.8455 
-82.2268 -125.465 72.5009 -82.0418 -125.526 73.7828 -79.0645 -116.663 60.1404 
-78.7537 -118.031 61.5808 -78.6763 -119.808 63.4318 -79.1845 -121.704 65.4546 
-80.2353 -123.242 67.1653 -81.2894 -124.372 68.5537 -81.9594 -125.291 70.0662 
-82.2971 -125.942 71.7158 -82.3596 -126.238 73.1301 -82.0875 -126.279 74.2057 
-77.2269 -115.533 63.0397 -77.5337 -117.284 64.6104 -76.8845 -116.555 64.0394 
-78.0058 -119.091 66.3772 -77.2364 -118.389 65.7468 -76.4323 -117.714 65.0079 
-78.8338 -120.79 68.1654 -77.9685 -120.124 67.6832 -76.9908 -119.497 66.8885 
-76.0559 -118.778 66.0439 -79.845 -122.321 69.6931 -78.8578 -121.853 69.3036 
-77.8188 -121.172 68.7567 -76.753 -120.438 67.9522 -75.7691 -119.667 67.0586 
-80.6757 -123.477 71.3801 -79.6834 -123.281 70.8711 -78.4798 -122.891 70.2713 
-77.3761 -122.151 69.6183 -76.386 -121.254 68.8739 -75.4077 -120.42 67.9668 
-81.2306 -124.161 73.1921 -80.4608 -123.853 72.9569 -79.2777 -123.824 72.2257 
-77.9584 -123.636 71.234 -76.8732 -122.927 70.3788 -75.9195 -121.908 69.6492 
-74.9615 -120.959 68.7444 -81.5368 -124.774 74.4472 -80.9342 -124.073 74.8261 
-80.0941 -123.848 74.5046 -78.8702 -124.04 73.3484 -77.5323 -124.017 71.9921 
-76.3864 -123.353 71.0337 -75.3991 -122.312 70.2496 -74.5006 -121.324 69.3035 
-81.5818 -125.623 75.023 -80.9433 -124.759 75.8271 -80.3068 -124.122 76.1179 
-79.4748 -124.019 75.3617 -78.2615 -124.197 73.8791 -76.9153 -124.096 72.5416 
-75.7579 -123.474 71.574 -74.8201 -122.558 70.6447 -74.0254 -121.638 69.6424 
-81.4951 -126.741 74.9396 -80.8254 -126.075 75.935 -80.4332 -127.117 75.5396 
-79.7274 -126.446 76.7126 -79.1199 -127.062 75.9056 -80.083 -125.219 76.8431 
-78.5577 -126.415 77.0826 -77.6808 -126.943 76.0394 -79.0143 -125.672 77.504 
-79.4138 -124.61 76.8498 -77.1969 -126.532 76.814 -76.0159 -127.536 76.0642 
-77.9387 -125.811 77.4969 -78.282 -125.073 77.0902 -78.5084 -124.377 75.6902 
-75.397 -127.182 76.225 -74.3355 -128.238 76.0359 -76.5325 -126.042 76.7532 
-77.0673 -125.208 76.8311 -77.2068 -124.57 75.8162 -77.2057 -124.254 74.1942 
-73.5739 -127.4 75.9503 -73.0831 -128 75.8342 -74.5784 -126.344 76.0683 
-75.5101 -125.288 76.2225 -75.848 -124.552 75.7264 -75.8936 -124.159 74.4824 
-75.8807 -123.96 72.9529 -72.2569 -126.876 75.8578 -72.2262 -127.338 75.2577 
-72.6639 -126.148 76.0313 -73.5563 -125.301 75.9034 -74.3342 -124.585 75.3993 
-74.6439 -124.094 74.4549 -74.7517 -123.799 73.1635 -74.8262 -123.366 71.8051 
-71.3435 -126.473 75.2895 -71.4106 -127.065 74.3045 -71.3326 -125.756 75.8796 
-71.8168 -125.109 75.7973 -72.6952 -124.578 75.1125 -73.3843 -124.065 74.1811 
-73.7 -123.634 73.1029 -73.8681 -123.218 71.8504 -73.9922 -122.538 70.6565 
-70.5468 -126.411 74.2001 -70.5223 -126.997 73.2469 -70.4958 -125.624 74.9594 
-70.7118 -124.936 75.1224 -71.3785 -124.435 74.6088 -72.165 -123.898 73.8222 
-72.684 -123.32 72.9724 -72.9536 -122.873 71.8899 -73.1452 -122.372 70.6771 
-73.292 -121.619 69.6112 -82.0083 -126.871 73.8689 -81.1406 -127.304 74.48 
-81.3094 -127.073 73.4058 -80.113 -127.317 73.9005 -80.1298 -126.955 72.6619 
-79.7721 -127.457 74.7875 -78.7636 -127.044 73.0835 -78.9378 -126.767 71.6312 
-78.5462 -127.319 74.0229 -78.198 -127.297 74.8913 -77.6147 -126.932 72.0141 
-77.8332 -126.557 70.6087 -77.292 -127.216 73.185 -77.0048 -127.523 74.0503 
-76.5763 -127.637 75.1618 -76.6865 -126.889 70.9007 -76.7362 -126.137 69.7534 
-76.3879 -127.441 72.0615 -76.0536 -128.013 73.0304 -75.6239 -128.493 74.2774 
-74.9847 -128.584 75.5689 -75.8769 -126.503 69.8383 -75.8266 -125.523 68.8253 
-75.7018 -127.453 70.8237 -75.3667 -128.378 71.6678 -74.9791 -129.129 72.7581 
-74.3913 -129.272 74.3851 -73.6994 -128.798 75.5631 -75.1337 -125.826 68.6828 
-75.096 -124.87 67.6965 -75.0487 -126.874 69.6243 -74.7509 -127.945 70.4954 
-74.3895 -128.902 71.2737 -73.9336 -129.269 72.4801 -73.3423 -128.842 73.9876 
-72.7836 -128.09 74.9157 -74.3319 -125.039 67.5134 -74.3498 -124.131 66.5893 
-74.2811 -126.034 68.3906 -74.0745 -126.976 69.4057 -73.7708 -127.806 70.3664 
-73.407 -128.388 71.1596 -72.8948 -128.411 72.1541 -72.373 -128.002 73.2051 
-71.9257 -127.544 73.8969 -73.5126 -124.107 66.5356 -73.5946 -123.249 65.6587 
[...]
CELL_DATA 2000
SCALARS Distance double
LOOKUP_TABLE default
140.726 141.375 141.223 141.594 142.091 141.893 142.309 142.164 142.669 
143.055 142.724 143.177 142.961 143.551 143.405 144.118 144.172 143.792 
144.252 143.968 144.63 144.428 145.235 145.07 145.947 145.146 144.85 
145.31 145.093 145.799 145.619 146.48 146.297 147.212 147.026 147.939 
145.978 145.735 146.233 146.106 146.889 146.8 147.716 147.576 148.508 
148.326 149.253 149.051 149.947 146.86 146.62 147.226 147.083 147.969 
147.903 148.909 148.811 149.798 149.634 150.595 150.396 151.331 151.085 
151.948 147.831 147.633 148.388 148.221 149.183 149.074 150.136 150.038 
151.088 150.946 151.957 151.77 152.735 152.496 153.372 153.071 153.838 
148.856 148.718 149.596 149.465 150.461 150.346 151.402 151.301 152.366 
152.251 153.289 153.136 154.109 153.894 154.756 154.472 155.209 154.877 
155.518 140.324 139.926 140.415 140.969 139.572 140.041 140.643 141.082 
141.687 139.39 139.796 140.466 140.844 141.526 141.929 142.665 139.331 
139.728 140.457 140.79 141.509 141.867 142.667 143.062 143.832 139.206 
139.669 140.44 140.831 141.554 141.899 142.7 143.11 143.938 144.265 
144.901 139.011 139.491 140.304 140.791 141.581 141.953 142.751 143.152 
144.042 144.417 145.14 145.296 145.785 138.899 139.311 140.167 140.681 
141.604 142.017 142.874 143.235 144.147 144.553 145.386 145.597 146.109 
146.141 146.574 138.955 139.277 140.15 140.628 141.631 142.092 143.007 
143.376 144.255 144.666 145.526 145.84 146.404 146.462 146.794 146.875 
147.359 139.167 139.416 140.261 140.673 141.64 142.12 143.026 143.452 
144.292 144.727 145.578 145.966 146.609 146.732 147.057 147.06 147.403 
147.621 148.232 139.583 140.65 140.272 140.701 141.835 141.4 141.819 
141.498 142.026 143.194 142.646 143.006 142.615 143.099 142.831 143.352 
144.688 144.094 144.435 143.896 144.368 143.962 144.516 144.173 144.687 
146.033 145.556 145.909 145.382 145.862 145.386 145.998 145.533 146.108 
145.605 146.061 147.27 146.845 147.206 146.747 147.15 146.791 147.353 
147.036 147.562 147.1 147.405 146.868 147.029 148.64 148.187 148.625 
148.069 148.385 147.925 148.305 148.091 148.495 148.284 148.44 148.022 
147.938 147.48 147.386 149.943 149.605 150.135 149.608 149.937 149.271 
149.474 148.968 149.215 148.956 149.134 148.83 148.791 148.317 148.214 
147.741 147.754 150.937 150.76 151.296 151.01 151.398 150.851 151.013 
150.303 150.405 149.822 150.023 149.595 149.8 149.302 149.437 148.825 
148.994 148.397 148.656 149.59 149.955 150.292 151.436 150.347 150.696 
151.899 152.301 153.57 150.617 151.028 152.249 152.771 154.148 154.545 
155.863 150.832 151.22 152.439 153.058 154.549 155.117 156.557 156.906 
158.209 151.285 151.511 152.708 153.249 154.808 155.49 157.072 157.57 
158.943 159.231 160.44 151.88 152.051 153.136 153.568 155.063 155.763 
157.425 158.052 159.511 159.904 161.141 161.389 162.469 152.15 152.47 
153.358 153.853 155.163 155.94 157.567 158.35 159.861 160.395 161.659 
162.013 163.12 163.329 164.223 151.968 152.434 153.178 153.781 154.917 
155.802 157.326 158.312 159.822 160.588 161.841 162.379 163.466 163.853 
164.771 164.932 165.581 151.608 152.102 152.829 153.44 154.491 155.364 
156.769 157.844 159.302 160.294 161.516 162.298 163.317 163.947 164.83 
165.267 165.936 166.09 166.52 149.751 151.622 150.638 150.622 153.741 
152.658 152.647 151.595 151.565 156.033 154.885 154.902 153.747 153.729 
152.598 152.55 158.395 157.263 157.337 156.124 156.132 154.892 154.839 
153.627 153.544 160.642 159.62 159.741 158.591 158.606 157.36 157.28 
156 155.869 154.625 154.484 162.648 161.769 161.904 160.898 160.902 
159.761 159.642 158.407 158.214 156.956 156.737 155.509 155.287 164.311 
163.595 163.677 162.864 162.847 161.892 161.756 160.647 160.415 159.216 
158.926 157.705 157.385 156.194 155.877 165.581 165.02 165.004 164.377 
164.31 163.592 163.44 162.56 162.295 161.259 160.908 159.774 159.366 
158.197 157.774 156.644 156.26 166.518 166.088 166.022 165.501 165.391 
164.827 164.659 163.99 163.69 162.877 162.461 161.53 161.051 160.021 
159.516 158.437 157.961 156.913 156.503 166.905 167.174 166.907 166.456 
167.057 167.084 166.75 166.388 165.846 166.52 166.818 166.696 166.601 
166.113 165.72 165.097 165.962 166.226 166.204 166.377 165.999 165.83 
165.147 164.808 164.07 165.584 165.701 165.506 165.745 165.394 165.474 
164.79 164.631 163.814 163.593 162.797 164.971 165.165 164.722 164.945 
164.481 164.692 164.052 164.07 163.264 163.166 162.372 162.225 161.41 
163.968 164.287 163.781 164.02 163.474 163.711 163.124 163.255 162.549 
162.54 161.791 161.721 160.952 160.789 159.924 162.925 163.237 162.795 
163.019 162.492 162.707 162.168 162.349 161.743 161.814 161.126 161.112 
160.378 160.288 159.475 159.276 158.391 161.986 162.28 161.875 162.078 
161.565 161.755 161.226 161.424 160.862 161.001 160.351 160.406 159.69 
159.675 158.905 158.795 157.966 157.762 156.922 167.117 167.09 167.261 
167.317 166.385 166.902 166.956 167.199 167.03 165.267 165.924 165.965 
166.48 166.32 166.626 166.356 164.139 164.768 164.851 165.39 165.38 
165.795 165.74 165.995 165.896 163.045 163.711 163.922 164.432 164.617 
165.025 165.258 165.558 165.749 165.832 165.78 161.833 162.615 162.947 
163.588 163.88 164.398 164.721 165.172 165.445 165.724 165.707 165.682 
165.29 160.504 161.351 161.694 162.508 162.802 163.534 163.775 164.444 
164.577 165.128 164.991 165.293 164.83 164.853 164.214 159.106 159.962 
160.235 161.121 161.359 162.227 162.382 163.198 163.207 163.918 163.695 
164.217 163.764 164.075 163.517 163.633 163.075 157.662 158.5 158.705 
159.585 159.766 160.655 160.755 161.614 161.582 162.358 162.146 162.772 
162.397 162.866 162.434 162.774 162.351 162.535 162.092 151.617 152.229 
152.238 152.958 153.064 153.059 153.955 153.844 154.766 153.895 153.988 
155.043 155.015 156.087 155.95 157.078 154.644 154.812 155.941 156.078 
157.241 157.278 158.454 158.391 159.539 155.395 155.569 156.722 156.926 
158.153 158.331 159.552 159.638 160.783 160.747 161.732 156.124 156.322 
157.464 157.691 158.931 159.189 160.456 160.641 161.801 161.857 162.859 
162.77 163.574 156.716 156.989 158.072 158.35 159.493 159.847 161.054 
161.404 162.523 162.734 163.692 163.761 164.582 164.483 165.109 157.095 
157.46 158.481 158.821 159.837 160.231 161.288 161.756 162.766 163.182 
164.048 164.347 165.114 165.279 165.918 165.847 166.237 157.283 157.713 
158.698 159.101 160.051 160.448 161.383 161.828 162.708 163.177 163.942 
164.397 165.092 165.51 166.146 166.388 166.815 166.736 166.865 150.931 
149.956 150.75 151.425 148.899 149.73 150.383 151.284 152.092 147.801 
148.644 149.262 150.17 150.922 151.943 152.822 146.667 147.512 148.107 
149.013 149.732 150.733 151.587 152.655 153.559 145.564 146.363 146.929 
147.828 148.531 149.528 150.359 151.416 152.316 153.39 154.302 144.614 
145.305 145.817 146.644 147.301 148.289 149.085 150.157 151.014 152.115 
153.01 154.121 155.017 143.839 144.426 144.868 145.569 146.14 147.045 
147.791 148.842 149.671 150.77 151.627 152.766 153.651 154.79 155.625 
143.148 143.683 144.06 144.659 145.136 145.915 146.592 147.563 148.382 
149.439 150.296 151.384 152.246 153.374 154.209 155.321 156.046 142.468 
142.983 143.321 143.864 144.269 144.942 145.532 146.401 147.18 148.19 
149.057 150.105 150.961 152.013 152.82 153.887 154.618 155.666 156.284 
142.197 142.083 142.44 143.05 142.073 142.376 143.026 143.342 144.02 
142.231 142.462 143.156 143.416 144.178 144.465 145.303 142.553 142.731 
143.475 143.668 144.497 144.746 145.695 145.965 146.972 142.972 143.138 
143.943 144.102 144.996 145.198 146.239 146.487 147.61 147.825 148.899 
143.418 143.599 144.469 144.647 145.634 145.824 146.952 147.165 148.367 
148.564 149.707 149.827 150.84 143.917 144.091 145.037 145.234 146.318 
146.539 147.737 147.959 149.177 149.371 150.509 150.648 151.661 151.733 
152.661 144.536 144.682 145.708 145.889 147.031 147.262 148.475 148.729 
149.908 150.135 151.215 151.395 152.375 152.502 153.417 153.503 154.393 
145.249 145.389 146.457 146.629 147.763 147.984 149.146 149.405 150.522 
150.772 151.8 152.017 152.98 153.158 154.08 154.212 155.099 155.194 
156.038 146.001 147.618 146.96 147.275 149.296 148.629 148.984 148.288 
148.605 151.137 150.368 150.748 150.031 150.387 149.657 149.977 153.251 
152.352 152.739 151.904 152.296 151.497 151.834 151.045 151.33 155.359 
154.507 154.877 154.007 154.401 153.524 153.866 152.975 153.233 152.378 
152.598 157.224 156.505 156.866 156.091 156.462 155.642 155.974 155.074 
155.321 154.371 154.559 153.642 153.807 158.918 158.292 158.688 157.982 
158.358 157.613 157.959 157.14 157.411 156.492 156.683 155.7 155.831 
154.855 154.95 160.397 159.919 160.337 159.733 160.112 159.444 159.809 
159.07 159.374 158.535 158.745 157.813 157.926 156.927 156.966 155.966 
155.983 161.493 161.229 161.644 161.23 161.597 161.084 161.452 160.846 
161.165 160.433 160.637 159.789 159.874 158.944 158.936 157.957 157.907 
156.934 156.893 145.517 145.254 145.946 147.09 144.931 145.652 146.829 
147.574 148.77 144.526 145.271 146.466 147.303 148.639 149.361 150.656 
144.098 144.822 146.052 146.951 148.455 149.306 150.827 151.455 152.836 
143.856 144.456 145.739 146.611 148.26 149.205 150.93 151.702 153.237 
153.742 155.01 143.938 144.383 145.678 146.434 148.122 149.075 150.87 
151.78 153.391 154.076 155.38 155.808 156.878 144.191 144.588 145.833 
146.479 148.06 148.947 150.637 151.607 153.167 154.041 155.354 156.009 
157.104 157.545 158.519 144.386 144.828 146.007 146.615 148.023 148.822 
150.312 151.24 152.668 153.625 154.912 155.768 156.896 157.578 158.583 
159.082 159.96 144.499 144.966 146.09 146.689 147.952 148.678 149.987 
150.821 152.117 153.035 154.282 155.202 156.344 157.183 158.203 158.92 
159.802 160.342 161.042 144.484 142.927 143.863 144.203 141.376 142.299 
142.618 143.587 143.917 139.685 140.639 140.921 141.978 142.335 143.305 
143.574 137.98 138.819 138.962 140.11 140.495 141.663 142.013 142.955 
143.182 136.608 137.186 137.16 138.097 138.426 139.676 140.181 141.351 
141.739 142.63 142.946 135.546 135.984 135.946 136.545 136.78 137.724 
138.267 139.473 140.106 141.202 141.701 142.555 143.021 134.619 135.02 
135.074 135.563 135.803 136.422 136.853 137.754 138.402 139.546 140.241 
141.3 141.862 142.73 143.25 133.91 134.208 134.305 134.771 135.078 
135.622 136.008 136.62 137.102 137.982 138.651 139.765 140.447 141.486 
142.026 142.923 143.421 133.446 133.64 133.731 134.098 134.431 134.946 
135.389 135.908 136.337 136.919 137.46 138.312 139.015 140.035 140.69 
141.642 142.166 143.047 143.545 133.216 133.058 133.246 133.566 133.126 
133.239 133.675 133.814 134.312 133.508 133.468 133.967 134.062 134.633 
134.744 135.306 134.327 134.038 134.495 134.465 135.066 135.139 135.72 
135.775 136.289 135.533 135.049 135.399 135.134 135.667 135.629 136.247 
136.264 136.835 136.804 137.393 136.775 136.296 136.557 136.143 136.527 
136.315 136.903 136.872 137.558 137.503 138.176 138.098 138.868 137.84 
137.431 137.643 137.248 137.529 137.221 137.711 137.605 138.339 138.323 
139.099 139.007 139.749 139.688 140.49 138.843 138.43 138.625 138.248 
138.528 138.204 138.651 138.466 139.157 139.136 139.955 139.933 140.677 
140.584 141.274 141.241 141.965 139.844 139.433 139.633 139.239 139.55 
139.217 139.683 139.441 140.077 139.979 140.749 140.746 141.507 141.459 
142.128 142.035 142.693 142.655 143.354 140.438 141.342 140.682 140.289 
142.467 141.71 141.388 140.627 140.283 143.937 143.024 142.778 141.9 
141.628 140.772 140.505 145.765 144.708 144.496 143.48 143.255 142.282 
142.046 141.126 140.938 147.765 146.67 146.487 145.37 145.158 144.059 
143.827 142.787 142.593 141.665 141.574 149.772 148.702 148.556 147.437 
147.252 146.091 145.87 144.705 144.494 143.422 143.289 142.369 142.306 
151.754 150.716 150.591 149.502 149.343 148.213 148.024 146.842 146.629 
145.447 145.261 144.176 144.032 143.082 142.952 153.642 152.681 152.579 
151.528 151.377 150.281 150.103 148.975 148.766 147.602 147.376 146.218 
146.002 144.902 144.699 143.699 143.532 155.331 154.494 154.426 153.473 
153.334 152.289 152.101 151.01 150.785 149.669 149.414 148.286 148.028 
146.903 146.657 145.553 145.339 144.317 144.176 144.901 146.122 145.825 
146.548 147.463 147.143 147.902 147.604 148.409 148.845 148.526 149.307 
149.003 149.829 149.534 150.385 150.261 149.95 150.788 150.464 151.343 
151.012 151.904 151.573 152.47 151.679 151.41 152.323 152.012 152.963 
152.618 153.568 153.185 154.101 153.717 154.611 153.033 152.837 153.795 
153.551 154.521 154.245 155.205 154.873 155.769 155.38 156.219 155.834 
156.648 154.269 154.156 155.124 154.96 155.902 155.708 156.627 156.401 
157.252 156.952 157.72 157.376 158.119 157.776 158.493 155.331 155.312 
156.268 156.194 157.103 156.976 157.843 157.688 158.498 158.288 159.002 
158.733 159.398 159.127 159.789 159.498 160.09 156.194 156.261 157.193 
157.22 158.102 158.06 158.877 158.787 159.545 159.411 160.078 159.879 
160.465 160.253 160.824 160.631 161.168 160.918 161.331 138.523 138.303 
138.121 137.556 138.238 137.964 137.354 137.129 136.458 138.302 137.94 
137.257 136.945 136.17 135.908 135.186 138.436 138.011 137.256 136.864 
136.035 135.653 134.862 134.657 134.152 138.552 138.121 137.35 136.91 
136.127 135.644 134.868 134.467 133.899 133.788 133.52 138.673 138.232 
137.503 137.053 136.355 135.869 135.162 134.644 133.992 133.647 133.216 
133.199 133.023 138.941 138.446 137.789 137.287 136.644 136.162 135.505 
134.99 134.29 133.81 133.218 132.97 132.666 132.737 132.727 139.357 
138.841 138.259 137.702 137.115 136.56 135.945 135.372 134.695 134.127 
133.51 133.081 132.723 132.557 132.525 132.625 132.808 139.786 139.307 
138.775 138.244 137.721 137.15 136.612 135.963 135.363 134.668 134.117 
133.526 133.207 132.832 132.792 132.651 132.804 132.862 133.085 138.545 
137.542 138.128 138.37 136.406 137.063 137.291 138.011 138.424 135.174 
135.844 136.084 136.874 137.339 138.169 138.72 134.227 134.72 134.966 
135.66 136.141 137.03 137.663 138.524 139.068 133.674 134.018 134.261 
134.716 135.13 135.86 136.507 137.421 138.077 138.862 139.322 133.263 
133.592 133.89 134.215 134.589 135.048 135.633 136.362 137.092 137.893 
138.507 139.151 139.619 133.028 133.276 133.666 133.95 134.386 134.701 
135.258 135.732 136.444 137.076 137.782 138.413 139.01 139.572 140.134 
133.089 133.207 133.615 133.825 134.292 134.568 135.12 135.496 136.154 
136.629 137.31 137.832 138.467 139.015 139.634 140.191 140.806 133.293 
133.35 133.7 133.848 134.257 134.491 134.987 135.339 135.947 136.387 
137.031 137.48 138.093 138.559 139.173 139.7 140.322 140.87 141.438 
139.19 139.063 139.466 140.237 139.166 139.446 140.225 140.613 141.461 
139.471 139.661 140.433 140.717 141.593 141.949 142.872 139.766 139.973 
140.711 140.981 141.841 142.169 143.099 143.445 144.362 139.93 140.168 
140.847 141.182 142 142.388 143.261 143.644 144.492 144.865 145.668 
140.176 140.316 140.952 141.244 142.032 142.452 143.298 143.718 144.509 
144.901 145.666 146.061 146.851 140.714 140.709 141.354 141.457 142.225 
142.508 143.37 143.741 144.571 144.919 145.706 146.061 146.887 147.283 
148.155 141.409 141.374 142.033 142.018 142.736 142.84 143.657 143.904 
144.766 145.064 145.905 146.199 147.038 147.372 148.23 148.619 149.443 
142.009 142.043 142.668 142.692 143.329 143.388 144.087 144.252 145.039 
145.306 146.136 146.438 147.258 147.563 148.363 148.696 149.459 149.817 
150.496 144.33 143.646 143.58 142.8 143.077 142.951 142.161 142.075 
141.28 142.601 142.433 141.621 141.474 140.646 140.539 139.681 142.167 
141.977 141.14 140.952 140.124 139.966 139.152 138.975 138.139 141.795 
141.575 140.762 140.517 139.714 139.509 138.765 138.566 137.822 137.571 
136.834 141.538 141.28 140.536 140.238 139.474 139.195 138.46 138.236 
137.513 137.298 136.563 136.35 135.686 141.421 141.117 140.422 140.099 
139.371 139.044 138.292 137.988 137.222 136.972 136.227 136.034 135.36 
135.226 134.685 141.447 141.088 140.404 140.041 139.332 138.984 138.263 
137.898 137.143 136.772 136.045 135.751 135.144 134.947 134.466 134.339 
133.975 141.571 141.179 140.498 140.082 139.38 138.992 138.319 137.938 
137.263 136.834 136.162 135.745 135.177 134.871 134.446 134.239 133.902 
133.766 133.506 
POINT_DATA 1002
SCALARS Distance double
LOOKUP_TABLE default
141.054 140.237 140.889 141.729 141.512 142.005 142.443 142.321 142.763 
143.243 143.412 143.437 143.683 144.215 144.899 144.535 144.551 144.821 
145.394 146.102 146.845 145.473 145.423 145.934 146.651 147.402 148.136 
148.839 146.318 146.204 146.918 147.82 148.681 149.446 150.181 150.824 
147.347 147.037 148.019 148.976 149.936 150.779 151.564 152.251 152.771 
148.521 147.942 149.301 150.232 151.205 152.126 152.968 153.674 154.192 
154.554 149.696 148.935 150.576 151.508 152.469 153.427 154.316 155.043 
155.551 155.886 156.114 139.849 140.509 139.423 140.194 139.103 141.229 
140.094 138.98 141.113 142.238 140.115 138.901 141.167 142.252 143.513 
139.995 138.727 141.214 142.283 143.568 144.735 139.755 138.556 141.167 
142.364 143.608 144.953 145.737 139.623 138.519 141.125 142.524 143.736 
145.103 146.107 146.493 139.691 138.656 141.14 142.63 143.87 145.163 
146.314 146.795 147.105 139.903 138.943 141.192 142.592 143.857 145.152 
146.423 147.093 147.291 147.823 139.904 141.01 141.037 142.155 142.316 
142.296 143.47 143.8 143.397 143.607 145.015 145.252 144.823 144.885 
145.056 146.403 146.447 146.311 146.453 146.66 146.611 147.688 147.679 
147.531 147.613 147.997 148.034 147.573 149.198 149.047 148.992 148.639 
148.669 148.828 148.465 147.783 150.571 150.213 150.638 150.185 149.603 
149.379 149.206 148.712 148.159 151.496 151.106 151.824 151.734 151.124 
150.49 150.207 149.995 149.613 149.216 150.624 151.04 152.647 151.44 
153.22 154.847 151.654 153.658 155.57 157.175 151.803 153.866 156.126 
157.975 159.477 152.245 154.082 156.481 158.611 160.243 161.601 152.786 
154.383 156.73 159.066 160.858 162.324 163.484 152.894 154.399 156.716 
159.257 161.263 162.858 164.18 165.008 152.589 154.059 156.3 158.967 
161.245 163.017 164.526 165.611 166.128 152.226 153.679 155.74 158.268 
160.671 162.634 164.302 165.666 166.533 166.903 151.597 153.731 152.615 
156.079 154.898 153.676 158.536 157.399 156.103 154.739 160.849 159.841 
158.581 157.159 155.711 162.861 162.005 160.863 159.483 158.001 156.503 
164.444 163.731 162.811 161.598 160.165 158.614 157.039 165.611 164.962 
164.241 163.276 162.017 160.545 158.939 157.345 166.527 165.933 165.282 
164.459 163.341 162.029 160.58 159.029 157.511 167.288 166.911 167.329 
167.018 166.829 166.326 166.612 166.126 166.462 165.554 165.944 165.822 
166.059 165.476 164.416 165.344 165.59 165.238 164.89 164.005 163.027 
164.567 164.759 164.261 163.951 163.319 162.472 161.623 163.539 163.607 
163.238 162.928 162.5 161.833 161.071 160.165 162.566 162.604 162.281 
161.958 161.623 161.112 160.435 159.629 158.634 161.672 161.686 161.388 
161.026 160.696 160.271 159.673 158.963 158.124 157.142 167.162 167.338 
166.772 166.599 165.789 166.935 165.389 164.627 165.911 166.118 164.294 
163.501 164.874 165.359 165.747 163.343 162.293 164.134 164.846 165.573 
165.935 162.211 160.996 163.29 164.219 165.102 165.669 165.524 160.848 
159.67 162.024 163.095 164.014 164.62 164.691 164.278 159.369 158.282 
160.492 161.564 162.487 163.121 163.345 163.26 163.017 157.851 156.853 
158.897 159.91 160.793 161.467 161.851 161.997 162.049 161.989 151.521 
152.972 152.197 154.012 152.987 154.884 154.968 153.733 156.151 157.229 
155.739 154.464 157.118 158.455 159.679 156.505 155.217 157.924 159.421 
160.781 161.891 157.244 155.912 158.646 160.224 161.723 162.901 163.788 
157.812 156.426 159.162 160.673 162.266 163.581 164.598 165.363 158.144 
156.716 159.49 160.86 162.333 163.701 164.865 165.881 166.514 150.171 
150.561 149.139 149.494 148.07 151.098 148.373 146.965 149.923 151.751 
147.205 145.837 148.748 150.529 152.485 146.053 144.808 147.537 149.313 
151.24 153.227 145.058 143.981 146.347 148.023 149.924 151.883 153.922 
144.243 143.298 145.309 146.77 148.585 150.508 152.494 154.539 143.512 
142.638 144.431 145.673 147.338 149.229 151.154 153.092 154.999 142.804 