# vtk DataFile Version 4.0
vtk output
ASCII
DATASET POLYDATA
POINTS 1002 float
-73.5662 -105.007 53.4946 -73.9786 -103.878 52.8998 -74.7228 -104.185 53.2156 
-74.3011 -105.423 53.8364 -75.4635 -104.545 53.6985 -73.0392 -106.372 54.3055 
-74.9533 -105.911 54.3061 -76.0342 -104.992 54.3439 -73.6919 -106.871 54.7034 
-72.6195 -107.785 55.4718 -75.3346 -106.508 54.889 -76.3199 -105.639 55.153 
-74.1936 -107.563 55.1003 -73.1481 -108.471 55.9082 -72.3949 -109.329 56.8384 
-75.461 -107.283 55.567 -76.4421 -106.528 56.0641 -74.4711 -108.466 55.4598 
-73.5077 -109.533 56.2093 -72.7934 -110.329 57.304 -72.1482 -111.234 58.1057 
-75.6219 -108.255 56.0908 -76.6312 -107.504 56.6891 -74.6895 -109.507 55.7808 
-73.8145 -110.796 56.4125 -73.1077 -111.666 57.6182 -72.5192 -112.453 58.5882 
-71.8303 -113.447 59.1433 -75.9667 -109.309 56.108 -76.8924 -108.499 56.5853 
-75.0694 -110.57 56.0003 -74.223 -111.956 56.702 -73.523 -112.987 57.9104 
-72.9517 -113.804 58.9555 -72.3373 -114.729 59.6456 -71.6838 -115.656 60.1726 
-76.2844 -110.403 55.8054 -77.0555 -109.58 56.006 -75.5399 -111.589 56.2004 
-74.7539 -112.934 57.2205 -74.0478 -114.07 58.4251 -73.4921 -115.031 59.3941 
-72.9434 -116.018 60.1338 -72.3385 -116.91 60.8195 -71.7842 -117.587 61.4442 
-76.4527 -111.535 55.8136 -77.0964 -110.686 55.6634 -75.9099 -112.609 56.664 
-75.2992 -113.861 57.9531 -74.6498 -115.046 59.147 -74.0926 -116.099 60.0469 
-73.5898 -117.146 60.8062 -73.0501 -118.065 61.562 -72.5093 -118.714 62.2769 
-72.0205 -119.192 62.828 -76.6274 -112.632 56.3906 -77.1424 -111.735 55.8775 
-76.241 -113.626 57.4863 -75.8118 -114.788 58.8023 -75.2941 -116.008 59.8798 
-74.7791 -117.11 60.7367 -74.2933 -118.11 61.6105 -73.7933 -119.001 62.4626 
-73.2836 -119.67 63.1738 -72.7906 -120.156 63.7162 -72.3118 -120.57 64.0821 
-74.7012 -103.192 52.4219 -75.4938 -103.416 52.8867 -75.3989 -102.724 51.7173 
-76.2733 -102.85 52.369 -76.2913 -102.444 50.7264 -76.2873 -103.684 53.57 
-77.2673 -102.515 51.5578 -77.4142 -102.197 49.6751 -77.164 -103.016 53.2829 
-76.9334 -104.174 54.3661 -78.3433 -102.299 50.5755 -78.4969 -101.774 48.8734 
-78.1676 -102.658 52.6456 -77.9523 -103.6 54.0876 -77.3444 -105.069 55.2132 
-79.3428 -101.911 49.6734 -79.4846 -101.074 48.344 -79.1279 -102.511 51.7359 
-78.9922 -103.274 53.4329 -78.524 -104.655 54.7336 -77.5838 -106.141 56.1725 
-80.397 -101.216 48.958 -80.4467 -100.323 47.8287 -80.1367 -102.221 50.8243 
-79.9567 -103.078 52.712 -79.6225 -104.232 53.9894 -78.8182 -105.742 55.6092 
-77.7781 -107.126 56.8839 -81.2899 -100.619 48.2474 -81.1317 -99.9522 47.1279 
-81.1648 -101.755 49.9458 -80.9534 -102.871 52.0257 -80.5937 -103.926 53.4566 
-79.9318 -105.32 54.8357 -78.9999 -106.805 56.4923 -77.9595 -108.147 56.8464 
-81.6504 -100.599 47.3788 -81.3639 -100.167 46.2935 -81.738 -101.574 48.9165 
-81.692 -102.752 51.0661 -81.3978 -103.834 52.9225 -80.8591 -105.113 54.2805 
-80.1773 -106.586 55.8771 -79.2135 -107.915 56.8221 -78.0463 -109.22 56.3168 
-81.6099 -101.143 46.4826 -81.3345 -100.835 45.516 -81.7793 -101.91 47.8131 
-81.8941 -102.939 49.7906 -81.7913 -103.95 51.9489 -81.4528 -105.115 53.6776 
-81.0896 -106.496 55.2846 -80.4654 -107.738 56.5607 -79.2947 -108.875 56.6014 
-77.9982 -110.223 55.9221 -81.4389 -101.907 45.4456 -81.6166 -102.437 46.5469 
-81.5226 -103.269 45.7086 -81.6888 -103.95 47.04 -81.6093 -104.793 46.4064 
-81.7835 -103.312 48.1929 -81.7691 -105.536 47.871 -81.5806 -106.404 47.2637 
-81.8097 -104.812 48.8741 -81.8441 -104.247 50.3906 -81.6062 -107.1 48.824 
-81.2719 -107.837 48.2661 -81.7783 -106.429 49.7107 -81.761 -105.778 51.0832 
-81.6882 -105.305 52.6021 -81.0568 -108.377 50.0247 -80.5996 -108.988 49.6413 
-81.5088 -107.961 50.6464 -81.7389 -107.512 51.7956 -81.7382 -106.974 53.3279 
-81.5726 -106.622 54.5815 -80.2628 -109.719 51.2793 -79.7692 -110.438 50.9854 
-80.8845 -109.197 51.6762 -81.4452 -108.93 52.4133 -81.7175 -108.549 53.7353 
-81.7014 -108.062 55.1921 -81.3004 -107.798 56.14 -79.5388 -111.758 52.135 
-79.0988 -112.354 51.976 -80.0843 -110.872 52.5165 -80.6249 -110.191 53.0115 
-80.9656 -109.814 53.78 -81.0727 -109.354 54.9357 -80.8834 -108.919 56.0116 
-80.243 -108.808 56.536 -78.9977 -113.94 52.9619 -78.6126 -114.017 53.0699 
-79.4155 -113.244 53.2381 -79.7349 -112.184 53.7459 -79.8282 -111.422 54.186 
-79.7669 -110.977 54.6691 -79.6505 -110.503 55.3557 -79.3361 -110.17 55.9174 
-78.7221 -110.148 56.0572 -78.5457 -115.416 54.2926 -78.1815 -115.07 54.5479 
-78.9353 -115.353 54.3335 -79.2063 -114.643 54.7465 -79.198 -113.712 55.1902 
-78.9495 -113.109 55.3957 -78.6681 -112.711 55.5786 -78.4235 -112.277 55.888 
-78.0872 -111.956 56.0889 -77.6185 -111.82 56.0372 -77.0503 -113.448 57.0285 
-77.4879 -113.788 57.185 -77.3708 -115.354 58.8988 -77.8895 -114.217 57.2103 
-77.834 -115.92 59.0268 -77.7804 -117.281 60.6358 -78.2626 -114.664 57.095 
-78.2916 -116.426 59.0653 -78.2156 -117.865 60.7522 -78.0293 -119.151 62.1679 
-78.6786 -115.037 56.9731 -78.847 -116.765 58.9921 -78.7573 -118.228 60.8459 
-78.4873 -119.647 62.363 -78.3869 -120.945 64.0125 -79.0401 -115.533 56.8214 
-79.3433 -117.216 58.7375 -79.4038 -118.609 60.7254 -79.0971 -120.049 62.5034 
-78.9653 -121.456 64.269 -78.9199 -122.6 66.0664 -79.1304 -116.287 56.4739 
-79.435 -117.953 58.3273 -79.6797 -119.373 60.2963 -79.5376 -120.738 62.3237 
-79.4459 -122.134 64.2985 -79.4531 -123.253 66.2725 -79.2412 -124.041 68.06 
-78.8846 -116.813 56.0777 -79.0988 -118.44 57.951 -79.3711 -120.047 59.8447 
-79.3743 -121.497 61.9015 -79.4073 -122.92 63.96 -79.6257 -124.117 66.0027 
-79.6041 -124.851 68.0795 -79.3015 -125.215 69.9368 -78.4466 -116.706 55.9512 
-78.5645 -118.262 57.7606 -78.8095 -120.046 59.5397 -78.8489 -121.687 61.4938 
-78.8549 -123.196 63.5057 -79.2197 -124.639 65.3919 -79.5892 -125.639 67.4371 
-79.5542 -126.061 69.5781 -79.3208 -126.125 71.4033 -78.0056 -116.235 56.09 
-78.0172 -117.746 57.7195 -78.2349 -119.64 59.2786 -78.344 -121.431 61.0419 
-78.2739 -122.914 63.0387 -78.4967 -124.424 64.8405 -79.0564 -125.8 66.5861 
-79.4164 -126.582 68.6256 -79.4176 -126.835 70.6449 -79.3065 -126.841 72.2288 
-76.7649 -114.43 58.2043 -77.1723 -116.351 60.1834 -76.4531 -115.526 59.5216 
-77.521 -118.327 61.8253 -76.8074 -117.53 61.2766 -76.0208 -116.807 60.5606 
-77.809 -120.296 63.6816 -77.1133 -119.538 63.1048 -76.3332 -118.844 62.2419 
-75.5418 -118.06 61.4155 -78.2626 -122.15 65.7795 -77.4542 -121.529 65.264 
-76.6234 -120.8 64.3818 -75.8589 -120.02 63.3534 -75.0649 -119.101 62.4572 
-78.7008 -123.672 67.8021 -77.9271 -123.322 67.2373 -76.9857 -122.756 66.4345 
-76.1395 -121.952 65.4613 -75.3762 -120.982 64.5056 -74.5571 -119.971 63.5239 
-78.9177 -124.709 69.9852 -78.3817 -124.398 69.4935 -77.5285 -124.157 68.6023 
-76.521 -123.722 67.4601 -75.6571 -122.884 66.3428 -74.8569 -121.761 65.3419 
-74.03 -120.666 64.2812 -79.0448 -125.455 71.9997 -78.6907 -124.828 72.1098 
-78.0619 -124.49 71.5865 -77.0595 -124.447 70.3047 -76.0083 -124.248 68.6069 
-75.1336 -123.472 67.0965 -74.3153 -122.322 65.888 -73.5063 -121.194 64.778 
-79.1569 -126.205 73.1736 -78.8567 -125.326 73.932 -78.3337 -124.558 74.2187 
-77.4743 -124.309 73.4922 -76.411 -124.479 71.6752 -75.4229 -124.415 69.5316 
-74.5632 -123.747 67.7399 -73.7448 -122.718 66.3298 -72.9745 -121.633 65.135 
-79.1773 -127.237 73.2082 -78.9791 -126.476 74.2747 -78.8413 -127.684 73.8259 
-78.3383 -126.832 74.8976 -77.9414 -127.924 74.1796 -78.4349 -125.418 75.2649 
-77.002 -127.09 75.0913 -76.3551 -127.842 74.2621 -77.4075 -125.847 75.743 
-77.6104 -124.604 75.5225 -75.258 -127.174 74.8944 -74.5689 -127.93 73.9339 
-75.9312 -126.397 75.474 -76.4707 -125.198 75.5133 -76.6434 -124.423 74.3525 
-73.6655 -127.377 74.2144 -73.1051 -128.482 73.2744 -74.4307 -126.672 74.8207 
-75.2389 -125.881 74.7385 -75.6848 -124.921 73.9876 -75.6535 -124.563 72.151 
-72.3748 -127.736 73.2025 -71.8866 -128.997 72.5151 -73.0877 -126.718 73.7783 
-73.9822 -126.1 73.826 -74.6441 -125.355 73.2164 -74.799 -124.731 71.9463 
-74.685 -124.405 69.8943 -71.2515 -127.94 72.2257 -70.8332 -129.027 71.6958 
-71.8617 -126.748 72.5533 -72.649 -125.999 72.6976 -73.3723 -125.449 72.3699 
-73.7292 -124.845 71.439 -73.7755 -124.372 69.8638 -73.761 -123.753 67.9555 
-70.3768 -127.84 71.309 -70.1183 -128.617 70.7024 -70.8152 -126.771 71.523 
-71.4009 -125.904 71.5464 -72.0206 -125.35 71.341 -72.496 -124.81 70.6565 
-72.7278 -124.277 69.4094 -72.8304 -123.691 67.8211 -72.9172 -122.778 66.3248 
-69.7742 -127.475 70.225 -69.6499 -127.97 69.5197 -70.0363 -126.667 70.542 
-70.4125 -125.825 70.5419 -70.8562 -125.182 70.3128 -71.3287 -124.617 69.7417 
-71.7012 -124.026 68.7147 -71.9036 -123.441 67.3848 -72.043 -122.684 66.0824 
-72.1888 -121.658 65.0046 -79.1176 -127.402 71.7789 -78.8537 -127.915 72.6289 
-78.4358 -127.612 71.1175 -78.0301 -128.209 71.8871 -77.3984 -127.529 70.2662 
-78.3808 -128.439 73.1417 -76.9919 -128.203 70.8022 -76.4544 -127.363 69.1616 
-77.4524 -128.81 72.2497 -77.2848 -128.594 73.3725 -76.0925 -128.081 69.3243 
-75.7487 -127.211 67.8437 -76.3696 -128.861 70.8431 -76.2306 -129.02 72.2409 
-75.5493 -128.533 73.2564 -75.2368 -127.898 67.7291 -75.0719 -126.955 66.4218 
-75.3397 -128.699 69.0451 -75.1212 -129.102 70.5961 -74.5839 -129.107 71.9662 
-73.8672 -128.913 72.8268 -74.3524 -127.479 66.2411 -74.3941 -126.406 65.0017 
-74.3128 -128.371 67.3429 -74.1327 -128.892 68.6536 -73.7232 -129.203 70.1957 
-73.171 -129.53 71.4585 -72.5203 -129.575 72.2194 -73.6333 -126.717 64.8422 
-73.7927 -125.609 63.6662 -73.4442 -127.738 65.9317 -73.276 -128.511 66.9303 
-72.9965 -129.038 68.096 -72.5047 -129.534 69.4378 -71.8836 -129.932 70.6395 
-71.2833 -129.802 71.4245 -73.087 -125.826 63.4664 -73.2461 -124.769 62.4397 
-72.851 -126.841 64.5722 -72.6338 -127.836 65.5134 -72.3775 -128.728 66.2806 
-71.8914 -129.363 67.207 -71.2454 -129.731 68.4191 -70.7054 -129.802 69.6066 
-70.3529 -129.417 70.4056 -72.5989 -124.96 62.1774 -72.7557 -123.942 61.3382 
-72.3857 -125.913 63.1555 -72.1602 -126.921 64.0805 -71.8902 -128.024 64.7739 
[...]
CELL_DATA 2000
SCALARS Distance double
LOOKUP_TABLE default
137.601 138.415 138.166 138.559 139.296 139.028 139.427 139.207 139.723 
140.202 139.917 140.332 140.111 140.651 140.483 141.165 141.186 140.831 
141.253 141.04 141.659 141.49 142.242 142.084 142.911 142.248 141.838 
142.242 142.012 142.726 142.585 143.45 143.275 144.17 143.964 144.85 
143.216 142.866 143.275 143.06 143.837 143.733 144.701 144.559 145.521 
145.307 146.237 145.986 146.889 144.015 143.769 144.263 144.119 144.975 
144.909 145.946 145.843 146.864 146.684 147.665 147.432 148.384 148.092 
148.986 144.801 144.605 145.257 145.162 146.15 146.107 147.225 147.13 
148.205 148.042 149.076 148.879 149.881 149.62 150.538 150.197 151.012 
145.728 145.548 146.38 146.285 147.39 147.35 148.536 148.452 149.567 
149.414 150.473 150.297 151.323 151.104 152.029 151.724 152.52 152.149 
152.848 137.212 136.936 137.368 138.006 136.764 137.131 137.766 138.209 
138.886 136.754 137.037 137.66 138.023 138.727 139.146 139.842 136.806 
137.083 137.704 137.999 138.713 139.078 139.866 140.211 140.926 136.751 
137.101 137.748 138.074 138.792 139.136 139.958 140.324 141.153 141.412 
142.081 136.597 136.989 137.691 138.1 138.875 139.24 140.037 140.412 
141.264 141.64 142.394 142.577 143.094 136.45 136.826 137.564 138.037 
138.917 139.346 140.175 140.501 141.313 141.701 142.54 142.857 143.458 
143.512 143.881 136.383 136.702 137.422 137.908 138.838 139.375 140.289 
140.66 141.47 141.797 142.678 143.033 143.797 143.905 144.309 144.232 
144.563 136.479 136.694 137.373 137.782 138.679 139.25 140.201 140.703 
141.554 141.95 142.839 143.24 144.102 144.304 144.802 144.699 144.94 
144.881 145.299 136.825 137.808 137.388 137.721 139.101 138.536 138.875 
138.479 139.028 140.563 139.95 140.27 139.761 140.249 139.912 140.514 
141.929 141.406 141.727 141.204 141.633 141.188 141.728 141.39 141.929 
143.012 142.635 142.983 142.598 143.072 142.63 143.188 142.732 143.333 
142.866 143.381 144.035 143.643 143.985 143.703 144.195 143.949 144.504 
144.185 144.731 144.334 144.808 144.321 144.642 145.37 144.831 145.179 
144.726 145.117 144.869 145.292 145.172 145.517 145.394 145.616 145.427 
145.513 145.215 145.173 146.878 146.355 146.789 146.151 146.487 145.907 
146.201 145.834 146.077 145.879 146.007 145.865 145.876 145.712 145.632 
145.39 145.259 148.177 147.84 148.391 147.861 148.293 147.556 147.873 
147.099 147.396 146.742 147.032 146.495 146.735 146.258 146.437 145.976 
146.101 145.627 145.725 146.516 146.947 147.264 148.487 147.368 147.752 
149.092 149.509 150.898 147.761 148.213 149.65 150.144 151.588 151.925 
153.196 148.155 148.643 150.138 150.692 152.17 152.572 153.86 154.148 
155.398 148.625 149.094 150.629 151.185 152.701 153.132 154.472 154.798 
156.113 156.426 157.753 149.146 149.6 151.115 151.675 153.207 153.678 
155.075 155.439 156.82 157.167 158.554 158.827 160.053 149.457 149.992 
151.343 152.011 153.441 154.078 155.435 155.962 157.306 157.8 159.173 
159.579 160.817 161.019 162.006 149.365 150.001 151.106 151.912 153.165 
154.025 155.271 156.044 157.245 157.98 159.226 159.925 161.124 161.61 
162.591 162.786 163.536 149.006 149.645 150.575 151.401 152.538 153.495 
154.693 155.609 156.714 157.577 158.668 159.582 160.7 161.543 162.517 
163.079 163.807 164.068 164.607 146.595 148.658 147.513 147.478 151.047 
149.829 149.798 148.592 148.599 153.339 152.217 152.202 151.001 150.974 
149.778 149.755 155.628 154.521 154.594 153.397 153.387 152.166 152.11 
150.895 150.791 158.021 156.923 157.09 155.868 155.898 154.614 154.566 
153.284 153.172 151.894 151.729 160.25 159.29 159.475 158.373 158.411 
157.158 157.081 155.772 155.634 154.316 154.116 152.807 152.577 162.128 
161.336 161.49 160.588 160.636 159.561 159.469 158.242 158.05 156.751 
156.481 155.164 154.837 153.559 153.23 163.646 163.018 163.135 162.398 
162.436 161.574 161.492 160.461 160.244 159.06 158.725 157.444 157.024 
155.733 155.295 154.07 153.664 164.77 164.343 164.437 163.857 163.845 
163.16 163.04 162.233 161.982 161.024 160.648 159.533 159.055 157.827 
157.307 156.066 155.572 154.395 153.95 165.293 165.87 165.448 165.02 
166.076 165.885 165.462 165.018 164.424 165.682 165.826 165.45 165.277 
164.695 164.285 163.586 164.857 165.185 164.934 165.055 164.557 164.371 
163.681 163.307 162.51 164.097 164.324 164.114 164.395 164.039 164.079 
163.441 163.229 162.435 162.09 161.187 163.518 163.612 163.229 163.503 
163.164 163.418 162.872 162.854 162.075 161.869 160.978 160.64 159.624 
162.842 162.951 162.367 162.551 162.067 162.405 161.911 162.123 161.407 
161.377 160.497 160.304 159.314 158.97 157.882 161.935 162.143 161.524 
161.639 161.03 161.274 160.755 161.053 160.421 160.562 159.727 159.693 
158.733 158.547 157.498 157.176 156.108 160.83 161.16 160.612 160.768 
160.133 160.281 159.695 159.926 159.315 159.513 158.738 158.812 157.895 
157.851 156.858 156.691 155.668 155.406 154.425 165.388 165.325 165.648 
165.975 164.709 165.375 165.871 166.146 166.233 163.738 164.59 165.213 
165.827 166.025 166.156 165.855 162.679 163.545 164.158 164.974 165.274 
165.711 165.495 165.507 165.006 161.575 162.429 162.922 163.784 164.08 
164.755 164.708 165.011 164.712 164.694 164.318 160.316 161.21 161.591 
162.449 162.669 163.439 163.488 164.084 164.027 164.354 164.206 164.189 
163.874 158.892 159.817 160.149 161.028 161.231 162.014 162.095 162.8 
162.836 163.468 163.451 163.864 163.655 163.682 163.217 157.438 158.332 
158.634 159.525 159.76 160.586 160.735 161.461 161.518 162.188 162.158 
162.79 162.622 163.075 162.684 162.799 162.215 156.055 156.885 157.15 
158.005 158.236 159.1 159.296 160.105 160.198 160.885 160.813 161.416 
161.211 161.786 161.465 161.911 161.432 161.621 161.01 149.036 149.661 
149.732 150.634 150.563 150.564 151.59 151.588 152.667 151.551 151.6 
152.74 152.73 153.862 153.801 154.87 152.466 152.572 153.725 153.844 
154.981 155.009 156.032 155.954 156.882 153.379 153.473 154.562 154.708 
155.825 155.98 157.028 157.052 157.997 157.905 158.827 154.206 154.363 
155.435 155.54 156.629 156.768 157.881 157.987 159.036 159.022 160.024 
159.922 160.88 154.798 155.079 156.175 156.374 157.446 157.596 158.679 
158.825 159.885 159.99 160.993 161.041 161.996 161.937 162.731 155.231 
155.565 156.649 156.978 158.051 158.32 159.345 159.556 160.516 160.699 
161.602 161.791 162.668 162.824 163.599 163.565 164.078 155.584 155.929 
156.952 157.34 158.385 158.767 159.773 160.082 160.991 161.215 162.048 
162.252 163.076 163.303 164.083 164.223 164.797 164.687 164.954 148.236 
147.179 148.038 148.767 146.041 146.94 147.657 148.625 149.518 144.847 
145.747 146.429 147.44 148.29 149.4 150.397 143.712 144.542 145.165 
146.152 146.971 148.098 149.086 150.275 151.322 142.716 143.462 144.046 
144.92 145.694 146.758 147.733 148.934 150.019 151.218 152.268 141.809 
142.525 143.109 143.884 144.592 145.528 146.427 147.567 148.61 149.86 
150.918 152.127 153.082 140.954 141.645 142.232 142.981 143.632 144.469 
145.251 146.273 147.218 148.414 149.432 150.686 151.657 152.844 153.687 
140.223 140.824 141.377 142.094 142.712 143.501 144.203 145.116 145.972 
147.053 148.033 149.217 150.207 151.393 152.303 153.409 154.186 139.66 
140.146 140.628 141.258 141.839 142.576 143.243 144.08 144.877 145.855 
146.787 147.884 148.86 150 150.933 152.049 152.884 153.915 154.614 
139.515 139.56 139.825 140.454 139.661 139.928 140.631 140.891 141.647 
139.88 140.126 140.918 141.156 141.991 142.222 143.081 140.198 140.43 
141.292 141.534 142.461 142.68 143.637 143.807 144.766 140.599 140.807 
141.711 141.963 142.973 143.229 144.287 144.477 145.532 145.651 146.693 
141.109 141.284 142.24 142.458 143.543 143.805 144.955 145.181 146.305 
146.466 147.568 147.675 148.745 141.689 141.866 142.886 143.085 144.224 
144.463 145.679 145.908 147.084 147.255 148.383 148.534 149.65 149.753 
150.8 142.295 142.485 143.547 143.772 144.927 145.181 146.409 146.668 
147.887 148.075 149.227 149.364 150.495 150.63 151.72 151.788 152.755 
142.927 143.11 144.175 144.423 145.57 145.85 147.053 147.358 148.595 
148.866 150.058 150.232 151.355 151.481 152.556 152.661 153.635 153.662 
154.49 143.616 145.146 144.545 144.921 146.876 146.219 146.679 145.982 
146.383 148.891 148.131 148.696 147.901 148.356 147.536 147.926 151.164 
150.312 150.911 150.055 150.557 149.653 150.064 149.158 149.522 153.443 
152.607 153.129 152.284 152.767 151.895 152.323 151.396 151.759 150.792 
151.057 155.518 154.783 155.261 154.443 154.893 154.062 154.509 153.642 
154.019 153.063 153.308 152.269 152.394 157.349 156.747 157.275 156.524 
156.995 156.182 156.656 155.814 156.214 155.286 155.515 154.493 154.579 
153.519 153.556 158.942 158.49 159.061 158.448 158.917 158.215 158.663 
157.916 158.29 157.43 157.612 156.625 156.648 155.625 155.601 154.592 
154.568 160.234 159.963 160.551 160.101 160.536 159.965 160.32 159.72 
160.008 159.325 159.443 158.591 158.536 157.581 157.477 156.52 156.424 
155.48 155.376 143.152 142.905 143.546 144.611 142.523 143.265 144.343 
145.047 146.239 141.989 142.836 144 144.764 145.998 146.769 148.165 
141.556 142.386 143.702 144.468 145.808 146.574 148.072 148.893 150.47 
141.384 142.17 143.618 144.32 145.726 146.448 148.01 148.867 150.56 
151.342 152.872 141.26 142.101 143.602 144.333 145.688 146.379 147.866 
148.775 150.492 151.42 153.019 153.689 154.995 141.08 141.92 143.382 
144.223 145.508 146.242 147.577 148.51 150.166 151.24 152.884 153.735 
155.075 155.666 156.791 141.004 141.7 143.053 143.894 145.171 145.944 
147.2 148.1 149.656 150.789 152.463 153.483 154.881 155.623 156.763 
157.341 158.352 141.067 141.613 142.832 143.575 144.855 145.609 146.864 
147.683 149.113 150.187 151.797 152.939 154.384 155.306 156.46 157.176 
158.164 158.762 159.623 142.194 140.717 141.618 141.934 139.176 140.109 
140.369 141.293 141.522 137.421 138.46 138.71 139.687 139.841 140.752 
140.905 135.499 136.541 136.83 137.961 138.216 139.119 139.208 140.084 
140.338 133.833 134.609 134.8 135.981 136.449 137.553 137.809 138.561 
138.676 139.578 140.01 132.651 133.116 133.074 133.983 134.412 135.698 
136.225 137.231 137.403 138.096 138.269 139.282 139.816 131.757 132.091 
131.937 132.455 132.601 133.649 134.172 135.461 135.887 136.822 136.986 
137.741 138.072 139.134 139.738 131.015 131.312 131.235 131.526 131.527 
132.084 132.384 133.423 133.966 135.139 135.602 136.514 136.906 137.709 
138.252 139.219 139.865 130.435 130.699 130.747 130.986 131.07 131.321 
131.524 132.03 132.49 133.385 134.038 135.08 135.73 136.643 137.25 
138.055 138.667 139.509 140.101 130.171 130.049 130.243 130.555 130.23 
130.278 130.652 130.735 131.011 130.756 130.627 131.034 131.012 131.354 
131.27 131.533 131.556 131.262 131.623 131.525 131.943 131.795 132.098 
131.921 132.372 132.553 132.117 132.382 132.182 132.632 132.491 132.889 
132.645 133.083 132.987 133.758 133.664 133.15 133.328 132.997 133.409 
133.243 133.721 133.508 133.981 133.8 134.51 134.563 135.493 134.754 
134.256 134.392 133.979 134.32 134.081 134.573 134.379 134.881 134.696 
135.345 135.339 136.213 136.314 137.157 135.754 135.313 135.464 135.041 
135.344 135.036 135.512 135.288 135.819 135.607 136.209 136.131 136.918 
137.006 137.841 137.892 138.596 136.698 136.301 136.503 136.107 136.425 
136.085 136.548 136.283 136.841 136.601 137.206 137.025 137.731 137.701 
138.485 138.538 139.266 139.274 139.937 137.286 138.265 137.557 137.171 
139.489 138.679 138.339 137.54 137.19 140.974 140.058 139.771 138.862 
138.539 137.667 137.365 142.711 141.692 141.421 140.416 140.104 139.136 
138.836 137.938 137.678 144.632 143.546 143.289 142.183 141.881 140.807 
140.531 139.528 139.285 138.334 138.101 146.674 145.554 145.354 144.177 
143.921 142.731 142.488 141.362 141.153 140.08 139.856 138.828 138.638 
148.765 147.656 147.519 146.338 146.146 144.907 144.683 143.454 143.226 
142.051 141.798 140.675 140.431 139.421 139.298 150.784 149.748 149.644 
148.524 148.369 147.173 146.959 145.708 145.435 144.182 143.871 142.662 
142.358 141.249 141.039 140.097 140.012 152.63 151.703 151.62 150.596 
150.455 149.349 149.148 147.954 147.678 146.409 146.081 144.796 144.48 
143.252 143.009 141.904 141.76 140.81 140.726 141.462 142.608 142.394 
143.217 143.936 143.679 144.591 144.343 145.238 145.439 145.137 146.12 
145.83 146.778 146.433 147.304 147.06 146.733 147.752 147.441 148.441 
148.068 149.013 148.594 149.584 148.678 148.388 149.434 149.125 150.155 
149.783 150.774 150.377 151.44 151.065 152.204 150.154 149.961 151.031 
150.794 151.859 151.529 152.543 152.16 153.215 152.892 154.022 153.708 
154.746 151.458 151.357 152.438 152.305 153.394 153.184 154.229 153.917 
154.933 154.615 155.66 155.391 156.38 156.048 156.84 152.613 152.591 
153.68 153.627 154.716 154.616 155.671 155.494 156.473 156.224 157.137 
156.891 157.76 157.517 158.284 157.938 158.545 153.599 153.665 154.754 
154.79 155.871 155.85 156.881 156.802 157.742 157.59 158.389 158.184 
158.88 158.701 159.368 159.193 159.802 159.5 159.98 135.951 135.796 
135.579 134.989 135.823 135.488 134.802 134.521 133.86 135.954 135.556 
134.837 134.416 133.678 133.402 132.869 136.104 135.699 134.976 134.512 
133.774 133.359 132.756 132.541 132.097 136.159 135.806 135.064 134.639 
133.899 133.498 132.86 132.533 131.936 131.716 131.133 136.132 135.813 
135.084 134.687 133.928 133.565 132.89 132.586 131.899 131.578 130.841 
130.618 130.065 136.18 135.83 135.187 134.759 134.048 133.614 132.93 
132.569 131.882 131.516 130.772 130.419 129.835 129.704 129.506 136.374 
135.984 135.432 134.985 134.37 133.861 133.213 132.717 132.075 131.601 
130.962 130.499 129.989 129.678 129.494 129.453 129.573 136.66 136.254 
135.745 135.312 134.763 134.267 133.666 133.121 132.522 131.972 131.443 
130.906 130.514 130.06 129.905 129.651 129.746 129.71 129.94 136.002 
135.007 135.647 135.986 133.886 134.564 134.926 135.709 136.252 132.947 
133.506 133.909 134.652 135.248 136.065 136.687 132.159 132.681 133.088 
133.757 134.362 135.11 135.748 136.508 137.048 131.136 131.781 132.129 
132.914 133.496 134.275 134.876 135.6 136.144 136.831 137.275 130.123 
130.679 131.014 131.819 132.423 133.315 133.955 134.736 135.293 135.976 
136.489 137.1 137.533 129.679 129.935 130.335 130.857 131.511 132.272 
133.022 133.813 134.479 135.179 135.775 136.403 136.953 137.472 137.918 
129.77 129.823 130.23 130.485 131.103 131.606 132.375 133.029 133.785 
134.444 135.122 135.755 136.391 136.962 137.51 137.946 138.375 130.087 
130.054 130.393 130.516 131.03 131.362 132.054 132.564 133.324 133.89 
134.598 135.172 135.834 136.42 137.031 137.549 138.046 138.436 138.84 
136.569 136.67 136.898 137.575 137.014 137.155 137.861 138.052 138.849 
137.441 137.582 138.287 138.425 139.192 139.426 140.29 137.733 137.948 
138.612 138.812 139.536 139.779 140.602 140.88 141.676 137.877 138.119 
138.72 138.999 139.678 140.016 140.819 141.162 141.937 142.173 142.802 
138.048 138.218 138.764 139.024 139.667 140.042 140.833 141.272 142.072 
142.394 143.044 143.218 143.82 138.351 138.421 138.928 139.102 139.729 
140.034 140.805 141.23 142.052 142.455 143.177 143.445 144.112 144.312 
145.066 138.765 138.77 139.262 139.351 139.977 140.182 140.932 141.251 
142.053 142.429 143.198 143.543 144.278 144.578 145.355 145.642 146.468 
139.233 139.218 139.723 139.762 140.392 140.518 141.245 141.453 142.208 
142.489 143.247 143.58 144.351 144.704 145.494 145.844 146.63 146.967 
147.713 142.05 141.385 141.322 140.567 140.78 140.665 139.848 139.813 
139.032 140.228 140.075 139.209 139.097 138.228 138.198 137.304 139.747 
139.551 138.669 138.479 137.574 137.435 136.529 136.428 135.504 139.365 
139.123 138.258 138 137.128 136.892 136.062 135.838 135.028 134.795 
134.015 139.093 138.811 137.991 137.681 136.87 136.575 135.816 135.538 
134.797 134.51 133.782 133.519 132.872 138.965 138.643 137.898 137.529 
136.774 136.425 135.7 135.385 134.634 134.323 133.536 133.281 132.569 
132.423 131.868 138.966 138.638 137.994 137.577 136.874 136.44 135.734 
135.343 134.608 134.214 133.409 133.042 132.281 132.064 131.48 131.43 
131.022 138.998 138.715 138.168 137.775 137.135 136.652 135.96 135.477 
134.777 134.3 133.555 133.058 132.316 131.907 131.313 131.103 130.697 
130.667 130.396 
POINT_DATA 1002
SCALARS Distance double
LOOKUP_TABLE default
137.925 137.065 137.817 138.761 138.671 138.996 139.657 139.563 139.87 
140.309 140.535 140.514 140.812 141.276 141.914 141.449 141.601 141.782 
142.389 143.067 143.757 142.471 142.677 142.812 143.592 144.375 145.073 
145.724 143.456 143.521 143.904 144.802 145.715 146.476 147.166 147.781 
144.335 144.197 145.003 146.025 147.015 147.866 148.657 149.333 149.848 
145.288 144.924 146.153 147.3 148.354 149.248 150.117 150.874 151.411 
151.778 146.437 145.826 147.419 148.604 149.707 150.643 151.53 152.324 
152.891 153.259 153.508 136.757 137.533 136.521 137.341 136.435 138.427 
137.34 136.495 138.305 139.452 137.422 136.508 138.358 139.482 140.67 
137.379 136.372 138.451 139.572 140.826 141.971 137.222 136.201 138.479 
139.701 140.842 142.13 143.088 137.059 136.092 138.415 139.864 140.964 
142.138 143.36 143.931 136.957 136.102 138.253 139.853 141.155 142.295 
143.608 144.428 144.574 137.025 136.313 138.14 139.65 141.107 142.406 
143.822 144.882 145.1 145.151 137.141 138.002 138.283 139.327 139.696 
139.302 140.83 141.166 140.659 140.793 142.227 142.4 142.13 142.12 
142.28 143.285 143.357 143.445 143.648 143.805 143.919 144.293 144.462 
144.385 144.761 145.11 145.283 145.226 145.746 145.907 145.506 145.467 
145.652 145.796 145.775 145.542 147.418 147.312 147.207 146.755 146.389 
146.199 146.036 145.828 145.534 148.793 148.429 148.964 148.713 148.16 
147.645 147.262 146.919 146.573 146.202 147.524 148.071 149.87 148.617 
150.591 152.236 149.109 151.228 152.95 154.404 149.565 151.745 153.541 
155.092 156.702 150.076 152.248 154.115 155.764 157.486 159.075 150.571 
152.704 154.674 156.443 158.257 159.923 161.166 150.7 152.763 154.86 
156.777 158.705 160.561 161.971 162.887 150.343 152.279 154.457 156.5 
158.463 160.514 162.302 163.504 164.221 149.803 151.586 153.753 155.874 
157.772 159.772 161.817 163.437 164.485 165.118 148.582 151.037 149.779 
153.38 152.191 150.956 155.783 154.622 153.353 152.025 158.288 157.203 
155.873 154.477 153.016 160.511 159.63 158.404 156.971 155.459 153.878 
162.335 161.629 160.654 159.355 157.827 156.159 154.476 163.837 163.238 
162.451 161.382 160.003 158.35 156.565 154.844 164.976 164.502 163.801 
162.878 161.699 160.253 158.567 156.79 155.085 165.787 165.585 166.241 
165.832 166.159 164.972 165.493 165.399 165.031 164.085 164.669 164.508 
164.645 163.999 162.962 163.801 163.988 163.875 163.599 162.731 161.62 
163.053 163.519 162.837 162.783 162.237 161.262 160.058 162.285 162.724 
161.767 161.599 161.353 160.635 159.599 158.291 161.422 161.659 160.868 
160.458 160.211 159.703 158.849 157.756 156.45 160.4 160.433 160.015 
159.518 159.109 158.628 157.887 156.951 155.871 154.684 165.262 165.899 
164.815 165.415 163.899 166.302 164.459 162.86 165.766 166.012 163.319 
161.86 164.699 165.361 165.117 162.113 160.757 163.337 164.21 164.561 
164.465 160.762 159.431 161.901 162.775 163.487 164.04 164.12 159.261 
157.986 160.425 161.37 162.145 162.883 163.437 163.412 157.751 156.579 
158.892 159.965 160.872 161.542 162.056 162.38 162.265 156.327 155.261 
157.374 158.444 159.481 160.245 160.655 160.927 161.093 160.941 148.881 
150.516 149.588 151.59 150.515 152.666 152.698 151.445 153.936 154.987 
153.578 152.377 154.903 156.109 157.006 154.465 153.298 155.645 156.932 
158.048 158.942 155.329 153.996 156.514 157.731 158.984 160.079 161.054 
155.915 154.485 157.283 158.546 159.765 160.91 161.994 162.944 156.295 
154.913 157.74 159.133 160.36 161.427 162.474 163.54 164.318 147.403 
147.837 146.303 146.686 145.139 148.455 145.423 143.985 147.184 149.236 
144.223 142.935 145.855 147.879 150.148 143.234 141.985 144.688 146.547 
148.78 151.131 142.362 141.085 143.738 145.359 147.381 149.672 151.955 
141.492 140.29 142.848 144.318 146.085 148.194 150.435 152.583 140.695 
139.688 141.948 143.346 144.952 146.885 149.025 151.165 153.162 140.06 
139.237 141.136 142.439 143.95 145.735 147.744 149.813 151.823 153.67 