# vtk DataFile Version 4.0
vtk output
ASCII
DATASET POLYDATA
POINTS 1002 float
-76.9807 -106.1 56.6418 -77.4394 -105.513 55.626 -78.0982 -105.823 55.8042 
-77.5975 -106.561 56.8182 -78.8189 -106.313 56.0875 -76.3774 -107.339 57.4213 
-78.2187 -107.286 56.9795 -79.4905 -106.881 56.6407 -76.8907 -108.06 57.4911 
-75.8102 -109.252 57.965 -78.6929 -108.115 57.2403 -79.914 -107.464 57.3002 
-77.2935 -109.016 57.5003 -76.1794 -110.16 58.0463 -75.4348 -111.282 58.7731 
-78.8241 -109.096 57.3892 -79.9368 -108.389 57.5599 -77.4962 -110.154 57.5401 
-76.358 -111.306 58.1157 -75.688 -112.373 58.9709 -75.1115 -113.334 59.7704 
-78.5674 -110.451 57.2238 -79.5801 -109.837 57.2481 -77.4501 -111.584 57.5219 
-76.4276 -112.803 58.1819 -75.8131 -113.812 59.1108 -75.3767 -114.711 60.0153 
-74.7141 -115.661 60.5563 -78.2227 -111.913 57.0082 -79.0602 -111.306 56.705 
-77.3458 -113.117 57.5737 -76.5136 -114.47 58.3077 -75.9776 -115.486 59.2118 
-75.6527 -116.254 60.2416 -75.1662 -117 61.0741 -74.4624 -117.769 61.5282 
-78.1474 -113.114 57.041 -78.672 -112.433 56.3677 -77.5723 -114.361 57.9067 
-76.8951 -115.798 58.7357 -76.3408 -116.881 59.5424 -76.0028 -117.637 60.5306 
-75.6438 -118.25 61.611 -75.1155 -118.785 62.4137 -74.494 -119.293 62.8618 
-78.3867 -114.192 57.3972 -78.6367 -113.425 56.5199 -78.1217 -115.403 58.4379 
-77.6499 -116.737 59.4115 -77.0615 -117.762 60.2607 -76.5641 -118.577 61.1254 
-76.14 -119.313 62.1276 -75.701 -119.839 63.0788 -75.204 -120.233 63.6957 
-74.6383 -120.629 64.0161 -78.8335 -115.292 58.0467 -78.9903 -114.453 57.1423 
-78.6897 -116.434 59.0628 -78.3936 -117.587 60.0772 -77.9131 -118.448 61.0622 
-77.3686 -119.228 61.9564 -76.8203 -120.137 62.7647 -76.3023 -120.871 63.5676 
-75.8416 -121.293 64.24 -75.3483 -121.636 64.6308 -74.7724 -121.982 64.8376 
-78.2024 -105.236 54.771 -78.9809 -105.585 54.9678 -79.0379 -104.681 54.2466 
-79.9262 -105 54.5646 -80.0116 -103.721 54.1011 -79.7883 -106.016 55.4795 
-80.9832 -104.062 54.5261 -81.0164 -102.897 53.7968 -80.7464 -105.436 55.1763 
-80.4678 -106.431 56.4088 -82.0518 -103.347 54.2997 -81.8619 -102.676 52.9028 
-81.7812 -104.701 54.9807 -81.3713 -105.919 56.121 -80.8755 -106.959 57.3788 
-82.9658 -103.058 53.5743 -82.507 -102.681 51.6023 -82.8624 -104.167 54.6697 
-82.3491 -105.502 55.648 -81.8159 -106.665 57.1726 -80.9393 -108.108 57.7793 
-83.5925 -102.911 52.3678 -82.9869 -102.532 50.2747 -83.7622 -103.861 54.0726 
-83.3306 -105.285 55.1466 -82.7869 -106.567 56.6596 -81.9991 -108.054 57.7884 
-80.5734 -109.783 57.3853 -83.8793 -102.906 50.9043 -83.3263 -102.495 49.1479 
-84.1882 -103.744 52.9275 -83.9789 -105.236 54.4545 -83.5676 -106.632 55.9771 
-82.9568 -107.963 57.4285 -81.611 -109.68 57.4509 -79.861 -111.222 56.5424 
-83.9636 -103.19 49.5898 -83.5633 -102.82 48.2873 -84.1776 -103.883 51.454 
-84.0988 -105.305 53.3252 -83.9244 -106.823 55.0377 -83.589 -107.93 56.6378 
-82.504 -109.3 57.1817 -80.7227 -110.942 56.4645 -79.2327 -112.25 55.953 
-84.0022 -103.697 48.6521 -83.6897 -103.384 47.6685 -84.0822 -104.271 50.1697 
-83.9742 -105.493 52.0388 -83.9325 -107.013 53.8942 -83.8671 -108.077 55.5386 
-83.1411 -109.013 56.4639 -81.5671 -110.442 56.2712 -79.9543 -111.962 55.7843 
-79.1019 -113.214 56.069 -83.9007 -104.226 47.7328 -84.0824 -104.706 48.8678 
-83.9548 -105.324 48.0209 -84.1044 -106.227 49.2942 -83.9432 -106.865 48.5072 
-83.9884 -105.696 50.5479 -84.1024 -107.94 49.8401 -83.7779 -108.437 49.1323 
-84.0308 -107.429 51.0795 -83.8989 -107.114 52.5177 -83.6556 -109.093 50.4136 
-83.204 -109.674 49.8514 -83.856 -108.704 51.5113 -83.8991 -108.445 52.9213 
-83.9205 -108.27 54.293 -82.6712 -110.139 51.0627 -82.3953 -111.206 50.6408 
-82.9208 -109.474 51.8472 -83.2355 -109.27 52.9886 -83.4784 -109.219 54.2507 
-83.4472 -109.083 55.4473 -81.89 -112.16 51.9786 -81.7937 -113.329 51.6564 
-81.9125 -111.05 52.4996 -82.0812 -110.506 53.2126 -82.3535 -110.438 54.0904 
-82.3925 -110.39 54.9876 -82.0705 -110.315 55.7442 -81.6785 -114.582 53.3026 
-81.4363 -115.217 53.0576 -81.7621 -113.657 53.6811 -81.7171 -112.846 54.125 
-81.627 -112.437 54.6306 -81.452 -112.259 55.13 -81.0659 -112.07 55.4878 
-80.5037 -111.947 55.666 -81.6312 -116.308 54.8201 -81.1415 -116.439 54.6179 
-82.0573 -115.961 55.0939 -82.2066 -115.409 55.4171 -81.9488 -114.8 55.7824 
-81.4476 -114.322 56.0985 -80.9079 -113.972 56.2508 -80.303 -113.664 56.2098 
-79.6453 -113.409 56.0888 -81.4377 -117.423 56.1548 -80.8619 -117.378 55.9684 
-82.055 -117.435 56.3498 -82.5083 -117.284 56.5858 -82.4869 -116.821 56.9175 
-81.9756 -116.182 57.241 -81.3593 -115.652 57.414 -80.8215 -115.284 57.4311 
-80.2083 -114.979 57.3338 -79.534 -114.696 57.1979 -79.5067 -116.045 58.6061 
-80.1783 -116.253 58.7405 -80.0326 -117.688 60.2057 -80.8209 -116.49 58.7804 
-80.6837 -117.852 60.3288 -80.4128 -119.188 61.7767 -81.2743 -116.792 58.7102 
-81.1365 -118.136 60.2449 -80.9472 -119.532 61.9081 -80.8614 -120.831 63.3861 
-81.7523 -117.255 58.5856 -81.4884 -118.545 60.0847 -81.3023 -120.053 61.8043 
-81.3271 -121.43 63.5295 -81.3982 -122.665 65.011 -82.3124 -117.92 58.3165 
-81.9887 -119.083 59.8824 -81.7953 -120.566 61.5748 -81.7602 -122.054 63.3091 
-81.8769 -123.199 65.0452 -81.7707 -124.141 66.548 -82.4912 -118.501 57.9119 
-82.2526 -119.687 59.4897 -82.2309 -121.037 61.2265 -82.2917 -122.533 62.8438 
-82.3133 -123.746 64.573 -82.3082 -124.56 66.4368 -82.0224 -125.258 67.9239 
-82.1147 -118.684 57.595 -81.9181 -120.036 59.0359 -81.9771 -121.418 60.7803 
-82.3362 -122.875 62.3851 -82.5122 -124.225 63.9037 -82.5572 -125.183 65.7993 
-82.5497 -125.899 67.7108 -82.315 -126.534 69.057 -81.5102 -118.592 57.4027 
-81.3428 -120.006 58.7221 -81.2658 -121.485 60.3769 -81.6634 -122.971 62.0487 
-82.1405 -124.436 63.4439 -82.3475 -125.649 65.0233 -82.5245 -126.588 66.9457 
-82.6506 -127.384 68.664 -82.5215 -127.923 69.864 -80.9221 -118.488 57.2132 
-80.8441 -119.847 58.4809 -80.6841 -121.288 60.0273 -80.8624 -122.745 61.7218 
-81.4044 -124.262 63.1533 -81.8149 -125.654 64.4661 -82.055 -126.801 66.0357 
-82.3572 -127.823 67.7125 -82.5565 -128.622 69.1653 -82.4436 -128.974 70.295 
-79.2932 -117.133 59.5885 -79.6609 -118.774 61.188 -79.0075 -118.261 60.577 
-80.0823 -120.266 62.8329 -79.2637 -119.767 62.1998 -78.6292 -119.13 61.6495 
-80.6737 -122.114 64.5545 -79.7167 -121.478 63.9214 -78.898 -120.717 63.3397 
-78.1889 -119.912 62.7328 -81.0706 -123.931 66.2813 -80.1889 -123.512 65.7254 
-79.3096 -122.732 65.0669 -78.5148 -121.804 64.358 -77.6597 -120.937 63.5699 
-81.2374 -125.085 67.8487 -80.4119 -124.924 67.5239 -79.674 -124.397 66.9772 
-78.9053 -123.594 66.1075 -77.9909 -122.774 65.1068 -77.0447 -121.885 64.2411 
-81.5782 -126.038 69.1377 -80.7619 -125.627 69.0346 -80.0999 -125.134 68.8509 
-79.3776 -124.517 68.1969 -78.4158 -123.939 67.018 -77.3727 -123.307 65.8099 
-76.4833 -122.404 64.8955 -82.0238 -127.236 70.1852 -81.3593 -126.406 70.2393 
-80.7459 -125.609 70.2837 -79.9925 -124.982 70.0279 -78.9352 -124.564 69.0953 
-77.7999 -124.182 67.7498 -76.7887 -123.605 66.424 -75.9676 -122.724 65.3721 
-82.1744 -128.369 70.9405 -81.7178 -127.399 71.241 -81.2115 -126.333 71.3823 
-80.484 -125.547 71.2835 -79.3873 -125.182 70.6171 -78.2003 -124.917 69.4856 
-77.1423 -124.484 68.1567 -76.1793 -123.878 66.7705 -75.3682 -123.039 65.6174 
-81.9498 -129.314 71.0111 -81.6364 -128.565 71.7604 -81.0537 -129.306 71.5023 
-80.66 -128.568 72.2153 -79.8625 -129.291 71.5381 -81.2065 -127.455 72.1661 
-79.3453 -128.695 72.0799 -78.4937 -129.463 71.2644 -80.0975 -127.516 72.6206 
-80.5697 -126.38 72.2415 -77.7465 -128.901 71.775 -76.8456 -129.683 71.1134 
-78.5462 -127.706 72.504 -79.1939 -126.583 72.5006 -79.5222 -125.826 71.6994 
-75.8474 -128.997 71.7155 -75.0877 -129.823 71.0586 -76.712 -127.865 72.3115 
-77.4966 -126.824 72.3198 -78.0823 -126.171 71.5756 -78.3192 -125.614 70.6187 
-74.188 -128.918 71.5118 -73.8035 -129.662 70.6932 -74.8554 -127.897 72.1225 
-75.7258 -126.982 72.0784 -76.5852 -126.298 71.339 -77.1356 -125.758 70.4202 
-77.2663 -125.171 69.4435 -73.2342 -128.52 70.7553 -73.0451 -129.019 69.9094 
-73.5985 -127.725 71.4556 -74.2288 -126.991 71.5534 -75.0963 -126.296 71.0116 
-75.8697 -125.569 70.25 -76.2073 -125.03 69.3238 -76.2262 -124.555 68.0921 
-72.5289 -127.899 69.6781 -72.3157 -128.193 68.9366 -72.8483 -127.343 70.3259 
-73.2845 -126.756 70.5403 -73.8725 -126.169 70.2402 -74.5568 -125.395 69.7665 
-75.005 -124.734 69.0651 -75.1344 -124.376 67.9132 -75.2186 -123.887 66.629 
-71.6246 -127.36 68.6679 -71.4374 -127.564 68.0062 -71.9655 -126.942 69.2126 
-72.4219 -126.385 69.4363 -72.8765 -125.824 69.2376 -73.3713 -125.181 68.8955 
-73.8392 -124.514 68.4594 -74.0888 -124.074 67.6145 -74.2358 -123.67 66.4836 
-74.4775 -122.95 65.5148 -82.1653 -129.469 69.6837 -81.4928 -129.684 70.2558 
-81.4778 -129.44 68.7509 -80.6671 -129.664 69.1992 -80.4835 -129.071 67.9042 
-80.4101 -129.627 70.6324 -79.6057 -129.521 68.2148 -79.4386 -128.693 67.1899 
-79.4922 -129.802 69.5744 -79.0941 -129.658 70.7174 -78.5878 -129.32 67.2842 
-78.5315 -128.358 66.2821 -78.4444 -130 68.4557 -78.1263 -130.011 69.7875 
-77.6144 -129.861 70.6431 -77.6891 -128.837 66.2713 -77.6235 -127.826 65.2504 
-77.5067 -129.844 67.2907 -77.1406 -130.313 68.5151 -76.6518 -130.207 69.7437 
-75.9425 -130.118 70.5291 -76.7401 -128.031 65.2595 -76.6257 -126.992 64.3663 
-76.6695 -129.071 66.1987 -76.3071 -129.995 67.142 -75.7906 -130.329 68.2882 
-75.1622 -130.322 69.4564 -74.443 -130.224 70.2486 -75.8475 -127.138 64.2146 
-75.8365 -126.083 63.4685 -75.8445 -128.113 65.0521 -75.5751 -129.098 65.902 
-75.0447 -129.856 66.7763 -74.4614 -130.152 67.8836 -73.9243 -130.148 68.9898 
-73.4482 -129.794 69.6587 -75.2621 -126.333 63.0561 -75.4364 -125.331 62.3627 
-75.1484 -127.32 63.7306 -74.9037 -128.217 64.5298 -74.3882 -129.005 65.3734 
-73.7662 -129.55 66.2571 -73.2841 -129.716 67.3125 -72.9711 -129.471 68.2649 
-72.6767 -128.892 68.7748 -74.9168 -125.586 61.9039 -75.2141 -124.699 61.2005 
-74.6414 -126.565 62.4717 -74.324 -127.443 63.1101 -73.8438 -128.099 63.9464 
[...]
CELL_DATA 2000
SCALARS Distance double
LOOKUP_TABLE default
141.626 142.383 142.07 142.349 143.32 142.92 143.19 142.933 143.439 
144.287 143.893 144.138 143.836 144.332 144.193 144.919 145.146 144.811 
145.075 144.797 145.298 145.135 145.897 145.819 146.67 145.935 145.633 
145.98 145.757 146.372 146.189 147.031 146.899 147.849 147.697 148.583 
146.67 146.435 146.906 146.754 147.553 147.393 148.354 148.173 149.194 
149.001 149.97 149.704 150.54 147.342 147.213 147.878 147.808 148.788 
148.686 149.732 149.559 150.576 150.392 151.364 151.134 151.987 151.659 
152.381 148.14 148.041 148.963 148.93 150.072 150.001 151.09 150.923 
151.893 151.72 152.653 152.482 153.34 153.075 153.796 153.43 154.047 
149.246 149.106 150.205 150.16 151.372 151.316 152.4 152.244 153.169 
152.985 153.887 153.729 154.603 154.386 155.133 154.808 155.426 155.031 
155.571 141.39 141.296 141.605 142.154 141.155 141.53 142.155 142.47 
143.099 140.999 141.403 142.097 142.473 143.162 143.473 144.088 140.949 
141.321 142.054 142.426 143.155 143.515 144.196 144.459 144.992 140.925 
141.334 142.109 142.456 143.206 143.534 144.3 144.604 145.274 145.401 
145.856 140.726 141.252 142.085 142.534 143.339 143.664 144.484 144.793 
145.625 145.804 146.366 146.293 146.608 140.428 140.965 141.813 142.408 
143.302 143.785 144.657 145.032 145.903 146.188 146.832 146.833 147.065 
146.913 147.106 140.311 140.699 141.474 142.051 142.966 143.622 144.578 
145.129 145.984 146.383 146.988 147.152 147.35 147.262 147.284 147.279 
147.614 140.453 140.679 141.351 141.758 142.608 143.24 144.249 144.93 
145.835 146.337 146.903 147.155 147.349 147.379 147.399 147.39 147.622 
147.85 148.515 140.799 141.652 141.335 141.659 142.82 142.358 142.744 
142.363 142.904 144.163 143.699 144.148 143.656 144.211 143.84 144.553 
145.136 144.876 145.229 144.967 145.413 145.15 145.721 145.494 146.095 
145.887 145.57 145.697 145.617 145.884 145.942 146.326 146.368 146.749 
146.702 147.008 147.219 146.51 146.597 146.101 146.337 146.199 146.602 
146.669 147.033 147.069 147.262 147.247 147.337 149.069 148.251 148.565 
147.622 148.018 147.229 147.781 147.291 147.847 147.52 147.864 147.568 
147.696 147.479 147.51 150.702 150.17 150.713 149.928 150.486 149.52 
150.097 149.147 149.711 148.902 149.358 148.647 148.928 148.273 148.43 
147.886 148.005 151.911 151.636 152.261 151.871 152.49 151.89 152.407 
151.58 151.958 151.04 151.352 150.48 150.778 149.937 150.203 149.352 
149.601 148.799 149.081 150.191 150.75 151.059 152.29 151.333 151.631 
152.825 153.175 154.354 151.864 152.154 153.289 153.662 154.86 155.202 
156.39 152.458 152.673 153.766 154.094 155.324 155.717 157.016 157.348 
158.633 153.126 153.313 154.383 154.621 155.851 156.226 157.584 157.981 
159.307 159.628 160.798 153.547 153.888 154.894 155.202 156.348 156.759 
158.071 158.521 159.812 160.202 161.35 161.625 162.564 153.497 154.038 
154.937 155.453 156.467 157.055 158.252 158.857 160.066 160.571 161.682 
162.07 163.081 163.299 164.161 153.137 153.754 154.577 155.22 156.137 
156.868 157.958 158.755 159.898 160.604 161.661 162.233 163.243 163.702 
164.667 164.908 165.715 152.712 153.312 154.114 154.763 155.639 156.37 
157.371 158.229 159.322 160.195 161.224 161.983 162.917 163.604 164.523 
165.126 165.954 166.302 166.899 150.328 152.469 151.375 151.391 154.525 
153.524 153.543 152.504 152.529 156.552 155.534 155.542 154.551 154.528 
153.545 153.471 158.833 157.71 157.753 156.603 156.586 155.501 155.429 
154.381 154.236 161.016 160.046 160.156 158.986 158.986 157.735 157.678 
156.456 156.338 155.165 155.001 162.712 161.991 162.099 161.233 161.217 
160.139 160.001 158.79 158.589 157.359 157.123 155.937 155.698 164.233 
163.519 163.559 162.86 162.825 162.047 161.868 160.899 160.582 159.484 
159.12 157.99 157.621 156.515 156.168 165.786 165.05 165.026 164.249 
164.165 163.44 163.291 162.496 162.196 161.251 160.847 159.815 159.385 
158.322 157.886 156.838 156.421 167.019 166.492 166.421 165.69 165.498 
164.749 164.538 163.804 163.523 162.71 162.327 161.41 160.969 159.977 
159.504 158.476 157.992 156.986 156.53 167.44 167.548 167.411 166.918 
167.19 167.321 166.968 166.703 166.014 166.595 166.844 166.584 166.578 
166.011 165.713 164.985 165.924 166.197 165.932 166.07 165.568 165.515 
164.861 164.629 163.901 165.189 165.459 165.141 165.341 164.848 164.937 
164.337 164.314 163.655 163.474 162.713 164.363 164.644 164.262 164.489 
164.003 164.162 163.599 163.685 163.08 163.075 162.384 162.204 161.377 
163.328 163.702 163.276 163.555 163.067 163.288 162.75 162.902 162.295 
162.388 161.714 161.715 160.931 160.773 159.892 162.05 162.532 162.124 
162.494 162.011 162.305 161.766 161.99 161.369 161.522 160.825 160.923 
160.168 160.174 159.344 159.22 158.348 160.741 161.228 160.887 161.301 
160.855 161.194 160.646 160.924 160.291 160.512 159.822 159.982 159.261 
159.348 158.588 158.578 157.771 157.665 156.854 167.544 167.209 167.566 
167.599 166.307 166.95 167.087 167.378 167.197 165.232 165.954 166.213 
166.703 166.663 166.866 166.61 164.175 164.91 165.264 165.845 165.956 
166.284 166.154 166.278 165.991 162.995 163.811 164.173 164.891 165.091 
165.574 165.528 165.78 165.576 165.663 165.325 161.585 162.49 162.793 
163.66 163.866 164.579 164.577 165.043 164.873 165.154 164.895 164.979 
164.562 160.097 160.988 161.25 162.151 162.336 163.183 163.217 163.898 
163.759 164.268 164.036 164.382 164.015 164.11 163.538 158.753 159.536 
159.788 160.612 160.791 161.614 161.668 162.424 162.315 162.97 162.74 
163.297 162.948 163.319 162.773 162.896 162.205 157.593 158.273 158.487 
159.22 159.374 160.121 160.155 160.878 160.761 161.443 161.205 161.847 
161.508 162.051 161.569 161.919 161.302 161.464 160.823 152.726 153.281 
153.387 154.175 153.908 154.026 154.887 154.929 155.745 154.525 154.679 
155.598 155.687 156.574 156.589 157.485 155.142 155.308 156.27 156.406 
157.38 157.46 158.457 158.466 159.447 155.726 155.921 156.909 157.092 
158.142 158.295 159.387 159.47 160.515 160.483 161.387 156.21 156.447 
157.432 157.7 158.785 159.044 160.174 160.364 161.419 161.487 162.399 
162.331 163.101 156.62 156.865 157.82 158.15 159.235 159.602 160.717 
161.029 162.041 162.24 163.124 163.215 164.039 163.994 164.727 156.976 
157.225 158.125 158.475 159.522 159.952 161.033 161.432 162.396 162.693 
163.533 163.766 164.595 164.777 165.594 165.589 166.212 157.241 157.518 
158.351 158.709 159.672 160.135 161.158 161.626 162.559 162.931 163.731 
164.037 164.803 165.128 165.911 166.194 166.849 166.872 167.21 151.929 
150.835 151.703 152.394 149.694 150.571 151.229 152.185 152.952 148.527 
149.414 150.058 150.997 151.743 152.743 153.544 147.36 148.244 148.907 
149.834 150.558 151.528 152.323 153.338 154.154 146.272 147.1 147.757 
148.68 149.396 150.347 151.096 152.102 152.921 153.957 154.751 145.299 
146.053 146.662 147.538 148.237 149.172 149.882 150.856 151.631 152.69 
153.526 154.55 155.289 144.386 145.093 145.646 146.462 147.125 148.023 
148.718 149.641 150.371 151.387 152.23 153.31 154.145 155.099 155.775 
143.52 144.178 144.685 145.447 146.064 146.926 147.607 148.5 149.198 
150.145 150.944 152.012 152.892 153.945 154.717 155.592 156.189 142.759 
143.344 143.819 144.502 145.068 145.868 146.518 147.394 148.077 148.988 
149.72 150.729 151.556 152.65 153.459 154.474 155.128 155.968 156.478 
142.526 142.567 142.876 143.584 142.656 142.965 143.704 144.014 144.815 
142.793 143.096 143.886 144.185 145.026 145.347 146.249 143.052 143.308 
144.157 144.431 145.328 145.623 146.577 146.881 147.832 143.418 143.642 
144.515 144.774 145.719 145.999 147.003 147.284 148.299 148.542 149.519 
143.793 144.025 144.902 145.167 146.144 146.437 147.484 147.77 148.828 
149.076 150.122 150.322 151.349 144.2 144.422 145.345 145.593 146.609 
146.894 147.985 148.282 149.378 149.638 150.71 150.945 152.013 152.217 
153.232 144.691 144.896 145.874 146.101 147.141 147.401 148.504 148.804 
149.929 150.207 151.29 151.533 152.592 152.835 153.854 154.047 154.928 
145.229 145.435 146.425 146.659 147.68 147.935 148.992 149.302 150.41 
150.737 151.827 152.102 153.14 153.387 154.381 154.605 155.491 155.622 
156.332 145.849 147.272 146.725 147.094 148.859 148.248 148.629 148.023 
148.374 150.554 149.922 150.333 149.652 150.018 149.346 149.709 152.253 
151.656 152.153 151.463 151.883 151.12 151.514 150.775 151.165 153.996 
153.377 153.942 153.315 153.817 153.075 153.486 152.688 153.072 152.288 
152.622 155.848 155.176 155.708 155.093 155.616 154.966 155.387 154.648 
155.001 154.222 154.536 153.719 153.962 157.583 156.994 157.47 156.856 
157.337 156.712 157.136 156.461 156.816 156.095 156.409 155.628 155.87 
155.02 155.193 158.977 158.572 159.068 158.554 159.031 158.429 158.854 
158.187 158.555 157.86 158.18 157.45 157.685 156.885 157.013 156.17 
156.245 160.079 159.834 160.416 160.053 160.589 160.081 160.518 159.894 
160.241 159.57 159.851 159.157 159.344 158.602 158.665 157.875 157.852 
157.063 157.02 145.347 145.026 145.689 146.738 144.702 145.394 146.494 
147.176 148.321 144.365 145.108 146.287 146.981 148.184 148.843 150.012 
144.041 144.818 146.107 146.833 148.1 148.757 149.968 150.565 151.704 
143.815 144.546 145.892 146.678 148.021 148.718 149.984 150.577 151.782 
152.312 153.48 143.77 144.373 145.658 146.448 147.818 148.606 149.918 
150.599 151.869 152.459 153.726 154.216 155.404 143.915 144.377 145.544 
146.223 147.535 148.34 149.654 150.444 151.731 152.477 153.79 154.449 
155.686 156.15 157.183 144.172 144.552 145.625 146.155 147.362 148.062 
149.336 150.123 151.398 152.217 153.517 154.345 155.6 156.282 157.312 
157.749 158.553 144.439 144.8 145.809 146.254 147.355 147.931 149.132 
149.836 151.083 151.858 153.112 153.952 155.184 156.004 157.067 157.693 
158.5 158.923 159.592 144.438 143.017 143.832 144.079 141.6 142.378 
142.531 143.418 143.673 140.155 140.902 140.91 141.763 141.884 142.907 
143.192 138.746 139.452 139.395 140.107 140.086 141.01 141.213 142.372 
142.768 137.35 138.085 138.124 138.727 138.707 139.354 139.533 140.468 
140.917 142.058 142.601 135.895 136.668 136.824 137.543 137.67 138.23 
138.46 139.115 139.618 140.485 141.122 142.098 142.709 134.707 135.28 
135.481 136.251 136.543 137.241 137.562 138.22 138.726 139.469 140.11 
140.897 141.52 142.357 142.956 134.198 134.4 134.636 135.145 135.565 
136.193 136.618 137.288 137.797 138.576 139.198 139.989 140.574 141.317 
141.863 142.665 143.244 134.241 134.211 134.443 134.665 135.134 135.525 
136.024 136.488 137.002 137.64 138.269 139.048 139.669 140.403 140.924 
141.64 142.165 142.968 143.535 134.359 134.585 134.478 134.592 134.875 
134.775 135.024 134.947 135.267 135.416 135.177 135.476 135.423 135.818 
135.739 136.105 136.275 135.876 136.118 135.957 136.392 136.308 136.712 
136.589 137.021 137.209 136.792 136.98 136.705 137.111 136.96 137.436 
137.273 137.753 137.625 138.235 138.123 137.709 137.893 137.582 137.935 
137.739 138.22 138.067 138.597 138.446 139.028 138.946 139.601 139.115 
138.665 138.843 138.485 138.791 138.552 138.987 138.849 139.38 139.28 
139.84 139.739 140.305 140.249 140.837 140.085 139.667 139.815 139.44 
139.701 139.409 139.808 139.623 140.16 140.054 140.646 140.533 141.091 
140.964 141.524 141.453 142.065 140.895 140.556 140.688 140.364 140.607 
140.318 140.707 140.488 141.042 140.897 141.54 141.394 142 141.81 
142.378 142.218 142.834 142.752 143.419 141.332 142.081 141.508 141.203 
143.227 142.453 142.166 141.489 141.217 144.767 143.829 143.56 142.671 
142.414 141.637 141.416 146.506 145.504 145.245 144.239 143.975 143.039 
142.843 141.996 141.841 148.349 147.299 147.037 145.986 145.708 144.703 
144.493 143.568 143.415 142.533 142.377 150.261 149.191 148.947 147.844 
147.577 146.492 146.249 145.254 145.053 144.139 143.927 143.047 142.815 
152.098 151.097 150.893 149.814 149.587 148.454 148.198 147.078 146.81 
145.78 145.516 144.577 144.308 143.427 143.179 153.77 152.87 152.694 
151.717 151.514 150.462 150.215 149.084 148.774 147.621 147.299 146.223 
145.948 144.971 144.744 143.833 143.648 155.3 154.483 154.331 153.441 
153.243 152.292 152.05 151.024 150.719 149.601 149.249 148.101 147.783 
146.707 146.476 145.49 145.315 144.385 144.238 144.883 146.003 145.717 
146.282 147.204 146.906 147.545 147.208 147.835 148.558 148.209 148.935 
148.57 149.287 148.89 149.61 150.04 149.666 150.443 150.061 150.85 
150.441 151.221 150.787 151.555 151.497 151.169 151.953 151.601 152.391 
152.021 152.812 152.42 153.208 152.778 153.559 152.835 152.586 153.399 
153.094 153.879 153.528 154.288 153.942 154.727 154.385 155.189 154.794 
155.579 154.046 153.88 154.747 154.514 155.339 155.008 155.759 155.389 
156.149 155.833 156.647 156.346 157.124 156.753 157.421 155.131 155.044 
155.931 155.8 156.65 156.421 157.187 156.854 157.585 157.249 158.021 
157.735 158.484 158.174 158.784 158.401 158.854 156.082 156.065 156.943 
156.895 157.734 157.619 158.387 158.182 158.897 158.631 159.336 159.061 
159.739 159.448 160.015 159.661 160.086 159.662 159.976 139.855 139.622 
139.393 138.725 139.671 139.253 138.537 138.239 137.563 139.953 139.435 
138.713 138.233 137.527 137.155 136.516 140.169 139.723 139.014 138.523 
137.784 137.268 136.499 136.118 135.469 140.22 139.849 139.151 138.763 
138.04 137.553 136.734 136.196 135.421 135.076 134.579 140.315 139.909 
139.239 138.852 138.208 137.785 137.09 136.526 135.803 135.237 134.735 
134.422 134.281 140.535 140.1 139.47 139.014 138.422 138.002 137.456 
136.966 136.38 135.78 135.274 134.794 134.59 134.39 134.455 140.758 
140.373 139.79 139.322 138.728 138.283 137.767 137.36 136.849 136.359 
135.816 135.33 134.96 134.699 134.597 134.554 134.569 140.929 140.606 
140.1 139.669 139.102 138.629 138.101 137.683 137.206 136.78 136.266 
135.794 135.341 134.993 134.765 134.63 134.55 134.531 134.447 139.866 
138.719 139.398 139.6 137.491 138.16 138.371 139.132 139.448 136.401 
136.968 137.125 137.858 138.204 139.033 139.49 135.402 135.936 136.094 
136.716 137.036 137.791 138.278 139.148 139.694 134.559 134.989 135.233 
135.805 136.19 136.8 137.302 138.026 138.648 139.446 140.017 134.26 
134.381 134.636 135.058 135.548 136.108 136.696 137.281 137.942 138.585 
139.253 139.885 140.425 134.463 134.376 134.545 134.683 135.11 135.553 
136.183 136.766 137.444 138.036 138.689 139.262 139.831 140.361 140.84 
134.615 134.609 134.718 134.741 135.02 135.251 135.78 136.269 136.933 
137.526 138.155 138.726 139.268 139.8 140.279 140.79 141.251 134.455 
134.586 134.684 134.822 135.054 135.228 135.657 135.977 136.587 137.055 
137.697 138.205 138.77 139.262 139.769 140.254 140.748 141.235 141.723 
140.469 140.265 140.666 141.313 140.17 140.519 141.187 141.581 142.382 
140.288 140.554 141.24 141.524 142.304 142.768 143.672 140.522 140.774 
141.499 141.699 142.428 142.749 143.603 144.061 144.814 140.736 140.993 
141.719 141.972 142.681 142.937 143.72 144.066 144.876 145.165 145.804 
141.009 141.188 141.856 142.13 142.851 143.148 143.917 144.233 145.074 
145.372 146.207 146.351 147.143 141.391 141.495 142.136 142.317 143.046 
143.307 144.096 144.409 145.258 145.606 146.511 146.815 147.715 147.899 
148.795 141.817 141.907 142.564 142.689 143.417 143.593 144.369 144.613 
145.434 145.766 146.646 147.042 147.934 148.303 149.146 149.453 150.261 
142.272 142.35 143.013 143.138 143.853 144.007 144.747 144.933 145.704 
145.962 146.789 147.141 147.994 148.391 149.204 149.589 150.344 150.708 
151.426 144.367 143.828 143.71 142.966 143.37 143.202 142.452 142.333 
141.608 142.99 142.789 142.01 141.84 141.066 140.953 140.199 142.594 
142.398 141.565 141.379 140.512 140.37 139.531 139.474 138.724 142.213 
141.98 141.125 140.906 140.02 139.813 138.93 138.791 137.985 137.975 
137.261 141.998 141.675 140.865 140.549 139.752 139.443 138.66 138.355 
137.595 137.364 136.637 136.544 135.859 141.921 141.567 140.816 140.437 
139.718 139.35 138.678 138.297 137.63 137.233 136.557 136.191 135.531 
135.292 134.756 141.877 141.54 140.834 140.463 139.775 139.409 138.761 
138.397 137.75 137.364 136.718 136.307 135.708 135.297 134.822 134.52 
134.27 141.881 141.54 140.896 140.526 139.892 139.513 138.897 138.511 
137.877 137.479 136.832 136.457 135.892 135.553 135.144 134.823 134.595 
134.343 134.301 
POINT_DATA 1002
SCALARS Distance double
LOOKUP_TABLE default
141.799 141.212 141.87 142.544 142.738 142.71 143.482 143.743 143.549 
144.063 144.458 144.664 144.482 144.973 145.726 145.317 145.462 145.46 
145.96 146.764 147.523 146.129 146.223 146.507 147.159 147.98 148.808 
149.422 146.964 146.834 147.636 148.525 149.386 150.22 150.885 151.315 
147.847 147.35 148.831 149.905 150.772 151.575 152.301 152.778 153.051 
148.929 148.143 150.116 151.273 152.095 152.815 153.573 154.148 154.463 
154.629 150.25 149.347 151.439 152.564 153.367 154.048 154.8 155.438 
155.814 156.003 156.081 141.092 141.855 140.943 141.796 140.728 142.818 
141.69 140.583 142.81 143.861 141.694 140.572 142.783 143.878 144.854 
141.74 140.47 142.895 143.944 145.082 145.891 141.551 140.164 142.97 
144.156 145.358 146.442 146.775 141.185 139.94 142.708 144.233 145.586 
146.77 147.293 147.139 140.976 140.019 142.266 143.932 145.573 146.797 
147.402 147.366 147.353 141.044 140.296 142.036 143.529 145.291 146.645 
147.272 147.382 147.459 148.058 141.059 141.903 141.995 143.179 143.29 
143.155 144.631 144.572 144.641 144.844 145.428 145.412 145.635 145.97 
146.353 145.876 146.378 145.794 146.227 146.786 147.112 147.283 148.004 
146.642 146.582 147.002 147.318 147.366 149.472 149.738 148.949 148.471 
148.297 148.251 148.031 147.7 151.304 151.07 151.367 151.146 150.678 
150.163 149.665 149.092 148.502 152.537 152.13 152.946 153.16 152.918 
152.28 151.614 151.056 150.462 149.839 151.389 151.95 153.533 152.483 
154.044 155.488 152.925 154.463 156.077 157.609 153.481 154.896 156.616 
158.36 159.932 154.182 155.489 157.172 158.969 160.595 161.869 154.567 
155.938 157.621 159.424 161.045 162.413 163.411 154.39 155.858 157.61 
159.529 161.247 162.757 164.076 164.999 153.929 155.418 157.14 159.128 
161.04 162.698 164.278 165.652 166.497 153.471 154.946 156.557 158.421 
160.42 162.214 163.841 165.453 166.759 167.442 152.488 154.555 153.589 
156.561 155.512 154.485 158.961 157.738 156.511 155.295 161.249 160.262 
158.959 157.565 156.156 162.858 162.192 161.199 159.847 158.358 156.857 
164.29 163.531 162.753 161.654 160.25 158.757 157.253 165.862 164.926 
164.038 163.084 161.854 160.444 158.959 157.448 167.119 166.284 165.286 
164.291 163.195 161.935 160.532 159.023 157.508 167.762 167.354 167.53 
167.08 166.964 166.474 166.493 166.334 166.182 165.38 165.769 165.674 
165.539 164.986 164.218 164.941 164.957 164.721 164.289 163.74 163.012 
164.039 164.096 163.811 163.482 163.03 162.475 161.666 162.973 162.917 
162.818 162.575 162.196 161.662 161.006 160.124 161.707 161.528 161.693 
161.523 161.202 160.71 160.104 159.396 158.516 160.45 160.248 160.505 
160.368 160.048 159.625 159.134 158.547 157.825 156.974 167.432 167.508 
166.691 166.656 165.577 167.101 165.631 164.49 166.357 166.535 164.611 
163.427 165.552 165.964 165.968 163.397 162.164 164.514 165.212 165.414 
165.35 161.91 160.683 163.073 164.014 164.509 164.703 164.635 160.371 
159.238 161.472 162.466 163.175 163.597 163.812 163.601 159.002 158.021 
159.995 160.908 161.633 162.14 162.487 162.547 162.172 157.797 156.964 
158.665 159.464 160.095 160.558 160.918 161.122 161.04 160.695 152.581 
154.111 153.153 154.818 153.755 155.734 155.469 154.355 156.513 157.479 
156.104 154.971 157.24 158.392 159.502 156.691 155.521 157.935 159.255 
160.518 161.528 157.132 155.98 158.477 159.945 161.323 162.418 163.252 
157.486 156.396 158.844 160.386 161.822 162.981 163.976 164.891 157.794 
156.74 159.097 160.627 162.088 163.279 164.343 165.467 166.427 151.08 
151.453 149.977 150.287 148.822 151.952 149.137 147.626 150.756 152.525 
147.973 146.485 149.616 151.308 153.139 146.847 145.489 148.456 150.121 
151.863 153.765 145.828 144.586 147.316 148.943 150.588 152.447 154.369 
144.868 143.708 146.247 147.816 149.398 151.13 153.117 154.95 143.962 
142.893 145.23 146.719 148.289 149.912 151.793 153.77 155.434 143.181 
142.206 144.318 145.66 147.178 148.766 150.487 152.39 154.219 155.733 