# vtk DataFile Version 4.0
vtk output
ASCII
DATASET POLYDATA
POINTS 1002 float
-74.9668 -108.54 56.6592 -75.2566 -107.618 55.9068 -75.9892 -107.725 56.1987 
-75.6119 -108.888 56.8635 -76.7708 -108.082 56.5699 -74.5901 -109.887 57.3527 
-76.1596 -109.558 57.0005 -77.5067 -108.914 56.9209 -75.0512 -110.594 57.4214 
-74.1645 -111.615 58.0305 -76.5098 -110.577 56.9237 -77.8562 -110.076 56.9009 
-75.3541 -111.461 57.3996 -74.5635 -112.524 58.1566 -73.8981 -113.409 58.8826 
-76.5055 -111.699 56.5065 -77.4539 -111.212 56.2616 -75.5628 -112.414 57.2185 
-74.9805 -113.368 58.3364 -74.4886 -114.294 59.2638 -73.9343 -115.182 59.9178 
-76.2159 -112.731 56.0355 -76.7204 -112.294 55.434 -75.7158 -113.426 57.0216 
-75.4328 -114.339 58.435 -75.1955 -115.236 59.6836 -74.715 -116.143 60.4484 
-74.1904 -117.218 61.0024 -76.2386 -113.725 56.0762 -76.5673 -113.385 55.2345 
-75.9986 -114.423 57.2346 -75.8607 -115.466 58.6276 -75.7673 -116.478 59.9419 
-75.4471 -117.366 60.8757 -74.9751 -118.347 61.5688 -74.5539 -119.393 62.1862 
-76.8666 -114.707 56.7934 -77.099 -114.361 55.8897 -76.6777 -115.369 57.957 
-76.4605 -116.444 59.1744 -76.253 -117.631 60.284 -75.9594 -118.659 61.2145 
-75.5973 -119.572 62.0574 -75.2791 -120.429 62.8563 -74.9298 -121.14 63.5161 
-77.6576 -115.651 57.7985 -77.766 -115.219 56.9037 -77.52 -116.337 58.8311 
-77.2645 -117.327 59.8716 -76.9579 -118.477 60.8217 -76.5894 -119.605 61.6958 
-76.1994 -120.6 62.5793 -75.9205 -121.375 63.4801 -75.6489 -121.938 64.2522 
-75.2412 -122.34 64.8099 -78.2803 -116.562 58.673 -78.3087 -116.061 57.7964 
-78.1823 -117.315 59.56 -77.9502 -118.291 60.4516 -77.7043 -119.347 61.3465 
-77.4355 -120.399 62.2527 -77.0511 -121.403 63.1722 -76.6978 -122.204 64.0686 
-76.4186 -122.715 64.8604 -76.032 -123.05 65.463 -75.5278 -123.315 65.8865 
-75.993 -106.916 55.3229 -76.8354 -107.039 55.6818 -76.7793 -106.275 54.7186 
-77.6555 -106.537 55.0103 -77.5688 -105.644 53.9783 -77.7872 -107.5 56.2501 
-78.402 -106 54.095 -78.4143 -104.866 53.1841 -78.6182 -107.103 55.6005 
-78.6929 -108.433 56.8517 -79.2409 -105.184 53.2903 -79.3641 -103.975 52.6666 
-79.2707 -106.548 54.5664 -79.519 -107.903 56.2687 -78.931 -109.538 56.861 
-80.1885 -104.346 52.8274 -80.1942 -103.375 52.1944 -80.0401 -105.797 53.6785 
-80.1673 -107.175 55.22 -79.7017 -108.755 56.2911 -78.1772 -110.663 55.9617 
-80.8876 -103.945 52.1159 -80.6181 -103.319 51.1906 -80.8211 -105.226 52.9991 
-80.9021 -106.559 54.2868 -80.5431 -107.937 55.4686 -79.0407 -109.919 55.4966 
-77.3236 -111.959 54.9489 -81.1603 -104.032 50.9105 -80.6525 -103.652 49.9077 
-81.3029 -105.031 52.0079 -81.4703 -106.282 53.3657 -81.3764 -107.472 54.701 
-80.2125 -109.193 55.1508 -78.4123 -111.428 54.7736 -77.2483 -113.219 54.8194 
-81.1533 -104.448 49.8201 -80.4861 -104.193 48.9797 -81.5418 -105.178 50.8672 
-81.7932 -106.278 52.2011 -81.8376 -107.394 53.6637 -81.1326 -108.782 54.6414 
-79.6673 -110.799 54.7724 -78.3006 -112.824 54.7762 -77.6953 -114.228 55.5195 
-81.0048 -105.097 49.1741 -80.2687 -104.869 48.4904 -81.6262 -105.632 50.0425 
-82.0086 -106.505 51.1537 -82.0416 -107.536 52.4525 -81.5242 -108.73 53.6644 
-80.4677 -110.385 54.3817 -79.2894 -112.341 54.6908 -78.4569 -113.987 55.2604 
-78.17 -115.131 56.411 -80.535 -105.831 48.5495 -81.3492 -106.237 49.2786 
-80.8675 -107.081 48.6281 -81.6271 -107.582 49.4439 -81.0892 -108.471 48.8229 
-81.985 -106.871 50.2289 -81.5072 -109.022 49.7375 -80.9263 -109.953 49.3043 
-81.9565 -108.217 50.5029 -82.1339 -107.747 51.3583 -81.0872 -110.686 50.2419 
-80.4862 -111.55 50.0791 -81.4838 -109.752 50.8688 -81.6795 -109.14 51.657 
-81.6666 -108.865 52.5576 -80.7601 -112.504 51.0154 -80.0915 -113.103 51.1358 
-81.1731 -111.639 51.3354 -81.1954 -110.827 52.0753 -80.9876 -110.462 52.8217 
-80.7664 -110.363 53.6145 -80.4525 -114.205 52.1953 -79.8238 -114.622 52.4147 
-81.0434 -113.647 52.1446 -81.1518 -112.826 52.6942 -80.7473 -112.286 53.4049 
-80.2339 -112.211 53.8819 -79.814 -112.251 54.3413 -80.1213 -115.909 53.5672 
-79.6858 -116.289 53.6518 -80.7067 -115.562 53.4471 -81.0641 -114.927 53.7751 
-80.8618 -114.245 54.4316 -80.2688 -114.048 54.7459 -79.6385 -114.11 54.8324 
-79.0644 -114.062 55.0653 -80.0255 -117.661 54.7879 -79.6763 -117.906 54.7852 
-80.4896 -117.408 54.8222 -80.9022 -116.934 55.1369 -80.9689 -116.199 55.7708 
-80.5971 -115.722 56.1484 -79.9535 -115.696 56.053 -79.2651 -115.65 56.0191 
-78.6681 -115.396 56.2328 -80.1111 -119.109 55.9704 -79.6867 -119.121 56.0139 
-80.5926 -119 56.0521 -81.0201 -118.668 56.3717 -81.2154 -117.99 56.967 
-81.0548 -117.259 57.5134 -80.5538 -116.945 57.6209 -79.8657 -116.909 57.4835 
-79.2025 -116.728 57.5106 -78.6894 -116.38 57.6838 -78.8531 -117.284 59.0956 
-79.3194 -117.629 59.0581 -79.5095 -118.757 60.3839 -79.8949 -117.922 59.0396 
-80.0779 -119.094 60.5307 -80.1408 -120.421 61.9108 -80.5573 -118.048 59.0833 
-80.6078 -119.379 60.6557 -80.6978 -120.84 62.2387 -80.7981 -122.079 63.8765 
-81.1784 -118.27 58.999 -81.1634 -119.639 60.5945 -81.1867 -121.265 62.3774 
-81.4472 -122.548 64.2106 -81.8686 -123.385 65.8593 -81.5305 -118.918 58.5957 
-81.6326 -120.138 60.2833 -81.7291 -121.731 62.2323 -82.1914 -123.011 64.2179 
-82.8519 -123.718 65.9332 -83.2807 -124.305 67.2768 -81.4848 -119.702 58.0431 
-81.7043 -120.832 59.9046 -81.9429 -122.293 62.007 -82.714 -123.535 64.0634 
-83.7374 -124.133 65.6945 -84.334 -124.569 67.0565 -84.2569 -125.147 68.3544 
-81.1036 -120.152 57.6211 -81.3675 -121.298 59.5701 -81.5848 -122.701 61.7818 
-82.4242 -124.007 63.9161 -83.7408 -124.692 65.4887 -84.6963 -125.063 66.6836 
-84.8851 -125.551 68.0713 -84.4449 -126.042 69.5615 -80.5335 -120.231 57.4328 
-80.8181 -121.361 59.2992 -81.0039 -122.735 61.4153 -81.643 -124.149 63.5454 
-82.8358 -125.067 65.2929 -83.9424 -125.566 66.5019 -84.5535 -126.069 67.7298 
-84.6229 -126.599 69.2867 -84.2473 -126.999 70.7169 -79.9414 -120.114 57.4359 
-80.1892 -121.176 59.1561 -80.4206 -122.503 61.0079 -80.9343 -123.974 62.8933 
-81.8582 -125.084 64.7638 -82.7924 -125.738 66.3192 -83.4991 -126.316 67.5503 
-84.0197 -126.957 68.8961 -84.2271 -127.547 70.3411 -84.0433 -128.003 71.4576 
-78.8004 -118.052 59.97 -79.3207 -119.782 61.3176 -78.5603 -119.095 60.8388 
-79.9448 -121.519 63.1472 -79.0006 -120.975 62.3839 -78.3075 -120.239 61.7879 
-80.9177 -122.984 65.3428 -79.8267 -122.58 64.4791 -78.8847 -122.102 63.5569 
-78.2004 -121.304 62.8248 -82.2293 -124.097 67.1587 -81.0633 -123.747 66.59 
-79.838 -123.421 65.696 -78.8589 -123.011 64.7205 -77.9923 -122.268 63.8817 
-83.2919 -125.013 68.4689 -82.187 -124.725 68.2134 -80.8966 -124.302 67.6587 
-79.6245 -124.051 66.7751 -78.6013 -123.755 65.7341 -77.6302 -123.077 64.8246 
-83.6924 -125.793 69.7871 -82.7631 -125.572 69.6558 -81.6863 -125.198 69.3253 
-80.416 -124.827 68.6841 -79.2568 -124.668 67.5932 -78.2753 -124.347 66.4479 
-77.2959 -123.606 65.5774 -83.6864 -126.578 71.0653 -82.941 -126.216 71.058 
-82.1574 -125.966 70.8425 -81.1531 -125.691 70.3905 -79.9963 -125.446 69.4055 
-78.9347 -125.237 68.0701 -77.8966 -124.745 66.9518 -76.8691 -123.92 66.1658 
-83.6264 -127.593 71.8993 -83.0064 -126.997 72.0842 -82.3977 -126.556 72.0838 
-81.6589 -126.342 71.8595 -80.6374 -126.142 71.1192 -79.5289 -125.914 69.817 
-78.4287 -125.613 68.4357 -77.2939 -125.022 67.3858 -76.2779 -124.173 66.6075 
-83.6796 -128.903 72.1425 -83.1654 -128.37 72.5885 -83.1222 -129.698 72.7075 
-82.5221 -128.98 73.4448 -82.2224 -129.954 73.5145 -82.5435 -127.535 72.9623 
-81.5185 -129.119 74.6065 -81.0132 -129.787 74.2281 -81.7787 -127.928 74.1704 
-81.8731 -126.918 73.152 -80.3176 -129.109 75.0574 -79.6674 -129.813 74.0849 
-80.6551 -128.102 75.2228 -80.882 -127.141 74.2992 -80.9478 -126.601 72.7687 
-79.0225 -129.274 74.2337 -78.1199 -129.984 73.3913 -79.5338 -128.302 74.9457 
-79.7112 -127.294 74.7357 -79.8291 -126.653 73.4255 -79.8224 -126.338 71.6065 
-77.326 -129.278 73.3606 -76.2787 -129.902 73.038 -78.2289 -128.425 73.8023 
-78.6603 -127.499 74.0071 -78.7589 -126.736 73.3302 -78.7722 -126.366 71.8131 
-78.6778 -126.115 70.0251 -75.4027 -129.018 73.1364 -74.5505 -129.641 72.9181 
-76.437 -128.261 73.1834 -77.257 -127.578 73.136 -77.6724 -126.96 72.6393 
-77.7785 -126.504 71.5149 -77.6731 -126.224 70.042 -77.4758 -125.77 68.5919 
-73.8755 -128.689 72.841 -73.3384 -129.277 72.4852 -74.7091 -127.981 72.8612 
-75.563 -127.455 72.6444 -76.2033 -127.076 72.0523 -76.6098 -126.665 71.0171 
-76.7025 -126.272 69.793 -76.5095 -125.794 68.6044 -76.3212 -125.048 67.5361 
-72.8269 -128.279 72.1216 -72.533 -128.746 71.7308 -73.4206 -127.668 72.1644 
-74.1358 -127.192 71.9651 -74.7235 -126.914 71.485 -75.2053 -126.58 70.6268 
-75.5858 -126.104 69.5709 -75.6578 -125.565 68.5554 -75.5002 -124.89 67.6102 
-75.4341 -124.089 66.7207 -83.9202 -128.605 71.3028 -83.5489 -129.508 71.9206 
-83.3927 -128.748 70.9242 -82.8527 -129.408 71.509 -82.4317 -128.6 70.3452 
-82.7951 -130.076 72.4463 -81.6612 -129.059 70.8674 -81.2678 -128.495 69.6027 
-81.8737 -129.754 71.9178 -81.6375 -130.102 72.9941 -80.4442 -128.912 69.9854 
-80.1774 -128.314 68.7645 -80.6528 -129.531 71.0453 -80.6155 -130.023 72.0526 
-80.2318 -130.094 73.2073 -79.4075 -128.675 68.966 -79.1609 -127.927 67.8077 
-79.5734 -129.527 69.9491 -79.5267 -130.223 70.8953 -79.1956 -130.452 71.9705 
-78.6895 -130.327 72.9419 -78.352 -128.222 67.8635 -78.1475 -127.544 66.6777 
-78.5249 -129.146 68.8251 -78.5056 -130.113 69.7609 -78.1656 -130.595 70.8085 
-77.5955 -130.564 71.8689 -76.9366 -130.354 72.6533 -77.3149 -127.763 66.6885 
-77.2235 -127.128 65.4605 -77.3886 -128.525 67.693 -77.3773 -129.4 68.6486 
-77.1147 -130.067 69.6638 -76.5602 -130.281 70.6867 -75.8523 -130.282 71.6805 
-75.1337 -130.147 72.4841 -76.4567 -127.22 65.4721 -76.4286 -126.522 64.2597 
-76.4196 -127.964 66.502 -76.3226 -128.663 67.454 -76.0895 -129.268 68.4285 
-75.6062 -129.691 69.3319 -74.9555 -129.935 70.251 -74.3019 -130.056 71.2711 
-73.7367 -129.874 72.1109 -75.7198 -126.55 64.2134 -75.7093 -125.857 63.0871 
[...]
CELL_DATA 2000
SCALARS Distance double
LOOKUP_TABLE default
142.199 142.897 142.706 143.159 143.84 143.492 143.935 143.792 144.388 
144.882 144.466 144.794 144.611 145.24 145.16 145.875 145.593 145.353 
145.586 145.442 146.074 146.054 146.877 146.778 147.588 145.92 145.868 
146.227 146.186 146.925 146.957 147.939 147.879 148.825 148.633 149.568 
146.453 146.326 146.974 146.929 147.901 147.939 149.111 149.079 150.18 
149.987 151.002 150.774 151.819 147.554 147.267 148.139 147.974 149.106 
149.079 150.342 150.335 151.513 151.389 152.439 152.244 153.272 153.074 
154.051 148.945 148.646 149.598 149.379 150.514 150.406 151.624 151.586 
152.752 152.685 153.746 153.623 154.621 154.465 155.381 155.165 155.919 
150.281 150.065 151.012 150.845 151.913 151.801 152.932 152.862 153.993 
153.92 155.001 154.893 155.899 155.75 156.64 156.427 157.148 156.855 
157.416 141.798 141.491 141.904 142.496 141.221 141.654 142.339 142.767 
143.516 140.861 141.368 142.129 142.666 143.563 143.985 144.724 140.467 
140.968 141.716 142.37 143.323 143.979 144.803 145.126 145.524 140.224 
140.626 141.327 141.917 142.823 143.576 144.421 144.993 145.398 145.608 
145.729 140.066 140.437 141.108 141.597 142.457 143.093 143.94 144.515 
145.025 145.339 145.547 145.73 146.049 139.871 140.254 140.903 141.387 
142.224 142.805 143.673 144.172 144.803 145.082 145.48 145.633 146.067 
146.3 146.993 139.77 140.087 140.747 141.18 142.008 142.568 143.453 
143.977 144.688 145.017 145.539 145.723 146.248 146.438 147.118 147.439 
148.301 139.889 140.108 140.806 141.127 141.954 142.402 143.268 143.758 
144.491 144.898 145.475 145.787 146.35 146.625 147.278 147.58 148.349 
148.749 149.61 140.256 141.297 140.892 141.222 142.499 142.042 142.386 
141.971 142.382 143.679 143.232 143.524 143.135 143.494 143.156 143.595 
144.886 144.398 144.631 144.204 144.489 144.168 144.518 144.282 144.689 
146.231 145.697 145.99 145.412 145.68 145.184 145.501 145.155 145.526 
145.295 145.675 147.68 147.146 147.574 146.953 147.301 146.608 146.938 
146.328 146.717 146.262 146.683 146.327 146.689 149.256 148.687 149.206 
148.627 149.107 148.402 148.792 148.022 148.419 147.724 148.16 147.574 
147.979 147.451 147.764 150.933 150.352 150.921 150.343 150.931 150.274 
150.762 149.985 150.392 149.596 150.001 149.26 149.647 148.952 149.282 
148.622 148.906 152.476 152.011 152.604 152.095 152.718 152.133 152.669 
151.956 152.358 151.57 151.916 151.143 151.483 150.728 151.042 150.291 
150.585 149.86 150.165 151.173 151.625 151.909 153.003 152.11 152.399 
153.539 153.859 155.082 152.567 152.881 154.043 154.413 155.708 156.058 
157.38 153.022 153.334 154.503 154.899 156.251 156.691 158.108 158.448 
159.776 153.499 153.818 155 155.375 156.766 157.247 158.755 159.176 
160.555 160.816 161.986 153.835 154.263 155.44 155.859 157.225 157.758 
159.3 159.815 161.225 161.545 162.685 162.865 163.794 153.87 154.449 
155.579 156.142 157.399 158.063 159.516 160.218 161.593 162.085 163.16 
163.441 164.316 164.49 165.223 153.675 154.316 155.362 156.046 157.169 
157.959 159.248 160.139 161.416 162.167 163.165 163.666 164.454 164.823 
165.553 165.779 166.403 153.412 154.018 154.956 155.659 156.674 157.5 
158.652 159.609 160.792 161.708 162.675 163.381 164.114 164.686 165.376 
165.875 166.553 166.854 167.415 151.276 153.139 152.148 152.101 155.231 
154.145 154.13 153.077 153.057 157.546 156.372 156.384 155.227 155.236 
154.118 154.105 159.95 158.787 158.833 157.604 157.631 156.42 156.429 
155.233 155.191 162.143 161.147 161.204 160.052 160.032 158.84 158.823 
157.623 157.562 156.326 156.209 163.923 163.152 163.203 162.251 162.15 
161.082 160.947 159.88 159.768 158.65 158.48 157.276 157.073 165.319 
164.714 164.752 164.011 163.91 163 162.798 161.813 161.628 160.65 
160.462 159.41 159.138 158.007 157.722 166.489 165.962 165.965 165.359 
165.296 164.587 164.455 163.576 163.373 162.411 162.189 161.218 160.929 
159.902 159.527 158.479 158.117 167.546 167.072 167.059 166.479 166.406 
165.829 165.764 165.1 164.935 164.088 163.8 162.863 162.517 161.555 
161.141 160.141 159.687 158.711 158.303 168.134 168.807 168.242 167.642 
169.205 168.824 168.219 167.602 166.946 169.149 169.073 168.584 168.11 
167.442 166.894 166.29 168.663 168.856 168.518 168.322 167.675 167.268 
166.594 166.164 165.473 167.856 168.22 167.941 168.047 167.444 167.268 
166.505 166.238 165.472 165.139 164.312 166.814 167.25 166.927 167.254 
166.712 166.796 166.037 165.922 165.108 164.925 164.113 163.834 162.975 
165.721 166.113 165.735 166.114 165.634 165.905 165.274 165.323 164.566 
164.467 163.689 163.518 162.701 162.438 161.566 164.681 165.017 164.603 
164.929 164.478 164.804 164.298 164.497 163.853 163.874 163.135 163.049 
162.252 162.074 161.205 160.96 160.081 163.608 163.954 163.501 163.813 
163.336 163.674 163.199 163.497 162.923 163.081 162.378 162.411 161.628 
161.555 160.702 160.529 159.656 159.453 158.651 168.354 168.461 168.719 
169.063 167.884 168.519 168.973 169.26 169.385 166.916 167.673 168.098 
168.763 168.954 169.289 169.185 165.901 166.624 166.992 167.709 167.955 
168.535 168.544 168.859 168.631 164.8 165.56 165.941 166.65 166.968 
167.557 167.694 168.101 168.003 168.218 167.887 163.554 164.361 164.715 
165.535 165.874 166.599 166.775 167.281 167.206 167.522 167.245 167.395 
166.929 162.276 163.066 163.339 164.182 164.443 165.316 165.452 166.186 
166.058 166.572 166.26 166.617 166.223 166.385 165.878 160.971 161.762 
161.994 162.782 162.966 163.784 163.878 164.672 164.57 165.222 164.94 
165.464 165.147 165.549 165.188 165.355 164.862 159.625 160.417 160.643 
161.43 161.596 162.345 162.421 163.136 163.097 163.737 163.566 164.118 
163.893 164.398 164.151 164.539 164.17 164.326 163.798 153.546 154.17 
154.241 155.046 154.933 154.951 155.842 155.866 156.791 155.883 155.879 
156.875 156.819 157.836 157.784 158.818 156.78 156.891 157.97 157.958 
159.006 158.94 159.988 159.919 160.935 157.498 157.713 158.819 158.966 
160.01 160.062 161.061 161.053 161.988 161.939 162.764 158.167 158.382 
159.457 159.679 160.717 160.902 161.898 162.005 162.902 162.892 163.649 
163.57 164.215 158.741 158.999 160.015 160.259 161.265 161.502 162.508 
162.72 163.654 163.729 164.503 164.433 165.102 164.963 165.554 159.076 
159.433 160.402 160.727 161.679 161.973 162.926 163.224 164.15 164.368 
165.17 165.23 165.936 165.877 166.533 166.347 166.848 159.243 159.644 
160.581 160.982 161.887 162.259 163.137 163.509 164.366 164.708 165.483 
165.727 166.437 166.586 167.276 167.281 167.831 167.583 167.848 152.752 
151.764 152.619 153.341 150.692 151.588 152.296 153.194 154.005 149.533 
150.456 151.155 152.099 152.889 153.895 154.828 148.393 149.279 149.972 
150.925 151.695 152.715 153.584 154.691 155.637 147.349 148.173 148.839 
149.752 150.504 151.494 152.312 153.383 154.283 155.43 156.358 146.379 
147.157 147.782 148.641 149.354 150.303 151.103 152.122 153.019 154.109 
155.081 156.183 157.108 145.49 146.211 146.809 147.603 148.265 149.157 
149.925 150.92 151.829 152.908 153.912 154.995 155.95 156.961 157.763 
144.71 145.361 145.933 146.659 147.285 148.098 148.805 149.74 150.597 
151.689 152.682 153.825 154.77 155.812 156.578 157.518 158.14 144.024 
144.613 145.142 145.811 146.406 147.153 147.806 148.646 149.398 150.414 
151.326 152.502 153.446 154.571 155.343 156.308 156.911 157.802 158.336 
143.822 143.898 144.202 144.934 144.101 144.352 145.126 145.405 146.208 
144.439 144.648 145.449 145.677 146.513 146.765 147.616 144.843 145.043 
145.869 146.066 146.911 147.13 148.022 148.255 149.198 145.3 145.481 
146.341 146.529 147.416 147.601 148.558 148.759 149.808 150.014 151.126 
145.838 145.987 146.889 147.063 148.043 148.208 149.279 149.443 150.608 
150.772 151.971 152.12 153.264 146.43 146.573 147.532 147.7 148.769 
148.938 150.103 150.278 151.515 151.681 152.897 153.023 154.12 154.213 
155.166 147.065 147.211 148.229 148.408 149.521 149.714 150.891 151.109 
152.326 152.557 153.728 153.903 154.926 155.017 155.886 155.942 156.722 
147.758 147.897 148.938 149.125 150.226 150.444 151.573 151.826 152.966 
153.248 154.345 154.595 155.572 155.729 156.57 156.636 157.395 157.424 
158.148 148.504 150.109 149.434 149.729 151.779 151.102 151.416 150.718 
151.028 153.49 152.814 153.166 152.445 152.776 152.056 152.383 155.283 
154.595 155.009 154.257 154.622 153.862 154.218 153.458 153.788 157.113 
156.435 156.892 156.154 156.554 155.775 156.145 155.348 155.669 154.868 
155.143 158.913 158.264 158.738 158.043 158.486 157.735 158.126 157.315 
157.618 156.769 156.992 156.167 156.346 160.602 160.033 160.525 159.88 
160.345 159.646 160.051 159.283 159.583 158.729 158.922 158.034 158.159 
157.296 157.363 162.042 161.636 162.142 161.601 162.016 161.406 161.749 
161.093 161.352 160.609 160.771 159.936 160.023 159.133 159.151 158.244 
158.21 163.131 162.927 163.439 163.059 163.403 162.901 163.143 162.602 
162.799 162.205 162.332 161.64 161.69 160.908 160.89 160.024 159.943 
159.036 158.944 148.068 147.937 148.545 149.656 147.805 148.452 149.598 
150.193 151.323 147.606 148.366 149.594 150.178 151.314 151.864 152.996 
147.284 148.206 149.638 150.266 151.423 151.885 152.997 153.558 154.741 
146.923 147.905 149.531 150.343 151.607 152.058 153.118 153.595 154.801 
155.386 156.607 146.738 147.585 149.17 150.133 151.486 152.147 153.215 
153.736 154.937 155.526 156.833 157.329 158.485 146.795 147.447 148.828 
149.704 151 151.817 152.92 153.657 154.876 155.635 156.983 157.592 
158.778 159.174 160.172 146.928 147.48 148.705 149.401 150.599 151.321 
152.425 153.206 154.432 155.365 156.72 157.579 158.747 159.337 160.259 
160.698 161.533 147.019 147.539 148.678 149.291 150.448 151.06 152.169 
152.812 153.994 154.833 156.125 157.079 158.227 159.036 159.909 160.542 
161.292 161.845 162.557 147.067 145.585 146.491 146.884 144.1 144.984 
145.277 146.271 146.676 142.463 143.387 143.581 144.586 144.845 145.942 
146.311 140.826 141.655 141.766 142.767 142.944 144.017 144.222 145.419 
145.793 139.471 140.109 140.104 140.932 141.084 142.096 142.341 143.393 
143.702 144.904 145.414 138.141 138.803 138.731 139.396 139.46 140.321 
140.66 141.668 142.142 143.123 143.656 144.744 145.407 136.663 137.383 
137.399 138.085 138.16 138.871 139.174 140.102 140.688 141.721 142.364 
143.318 143.947 144.947 145.628 135.558 136.041 136.192 136.829 137.105 
137.75 138.107 138.819 139.347 140.288 140.96 142.003 142.637 143.627 
144.222 145.222 145.838 135.166 135.317 135.498 135.89 136.292 136.869 
137.384 137.976 138.492 139.151 139.733 140.601 141.247 142.24 142.855 
143.847 144.431 145.42 145.991 135.195 135.383 135.296 135.449 135.674 
135.521 135.693 135.708 136.158 136.231 135.912 136.06 135.994 136.479 
136.629 137.276 137.112 136.652 136.717 136.444 136.865 136.966 137.653 
137.813 138.437 138.033 137.626 137.671 137.222 137.462 137.376 138.007 
138.181 138.867 138.962 139.599 138.834 138.521 138.636 138.193 138.315 
138.031 138.517 138.577 139.324 139.44 140.161 140.226 141.005 139.67 
139.341 139.53 139.138 139.31 138.929 139.33 139.202 139.946 140.008 
140.846 140.884 141.693 141.75 142.606 140.576 140.228 140.461 140.093 
140.383 139.992 140.422 140.142 140.82 140.753 141.604 141.635 142.484 
142.504 143.328 143.374 144.206 141.442 141.131 141.395 141.074 141.434 
141.111 141.588 141.29 141.886 141.697 142.421 142.395 143.206 143.262 
144.076 144.122 144.921 144.96 145.755 141.992 142.96 142.299 142.014 
144.191 143.397 143.122 142.401 142.141 145.672 144.76 144.486 143.644 
143.419 142.638 142.407 147.388 146.375 146.127 145.151 144.924 144.035 
143.825 142.979 142.756 149.405 148.271 148.107 146.976 146.768 145.692 
145.461 144.483 144.263 143.382 143.236 151.699 150.492 150.416 149.165 
149.026 147.76 147.556 146.332 146.124 145.032 144.916 144.001 143.996 
153.928 152.831 152.771 151.563 151.452 150.166 150.023 148.679 148.521 
147.19 147.079 145.897 145.879 144.893 144.917 155.752 154.875 154.786 
153.779 153.641 152.522 152.385 151.173 151.036 149.729 149.575 148.255 
148.127 146.933 146.863 145.834 145.792 157.212 156.485 156.392 155.571 
155.435 154.513 154.368 153.36 153.21 152.1 151.897 150.679 150.431 
149.198 148.988 147.848 147.715 146.69 146.614 147.407 148.562 148.33 
149.081 149.875 149.581 150.374 150.106 150.86 151.338 150.992 151.818 
151.494 152.3 151.935 152.631 152.808 152.497 153.342 153.008 153.865 
153.481 154.247 153.763 154.482 154.11 153.91 154.768 154.51 155.366 
155.055 155.849 155.426 156.147 155.688 156.492 155.233 155.124 156.001 
155.845 156.692 156.472 157.256 156.944 157.636 157.262 157.961 157.65 
158.432 156.244 156.186 157.08 157.003 157.879 157.725 158.538 158.29 
159.017 158.675 159.333 158.993 159.669 159.418 160.087 157.157 157.144 
158.044 158.037 158.958 158.877 159.742 159.558 160.352 160.059 160.755 
160.371 160.995 160.633 161.253 160.958 161.53 157.96 157.997 158.89 
158.95 159.888 159.903 160.79 160.709 161.515 161.341 162.046 161.753 
162.332 161.959 162.487 162.144 162.68 162.361 162.835 139.308 139.18 
138.937 138.355 139.276 138.902 138.229 137.925 137.261 139.468 139.061 
138.363 137.906 137.158 136.818 136.204 139.621 139.236 138.568 138.102 
137.381 136.895 136.233 135.882 135.392 139.841 139.397 138.723 138.28 
137.615 137.182 136.567 136.105 135.52 135.158 134.739 140.217 139.698 
138.988 138.458 137.777 137.377 136.855 136.479 135.961 135.465 134.972 
134.607 134.399 140.621 140.124 139.454 138.838 138.158 137.627 137.171 
136.8 136.468 136.006 135.625 135.087 134.866 134.542 134.622 140.973 
140.536 139.986 139.401 138.826 138.2 137.802 137.304 137.078 136.613 
136.35 135.824 135.588 135.167 135.139 134.917 135.021 141.335 140.923 
140.476 139.975 139.518 138.954 138.599 138.073 137.821 137.322 137.021 
136.514 136.184 135.784 135.593 135.369 135.312 135.185 135.155 139.31 
138.343 138.926 139.156 137.251 137.901 138.178 138.849 139.223 136.179 
136.782 137.086 137.832 138.283 139.002 139.473 135.348 135.813 136.096 
136.766 137.25 138.021 138.568 139.301 139.806 134.719 135.094 135.4 
135.937 136.434 137.077 137.673 138.393 139.001 139.681 140.21 134.398 
134.586 134.933 135.372 135.922 136.447 137.068 137.651 138.319 138.949 
139.591 140.172 140.742 134.583 134.502 134.766 135.009 135.517 135.991 
136.604 137.155 137.807 138.387 139.061 139.635 140.282 140.809 141.426 
134.941 134.8 134.897 134.944 135.27 135.6 136.132 136.662 137.295 
137.889 138.551 139.143 139.811 140.377 141.034 141.556 142.187 135.085 
135.037 135.059 135.061 135.272 135.433 135.894 136.263 136.916 137.418 
138.132 138.671 139.376 139.925 140.614 141.157 141.809 142.316 142.908 
139.912 139.794 140.166 140.915 139.865 140.13 140.869 141.281 142.12 
140.113 140.286 140.983 141.302 142.145 142.551 143.378 140.438 140.573 
141.225 141.462 142.258 142.622 143.473 143.823 144.612 140.806 140.91 
141.548 141.728 142.476 142.769 143.603 143.943 144.762 145.081 145.889 
141.305 141.332 141.993 142.105 142.881 143.073 143.929 144.166 145.032 
145.288 146.149 146.43 147.307 141.988 141.934 142.623 142.655 143.481 
143.596 144.505 144.646 145.57 145.719 146.654 146.828 147.774 147.972 
148.913 142.755 142.687 143.376 143.366 144.174 144.258 145.151 145.284 
146.195 146.34 147.272 147.437 148.399 148.563 149.513 149.666 150.589 
143.46 143.436 144.098 144.106 144.846 144.924 145.737 145.88 146.716 
146.898 147.752 147.981 148.876 149.13 150.023 150.243 151.09 151.282 
152.091 146.884 146.209 146.165 145.443 145.615 145.539 144.812 144.759 
144.017 145.03 144.95 144.193 144.13 143.329 143.268 142.427 144.456 
144.335 143.505 143.443 142.59 142.538 141.677 141.626 140.833 143.987 
143.781 142.897 142.743 141.873 141.783 140.963 140.909 140.178 140.153 
139.509 143.62 143.368 142.501 142.235 141.382 141.175 140.393 140.271 
139.556 139.517 138.831 138.848 138.148 143.328 143.056 142.232 141.928 
141.087 140.806 139.998 139.792 139.004 138.889 138.095 138.076 137.285 
137.341 136.612 143.167 142.848 142.066 141.722 140.894 140.563 139.723 
139.439 138.586 138.357 137.499 137.351 136.567 136.52 135.89 135.926 
135.494 143.134 142.783 142.05 141.653 140.869 140.454 139.651 139.251 
138.438 138.056 137.249 136.92 136.218 136.013 135.527 135.452 135.194 
135.2 135.113 
POINT_DATA 1002
SCALARS Distance double
LOOKUP_TABLE default
142.566 141.726 142.309 143.247 143.138 143.666 144.094 144.292 144.468 
145.034 145.018 145.342 145.276 145.982 146.614 145.706 145.74 146.04 
146.911 147.741 148.41 146.164 145.864 146.817 147.923 148.986 149.75 
150.545 146.954 146.545 147.809 149.082 150.33 151.227 152.03 152.884 
148.304 147.817 149.162 150.351 151.597 152.614 153.479 154.31 154.961 
149.82 149.203 150.673 151.709 152.814 153.848 154.779 155.607 156.226 
156.571 151.174 150.469 152.045 153.024 154.065 155.102 156.056 156.865 
157.448 157.769 157.909 141.361 142.044 141.069 141.852 140.744 143.123 
141.511 140.331 143.026 144.542 141.066 140.008 142.576 144.371 145.499 
140.807 139.861 142.112 143.785 145.113 145.594 140.646 139.693 141.876 
143.385 144.652 145.32 145.742 140.427 139.497 141.641 143.157 144.481 
145.284 145.85 146.618 140.341 139.475 141.474 142.91 144.295 145.294 
146.049 146.854 147.886 140.511 139.684 141.567 142.824 144.073 145.111 
146.029 146.981 148.004 149.16 140.574 141.592 141.726 142.811 142.962 
142.757 143.925 144.154 143.839 143.89 145.119 145.388 144.852 144.779 
144.888 146.587 146.723 146.268 145.926 145.803 145.894 148.131 148.19 
148.006 147.635 147.258 147.095 147.066 149.744 149.836 149.748 149.571 
149.178 148.824 148.566 148.31 151.479 151.485 151.541 151.509 151.212 
150.79 150.394 149.984 149.556 153.07 152.875 153.266 153.351 153.152 
152.712 152.249 151.809 151.335 150.868 152.185 152.675 154.149 153.19 
154.756 156.343 153.647 155.295 157.076 158.724 154.108 155.757 157.706 
159.545 161.061 154.635 156.261 158.283 160.28 161.843 163.054 155.004 
156.685 158.734 160.885 162.514 163.701 164.63 154.995 156.742 158.777 
161.04 162.858 164.109 165.14 165.902 154.691 156.405 158.366 160.606 
162.606 164.033 165.223 166.299 167.01 154.296 155.887 157.734 159.859 
161.915 163.508 164.804 166.105 167.257 167.98 153.085 155.203 154.102 
157.574 156.378 155.228 160.067 158.862 157.655 156.407 162.316 161.231 
160.006 158.81 157.472 164.087 163.208 162.012 160.826 159.669 158.301 
165.429 164.741 163.782 162.604 161.459 160.26 158.855 166.558 165.91 
165.241 164.345 163.175 161.938 160.592 159.135 167.65 166.972 166.338 
165.716 164.747 163.48 162.136 160.697 159.231 168.773 168.306 169.345 
168.823 169.45 167.529 168.951 169.052 167.981 166.817 168.569 168.373 
168.038 167.01 165.96 167.722 167.479 167.535 166.759 165.749 164.712 
166.553 166.415 166.51 166.095 165.26 164.32 163.313 165.374 165.378 
165.281 165.114 164.615 163.825 162.926 161.867 164.301 164.364 164.135 
164.021 163.763 163.185 162.399 161.433 160.317 163.198 163.262 163.005 
162.869 162.71 162.299 161.652 160.835 159.839 158.813 168.31 169.075 
167.999 168.484 167.171 169.363 167.366 166.213 168.445 169.057 166.295 
165.198 167.318 168.105 168.473 165.19 164.015 166.339 167.252 167.729 
167.813 163.88 162.77 165.078 166.21 166.866 167.028 166.899 162.549 
161.512 163.591 164.663 165.485 165.827 165.929 165.845 161.226 160.179 
162.209 163.102 163.871 164.357 164.64 164.876 164.845 159.847 158.85 
160.857 161.726 162.439 162.985 163.359 163.682 163.898 163.769 153.471 
154.959 154.083 155.816 154.903 156.756 156.922 155.828 157.889 158.865 
157.924 156.591 159.065 160.067 161.034 158.626 157.278 159.91 161.058 
162.062 162.87 159.245 157.981 160.503 161.742 162.9 163.747 164.334 
159.773 158.473 161.031 162.263 163.522 164.544 165.22 165.754 160.055 
158.702 161.381 162.628 163.889 165.041 165.928 166.661 167.185 151.915 
152.474 150.907 151.386 149.788 153.032 150.199 148.617 151.886 153.755 
149.026 147.54 150.697 152.508 154.495 147.956 146.556 149.54 151.283 
153.15 155.208 146.962 145.623 148.434 150.094 151.937 153.972 156.066 
146.051 144.799 147.418 148.95 150.735 152.818 154.947 156.837 145.237 
144.097 146.513 147.93 149.541 151.518 153.712 155.652 157.246 144.506 