# vtk DataFile Version 4.0
vtk output
ASCII
DATASET POLYDATA
POINTS 1002 float
-76.451 -107.705 60.2439 -76.9272 -106.714 59.6296 -77.5158 -106.992 59.8338 
-76.9211 -108.235 60.3797 -78.1151 -107.468 60.0053 -75.9597 -108.99 60.8925 
-77.5108 -108.909 60.5763 -78.7703 -108.137 60.2727 -76.4846 -109.629 61.1199 
-75.5718 -110.173 61.7498 -78.1538 -109.621 60.9247 -79.3599 -108.901 60.7257 
-77.1326 -110.277 61.5311 -76.159 -110.788 62.1674 -75.1928 -111.366 62.796 
-78.4093 -110.345 61.1764 -79.5324 -109.774 61.1186 -77.5559 -110.898 61.8902 
-76.6972 -111.417 62.7055 -75.6573 -112.126 63.2671 -74.7875 -113.032 63.8758 
-78.0021 -111.221 61.016 -79.186 -110.786 61.091 -77.3276 -111.686 61.7448 
-76.871 -112.197 62.9052 -76.0748 -113.011 63.6958 -75.1937 -114.027 64.2792 
-74.616 -114.961 64.9261 -77.4204 -112.233 60.6873 -78.6462 -111.775 60.6778 
-76.7819 -112.74 61.3718 -76.6596 -113.29 62.7129 -76.3437 -114.134 63.8738 
-75.7079 -115.185 64.6258 -75.1671 -116.053 65.3462 -74.7402 -116.75 65.9642 
-77.2551 -113.207 60.6819 -78.2129 -112.652 60.3314 -76.7331 -113.822 61.4944 
-76.6597 -114.493 62.7965 -76.533 -115.386 64.0656 -76.1382 -116.467 64.9642 
-75.7382 -117.317 65.7557 -75.3761 -117.871 66.5109 -74.9228 -118.408 67.0361 
-77.5229 -114.112 61.125 -78.0281 -113.507 60.431 -77.2877 -114.768 62.1476 
-77.23 -115.524 63.3816 -77.0102 -116.475 64.5157 -76.5663 -117.591 65.3962 
-76.1921 -118.521 66.2007 -75.9162 -119.059 67.0227 -75.5523 -119.447 67.6957 
-75.1006 -119.868 68.142 -78.0069 -114.988 61.8186 -78.1796 -114.374 60.9622 
-77.9725 -115.64 62.8966 -77.9551 -116.403 64.0454 -77.7228 -117.346 65.0479 
-77.2452 -118.413 65.8848 -76.8012 -119.374 66.7051 -76.5018 -120.018 67.543 
-76.1804 -120.408 68.2749 -75.7759 -120.734 68.8124 -75.3693 -121.024 69.1865 
-77.7963 -106.18 59.0678 -78.6321 -106.377 59.3807 -78.8076 -105.836 58.3845 
-79.8241 -106.096 58.803 -79.8141 -105.549 57.6085 -79.3885 -106.815 59.6938 
-80.8045 -105.902 58.1409 -80.6752 -105.082 56.9533 -80.6299 -106.514 59.3187 
-80.0727 -107.452 60.1574 -81.565 -105.383 57.6876 -81.3901 -104.423 56.561 
-81.6344 -106.202 58.8883 -81.2906 -107.006 60.0069 -80.6145 -108.274 60.8359 
-82.2915 -104.743 57.4142 -81.984 -103.908 56.1028 -82.6228 -105.605 58.6106 
-82.4246 -106.536 59.6954 -81.7701 -107.856 60.793 -80.782 -109.39 61.3876 
-82.8755 -104.525 56.7707 -82.3892 -103.772 55.2565 -83.5508 -105.201 58.2042 
-83.6096 -106.063 59.3001 -82.8489 -107.522 60.3558 -81.9037 -109.219 61.293 
-80.5161 -110.595 61.3074 -83.1001 -104.696 55.6943 -82.5482 -103.932 54.2701 
-83.943 -105.287 57.213 -84.3678 -105.966 58.5461 -83.7734 -107.309 59.6667 
-82.798 -109.076 60.6872 -81.6594 -110.482 61.0804 -79.9155 -111.541 60.6395 
-83.036 -104.991 54.7061 -82.5199 -104.304 53.4919 -83.7961 -105.563 55.9888 
-84.3791 -106.195 57.34 -84.1843 -107.36 58.7011 -83.435 -108.96 59.8854 
-82.477 -110.309 60.4853 -80.9587 -111.29 60.3188 -79.1576 -112.327 60.0407 
-82.8848 -105.395 54.0477 -82.4239 -104.864 52.9546 -83.5142 -105.898 55.0903 
-84.0852 -106.527 56.1966 -84.1913 -107.604 57.5695 -83.8022 -109.011 58.9852 
-83.0604 -110.208 59.8166 -81.726 -111.082 59.8483 -79.954 -112.025 59.6735 
-78.6141 -113.19 60.0082 -82.5872 -105.825 53.2296 -83.1212 -106.27 54.2965 
-82.7425 -106.79 53.5767 -83.2816 -107.308 54.5859 -82.7081 -107.788 53.9327 
-83.7351 -106.851 55.2533 -83.1465 -108.422 54.9168 -82.3755 -108.82 54.2865 
-83.8375 -108.142 55.5858 -84.1164 -107.845 56.437 -82.6625 -109.419 55.3012 
-81.9981 -110.021 54.7279 -83.5454 -109.29 56.047 -84.0543 -109.298 56.9429 
-84.0324 -109.182 57.9692 -82.1916 -110.735 55.7324 -81.8332 -111.719 55.3106 
-82.7516 -110.196 56.4218 -83.354 -110.235 57.3027 -83.5978 -110.403 58.2351 
-83.4294 -110.336 59.0971 -81.9114 -112.784 56.3045 -81.6494 -113.731 56.0636 
-81.9613 -111.747 56.7529 -82.04 -111.177 57.3527 -82.2277 -111.227 57.995 
-82.2892 -111.317 58.6538 -82.0897 -111.174 59.2887 -81.5787 -114.884 57.2569 
-81.226 -115.398 57.1289 -81.5417 -113.979 57.4812 -81.1765 -112.954 57.7522 
-80.8377 -112.445 57.9824 -80.6758 -112.426 58.2669 -80.5131 -112.326 58.7275 
-80.2597 -112.109 59.2369 -81.171 -116.359 58.6342 -80.7482 -116.532 58.5364 
-81.3549 -115.905 58.768 -81.158 -115.039 58.9287 -80.6754 -114.178 59.0197 
-80.1602 -113.811 59.0303 -79.7086 -113.711 59.1777 -79.2893 -113.517 59.4937 
-78.9241 -113.303 59.7872 -80.8518 -117.386 60.1564 -80.4006 -117.425 60.0505 
-81.2335 -117.229 60.263 -81.4125 -116.723 60.4237 -81.2661 -115.909 60.6244 
-80.8259 -115.251 60.7125 -80.2504 -114.985 60.7091 -79.646 -114.868 60.7803 
-79.0642 -114.713 60.8864 -78.5693 -114.536 60.9325 -78.6361 -115.648 62.2963 
-79.2003 -115.852 62.3733 -79.2541 -117.013 63.7362 -79.8463 -115.985 62.4297 
-79.8549 -117.22 63.8343 -79.6511 -118.461 65.1958 -80.4726 -116.081 62.4486 
-80.4039 -117.356 63.8966 -80.2026 -118.691 65.344 -80.2785 -119.848 67.0336 
-81.0588 -116.294 62.4674 -80.8948 -117.56 63.9306 -80.6575 -118.957 65.3935 
-80.864 -120.164 67.2537 -81.2756 -121.173 69.0964 -81.5367 -116.845 62.3624 
-81.4229 -118.026 63.8933 -81.1713 -119.405 65.3753 -81.3467 -120.66 67.2574 
-81.7296 -121.732 69.2729 -81.8758 -122.752 70.8862 -81.6823 -117.633 62.0726 
-81.7486 -118.747 63.6613 -81.6499 -120.056 65.2673 -81.8063 -121.33 67.1428 
-82.0661 -122.478 69.1719 -82.1568 -123.57 70.9871 -82.1986 -124.439 72.4603 
-81.4246 -118.202 61.8258 -81.5791 -119.348 63.3742 -81.6401 -120.636 65.0469 
-81.8764 -121.944 66.9445 -82.1888 -123.18 68.8997 -82.3965 -124.329 70.7413 
-82.6721 -125.242 72.4068 -82.9654 -125.687 73.8185 -80.9503 -118.378 61.7122 
-81.0619 -119.55 63.226 -81.1298 -120.824 64.8413 -81.3739 -122.165 66.6664 
-81.8073 -123.542 68.5038 -82.2658 -124.801 70.2304 -82.8884 -125.765 71.9101 
-83.5565 -126.301 73.4316 -83.81 -126.409 74.6436 -80.4406 -118.372 61.6016 
-80.493 -119.5 63.1147 -80.5093 -120.705 64.6609 -80.6767 -121.982 66.3552 
-81.1274 -123.426 68.0472 -81.7143 -124.869 69.5993 -82.476 -125.975 71.1457 
-83.4114 -126.617 72.684 -84.0392 -126.875 73.9775 -83.9929 -126.882 74.9548 
-78.5906 -116.356 63.3158 -79.0232 -117.889 64.7756 -78.5111 -117.153 64.417 
-79.4683 -119.445 66.4706 -78.7962 -118.855 65.9043 -78.331 -118.098 65.4609 
-80.4627 -120.804 68.5987 -79.4215 -120.422 67.8661 -78.6441 -119.83 67.1 
-78.0088 -119.114 66.4324 -81.4112 -122.205 70.5712 -80.449 -121.8 69.9971 
-79.3463 -121.325 69.2473 -78.4988 -120.684 68.3303 -77.6468 -120.038 67.4183 
-81.8245 -123.783 72.2916 -81.1864 -123.242 71.7822 -80.1367 -122.782 71.1569 
-79.1277 -122.162 70.3913 -78.2722 -121.442 69.3686 -77.3222 -120.77 68.3389 
-82.3955 -125.048 74.0148 -81.7986 -124.415 73.6975 -80.9278 -124.013 72.9487 
-79.7924 -123.623 72.0602 -78.8103 -122.958 71.0918 -77.9011 -122.133 70.0303 
-76.9403 -121.298 69.0595 -83.1906 -125.827 75.2783 -82.491 -125.101 75.584 
-81.7723 -124.585 75.1925 -80.7081 -124.391 74.0834 -79.4576 -124.157 72.7253 
-78.3897 -123.551 71.4919 -77.4031 -122.647 70.454 -76.4776 -121.676 69.5841 
-83.5174 -126.415 75.7705 -82.8038 -125.709 76.6242 -82.1709 -124.982 77.0725 
-81.4029 -124.546 76.4924 -80.2229 -124.45 74.9441 -78.9487 -124.35 73.2053 
-77.8562 -123.841 71.8226 -76.8743 -122.931 70.8047 -76.0234 -121.934 69.9723 
-83.316 -127.12 75.5526 -82.739 -126.609 76.5334 -82.3097 -127.393 76.1165 
-81.728 -126.86 77.1248 -81.3687 -127.567 76.4505 -82.0629 -125.869 77.6523 
-80.729 -126.979 77.112 -80.1503 -127.603 76.2759 -81.091 -126.143 78.118 
-81.4651 -125.067 78.1605 -79.3452 -126.999 76.439 -78.3818 -127.668 75.9343 
-79.987 -126.335 77.5142 -80.3976 -125.273 78.2415 -80.5931 -124.514 77.2513 
-77.581 -127.116 75.9851 -76.7579 -127.747 75.8473 -78.5207 -126.445 76.4727 
-79.1403 -125.481 77.2306 -79.4106 -124.595 77.0107 -79.3495 -124.408 75.2951 
-76.0154 -127.17 75.9956 -75.6712 -127.611 75.5737 -76.7643 -126.494 76.1451 
-77.6385 -125.585 76.3214 -78.1159 -124.771 76.1771 -78.2262 -124.465 75.0828 
-78.1175 -124.366 73.3575 -74.8127 -126.959 75.6176 -74.7474 -127.273 74.7513 
-75.1192 -126.368 76.0924 -75.9039 -125.532 76.0681 -76.668 -124.858 75.6008 
-77.0065 -124.571 74.6386 -77.1015 -124.346 73.2831 -77.05 -123.801 71.9262 
-73.8564 -126.609 74.6332 -73.7817 -126.918 73.7459 -73.9302 -126.098 75.3517 
-74.3866 -125.395 75.5437 -75.1575 -124.814 75.0962 -75.7181 -124.541 74.1662 
-75.988 -124.224 73.021 -76.1318 -123.602 71.8998 -76.1224 -122.794 70.8903 
-73.0115 -126.255 73.5577 -72.8176 -126.593 72.8857 -73.1406 -125.773 74.1423 
-73.4026 -125.196 74.39 -73.9503 -124.688 74.1509 -74.52 -124.363 73.4798 
-74.8863 -123.968 72.5857 -75.1579 -123.288 71.6961 -75.3331 -122.512 70.8564 
-75.3633 -121.78 70.0134 -83.6464 -127.309 74.5303 -82.7834 -127.656 75.109 
-82.6401 -127.662 73.9823 -81.8703 -128.145 74.513 -81.443 -127.885 73.2202 
-81.8725 -128.034 75.6187 -80.9126 -128.443 73.5784 -80.4213 -127.82 72.3828 
-81.1885 -128.696 74.8463 -80.9121 -128.334 75.8138 -79.87 -128.292 72.6148 
-79.431 -127.506 71.6159 -80.2215 -128.956 73.704 -80.0503 -129.142 74.8823 
-79.2822 -128.515 75.685 -78.6408 -127.854 71.7645 -78.4916 -127.137 70.6431 
-78.8711 -128.54 72.6258 -78.7985 -129.232 73.6366 -78.1635 -129.297 74.8154 
-77.3774 -128.538 75.5881 -77.6298 -127.369 70.6369 -77.7623 -126.624 69.3817 
-77.5529 -127.992 71.5876 -77.4419 -128.69 72.3355 -77.0261 -129.261 73.4194 
-76.5034 -129.065 74.623 -76.1217 -128.292 75.3198 -76.9363 -126.675 69.2843 
-77.0557 -125.835 68.2064 -76.7535 -127.497 70.3014 -76.5243 -128.251 71.0213 
-76.1398 -128.849 71.7958 -75.7381 -128.988 72.9404 -75.5206 -128.505 73.9762 
-75.2681 -127.827 74.5071 -76.2581 -125.769 68.0902 -76.3108 -124.951 67.2558 
-76.1817 -126.722 68.9635 -76.0108 -127.687 69.7236 -75.6281 -128.354 70.3894 
-75.1618 -128.566 71.2581 -74.8626 -128.33 72.3023 -74.6499 -127.843 73.0837 
-74.2873 -127.365 73.4965 -75.6103 -124.905 67.081 -75.7307 -124.178 66.354 
-75.5327 -125.772 67.788 -75.426 -126.727 68.5033 -75.1304 -127.468 69.2107 
[...]
CELL_DATA 2000
SCALARS Distance double
LOOKUP_TABLE default
143.88 144.561 144.358 144.725 145.424 145.135 145.536 145.329 145.767 
146.435 146.088 146.501 146.238 146.691 146.426 146.873 147.348 147.039 
147.375 147.183 147.623 147.393 147.845 147.589 148.16 147.955 147.72 
147.894 147.856 148.289 148.247 148.774 148.601 149.223 149.038 149.814 
148.34 148.135 148.243 148.235 148.755 148.847 149.589 149.557 150.354 
150.192 151.042 150.848 151.702 148.747 148.553 148.847 148.743 149.47 
149.491 150.488 150.494 151.522 151.413 152.382 152.172 153.066 152.789 
153.588 149.375 149.2 149.819 149.661 150.61 150.523 151.657 151.6 
152.73 152.646 153.684 153.529 154.442 154.189 154.976 154.653 155.351 
150.284 150.127 150.989 150.856 151.906 151.818 152.943 152.868 153.949 
153.868 154.876 154.775 155.685 155.506 156.28 156.004 156.664 156.335 
156.923 143.582 143.522 143.771 144.272 143.608 143.834 144.356 144.546 
145.124 143.623 143.959 144.573 144.745 145.305 145.494 146.14 143.461 
143.919 144.626 144.945 145.554 145.742 146.374 146.583 147.186 143.258 
143.743 144.531 144.956 145.664 145.942 146.625 146.869 147.544 147.652 
148.047 143.096 143.592 144.476 144.931 145.748 146.056 146.794 147.086 
147.856 148.072 148.583 148.451 148.562 142.919 143.445 144.36 144.895 
145.758 146.156 146.899 147.229 147.99 148.326 148.926 148.966 149.09 
148.817 148.79 142.784 143.267 144.119 144.685 145.502 146.041 146.779 
147.239 147.962 148.384 148.981 149.187 149.345 149.207 149.077 148.932 
149.065 142.809 143.175 143.952 144.411 145.173 145.697 146.468 147.012 
147.798 148.289 148.918 149.189 149.389 149.339 149.199 149.075 149.092 
149.227 149.694 143.159 144.056 143.801 144.227 144.966 144.718 145.13 
144.894 145.379 145.771 145.608 146.113 145.883 146.405 146.137 146.701 
146.491 146.334 146.888 146.831 147.47 147.275 147.868 147.562 148.116 
147.529 147.11 147.504 147.439 148.021 148.109 148.671 148.625 149.041 
148.837 149.148 149.088 148.397 148.607 148.133 148.42 148.372 148.731 
148.94 149.185 149.33 149.38 149.401 149.372 150.715 150.077 150.298 
149.518 149.611 148.986 149.113 148.905 149.087 149.156 149.214 149.291 
149.198 149.256 149.133 152.045 151.614 151.973 151.293 151.47 150.567 
150.66 149.831 150.03 149.494 149.765 149.417 149.604 149.308 149.411 
149.179 149.262 153.185 152.868 153.351 152.887 153.252 152.514 152.74 
151.788 152.016 151.086 151.435 150.65 151.056 150.358 150.723 150.073 
150.395 149.817 150.113 151.043 151.429 151.781 152.901 151.831 152.215 
153.38 153.715 154.834 152.218 152.629 153.804 154.172 155.311 155.639 
156.814 152.669 153.047 154.238 154.584 155.739 156.098 157.346 157.734 
159.065 153.276 153.58 154.806 155.085 156.28 156.587 157.901 158.3 
159.721 160.098 161.433 153.895 154.203 155.403 155.701 156.919 157.218 
158.559 158.934 160.387 160.775 162.169 162.451 163.666 154.24 154.657 
155.737 156.175 157.322 157.769 159.043 159.534 160.914 161.392 162.751 
163.141 164.398 164.641 165.716 154.222 154.745 155.692 156.266 157.281 
157.899 159.022 159.719 160.957 161.661 162.906 163.519 164.713 165.203 
166.277 166.548 167.354 153.994 154.548 155.411 156.031 156.939 157.614 
158.589 159.378 160.478 161.359 162.508 163.351 164.449 165.198 166.195 
166.785 167.552 167.851 168.292 151.18 153.052 152.068 152.035 154.991 
154.022 154.025 153.022 153.027 157.037 156.018 156.072 155.048 155.08 
154.062 154.066 159.348 158.24 158.359 157.21 157.258 156.152 156.161 
155.092 155.051 161.684 160.633 160.781 159.615 159.654 158.446 158.426 
157.247 157.18 156.053 155.959 163.853 162.89 163.028 161.971 161.99 
160.838 160.769 159.564 159.436 158.23 158.061 156.917 156.744 165.857 
164.969 165.079 164.101 164.107 163.053 162.961 161.829 161.648 160.459 
160.201 159.008 158.712 157.591 157.306 167.447 166.782 166.819 166.004 
165.962 165.043 164.916 163.888 163.653 162.545 162.217 161.061 160.663 
159.506 159.097 158.017 157.652 168.355 168.008 167.964 167.441 167.335 
166.671 166.493 165.656 165.334 164.358 163.933 162.901 162.432 161.35 
160.851 159.755 159.284 158.261 157.861 168.585 168.645 168.547 168.272 
168.565 168.559 168.371 168.184 167.769 168.164 168.358 168.211 168.231 
167.902 167.628 167.015 167.324 167.699 167.543 167.862 167.557 167.578 
166.96 166.672 165.826 166.454 166.755 166.55 166.963 166.67 166.946 
166.343 166.336 165.501 165.279 164.363 165.745 165.973 165.701 165.976 
165.649 165.931 165.402 165.538 164.81 164.78 163.964 163.768 162.87 
164.86 165.214 164.892 165.15 164.729 164.952 164.44 164.609 163.998 
164.064 163.359 163.29 162.465 162.24 161.303 163.74 164.188 163.855 
164.206 163.731 163.995 163.454 163.675 163.106 163.26 162.604 162.638 
161.846 161.742 160.841 160.626 159.703 162.618 163.039 162.708 163.077 
162.61 162.914 162.374 162.649 162.093 162.328 161.692 161.814 161.039 
161.038 160.179 160.085 159.223 159.055 158.237 168.646 168.459 168.664 
168.702 167.942 168.377 168.587 168.707 168.656 167.177 167.802 168.203 
168.554 168.64 168.623 168.339 166.184 166.942 167.39 168.027 168.259 
168.521 168.298 168.132 167.584 165.024 165.82 166.142 166.953 167.173 
167.841 167.768 167.963 167.499 167.285 166.724 163.77 164.564 164.772 
165.553 165.662 166.471 166.485 167.114 166.863 167.053 166.558 166.444 
165.945 162.385 163.214 163.411 164.175 164.286 164.992 165.024 165.709 
165.612 166.137 165.795 166.027 165.505 165.538 164.983 160.919 161.746 
161.945 162.781 162.961 163.702 163.762 164.379 164.286 164.835 164.58 
165.015 164.576 164.834 164.283 164.4 163.828 159.557 160.293 160.458 
161.282 161.458 162.301 162.367 163.088 162.941 163.523 163.229 163.737 
163.362 163.766 163.313 163.573 163.075 163.214 162.704 154.099 154.723 
154.779 155.538 155.387 155.462 156.273 156.293 157.073 156.085 156.186 
157.077 157.09 157.931 157.894 158.735 156.772 156.933 157.937 157.982 
158.927 158.863 159.799 159.707 160.66 157.386 157.618 158.695 158.854 
159.894 159.923 160.941 160.881 161.907 161.779 162.745 158.001 158.237 
159.334 159.56 160.618 160.793 161.836 161.955 163.001 163.014 164.003 
163.863 164.723 158.621 158.867 159.965 160.196 161.239 161.435 162.445 
162.67 163.694 163.905 164.878 164.963 165.83 165.731 166.454 159.056 
159.388 160.434 160.765 161.79 162.035 163 163.215 164.172 164.425 
165.345 165.587 166.41 166.569 167.271 167.255 167.764 159.24 159.64 
160.582 161.044 162.019 162.435 163.358 163.679 164.551 164.83 165.665 
165.928 166.682 166.923 167.559 167.748 168.212 168.244 168.473 153.333 
152.353 153.18 153.889 151.339 152.162 152.831 153.731 154.49 150.295 
151.113 151.735 152.63 153.357 154.318 155.115 149.239 150.048 150.643 
151.511 152.213 153.164 153.948 154.937 155.747 148.206 148.999 149.578 
150.414 151.095 152.027 152.815 153.785 154.578 155.551 156.344 147.202 
147.974 148.536 149.348 149.983 150.895 151.678 152.667 153.482 154.424 
155.198 156.146 156.952 146.264 146.975 147.514 148.304 148.9 149.767 
150.498 151.497 152.346 153.341 154.147 155.062 155.848 156.79 157.593 
145.475 146.074 146.57 147.299 147.881 148.692 149.369 150.308 151.135 
152.172 153.036 154.015 154.812 155.73 156.494 157.416 158.111 144.855 
145.346 145.784 146.408 146.956 147.699 148.341 149.2 149.969 150.964 
151.824 152.858 153.683 154.658 155.404 156.322 156.986 157.853 158.398 
144.671 144.686 144.964 145.585 144.734 145.017 145.69 145.98 146.726 
144.903 145.145 145.888 146.15 146.967 147.253 148.124 145.256 145.438 
146.257 146.464 147.362 147.602 148.572 148.808 149.792 145.724 145.879 
146.737 146.932 147.89 148.112 149.15 149.369 150.431 150.618 151.654 
146.238 146.38 147.247 147.449 148.445 148.69 149.762 149.999 151.077 
151.29 152.348 152.525 153.52 146.773 146.918 147.814 148.001 149.026 
149.267 150.358 150.607 151.676 151.909 152.956 153.182 154.197 154.357 
155.267 147.295 147.471 148.407 148.605 149.629 149.863 150.93 151.184 
152.232 152.475 153.502 153.749 154.767 154.988 155.924 156.043 156.843 
147.808 148.004 148.949 149.176 150.152 150.407 151.402 151.691 152.701 
152.989 153.995 154.265 155.261 155.515 156.447 156.635 157.435 157.525 
158.213 148.414 149.776 149.247 149.586 151.222 150.657 150.985 150.444 
150.783 152.842 152.191 152.548 151.907 152.259 151.676 152.041 154.657 
153.958 154.408 153.65 154.061 153.311 153.716 153.029 153.4 156.447 
155.813 156.321 155.616 156.08 155.284 155.687 154.869 155.23 154.449 
154.755 158.132 157.556 158.054 157.452 157.902 157.234 157.589 156.838 
157.127 156.336 156.596 155.797 156.032 159.721 159.209 159.707 159.127 
159.553 158.929 159.273 158.601 158.887 158.163 158.407 157.631 157.83 
157.03 157.19 161.055 160.697 161.202 160.724 161.154 160.562 160.936 
160.272 160.632 159.919 160.236 159.448 159.648 158.807 158.904 158.088 
158.145 162.06 161.861 162.366 162.065 162.514 162.082 162.476 161.923 
162.3 161.674 162.021 161.295 161.495 160.636 160.665 159.774 159.744 
158.931 158.908 147.941 147.681 148.301 149.303 147.423 148.073 149.114 
149.724 150.762 147.133 147.854 148.947 149.557 150.639 151.235 152.346 
146.832 147.635 148.862 149.452 150.564 151.141 152.32 152.93 154.126 
146.59 147.421 148.794 149.432 150.596 151.137 152.349 152.955 154.227 
154.788 155.954 146.486 147.234 148.597 149.326 150.525 151.156 152.371 
153.023 154.323 154.921 156.129 156.6 157.67 146.569 147.149 148.354 
149.055 150.22 150.96 152.184 152.964 154.262 154.97 156.177 156.737 
157.805 158.266 159.241 146.76 147.209 148.252 148.817 149.907 150.609 
151.842 152.676 153.985 154.793 155.977 156.654 157.687 158.278 159.227 
159.729 160.568 146.915 147.321 148.245 148.726 149.735 150.351 151.541 
152.33 153.617 154.439 155.591 156.322 157.304 157.993 158.909 159.553 
160.384 160.898 161.584 147.062 145.754 146.498 146.757 144.532 145.224 
145.371 146.16 146.433 143.163 143.966 144.046 144.76 144.826 145.71 
145.979 141.573 142.482 142.645 143.408 143.354 144.06 144.061 145.097 
145.448 140.136 140.891 141.123 141.968 142.085 142.709 142.634 143.282 
143.43 144.561 145.114 139.153 139.619 139.718 140.466 140.743 141.517 
141.723 142.217 142.347 142.914 143.352 144.421 145.149 138.436 138.771 
138.723 139.203 139.355 140.146 140.555 141.358 141.74 142.236 142.582 
143.133 143.739 144.686 145.443 137.701 138.065 138.06 138.384 138.42 
138.91 139.214 140.067 140.63 141.499 141.978 142.566 142.993 143.616 
144.229 145.108 145.785 136.997 137.339 137.454 137.811 137.956 138.242 
138.454 138.936 139.425 140.265 140.908 141.751 142.25 142.905 143.361 
144.063 144.634 145.478 146.046 136.719 136.675 136.805 137.197 136.986 
136.916 137.296 137.447 137.849 137.579 137.335 137.649 137.68 138.106 
138.124 138.443 138.431 138.016 138.24 138.118 138.557 138.514 138.903 
138.814 139.314 139.501 138.978 139.138 138.816 139.219 139.083 139.562 
139.426 139.957 139.934 140.687 140.562 140.076 140.187 139.771 140.057 
139.827 140.296 140.168 140.723 140.649 141.311 141.373 142.092 141.481 
141.068 141.144 140.748 140.926 140.65 141.031 140.908 141.46 141.404 
142.025 142.006 142.647 142.672 143.286 142.325 141.944 142.04 141.653 
141.832 141.501 141.859 141.666 142.229 142.147 142.799 142.733 143.367 
143.3 143.926 143.887 144.534 143.133 142.791 142.951 142.582 142.826 
142.464 142.846 142.572 143.131 142.98 143.645 143.545 144.192 144.08 
144.69 144.603 145.238 145.208 145.878 143.627 144.491 143.871 143.537 
145.503 144.831 144.518 143.844 143.502 146.596 145.885 145.595 144.899 
144.614 143.89 143.596 147.96 147.111 146.869 146.063 145.831 145.077 
144.866 144.109 143.916 149.686 148.71 148.545 147.553 147.336 146.42 
146.243 145.443 145.313 144.544 144.423 151.538 150.556 150.421 149.386 
149.167 148.109 147.883 146.933 146.788 145.968 145.856 145.079 144.948 
153.372 152.408 152.262 151.257 151.046 149.99 149.743 148.694 148.481 
147.526 147.364 146.515 146.365 145.576 145.43 155.14 154.226 154.102 
153.102 152.919 151.868 151.656 150.587 150.362 149.305 149.074 148.088 
147.886 147.013 146.867 146.073 145.968 156.729 155.931 155.844 154.929 
154.773 153.763 153.569 152.513 152.298 151.216 150.954 149.869 149.596 
148.599 148.407 147.548 147.453 146.667 146.605 147.246 148.109 147.963 
148.556 149.098 148.895 149.578 149.385 150.082 150.345 150.039 150.81 
150.553 151.395 151.118 151.961 151.766 151.43 152.235 151.921 152.807 
152.538 153.452 153.151 154.019 153.16 152.89 153.714 153.396 154.225 
153.95 154.805 154.575 155.396 155.141 155.891 154.448 154.254 155.115 
154.845 155.662 155.36 156.164 155.884 156.669 156.411 157.15 156.885 
157.567 155.634 155.502 156.378 156.186 157.036 156.782 157.618 157.302 
158.097 157.744 158.497 158.161 158.883 158.553 159.206 156.672 156.618 
157.489 157.381 158.25 158.098 158.974 158.748 159.557 159.222 159.936 
159.565 160.243 159.897 160.534 160.172 160.706 157.53 157.56 158.435 
158.418 159.3 159.24 160.121 160.006 160.803 160.579 161.233 160.925 
161.509 161.198 161.759 161.441 161.923 161.55 161.914 142.061 141.967 
141.611 140.904 142.079 141.611 140.865 140.514 139.91 142.307 141.818 
141.097 140.613 139.93 139.578 138.996 142.546 142.091 141.431 140.927 
140.18 139.667 138.927 138.607 138.026 142.755 142.325 141.68 141.24 
140.492 139.935 139.101 138.604 137.974 137.715 137.385 142.912 142.502 
141.81 141.418 140.719 140.232 139.467 138.893 138.275 137.853 137.561 
137.352 137.283 142.987 142.627 141.945 141.538 140.885 140.459 139.825 
139.321 138.748 138.277 137.891 137.597 137.377 137.272 137.143 143.02 
142.711 142.138 141.732 141.148 140.708 140.142 139.687 139.129 138.694 
138.183 137.85 137.418 137.24 136.912 136.921 136.744 143.132 142.818 
142.354 141.983 141.491 141.062 140.546 140.067 139.508 139.026 138.472 
138.063 137.586 137.275 136.919 136.736 136.561 136.561 136.588 141.981 
140.835 141.46 141.659 139.836 140.37 140.591 141.254 141.575 138.915 
139.423 139.627 140.26 140.629 141.28 141.63 137.946 138.446 138.612 
139.286 139.672 140.382 140.79 141.385 141.721 137.292 137.541 137.657 
138.229 138.644 139.414 139.933 140.598 141.013 141.54 141.953 137.213 
137.188 137.251 137.47 137.868 138.471 139.118 139.81 140.363 140.901 
141.359 141.883 142.415 137.182 137.242 137.296 137.329 137.592 137.912 
138.505 139.108 139.743 140.306 140.794 141.308 141.824 142.405 142.969 
136.891 137.108 137.234 137.363 137.52 137.716 138.095 138.564 139.135 
139.711 140.232 140.753 141.256 141.813 142.388 142.963 143.49 136.758 
136.877 137.117 137.257 137.466 137.601 137.884 138.183 138.678 139.162 
139.748 140.242 140.805 141.298 141.894 142.427 143.011 143.5 143.976 
142.675 142.379 142.874 143.613 142.254 142.652 143.372 143.837 144.528 
142.242 142.573 143.261 143.661 144.344 144.745 145.347 142.292 142.569 
143.261 143.622 144.367 144.689 145.341 145.597 146.179 142.529 142.687 
143.383 143.679 144.499 144.827 145.612 145.804 146.494 146.612 147.343 
143.021 143.066 143.732 143.891 144.674 144.987 145.84 146.138 146.935 
147.099 147.892 148.017 148.894 143.566 143.608 144.224 144.303 144.977 
145.189 145.983 146.321 147.164 147.48 148.296 148.543 149.368 149.593 
150.424 144.02 144.09 144.661 144.753 145.374 145.521 146.25 146.501 
147.33 147.655 148.494 148.819 149.615 149.916 150.675 150.957 151.679 
144.438 144.492 145.037 145.137 145.765 145.911 146.637 146.831 147.628 
147.876 148.695 148.988 149.778 150.081 150.823 151.115 151.822 152.103 
152.787 146.988 146.493 146.381 145.711 146.002 145.898 145.205 145.13 
144.481 145.465 145.374 144.612 144.548 143.768 143.776 143.025 144.918 
144.8 143.973 143.876 143.001 142.956 142.096 142.156 141.385 144.46 
144.277 143.47 143.284 142.469 142.282 141.482 141.341 140.635 140.619 
140.051 144.179 143.919 143.194 142.928 142.24 141.967 141.295 140.998 
140.361 140.139 139.635 139.562 139.179 144.083 143.77 143.096 142.781 
142.124 141.849 141.19 140.909 140.212 139.96 139.345 139.241 138.791 
138.802 138.441 144.084 143.764 143.105 142.751 142.055 141.744 141.034 
140.756 139.992 139.728 139.004 138.872 138.336 138.36 137.953 138.024 
137.655 144.116 143.807 143.178 142.797 142.097 141.709 141.013 140.649 
139.947 139.568 138.885 138.585 138.079 137.962 137.632 137.6 137.294 
137.278 136.981 
POINT_DATA 1002
SCALARS Distance double
LOOKUP_TABLE default
144.17 143.435 144.038 144.868 144.781 145.139 145.76 145.735 145.983 
146.181 146.772 146.801 146.975 147.118 147.323 147.548 147.699 147.808 
148.091 148.329 148.832 147.921 148.252 148.217 148.848 149.386 149.958 
150.655 148.242 148.535 148.574 149.48 150.443 151.236 151.934 152.519 
148.888 148.825 149.416 150.423 151.564 152.565 153.349 153.916 154.332 
149.89 149.413 150.682 151.734 152.816 153.812 154.677 155.303 155.712 
156.009 151.082 150.36 151.998 153.041 154.056 154.979 155.839 156.541 
156.997 157.285 157.475 143.276 144.001 143.294 144.21 143.325 144.861 
144.344 143.203 145.168 145.89 144.211 142.971 145.325 146.171 147.064 
144.05 142.756 145.336 146.334 147.375 148.199 143.972 142.562 145.41 
146.501 147.552 148.646 148.909 143.806 142.392 145.305 146.562 147.638 
148.787 149.351 149.017 143.606 142.354 144.946 146.259 147.523 148.733 
149.43 149.26 148.961 143.566 142.508 144.685 145.889 147.26 148.618 
149.409 149.334 149.011 149.31 143.406 144.433 144.331 145.392 145.177 
145.566 146.257 145.883 146.693 146.957 146.864 146.728 147.544 148.177 
148.474 147.741 148.121 147.911 148.61 149.229 149.423 149.333 149.813 
148.753 148.6 148.988 149.344 149.378 151.091 151.244 150.474 149.611 
149.136 149.144 149.162 149.064 152.513 152.384 152.318 151.621 150.752 
150.206 149.95 149.707 149.47 153.711 153.464 153.833 153.607 152.995 
152.303 151.798 151.422 151.044 150.672 152.098 152.574 154.034 153.031 
154.538 155.933 153.436 154.949 156.448 158.065 153.91 155.37 156.901 
158.692 160.44 154.532 155.978 157.494 159.311 161.164 162.697 155.085 
156.596 158.185 160.001 161.851 163.495 164.808 155.282 156.846 158.528 
160.418 162.327 164.08 165.622 166.719 155.124 156.673 158.327 160.216 
162.242 164.153 165.909 167.303 168.042 154.812 156.299 157.848 159.597 
161.623 163.662 165.535 167.144 168.212 168.623 153.026 155.008 154.043 
157.116 156.095 155.103 159.542 158.421 157.261 156.121 161.918 160.886 
159.658 158.361 157.062 164.056 163.111 161.974 160.678 159.271 157.854 
166.046 165.137 164.076 162.836 161.431 159.902 158.381 167.582 166.833 
165.919 164.757 163.37 161.853 160.237 158.675 168.402 167.91 167.264 
166.3 164.952 163.484 161.963 160.354 158.824 168.733 168.508 168.699 
168.473 168.526 168.137 168.078 167.893 168.087 167.486 167.129 166.955 
167.425 167.163 166.233 166.186 166.225 166.338 166.252 165.615 164.66 
165.511 165.5 165.408 165.206 164.75 164.071 163.167 164.631 164.45 
164.535 164.246 163.873 163.375 162.637 161.594 163.484 163.288 163.452 
163.208 162.911 162.537 161.905 160.998 159.931 162.346 162.22 162.296 
162.083 161.832 161.539 161.003 160.212 159.328 158.412 168.585 168.678 
168.117 168.34 167.371 168.747 167.696 166.466 168.577 168.6 166.664 
165.422 167.812 168.391 167.909 165.378 164.274 166.386 167.323 167.597 
166.997 164.043 162.996 164.896 165.707 166.428 166.569 166.113 162.605 
161.556 163.588 164.374 164.995 165.417 165.402 165.002 161.08 160.121 
162.152 163.144 163.771 164.095 164.23 164.1 163.75 159.681 158.871 
160.615 161.609 162.35 162.705 162.888 162.971 162.871 162.605 154.023 
155.506 154.643 156.241 155.282 157.076 157.037 155.939 157.958 158.763 
157.825 156.555 158.953 159.873 160.763 158.477 157.129 159.787 160.945 
162.008 162.952 159.108 157.768 160.419 161.649 162.915 164.083 164.975 
159.726 158.369 161.062 162.239 163.449 164.72 165.832 166.686 160.07 
158.729 161.506 162.804 163.96 165.109 166.21 167.192 167.938 152.517 
153.006 151.541 151.944 150.536 153.549 150.864 149.488 152.402 154.126 
149.796 148.436 151.274 152.97 154.75 148.767 147.419 150.176 151.842 
153.639 155.35 147.74 146.452 149.107 150.671 152.525 154.286 155.961 
146.737 145.608 148.07 149.526 151.301 153.214 154.943 156.644 145.881 
144.94 147.095 148.482 150.102 152.006 153.89 155.606 157.236 145.222 