# vtk DataFile Version 4.0
vtk output
ASCII
DATASET POLYDATA
POINTS 1002 float
-75.3561 -107.876 52.412 -75.6568 -106.823 51.8653 -76.3581 -107.246 52.0843 
-75.9489 -108.415 52.6791 -77.0287 -107.877 52.3113 -74.8336 -109.138 53.1293 
-76.4083 -109.131 53.0476 -77.5568 -108.71 52.6996 -75.2528 -109.794 53.4703 
-74.1278 -110.626 54.0684 -76.6615 -110.015 53.5044 -77.8884 -109.641 53.2957 
-75.4951 -110.631 53.8279 -74.4464 -111.498 54.3278 -73.5653 -112.325 55.0713 
-76.7162 -111.033 53.6853 -77.9844 -110.547 53.709 -75.5909 -111.64 53.9412 
-74.6732 -112.539 54.4758 -73.8831 -113.483 55.161 -73.3152 -114.162 56.0125 
-76.6247 -112.074 53.2915 -77.872 -111.396 53.5058 -75.6584 -112.756 53.5981 
-74.9251 -113.626 54.4008 -74.2465 -114.637 55.2801 -73.6221 -115.476 56.0832 
-73.1945 -116.09 56.906 -76.5868 -113.019 52.779 -77.7266 -112.243 52.9434 
-75.8535 -113.779 53.3039 -75.3279 -114.627 54.3908 -74.7849 -115.611 55.5351 
-74.1333 -116.533 56.4151 -73.5545 -117.319 57.145 -73.1336 -117.995 57.8519 
-76.8144 -113.905 52.8619 -77.7239 -113.135 52.7131 -76.3136 -114.65 53.7008 
-75.9298 -115.446 54.9445 -75.4654 -116.412 56.102 -74.8952 -117.345 57.0093 
-74.2548 -118.183 57.7227 -73.6997 -119.007 58.3432 -73.253 -119.675 58.9094 
-77.2839 -114.788 53.6453 -77.9123 -114.048 53.1172 -76.9677 -115.513 54.6618 
-76.6596 -116.234 55.8793 -76.1758 -117.143 56.8856 -75.6728 -118.122 57.6951 
-75.1585 -118.951 58.4485 -74.5799 -119.759 59.0732 -74.0326 -120.536 59.5509 
-73.5559 -121.064 59.9464 -77.8466 -115.613 54.7127 -78.2493 -114.922 53.9195 
-77.6298 -116.356 55.7073 -77.3646 -117.092 56.7195 -76.8694 -117.94 57.5547 
-76.3514 -118.933 58.2807 -75.9547 -119.832 59.0521 -75.5136 -120.578 59.7515 
-74.9717 -121.293 60.2298 -74.4271 -121.884 60.5546 -73.9276 -122.222 60.8294 
-76.3775 -106.094 51.437 -77.1828 -106.538 51.6784 -77.2199 -105.434 50.8458 
-78.0363 -105.882 51.1705 -78.0745 -104.864 50.0607 -77.9386 -107.28 51.8653 
-78.8579 -105.295 50.5423 -78.8664 -104.295 49.1959 -78.7689 -106.721 51.3522 
-78.5584 -108.261 52.223 -79.7029 -104.737 49.8408 -79.6286 -103.665 48.385 
-79.557 -106.182 50.82 -79.4054 -107.789 51.6346 -79.0283 -109.215 52.9747 
-80.5026 -104.269 49.0584 -80.2616 -103.106 47.5657 -80.4154 -105.692 50.3209 
-80.1914 -107.273 51.0994 -80.0525 -108.721 52.4651 -79.3313 -110.01 53.75 
-80.9911 -104.068 48.1125 -80.6328 -102.823 46.5976 -81.1351 -105.443 49.7004 
-80.9595 -106.864 50.6956 -80.9295 -108.266 51.8949 -80.6889 -109.52 53.5553 
-79.4041 -110.796 53.8684 -81.1537 -104.155 47.0585 -80.8118 -102.907 45.5738 
-81.4846 -105.496 48.806 -81.5298 -106.726 50.1374 -81.5559 -107.952 51.2801 
-81.6867 -109.191 52.9825 -80.9667 -110.378 53.9886 -79.2327 -111.689 53.3636 
-81.1917 -104.422 46.1166 -80.9078 -103.33 44.7593 -81.5667 -105.654 47.8134 
-81.887 -106.771 49.3063 -82.0638 -107.797 50.4906 -82.2452 -108.923 52.0338 
-81.9696 -110.109 53.4723 -80.6596 -111.33 53.5534 -78.964 -112.673 52.93 
-81.2066 -104.845 45.4434 -80.9513 -103.993 44.2807 -81.5294 -105.85 46.9875 
-82.0587 -106.875 48.4695 -82.6183 -107.831 49.6566 -82.8859 -108.787 50.9636 
-82.5889 -109.859 52.4191 -81.5441 -111.061 53.1131 -80.0485 -112.363 52.9443 
-78.8184 -113.69 53.0199 -81.145 -105.264 44.6333 -81.3667 -106.027 46.0021 
-81.2805 -106.598 45.2122 -81.5258 -107.29 46.7015 -81.3464 -107.918 45.9321 
-81.8601 -106.945 47.5503 -81.7591 -108.666 47.3298 -81.3788 -109.193 46.5803 
-82.431 -108.28 48.1021 -82.8566 -107.989 48.8441 -81.8662 -109.959 47.7142 
-81.3263 -110.523 47.0721 -82.9252 -109.677 48.4653 -83.8533 -109.375 49.2108 
-83.6922 -108.967 50.0099 -81.5529 -111.19 48.1225 -81.0924 -112.038 47.7418 
-82.5505 -110.67 48.6656 -83.8688 -110.483 49.3809 -84.2051 -110.179 50.27 
-83.4074 -109.871 51.3071 -81.0218 -112.757 49.038 -80.6679 -113.584 48.8906 
-81.4995 -111.793 49.2368 -82.4226 -111.258 49.6169 -83.0769 -111.098 50.3444 
-82.7486 -110.998 51.2707 -82.0506 -110.987 52.25 -80.5516 -114.548 50.4279 
-80.1146 -114.923 50.3418 -80.8051 -113.755 50.4831 -81.0919 -112.873 50.5676 
-81.3821 -112.348 50.9406 -81.2763 -112.25 51.4899 -80.8541 -112.34 52.0214 
-80.4758 -112.391 52.5525 -80.0957 -116.054 51.9044 -79.5865 -116.098 51.7683 
-80.5243 -115.851 52.0284 -80.8186 -115.355 52.119 -80.8852 -114.627 52.3765 
-80.6155 -114.083 52.6965 -80.1453 -113.957 52.7934 -79.7309 -113.955 52.8265 
-79.341 -113.835 52.9542 -79.6823 -117.207 53.235 -79.2451 -117.253 53.0184 
-80.1882 -117.279 53.4625 -80.7691 -117.357 53.6381 -81.175 -117.042 53.9304 
-81.052 -116.326 54.3158 -80.4642 -115.777 54.394 -79.8272 -115.563 54.1664 
-79.3084 -115.365 54.0188 -78.7974 -115.106 53.9952 -78.5061 -116.192 55.4188 
-79.0513 -116.483 55.4812 -78.9246 -117.586 56.8705 -79.6222 -116.841 55.5374 
-79.424 -118.02 56.8699 -79.2864 -119.255 58.0096 -80.3131 -117.139 55.7545 
-79.9935 -118.438 56.9182 -79.7521 -119.823 58.0456 -79.6474 -121.143 59.2343 
-81.1085 -117.584 55.8707 -80.7701 -118.735 57.023 -80.3711 -120.157 58.1558 
-80.208 -121.639 59.423 -80.1306 -122.819 60.6879 -81.4983 -118.308 55.5414 
-81.4646 -119.23 56.7916 -81.1867 -120.36 58.0491 -80.9719 -121.788 59.5541 
-80.8429 -123.082 60.9585 -80.6785 -124.088 62.1053 -81.0789 -118.706 55.1176 
-81.3709 -119.793 56.3143 -81.5975 -120.853 57.5132 -81.6857 -122.069 59.174 
-81.5827 -123.289 60.9251 -81.394 -124.361 62.3151 -81.1401 -125.301 63.4194 
-80.2895 -118.509 54.9106 -80.5714 -119.825 56.1246 -81.1193 -121.259 57.1479 
-81.6913 -122.638 58.535 -81.8958 -123.834 60.3406 -81.8182 -124.905 62.024 
-81.6887 -125.854 63.4216 -81.4632 -126.649 64.5944 -79.7002 -118.302 54.6828 
-79.8597 -119.581 56.0616 -80.3091 -121.189 57.1891 -80.9838 -122.865 58.3176 
-81.475 -124.267 59.7844 -81.6427 -125.479 61.3871 -81.7362 -126.555 62.8894 
-81.7973 -127.367 64.2972 -81.6873 -127.901 65.5192 -79.3197 -118.383 54.3455 
-79.471 -119.59 55.763 -79.7457 -121.038 57.0977 -80.1949 -122.662 58.3037 
-80.6682 -124.151 59.5763 -80.9815 -125.499 60.9413 -81.2373 -126.805 62.2655 
-81.5474 -127.863 63.6007 -81.7763 -128.521 64.9582 -81.7778 -128.854 66.1676 
-78.2954 -116.95 56.3972 -78.7203 -118.47 57.742 -78.0646 -117.805 57.2806 
-79.0717 -120.277 58.9822 -78.3793 -119.484 58.5704 -77.6185 -118.729 58.0535 
-79.4803 -122.169 60.4664 -78.7489 -121.337 60.1198 -77.9072 -120.57 59.478 
-77.0685 -119.772 58.8177 -79.9535 -123.775 61.8961 -79.1981 -123.138 61.6771 
-78.3646 -122.423 61.1391 -77.4659 -121.712 60.3237 -76.6524 -120.827 59.6218 
-80.4089 -125.108 63.2226 -79.6006 -124.742 62.9191 -78.7759 -124.157 62.4586 
-77.8959 -123.544 61.7021 -77.034 -122.766 60.9328 -76.2705 -121.687 60.3471 
-80.7999 -126.385 64.59 -79.9609 -126.144 64.2297 -79.0932 -125.711 63.6861 
-78.1925 -125.146 62.923 -77.3011 -124.485 62.0574 -76.5183 -123.526 61.3905 
-75.772 -122.355 60.8604 -81.1568 -127.553 65.8227 -80.3517 -127.267 65.6352 
-79.464 -126.92 65.1268 -78.5218 -126.414 64.4059 -77.5496 -125.799 63.4641 
-76.6988 -124.999 62.5294 -75.9661 -123.959 61.8164 -75.2075 -122.866 61.2081 
-81.4502 -128.493 66.7624 -80.7625 -128.08 66.889 -79.9007 -127.679 66.5648 
-78.9518 -127.232 65.9477 -77.9185 -126.691 65.0863 -76.9457 -126.007 64.0513 
-76.1436 -125.137 63.056 -75.4032 -124.154 62.2207 -74.6433 -123.169 61.4984 
-81.5938 -129.403 67.1436 -81.1837 -128.911 67.8065 -81.0487 -129.788 67.9697 
-80.5023 -129.101 68.7234 -79.9668 -129.951 68.3551 -80.3989 -128.303 67.9519 
-79.2277 -129.157 69.1186 -78.4875 -129.869 68.1236 -79.5801 -128.306 68.9187 
-79.4191 -127.748 67.5387 -77.6042 -129.132 68.7687 -76.8951 -129.674 67.602 
-78.2054 -128.291 69.318 -78.4902 -127.656 68.3297 -78.3207 -127.247 66.6837 
-75.9293 -128.963 68.1074 -75.2235 -129.492 67.2352 -76.6015 -128.224 68.9215 
-77.1794 -127.546 68.5526 -77.3771 -127.103 67.1382 -77.2058 -126.652 65.589 
-74.2683 -128.651 67.5473 -73.626 -129.271 66.871 -74.976 -127.999 68.1183 
-75.7497 -127.374 68.0812 -76.2585 -126.871 67.1575 -76.3417 -126.418 65.8534 
-76.2405 -125.86 64.4483 -72.8649 -128.288 66.9061 -72.4506 -128.907 66.1762 
-73.4148 -127.711 67.304 -74.2322 -127.192 67.2359 -75.0175 -126.635 66.6941 
-75.3613 -126.101 65.8023 -75.399 -125.57 64.6513 -75.4005 -124.94 63.3548 
-71.8557 -127.877 66.0607 -71.6273 -128.403 65.2798 -72.138 -127.36 66.5384 
-72.7406 -126.953 66.4675 -73.6106 -126.428 66.0202 -74.2336 -125.799 65.409 
-74.4394 -125.238 64.5597 -74.5133 -124.665 63.4617 -74.5922 -123.978 62.3698 
-70.9824 -127.4 65.2134 -70.8149 -127.841 64.482 -71.1216 -126.872 65.7948 
-71.4725 -126.472 65.879 -72.1967 -126.049 65.485 -72.9672 -125.459 64.916 
-73.4025 -124.882 64.2294 -73.5882 -124.343 63.3432 -73.7271 -123.707 62.3849 
-73.8462 -122.987 61.5376 -81.6003 -129.421 65.8454 -81.2433 -129.998 66.7053 
-80.8873 -129.629 65.2823 -80.3245 -130.226 65.9327 -79.8732 -129.474 64.6154 
-80.4273 -130.401 67.2781 -79.2638 -130.089 65.0092 -78.9894 -129.21 63.7808 
-79.3803 -130.552 66.3382 -79.1479 -130.402 67.3891 -78.4182 -129.802 63.8792 
-78.2361 -128.877 62.7405 -78.3663 -130.323 65.2961 -78.1124 -130.314 66.5198 
-77.6455 -130.055 67.1504 -77.5211 -129.303 62.6951 -77.3104 -128.242 61.7863 
-77.4318 -129.95 63.9476 -77.0679 -130.05 65.4361 -76.5946 -129.918 66.4447 
-75.9913 -129.843 66.8597 -76.4132 -128.446 61.8036 -76.3161 -127.329 61.0282 
-76.3017 -129.307 62.6816 -75.9519 -129.788 63.8261 -75.4436 -129.908 65.0989 
-74.8531 -129.978 66.011 -74.226 -129.875 66.5215 -75.4509 -127.425 60.9787 
-75.5268 -126.381 60.1905 -75.2019 -128.354 61.7934 -74.8438 -129.198 62.4973 
-74.4098 -129.788 63.3 -73.8522 -130.065 64.3716 -73.2566 -130.1 65.34 
-72.7947 -129.709 65.9096 -74.7694 -126.444 59.9316 -74.9019 -125.484 59.2139 
-74.4643 -127.345 60.8072 -74.0425 -128.265 61.5693 -73.6289 -129.12 62.0618 
-73.1949 -129.641 62.7425 -72.6669 -129.799 63.7877 -72.1862 -129.651 64.6498 
-71.8807 -129.152 65.0668 -74.176 -125.496 58.8943 -74.3038 -124.61 58.3112 
-73.9501 -126.38 59.639 -73.5617 -127.251 60.4844 -73.0868 -128.074 61.127 
[...]
CELL_DATA 2000
SCALARS Distance double
LOOKUP_TABLE default
140.341 141.183 140.896 141.235 142.152 141.787 142.101 141.836 142.254 
143.198 142.774 143.036 142.728 143.149 142.941 143.501 144.154 143.759 
143.941 143.642 144.063 143.877 144.502 144.333 145.043 144.822 144.548 
144.69 144.478 144.922 144.806 145.516 145.397 146.183 145.997 146.78 
145.288 145.093 145.328 145.198 145.767 145.703 146.532 146.462 147.335 
147.174 147.993 147.785 148.587 145.889 145.668 146.133 145.987 146.764 
146.674 147.634 147.556 148.515 148.364 149.221 149.01 149.83 149.615 
150.408 146.81 146.55 147.266 147.07 148.012 147.852 148.867 148.738 
149.733 149.587 150.492 150.277 151.118 150.881 151.694 151.437 152.16 
147.945 147.709 148.568 148.385 149.37 149.194 150.164 149.997 150.945 
150.81 151.745 151.574 152.45 152.208 153.018 152.741 153.464 153.14 
153.731 139.954 139.685 140.135 140.809 139.452 139.902 140.62 141.077 
141.816 139.207 139.684 140.431 140.918 141.737 142.179 142.939 138.941 
139.455 140.246 140.746 141.601 142.106 142.975 143.366 144.02 138.668 
139.229 140.107 140.611 141.482 141.973 142.896 143.393 144.194 144.429 
144.837 138.384 138.997 139.988 140.537 141.459 141.9 142.824 143.329 
144.277 144.644 145.218 145.174 145.354 138.152 138.758 139.833 140.451 
141.445 141.905 142.792 143.27 144.257 144.76 145.547 145.637 145.894 
145.654 145.81 138.099 138.603 139.679 140.303 141.347 141.872 142.748 
143.209 144.112 144.683 145.559 145.92 146.335 146.218 146.306 146.138 
146.477 138.291 138.643 139.632 140.164 141.203 141.761 142.712 143.174 
144.056 144.533 145.372 145.826 146.358 146.506 146.657 146.574 146.779 
146.849 147.418 138.806 140.007 139.579 140.054 141.273 140.809 141.261 
140.934 141.551 142.551 142.112 142.647 142.259 142.925 142.545 143.148 
143.717 143.357 143.977 143.705 144.489 144.097 144.723 144.154 144.6 
144.809 144.423 144.864 144.778 145.473 145.456 146.027 145.687 145.964 
145.447 145.741 146.069 145.537 145.715 145.428 145.773 145.903 146.298 
146.438 146.57 146.436 146.463 146.283 146.446 147.446 146.91 147.157 
146.493 146.707 146.273 146.585 146.479 146.73 146.681 146.777 146.69 
146.774 146.707 146.771 148.698 148.318 148.822 148.198 148.646 147.819 
148.274 147.474 147.942 147.306 147.706 147.228 147.539 147.172 147.39 
147.056 147.145 149.832 149.543 150.15 149.81 150.466 149.927 150.57 
149.744 150.292 149.291 149.748 148.801 149.213 148.43 148.788 148.115 
148.383 147.749 147.95 148.827 149.315 149.557 150.568 149.833 150.091 
151.141 151.375 152.441 150.411 150.673 151.774 151.982 153.08 153.304 
154.442 151.109 151.36 152.49 152.642 153.722 153.952 155.124 155.39 
156.56 151.718 152.077 153.192 153.353 154.345 154.561 155.695 156.027 
157.213 157.48 158.532 151.829 152.428 153.453 153.857 154.767 155.092 
156.153 156.539 157.72 158.062 159.146 159.351 160.289 151.447 152.166 
153.064 153.751 154.661 155.272 156.331 156.886 158.054 158.502 159.615 
159.917 160.915 161.083 161.981 150.986 151.626 152.473 153.19 154.161 
154.943 156.066 156.842 158.005 158.661 159.742 160.247 161.247 161.612 
162.537 162.737 163.539 150.677 151.224 152.104 152.713 153.72 154.451 
155.579 156.413 157.535 158.351 159.359 160.094 161.024 161.671 162.555 
163.055 163.838 164.122 164.748 148.878 150.67 149.711 149.637 152.544 
151.58 151.541 150.556 150.473 154.56 153.527 153.502 152.48 152.398 
151.377 151.243 156.706 155.655 155.666 154.547 154.489 153.363 153.249 
152.151 152.02 158.682 157.776 157.829 156.77 156.736 155.574 155.484 
154.285 154.162 152.995 152.856 160.435 159.646 159.741 158.83 158.807 
157.772 157.666 156.539 156.383 155.205 155.005 153.823 153.588 162.123 
161.371 161.5 160.658 160.659 159.718 159.593 158.575 158.368 157.301 
157.032 155.914 155.592 154.448 154.119 163.682 163.022 163.137 162.366 
162.357 161.491 161.35 160.392 160.136 159.128 158.798 157.768 157.384 
156.327 155.919 154.856 154.477 164.926 164.443 164.521 163.874 163.802 
163.055 162.861 162.022 161.708 160.78 160.374 159.399 158.948 157.962 
157.494 156.508 156.049 155.081 154.659 165.515 166.084 165.652 165.142 
166.191 166.043 165.553 165.083 164.389 165.69 165.894 165.485 165.291 
164.606 164.174 163.393 164.721 165.161 164.873 164.992 164.378 164.185 
163.404 163.043 162.197 163.6 164.084 163.843 164.191 163.684 163.751 
163.011 162.857 162.018 161.719 160.824 162.482 162.921 162.614 163.051 
162.605 162.89 162.24 162.294 161.498 161.376 160.509 160.255 159.354 
161.369 161.763 161.379 161.791 161.36 161.737 161.19 161.409 160.703 
160.738 159.923 159.815 158.945 158.737 157.863 160.248 160.624 160.218 
160.579 160.148 160.517 160.033 160.328 159.713 159.868 159.122 159.141 
158.317 158.229 157.381 157.223 156.394 159.121 159.499 159.088 159.431 
158.977 159.333 158.851 159.182 158.611 158.846 158.164 158.286 157.524 
157.537 156.733 156.665 155.866 155.752 154.984 165.657 165.635 165.937 
166.226 165.016 165.648 166.039 166.314 166.319 164.078 164.838 165.268 
165.835 165.888 166.096 165.764 163.059 163.835 164.225 164.897 164.973 
165.396 165.102 165.261 164.747 161.855 162.71 163.021 163.76 163.816 
164.358 164.127 164.449 164.041 164.18 163.67 160.408 161.332 161.569 
162.402 162.43 163.105 162.936 163.416 163.133 163.436 163.072 163.167 
162.658 158.904 159.795 159.989 160.838 160.882 161.641 161.556 162.176 
161.999 162.476 162.227 162.52 162.126 162.168 161.599 157.463 158.287 
158.454 159.265 159.344 160.112 160.108 160.793 160.692 161.278 161.081 
161.555 161.231 161.509 161.015 161.062 160.456 156.089 156.852 156.994 
157.772 157.868 158.63 158.653 159.364 159.275 159.919 159.72 160.297 
159.996 160.457 160.028 160.308 159.766 159.867 159.281 150.819 151.595 
151.582 152.32 152.276 152.386 153.235 153.183 153.973 152.826 153.007 
153.952 154.07 154.977 154.933 155.808 153.499 153.616 154.612 154.767 
155.785 155.878 156.83 156.804 157.698 154.201 154.351 155.375 155.52 
156.606 156.717 157.748 157.769 158.697 158.651 159.497 154.7 154.956 
155.97 156.239 157.345 157.567 158.652 158.722 159.677 159.631 160.511 
160.422 161.214 155.128 155.389 156.382 156.706 157.804 158.173 159.292 
159.548 160.522 160.581 161.437 161.413 162.244 162.134 162.828 155.531 
155.814 156.796 157.103 158.174 158.551 159.673 160.046 161.055 161.276 
162.116 162.218 163.018 163.069 163.813 163.682 164.192 155.755 156.132 
157.076 157.457 158.461 158.871 159.926 160.352 161.356 161.687 162.535 
162.743 163.51 163.682 164.427 164.507 165.082 164.897 165.17 150.003 
148.87 149.853 150.682 147.675 148.649 149.462 150.513 151.316 146.56 
147.443 148.188 149.235 150.06 151.091 151.869 145.497 146.314 146.951 
147.943 148.747 149.818 150.667 151.686 152.527 144.46 145.23 145.784 
146.688 147.413 148.48 149.337 150.453 151.337 152.391 153.213 143.519 
144.23 144.766 145.55 146.193 147.152 147.959 149.077 149.972 151.116 
151.968 153.012 153.744 142.667 143.336 143.857 144.576 145.155 145.989 
146.72 147.732 148.613 149.734 150.637 151.727 152.535 153.508 154.204 
141.883 142.489 142.95 143.65 144.178 144.965 145.621 146.543 147.364 
148.423 149.328 150.421 151.275 152.299 153.04 153.972 154.613 141.213 
141.715 142.109 142.739 143.242 143.983 144.605 145.456 146.206 147.192 
148.036 149.114 149.948 151.016 151.752 152.751 153.381 154.31 154.852 
140.987 140.968 141.244 141.864 141.155 141.352 142.036 142.272 143.021 
141.472 141.655 142.398 142.582 143.377 143.579 144.423 141.775 141.989 
142.769 142.995 143.844 144.042 144.927 145.106 146.037 142.139 142.318 
143.141 143.378 144.308 144.549 145.508 145.688 146.658 146.828 147.842 
142.654 142.778 143.647 143.831 144.83 145.071 146.128 146.325 147.343 
147.496 148.515 148.691 149.72 143.229 143.358 144.254 144.419 145.432 
145.658 146.752 146.981 148.044 148.208 149.212 149.366 150.366 150.544 
151.508 143.793 143.944 144.868 145.05 146.061 146.278 147.345 147.593 
148.663 148.885 149.901 150.063 151.029 151.178 152.116 152.267 153.14 
144.386 144.526 145.469 145.661 146.673 146.892 147.925 148.161 149.195 
149.45 150.477 150.706 151.683 151.844 152.752 152.875 153.727 153.841 
154.623 145.049 146.497 145.885 146.165 148.018 147.394 147.699 147.083 
147.4 149.568 148.939 149.279 148.663 149.018 148.37 148.677 151.202 
150.557 150.959 150.309 150.721 150.046 150.392 149.671 149.953 152.872 
152.262 152.748 152.089 152.545 151.826 152.2 151.44 151.747 150.981 
151.25 154.501 153.949 154.493 153.902 154.383 153.685 154.041 153.274 
153.581 152.813 153.096 152.299 152.503 156.071 155.571 156.129 155.602 
156.107 155.479 155.839 155.1 155.395 154.643 154.935 154.157 154.358 
153.501 153.59 157.482 157.093 157.659 157.195 157.713 157.152 157.555 
156.87 157.182 156.446 156.729 155.97 156.165 155.332 155.395 154.51 
154.525 158.594 158.38 158.966 158.634 159.154 158.698 159.11 158.528 
158.837 158.175 158.415 157.704 157.854 157.073 157.111 156.266 156.246 
155.39 155.374 144.654 144.532 145.089 146.096 144.324 144.947 145.996 
146.588 147.614 143.92 144.617 145.649 146.405 147.517 148.135 149.167 
143.429 144.118 145.103 145.937 147.141 147.966 149.149 149.733 150.778 
143.086 143.71 144.769 145.474 146.751 147.585 148.941 149.68 150.865 
151.38 152.413 142.949 143.544 144.768 145.37 146.699 147.377 148.779 
149.509 150.825 151.442 152.568 153.025 154.036 142.939 143.514 144.755 
145.413 146.707 147.393 148.692 149.401 150.677 151.371 152.559 153.139 
154.199 154.639 155.604 143.023 143.524 144.628 145.283 146.446 147.212 
148.395 149.191 150.358 151.135 152.267 152.997 154.059 154.681 155.638 
156.121 156.977 143.175 143.593 144.575 145.109 146.145 146.826 147.941 
148.745 149.896 150.712 151.803 152.58 153.59 154.34 155.273 155.949 
156.778 157.323 158.043 143.738 142.293 143.18 143.54 140.78 141.65 
141.952 142.956 143.325 139.251 140.049 140.243 141.276 141.675 142.72 
143.023 137.797 138.503 138.556 139.497 139.855 141 141.404 142.381 
142.59 136.342 137.062 137.069 137.856 138.086 139.144 139.553 140.667 
140.942 141.888 142.103 134.882 135.609 135.703 136.443 136.627 137.484 
137.804 138.815 139.118 140.131 140.377 141.405 141.792 133.774 134.291 
134.445 135.129 135.392 136.15 136.476 137.273 137.598 138.432 138.76 
139.693 140.143 141.215 141.797 133.211 133.447 133.541 134.021 134.316 
135.002 135.447 136.162 136.606 137.245 137.664 138.346 138.864 139.729 
140.373 141.369 142.01 132.967 133.053 133.056 133.309 133.536 134.063 
134.572 135.269 135.879 136.5 137.034 137.559 138.086 138.709 139.332 
140.131 140.79 141.673 142.268 132.869 132.844 132.834 132.936 133.204 
132.962 133.064 133.05 133.397 134.001 133.557 133.672 133.423 133.833 
133.823 134.47 134.98 134.507 134.655 134.264 134.674 134.493 135.154 
135.142 135.854 135.918 135.515 135.698 135.31 135.637 135.392 135.934 
135.877 136.517 136.505 137.063 136.79 136.445 136.648 136.304 136.537 
136.258 136.62 136.54 137.076 137.109 137.664 137.63 138.127 137.637 
137.31 137.523 137.207 137.408 137.083 137.34 137.155 137.633 137.633 
138.251 138.25 138.84 138.752 139.334 138.515 138.168 138.39 138.072 
138.303 137.956 138.226 137.935 138.419 138.302 138.989 138.939 139.623 
139.525 140.155 140.052 140.71 139.434 139.069 139.296 138.963 139.238 
138.895 139.235 138.912 139.434 139.231 139.942 139.819 140.53 140.384 
141.013 140.881 141.516 141.448 142.123 140.025 140.93 140.275 139.912 
141.99 141.267 140.929 140.228 139.888 143.283 142.459 142.19 141.384 
141.096 140.3 139.99 144.838 143.911 143.704 142.808 142.615 141.709 
141.486 140.562 140.328 146.584 145.597 145.41 144.445 144.285 143.351 
143.184 142.225 142.026 141.054 140.871 148.42 147.422 147.251 146.227 
146.037 145.06 144.867 143.925 143.696 142.757 142.509 141.594 141.378 
150.244 149.283 149.136 148.101 147.892 146.851 146.627 145.619 145.372 
144.391 144.117 143.173 142.906 142.025 141.806 151.958 151.071 150.93 
149.956 149.747 148.719 148.488 147.437 147.196 146.139 145.891 144.849 
144.609 143.61 143.4 142.478 142.32 153.49 152.697 152.555 151.674 
151.476 150.524 150.293 149.287 149.027 147.987 147.726 146.687 146.451 
145.415 145.201 144.186 144.006 143.062 142.933 143.584 144.696 144.403 
144.976 145.927 145.602 146.193 145.86 146.495 147.186 146.876 147.518 
147.16 147.821 147.488 148.254 148.46 148.155 148.851 148.524 149.269 
148.924 149.731 149.393 150.231 149.797 149.49 150.244 149.909 150.723 
150.411 151.273 150.939 151.751 151.381 152.136 151.103 150.866 151.696 
151.38 152.217 151.894 152.753 152.444 153.227 152.869 153.55 153.186 
153.864 152.277 152.134 153.014 152.813 153.669 153.389 154.206 153.893 
154.65 154.294 154.956 154.57 155.212 154.868 155.528 153.327 153.247 
154.122 154.032 154.901 154.74 155.546 155.293 156.036 155.707 156.38 
155.985 156.607 156.219 156.841 156.493 157.066 154.249 154.228 155.077 
155.051 155.907 155.848 156.662 156.521 157.263 157.031 157.697 157.375 
157.958 157.584 158.121 157.766 158.279 157.928 158.359 137.466 137.183 
136.901 136.167 137.21 136.745 135.951 135.655 134.975 137.491 136.922 
136.134 135.627 134.864 134.508 133.89 137.856 137.292 136.561 135.971 
135.203 134.603 133.882 133.524 133.124 138.219 137.695 137.036 136.466 
135.775 135.102 134.399 133.779 133.313 133.014 132.896 138.555 138.081 
137.489 136.968 136.371 135.747 135.146 134.47 134.005 133.467 133.241 
132.968 132.921 138.826 138.406 137.846 137.403 136.855 136.343 135.81 
135.236 134.783 134.228 133.889 133.439 133.21 132.965 132.88 139.075 
138.666 138.12 137.719 137.198 136.777 136.275 135.82 135.358 134.896 
134.469 134.017 133.625 133.268 133.018 132.875 132.834 139.384 138.955 
138.45 138.023 137.556 137.132 136.693 136.257 135.826 135.383 134.938 
134.487 134.022 133.612 133.239 133.002 132.85 132.826 132.855 137.509 
136.207 136.984 137.332 134.994 135.712 136.055 136.897 137.384 133.926 
134.562 134.938 135.712 136.235 137.065 137.647 133.201 133.639 134.053 
134.716 135.27 136.015 136.586 137.387 137.947 132.954 133.15 133.53 
133.995 134.527 135.139 135.667 136.368 136.889 137.666 138.163 132.926 
133.03 133.327 133.63 134.105 134.536 135.047 135.565 136.107 136.729 
137.319 137.975 138.526 132.894 132.983 133.233 133.472 133.922 134.252 
134.784 135.147 135.747 136.189 136.891 137.399 138.112 138.583 139.197 
132.905 132.959 133.192 133.376 133.806 134.114 134.661 135.003 135.599 
135.981 136.665 137.133 137.867 138.338 138.987 139.375 139.902 132.957 
132.998 133.187 133.326 133.675 133.97 134.479 134.863 135.426 135.821 
136.4 136.862 137.485 138.022 138.618 139.112 139.595 139.996 140.395 
138.341 138.23 138.714 139.607 138.298 138.709 139.649 140.063 140.925 
138.519 138.851 139.784 140.17 141.046 141.387 142.173 138.782 139.094 
139.956 140.313 141.159 141.506 142.276 142.601 143.339 138.937 139.275 
140.076 140.444 141.229 141.587 142.363 142.705 143.489 143.798 144.562 
139.146 139.369 140.106 140.475 141.248 141.634 142.426 142.797 143.626 
143.976 144.81 145.087 145.867 139.661 139.667 140.308 140.524 141.293 
141.649 142.487 142.878 143.72 144.097 144.901 145.264 146.028 146.354 
147.093 140.319 140.257 140.825 140.87 141.587 141.794 142.625 142.963 
143.809 144.176 144.941 145.289 145.995 146.371 147.094 147.489 148.222 
140.83 140.849 141.4 141.438 142.1 142.203 142.954 143.168 143.963 
144.267 145.031 145.339 146.05 146.358 147.101 147.46 148.256 148.623 
149.388 143.582 142.991 142.92 142.19 142.438 142.35 141.612 141.522 
140.757 141.863 141.775 141.011 140.935 140.176 140.087 139.312 141.369 
141.217 140.42 140.302 139.516 139.465 138.711 138.647 137.88 141.034 
140.807 140.018 139.783 138.966 138.816 138.035 137.98 137.185 137.149 
136.346 140.74 140.516 139.738 139.466 138.655 138.389 137.587 137.382 
136.554 136.413 135.567 135.537 134.806 140.476 140.244 139.503 139.22 
138.446 138.152 137.399 137.099 136.324 135.984 135.18 134.905 134.234 
134.165 133.723 140.397 140.102 139.483 139.116 138.434 138.047 137.379 
137.025 136.382 135.98 135.302 134.841 134.24 133.907 133.541 133.425 
133.24 140.491 140.177 139.68 139.281 138.702 138.223 137.602 137.147 
136.568 136.157 135.593 135.14 134.589 134.149 133.745 133.468 133.26 
133.146 133.033 
POINT_DATA 1002
SCALARS Distance double
LOOKUP_TABLE default
140.643 139.802 140.581 141.468 141.504 141.597 142.394 142.562 142.446 
142.724 143.371 143.666 143.348 143.658 144.127 144.244 144.557 144.215 
144.633 145.22 145.785 144.849 145.069 144.983 145.575 146.345 146.988 
147.569 145.371 145.434 145.768 146.554 147.47 148.193 148.799 149.394 
146.205 146.035 146.825 147.702 148.648 149.431 150.04 150.652 151.179 
147.415 146.982 148.182 149.033 149.869 150.685 151.364 151.952 152.48 
152.82 148.733 148.122 149.561 150.371 151.091 151.878 152.676 153.311 
153.792 154.12 154.254 139.482 140.344 139.23 140.135 138.994 141.385 
139.926 138.706 141.236 142.594 139.736 138.386 141.08 142.492 143.844 
139.569 138.052 141.02 142.35 143.849 144.893 139.374 137.729 141.026 
142.333 143.79 145.197 145.569 139.175 137.556 140.955 142.358 143.688 
145.296 146.152 145.969 139.082 137.661 140.782 142.307 143.582 145.069 
146.317 146.541 146.418 139.187 138.028 140.631 142.197 143.635 144.952 
146.098 146.665 146.771 147.152 139.205 140.346 140.471 141.614 141.736 
141.827 142.99 142.929 143.338 143.612 144.155 144.07 144.79 145.343 
145.217 145.048 145.314 145.393 146.238 146.503 146.177 146.253 146.645 
145.848 146.084 146.578 146.637 146.582 147.838 147.862 147.385 146.896 
146.784 146.842 146.864 146.885 149.26 148.976 149.375 149.183 148.75 
148.301 147.985 147.773 147.518 150.396 150.126 150.799 151.228 151.305 
150.827 150.121 149.537 149.057 148.579 149.782 150.313 151.611 150.908 
152.203 153.51 151.579 152.839 154.201 155.615 152.382 153.511 154.819 
156.356 157.71 153.025 154.17 155.358 156.91 158.377 159.512 152.958 
154.38 155.753 157.351 158.9 160.165 161.192 152.317 153.919 155.685 
157.556 159.259 160.687 161.895 162.856 151.767 153.338 155.228 157.289 
159.172 160.8 162.256 163.461 164.301 151.511 153.036 154.788 156.724 
158.595 160.314 161.961 163.452 164.605 165.341 150.619 152.514 151.491 
154.557 153.436 152.27 156.794 155.649 154.385 153.093 158.826 157.87 
156.692 155.378 154.016 160.601 159.798 158.756 157.551 156.222 154.778 
162.321 161.579 160.602 159.422 158.133 156.743 155.257 163.891 163.2 
162.294 161.156 159.833 158.429 156.981 155.521 165.139 164.534 163.673 
162.618 161.353 159.938 158.478 157.023 155.603 166.067 165.754 166.434 
165.946 166.197 164.962 165.542 165.335 164.968 163.89 164.611 164.222 
164.469 163.7 162.624 163.425 163.157 163.498 163.087 162.249 161.184 
162.186 162.106 162.234 162.087 161.548 160.699 159.646 160.999 161.004 
160.956 160.892 160.593 159.969 159.102 158.089 159.872 159.87 159.785 
159.706 159.503 159.045 158.355 157.496 156.558 158.756 158.737 158.636 
158.51 158.339 157.992 157.458 156.762 155.943 155.096 165.566 166.182 
165.158 165.608 164.283 166.331 164.627 163.325 165.571 165.765 163.556 
162.299 164.496 164.856 164.688 162.277 160.989 163.232 163.725 163.804 
163.634 160.732 159.503 161.7 162.363 162.725 162.874 162.714 159.151 
158.058 160.085 160.863 161.446 161.834 161.978 161.689 157.652 156.68 
158.559 159.39 160.074 160.558 160.855 160.864 160.495 156.226 155.362 
157.106 157.942 158.628 159.125 159.479 159.654 159.567 159.237 150.821 
152.416 151.55 153.193 152.086 154.098 153.746 152.648 154.921 155.914 
154.457 153.396 155.636 156.8 157.777 155.203 154.008 156.468 157.715 
158.731 159.585 155.66 154.435 157.047 158.521 159.721 160.581 161.369 
156.074 154.878 157.413 158.954 160.405 161.443 162.29 163.075 156.492 
155.224 157.823 159.287 160.78 161.983 162.922 163.843 164.523 149.064 
149.676 147.875 148.399 146.757 150.315 147.177 145.752 148.994 150.875 
146.019 144.725 147.664 149.588 151.54 144.951 143.709 146.387 148.194 
150.234 152.24 144.035 142.816 145.318 146.879 148.808 150.876 152.791 
143.161 142.029 144.379 145.775 147.513 149.521 151.516 153.301 142.282 
141.343 143.414 144.747 146.347 148.237 150.228 152.083 153.737 141.524 