# vtk DataFile Version 4.0
vtk output
ASCII
DATASET POLYDATA
POINTS 1002 float
-79.4578 -107.138 57.667 -79.6902 -106.089 56.7485 -80.327 -106.458 57.0803 
-80.0283 -107.695 58.0142 -80.9462 -106.989 57.4577 -79.1295 -108.403 58.6178 
-80.5844 -108.361 58.4215 -81.5141 -107.668 57.9341 -79.6949 -109.019 59.0201 
-78.7976 -109.661 59.6963 -80.9691 -109.168 58.8074 -81.9305 -108.487 58.3989 
-80.1319 -109.775 59.4055 -79.3335 -110.386 60.105 -78.4642 -111.209 60.833 
-80.9311 -110.252 58.9005 -81.8658 -109.558 58.4763 -80.1592 -110.836 59.6025 
-79.499 -111.478 60.3641 -78.7574 -112.371 61.1353 -78.0035 -113.428 61.8741 
-80.4898 -111.605 58.7004 -81.3102 -110.922 58.1813 -79.8621 -112.234 59.5973 
-79.3339 -112.949 60.5087 -78.7112 -113.954 61.2968 -78.055 -115.021 62.0947 
-77.5416 -115.852 62.8425 -80.2501 -112.953 58.8165 -80.9076 -112.337 58.1789 
-79.7894 -113.649 59.8059 -79.3949 -114.471 60.8204 -78.8578 -115.517 61.6296 
-78.2262 -116.596 62.4028 -77.7496 -117.332 63.2307 -77.391 -117.728 63.9886 
-80.633 -114.129 59.596 -81.0676 -113.557 58.8355 -80.2762 -114.856 60.5265 
-79.9075 -115.773 61.4495 -79.4299 -116.773 62.2566 -78.8313 -117.716 63.0455 
-78.2929 -118.428 63.8828 -77.9022 -118.804 64.703 -77.4899 -119.033 65.4113 
-81.3174 -115.185 60.6295 -81.552 -114.573 59.8103 -81.0224 -115.938 61.448 
-80.5773 -116.883 62.1988 -80.0558 -117.834 62.9585 -79.518 -118.582 63.827 
-78.9679 -119.191 64.7138 -78.4844 -119.667 65.5126 -78.0527 -119.953 66.2272 
-77.5695 -120.175 66.8104 -81.8974 -116.137 61.4866 -82.0572 -115.467 60.692 
-81.6348 -116.92 62.2215 -81.1647 -117.828 62.8871 -80.5926 -118.738 63.6247 
-80.0781 -119.424 64.5477 -79.5661 -119.949 65.4877 -79.0156 -120.489 66.239 
-78.5164 -120.926 66.8648 -78.0682 -121.161 67.4462 -77.6059 -121.311 67.9008 
-80.2847 -105.499 55.9362 -81.0468 -105.754 56.3349 -80.9406 -105.006 55.051 
-81.7644 -105.211 55.4959 -81.6166 -104.459 54.221 -81.7271 -106.261 56.7782 
-82.4838 -104.699 54.6567 -82.3641 -103.794 53.4761 -82.4754 -105.737 55.9923 
-82.3813 -106.951 57.4212 -83.3479 -104.038 53.9012 -83.2721 -103.175 52.6367 
-83.2589 -105.261 55.1578 -83.2167 -106.418 56.8148 -82.9231 -107.749 58.13 
-84.2554 -103.482 53.0784 -84.1435 -102.836 51.4671 -84.1199 -104.714 54.3413 
-84.0001 -106.033 55.9907 -83.8471 -107.228 57.7477 -82.876 -108.881 58.3182 
-84.77 -103.474 51.9422 -84.6107 -102.885 50.0419 -84.7218 -104.466 53.4126 
-84.5896 -105.782 54.9272 -84.5253 -107.043 56.8942 -83.8234 -108.504 58.036 
-82.2401 -110.442 57.9625 -84.8131 -103.966 50.6561 -84.6876 -103.308 48.7849 
-84.8619 -104.756 52.2949 -84.8306 -105.778 53.7586 -84.8475 -107.017 55.6454 
-84.4696 -108.445 57.2711 -83.1782 -110.195 57.6923 -81.7152 -112.021 57.8572 
-84.777 -104.628 49.627 -84.6966 -104.017 47.9993 -84.8734 -105.303 51.2284 
-84.9655 -106.032 52.7005 -85.0423 -107.037 54.4531 -84.8317 -108.411 56.2387 
-83.8913 -110.057 57.1647 -82.5415 -111.764 57.545 -81.6777 -113.279 58.4113 
-84.8809 -105.307 48.989 -84.7831 -104.866 47.6393 -85.009 -105.851 50.4265 
-85.2056 -106.45 51.8686 -85.3777 -107.252 53.5317 -85.2201 -108.422 55.2975 
-84.434 -109.918 56.508 -83.2358 -111.521 57.1494 -82.2977 -113.002 57.9925 
-81.9807 -114.291 59.3079 -84.9819 -105.941 48.2354 -85.1317 -106.315 49.5349 
-85.1282 -106.975 48.8854 -85.2724 -107.358 50.1924 -85.0739 -108.085 49.6581 
-85.3513 -106.857 50.9619 -85.1275 -108.597 51.0702 -84.8685 -109.409 50.612 
-85.5256 -108.096 51.7573 -85.6579 -107.639 52.6108 -84.8067 -110.016 52.0493 
-84.631 -110.931 51.6437 -85.2531 -109.495 52.6485 -85.736 -109.132 53.4739 
-85.667 -108.691 54.4093 -84.4954 -111.684 53.0908 -84.3231 -112.572 52.8069 
-84.7073 -110.95 53.5068 -85.1338 -110.567 54.1277 -85.2862 -110.279 54.9908 
-84.9256 -110.015 55.8327 -84.2138 -113.642 54.47 -83.8845 -114.184 54.2947 
-84.3362 -112.848 54.7211 -84.4197 -112.132 55.0326 -84.4278 -111.776 55.5593 
-84.1577 -111.644 56.2142 -83.6976 -111.557 56.7572 -83.9058 -115.486 56.1126 
-83.3997 -115.587 55.9871 -84.2466 -115.053 56.3298 -84.2787 -114.253 56.5611 
-84.0428 -113.564 56.8517 -83.6701 -113.319 57.2074 -83.2261 -113.227 57.5394 
-82.7579 -113.093 57.7973 -83.5943 -116.898 57.6197 -83.0284 -116.768 57.5736 
-84.1637 -116.846 57.7674 -84.4687 -116.359 58.0293 -84.3329 -115.596 58.4074 
-83.9295 -115.104 58.7633 -83.4674 -114.912 58.9765 -82.9621 -114.684 59.1032 
-82.4452 -114.438 59.2156 -83.3616 -117.997 58.8948 -82.8363 -117.821 58.9216 
-83.9627 -118.094 58.909 -84.464 -117.904 59.0694 -84.6116 -117.329 59.4976 
-84.4055 -116.726 60.0534 -84.0501 -116.408 60.4245 -83.5916 -116.179 60.5564 
-83.0292 -115.884 60.6085 -82.4911 -115.632 60.6607 -82.4183 -116.768 61.9382 
-82.9095 -116.972 61.9689 -82.6779 -118.128 63.2474 -83.51 -117.231 61.9838 
-83.2205 -118.359 63.4199 -82.965 -119.492 64.8495 -84.055 -117.487 61.9413 
-83.8209 -118.614 63.5143 -83.5713 -119.82 65.1107 -83.4982 -120.968 66.5261 
-84.4154 -117.759 61.6702 -84.326 -118.895 63.4327 -84.219 -120.146 65.1847 
-84.2159 -121.349 66.738 -84.207 -122.399 68.0824 -84.6105 -118.258 61.0753 
-84.6328 -119.352 63.0407 -84.778 -120.569 65.0248 -84.9166 -121.705 66.7412 
-84.9277 -122.67 68.3651 -84.761 -123.421 69.9322 -84.5531 -118.867 60.4594 
-84.656 -119.983 62.4298 -84.9962 -121.199 64.613 -85.3505 -122.257 66.492 
-85.4389 -123.117 68.3487 -85.331 -123.81 70.2981 -85.12 -124.254 71.8995 
-84.1601 -119.172 60.1738 -84.3392 -120.369 61.9635 -84.7141 -121.684 64.1221 
-85.2058 -122.858 66.046 -85.5021 -123.798 67.931 -85.6533 -124.56 70.098 
-85.7272 -125.064 71.9748 -85.5886 -125.271 73.1552 -83.5944 -119.132 60.1508 
-83.8137 -120.334 61.7654 -84.1187 -121.659 63.7512 -84.5717 -122.996 65.609 
-85.0064 -124.191 67.3432 -85.4761 -125.196 69.4152 -86.0547 -125.901 71.4562 
-86.3592 -126.23 72.8265 -86.1097 -126.278 73.6334 -83.0479 -118.969 60.1692 
-83.2591 -120.131 61.646 -83.4772 -121.341 63.4437 -83.8219 -122.659 65.2332 
-84.2523 -124.001 66.8431 -84.7781 -125.21 68.6451 -85.6017 -126.149 70.6076 
-86.4573 -126.719 72.1531 -86.718 -126.952 73.131 -86.2422 -126.958 73.8608 
-82.1673 -117.575 62.731 -82.3547 -118.979 64.1799 -81.7679 -118.459 63.4885 
-82.7426 -120.394 65.9566 -81.9782 -119.869 65.1498 -81.2343 -119.375 64.3121 
-83.3617 -121.979 67.6406 -82.457 -121.374 67.014 -81.5623 -120.784 66.1862 
-80.7271 -120.176 65.3083 -83.981 -123.267 69.4012 -82.9918 -122.92 68.7489 
-82.0313 -122.309 68.0338 -81.1141 -121.599 67.1936 -80.2328 -120.802 66.3071 
-84.4699 -123.923 71.5541 -83.5515 -123.764 70.8448 -82.4826 -123.483 69.9478 
-81.5121 -122.973 68.9605 -80.5298 -122.293 67.9443 -79.6185 -121.429 67.0321 
-84.8961 -124.556 73.2887 -84.1525 -124.069 73.0346 -83.1352 -123.842 72.2863 
-81.988 -123.677 71.0925 -80.9073 -123.413 69.7019 -79.8331 -122.895 68.4585 
-78.9896 -122.001 67.563 -85.2932 -125.504 74.0838 -84.5727 -124.67 74.3771 
-83.7637 -124.086 74.2318 -82.589 -123.843 73.3904 -81.3409 -123.776 71.9478 
-80.2134 -123.668 70.3101 -79.1934 -123.22 68.9684 -78.4739 -122.29 68.1042 
-85.4485 -126.4 74.4291 -84.651 -125.562 74.9648 -83.9412 -124.71 75.2427 
-82.9125 -124.136 74.9366 -81.5889 -123.858 73.9549 -80.4392 -123.755 72.4652 
-79.4906 -123.664 70.8125 -78.6415 -123.239 69.4718 -78.0149 -122.354 68.5958 
-85.3664 -127.15 74.5285 -84.5295 -126.556 75.2057 -83.9614 -127.186 75.2287 
-83.1545 -126.534 75.8813 -82.2968 -127.113 75.5436 -83.743 -125.654 75.7093 
-81.4689 -126.531 76.0443 -80.5202 -127.104 75.3987 -82.3008 -125.627 76.1224 
-82.8349 -124.763 75.7396 -79.6183 -126.756 75.768 -78.768 -127.2 75.0395 
-80.478 -125.792 76.0053 -81.114 -124.757 75.7626 -81.4975 -124.124 75.1639 
-77.9248 -126.953 75.2264 -77.331 -127.262 74.3677 -78.6783 -126.243 75.5652 
-79.2999 -124.987 75.4403 -79.7624 -124.03 75.0135 -80.2129 -123.722 74.0971 
-76.6377 -126.876 74.3335 -76.242 -127.318 73.3603 -77.2457 -126.476 74.8771 
-77.9005 -125.449 74.9466 -78.3886 -124.197 74.6743 -78.8891 -123.587 73.9502 
-79.361 -123.593 72.5732 -75.5813 -126.779 73.3144 -75.2791 -127.423 72.4151 
-76.0825 -126.312 73.9625 -76.7974 -125.657 74.2038 -77.4216 -124.624 74.0927 
-77.8926 -123.804 73.5161 -78.3485 -123.551 72.3652 -78.6255 -123.508 70.8824 
-74.5757 -126.766 72.477 -74.4006 -127.385 71.6889 -74.9537 -126.105 73.0795 
-75.6564 -125.51 73.2945 -76.4093 -124.836 73.2073 -76.9389 -124.142 72.7813 
-77.3554 -123.691 71.8638 -77.7088 -123.404 70.6814 -77.9043 -122.995 69.566 
-73.6914 -126.568 71.7407 -73.6644 -127.028 70.9992 -73.9096 -125.907 72.3073 
-74.5051 -125.26 72.441 -75.2678 -124.702 72.254 -75.8442 -124.14 71.9253 
-76.2704 -123.626 71.2847 -76.7036 -123.212 70.3456 -77.0747 -122.734 69.4419 
-77.35 -122.076 68.67 -86.1824 -127.325 73.5793 -84.9635 -127.474 74.2113 
-85.2093 -127.377 73.0593 -83.8923 -127.553 73.4876 -83.7116 -127.302 72.1952 
-83.3094 -127.469 74.6716 -82.6424 -127.518 72.353 -82.5596 -127.182 71.1008 
-82.3104 -127.508 73.6233 -81.5108 -127.345 74.6678 -81.5831 -127.351 71.0951 
-81.6888 -126.898 70.0105 -81.1751 -127.469 72.2713 -80.5256 -127.422 73.4332 
-79.6774 -127.352 74.3874 -80.4245 -126.986 69.9764 -80.5446 -126.421 69.012 
-79.9677 -127.372 70.937 -79.4071 -127.636 72.0306 -78.8011 -127.783 73.0824 
-78.0612 -127.62 73.9062 -79.2962 -126.554 68.9399 -79.481 -125.884 68.0009 
-78.8844 -127.125 69.7994 -78.4283 -127.741 70.7054 -78.0266 -128.397 71.6386 
-77.4759 -128.526 72.4475 -76.8161 -127.973 73.0385 -78.641 -126.169 67.7916 
-78.8994 -125.351 66.8991 -78.246 -126.851 68.6757 -77.8296 -127.485 69.5541 
-77.4746 -128.413 70.3537 -76.9642 -129.188 71.0296 -76.2921 -129 71.6179 
-75.7305 -128.175 72.0821 -78.2407 -125.688 66.6047 -78.4955 -124.773 65.8088 
-77.8589 -126.536 67.4397 -77.399 -127.122 68.3601 -76.9569 -127.831 69.2028 
-76.4042 -128.837 69.8358 -75.6766 -129.297 70.4076 -75.0935 -128.827 70.9463 
-74.7514 -128.06 71.3569 -77.7525 -124.993 65.5872 -77.9987 -124.136 64.8575 
-77.3961 -125.914 66.3221 -76.9065 -126.599 67.1755 -76.3624 -127.144 68.0526 
[...]
CELL_DATA 2000
SCALARS Distance double
LOOKUP_TABLE default
143.898 144.729 144.52 144.983 145.675 145.419 145.896 145.669 146.157 
146.666 146.391 146.851 146.612 147.111 146.883 147.45 147.537 147.32 
147.736 147.541 148.055 147.864 148.497 148.311 149.076 148.222 148.082 
148.531 148.4 148.999 148.848 149.597 149.437 150.306 150.13 151.028 
149.006 148.817 149.438 149.292 150.095 149.933 150.851 150.667 151.647 
151.448 152.398 152.154 152.986 150.168 149.869 150.694 150.453 151.447 
151.236 152.285 152.063 153.083 152.853 153.799 153.544 154.364 154.05 
154.739 151.575 151.273 152.203 151.924 152.95 152.714 153.75 153.532 
154.494 154.267 155.134 154.896 155.67 155.393 156.064 155.724 156.312 
152.924 152.714 153.634 153.426 154.362 154.165 155.086 154.906 155.778 
155.583 156.38 156.156 156.887 156.638 157.302 157.005 157.586 157.232 
157.74 143.422 143.034 143.537 144.223 142.706 143.185 143.86 144.395 
145.158 142.389 142.874 143.572 144.081 144.868 145.411 146.203 142.11 
142.578 143.316 143.825 144.657 145.191 146.041 146.51 147.189 141.918 
142.352 143.098 143.594 144.465 145.018 145.938 146.427 147.156 147.45 
147.936 141.76 142.199 142.942 143.408 144.256 144.817 145.78 146.348 
147.176 147.496 148.007 148.155 148.631 141.641 142.068 142.837 143.272 
144.06 144.578 145.496 146.136 147.055 147.527 148.142 148.304 148.757 
148.935 149.611 141.732 142.047 142.852 143.214 143.988 144.399 145.249 
145.827 146.774 147.361 148.112 148.422 148.912 149.085 149.668 150.014 
150.874 142.113 142.279 143.065 143.321 144.11 144.415 145.261 145.685 
146.632 147.143 147.985 148.368 148.946 149.181 149.721 150.035 150.789 
151.282 152.192 142.666 143.747 143.302 143.535 144.81 144.373 144.625 
144.232 144.551 145.932 145.457 145.789 145.394 145.82 145.369 145.776 
147.181 146.632 146.964 146.596 147.127 146.747 147.236 146.716 147.149 
148.595 147.962 148.2 147.751 148.196 147.941 148.421 148.097 148.446 
148.018 148.344 150.178 149.525 149.824 149.132 149.462 148.975 149.375 
149.076 149.414 149.107 149.343 149.007 149.227 151.748 151.226 151.756 
151.007 151.426 150.572 150.957 150.247 150.671 150.137 150.522 150.034 
150.335 149.864 150.123 153.126 152.782 153.456 152.952 153.51 152.733 
153.143 152.221 152.645 151.806 152.305 151.555 152.007 151.275 151.649 
150.968 151.32 154.347 154.087 154.755 154.468 155.059 154.604 155.023 
154.339 154.675 153.904 154.312 153.553 153.99 153.194 153.569 152.755 
153.109 152.355 152.735 153.776 154.184 154.471 155.47 154.676 154.938 
155.961 156.206 157.231 155.121 155.434 156.471 156.737 157.812 158.061 
159.183 155.436 155.808 156.871 157.222 158.346 158.67 159.859 160.122 
161.284 155.73 156.082 157.166 157.583 158.793 159.205 160.456 160.785 
161.973 162.209 163.263 155.974 156.344 157.393 157.864 159.132 159.644 
160.957 161.357 162.561 162.848 163.937 164.118 165.044 155.945 156.441 
157.407 157.989 159.201 159.873 161.169 161.742 162.928 163.348 164.472 
164.775 165.819 165.907 166.723 155.636 156.236 157.137 157.813 158.895 
159.701 160.883 161.679 162.792 163.469 164.561 165.145 166.256 166.626 
167.55 167.557 168.162 155.233 155.853 156.725 157.409 158.372 159.183 
160.227 161.122 162.149 163.023 164.027 164.889 165.933 166.716 167.648 
168.111 168.724 168.767 169.077 153.906 155.592 154.723 154.661 157.338 
156.434 156.391 155.487 155.397 159.299 158.283 158.248 157.26 157.184 
156.225 156.111 161.419 160.372 160.363 159.254 159.182 158.1 157.986 
156.955 156.803 163.395 162.475 162.491 161.425 161.337 160.202 160.056 
158.921 158.718 157.63 157.402 165.104 164.309 164.319 163.42 163.299 
162.281 162.076 160.986 160.718 159.585 159.27 158.175 157.883 166.646 
165.89 165.845 165.068 164.929 164.058 163.81 162.846 162.531 161.494 
161.125 160.034 159.652 158.596 158.263 167.984 167.302 167.16 166.459 
166.291 165.538 165.273 164.416 164.052 163.132 162.724 161.755 161.321 
160.309 159.883 158.893 158.512 168.914 168.425 168.197 167.614 167.363 
166.74 166.415 165.7 165.242 164.451 163.939 163.133 162.638 161.795 
161.311 160.411 159.946 159.038 158.619 169.135 169.01 168.945 168.495 
168.513 168.691 168.345 168.215 167.666 167.71 168.065 167.782 167.885 
167.371 167.282 166.653 166.814 167.225 166.98 167.182 166.639 166.726 
166.077 166.093 165.396 165.902 166.341 166.164 166.391 165.847 165.893 
165.188 165.285 164.63 164.725 164.059 164.938 165.383 165.246 165.588 
165.161 165.193 164.497 164.447 163.806 163.892 163.353 163.425 162.81 
164.037 164.389 164.196 164.609 164.304 164.514 163.955 163.906 163.275 
163.225 162.711 162.752 162.237 162.222 161.567 163.248 163.511 163.22 
163.554 163.238 163.575 163.137 163.305 162.731 162.748 162.17 162.182 
161.634 161.647 161.027 160.961 160.241 162.402 162.688 162.323 162.593 
162.19 162.501 162.067 162.366 161.842 162.038 161.424 161.538 160.907 
160.99 160.35 160.374 159.689 159.623 158.909 169.365 169.148 169.33 
169.165 168.268 168.81 168.752 168.925 168.593 167.124 167.778 167.805 
168.238 167.97 168.151 167.716 165.985 166.63 166.644 167.165 166.954 
167.326 166.976 167.185 166.767 164.73 165.429 165.401 165.971 165.827 
166.289 166.108 166.422 166.153 166.289 165.896 163.394 164.104 164.127 
164.726 164.703 165.235 165.29 165.701 165.687 165.823 165.557 165.493 
165.054 162.197 162.852 162.996 163.561 163.653 164.197 164.385 164.946 
165.137 165.466 165.35 165.304 164.893 164.706 164.238 161.099 161.754 
161.967 162.554 162.681 163.216 163.34 163.965 164.132 164.743 164.703 
164.981 164.59 164.547 164.032 163.909 163.446 159.966 160.643 160.831 
161.5 161.602 162.196 162.202 162.811 162.826 163.522 163.469 164.039 
163.716 163.988 163.465 163.552 163.036 163.053 162.569 155.279 155.886 
155.988 156.813 156.523 156.638 157.513 157.586 158.461 157.159 157.29 
158.199 158.306 159.236 159.317 160.273 157.737 157.913 158.862 159.016 
160.02 160.131 161.148 161.209 162.19 158.233 158.451 159.44 159.675 
160.754 160.946 162.02 162.112 163.131 163.149 164.112 158.726 158.935 
159.918 160.205 161.299 161.613 162.689 162.905 163.884 164.019 165.006 
165.082 166.041 159.183 159.407 160.322 160.623 161.653 162.041 163.083 
163.417 164.323 164.575 165.472 165.769 166.758 166.954 167.779 159.484 
159.77 160.596 160.923 161.835 162.263 163.247 163.679 164.57 164.88 
165.678 166.018 166.911 167.354 168.211 168.44 168.922 159.646 159.973 
160.75 161.086 161.878 162.3 163.16 163.679 164.539 164.998 165.745 
166.115 166.848 167.304 168.07 168.534 169.071 169.23 169.342 154.404 
153.207 154.178 154.95 152.019 152.947 153.702 154.735 155.555 150.954 
151.783 152.466 153.458 154.297 155.361 156.198 149.963 150.737 151.347 
152.247 153.031 154.089 154.97 156.014 156.798 148.954 149.705 150.254 
151.122 151.833 152.841 153.689 154.76 155.589 156.583 157.304 147.979 
148.667 149.158 149.994 150.68 151.65 152.465 153.496 154.333 155.355 
156.146 157.1 157.821 147.119 147.731 148.203 148.942 149.627 150.528 
151.352 152.318 153.15 154.134 154.955 155.944 156.73 157.652 158.333 
146.359 146.933 147.414 148.072 148.73 149.546 150.345 151.25 152.049 
152.983 153.766 154.754 155.538 156.524 157.228 158.114 158.678 145.679 
146.222 146.692 147.311 147.909 148.671 149.403 150.262 151.002 151.884 
152.597 153.545 154.282 155.287 155.992 156.946 157.532 158.379 158.857 
145.47 145.48 145.797 146.477 145.556 145.844 146.591 146.906 147.72 
145.812 146.029 146.85 147.124 148.039 148.319 149.24 146.252 146.419 
147.314 147.529 148.506 148.743 149.707 149.924 150.827 146.814 146.955 
147.898 148.089 149.108 149.31 150.295 150.456 151.364 151.518 152.405 
147.47 147.588 148.536 148.705 149.731 149.942 150.974 151.125 152.076 
152.155 153.07 153.167 154.096 148.147 148.268 149.2 149.351 150.339 
150.55 151.604 151.816 152.842 152.951 153.893 153.933 154.843 154.909 
155.8 148.788 148.919 149.828 149.988 150.941 151.142 152.16 152.411 
153.452 153.671 154.63 154.743 155.598 155.658 156.47 156.546 157.324 
149.403 149.526 150.409 150.58 151.519 151.72 152.695 152.934 153.918 
154.186 155.115 155.341 156.164 156.309 157.062 157.163 157.893 157.977 
158.663 150.016 151.337 150.791 151.061 152.784 152.213 152.531 151.926 
152.213 154.235 153.686 154.025 153.443 153.747 153.123 153.403 155.682 
155.122 155.448 154.9 155.223 154.652 154.945 154.32 154.595 157.186 
156.612 156.97 156.366 156.743 156.147 156.488 155.857 156.13 155.494 
155.746 158.616 158.139 158.592 157.996 158.448 157.799 158.194 157.479 
157.753 157.036 157.256 156.603 156.796 159.881 159.531 160.063 159.601 
160.1 159.543 159.95 159.251 159.498 158.716 158.895 158.152 158.326 
157.624 157.745 161.029 160.762 161.336 160.987 161.516 161.092 161.517 
160.933 161.164 160.429 160.57 159.818 159.975 159.226 159.343 158.566 
158.612 161.985 161.832 162.4 162.17 162.72 162.415 162.888 162.415 
162.672 162.006 162.107 161.406 161.517 160.838 160.93 160.184 160.188 
159.392 159.359 149.647 149.466 149.998 150.914 149.203 149.79 150.716 
151.308 152.304 148.867 149.504 150.448 151.073 152.103 152.742 153.772 
148.483 149.168 150.16 150.802 151.854 152.53 153.652 154.257 155.28 
148.059 148.76 149.788 150.501 151.585 152.296 153.451 154.133 155.25 
155.793 156.77 147.774 148.346 149.325 150.065 151.2 152.006 153.196 
153.931 155.044 155.681 156.675 157.22 158.113 147.806 148.18 149.064 
149.637 150.761 151.583 152.869 153.676 154.809 155.442 156.38 156.975 
157.864 158.456 159.309 147.995 148.312 149.138 149.516 150.527 151.2 
152.492 153.339 154.571 155.234 156.16 156.674 157.507 158.102 158.993 
159.608 160.447 148.091 148.478 149.295 149.638 150.52 151.032 152.167 
152.955 154.198 154.967 155.968 156.499 157.287 157.782 158.618 159.234 
160.106 160.703 161.438 148.797 147.352 148.268 148.586 145.675 146.692 
147.017 147.995 148.289 143.91 144.909 145.173 146.264 146.556 147.603 
147.881 142.18 143.1 143.266 144.34 144.602 145.727 146.023 147.13 
147.43 140.478 141.306 141.387 142.427 142.7 143.801 144.134 145.231 
145.597 146.69 147.04 139.056 139.637 139.594 140.516 140.807 141.951 
142.392 143.474 143.906 144.933 145.397 146.412 146.859 138.144 138.456 
138.303 138.861 139.042 140.066 140.594 141.776 142.312 143.36 143.851 
144.861 145.415 146.397 146.938 137.461 137.749 137.643 137.886 137.939 
138.538 139.004 140.035 140.68 141.775 142.318 143.346 143.884 144.942 
145.542 146.555 147.105 136.751 137.125 137.189 137.419 137.516 137.794 
138.157 138.768 139.404 140.284 140.923 141.862 142.429 143.422 144.016 
145.077 145.671 146.686 147.188 136.437 136.417 136.586 136.964 136.785 
136.726 137.104 137.172 137.493 137.465 137.234 137.6 137.529 137.94 
137.837 138.223 138.31 137.969 138.254 138.116 138.545 138.44 138.869 
138.756 139.326 139.247 138.824 138.968 138.74 139.073 139.016 139.463 
139.421 139.955 139.972 140.69 140.193 139.754 139.819 139.457 139.687 
139.532 140.006 139.996 140.617 140.618 141.313 141.368 142.168 141.089 
140.684 140.8 140.375 140.615 140.289 140.787 140.66 141.393 141.36 
142.138 142.089 142.861 142.885 143.74 141.996 141.612 141.84 141.434 
141.77 141.376 141.878 141.615 142.323 142.229 143.027 142.968 143.717 
143.658 144.432 144.49 145.36 142.961 142.587 142.893 142.53 142.933 
142.579 143.061 142.754 143.343 143.175 143.88 143.826 144.548 144.498 
145.206 145.199 145.976 146.079 146.893 143.619 144.702 143.96 143.608 
145.872 145.103 144.772 144.019 143.707 147.193 146.34 146.035 145.235 
144.948 144.172 143.881 148.878 147.856 147.609 146.641 146.391 145.498 
145.242 144.402 144.17 150.839 149.744 149.563 148.451 148.256 147.164 
146.952 145.922 145.724 144.812 144.69 152.745 151.724 151.543 150.478 
150.296 149.187 148.998 147.855 147.662 146.56 146.408 145.449 145.362 
154.473 153.543 153.346 152.366 152.153 151.148 150.937 149.897 149.688 
148.597 148.387 147.3 147.127 146.148 146.042 156.061 155.208 155.045 
154.112 153.906 152.926 152.696 151.713 151.487 150.504 150.277 149.252 
149.023 147.986 147.821 146.856 146.797 157.498 156.741 156.611 155.768 
155.591 154.662 154.438 153.453 153.206 152.225 151.983 151.019 150.781 
149.811 149.607 148.655 148.548 147.654 147.646 148.372 149.265 149.096 
149.633 150.288 150.052 150.624 150.373 150.918 151.443 151.153 151.755 
151.461 152.102 151.81 152.547 152.685 152.384 153.043 152.704 153.4 
153.092 153.9 153.647 154.51 153.961 153.683 154.402 154.064 154.777 
154.452 155.243 154.999 155.826 155.591 156.279 155.201 154.971 155.698 
155.408 156.094 155.801 156.536 156.302 157.069 156.837 157.488 157.166 
157.643 156.339 156.173 156.895 156.651 157.313 157.047 157.743 157.524 
158.257 158.036 158.691 158.375 158.905 158.495 158.975 157.342 157.246 
157.992 157.808 158.496 158.246 158.945 158.708 159.435 159.203 159.865 
159.575 160.138 159.783 160.306 159.908 160.422 158.21 158.183 158.948 
158.853 159.571 159.398 160.094 159.891 160.59 160.371 161.009 160.736 
161.27 160.962 161.448 161.147 161.619 161.293 161.712 141.464 140.996 
140.894 140.389 140.895 140.566 139.963 139.887 139.472 141.072 140.634 
140.001 139.658 139.094 138.983 138.492 141.273 140.865 140.272 139.846 
139.21 138.801 138.136 137.939 137.414 141.457 141.053 140.478 140.104 
139.517 139.05 138.372 137.868 137.284 137.028 136.725 141.752 141.289 
140.706 140.298 139.768 139.36 138.81 138.289 137.753 137.253 136.892 
136.62 136.424 142.119 141.65 141.105 140.624 140.12 139.671 139.198 
138.744 138.272 137.801 137.362 136.954 136.583 136.324 136.037 142.467 
142.03 141.536 141.08 140.612 140.133 139.669 139.183 138.703 138.245 
137.761 137.349 136.887 136.53 136.166 135.931 135.776 142.849 142.398 
141.919 141.494 141.049 140.623 140.172 139.697 139.211 138.703 138.225 
137.741 137.322 136.881 136.575 136.217 136.118 135.911 136.061 141.663 
140.636 141.34 141.776 139.724 140.387 140.833 141.517 141.926 138.707 
139.451 139.896 140.615 141.038 141.663 142.016 137.573 138.313 138.756 
139.595 140.067 140.79 141.199 141.799 142.199 136.805 137.267 137.664 
138.413 138.933 139.748 140.265 140.993 141.468 142.074 142.533 136.404 
136.68 136.975 137.496 137.994 138.682 139.265 140.033 140.615 141.322 
141.813 142.418 142.878 135.97 136.238 136.445 136.907 137.373 137.94 
138.526 139.164 139.797 140.48 141.064 141.69 142.189 142.773 143.295 
135.743 135.831 136.037 136.384 136.88 137.408 138.049 138.601 139.246 
139.805 140.436 141.011 141.613 142.165 142.756 143.302 143.909 136.099 
135.916 136.177 136.21 136.725 137.049 137.754 138.227 138.926 139.393 
140.027 140.511 141.157 141.683 142.35 142.87 143.518 144.012 144.606 
142.403 142.5 142.804 143.513 142.602 142.918 143.634 143.924 144.596 
142.643 142.967 143.714 144.064 144.811 145.052 145.74 142.794 143.022 
143.756 144.124 144.961 145.298 146.091 146.292 147.032 143.14 143.276 
143.972 144.224 145.034 145.403 146.258 146.608 147.418 147.64 148.421 
143.539 143.685 144.417 144.567 145.317 145.533 146.322 146.678 147.515 
147.904 148.719 149.014 149.841 143.975 144.114 144.914 145.07 145.852 
145.949 146.68 146.838 147.635 147.956 148.812 149.186 150.021 150.381 
151.24 144.534 144.607 145.381 145.549 146.34 146.487 147.216 147.312 
148.053 148.218 149.042 149.314 150.155 150.488 151.322 151.714 152.566 
145.148 145.179 145.847 145.977 146.674 146.869 147.562 147.761 148.466 
148.661 149.407 149.622 150.395 150.656 151.451 151.784 152.613 153.003 
153.823 148.644 147.957 147.935 147.173 147.258 147.199 146.35 146.346 
145.508 146.573 146.483 145.605 145.532 144.675 144.656 143.824 145.948 
145.825 144.978 144.849 144.02 143.919 143.111 143.036 142.201 145.431 
145.269 144.453 144.286 143.47 143.333 142.529 142.408 141.576 141.445 
140.595 145.054 144.84 144.041 143.817 142.974 142.795 141.959 141.831 
140.997 140.863 140.057 139.92 139.222 144.859 144.574 143.808 143.489 
142.633 142.343 141.491 141.287 140.471 140.309 139.531 139.413 138.765 
138.711 138.233 144.818 144.485 143.756 143.364 142.536 142.123 141.298 
140.956 140.201 139.92 139.172 138.945 138.249 138.187 137.658 137.758 
137.38 144.819 144.485 143.777 143.381 142.602 142.148 141.369 140.932 
140.235 139.846 139.169 138.777 138.059 137.759 137.129 137.09 136.653 
136.843 136.55 
POINT_DATA 1002
SCALARS Distance double
LOOKUP_TABLE default
144.319 143.312 144.065 145.179 144.946 145.454 146.136 145.947 146.377 
146.643 147.095 146.961 147.326 147.632 148.08 147.912 147.743 148.207 
148.637 149.225 149.927 148.6 148.333 149.088 149.708 150.455 151.245 
151.918 149.526 149.169 150.193 151.008 151.844 152.65 153.305 153.739 
150.918 150.423 151.643 152.509 153.341 154.069 154.68 155.108 155.373 
152.48 151.824 153.215 153.994 154.749 155.393 155.941 156.392 156.694 
156.87 153.841 153.109 154.584 155.289 155.978 156.611 157.137 157.584 
157.931 158.135 158.216 142.891 143.659 142.556 143.342 142.223 144.583 
143.059 141.887 144.319 145.705 142.792 141.653 144.101 145.553 146.869 
142.614 141.493 143.894 145.404 146.862 147.743 142.495 141.298 143.72 
145.158 146.783 147.888 148.401 142.417 141.214 143.604 144.86 146.473 
147.914 148.633 149.245 142.517 141.468 143.626 144.737 146.154 147.702 
148.727 149.386 150.378 142.856 142.02 143.824 144.884 146.167 147.579 
148.681 149.437 150.346 151.646 143.126 143.928 144.191 145.002 145.239 
144.947 146.134 146.427 146.236 146.28 147.341 147.779 147.423 147.728 
147.705 148.772 149.238 148.494 148.676 148.864 148.777 150.57 150.732 
150.135 149.762 149.695 149.689 149.572 152.382 152.136 152.323 151.827 
151.29 151.035 150.848 150.59 153.833 153.413 154.157 154.055 153.551 
153.099 152.785 152.39 151.97 155.017 154.613 155.417 155.604 155.414 
155.064 154.777 154.41 153.908 153.452 154.769 155.195 156.449 155.714 
156.977 158.271 156.179 157.523 158.939 160.342 156.469 157.968 159.553 
161.086 162.425 156.716 158.317 160.098 161.719 163.118 164.251 156.905 
158.563 160.52 162.257 163.71 164.989 165.895 156.816 158.504 160.541 
162.452 164.08 165.63 166.841 167.434 156.476 158.123 160.063 162.05 
163.878 165.73 167.412 168.398 168.656 156.07 157.632 159.367 161.256 
163.143 165.064 167.008 168.525 169.25 169.328 155.559 157.296 156.32 
159.286 158.166 157.069 161.491 160.313 159.069 157.822 163.512 162.473 
161.227 159.876 158.46 165.169 164.28 163.147 161.857 160.423 158.93 
166.609 165.76 164.752 163.537 162.203 160.751 159.277 167.863 167.01 
166.105 164.965 163.662 162.315 160.9 159.473 168.759 167.972 167.108 
166.032 164.732 163.43 162.175 160.861 159.507 169.321 168.758 168.957 
168.362 168.226 167.92 167.612 167.297 167.375 166.821 166.771 166.377 
166.562 165.984 165.428 165.878 165.452 165.846 165.137 164.446 164.02 
164.82 164.543 165.041 164.599 163.76 163.213 162.83 163.805 163.766 
163.966 163.905 163.362 162.705 162.218 161.667 162.964 163.018 162.894 
162.856 162.651 162.181 161.628 161.059 160.358 162.085 162.106 161.923 
161.754 161.593 161.285 160.809 160.286 159.706 159.004 169.45 169.223 
168.775 168.435 167.6 168.602 167.303 166.472 167.683 167.63 166.119 
165.367 166.514 166.67 166.632 164.803 164.023 165.285 165.688 165.971 
165.861 163.489 162.671 164.093 164.735 165.452 165.644 165.17 162.398 
161.523 163.104 163.766 164.656 165.308 165.105 164.408 161.344 160.433 
162.161 162.78 163.476 164.268 164.535 164.133 163.557 160.154 159.313 
160.998 161.649 162.181 162.825 163.317 163.297 162.967 162.584 155.156 
156.741 155.763 157.413 156.396 158.388 158.064 157.019 159.123 160.2 
158.661 157.536 159.866 161.075 162.173 159.161 158.007 160.5 161.899 
163.09 164.132 159.639 158.534 160.956 162.441 163.729 164.837 166.053 
160.052 158.966 161.277 162.727 164.082 165.161 166.419 167.804 160.295 
159.193 161.443 162.787 164.231 165.399 166.475 167.84 168.992 153.447 
153.935 152.244 152.666 151.153 154.509 151.537 150.178 153.202 155.182 
150.502 149.215 152.009 153.886 155.844 149.405 148.249 150.863 152.632 
154.552 156.373 148.353 147.342 149.722 151.461 153.307 155.142 156.925 
147.504 146.516 148.757 150.408 152.192 153.956 155.769 157.5 146.784 
145.781 147.961 149.478 151.155 152.806 154.539 156.307 157.878 146.106 