# vtk DataFile Version 4.0
vtk output
ASCII
DATASET POLYDATA
POINTS 1002 float
-77.558 -107.249 58.575 -77.8673 -106.312 57.8063 -78.5321 -106.637 58.0198 
-78.1671 -107.625 58.8532 -79.1791 -106.988 58.358 -77.0691 -108.296 59.5172 
-78.7248 -108.091 59.2276 -79.8056 -107.358 58.8508 -77.5485 -108.833 59.7793 
-76.6116 -109.446 60.6845 -79.204 -108.637 59.7155 -80.3239 -107.73 59.4762 
-77.9181 -109.541 60.1566 -76.9134 -110.265 60.9361 -76.3773 -110.865 62.1072 
-79.4586 -109.36 60.214 -80.5799 -108.226 60.0943 -78.1794 -110.411 60.6572 
-77.1362 -111.288 61.3593 -76.5754 -112.027 62.404 -76.2418 -112.768 63.5455 
-79.4067 -110.457 60.5946 -80.5629 -109.169 60.5248 -78.2918 -111.565 61.1101 
-77.4063 -112.453 61.9064 -76.8828 -113.314 62.8483 -76.4872 -114.17 63.8752 
-76.0808 -114.96 64.7651 -79.2954 -111.907 60.8971 -80.3732 -110.67 60.6763 
-78.3839 -112.986 61.5136 -77.7396 -113.776 62.438 -77.3679 -114.586 63.4247 
-76.9432 -115.523 64.3308 -76.4269 -116.363 65.1848 -75.9806 -117.027 65.9245 
-79.3534 -113.36 61.2406 -80.1478 -112.292 60.7121 -78.6973 -114.339 62.053 
-78.1981 -115.084 63.038 -77.8912 -115.817 64.0799 -77.4935 -116.716 64.9861 
-76.8956 -117.602 65.7461 -76.3923 -118.306 66.482 -76.0006 -118.843 67.1346 
-79.5897 -114.49 61.7462 -80.0902 -113.548 60.9614 -79.1906 -115.389 62.7561 
-78.7939 -116.166 63.7739 -78.4398 -116.937 64.7708 -78.0441 -117.818 65.7129 
-77.4579 -118.692 66.4752 -76.9017 -119.423 67.1248 -76.5154 -119.993 67.7496 
-76.1333 -120.403 68.2784 -79.984 -115.295 62.4602 -80.3094 -114.423 61.5495 
-79.7279 -116.178 63.5426 -79.4084 -117.031 64.5562 -79.0315 -117.89 65.4607 
-78.6491 -118.811 66.3659 -78.1523 -119.697 67.1944 -77.6045 -120.422 67.8542 
-77.1801 -120.986 68.4148 -76.7967 -121.401 68.9222 -76.3518 -121.656 69.3385 
-78.4986 -105.639 57.2068 -79.257 -105.955 57.431 -79.2734 -104.896 56.6054 
-80.1951 -105.13 56.9232 -80.2549 -104.006 56.007 -80.0029 -106.296 57.854 
-81.3037 -104.186 56.4853 -81.0679 -103.277 55.2623 -80.9979 -105.519 57.4991 
-80.6738 -106.644 58.5427 -82.028 -103.571 55.7989 -81.4891 -103.021 54.2659 
-81.9434 -104.751 57.1171 -81.5542 -105.973 58.3818 -81.235 -106.868 59.4525 
-82.3557 -103.413 54.762 -81.9962 -102.854 53.2702 -82.4011 -104.311 56.2411 
-82.2881 -105.442 57.9362 -82.2151 -106.17 59.5287 -81.7175 -107.15 60.3423 
-82.9482 -103.252 53.7391 -82.7409 -102.518 52.4582 -82.7684 -104.157 55.0027 
-82.7254 -105.228 56.8194 -83.1201 -105.877 59.1 -83.0656 -106.474 60.6037 
-81.907 -108.139 60.8075 -83.637 -103.129 52.8769 -83.1486 -102.507 51.6999 
-83.5059 -104.073 53.9456 -83.2073 -105.252 55.5001 -83.5834 -106.06 57.9476 
-84.0376 -106.515 60.2158 -83.2706 -107.694 60.9789 -81.5587 -109.913 60.6929 
-83.7377 -103.45 52.1213 -82.9836 -103.08 51.0234 -84.0303 -104.205 53.1693 
-83.7935 -105.365 54.5117 -83.7703 -106.401 56.6263 -84.1604 -106.993 59.0564 
-83.9129 -107.843 60.4972 -82.5552 -109.552 60.5995 -80.9952 -111.679 60.4407 
-83.3044 -104.156 51.5811 -82.604 -103.916 50.6037 -83.8825 -104.681 52.5904 
-84.0435 -105.617 53.8239 -83.98 -106.67 55.5786 -84.0251 -107.423 57.6945 
-83.8569 -108.13 59.3746 -82.9893 -109.384 60.0582 -81.7159 -111.154 60.1735 
-80.7291 -112.935 60.5651 -82.648 -104.927 50.9922 -83.2514 -105.305 51.9575 
-82.8008 -106.132 51.464 -83.3852 -106.71 52.4469 -83.163 -107.557 51.9333 
-83.8038 -105.992 53.062 -83.812 -108.222 52.93 -83.4584 -108.869 52.451 
-84.0504 -107.49 53.6792 -84.1351 -106.936 54.5875 -83.9183 -109.401 53.5153 
-83.266 -109.828 53.1524 -84.4161 -108.924 54.3611 -84.5058 -108.289 55.436 
-84.2068 -107.776 56.5075 -83.2823 -110.319 54.3798 -82.7801 -110.983 54.0995 
-83.9686 -110.006 55.1634 -84.4634 -109.558 56.2407 -84.2935 -108.915 57.1952 
-83.8733 -108.444 58.1929 -82.646 -111.793 55.4877 -82.4814 -112.801 55.309 
-82.9216 -111.127 56.0027 -83.4089 -110.732 56.8304 -83.6339 -110.188 57.5889 
-83.3295 -109.65 58.2821 -83.0297 -109.444 59.1729 -82.5223 -113.928 56.7825 
-82.2903 -114.733 56.7335 -82.4829 -112.952 56.9608 -82.4148 -112.237 57.3334 
-82.4856 -111.74 57.8364 -82.4655 -111.247 58.3979 -82.2399 -110.967 59.0695 
-81.9806 -111.023 59.726 -82.4084 -115.892 58.2652 -81.9244 -116.144 58.2583 
-82.5665 -115.188 58.3232 -82.3321 -114.316 58.4206 -81.9924 -113.681 58.6457 
-81.8354 -113.278 59.0689 -81.7731 -112.939 59.6403 -81.566 -112.763 60.15 
-81.1769 -112.81 60.4311 -81.9775 -117.239 59.8651 -81.4448 -117.1 59.7886 
-82.3859 -117.072 60.0161 -82.481 -116.515 60.1807 -82.2491 -115.837 60.3693 
-81.9275 -115.394 60.6368 -81.7437 -115.129 60.9966 -81.607 -114.815 61.3497 
-81.2905 -114.522 61.5356 -80.7998 -114.404 61.5516 -80.593 -115.763 63.0088 
-81.1225 -115.975 63.1053 -81.0958 -117.267 64.7403 -81.5681 -116.406 63.1458 
-81.5839 -117.703 64.88 -81.6591 -118.904 66.4335 -81.8779 -116.858 63.0742 
-81.9778 -118.249 64.9349 -82.1282 -119.395 66.6259 -82.2378 -120.553 68.0378 
-82.2023 -117.129 62.9281 -82.4819 -118.636 64.904 -82.6444 -119.863 66.6573 
-82.8147 -121.004 68.2919 -82.7441 -122.15 69.5393 -82.5272 -117.47 62.7048 
-83.0769 -118.974 64.7326 -83.4164 -120.26 66.4058 -83.4989 -121.44 68.2227 
-83.4541 -122.552 69.7826 -83.1117 -123.594 70.9447 -82.5683 -118.048 62.3984 
-83.1891 -119.536 64.4008 -83.9377 -120.795 65.9069 -84.1237 -121.923 67.683 
-83.9907 -122.997 69.6361 -83.7987 -123.99 71.1216 -83.4634 -124.845 72.4481 
-82.254 -118.454 62.0732 -82.607 -119.931 64.0647 -83.5367 -121.252 65.5118 
-84.101 -122.36 67.0371 -83.9923 -123.422 69.0934 -83.9038 -124.464 70.965 
-83.9395 -125.36 72.4689 -83.8724 -125.949 74.0127 -81.7808 -118.424 61.7589 
-81.845 -119.787 63.7746 -82.5466 -121.172 65.3771 -83.3418 -122.4 66.7339 
-83.4674 -123.557 68.5252 -83.3819 -124.737 70.5255 -83.6554 -125.812 72.2095 
-84.0118 -126.568 73.7414 -84.1548 -126.88 75.2621 -81.3064 -118.17 61.4842 
-81.2888 -119.421 63.4299 -81.6908 -120.777 65.2139 -82.3998 -122.094 66.624 
-82.7762 -123.364 68.1009 -82.7666 -124.645 69.9133 -82.9712 -125.854 71.7043 
-83.4787 -126.834 73.2727 -83.927 -127.436 74.7121 -84.1134 -127.611 75.9958 
-80.3892 -116.673 64.1342 -80.9278 -118.25 65.8714 -80.1195 -117.656 65.2144 
-81.5046 -119.966 67.5215 -80.5943 -119.354 66.8674 -79.7335 -118.664 66.1354 
-82.0002 -121.689 69.1366 -81.1384 -121.111 68.5958 -80.2087 -120.44 67.8466 
-79.3596 -119.677 67.0436 -82.3093 -123.308 70.6948 -81.5534 -122.822 70.3454 
-80.757 -122.142 69.7449 -79.8583 -121.433 68.8535 -78.9516 -120.645 67.96 
-82.6511 -124.638 72.376 -81.871 -124.36 72.0528 -81.1478 -123.773 71.511 
-80.2877 -123.026 70.7071 -79.3524 -122.298 69.7115 -78.4264 -121.44 68.7321 
-83.2402 -125.603 74.2874 -82.4296 -125.406 74.0263 -81.5891 -125.122 73.2627 
-80.5852 -124.514 72.3655 -79.5969 -123.751 71.4441 -78.7701 -122.947 70.4024 
-77.946 -122.013 69.3394 -83.8351 -126.342 75.9286 -83.1347 -125.935 76.0567 
-82.2135 -125.798 75.3438 -81.0392 -125.581 74.1878 -79.8283 -125.007 73.1288 
-78.9578 -124.221 72.1051 -78.2623 -123.351 70.9526 -77.4976 -122.403 69.837 
-84.066 -127.037 76.8409 -83.547 -126.373 77.4023 -82.6521 -126.027 77.216 
-81.4902 -125.981 76.2339 -80.2162 -125.793 74.9616 -79.1621 -125.247 73.758 
-78.401 -124.464 72.5631 -77.6845 -123.571 71.3507 -76.9593 -122.628 70.2506 
-83.8348 -127.965 76.8844 -83.604 -127.256 77.7326 -83.0989 -128.279 77.4886 
-82.5127 -127.574 78.2532 -81.834 -128.503 77.8979 -82.8115 -126.532 78.2381 
-80.9434 -127.946 78.5111 -80.2084 -128.634 78.0608 -81.4404 -126.884 78.6426 
-81.6756 -126.182 77.9656 -79.267 -128.264 78.4785 -78.5535 -128.922 77.7863 
-79.8603 -127.289 78.6721 -80.3135 -126.436 78.2305 -80.4735 -126.097 76.8564 
-77.671 -128.597 78.0659 -77.1551 -129.35 77.0295 -78.3038 -127.603 78.4242 
-78.9121 -126.682 78.0071 -79.325 -126.209 76.8969 -79.3583 -125.878 75.3554 
-76.3522 -128.822 77.1444 -76.1276 -129.459 75.9071 -76.7929 -127.86 77.8563 
-77.4203 -126.881 77.5856 -78.0029 -126.329 76.5252 -78.3259 -125.96 75.2265 
-78.397 -125.321 73.9132 -75.476 -128.698 75.7937 -75.3262 -129.135 74.7249 
-75.6878 -127.943 76.6987 -76.099 -126.957 76.877 -76.6034 -126.288 76.1388 
-77.0519 -125.927 74.9932 -77.3577 -125.322 73.8348 -77.5571 -124.451 72.6185 
-74.7749 -128.311 74.5254 -74.5217 -128.658 73.8035 -75.0027 -127.755 75.2342 
-75.2887 -126.826 75.6874 -75.5868 -125.958 75.5232 -75.9384 -125.519 74.7764 
-76.3274 -125.062 73.7648 -76.6174 -124.285 72.6128 -76.8193 -123.437 71.3931 
-73.9648 -127.828 73.6575 -73.6954 -128.152 73.136 -74.2721 -127.382 74.0832 
-74.6309 -126.564 74.46 -74.8867 -125.558 74.6124 -75.1135 -124.903 74.2882 
-75.5174 -124.515 73.5073 -75.9031 -123.929 72.4589 -76.0859 -123.167 71.3239 
-76.2091 -122.417 70.2631 -83.6597 -128.133 75.6959 -83.2523 -128.602 76.4259 
-82.9199 -128.326 75.175 -82.4435 -128.875 75.665 -82.1866 -128.312 74.2181 
-82.4309 -128.896 76.917 -81.6602 -128.879 74.3869 -81.463 -128.201 72.9078 
-81.5834 -129.094 75.8724 -81.0903 -128.896 77.1947 -80.7504 -128.614 72.9828 
-80.5022 -127.794 71.7439 -80.671 -129.05 74.3243 -80.1832 -129.035 75.8227 
-79.4053 -128.958 77.0903 -79.5759 -127.996 71.9406 -79.4361 -127.103 70.799 
-79.5451 -128.741 72.9901 -79.2247 -129.145 74.1436 -78.5939 -129.33 75.4653 
-77.8627 -129.47 76.4826 -78.5424 -127.303 70.8854 -78.5822 -126.43 69.7336 
-78.3939 -128.16 71.9654 -78.2329 -128.947 72.8602 -77.9025 -129.56 73.8188 
-77.3259 -129.947 74.7989 -76.7076 -129.925 75.5026 -77.8386 -126.701 69.5539 
-77.8791 -125.769 68.591 -77.6191 -127.563 70.6275 -77.4122 -128.397 71.6203 
-77.2509 -129.199 72.4546 -76.8289 -129.881 73.2382 -76.2338 -130.149 73.9158 
-75.7386 -129.805 74.4172 -77.1988 -125.987 68.3077 -77.1995 -124.996 67.5699 
-77.0588 -126.908 69.1525 -76.8095 -127.742 70.1068 -76.608 -128.506 70.9991 
-76.236 -129.237 71.7701 -75.5795 -129.822 72.4524 -75.04 -129.877 73.0382 
-74.7603 -129.355 73.5083 -76.5614 -125.152 67.2862 -76.6214 -124.214 66.6331 
-76.4548 -126.064 67.9777 -76.2173 -126.939 68.7648 -75.9525 -127.756 69.5582 
[...]
CELL_DATA 2000
SCALARS Distance double
LOOKUP_TABLE default
143.407 144.123 143.925 144.275 144.908 144.678 145.033 144.828 145.254 
145.734 145.5 145.876 145.639 146.09 145.91 146.532 146.546 146.347 
146.783 146.547 147.064 146.845 147.54 147.408 148.281 147.395 147.201 
147.755 147.536 148.175 147.939 148.742 148.561 149.522 149.374 150.358 
148.416 148.18 148.875 148.642 149.431 149.182 150.098 149.893 150.921 
150.731 151.749 151.524 152.45 149.557 149.336 150.141 149.916 150.812 
150.559 151.538 151.325 152.376 152.178 153.184 152.945 153.861 153.59 
154.425 150.652 150.514 151.397 151.246 152.198 151.99 152.972 152.774 
153.807 153.623 154.611 154.371 155.259 154.988 155.816 155.524 156.272 
151.691 151.609 152.553 152.48 153.469 153.338 154.312 154.154 155.157 
155.008 155.996 155.784 156.673 156.389 157.201 156.9 157.643 157.306 
157.931 142.997 142.633 143.112 143.72 142.305 142.783 143.424 143.883 
144.516 141.993 142.495 143.197 143.649 144.321 144.73 145.356 141.663 
142.196 142.959 143.458 144.188 144.6 145.232 145.579 146.157 141.376 
141.877 142.616 143.166 143.945 144.469 145.184 145.535 146.115 146.388 
146.971 141.216 141.646 142.328 142.797 143.57 144.169 145.059 145.55 
146.303 146.516 147.107 147.289 147.948 141.16 141.552 142.259 142.605 
143.359 143.855 144.849 145.454 146.462 146.821 147.539 147.613 148.179 
148.333 149.023 141.173 141.538 142.299 142.628 143.401 143.786 144.738 
145.306 146.369 146.921 147.752 148.012 148.519 148.612 149.097 149.352 
150.026 141.298 141.588 142.34 142.686 143.477 143.862 144.749 145.239 
146.186 146.748 147.542 147.993 148.485 148.752 149.11 149.36 149.861 
150.269 150.979 141.678 142.675 142.304 142.675 143.959 143.427 143.778 
143.397 143.853 145.387 144.841 145.204 144.673 145.133 144.694 145.205 
146.494 146.174 146.599 146.175 146.631 146.12 146.571 146.096 146.587 
147.3 147.051 147.471 147.339 147.816 147.531 147.86 147.411 147.681 
147.332 147.725 148.541 147.957 148.253 148.016 148.446 148.378 148.665 
148.432 148.503 148.201 148.35 148.222 148.532 150.384 149.558 149.802 
149.08 149.379 148.982 149.286 149.037 149.191 148.89 149.016 148.779 
149.057 148.938 149.249 152.148 151.514 151.877 150.99 151.26 150.37 
150.678 149.99 150.366 149.816 150.218 149.719 150.161 149.736 150.18 
149.812 150.172 153.447 153.119 153.659 153.051 153.466 152.561 152.93 
151.936 152.42 151.538 152.162 151.392 152.034 151.302 151.861 151.164 
151.622 150.999 151.396 152.406 152.76 153.146 154.345 153.168 153.608 
154.906 155.257 156.539 153.485 154.06 155.467 155.872 157.193 157.509 
158.772 153.697 154.378 155.908 156.421 157.795 158.16 159.458 159.754 
160.956 153.993 154.646 156.29 156.871 158.337 158.748 160.081 160.426 
161.674 161.908 162.982 154.423 155.002 156.629 157.262 158.772 159.265 
160.587 160.992 162.223 162.561 163.658 163.844 164.8 154.715 155.303 
156.696 157.441 158.831 159.527 160.75 161.317 162.422 162.924 163.983 
164.379 165.365 165.599 166.518 154.636 155.278 156.362 157.191 158.368 
159.262 160.371 161.163 162.142 162.836 163.796 164.44 165.424 165.952 
166.896 167.228 168.05 154.265 154.914 155.813 156.618 157.659 158.579 
159.642 160.54 161.504 162.315 163.224 164.011 164.954 165.723 166.659 
167.304 168.119 168.533 169.142 152.609 154.533 153.536 153.563 156.7 
155.606 155.601 154.555 154.535 158.933 157.831 157.823 156.687 156.625 
155.519 155.427 161.108 160.068 160.1 158.958 158.904 157.707 157.605 
156.431 156.319 163.108 162.187 162.27 161.224 161.217 160.038 159.943 
158.706 158.565 157.351 157.178 164.951 164.121 164.266 163.336 163.378 
162.304 162.198 161.015 160.818 159.604 159.353 158.14 157.848 166.728 
165.959 166.159 165.295 165.371 164.384 164.257 163.146 162.877 161.733 
161.421 160.256 159.901 158.707 158.344 168.287 167.674 167.852 167.105 
167.142 166.271 166.112 165.086 164.751 163.655 163.28 162.19 161.802 
160.679 160.254 159.114 158.713 169.38 169.009 169.104 168.559 168.482 
167.811 167.581 166.753 166.372 165.397 164.948 163.927 163.478 162.443 
161.964 160.899 160.405 159.36 158.914 169.84 170.177 169.929 169.564 
170.123 170.072 169.706 169.446 168.908 169.72 169.85 169.497 169.403 
168.879 168.643 167.986 169.106 169.345 169.047 169.069 168.55 168.453 
167.829 167.598 166.812 168.434 168.705 168.432 168.535 168.01 168.002 
167.374 167.298 166.568 166.312 165.424 167.632 167.975 167.668 167.854 
167.308 167.361 166.701 166.723 166.025 165.947 165.127 164.859 163.935 
166.585 167.024 166.69 166.991 166.438 166.568 165.877 165.957 165.263 
165.31 164.548 164.443 163.551 163.31 162.375 165.429 165.879 165.553 
165.924 165.401 165.614 164.914 165.047 164.337 164.474 163.761 163.789 
162.949 162.815 161.89 161.691 160.787 164.32 164.729 164.404 164.777 
164.297 164.55 163.877 164.029 163.3 163.476 162.793 162.941 162.184 
162.163 161.28 161.141 160.256 160.1 159.274 169.876 169.734 170.047 
170.26 169.148 169.719 170.041 170.27 170.238 168.238 168.969 169.312 
169.815 169.832 170.027 169.782 167.061 167.904 168.199 168.876 168.892 
169.346 169.151 169.391 169.091 165.659 166.568 166.836 167.624 167.687 
168.277 168.191 168.61 168.46 168.7 168.444 164.226 165.099 165.371 
166.2 166.365 167.064 167.138 167.674 167.682 168.048 167.917 168.073 
167.72 162.868 163.692 163.958 164.764 164.973 165.746 165.906 166.599 
166.678 167.225 167.136 167.462 167.128 167.231 166.703 161.516 162.334 
162.577 163.377 163.562 164.352 164.492 165.272 165.33 166.042 165.947 
166.495 166.194 166.501 166.014 166.114 165.545 160.183 160.966 161.18 
161.973 162.13 162.919 163.023 163.806 163.834 164.577 164.482 165.141 
164.911 165.417 165.047 165.337 164.855 164.963 164.438 154.266 154.883 
154.966 155.865 155.758 155.779 156.75 156.753 157.743 156.585 156.709 
157.746 157.766 158.764 158.737 159.716 157.251 157.451 158.535 158.706 
159.751 159.789 160.744 160.698 161.588 157.992 158.122 159.198 159.411 
160.532 160.7 161.733 161.739 162.643 162.538 163.362 158.756 158.895 
159.924 160.098 161.217 161.437 162.558 162.686 163.674 163.625 164.495 
164.337 165.142 159.267 159.542 160.537 160.781 161.831 162.093 163.197 
163.442 164.48 164.585 165.491 165.449 166.285 166.135 166.883 159.557 
159.913 160.896 161.245 162.244 162.585 163.62 163.97 165.003 165.268 
166.196 166.315 167.148 167.16 167.921 167.793 168.384 159.78 160.143 
161.096 161.493 162.447 162.847 163.803 164.234 165.217 165.637 166.572 
166.866 167.689 167.853 168.581 168.637 169.22 169.093 169.437 153.433 
152.316 153.189 153.94 151.23 152.063 152.785 153.789 154.711 150.199 
150.996 151.655 152.612 153.475 154.572 155.495 149.133 149.955 150.564 
151.467 152.234 153.286 154.176 155.289 156.179 148.025 148.864 149.471 
150.35 151.039 152.019 152.859 153.964 154.922 156.024 156.966 147.019 
147.786 148.396 149.243 149.897 150.814 151.584 152.648 153.609 154.777 
155.791 156.877 157.765 146.204 146.849 147.4 148.181 148.805 149.675 
150.385 151.377 152.266 153.433 154.442 155.631 156.534 157.581 158.297 
145.52 146.07 146.519 147.205 147.773 148.594 149.272 150.193 151.002 
152.082 153.039 154.23 155.161 156.275 157.028 158.004 158.618 144.875 
145.376 145.753 146.346 146.857 147.598 148.259 149.112 149.876 150.845 
151.726 152.839 153.778 154.908 155.741 156.746 157.423 158.318 158.895 
144.629 144.594 144.893 145.517 144.718 144.955 145.641 145.905 146.651 
144.956 145.171 145.93 146.163 146.999 147.224 148.091 145.291 145.479 
146.308 146.544 147.462 147.683 148.616 148.799 149.732 145.771 145.912 
146.793 147.001 147.977 148.201 149.193 149.387 150.386 150.548 151.574 
146.314 146.466 147.385 147.571 148.58 148.778 149.809 149.999 151.063 
151.257 152.37 152.525 153.616 146.841 147.027 147.996 148.202 149.251 
149.443 150.508 150.676 151.776 151.974 153.148 153.351 154.492 154.603 
155.597 147.413 147.596 148.621 148.836 149.934 150.145 151.258 151.429 
152.551 152.73 153.902 154.123 155.274 155.441 156.431 156.477 157.297 
148.012 148.209 149.246 149.475 150.58 150.825 151.955 152.178 153.304 
153.504 154.63 154.848 155.945 156.151 157.124 157.238 158.045 158.058 
158.761 148.656 150.122 149.566 149.96 151.829 151.159 151.606 150.962 
151.353 153.822 153.02 153.467 152.723 153.153 152.426 152.784 155.869 
155.075 155.482 154.675 155.083 154.304 154.686 153.893 154.19 157.75 
157.05 157.455 156.681 157.055 156.264 156.64 155.84 156.165 155.308 
155.547 159.571 158.905 159.371 158.621 159.029 158.238 158.623 157.816 
158.149 157.297 157.535 156.643 156.822 161.333 160.749 161.268 160.555 
160.992 160.215 160.608 159.807 160.127 159.276 159.477 158.588 158.71 
157.837 157.934 162.776 162.399 162.928 162.382 162.792 162.115 162.45 
161.719 161.988 161.197 161.348 160.48 160.536 159.656 159.681 158.832 
158.83 163.8 163.623 164.153 163.836 164.248 163.751 164.044 163.42 
163.629 162.928 163.039 162.251 162.263 161.417 161.388 160.532 160.481 
159.628 159.546 148.108 147.628 148.418 149.521 147.023 147.917 149.149 
149.963 151.234 146.39 147.336 148.761 149.68 151.149 151.89 153.287 
145.945 146.803 148.393 149.404 151.094 151.921 153.441 154.066 155.395 
145.897 146.53 148.108 149.112 150.922 151.893 153.507 154.228 155.575 
156.116 157.29 146.159 146.615 148.003 148.863 150.589 151.645 153.31 
154.202 155.593 156.244 157.448 157.953 159.079 146.396 146.842 148.042 
148.748 150.267 151.249 152.878 153.884 155.348 156.165 157.423 158.055 
159.208 159.727 160.802 146.453 146.948 148.067 148.715 150.082 150.928 
152.453 153.421 154.899 155.821 157.124 157.91 159.064 159.73 160.777 
161.33 162.238 146.466 146.943 148.04 148.669 149.97 150.735 152.156 
153.027 154.441 155.345 156.64 157.498 158.649 159.429 160.457 161.138 
162.023 162.569 163.284 147.156 145.638 146.48 146.641 144.234 144.979 
145.075 145.896 145.988 142.909 143.6 143.677 144.407 144.448 145.209 
145.297 141.562 142.221 142.281 143.046 143.166 143.838 143.9 144.599 
144.833 140.371 140.887 140.865 141.601 141.784 142.584 142.777 143.421 
143.639 144.353 144.831 139.442 139.856 139.824 140.319 140.435 141.165 
141.419 142.231 142.526 143.291 143.722 144.548 145.159 138.513 139.008 
139.11 139.513 139.607 140.035 140.182 140.836 141.125 142.003 142.451 
143.405 143.955 144.883 145.437 137.573 138.08 138.276 138.812 139.005 
139.397 139.501 139.859 140.044 140.657 141.098 142.015 142.614 143.601 
144.154 145.063 145.527 136.913 137.248 137.415 137.936 138.191 138.723 
138.931 139.317 139.506 139.875 140.255 140.866 141.49 142.323 142.973 
143.817 144.337 145.138 145.587 136.718 136.631 136.78 137.142 136.718 
136.771 137.091 137.313 137.84 137.071 137 137.333 137.371 137.854 
138.102 138.661 137.716 137.54 137.962 137.826 138.316 138.306 138.866 
138.973 139.432 138.542 138.314 138.801 138.624 139.122 138.949 139.452 
139.379 139.884 139.83 140.283 139.461 139.184 139.636 139.481 139.93 
139.747 140.124 140.001 140.472 140.428 140.974 140.883 141.479 140.468 
140.119 140.503 140.298 140.707 140.495 140.809 140.621 141.05 141.024 
141.656 141.651 142.309 142.228 142.889 141.527 141.136 141.469 141.185 
141.594 141.322 141.691 141.391 141.84 141.687 142.367 142.363 143.099 
143.05 143.676 143.596 144.199 142.537 142.167 142.457 142.15 142.541 
142.269 142.696 142.391 142.865 142.614 143.247 143.153 143.879 143.83 
144.461 144.357 144.905 144.828 145.415 143.139 144.027 143.409 143.098 
145.045 144.371 144.111 143.456 143.206 146.383 145.552 145.346 144.579 
144.369 143.652 143.414 148.159 147.137 146.963 146.004 145.797 144.93 
144.71 143.911 143.668 150.194 149.088 148.913 147.81 147.564 146.511 
146.24 145.306 145.082 144.243 144.073 152.241 151.151 150.969 149.837 
149.591 148.422 148.111 146.983 146.71 145.742 145.576 144.746 144.646 
154.213 153.169 152.997 151.886 151.677 150.514 150.265 149.032 148.75 
147.556 147.331 146.319 146.165 145.323 145.188 156.055 155.096 154.938 
153.883 153.678 152.583 152.381 151.227 150.989 149.746 149.477 148.256 
148.014 146.936 146.726 145.82 145.642 157.691 156.849 156.705 155.753 
155.541 154.522 154.296 153.251 153.008 151.902 151.611 150.429 150.122 
148.928 148.647 147.522 147.289 146.314 146.164 146.827 148.049 147.737 
148.473 149.484 149.12 149.93 149.595 150.463 150.961 150.604 151.427 
151.117 152.03 151.711 152.639 152.411 152.068 152.862 152.578 153.501 
153.264 154.239 153.934 154.864 153.821 153.516 154.332 154.022 154.958 
154.722 155.75 155.505 156.475 156.139 157.011 155.162 154.93 155.84 
155.548 156.513 156.233 157.263 157.016 158.013 157.716 158.594 158.224 
159.004 156.416 156.262 157.243 157.053 158.043 157.795 158.753 158.5 
159.433 159.192 160.063 159.762 160.532 160.144 160.816 157.544 157.467 
158.44 158.37 159.365 159.229 160.128 159.9 160.712 160.497 161.312 
161.119 161.884 161.598 162.237 161.843 162.368 158.503 158.501 159.427 
159.444 160.412 160.404 161.293 161.153 161.896 161.682 162.404 162.248 
162.993 162.822 163.453 163.155 163.625 163.233 163.603 140.619 140.382 
140.118 139.445 140.316 139.903 139.071 138.876 138.301 140.389 139.881 
138.94 138.542 137.813 137.765 137.368 140.575 140.018 139.082 138.511 
137.655 137.354 136.799 136.861 136.538 140.9 140.313 139.5 138.826 
138.007 137.406 136.714 136.408 135.915 135.983 135.726 141.307 140.746 
140.076 139.416 138.744 138.008 137.328 136.634 136.024 135.611 135.278 
135.325 135.38 141.685 141.189 140.582 140.029 139.419 138.792 138.162 
137.433 136.817 136.101 135.712 135.301 135.341 135.372 135.722 142.044 
141.575 140.982 140.485 139.868 139.354 138.741 138.175 137.607 136.978 
136.584 136.033 135.968 135.686 135.916 135.922 136.232 142.445 141.972 
141.423 140.903 140.339 139.8 139.272 138.726 138.273 137.721 137.39 
136.883 136.739 136.375 136.424 136.248 136.401 136.38 136.547 140.628 
139.52 140.201 140.5 138.461 139.11 139.444 140.152 140.561 137.592 
138.149 138.459 139.105 139.505 140.253 140.735 136.812 137.359 137.634 
138.178 138.516 139.197 139.679 140.469 140.998 136.078 136.61 136.941 
137.419 137.728 138.281 138.754 139.471 140.059 140.796 141.335 135.778 
136.075 136.524 136.859 137.212 137.602 138.059 138.658 139.297 139.982 
140.622 141.237 141.817 136.051 136.099 136.58 136.709 137.096 137.263 
137.661 138.065 138.675 139.308 140.014 140.642 141.309 141.867 142.518 
136.431 136.449 136.838 136.922 137.296 137.341 137.687 137.839 138.359 
138.791 139.499 140.088 140.809 141.4 142.085 142.645 143.286 136.658 
136.689 136.98 137.11 137.48 137.582 137.958 138.018 138.494 138.684 
139.348 139.731 140.47 140.958 141.662 142.197 142.838 143.368 143.911 
141.297 141.209 141.579 142.331 141.302 141.601 142.384 142.744 143.62 
141.516 141.774 142.562 142.872 143.743 144.131 145.016 141.779 142.03 
142.811 143.085 143.902 144.251 145.075 145.453 146.143 142.033 142.275 
143.043 143.329 144.114 144.414 145.21 145.523 146.245 146.487 147.087 
142.423 142.542 143.271 143.53 144.334 144.633 145.47 145.748 146.589 
146.773 147.56 147.633 148.429 143.097 143.053 143.722 143.821 144.601 
144.854 145.729 146.047 146.968 147.232 148.131 148.276 149.16 149.242 
150.178 143.858 143.796 144.415 144.386 145.072 145.188 146.006 146.294 
147.207 147.563 148.455 148.76 149.582 149.838 150.654 150.912 151.753 
144.443 144.471 145.048 145.054 145.66 145.707 146.421 146.604 147.441 
147.756 148.609 148.952 149.72 150.045 150.759 151.111 151.837 152.219 
152.943 147.105 146.518 146.406 145.616 145.996 145.856 145.1 144.971 
144.249 145.515 145.383 144.652 144.509 143.8 143.668 142.963 144.994 
144.889 144.142 144.036 143.302 143.208 142.5 142.387 141.675 144.552 
144.396 143.647 143.497 142.719 142.629 141.916 141.88 141.223 141.131 
140.504 144.274 144.058 143.366 143.111 142.357 142.115 141.397 141.288 
140.681 140.652 140.068 140.013 139.467 144.073 143.844 143.19 142.928 
142.223 141.907 141.186 140.918 140.286 140.158 139.585 139.524 138.934 
138.932 138.413 143.976 143.692 143.034 142.76 142.051 141.776 141.032 
140.758 140.053 139.849 139.241 139.105 138.536 138.424 137.89 137.88 
137.473 144.038 143.684 143.028 142.661 141.936 141.6 140.837 140.545 
139.795 139.577 138.941 138.809 138.303 138.166 137.719 137.554 137.185 
137.113 136.877 
POINT_DATA 1002
SCALARS Distance double
LOOKUP_TABLE default
143.737 142.9 143.586 144.455 144.332 144.637 145.251 145.144 145.397 
145.733 146.11 145.953 146.273 146.605 147.263 146.983 146.707 147.264 
147.661 148.359 149.225 147.923 147.565 148.369 148.9 149.669 150.543 
151.311 149.065 148.631 149.645 150.285 151.113 151.985 152.722 153.319 
150.321 149.729 151.044 151.752 152.58 153.438 154.131 154.731 155.227 
151.497 150.737 152.376 153.176 153.992 154.853 155.546 156.104 156.617 
156.972 152.596 151.744 153.569 154.466 155.298 156.182 156.957 157.519 
157.981 158.331 158.492 142.507 143.245 142.149 142.958 141.811 144.074 
142.721 141.45 143.918 144.974 142.419 141.122 143.741 144.91 145.815 
142.093 140.916 143.339 144.76 145.885 146.648 141.932 140.803 142.961 
144.413 146.009 147.018 147.662 141.923 140.755 142.926 144.196 145.945 
147.438 148.166 148.721 141.936 140.829 143.038 144.241 145.783 147.385 
148.437 148.964 149.617 142 141.066 143.085 144.312 145.698 147.083 
148.162 148.864 149.511 150.459 141.971 142.943 143.113 144.227 144.539 
144.166 145.759 145.864 145.629 145.608 146.901 146.718 147.141 147.125 
146.985 147.538 147.649 147.98 148.333 148.128 147.934 148.69 149.288 
148.538 148.828 148.842 148.545 148.577 150.703 151.165 150.017 149.587 
149.449 149.289 149.221 149.38 152.678 152.607 152.255 151.511 150.939 
150.717 150.655 150.613 150.551 154.078 153.662 154.226 153.921 153.362 
152.964 152.81 152.643 152.33 151.989 153.488 153.963 155.587 154.535 
156.224 157.808 155.007 156.86 158.497 160.013 155.322 157.4 159.127 
160.753 162.104 155.659 157.893 159.719 161.401 162.869 163.973 155.992 
158.238 160.186 161.859 163.414 164.693 165.737 156.004 158.097 160.16 
161.908 163.504 165.034 166.37 167.451 155.61 157.477 159.533 161.423 
163.1 164.788 166.455 167.865 168.838 155.062 156.774 158.729 160.665 
162.427 164.15 165.928 167.596 168.899 169.69 154.526 156.707 155.573 
158.981 157.783 156.52 161.21 160.111 158.82 157.478 163.248 162.354 
161.187 159.823 158.396 165.145 164.408 163.373 162.037 160.596 159.07 
166.999 166.336 165.372 164.029 162.567 161.103 159.533 168.575 167.984 
167.11 165.859 164.37 162.904 161.403 159.828 169.617 169.122 168.341 
167.296 165.967 164.511 163.023 161.468 159.921 170.215 169.957 170.364 
169.901 170.108 169.263 169.547 169.51 169.05 168.327 168.982 168.831 
168.616 167.987 167.177 168.306 168.169 168.011 167.407 166.733 165.798 
167.453 167.277 167.248 166.668 166.032 165.313 164.272 166.346 166.134 
166.275 165.792 165.175 164.587 163.747 162.636 165.16 164.992 165.154 
164.777 164.175 163.662 163.036 162.064 160.972 164.034 163.933 164.018 
163.72 163.135 162.591 162.127 161.389 160.389 159.408 169.725 170.203 
169.278 169.678 168.49 170.247 168.74 167.486 169.522 169.731 167.49 
166.21 168.369 168.79 168.937 166.006 164.764 167.016 167.679 168.111 
168.337 164.529 163.385 165.582 166.501 167.238 167.703 167.717 163.164 
162.058 164.183 165.157 166.063 166.737 166.971 166.701 161.783 160.708 
162.786 163.72 164.601 165.329 165.78 165.834 165.51 160.407 159.437 
161.353 162.252 163.1 163.804 164.318 164.639 164.669 164.39 154.078 
155.762 154.814 156.764 155.699 157.727 157.666 156.393 158.811 159.757 
158.296 157.066 159.644 160.801 161.676 159.006 157.907 160.295 161.658 
162.743 163.514 159.773 158.589 160.996 162.361 163.658 164.622 165.351 
160.265 158.949 161.575 162.924 164.308 165.477 166.377 167.128 160.525 
159.197 161.898 163.259 164.679 166.023 167.093 167.977 168.659 152.564 
152.932 151.459 151.805 150.434 153.625 150.755 149.414 152.411 154.396 
149.702 148.29 151.242 153.055 155.082 148.605 147.186 150.113 151.768 
153.761 155.928 147.572 146.304 149.017 150.569 152.423 154.648 156.8 
146.677 145.637 147.959 149.446 151.145 153.233 155.448 157.356 145.901 
145.026 146.985 148.382 149.993 151.873 154.013 156.023 157.708 145.204 