# vtk DataFile Version 4.0
vtk output
ASCII
DATASET POLYDATA
POINTS 1002 float
-76.6683 -106.796 57.4343 -76.9399 -105.754 56.6274 -77.6294 -106.038 56.8157 
-77.293 -107.291 57.6246 -78.3882 -106.46 57.0576 -76.3659 -108.257 58.1852 
-77.9831 -107.94 57.8021 -79.142 -107.019 57.4012 -76.9058 -108.999 58.3113 
-76.1495 -109.843 59.0279 -78.5906 -108.689 58 -79.7479 -107.559 57.8703 
-77.5239 -109.769 58.4776 -76.7089 -110.644 59.2418 -76.1033 -111.338 60.2008 
-78.9555 -109.546 58.2322 -80.1476 -108.206 58.315 -77.9995 -110.643 58.728 
-77.3529 -111.396 59.6689 -76.7575 -112.108 60.6939 -76.1077 -112.968 61.6045 
-79.1847 -110.697 58.496 -80.4055 -109.391 58.5301 -78.2823 -111.782 59.06 
-77.8238 -112.412 60.2142 -77.3705 -113.026 61.3369 -76.6973 -113.908 62.202 
-75.9988 -114.919 62.8483 -79.451 -112.114 58.8457 -80.5177 -111.008 58.5594 
-78.6274 -113.057 59.5319 -78.219 -113.652 60.7712 -77.8425 -114.266 61.9474 
-77.1933 -115.142 62.7423 -76.5145 -116.087 63.3919 -75.9583 -116.963 63.9651 
-79.7541 -113.37 59.3471 -80.499 -112.444 58.6764 -79.1353 -114.151 60.2002 
-78.7429 -114.736 61.3878 -78.3902 -115.422 62.5631 -77.7958 -116.376 63.3521 
-77.1498 -117.314 64.0002 -76.673 -118.074 64.6893 -76.2386 -118.73 65.3185 
-80.1059 -114.252 59.9883 -80.5395 -113.47 59.0571 -79.7352 -114.961 60.9983 
-79.3793 -115.612 62.1125 -79.0289 -116.363 63.2446 -78.5644 -117.324 64.1338 
-78 -118.285 64.8572 -77.5393 -119.026 65.5941 -77.1549 -119.597 66.2741 
-76.7014 -120.06 66.8379 -80.541 -114.974 60.6824 -80.7852 -114.282 59.6479 
-80.3505 -115.656 61.7804 -80.0668 -116.413 62.8856 -79.6913 -117.278 63.9642 
-79.2917 -118.222 64.8909 -78.8381 -119.134 65.6968 -78.3719 -119.869 66.4938 
-77.965 -120.414 67.186 -77.5506 -120.815 67.7109 -77.073 -121.077 68.1459 
-77.6028 -105.18 55.8032 -78.4268 -105.437 55.9891 -78.3079 -104.676 54.8999 
-79.266 -104.929 55.1464 -79.0857 -104.013 54.1336 -79.2916 -105.826 56.345 
-80.1976 -104.168 54.5307 -79.9013 -103.284 53.4227 -80.1973 -105.242 55.6608 
-80.1051 -106.228 56.9921 -81.0865 -103.242 54.0107 -80.5998 -102.777 52.4612 
-81.1461 -104.341 55.1591 -80.9794 -105.475 56.5437 -80.7797 -106.494 57.8576 
-81.6382 -102.712 53.2128 -81.1317 -102.469 51.2528 -81.9344 -103.478 54.6626 
-81.7997 -104.743 55.979 -81.6612 -105.767 57.5651 -81.3141 -107.097 58.4832 
-81.8582 -102.808 52.0296 -81.5359 -102.325 50.0019 -82.3102 -103.4 53.8294 
-82.4702 -104.471 55.2152 -82.443 -105.578 56.7987 -82.3313 -106.647 58.1513 
-81.6327 -108.521 58.5052 -81.9767 -103.231 50.7201 -81.7643 -102.491 48.8601 
-82.4324 -103.962 52.6289 -82.8763 -104.774 54.1761 -83.0951 -105.722 55.7573 
-83.1605 -106.706 57.3557 -82.6988 -108.157 58.098 -81.5692 -110.307 58.2039 
-82.0685 -103.691 49.655 -81.8129 -102.965 48.0085 -82.5441 -104.498 51.4529 
-83.1113 -105.158 53 -83.5049 -105.827 54.5644 -83.7147 -106.741 56.3965 
-83.4971 -108.032 57.6122 -82.5182 -109.82 57.8506 -81.2792 -111.809 58.1217 
-82.1013 -104.176 48.984 -81.7869 -103.621 47.5389 -82.6125 -104.877 50.6255 
-83.223 -105.444 52.0593 -83.6901 -105.937 53.4148 -83.9842 -106.756 55.241 
-83.9942 -108.019 57.0022 -83.3203 -109.575 57.6999 -82.1185 -111.293 57.8224 
-81.1475 -112.934 58.4355 -81.9622 -104.663 48.1318 -82.4165 -105.212 49.6901 
-82.1808 -105.838 48.8646 -82.6383 -106.4 50.5196 -82.3393 -107.138 49.7385 
-83.0274 -105.795 51.2513 -82.6609 -107.771 51.519 -82.4581 -108.49 50.8277 
-83.1726 -107.011 52.024 -83.6011 -106.301 52.5107 -82.6426 -109.01 52.588 
-82.5004 -109.79 51.8861 -83.1784 -108.443 53.0122 -83.8044 -107.776 53.2741 
-84.0548 -107.087 54.032 -82.5167 -110.154 53.3831 -82.2511 -111.207 52.7436 
-83.1677 -109.561 53.9032 -84.0174 -109.389 54.1754 -84.4168 -109.018 54.8439 
-84.2994 -108.405 56.0314 -82.1718 -111.974 54.0328 -81.8495 -112.987 53.7218 
-82.8364 -110.983 54.4823 -83.7943 -110.645 54.7787 -84.4248 -110.729 55.2978 
-84.3501 -110.465 56.3925 -83.873 -109.912 57.355 -81.9761 -114.427 54.921 
-81.682 -114.837 54.9562 -82.4409 -113.542 55.1556 -83.0305 -112.588 55.3655 
-83.525 -112.114 55.5408 -83.6594 -111.953 56.2289 -83.3412 -111.68 57.2051 
-82.7432 -111.388 57.7136 -82.0492 -116.438 56.013 -81.6836 -116.243 56.2324 
-82.4863 -116.19 56.1251 -82.7131 -115.313 56.3991 -82.621 -114.179 56.4385 
-82.536 -113.35 56.5675 -82.5237 -112.983 57.2194 -82.2489 -112.886 57.9198 
-81.6968 -112.887 58.2515 -82.0138 -117.566 57.1966 -81.5471 -117.166 57.4667 
-82.6332 -117.742 57.2398 -83.0095 -117.378 57.642 -82.7308 -116.449 57.9337 
-82.184 -115.321 57.9486 -82.0248 -114.516 58.195 -82.0474 -114.257 58.7711 
-81.7647 -114.29 59.2339 -81.2522 -114.313 59.4676 -81.0847 -115.567 61.0509 
-81.577 -115.77 60.978 -81.4376 -117.099 62.6085 -82.0416 -115.869 60.8244 
-81.9139 -117.486 62.7002 -81.6414 -118.839 64.1589 -82.2198 -116.022 60.4336 
-82.4091 -117.775 62.707 -82.2027 -119.296 64.3998 -82.0635 -120.549 65.7124 
-82.2957 -116.56 59.9787 -82.7194 -118.163 62.3511 -82.8931 -119.665 64.4722 
-82.8959 -120.91 66.0369 -82.9816 -122.069 67.3149 -82.7732 -117.387 59.731 
-82.9842 -118.681 61.7772 -83.3355 -120.098 63.9786 -83.7176 -121.215 66.0184 
-83.921 -122.295 67.6078 -83.8443 -123.369 68.949 -83.2701 -118.099 59.411 
-83.2861 -119.033 61.3049 -83.4119 -120.439 63.2596 -83.998 -121.662 65.383 
-84.5563 -122.639 67.3696 -84.5205 -123.672 69.027 -84.2017 -124.512 70.5367 
-83.0098 -118.492 58.8714 -83.1111 -119.243 60.8516 -83.1407 -120.573 62.8206 
-83.6762 -122.076 64.7381 -84.5609 -123.234 66.656 -84.8818 -124.26 68.4811 
-84.596 -125.128 70.2811 -84.3822 -125.615 71.9788 -82.207 -118.503 58.5609 
-82.3454 -119.402 60.4457 -82.5246 -120.686 62.5402 -83.0389 -122.271 64.4455 
-83.9803 -123.67 66.1206 -84.7299 -124.847 67.712 -84.8087 -125.852 69.4559 
-84.6452 -126.47 71.3954 -84.6725 -126.705 73.1428 -81.5067 -118.209 58.6613 
-81.5343 -119.346 60.2931 -81.8134 -120.713 62.2563 -82.3767 -122.242 64.1677 
-83.1608 -123.666 65.8152 -83.991 -124.94 67.243 -84.519 -126.122 68.6627 
-84.6828 -127.034 70.3592 -84.7765 -127.522 72.244 -84.8986 -127.68 73.8664 
-80.9402 -116.299 62.2135 -81.2461 -117.965 63.8031 -80.7585 -117.12 63.4234 
-81.5007 -119.809 65.393 -81.0676 -118.941 65.1241 -80.43 -118.115 64.618 
-82.1215 -121.579 66.9881 -81.4493 -120.819 66.7427 -80.7659 -120.046 66.2776 
-80.0024 -119.186 65.5919 -83.0104 -123.122 68.6755 -82.0801 -122.573 68.3226 
-81.1572 -121.904 67.7383 -80.2876 -121.169 66.9913 -79.5379 -120.173 66.3644 
-83.6587 -124.273 70.4931 -82.8105 -123.964 70.1587 -81.7357 -123.488 69.4612 
-80.6558 -122.931 68.4479 -79.7381 -122.099 67.6843 -79.0308 -120.949 67.2002 
-84.0681 -125.143 72.2351 -83.4597 -124.807 72.0891 -82.5029 -124.445 71.6227 
-81.3871 -124.036 70.6142 -80.2194 -123.544 69.382 -79.216 -122.669 68.571 
-78.541 -121.489 67.9923 -84.4808 -126.062 73.6771 -83.9848 -125.491 73.6904 
-83.1364 -124.961 73.5045 -82.1801 -124.423 72.9855 -81.0939 -124.083 71.7491 
-79.7938 -123.76 70.2792 -78.7241 -122.968 69.2586 -78.09 -121.838 68.5345 
-84.8041 -127.08 74.6686 -84.3402 -126.379 74.8622 -83.4529 -125.634 74.7649 
-82.498 -124.813 74.6137 -81.6585 -124.22 73.9142 -80.5496 -124.097 72.3904 
-79.2134 -123.894 70.7717 -78.2177 -123.095 69.6888 -77.6213 -122.006 68.9444 
-84.8391 -128.213 74.8274 -84.5644 -127.566 75.5331 -84.2314 -128.537 75.3265 
-83.7001 -127.849 75.9348 -83.032 -128.584 75.3336 -83.7333 -126.751 75.6406 
-82.3803 -127.967 75.8664 -81.4507 -128.708 75.0795 -82.6517 -126.978 76.0534 
-82.5736 -125.766 75.5608 -80.7578 -128.211 75.58 -79.7147 -129.091 74.9548 
-81.3847 -127.171 75.9822 -81.4867 -125.946 75.901 -81.6295 -124.788 75.2701 
-78.8752 -128.404 75.4403 -78.0798 -129.153 74.9608 -79.8031 -127.379 75.6177 
-80.3188 -126.22 75.6283 -80.5609 -125.095 75.269 -80.7697 -124.354 74.1754 
-77.1041 -128.171 75.2548 -76.7136 -128.679 74.6232 -77.8995 -127.388 75.2674 
-78.8267 -126.372 75.0682 -79.345 -125.441 74.7976 -79.5654 -124.772 73.9583 
-79.5417 -124.33 72.4247 -75.7785 -127.802 74.6217 -75.573 -128.225 73.8496 
-76.2399 -127.242 74.7875 -77.1723 -126.383 74.525 -77.9948 -125.52 74.2294 
-78.3167 -124.937 73.6372 -78.3708 -124.444 72.3971 -78.3059 -123.851 70.9044 
-74.7883 -127.576 73.7453 -74.5888 -127.989 73.0256 -75.0695 -127.085 74.092 
-75.766 -126.348 73.9839 -76.6357 -125.501 73.6616 -77.1322 -124.849 73.1833 
-77.2895 -124.262 72.3085 -77.3863 -123.554 71.0969 -77.4956 -122.795 69.9201 
-73.9232 -127.299 72.9681 -73.7331 -127.694 72.3439 -74.1449 -126.796 73.3777 
-74.6273 -126.115 73.4359 -75.3491 -125.348 73.1391 -75.9335 -124.718 72.5863 
-76.2518 -124.099 71.857 -76.4908 -123.284 70.9985 -76.7174 -122.453 70.0602 
-76.9142 -121.751 69.0991 -84.7891 -128.403 73.1987 -84.4572 -128.907 73.9446 
-84.2595 -128.725 72.102 -83.6126 -129.167 72.6049 -83.3013 -128.624 71.0227 
-83.5254 -129.068 74.2652 -82.4309 -129.017 71.4091 -82.0977 -128.296 70.2182 
-82.4392 -129.196 72.9625 -82.0606 -128.999 74.2711 -81.0905 -128.67 70.5245 
-80.8707 -127.826 69.534 -81.1941 -129.059 71.8755 -80.9176 -129.156 73.247 
-80.3632 -129.262 74.2166 -79.8237 -128.209 69.6868 -79.7938 -127.198 68.797 
-79.9128 -128.914 70.7702 -79.8012 -129.207 72.183 -79.3512 -129.563 73.3485 
-78.7691 -129.706 74.2082 -78.8635 -127.593 68.7836 -78.9522 -126.523 67.9124 
-78.8113 -128.703 69.4955 -78.7282 -129.309 70.6537 -78.4016 -129.642 72.0442 
-77.9218 -129.914 73.0925 -77.3912 -129.557 73.9623 -78.1624 -126.841 67.785 
-78.2507 -125.845 66.8408 -78.0241 -128.144 68.3481 -77.8578 -129.186 69.043 
-77.5137 -129.58 70.2873 -76.9936 -129.765 71.5431 -76.529 -129.658 72.5008 
-76.1016 -128.995 73.322 -77.4852 -125.975 66.7033 -77.5386 -125.047 65.7409 
-77.3688 -127.208 67.3964 -77.1992 -128.477 67.9182 -76.8641 -129.157 68.7684 
-76.2571 -129.349 69.9469 -75.6072 -129.429 71.0069 -75.1964 -129.18 71.876 
-74.9232 -128.59 72.586 -76.755 -125.035 65.6505 -76.8097 -124.143 64.7715 
-76.681 -126.112 66.4815 -76.5705 -127.304 67.15 -76.3403 -128.197 67.8087 
[...]
CELL_DATA 2000
SCALARS Distance double
LOOKUP_TABLE default
142.05 142.802 142.626 143.134 143.703 143.467 143.998 143.841 144.464 
144.649 144.415 144.95 144.769 145.411 145.262 145.963 145.553 145.349 
145.914 145.748 146.427 146.27 147.02 146.862 147.663 146.572 146.309 
146.963 146.771 147.551 147.373 148.211 148.016 148.878 148.685 149.56 
147.81 147.485 148.215 147.954 148.827 148.616 149.551 149.324 150.247 
149.996 150.905 150.663 151.556 149.038 148.791 149.548 149.296 150.168 
149.96 150.92 150.723 151.688 151.438 152.373 152.09 153.015 152.723 
153.617 150.088 149.962 150.764 150.596 151.462 151.285 152.233 152.076 
153.072 152.88 153.853 153.594 154.533 154.236 155.133 154.806 155.617 
151.075 150.992 151.866 151.764 152.686 152.551 153.527 153.385 154.406 
154.25 155.254 155.049 155.988 155.73 156.59 156.29 157.044 156.699 
157.327 141.603 141.248 141.71 142.334 140.939 141.406 142.058 142.522 
143.228 140.615 141.118 141.822 142.294 143.007 143.476 144.186 140.264 
140.788 141.501 142.032 142.756 143.26 143.961 144.418 145.085 139.907 
140.43 141.132 141.68 142.431 142.977 143.733 144.214 144.926 145.34 
146.07 139.598 140.104 140.875 141.382 142.22 142.721 143.6 144.066 
144.911 145.291 146.079 146.444 147.27 139.408 139.882 140.771 141.258 
142.197 142.652 143.608 144.055 145.002 145.393 146.236 146.543 147.303 
147.665 148.452 139.39 139.804 140.752 141.245 142.209 142.674 143.573 
144.051 144.969 145.473 146.348 146.721 147.423 147.699 148.341 148.731 
149.444 139.568 139.883 140.811 141.266 142.203 142.653 143.462 143.917 
144.75 145.324 146.257 146.778 147.56 147.833 148.405 148.635 149.234 
149.651 150.379 140.028 141.199 140.788 141.255 142.499 142.032 142.463 
142.096 142.589 143.896 143.377 143.773 143.325 143.722 143.353 143.776 
145.266 144.752 145.136 144.675 145.104 144.599 145.029 144.576 145.096 
146.487 145.994 146.304 145.96 146.505 146.109 146.708 146.134 146.722 
146.137 146.726 147.854 147.228 147.49 147.059 147.589 147.379 148.074 
147.798 148.399 147.897 148.328 147.741 148.056 149.619 148.875 149.296 
148.537 149.01 148.493 149.031 148.822 149.299 149.151 149.422 149.101 
149.197 148.739 148.814 151.372 150.805 151.434 150.669 151.205 150.306 
150.656 149.899 150.147 149.757 149.998 149.811 149.998 149.705 149.838 
149.407 149.594 152.672 152.397 153.07 152.674 153.284 152.58 152.913 
151.889 151.989 151.005 151.202 150.587 151.004 150.603 151.05 150.578 
150.955 150.403 150.77 151.759 152.009 152.446 153.59 152.133 152.715 
153.997 154.436 155.641 152.121 152.803 154.262 154.874 156.238 156.566 
157.768 152.397 152.898 154.474 155.157 156.724 157.192 158.512 158.76 
159.988 153.237 153.447 154.926 155.452 157.048 157.637 159.068 159.475 
160.739 161.005 162.185 154.091 154.314 155.493 155.894 157.233 157.861 
159.265 159.883 161.191 161.64 162.808 163.087 164.099 154.299 154.774 
155.668 156.164 157.205 157.873 159.159 159.923 161.28 161.929 163.155 
163.585 164.619 164.854 165.733 153.937 154.556 155.329 155.966 156.907 
157.65 158.873 159.714 161.08 161.881 163.161 163.786 164.87 165.273 
166.195 166.419 167.235 153.441 154.033 154.791 155.467 156.433 157.235 
158.447 159.342 160.64 161.537 162.751 163.573 164.63 165.301 166.21 
166.699 167.505 167.816 168.515 151.958 153.776 152.83 152.821 155.794 
154.774 154.771 153.764 153.732 157.912 156.862 156.921 155.85 155.859 
154.747 154.677 160.155 159.07 159.175 158.076 158.132 156.986 156.931 
155.734 155.605 162.386 161.372 161.486 160.374 160.397 159.255 159.182 
158.005 157.842 156.64 156.446 164.31 163.498 163.643 162.645 162.634 
161.498 161.368 160.194 160 158.825 158.59 157.413 157.16 165.926 
165.257 165.428 164.625 164.637 163.643 163.489 162.349 162.102 160.925 
160.639 159.479 159.171 158.03 157.717 167.433 166.811 166.961 166.248 
166.231 165.423 165.245 164.304 163.999 162.935 162.556 161.437 161.029 
159.924 159.524 158.458 158.086 168.759 168.258 168.373 167.698 167.58 
166.828 166.549 165.774 165.406 164.571 164.135 163.184 162.688 161.654 
161.145 160.121 159.653 158.684 158.27 169.408 169.933 169.568 169.033 
169.792 169.818 169.337 168.918 168.14 169.153 169.428 169.071 168.954 
168.195 167.799 166.961 168.454 168.73 168.467 168.533 167.888 167.667 
166.837 166.527 165.746 167.752 168.024 167.703 167.87 167.307 167.259 
166.5 166.299 165.527 165.284 164.507 166.772 167.157 166.726 166.999 
166.421 166.562 165.878 165.864 165.129 164.992 164.212 163.97 163.103 
165.595 166.024 165.609 165.925 165.371 165.593 164.979 165.124 164.467 
164.487 163.723 163.586 162.702 162.461 161.539 164.52 164.889 164.556 
164.847 164.377 164.585 164.033 164.205 163.609 163.727 163.011 162.988 
162.115 161.967 161.048 160.861 159.999 163.567 163.902 163.58 163.865 
163.419 163.641 163.096 163.281 162.683 162.839 162.155 162.21 161.389 
161.317 160.438 160.316 159.493 159.363 158.604 169.523 169.41 169.769 
170.019 168.648 169.324 169.6 169.936 169.824 167.519 168.324 168.603 
169.202 169.147 169.433 169.127 166.281 167.101 167.382 168.079 168.133 
168.602 168.468 168.706 168.457 164.99 165.817 166.115 166.861 167.027 
167.602 167.65 168.047 167.989 168.16 167.885 163.684 164.504 164.832 
165.616 165.861 166.526 166.656 167.205 167.224 167.611 167.395 167.498 
166.979 162.374 163.191 163.522 164.343 164.632 165.365 165.5 166.125 
166.1 166.65 166.431 166.789 166.307 166.394 165.758 160.988 161.832 
162.12 162.994 163.284 164.102 164.242 164.907 164.827 165.395 165.165 
165.652 165.274 165.571 165.064 165.163 164.631 159.532 160.377 160.618 
161.518 161.78 162.673 162.826 163.578 163.506 164.091 163.866 164.372 
164.092 164.508 164.162 164.421 164.01 164.121 163.675 153.416 153.912 
154.017 154.799 154.618 154.675 155.617 155.636 156.594 155.489 155.536 
156.619 156.643 157.756 157.688 158.738 156.407 156.49 157.617 157.7 
158.849 158.882 159.982 159.907 160.915 157.22 157.38 158.517 158.671 
159.814 159.91 160.985 161.025 162.046 162.011 162.95 157.916 158.126 
159.269 159.499 160.679 160.839 161.931 161.982 162.994 163.018 164.003 
163.971 164.828 158.533 158.785 159.898 160.172 161.331 161.607 162.722 
162.886 163.885 163.941 164.9 164.938 165.858 165.78 166.49 158.956 
159.311 160.364 160.699 161.744 162.101 163.138 163.483 164.452 164.689 
165.587 165.741 166.634 166.714 167.511 167.365 167.89 159.145 159.587 
160.585 161.006 161.952 162.354 163.269 163.695 164.596 165.007 165.865 
166.207 167.041 167.315 168.116 168.233 168.851 168.654 168.968 152.68 
151.667 152.485 153.116 150.52 151.436 152.085 152.947 153.686 149.243 
150.228 150.918 151.859 152.591 153.555 154.44 148.025 148.95 149.662 
150.645 151.413 152.418 153.3 154.357 155.324 147.044 147.827 148.51 
149.42 150.202 151.212 152.11 153.192 154.158 155.231 156.154 146.215 
146.921 147.546 148.352 149.081 150.022 150.893 151.971 152.935 154.039 
154.966 156.007 156.863 145.367 146.067 146.63 147.402 148.055 148.928 
149.722 150.746 151.677 152.788 153.718 154.792 155.643 156.674 157.475 
144.527 145.187 145.705 146.448 147.048 147.882 148.607 149.573 150.453 
151.533 152.459 153.533 154.371 155.407 156.17 157.207 157.91 143.817 
144.391 144.897 145.55 146.127 146.882 147.563 148.454 149.284 150.318 
151.24 152.301 153.151 154.147 154.879 155.865 156.536 157.544 158.148 
143.647 143.822 144.052 144.727 144.042 144.283 144.988 145.204 145.95 
144.243 144.524 145.298 145.522 146.31 146.522 147.381 144.528 144.779 
145.629 145.866 146.728 146.947 147.885 148.106 149.119 145.018 145.194 
146.104 146.287 147.218 147.421 148.446 148.69 149.808 150.016 151.103 
145.618 145.785 146.757 146.899 147.896 148.031 149.113 149.325 150.515 
150.755 151.897 152.038 153.024 146.217 146.403 147.424 147.611 148.679 
148.821 149.937 150.093 151.291 151.501 152.665 152.821 153.806 153.868 
154.726 146.883 147.031 148.062 148.269 149.372 149.595 150.732 150.932 
152.087 152.29 153.422 153.587 154.578 154.64 155.49 155.514 156.337 
147.657 147.758 148.773 148.93 150.006 150.242 151.363 151.63 152.737 
152.995 154.065 154.29 155.28 155.403 156.269 156.294 157.099 157.118 
157.921 148.441 150.058 149.356 149.587 151.776 151.049 151.316 150.556 
150.819 153.597 152.834 153.157 152.366 152.649 151.862 152.171 155.521 
154.718 155.076 154.277 154.599 153.763 154.051 153.246 153.545 157.447 
156.663 157.031 156.247 156.619 155.77 156.055 155.172 155.43 154.608 
154.871 159.257 158.561 158.966 158.22 158.641 157.823 158.15 157.23 
157.471 156.553 156.785 155.925 156.109 160.868 160.32 160.781 160.124 
160.555 159.818 160.179 159.328 159.594 158.656 158.864 157.91 158.048 
157.107 157.144 162.167 161.816 162.293 161.807 162.199 161.605 161.932 
161.244 161.522 160.723 160.931 160.009 160.098 159.09 159.064 158.058 
157.988 163.106 162.933 163.391 163.103 163.463 163.046 163.329 162.809 
163.066 162.467 162.682 161.944 162.016 161.092 161.008 159.988 159.86 
158.865 158.778 148.001 147.747 148.456 149.598 147.418 148.178 149.4 
150.111 151.298 147.166 147.899 149.186 149.927 151.244 151.904 153.145 
146.991 147.733 149.097 149.818 151.259 151.944 153.363 153.903 155.158 
146.75 147.56 148.986 149.782 151.28 152.037 153.568 154.208 155.59 
155.999 157.146 146.487 147.278 148.678 149.577 151.053 151.961 153.471 
154.322 155.742 156.371 157.543 157.91 158.906 146.355 147.028 148.331 
149.19 150.599 151.563 153.005 154.005 155.397 156.284 157.476 158.106 
159.085 159.519 160.418 146.362 146.929 148.142 148.871 150.203 151.072 
152.46 153.43 154.801 155.769 156.991 157.811 158.825 159.469 160.358 
160.873 161.675 146.433 146.944 148.097 148.728 149.985 150.731 152.054 
152.914 154.25 155.168 156.397 157.253 158.294 159.046 159.952 160.62 
161.429 161.969 162.635 146.928 145.153 146.236 146.6 143.292 144.367 
144.694 145.844 146.23 141.474 142.459 142.708 143.868 144.252 145.465 
145.92 139.8 140.634 140.724 141.812 142.108 143.387 143.825 145.145 
145.649 138.285 138.979 138.886 139.796 139.914 141.137 141.516 142.925 
143.439 144.843 145.375 136.852 137.471 137.31 138.03 138.017 138.991 
139.299 140.602 141.191 142.619 143.267 144.618 145.202 135.565 136.079 
135.994 136.605 136.664 137.356 137.639 138.608 139.231 140.511 141.314 
142.641 143.376 144.585 145.197 134.678 134.973 134.997 135.504 135.775 
136.324 136.697 137.32 137.871 138.813 139.618 140.839 141.688 142.897 
143.603 144.694 145.285 134.29 134.356 134.421 134.767 135.182 135.682 
136.205 136.671 137.168 137.746 138.391 139.321 140.149 141.295 142.084 
143.183 143.827 144.839 145.405 134.187 134.218 134.178 134.347 134.498 
134.376 134.661 134.673 135.161 135.049 134.808 135.157 135.132 135.696 
135.714 136.257 135.895 135.517 135.845 135.726 136.296 136.29 136.825 
136.774 137.22 136.913 136.474 136.777 136.525 137.05 136.94 137.471 
137.362 137.832 137.74 138.334 137.992 137.541 137.846 137.52 137.998 
137.781 138.314 138.115 138.652 138.477 139.139 139.087 139.972 139.114 
138.656 138.952 138.592 139.033 138.765 139.288 139.054 139.633 139.43 
140.128 140.011 140.874 140.887 141.853 140.205 139.782 140.068 139.696 
140.117 139.814 140.325 140.065 140.641 140.443 141.132 141.02 141.823 
141.794 142.666 142.711 143.587 141.192 140.834 141.141 140.799 141.227 
140.918 141.429 141.138 141.695 141.458 142.107 141.978 142.737 142.694 
143.505 143.506 144.325 144.361 145.167 141.812 142.914 142.169 141.856 
144.252 143.409 143.118 142.31 142.024 145.76 144.847 144.574 143.687 
143.41 142.554 142.269 147.48 146.475 146.236 145.248 144.988 144.037 
143.752 142.839 142.557 149.387 148.328 148.142 147.054 146.832 145.753 
145.503 144.452 144.187 143.204 142.991 151.372 150.306 150.159 149.054 
148.865 147.73 147.515 146.366 146.136 145.007 144.804 143.771 143.645 
153.419 152.341 152.221 151.105 150.935 149.8 149.601 148.452 148.242 
147.076 146.872 145.729 145.568 144.516 144.42 155.409 154.4 154.306 
153.206 153.057 151.902 151.713 150.547 150.345 149.189 148.994 147.844 
147.663 146.531 146.381 145.321 145.226 157.107 156.271 156.185 155.23 
155.101 154.028 153.852 152.692 152.481 151.3 151.097 149.947 149.769 
148.636 148.468 147.345 147.197 146.137 146.042 146.836 148.055 147.789 
148.538 149.366 149.101 149.911 149.615 150.431 150.688 150.452 151.322 
151.046 151.916 151.597 152.474 152.051 151.819 152.751 152.489 153.413 
153.117 154.035 153.712 154.627 153.479 153.252 154.235 153.966 154.907 
154.616 155.528 155.244 156.138 155.845 156.697 154.846 154.683 155.676 
155.455 156.376 156.098 156.95 156.671 157.499 157.25 158.052 157.792 
158.533 156.029 155.95 156.896 156.784 157.681 157.493 158.32 158.054 
158.836 158.559 159.335 159.076 159.821 159.537 160.205 157.032 157.005 
157.887 157.856 158.737 158.672 159.529 159.363 160.155 159.893 160.647 
160.365 161.102 160.816 161.485 161.157 161.714 157.894 157.905 158.745 
158.754 159.623 159.637 160.523 160.478 161.289 161.131 161.841 161.618 
162.276 162.04 162.639 162.37 162.865 162.537 162.917 138.849 138.611 
138.385 137.807 138.618 138.234 137.56 137.358 136.807 138.858 138.352 
137.594 137.185 136.477 136.301 135.769 139.226 138.681 137.929 137.347 
136.532 136.072 135.401 135.274 134.905 139.576 139.059 138.373 137.785 
137.059 136.387 135.7 135.174 134.758 134.616 134.516 139.916 139.401 
138.743 138.23 137.657 137.073 136.534 135.833 135.383 134.835 134.662 
134.484 134.556 140.301 139.782 139.139 138.613 138.059 137.614 137.163 
136.667 136.192 135.609 135.215 134.816 134.686 134.603 134.671 140.689 
140.21 139.622 139.069 138.472 137.986 137.473 137.094 136.582 136.176 
135.622 135.244 134.84 134.681 134.521 134.594 134.577 141.081 140.629 
140.113 139.585 139.009 138.45 137.889 137.398 136.872 136.435 135.896 
135.49 135.021 134.75 134.468 134.399 134.27 134.376 134.331 138.907 
137.875 138.511 138.876 136.865 137.484 137.797 138.553 139.065 135.885 
136.475 136.742 137.444 137.913 138.777 139.37 135.097 135.581 135.888 
136.458 136.905 137.657 138.303 139.151 139.779 134.667 134.959 135.291 
135.735 136.202 136.801 137.474 138.223 138.969 139.676 140.291 134.642 
134.722 134.991 135.268 135.716 136.206 136.857 137.527 138.286 138.979 
139.659 140.263 140.845 134.809 134.827 135.071 135.156 135.568 135.852 
136.47 136.987 137.712 138.342 139.019 139.642 140.244 140.842 141.427 
134.803 134.958 135.262 135.357 135.784 135.911 136.504 136.78 137.479 
137.894 138.575 139.07 139.707 140.257 140.885 141.457 142.061 134.567 
134.836 135.202 135.472 135.947 136.164 136.732 136.945 137.589 137.848 
138.506 138.818 139.472 139.866 140.537 141.006 141.663 142.147 142.734 
139.621 139.623 139.971 140.79 139.879 140.114 140.892 141.219 142.094 
140.21 140.431 141.198 141.424 142.246 142.589 143.513 140.518 140.731 
141.486 141.732 142.551 142.84 143.778 144.107 145.004 140.906 141.031 
141.741 141.982 142.83 143.152 144.132 144.468 145.424 145.631 146.386 
141.45 141.484 142.173 142.305 143.141 143.424 144.392 144.777 145.749 
146.059 146.874 146.994 147.722 142.069 142.089 142.801 142.852 143.641 
143.798 144.663 144.974 145.871 146.259 147.109 147.413 148.212 148.401 
149.278 142.678 142.716 143.433 143.499 144.247 144.339 145.097 145.264 
146.051 146.347 147.194 147.568 148.452 148.792 149.685 149.981 150.89 
143.272 143.302 143.983 144.076 144.8 144.906 145.621 145.72 146.437 
146.6 147.406 147.704 148.616 148.99 149.909 150.264 151.106 151.436 
152.192 146.737 145.948 145.903 145.011 145.275 145.154 144.241 144.143 
143.21 144.691 144.534 143.621 143.45 142.513 142.372 141.469 144.124 
143.964 143.076 142.89 141.967 141.762 140.859 140.707 139.879 143.674 
143.447 142.596 142.385 141.5 141.268 140.365 140.162 139.33 139.2 
138.427 143.444 143.127 142.32 142.016 141.194 140.889 140.032 139.739 
138.914 138.708 137.947 137.796 137.035 143.305 142.988 142.217 141.865 
141.094 140.727 139.953 139.562 138.805 138.448 137.746 137.451 136.75 
136.485 135.789 143.129 142.852 142.096 141.777 141.009 140.677 139.945 
139.587 138.898 138.506 137.868 137.466 136.858 136.438 135.829 135.445 
134.927 142.981 142.693 141.961 141.641 140.874 140.561 139.83 139.546 
138.875 138.584 137.957 137.634 137.052 136.679 136.142 135.712 135.246 
134.845 134.531 
POINT_DATA 1002
SCALARS Distance double
LOOKUP_TABLE default
142.465 141.515 142.173 143.244 142.993 143.696 144.167 143.953 144.587 
145.112 145.13 144.869 145.557 146.092 146.689 146.056 145.741 146.563 
147.165 147.808 148.497 147.142 146.842 147.699 148.395 149.078 149.753 
150.434 148.482 148.115 149.028 149.759 150.505 151.161 151.804 152.433 
149.784 149.222 150.384 151.096 151.91 152.652 153.307 153.935 154.485 
150.885 150.162 151.626 152.379 153.226 154.082 154.826 155.468 155.999 
156.369 151.932 151.133 152.784 153.652 154.551 155.443 156.24 156.899 
157.405 157.73 157.883 141.123 141.837 140.786 141.599 140.435 142.74 
141.325 140.088 142.547 143.739 140.955 139.754 142.228 143.499 144.65 
140.585 139.39 141.86 143.208 144.496 145.636 140.342 139.068 141.703 
143.098 144.498 145.744 146.864 140.243 138.919 141.735 143.157 144.571 
145.941 147.029 148.027 140.255 139.001 141.762 143.135 144.43 145.91 
147.196 148.052 148.952 140.396 139.309 141.784 143.065 144.189 145.635 
147.231 148.259 148.91 149.843 140.382 141.588 141.63 142.883 142.987 
142.92 144.264 144.44 144.175 144.074 145.556 145.807 145.591 145.551 
145.466 146.624 147.034 146.737 147.189 147.388 147.316 148.03 148.504 
147.82 148.213 148.821 148.992 148.683 150.096 150.26 149.766 149.451 
149.435 149.645 149.634 149.282 152.06 151.797 152.148 151.707 150.817 
150.196 150.16 150.205 150.033 153.336 152.884 153.816 153.89 153.146 
152.007 151.41 151.448 151.5 151.335 152.811 153.195 154.77 153.454 
155.347 156.811 153.511 155.826 157.544 158.952 153.778 156.139 158.21 
159.785 161.229 154.56 156.442 158.567 160.432 162.002 163.328 155.24 
156.683 158.577 160.655 162.489 163.934 165.038 155.195 156.573 158.364 
160.54 162.647 164.333 165.592 166.572 154.661 156.135 158.018 160.242 
162.459 164.381 165.899 167.098 168.037 154.106 155.61 157.559 159.769 
161.913 163.882 165.628 167.105 168.317 169.195 153.749 155.804 154.761 
157.974 156.988 155.83 160.285 159.268 158.144 156.823 162.603 161.571 
160.355 159.05 157.657 164.565 163.763 162.569 161.181 159.772 158.344 
166.171 165.551 164.599 163.302 161.826 160.322 158.848 167.692 167.023 
166.122 165.017 163.684 162.165 160.603 159.124 169.049 168.379 167.339 
166.187 165.018 163.708 162.197 160.638 159.2 169.984 169.674 170.146 
169.638 169.597 168.702 169.052 168.814 168.525 167.36 168.329 168.225 
168.024 167.117 166.036 167.524 167.512 167.262 166.637 165.746 164.8 
166.44 166.368 166.216 165.79 165.21 164.434 163.409 165.266 165.153 
165.121 164.778 164.374 163.819 162.92 161.783 164.25 164.159 164.154 
163.858 163.468 162.989 162.228 161.201 160.161 163.299 163.244 163.193 
162.912 162.521 162.062 161.414 160.526 159.589 158.73 169.396 169.932 
168.907 169.137 167.901 169.735 167.937 166.722 168.739 168.973 166.647 
165.477 167.567 168.098 168.337 165.33 164.165 166.372 167.146 167.711 
167.923 164.017 162.871 165.149 166.066 166.763 167.203 167.062 162.686 
161.567 163.865 164.886 165.553 165.99 166.106 165.756 161.244 160.155 
162.433 163.558 164.284 164.648 164.863 164.856 164.583 159.733 158.708 
160.877 162.03 162.892 163.343 163.609 163.806 163.825 163.624 153.261 
154.686 153.791 155.551 154.515 156.617 156.546 155.41 157.764 158.889 
157.516 156.298 158.792 159.995 161.064 158.328 157.035 159.708 160.945 
162.019 163.058 159.016 157.7 160.463 161.867 162.985 163.98 164.975 
159.64 158.261 161.039 162.492 163.81 164.862 165.86 166.74 160.034 
158.574 161.421 162.774 164.149 165.399 166.502 167.543 168.253 151.898 
152.299 150.808 151.204 149.552 152.756 149.932 148.248 151.622 153.399 
148.673 147.158 150.383 152.237 154.267 147.655 146.325 149.207 151.019 
153.077 155.133 146.79 145.535 148.199 149.844 151.821 153.912 155.858 
145.882 144.689 147.223 148.748 150.578 152.636 154.609 156.466 144.994 
143.901 146.245 147.682 149.396 151.388 153.358 155.15 156.896 144.282 