# vtk DataFile Version 4.0
vtk output
ASCII
DATASET POLYDATA
POINTS 1002 float
-74.449 -107.099 61.1972 -75.0675 -105.876 60.4982 -75.6132 -106.311 60.5605 
-74.9256 -107.573 61.3535 -76.1655 -106.744 60.7965 -73.8583 -108.48 61.9604 
-75.4565 -108.124 61.6644 -76.7017 -107.209 61.245 -74.3376 -109.056 62.1765 
-73.3652 -110.018 62.7874 -75.9367 -108.925 62.0925 -77.0505 -108.021 61.5933 
-74.8479 -109.906 62.501 -73.7948 -111.012 62.8727 -72.8676 -112.231 63.3711 
-76.0218 -110.245 62.1741 -76.9495 -109.383 61.5601 -75.1649 -111.19 62.8155 
-74.1483 -112.396 63.0436 -73.1626 -113.803 63.2722 -72.4663 -115.175 63.7088 
-75.6272 -111.867 61.8008 -76.4985 -110.927 61.3202 -75.1004 -112.86 62.6858 
-74.3722 -114.068 63.1972 -73.4225 -115.52 63.365 -72.7899 -116.833 63.8109 
-72.4311 -117.806 64.4657 -75.303 -113.323 61.5007 -76.1169 -112.306 61.076 
-74.96 -114.458 62.367 -74.6245 -115.733 63.1607 -73.8731 -117.142 63.5898 
-73.2269 -118.349 64.1403 -72.9786 -119.113 64.9836 -72.6829 -119.621 65.7523 
-75.463 -114.651 61.5217 -76.0033 -113.607 60.8929 -75.2132 -115.82 62.4293 
-75.0757 -117.125 63.311 -74.601 -118.486 63.9641 -73.953 -119.627 64.6402 
-73.6128 -120.35 65.5208 -73.3899 -120.802 66.3706 -72.9644 -121.224 66.9635 
-75.947 -115.973 61.7844 -76.1516 -114.877 60.9786 -75.8252 -117.112 62.8063 
-75.6941 -118.313 63.7672 -75.3733 -119.551 64.5591 -74.8456 -120.627 65.3334 
-74.3904 -121.41 66.1487 -74.0759 -121.975 66.9022 -73.6936 -122.442 67.5134 
-73.2165 -122.86 67.9543 -76.5398 -117.116 62.2853 -76.5661 -116.001 61.4581 
-76.5081 -118.237 63.2876 -76.3571 -119.334 64.2562 -76.0637 -120.43 65.1271 
-75.6748 -121.43 66.0139 -75.2557 -122.249 66.8558 -74.8418 -122.937 67.51 
-74.4039 -123.505 68.047 -73.9281 -123.924 68.5427 -73.4664 -124.201 68.9525 
-76.0115 -105.152 59.7465 -76.7323 -105.515 59.8977 -76.9857 -104.498 59.0721 
-77.8706 -104.709 59.4735 -77.9669 -103.722 58.6978 -77.3961 -105.817 60.3336 
-78.9125 -103.886 59.2885 -78.9832 -102.936 58.332 -78.5973 -104.89 60.1168 
-77.9388 -106.195 60.9033 -79.9055 -103.178 58.9573 -79.9992 -102.317 57.6847 
-79.6679 -104.137 59.9737 -79.1665 -105.318 60.7512 -78.259 -107.091 61.3006 
-80.853 -102.558 58.4132 -80.8881 -101.704 57.0206 -80.707 -103.613 59.656 
-80.3667 -104.826 60.59 -79.614 -106.437 61.2823 -78.2055 -108.602 61.4672 
-81.5644 -102.077 57.794 -81.505 -101.161 56.4224 -81.5873 -103.248 59.1574 
-81.4729 -104.616 60.2426 -80.9379 -106.192 61.1561 -79.6818 -108.099 61.6267 
-77.7801 -110.215 61.3672 -81.9029 -102.067 56.9501 -81.7479 -101.101 55.656 
-82.0609 -103.231 58.3332 -82.159 -104.578 59.6051 -81.8804 -106.12 60.7064 
-80.8996 -107.871 61.4681 -79.1171 -109.729 61.4352 -77.1657 -111.637 60.9243 
-81.9146 -102.534 55.976 -81.6674 -101.583 54.818 -82.1862 -103.623 57.2135 
-82.3878 -104.816 58.5702 -82.2951 -106.175 59.9503 -81.6341 -107.755 60.9928 
-80.1531 -109.431 61.2372 -78.1715 -111.126 60.7881 -76.6596 -112.953 60.502 
-81.7484 -103.154 55.2146 -81.4653 -102.316 54.1648 -82.1388 -104.126 56.2548 
-82.4419 -105.209 57.4468 -82.4484 -106.425 58.937 -82.0533 -107.796 60.3235 
-80.9798 -109.265 60.9238 -79.1699 -110.77 60.6754 -77.4163 -112.4 60.3177 
-76.5597 -114.203 60.5659 -81.4427 -103.586 54.3799 -81.8816 -104.419 55.4185 
-81.576 -104.945 54.7322 -82.1826 -105.813 55.7177 -81.8455 -106.511 55.0539 
-82.3901 -105.431 56.4181 -82.3411 -107.456 55.9884 -81.8638 -108.089 55.3637 
-82.5705 -106.949 56.745 -82.5655 -106.659 57.7352 -81.8085 -109.027 56.3469 
-81.183 -109.393 55.9219 -82.2261 -108.608 57.0883 -82.4103 -108.274 58.1464 
-82.3271 -108.004 59.3479 -80.7232 -110.52 57.0087 -80.1644 -110.838 56.7509 
-81.1995 -110.153 57.5145 -81.6351 -109.777 58.3837 -81.8481 -109.518 59.4945 
-81.5753 -109.346 60.4137 -80.065 -112.454 57.8073 -79.6084 -112.795 57.5568 
-80.3515 -112.018 58.1898 -80.5362 -111.435 58.6956 -80.7404 -110.993 59.3499 
-80.6291 -110.819 60.0412 -79.9752 -110.761 60.4766 -80.0585 -114.578 58.4881 
-79.4917 -114.801 58.2669 -80.3606 -114.274 58.908 -80.1464 -113.722 59.3615 
-79.7056 -113.094 59.6351 -79.3783 -112.699 59.8614 -78.8749 -112.491 60.1148 
-78.0971 -112.382 60.2421 -80.0026 -116.251 59.1868 -79.3183 -116.4 59.0885 
-80.5724 -116.116 59.4899 -80.5227 -115.865 60.0017 -79.7241 -115.464 60.3927 
-78.8657 -115.079 60.4847 -78.3228 -114.723 60.5291 -77.7373 -114.375 60.586 
-77.0629 -114.19 60.5568 -79.6674 -117.503 60.098 -79.0313 -117.661 60.0907 
-80.3784 -117.377 60.1435 -80.7835 -117.247 60.4351 -80.4023 -117.07 60.9651 
-79.4824 -116.936 61.3825 -78.7577 -116.804 61.552 -78.2668 -116.502 61.6279 
-77.6639 -116.155 61.6101 -77.031 -115.997 61.5008 -77.2386 -117.698 62.7266 
-77.8755 -117.775 62.8515 -77.9905 -119.332 64.1102 -78.5983 -118 62.9179 
-78.6848 -119.51 64.159 -78.5722 -120.983 65.3588 -79.1885 -118.203 62.8409 
-79.3807 -119.674 64.1024 -79.1872 -121.256 65.31 -79.1403 -122.743 66.6719 
-79.7496 -118.148 62.5828 -80.0074 -119.563 63.9493 -79.8389 -121.342 65.2702 
-79.7398 -123.014 66.7072 -79.8218 -124.371 68.2333 -80.4775 -118.074 62.0097 
-80.6503 -119.358 63.4686 -80.5441 -121.244 65.127 -80.4223 -123.17 66.7528 
-80.5051 -124.584 68.3916 -80.4599 -125.674 69.8488 -80.888 -118.255 61.3211 
-81.0564 -119.541 62.6443 -81.0637 -121.39 64.524 -81.0019 -123.422 66.4616 
-81.1321 -124.94 68.2342 -81.1649 -125.984 69.8932 -81.0152 -126.852 71.3237 
-80.5433 -118.495 61.0284 -80.8021 -119.934 62.1263 -80.981 -121.769 63.7958 
-81.0473 -123.742 65.7861 -81.3223 -125.38 67.5789 -81.6136 -126.502 69.283 
-81.5975 -127.357 70.9934 -81.5005 -128.035 72.5378 -79.8163 -118.647 61.1279 
-80.1084 -120.114 62.1861 -80.3875 -121.892 63.5174 -80.5143 -123.738 65.2457 
-80.8549 -125.462 66.9092 -81.461 -126.862 68.3779 -81.8075 -127.857 70.0143 
-81.8145 -128.587 71.7586 -81.7621 -129.096 73.3031 -79.1622 -118.782 61.2201 
-79.4467 -120.134 62.3499 -79.7465 -121.738 63.4999 -79.8552 -123.407 64.931 
-80.0812 -125.093 66.4947 -80.7514 -126.742 67.8027 -81.4339 -128.045 69.0855 
-81.7147 -128.909 70.6452 -81.7497 -129.522 72.2419 -81.7106 -129.938 73.5751 
-77.215 -118.847 63.6599 -77.8453 -120.47 65.0537 -77.0841 -119.978 64.62 
-78.4625 -122.21 66.4592 -77.6551 -121.664 66.0172 -76.8125 -121.1 65.5371 
-79.1304 -124.056 68.0158 -78.3157 -123.526 67.6155 -77.3866 -122.871 67.0378 
-76.4825 -122.164 66.5283 -79.7279 -125.561 69.6216 -78.906 -125.271 69.2953 
-78.0091 -124.693 68.7675 -77.0744 -123.919 68.1317 -76.1389 -123.076 67.5326 
-80.3549 -126.634 71.2579 -79.5379 -126.4 70.9723 -78.5964 -126.058 70.5406 
-77.6446 -125.539 69.8339 -76.6796 -124.778 69.0328 -75.7009 -123.87 68.267 
-81.0733 -127.627 72.923 -80.4302 -127.139 72.8546 -79.4497 -126.746 72.4722 
-78.2828 -126.525 71.697 -77.1714 -126.169 70.6419 -76.1184 -125.448 69.6508 
-75.1574 -124.516 68.7952 -81.5687 -128.663 74.1844 -81.1564 -127.983 74.6014 
-80.3153 -127.319 74.4537 -79.036 -126.993 73.7103 -77.6913 -126.875 72.5087 
-76.5147 -126.508 71.2628 -75.4663 -125.795 70.2217 -74.5882 -124.918 69.3267 
-81.6423 -129.614 74.6733 -81.3285 -128.964 75.514 -80.6296 -128.174 75.7783 
-79.4643 -127.556 75.3321 -78.0871 -127.235 74.3 -76.8447 -126.991 72.9993 
-75.7659 -126.55 71.7749 -74.8073 -125.896 70.7391 -74.043 -125.114 69.8088 
-81.4144 -130.536 74.1831 -81.1781 -130.081 75.2804 -80.7626 -131.001 74.4694 
-80.2215 -130.442 75.4331 -79.6622 -131.298 74.6376 -80.5602 -129.348 76.0359 
-78.8624 -130.772 75.403 -78.1634 -131.55 74.8276 -79.2865 -129.749 75.9324 
-79.5164 -128.548 76.106 -77.1953 -131.138 75.3053 -76.497 -131.773 74.7057 
-77.7491 -130.15 75.6604 -78.0532 -128.91 75.9061 -78.1863 -127.836 75.5384 
-75.4507 -131.293 74.847 -74.9455 -131.734 74.0514 -76.0009 -130.435 75.3501 
-76.5107 -129.189 75.6753 -76.8011 -128.037 75.4702 -76.913 -127.342 74.483 
-73.9907 -131.088 74.1184 -73.6118 -131.481 73.2602 -74.3399 -130.423 74.7715 
-74.9205 -129.396 75.2408 -75.4566 -128.342 75.1645 -75.7133 -127.538 74.3537 
-75.805 -126.987 73.1311 -72.8124 -130.812 73.4411 -72.4491 -131.196 72.5614 
-73.0487 -130.237 74.1003 -73.4983 -129.442 74.4976 -74.1248 -128.625 74.4345 
-74.5003 -127.882 73.796 -74.6639 -127.131 72.8859 -74.7801 -126.471 71.8806 
-71.716 -130.51 72.6643 -71.4067 -130.767 71.7649 -71.9351 -130.02 73.3866 
-72.2658 -129.299 73.7499 -72.8339 -128.506 73.6773 -73.2828 -127.785 73.2125 
-73.4972 -127.06 72.5396 -73.7231 -126.348 71.781 -73.9357 -125.744 70.8571 
-70.6973 -129.986 71.682 -70.4507 -130.138 70.866 -70.8963 -129.596 72.4425 
-71.1397 -128.939 72.9264 -71.5949 -128.062 73.0412 -72.0892 -127.156 72.8939 
-72.4108 -126.404 72.5074 -72.7283 -125.852 71.8238 -73.0906 -125.418 70.8976 
-73.3339 -124.915 69.8841 -81.4198 -130.387 72.8724 -81.0208 -131.071 73.353 
-80.7849 -130.582 72.2199 -80.3049 -131.31 72.6218 -79.9103 -130.518 71.5783 
-80.2749 -131.621 73.5669 -79.3575 -131.18 71.8513 -79.0059 -130.306 70.6596 
-79.4654 -131.913 72.6886 -79.0093 -131.941 73.7495 -78.317 -130.798 70.795 
-78.1004 -130.01 69.5257 -78.4142 -131.681 71.7053 -78.0928 -132.243 72.6101 
-77.3779 -132.126 73.8596 -77.2391 -130.337 69.6009 -77.1397 -129.5 68.5007 
-77.2397 -131.094 70.6007 -77.0168 -131.954 71.3517 -76.4537 -132.373 72.3713 
-75.7191 -132.175 73.495 -76.2401 -129.728 68.4851 -76.2257 -128.68 67.5706 
-76.1214 -130.509 69.473 -75.8992 -131.336 70.2288 -75.4446 -132.14 70.8766 
-74.7827 -132.373 71.8074 -74.1619 -132.029 72.7238 -75.3987 -128.839 67.4317 
-75.4222 -127.697 66.6127 -75.2323 -129.845 68.3285 -74.9588 -130.711 69.1456 
-74.5298 -131.595 69.698 -73.8737 -132.237 70.2706 -73.229 -132.241 71.1353 
-72.8049 -131.769 71.9945 -74.6287 -127.778 66.4492 -74.6743 -126.718 65.7137 
-74.487 -128.871 67.2206 -74.2277 -129.868 67.9928 -73.8358 -130.777 68.6204 
-73.2592 -131.593 69.0932 -72.5951 -131.998 69.721 -72.0777 -131.807 70.5725 
-71.7342 -131.302 71.3159 -73.8867 -126.744 65.5792 -73.9743 -125.801 64.9439 
-73.7472 -127.737 66.2291 -73.523 -128.714 66.8889 -73.1946 -129.614 67.5397 
[...]
CELL_DATA 2000
SCALARS Distance double
LOOKUP_TABLE default
142.699 143.369 143.214 143.647 144.149 143.945 144.397 144.253 144.802 
145.072 144.83 145.355 145.125 145.735 145.554 146.275 146.049 145.835 
146.469 146.23 146.929 146.662 147.471 147.264 148.22 146.921 146.788 
147.498 147.392 148.218 147.993 148.875 148.62 149.636 149.442 150.517 
147.712 147.618 148.392 148.405 149.404 149.324 150.335 150.113 151.154 
150.931 152.01 151.789 152.763 148.61 148.503 149.427 149.41 150.588 
150.57 151.76 151.607 152.702 152.471 153.524 153.286 154.257 153.955 
154.778 149.707 149.607 150.729 150.656 151.936 151.885 153.159 153.052 
154.193 153.996 155.019 154.779 155.721 155.438 156.272 155.914 156.644 
150.944 150.878 152.106 152.057 153.321 153.272 154.479 154.416 155.524 
155.407 156.402 156.211 157.112 156.862 157.673 157.366 158.08 157.716 
158.342 142.288 142.001 142.409 142.974 141.808 142.188 142.759 143.137 
143.735 141.656 142.039 142.633 142.972 143.545 143.93 144.585 141.522 
141.918 142.56 142.892 143.488 143.802 144.441 144.84 145.54 141.361 
141.792 142.504 142.877 143.584 143.862 144.589 144.855 145.582 145.869 
146.509 141.137 141.614 142.404 142.863 143.723 144.07 144.94 145.181 
145.992 146.128 146.738 146.834 147.339 140.927 141.408 142.263 142.783 
143.738 144.218 145.173 145.547 146.395 146.599 147.169 147.173 147.507 
147.577 148.058 140.834 141.274 142.166 142.673 143.639 144.184 145.152 
145.661 146.517 146.877 147.438 147.526 147.745 147.722 147.971 148.235 
148.888 140.896 141.268 142.155 142.613 143.549 144.067 145.02 145.56 
146.452 146.901 147.541 147.717 147.968 147.908 148.038 148.123 148.59 
149.089 149.975 141.279 142.366 142.027 142.531 143.673 143.218 143.706 
143.358 143.919 145.041 144.589 145.048 144.62 145.159 144.805 145.387 
146.069 145.815 146.23 145.914 146.405 146.078 146.63 146.293 146.819 
146.869 146.668 147.063 146.877 147.293 147.136 147.605 147.426 147.836 
147.565 147.838 148.109 147.67 148.183 147.777 148.189 147.891 148.255 
148.126 148.419 148.308 148.406 148.207 148.16 149.8 149.251 149.93 
149.302 149.835 149.129 149.472 148.896 149.158 148.811 148.954 148.66 
148.628 148.327 148.265 151.36 150.951 151.63 151.158 151.76 151.066 
151.448 150.56 150.825 150 150.287 149.589 149.821 149.155 149.329 
148.74 148.979 152.62 152.312 152.88 152.608 153.157 152.782 153.186 
152.546 152.817 151.986 152.311 151.439 151.849 150.931 151.325 150.391 
150.805 149.982 150.478 151.772 152.16 152.631 153.994 152.703 153.124 
154.493 154.891 156.166 153.187 153.646 154.973 155.398 156.649 157.018 
158.262 153.519 153.984 155.217 155.746 156.981 157.459 158.724 159.157 
160.459 153.821 154.196 155.286 155.843 157.105 157.715 159.082 159.614 
160.979 161.391 162.625 154.025 154.388 155.348 155.871 157.146 157.824 
159.319 159.967 161.43 161.91 163.185 163.488 164.561 153.954 154.419 
155.324 155.89 157.124 157.857 159.343 160.127 161.601 162.255 163.53 
163.979 165.056 165.336 166.287 153.709 154.233 155.149 155.776 156.941 
157.724 159.059 159.946 161.287 162.157 163.376 164.093 165.141 165.655 
166.566 166.919 167.718 153.477 153.998 154.925 155.553 156.642 157.404 
158.568 159.441 160.61 161.569 162.724 163.661 164.716 165.478 166.357 
166.932 167.661 168.094 168.681 152.081 154.267 153.212 153.305 156.393 
155.391 155.476 154.444 154.509 158.544 157.528 157.642 156.592 156.651 
155.6 155.619 160.807 159.787 159.983 158.854 158.928 157.775 157.784 
156.679 156.647 162.919 162.033 162.263 161.233 161.321 160.145 160.119 
158.911 158.833 157.674 157.546 164.788 164.009 164.205 163.345 163.421 
162.426 162.37 161.238 161.086 159.889 159.678 158.495 158.251 166.547 
165.823 166.022 165.182 165.241 164.339 164.275 163.301 163.118 162.036 
161.746 160.585 160.245 159.094 158.766 168.047 167.508 167.74 166.978 
167.002 166.104 165.97 165.043 164.803 163.853 163.509 162.484 162.062 
160.984 160.563 159.496 159.117 169.037 168.78 169 168.499 168.461 
167.727 167.458 166.6 166.204 165.335 164.887 164.011 163.522 162.598 
162.101 161.145 160.69 159.73 159.318 169.475 169.858 169.675 169.457 
169.807 169.828 169.607 169.419 168.923 169.465 169.589 169.326 169.322 
168.831 168.62 167.889 168.938 169.143 168.843 168.902 168.377 168.309 
167.593 167.384 166.557 168.098 168.465 168.14 168.313 167.764 167.769 
167.056 166.947 166.159 165.979 165.177 167.006 167.462 167.138 167.449 
166.939 167.08 166.433 166.403 165.661 165.526 164.755 164.588 163.809 
165.939 166.363 166.08 166.399 165.955 166.183 165.636 165.744 165.075 
165.022 164.252 164.121 163.339 163.194 162.411 164.863 165.322 165.06 
165.394 164.965 165.207 164.663 164.864 164.211 164.315 163.535 163.525 
162.715 162.659 161.893 161.789 161.025 163.623 164.164 163.881 164.318 
163.862 164.175 163.564 163.809 163.099 163.3 162.519 162.651 161.862 
161.937 161.209 161.221 160.515 160.423 159.677 169.376 169.154 169.524 
169.806 168.609 169.178 169.557 169.815 169.845 167.746 168.486 168.933 
169.434 169.556 169.709 169.546 166.633 167.458 167.869 168.604 168.791 
169.241 169.143 169.296 169.009 165.379 166.218 166.517 167.343 167.522 
168.235 168.21 168.668 168.419 168.607 168.169 164.003 164.873 165.114 
165.919 166.062 166.84 166.88 167.537 167.375 167.799 167.419 167.6 
167.074 162.5 163.415 163.672 164.502 164.656 165.412 165.489 166.179 
166.119 166.658 166.393 166.73 166.308 166.47 165.978 160.962 161.864 
162.112 163.005 163.175 163.996 164.071 164.808 164.78 165.401 165.226 
165.679 165.346 165.638 165.199 165.377 164.878 159.51 160.335 160.531 
161.406 161.544 162.42 162.465 163.295 163.241 163.989 163.823 164.439 
164.134 164.587 164.149 164.469 163.951 164.182 163.626 153.635 154.432 
154.399 155.169 155.267 155.282 156.153 156.073 156.919 156.058 156.144 
157.087 157.082 157.972 157.89 158.777 156.782 156.93 157.946 158.017 
158.983 158.944 159.877 159.792 160.751 157.45 157.637 158.705 158.866 
159.953 159.999 161.06 160.978 162.024 161.883 162.896 158.081 158.29 
159.359 159.587 160.728 160.933 162.097 162.179 163.29 163.218 164.235 
164.055 164.937 158.607 158.877 159.932 160.205 161.332 161.627 162.79 
163.056 164.148 164.301 165.251 165.257 166.062 165.922 166.579 158.945 
159.303 160.342 160.701 161.802 162.16 163.276 163.61 164.644 164.916 
165.815 165.998 166.767 166.825 167.471 167.365 167.873 159.134 159.541 
160.544 160.987 162.042 162.498 163.545 163.965 164.929 165.274 166.139 
166.408 167.189 167.366 168.045 168.093 168.632 168.518 168.893 152.846 
151.744 152.715 153.537 150.443 151.518 152.36 153.408 154.288 149.048 
150.154 151.028 152.159 153.068 154.148 155.041 147.689 148.743 149.612 
150.791 151.746 152.892 153.809 154.878 155.746 146.452 147.396 148.186 
149.347 150.313 151.532 152.483 153.615 154.499 155.562 156.41 145.403 
146.213 146.907 147.936 148.843 150.058 151.038 152.244 153.157 154.281 
155.155 156.222 157.053 144.527 145.242 145.883 146.738 147.544 148.621 
149.582 150.785 151.744 152.91 153.8 154.921 155.767 156.832 157.59 
143.75 144.419 145.029 145.777 146.477 147.389 148.251 149.368 150.332 
151.504 152.411 153.54 154.374 155.481 156.25 157.294 157.953 143.056 
143.675 144.264 144.948 145.573 146.354 147.089 148.075 148.975 150.115 
151.039 152.163 152.999 154.082 154.854 155.916 156.612 157.605 158.191 
142.89 143.099 143.35 144.105 143.408 143.626 144.389 144.617 145.401 
143.782 143.987 144.777 144.962 145.771 145.983 146.891 144.198 144.39 
145.229 145.412 146.287 146.46 147.444 147.662 148.761 144.662 144.83 
145.693 145.901 146.863 147.066 148.131 148.335 149.486 149.693 150.832 
145.137 145.31 146.19 146.406 147.435 147.684 148.829 149.073 150.261 
150.469 151.609 151.765 152.808 145.586 145.789 146.733 146.961 148.051 
148.308 149.506 149.778 151.003 151.243 152.403 152.561 153.61 153.701 
154.664 146.068 146.278 147.299 147.552 148.693 148.965 150.164 150.448 
151.66 151.944 153.114 153.334 154.398 154.516 155.473 155.531 156.416 
146.624 146.823 147.874 148.141 149.284 149.583 150.741 151.05 152.196 
152.522 153.65 153.958 155.016 155.236 156.182 156.301 157.152 157.21 
157.991 147.284 148.803 148.211 148.602 150.477 149.842 150.284 149.636 
150.051 152.364 151.638 152.122 151.403 151.829 151.125 151.516 154.497 
153.668 154.175 153.355 153.787 152.981 153.368 152.607 152.978 156.631 
155.815 156.266 155.455 155.875 155.027 155.4 154.546 154.904 154.096 
154.442 158.506 157.796 158.159 157.446 157.851 157.092 157.465 156.62 
156.934 156.071 156.368 155.546 155.812 160.115 159.522 159.917 159.264 
159.72 159.019 159.447 158.651 158.966 158.093 158.331 157.468 157.677 
156.842 156.992 161.546 161.08 161.601 161.032 161.579 160.919 161.409 
160.637 160.987 160.112 160.338 159.429 159.591 158.701 158.81 157.936 
157.976 162.807 162.478 163.066 162.656 163.221 162.713 163.188 162.544 
162.873 162.089 162.291 161.414 161.534 160.619 160.674 159.754 159.749 
158.845 158.802 146.785 146.476 147.165 148.256 146.136 146.884 148.036 
148.719 149.9 145.806 146.61 147.892 148.57 149.805 150.452 151.755 
145.534 146.355 147.791 148.523 149.848 150.451 151.808 152.464 153.902 
145.391 146.125 147.583 148.427 149.854 150.542 151.944 152.606 154.134 
154.773 156.185 145.484 146.027 147.353 148.175 149.633 150.469 151.938 
152.726 154.314 155.061 156.581 157.066 158.223 145.761 146.166 147.361 
148.004 149.413 150.22 151.741 152.624 154.257 155.16 156.743 157.417 
158.627 158.948 159.825 146.027 146.425 147.56 148.091 149.424 150.103 
151.593 152.423 154.033 154.984 156.552 157.408 158.645 159.19 160.061 
160.376 161.133 146.214 146.635 147.735 148.263 149.52 150.151 151.54 
152.303 153.8 154.699 156.167 157.069 158.284 159.004 159.902 160.415 
161.168 161.572 162.314 145.841 144.374 145.215 145.47 142.922 143.708 
143.834 144.755 145.013 141.481 142.214 142.23 143.064 143.177 144.206 
144.525 140.073 140.753 140.721 141.466 141.515 142.393 142.631 143.735 
144.196 138.676 139.327 139.273 139.987 140.072 140.856 141.144 142.042 
142.535 143.584 144.189 137.343 137.922 137.872 138.572 138.727 139.513 
139.903 140.75 141.331 142.217 142.878 143.8 144.459 136.362 136.734 
136.742 137.301 137.556 138.282 138.749 139.583 140.2 141.1 141.784 
142.676 143.331 144.192 144.811 135.877 136.05 136.138 136.459 136.792 
137.33 137.85 138.542 139.138 139.962 140.619 141.542 142.203 143.101 
143.691 144.54 145.091 135.626 135.782 135.944 136.128 136.469 136.813 
137.321 137.82 138.374 138.999 139.597 140.393 141.068 141.956 142.599 
143.436 143.98 144.787 145.302 135.512 135.597 135.694 135.971 135.841 
135.895 136.28 136.259 136.573 136.321 136.262 136.716 136.681 137.082 
136.997 137.401 137.115 136.886 137.345 137.234 137.679 137.563 137.966 
137.89 138.365 138.126 137.777 138.162 137.96 138.39 138.22 138.62 
138.483 138.952 138.91 139.517 139.124 138.756 139.026 138.783 139.159 
138.969 139.388 139.21 139.73 139.61 140.271 140.22 140.976 140.037 
139.674 139.893 139.613 139.975 139.765 140.241 140.054 140.65 140.504 
141.217 141.104 141.849 141.771 142.506 140.952 140.58 140.837 140.513 
140.925 140.667 141.216 141 141.639 141.476 142.178 142.064 142.755 
142.652 143.292 143.224 143.862 141.879 141.531 141.839 141.517 141.967 
141.699 142.271 142.046 142.666 142.476 143.104 142.97 143.589 143.487 
144.075 143.982 144.572 144.519 145.153 142.469 143.466 142.803 142.521 
144.632 143.902 143.679 142.96 142.729 146.083 145.192 144.984 144.201 
144.02 143.267 143.077 148.028 146.881 146.659 145.653 145.463 144.614 
144.444 143.66 143.475 150.332 149.065 148.852 147.593 147.361 146.237 
146.026 145.081 144.883 144.06 143.88 152.529 151.369 151.158 149.907 
149.649 148.362 148.091 146.879 146.628 145.577 145.364 144.49 144.333 
154.496 153.439 153.214 152.092 151.824 150.632 150.337 149.084 148.791 
147.548 147.284 146.151 145.933 144.99 144.832 156.381 155.369 155.185 
154.087 153.843 152.701 152.414 151.243 150.942 149.745 149.454 148.236 
147.954 146.783 146.538 145.53 145.362 158.115 157.226 157.109 156.08 
155.889 154.749 154.483 153.289 152.974 151.798 151.487 150.341 150.037 
148.867 148.56 147.401 147.145 146.114 145.957 146.64 147.91 147.561 
148.236 149.353 148.959 149.683 149.309 150.065 150.825 150.448 151.203 
150.832 151.662 151.27 152.114 152.313 151.954 152.792 152.416 153.334 
152.951 153.907 153.462 154.385 153.892 153.543 154.501 154.109 155.099 
154.699 155.688 155.279 156.219 155.77 156.653 155.467 155.193 156.199 
155.857 156.809 156.443 157.331 156.975 157.8 157.452 158.225 157.875 
158.604 156.859 156.704 157.659 157.428 158.251 157.973 158.709 158.431 
159.14 158.863 159.561 159.27 159.936 159.62 160.198 158.011 157.952 
158.832 158.694 159.429 159.217 159.887 159.657 160.356 160.117 160.853 
160.574 161.287 160.939 161.549 161.124 161.581 158.942 158.955 159.782 
159.717 160.439 160.288 160.985 160.795 161.541 161.332 162.109 161.869 
162.614 162.311 162.947 162.534 163.011 162.484 162.813 140.087 139.998 
139.624 138.838 140.15 139.662 138.865 138.415 137.665 140.438 139.932 
139.209 138.629 137.861 137.346 136.687 140.68 140.233 139.55 139.031 
138.294 137.702 136.978 136.478 135.88 140.834 140.422 139.716 139.291 
138.568 138.09 137.36 136.84 136.128 135.668 135.035 141.001 140.574 
139.883 139.436 138.735 138.292 137.596 137.142 136.432 135.939 135.225 
134.782 134.244 141.218 140.794 140.184 139.7 139.068 138.55 137.892 
137.382 136.719 136.223 135.584 135.079 134.579 134.187 134.026 141.463 
141.059 140.53 140.079 139.537 139.011 138.417 137.817 137.194 136.607 
136.068 135.541 135.181 134.723 134.626 134.321 134.51 141.78 141.363 
140.882 140.453 139.98 139.515 139.023 138.451 137.922 137.266 136.809 
136.199 135.94 135.45 135.409 135.043 135.177 134.949 135.186 140.007 
138.748 139.454 139.708 137.523 138.183 138.467 139.287 139.716 136.481 
136.997 137.222 138.031 138.495 139.36 139.797 135.636 136.028 136.137 
136.814 137.192 138.063 138.501 139.369 139.754 134.792 135.182 135.239 
135.803 136.089 136.8 137.192 138.021 138.481 139.345 139.843 134.062 
134.357 134.485 134.978 135.334 135.882 136.308 136.906 137.438 138.183 
138.842 139.638 140.274 133.941 133.92 134.157 134.426 134.928 135.343 
135.907 136.324 136.922 137.437 138.163 138.822 139.563 140.219 140.821 
134.487 134.213 134.485 134.45 134.967 135.176 135.802 136.118 136.757 
137.144 137.844 138.347 139.08 139.637 140.275 140.803 141.335 135.173 
134.913 135.134 134.98 135.382 135.405 135.942 136.131 136.74 137.05 
137.712 138.12 138.806 139.263 139.899 140.355 140.923 141.375 141.92 
140.755 140.5 140.994 141.857 140.502 140.864 141.705 142.204 143.169 
140.56 140.91 141.685 142.118 143.048 143.599 144.555 140.538 140.918 
141.655 142.073 142.914 143.456 144.352 144.9 145.639 140.642 140.929 
141.682 142.029 142.82 143.286 144.118 144.642 145.372 145.822 146.452 
140.998 141.162 141.913 142.147 142.932 143.258 144.075 144.468 145.243 
145.624 146.368 146.747 147.603 141.436 141.56 142.255 142.444 143.204 
143.457 144.266 144.558 145.374 145.666 146.509 146.831 147.784 148.178 
149.233 141.895 141.979 142.639 142.791 143.515 143.739 144.521 144.795 
145.613 145.9 146.77 147.087 148.062 148.438 149.478 149.879 150.855 
142.464 142.48 143.146 143.221 143.932 144.075 144.831 145.054 145.865 
146.151 147.031 147.363 148.327 148.709 149.72 150.113 151.063 151.404 
152.216 145.749 145.212 145.091 144.341 144.773 144.607 143.854 143.708 
142.956 144.358 144.196 143.42 143.242 142.447 142.306 141.539 143.868 
143.736 142.929 142.774 141.929 141.78 140.983 140.885 140.146 143.365 
143.202 142.366 142.224 141.378 141.238 140.435 140.33 139.601 139.516 
138.792 142.948 142.722 141.871 141.677 140.857 140.699 139.922 139.798 
139.075 138.983 138.283 138.175 137.48 142.605 142.349 141.516 141.264 
140.462 140.25 139.485 139.315 138.583 138.467 137.79 137.697 137.078 
136.968 136.459 142.333 142.058 141.276 140.991 140.229 139.953 139.203 
138.948 138.211 138.016 137.35 137.24 136.688 136.619 136.191 136.14 
135.87 142.174 141.869 141.162 140.845 140.149 139.819 139.111 138.772 
138.059 137.753 137.097 136.889 136.343 136.253 135.829 135.837 135.543 
135.628 135.479 
POINT_DATA 1002
SCALARS Distance double
LOOKUP_TABLE default
143.076 142.195 142.83 143.742 143.54 144.128 144.558 144.354 144.895 
145.386 145.583 145.284 145.929 146.386 147.059 146.645 146.226 147.186 
147.679 148.356 149.251 147.503 147.044 148.356 149.122 149.834 150.724 
151.579 148.316 147.785 149.364 150.5 151.392 152.241 153.067 153.646 
149.415 148.637 150.555 151.85 152.934 153.784 154.55 155.155 155.535 
150.774 149.713 152.002 153.253 154.375 155.273 156.003 156.61 157.053 
157.345 152.148 150.974 153.399 154.563 155.623 156.575 157.36 157.973 
158.436 158.752 158.93 141.844 142.558 141.605 142.405 141.417 143.318 
142.299 141.256 143.2 144.124 142.201 141.113 143.182 144.086 145.119 
142.065 140.908 143.25 144.322 145.365 146.271 141.873 140.634 143.278 
144.642 145.86 146.758 147.2 141.72 140.428 143.199 144.738 146.143 
147.187 147.574 147.759 141.676 140.399 143.103 144.618 146.104 147.309 
147.828 147.846 148.318 141.731 140.559 143.061 144.484 145.961 147.296 
148.025 148.062 148.216 149.241 141.549 142.802 142.749 144.103 144.17 
144.213 145.498 145.458 145.547 145.719 146.494 146.258 146.702 146.972 
147.205 147.26 147.095 147.442 147.741 148.107 148.201 148.66 148.576 
148.635 148.496 148.536 148.623 148.404 150.521 150.306 150.614 150.262 
149.664 149.285 148.965 148.527 152.029 151.748 152.343 152.326 151.759 
151.058 150.525 149.982 149.484 153.162 152.952 153.452 153.679 153.554 
153.142 152.737 152.287 151.708 151.223 153.122 153.551 155.31 154.115 
155.814 157.374 154.538 156.266 157.869 159.544 154.679 156.437 158.244 
160.062 161.775 154.768 156.415 158.466 160.539 162.339 163.763 154.845 
156.432 158.595 160.9 162.855 164.363 165.559 154.734 156.395 158.549 
160.891 163.014 164.722 166.087 167.217 154.514 156.201 158.231 160.403 
162.57 164.546 166.159 167.457 168.482 154.319 155.945 157.783 159.693 
161.736 163.869 165.733 167.183 168.346 169.217 154.369 156.496 155.565 
158.714 157.716 156.672 161.104 160.133 158.938 157.744 163.223 162.465 
161.366 160.054 158.704 165.045 164.349 163.451 162.296 160.91 159.421 
166.867 166.156 165.22 164.158 162.903 161.427 159.89 168.443 167.913 
166.941 165.755 164.501 163.125 161.637 160.165 169.415 169.143 168.329 
167.108 165.754 164.411 163.034 161.634 160.274 169.796 169.816 169.967 
169.707 169.751 169.301 169.312 169.335 168.962 168.233 168.786 168.697 
168.436 167.736 166.813 167.917 167.684 167.722 167.139 166.295 165.371 
166.787 166.551 166.713 166.385 165.779 164.913 163.986 165.755 165.513 
165.7 165.455 165.071 164.379 163.467 162.566 164.7 164.376 164.728 
164.469 164.067 163.498 162.732 161.946 161.169 163.417 163.077 163.528 
163.331 162.893 162.338 161.723 161.132 160.55 159.827 169.119 169.659 
168.687 169.191 167.95 169.822 168.317 166.971 169.292 169.558 167.088 
165.842 168.205 168.879 169 165.727 164.569 166.738 167.625 168.131 
168.131 164.324 163.118 165.294 166.159 166.858 167.141 166.99 162.803 
161.58 163.889 164.787 165.523 165.979 166.065 165.874 161.21 160.096 
162.324 163.312 164.116 164.704 164.996 164.979 164.747 159.698 158.737 
160.684 161.626 162.459 163.148 163.62 163.787 163.682 163.425 153.636 
155.244 154.417 156.187 155.199 157.031 157.048 155.929 158.029 158.858 
157.816 156.602 158.977 159.947 160.828 158.494 157.256 159.807 161.076 
162.161 163.086 159.122 157.867 160.462 161.916 163.301 164.409 165.211 
159.645 158.31 161.032 162.503 163.951 165.194 166.153 166.823 159.956 
158.571 161.428 162.948 164.378 165.606 166.649 167.502 168.093 151.951 
152.559 150.725 151.272 149.336 153.251 149.858 147.956 151.958 153.998 
148.42 146.696 150.562 152.723 154.71 147.077 145.588 149.064 151.315 
153.413 155.375 145.978 144.648 147.671 149.797 152.006 154.056 156.036 
145.105 143.832 146.569 148.397 150.555 152.673 154.672 156.595 144.324 
143.097 145.662 147.204 149.156 151.287 153.277 155.176 156.98 143.61 