# vtk DataFile Version 4.0
vtk output
ASCII
DATASET POLYDATA
POINTS 1002 float
-77.1566 -107.722 57.5505 -77.5516 -106.978 56.5549 -78.1319 -107.217 56.8803 
-77.6967 -108.205 57.759 -78.7793 -107.576 57.3367 -76.8003 -108.828 58.4303 
-78.1994 -108.955 58.0193 -79.3317 -108.233 57.7043 -77.2194 -109.639 58.4941 
-76.5611 -110.255 59.2792 -78.4651 -110.001 58.1165 -79.6352 -109.131 57.8433 
-77.4679 -110.782 58.5454 -76.7499 -111.41 59.2594 -76.2911 -112.027 60.2062 
-78.5134 -111.143 58.0008 -79.7387 -110.115 57.8515 -77.5781 -112.022 58.5654 
-76.8699 -112.718 59.3282 -76.3005 -113.437 60.2291 -75.8203 -114.221 61.1834 
-78.5884 -112.289 57.9907 -79.7624 -111.287 57.8887 -77.7747 -113.168 58.6777 
-77.2243 -113.822 59.6921 -76.6108 -114.594 60.6187 -75.9489 -115.573 61.4525 
-75.3827 -116.431 62.249 -78.8159 -113.495 58.3782 -79.7827 -112.653 58.092 
-78.1381 -114.259 59.1427 -77.7343 -114.843 60.3006 -77.2397 -115.499 61.3833 
-76.5281 -116.478 62.2006 -75.8158 -117.471 62.868 -75.2814 -118.136 63.5225 
-79.1612 -114.631 59.0746 -79.8886 -113.907 58.5316 -78.5896 -115.28 59.9479 
-78.1626 -115.903 61.0502 -77.7027 -116.576 62.1073 -77.1063 -117.448 62.9889 
-76.4376 -118.394 63.6828 -75.8482 -119.082 64.2823 -75.4294 -119.476 64.9004 
-79.5374 -115.57 59.8396 -80.0829 -114.903 59.1298 -79.0416 -116.189 60.7906 
-78.5583 -116.899 61.8252 -78.027 -117.727 62.7375 -77.4673 -118.641 63.5461 
-76.91 -119.559 64.279 -76.3641 -120.243 64.9148 -75.9192 -120.588 65.5434 
-75.6139 -120.748 66.1778 -79.8599 -116.394 60.5805 -80.2773 -115.768 59.7747 
-79.4258 -117.041 61.5363 -78.9644 -117.826 62.5274 -78.4624 -118.744 63.3868 
-77.9329 -119.691 64.1292 -77.4044 -120.61 64.8185 -76.8708 -121.37 65.4301 
-76.3807 -121.787 66.0373 -76.0212 -121.899 66.7053 -75.7698 -121.893 67.3224 
-78.3046 -106.511 55.6598 -79.0138 -106.62 56.1669 -79.1419 -105.964 54.7651 
-79.9553 -106.061 55.2748 -80.0373 -105.389 53.8333 -79.771 -106.898 56.7315 
-80.8948 -105.595 54.2623 -80.9268 -104.849 52.9057 -80.7463 -106.388 55.8337 
-80.4182 -107.497 57.2228 -81.7163 -105.199 53.3756 -81.6854 -104.331 51.9738 
-81.5959 -106.068 54.8901 -81.3902 -107.015 56.56 -80.8516 -108.283 57.6716 
-82.2896 -104.942 52.5162 -82.1409 -104.033 50.9045 -82.295 -105.906 54.0855 
-82.1235 -106.872 55.7596 -81.8575 -107.82 57.3126 -81.0466 -109.244 57.9341 
-82.556 -105.039 51.4801 -82.2522 -104.246 49.8175 -82.8804 -105.915 53.2059 
-82.8116 -106.924 54.7914 -82.5473 -107.829 56.384 -82.0723 -108.834 57.5604 
-80.9835 -110.556 57.8977 -82.6141 -105.527 50.4814 -82.2553 -104.871 48.9915 
-83.2394 -106.132 52.2112 -83.5156 -106.935 53.8093 -83.2597 -107.908 55.2303 
-82.8344 -108.788 56.5514 -82.0116 -110.078 57.4419 -80.8109 -112.02 57.9095 
-82.6663 -106.189 49.7558 -82.357 -105.594 48.4718 -83.3197 -106.581 51.3058 
-83.8903 -107.026 52.9325 -83.9408 -107.876 54.4086 -83.6415 -108.805 55.692 
-82.9753 -109.796 56.758 -81.8351 -111.377 57.537 -80.7287 -113.302 58.2282 
-82.7682 -106.815 49.2975 -82.4912 -106.27 48.1629 -83.2999 -107.165 50.6132 
-83.9001 -107.433 52.0958 -84.2474 -108.074 53.6799 -84.2989 -108.984 55.1524 
-83.9163 -109.813 56.3031 -82.8878 -110.949 57.1423 -81.6262 -112.654 57.8717 
-80.7309 -114.405 58.7206 -82.6998 -107.248 48.675 -83.1481 -107.676 49.8666 
-82.8927 -108.135 49.3896 -83.5197 -108.543 50.5317 -83.0821 -109.038 50.2301 
-83.7389 -108.008 51.1337 -83.8046 -109.61 51.2023 -83.1369 -110.153 51.0326 
-84.1624 -109.165 51.6331 -84.2533 -108.577 52.5997 -83.6314 -110.777 51.903 
-82.8121 -111.406 51.8389 -84.344 -110.427 52.1644 -84.6145 -110.066 53.0564 
-84.5927 -109.479 54.306 -82.9015 -111.993 52.8554 -82.2444 -112.724 52.8798 
-83.7623 -111.433 53.0011 -84.4317 -111.167 53.6434 -84.6935 -110.842 54.8157 
-84.5286 -110.267 55.8304 -82.2834 -113.636 54.0141 -81.8043 -114.218 54.1244 
-82.8752 -112.821 54.1349 -83.4859 -112.124 54.5722 -83.912 -111.808 55.3346 
-84.0117 -111.529 56.2154 -83.6386 -111.131 56.8299 -82.0228 -115.554 55.1345 
-81.4692 -115.705 55.3755 -82.4906 -115.004 55.1725 -82.7766 -114.05 55.5497 
-82.8692 -113.269 56.0403 -82.8495 -112.979 56.5381 -82.6815 -112.802 57.0956 
-82.248 -112.623 57.5767 -81.6437 -117.039 56.3043 -81.033 -116.877 56.6113 
-82.2054 -116.998 56.2081 -82.5002 -116.441 56.4774 -82.4279 -115.53 56.9277 
-82.1185 -114.912 57.2661 -81.7964 -114.714 57.5972 -81.5121 -114.564 58.0677 
-81.1656 -114.42 58.491 -81.0156 -117.968 57.6899 -80.5153 -117.78 57.8889 
-81.558 -118.152 57.612 -81.9877 -118.087 57.7839 -82.1533 -117.561 58.1818 
-81.988 -116.873 58.565 -81.5967 -116.496 58.8159 -81.2088 -116.349 59.0952 
-80.9126 -116.152 59.4349 -80.621 -115.925 59.6765 -80.2514 -117.055 61.071 
-80.6028 -117.368 61.0987 -80.3912 -118.475 62.7031 -80.9575 -117.659 61.0276 
-80.8737 -118.829 62.9132 -80.817 -119.962 64.4073 -81.3837 -117.835 60.8827 
-81.3831 -119.103 63.0074 -81.4096 -120.308 64.6651 -81.3302 -121.412 65.9081 
-81.8032 -118.074 60.6775 -81.8972 -119.363 62.9145 -81.9496 -120.682 64.708 
-81.8084 -121.848 66.1086 -81.5458 -122.962 67.3688 -81.9259 -118.587 60.3316 
-82.1569 -119.839 62.5772 -82.4071 -121.244 64.4111 -82.2405 -122.437 66.0215 
-81.9633 -123.522 67.6084 -81.767 -124.645 68.9683 -81.6594 -119.048 59.9095 
-81.8923 -120.334 62.1343 -82.4696 -121.918 63.8553 -82.5728 -123.207 65.5052 
-82.4317 -124.166 67.4703 -82.5003 -125.159 69.1787 -82.4658 -126.024 70.3295 
-81.1993 -119.097 59.5792 -81.2907 -120.399 61.798 -81.9698 -122.163 63.4524 
-82.4164 -123.747 64.8508 -82.5287 -124.801 66.8626 -82.9682 -125.647 68.9578 
-83.4035 -126.378 70.3319 -83.2958 -126.814 71.2655 -80.7079 -118.917 59.3827 
-80.679 -120.155 61.5078 -81.2191 -121.862 63.2914 -81.7959 -123.622 64.5383 
-82.029 -124.986 66.1805 -82.557 -126.004 68.34 -83.4444 -126.72 70.0339 
-83.9052 -127.109 71.1015 -83.7809 -127.292 72.0845 -80.2608 -118.765 59.2976 
-80.1617 -119.952 61.1771 -80.5021 -121.474 63.0601 -81.0611 -123.125 64.445 
-81.3673 -124.607 65.7612 -81.6933 -125.894 67.5988 -82.4919 -126.879 69.4501 
-83.3671 -127.4 70.7556 -83.8159 -127.63 71.7993 -83.9032 -127.8 72.8843 
-79.8849 -117.749 62.0746 -80.0955 -119.336 63.7579 -79.4691 -118.604 63.0917 
-80.5927 -120.919 65.3979 -79.7407 -120.355 64.7198 -79.0385 -119.605 64.023 
-81.0201 -122.444 66.9328 -80.1921 -121.965 66.3295 -79.3249 -121.373 65.6183 
-78.5816 -120.578 64.8535 -81.1954 -124.125 68.581 -80.5115 -123.533 67.9712 
-79.6311 -122.933 67.2613 -78.8078 -122.223 66.4892 -78.0563 -121.457 65.6089 
-81.5727 -125.667 70.2031 -80.8309 -125.079 69.7292 -79.9787 -124.411 68.977 
-79.0218 -123.682 68.16 -78.2009 -122.934 67.2387 -77.467 -122.247 66.2308 
-82.2832 -126.574 71.4628 -81.369 -126.123 71.3602 -80.5641 -125.564 70.7932 
-79.5317 -124.946 69.9341 -78.4774 -124.185 68.9663 -77.6169 -123.473 67.8593 
-76.8996 -122.774 66.8056 -83.0353 -127.036 72.5076 -82.08 -126.617 72.7227 
-81.2324 -126.143 72.4883 -80.2671 -125.736 71.7838 -79.1013 -125.165 70.8209 
-78.0256 -124.399 69.7025 -77.1338 -123.706 68.5092 -76.4523 -122.939 67.4791 
-83.6248 -127.528 73.4801 -82.8824 -127.045 73.8756 -81.9326 -126.469 73.8867 
-80.8802 -126.072 73.4242 -79.7216 -125.741 72.5713 -78.5865 -125.136 71.4974 
-77.5628 -124.397 70.3179 -76.7031 -123.711 69.1525 -76.1185 -122.896 68.1473 
-83.8753 -128.306 73.9879 -83.6375 -127.851 74.6232 -83.4601 -128.757 74.7318 
-82.9857 -128.005 75.2427 -82.0452 -128.806 74.9022 -82.7794 -127.081 74.9106 
-81.152 -127.859 75.3407 -80.0139 -128.463 74.803 -81.754 -127.012 75.4771 
-81.4775 -126.379 74.7641 -79.0155 -127.654 75.2914 -78.421 -128.074 74.5743 
-79.7688 -126.985 75.7262 -80.1682 -126.365 75.2987 -80.0872 -126.032 74.1015 
-77.4835 -127.515 75.0163 -77.1157 -127.827 74.0907 -77.933 -127.103 75.7181 
-78.5085 -126.571 75.4833 -78.855 -126.107 74.375 -78.879 -125.67 72.996 
-76.03 -127.362 74.4472 -75.5455 -127.723 73.5766 -76.5374 -127.051 75.2208 
-77.1832 -126.712 75.1807 -77.6574 -126.288 74.198 -77.8385 -125.698 72.9686 
-77.8039 -125.009 71.747 -74.4424 -127.217 73.8829 -74.1216 -127.599 73.143 
-75.0174 -126.76 74.4575 -75.8833 -126.383 74.4628 -76.5491 -126.126 73.7216 
-76.7549 -125.696 72.6663 -76.8061 -124.973 71.6662 -76.8097 -124.259 70.5311 
-73.2261 -126.964 73.2678 -73.1184 -127.253 72.516 -73.5919 -126.441 73.7048 
-74.3987 -125.838 73.6665 -75.2416 -125.467 73.1725 -75.6264 -125.23 72.383 
-75.7543 -124.75 71.483 -75.9418 -124.072 70.5138 -76.0899 -123.452 69.3835 
-72.4008 -126.506 72.3938 -72.2568 -126.746 71.6444 -72.6364 -126.068 72.8177 
-73.1736 -125.415 72.8201 -73.9091 -124.806 72.545 -74.4676 -124.442 72.0862 
-74.7907 -124.116 71.3473 -75.1234 -123.634 70.3903 -75.4734 -123.072 69.3859 
-75.6877 -122.498 68.3589 -83.564 -128.267 72.7977 -83.3688 -128.892 73.6932 
-82.6894 -128.618 72.3458 -82.3024 -129.196 72.9454 -81.6216 -128.688 71.5662 
-82.532 -129.323 74.194 -81.0518 -129.135 71.9297 -80.4937 -128.486 70.6514 
-81.2214 -129.452 73.3413 -80.8381 -129.214 74.3375 -79.7336 -128.845 70.828 
-79.3036 -128.112 69.6504 -79.9398 -129.256 72.2265 -79.6949 -129.255 73.5802 
-79.1434 -128.77 74.2721 -78.4475 -128.393 69.6829 -78.2489 -127.567 68.5094 
-78.6415 -128.93 70.8719 -78.5888 -129.163 72.2556 -78.2472 -128.998 73.3865 
-77.7954 -128.422 73.8369 -77.3728 -127.727 68.5338 -77.3225 -126.829 67.3648 
-77.4082 -128.424 69.586 -77.3154 -128.935 70.582 -76.9376 -129.209 71.7866 
-76.5441 -128.929 72.7706 -76.1878 -128.275 73.2243 -76.4136 -126.916 67.3822 
-76.3943 -125.987 66.3706 -76.3843 -127.713 68.4512 -76.192 -128.394 69.2534 
-75.6527 -129.035 70.104 -75.0461 -129.253 71.3056 -74.8102 -128.796 72.2658 
-74.6314 -128.131 72.7564 -75.5651 -126.106 66.2072 -75.6431 -125.185 65.4516 
-75.505 -126.934 67.1894 -75.3291 -127.633 68.1144 -74.8469 -128.341 68.8401 
-74.1752 -128.89 69.8248 -73.8058 -128.85 70.995 -73.7746 -128.328 71.7534 
-73.5884 -127.759 72.1678 -74.9893 -125.361 65.0622 -75.2123 -124.496 64.4871 
[...]
CELL_DATA 2000
SCALARS Distance double
LOOKUP_TABLE default
143.176 143.892 143.666 144.035 144.779 144.486 144.874 144.649 145.164 
145.705 145.427 145.841 145.58 146.104 145.912 146.58 146.542 146.321 
146.773 146.57 147.134 146.928 147.62 147.464 148.274 147.406 147.162 
147.689 147.521 148.194 148.01 148.766 148.583 149.435 149.283 150.163 
148.473 148.157 148.783 148.558 149.358 149.163 150.02 149.808 150.701 
150.511 151.415 151.22 152.047 149.674 149.362 150.057 149.794 150.642 
150.431 151.337 151.123 152.039 151.829 152.744 152.52 153.357 153.08 
153.81 150.83 150.593 151.316 151.093 151.926 151.738 152.634 152.445 
153.36 153.169 154.092 153.877 154.733 154.437 155.171 154.821 155.474 
151.889 151.719 152.461 152.295 153.124 152.978 153.875 153.72 154.636 
154.465 155.38 155.198 156.056 155.805 156.533 156.194 156.813 156.443 
157.003 142.835 142.561 142.961 143.529 142.291 142.704 143.303 143.729 
144.386 142.049 142.463 143.094 143.522 144.212 144.65 145.321 141.819 
142.262 142.935 143.354 144.087 144.518 145.241 145.606 146.211 141.549 
142.054 142.814 143.253 144.038 144.453 145.241 145.597 146.26 146.507 
147.081 141.329 141.829 142.709 143.19 144.055 144.464 145.271 145.633 
146.335 146.605 147.193 147.422 148.062 141.345 141.736 142.672 143.145 
144.075 144.504 145.314 145.672 146.354 146.656 147.244 147.512 148.114 
148.436 149.159 141.63 141.895 142.79 143.176 144.08 144.507 145.335 
145.713 146.428 146.711 147.313 147.545 148.124 148.426 149.097 149.508 
150.26 142.049 142.244 143.059 143.341 144.158 144.512 145.34 145.737 
146.565 146.878 147.584 147.736 148.305 148.462 149.064 149.397 150.107 
150.558 151.299 142.548 143.577 143.216 143.532 144.634 144.267 144.598 
144.225 144.569 145.768 145.383 145.782 145.365 145.755 145.333 145.75 
146.834 146.499 146.926 146.596 147.08 146.657 147.135 146.65 147.069 
147.807 147.462 147.783 147.582 148.035 147.863 148.349 148.043 148.414 
147.924 148.126 149.037 148.527 148.816 148.417 148.763 148.582 148.985 
148.922 149.247 149.044 149.168 148.739 148.766 150.522 149.981 150.43 
149.776 150.155 149.543 149.886 149.509 149.847 149.647 149.886 149.609 
149.728 149.312 149.454 151.813 151.473 152.033 151.532 152.005 151.283 
151.619 150.835 151.145 150.533 150.895 150.448 150.795 150.352 150.66 
150.178 150.498 152.779 152.593 153.133 152.914 153.423 153.016 153.394 
152.719 152.997 152.208 152.541 151.84 152.272 151.676 152.116 151.545 
151.937 151.373 151.722 152.611 152.919 153.245 154.248 153.18 153.591 
154.717 155.047 156.181 153.407 153.874 155.111 155.542 156.774 157.082 
158.218 153.716 154.151 155.46 155.953 157.278 157.667 158.852 159.094 
160.157 154.11 154.496 155.794 156.322 157.72 158.182 159.434 159.715 
160.83 161.031 162.126 154.335 154.773 155.937 156.57 157.969 158.589 
159.903 160.286 161.443 161.708 162.875 163.093 164.189 154.2 154.734 
155.713 156.477 157.783 158.641 159.956 160.597 161.742 162.205 163.362 
163.767 164.887 165.09 165.934 153.831 154.389 155.242 156.031 157.222 
158.208 159.476 160.365 161.457 162.193 163.263 163.968 165.045 165.558 
166.383 166.555 167.096 153.462 153.974 154.777 155.488 156.583 157.527 
158.737 159.699 160.753 161.622 162.597 163.502 164.509 165.346 166.171 
166.695 167.234 167.464 167.891 152.716 154.35 153.451 153.367 156.29 
155.258 155.185 154.193 154.116 158.333 157.307 157.267 156.177 156.103 
155.034 154.939 160.289 159.341 159.347 158.3 158.233 157.125 157.007 
155.89 155.742 162.286 161.322 161.378 160.351 160.29 159.219 159.078 
157.973 157.783 156.669 156.478 164.308 163.372 163.434 162.405 162.333 
161.245 161.065 159.968 159.732 158.651 158.403 157.344 157.103 165.958 
165.233 165.225 164.362 164.255 163.255 163.039 161.936 161.634 160.525 
160.202 159.16 158.848 157.851 157.53 167.134 166.617 166.576 165.908 
165.775 164.984 164.768 163.822 163.488 162.402 161.987 160.896 160.493 
159.488 159.111 158.151 157.772 168.074 167.685 167.733 167.141 167.018 
166.32 166.09 165.329 164.995 164.101 163.637 162.61 162.096 161.071 
160.606 159.651 159.231 158.311 157.912 168.619 169.303 168.84 168.344 
169.288 169.266 168.76 168.302 167.569 168.352 168.778 168.365 168.37 
167.646 167.304 166.523 167.148 167.637 167.363 167.664 167.125 167.103 
166.384 166.147 165.38 166.113 166.543 166.392 166.721 166.397 166.499 
165.93 165.838 165.116 164.895 164.047 165.085 165.543 165.426 165.844 
165.618 165.842 165.363 165.351 164.649 164.507 163.675 163.435 162.512 
164.068 164.49 164.295 164.771 164.501 164.93 164.471 164.682 163.982 
163.962 163.12 162.975 162.09 161.866 160.986 163.086 163.478 163.184 
163.579 163.186 163.632 163.143 163.554 162.91 163.127 162.322 162.334 
161.477 161.378 160.545 160.376 159.576 161.995 162.436 162.102 162.459 
161.985 162.317 161.771 162.151 161.568 161.916 161.231 161.419 160.64 
160.686 159.907 159.866 159.112 158.991 158.247 168.696 168.648 169 
169.386 168.059 168.699 169.118 169.453 169.393 167.069 167.867 168.251 
168.862 168.833 169.028 168.497 165.839 166.702 167.034 167.785 167.837 
168.274 167.908 167.936 167.3 164.464 165.354 165.631 166.449 166.553 
167.191 167.027 167.307 166.835 166.801 166.218 163 163.904 164.144 
164.982 165.071 165.825 165.762 166.326 166.024 166.253 165.726 165.725 
165.162 161.482 162.386 162.619 163.472 163.562 164.323 164.283 164.968 
164.806 165.298 164.936 165.136 164.637 164.664 164.165 160.024 160.859 
161.079 161.935 162.055 162.829 162.81 163.504 163.407 164.024 163.824 
164.246 163.879 164.072 163.605 163.673 163.183 158.753 159.462 159.642 
160.423 160.544 161.32 161.317 162.034 161.931 162.609 162.44 163.038 
162.742 163.161 162.714 162.965 162.444 162.595 162.057 153.508 154.117 
154.137 154.894 154.827 154.874 155.764 155.765 156.742 155.51 155.63 
156.627 156.715 157.771 157.797 158.847 156.19 156.339 157.399 157.567 
158.672 158.788 159.825 159.857 160.801 156.907 157.067 158.157 158.339 
159.47 159.635 160.701 160.775 161.744 161.738 162.665 157.543 157.771 
158.86 159.085 160.194 160.396 161.475 161.615 162.635 162.69 163.679 
163.66 164.599 157.986 158.298 159.342 159.676 160.742 161.035 162.083 
162.321 163.342 163.516 164.495 164.603 165.505 165.52 166.254 158.258 
158.606 159.57 159.994 161.023 161.437 162.461 162.814 163.816 164.106 
165.06 165.274 166.129 166.252 166.945 166.932 167.389 158.429 158.777 
159.663 160.108 161.092 161.583 162.587 163.052 164.025 164.436 165.361 
165.695 166.54 166.759 167.481 167.544 168.072 167.93 168.203 152.833 
151.914 152.688 153.343 150.882 151.709 152.361 153.221 153.948 149.8 
150.629 151.259 152.164 152.88 153.805 154.564 148.738 149.532 150.117 
151.015 151.724 152.684 153.451 154.406 155.203 147.697 148.463 149.007 
149.867 150.546 151.505 152.286 153.272 154.081 155.056 155.883 146.691 
147.42 147.944 148.765 149.418 150.339 151.114 152.102 152.925 153.917 
154.737 155.727 156.522 145.804 146.462 146.997 147.75 148.402 149.249 
150.004 150.948 151.776 152.764 153.599 154.58 155.378 156.331 157.04 
145.082 145.67 146.232 146.901 147.55 148.299 149.009 149.868 150.658 
151.622 152.463 153.452 154.271 155.216 155.945 156.815 157.413 144.481 
145.027 145.595 146.212 146.831 147.501 148.134 148.895 149.594 150.498 
151.291 152.292 153.107 154.097 154.84 155.743 156.36 157.16 157.656 
144.338 144.513 144.77 145.481 144.681 144.964 145.709 145.969 146.703 
144.895 145.148 145.902 146.18 146.942 147.204 147.965 145.247 145.429 
146.198 146.418 147.218 147.464 148.299 148.539 149.406 145.666 145.826 
146.6 146.79 147.634 147.842 148.752 148.963 149.927 150.13 151.109 
146.065 146.238 147.013 147.215 148.095 148.324 149.287 149.507 150.513 
150.721 151.754 151.939 152.935 146.487 146.653 147.473 147.66 148.578 
148.811 149.815 150.062 151.088 151.319 152.351 152.577 153.594 153.767 
154.681 146.98 147.132 148.005 148.18 149.124 149.335 150.35 150.597 
151.638 151.881 152.907 153.145 154.15 154.372 155.296 155.432 156.208 
147.514 147.659 148.534 148.727 149.661 149.883 150.863 151.119 152.137 
152.408 153.424 153.678 154.658 154.891 155.799 155.982 156.762 156.853 
157.501 148.081 149.303 148.83 149.138 150.63 150.139 150.506 149.978 
150.308 152.117 151.576 152.024 151.445 151.827 151.218 151.55 153.881 
153.223 153.753 153.095 153.536 152.847 153.217 152.53 152.86 155.844 
155.112 155.613 154.912 155.353 154.635 155.007 154.277 154.617 153.886 
154.178 157.627 156.998 157.372 156.719 157.077 156.412 156.743 156.056 
156.373 155.663 155.948 155.195 155.419 159.032 158.57 158.934 158.365 
158.713 158.078 158.415 157.746 158.064 157.379 157.659 156.939 157.146 
156.38 156.526 160.231 159.875 160.368 159.888 160.355 159.75 160.161 
159.462 159.806 159.078 159.361 158.627 158.821 158.06 158.16 157.393 
157.446 161.328 161.07 161.647 161.302 161.848 161.381 161.828 161.214 
161.53 160.822 161.053 160.32 160.481 159.715 159.776 158.982 158.968 
158.199 158.164 147.7 147.493 148.012 148.867 147.16 147.758 148.616 
149.206 150.134 146.637 147.323 148.224 148.918 149.895 150.52 151.557 
146.158 146.772 147.734 148.498 149.604 150.305 151.443 152.069 153.287 
146.04 146.446 147.402 148.075 149.3 150.063 151.363 152.04 153.389 
154.009 155.334 146.198 146.505 147.413 147.903 149.102 149.826 151.212 
151.985 153.432 154.158 155.558 156.115 157.253 146.335 146.703 147.62 
148.022 149.118 149.708 151.016 151.796 153.227 154.09 155.49 156.233 
157.374 157.838 158.672 146.409 146.825 147.796 148.223 149.267 149.761 
150.927 151.592 152.9 153.755 155.099 155.971 157.122 157.782 158.644 
159.071 159.786 146.537 146.925 147.906 148.36 149.384 149.865 150.923 
151.491 152.647 153.391 154.632 155.485 156.64 157.405 158.336 158.916 
159.683 160.127 160.831 146.9 145.594 146.412 146.692 144.13 145.011 
145.304 146.168 146.371 142.634 143.424 143.623 144.623 144.863 145.747 
145.85 141.434 141.957 141.913 142.789 142.994 144.068 144.307 145.205 
145.377 140.406 140.875 140.691 141.206 141.219 142.132 142.469 143.57 
143.981 144.891 145.266 139.054 139.753 139.708 140.178 140.122 140.649 
140.892 141.798 142.349 143.43 143.99 144.916 145.382 137.66 138.322 
138.431 139.119 139.267 139.801 140.041 140.604 141.071 141.908 142.52 
143.519 144.06 144.997 145.445 136.912 137.203 137.297 137.862 138.162 
138.88 139.319 139.946 140.41 140.971 141.484 142.195 142.754 143.62 
144.137 145.026 145.499 136.72 136.79 136.826 137.041 137.273 137.829 
138.342 139.114 139.709 140.377 140.88 141.426 141.926 142.544 143.1 
143.828 144.378 145.161 145.682 136.648 136.566 136.675 136.783 136.56 
136.64 136.836 136.869 137.143 136.918 136.798 137.076 137.034 137.397 
137.473 138.116 137.778 137.419 137.715 137.493 137.908 137.854 138.507 
138.693 139.513 138.839 138.422 138.682 138.335 138.688 138.483 139.036 
139.112 139.886 140.101 140.8 139.799 139.432 139.644 139.311 139.574 
139.299 139.704 139.645 140.324 140.487 141.243 141.34 141.921 140.7 
140.334 140.525 140.202 140.449 140.154 140.507 140.332 140.936 140.987 
141.789 141.882 142.588 142.53 143.092 141.598 141.234 141.44 141.097 
141.396 141.072 141.472 141.202 141.773 141.682 142.453 142.51 143.287 
143.273 143.888 143.765 144.325 142.43 142.111 142.345 142.037 142.39 
142.092 142.551 142.255 142.804 142.591 143.261 143.214 143.954 143.969 
144.63 144.563 145.126 145.011 145.586 142.935 143.81 143.199 142.928 
144.965 144.225 144.003 143.316 143.086 146.406 145.539 145.342 144.545 
144.359 143.587 143.351 148.113 147.128 146.925 146.005 145.814 144.966 
144.75 143.907 143.656 149.999 148.956 148.753 147.706 147.488 146.515 
146.303 145.386 145.155 144.267 144.085 151.861 150.869 150.688 149.615 
149.393 148.314 148.112 147.074 146.876 145.873 145.691 144.79 144.705 
153.602 152.686 152.543 151.536 151.331 150.262 150.06 148.991 148.813 
147.736 147.542 146.499 146.337 145.444 145.352 155.258 154.397 154.293 
153.354 153.173 152.156 151.929 150.903 150.695 149.675 149.462 148.406 
148.168 147.142 146.937 146.04 145.881 156.789 156.013 155.924 155.065 
154.9 153.947 153.703 152.702 152.436 151.456 151.202 150.228 149.959 
148.954 148.68 147.689 147.455 146.543 146.364 146.954 148.096 147.774 
148.338 149.337 148.987 149.567 149.24 149.832 150.607 150.26 150.844 
150.501 151.111 150.768 151.379 151.887 151.561 152.209 151.839 152.506 
152.121 152.807 152.408 153.108 153.191 152.896 153.664 153.303 154.074 
153.647 154.412 153.958 154.727 154.277 155.058 154.489 154.243 155.072 
154.788 155.618 155.265 156.049 155.623 156.373 155.932 156.677 156.254 
156.983 155.686 155.519 156.333 156.132 156.934 156.704 157.455 157.153 
157.831 157.476 158.136 157.778 158.427 158.056 158.645 156.711 156.637 
157.441 157.305 158.077 157.907 158.646 158.424 159.08 158.788 159.392 
159.094 159.706 159.398 159.967 159.586 160.045 157.558 157.568 158.377 
158.324 159.1 158.988 159.75 159.576 160.278 160.003 160.608 160.288 
160.869 160.585 161.155 160.846 161.319 160.899 161.242 141.344 140.869 
140.777 140.183 140.544 140.333 139.708 139.65 139.12 140.516 140.122 
139.439 139.236 138.67 138.613 138.097 140.778 140.245 139.493 139.081 
138.44 138.232 137.701 137.623 137.13 141.131 140.594 139.848 139.28 
138.587 138.159 137.615 137.364 136.89 136.734 136.266 141.435 140.959 
140.294 139.719 139.067 138.502 137.961 137.501 137.026 136.665 136.184 
135.941 135.568 141.735 141.292 140.713 140.191 139.614 139.064 138.54 
138.001 137.485 136.969 136.459 136.035 135.684 135.46 135.42 142.056 
141.642 141.132 140.646 140.124 139.614 139.113 138.589 138.057 137.492 
136.959 136.443 136.116 135.78 135.791 135.655 135.916 142.37 141.99 
141.537 141.093 140.62 140.137 139.681 139.168 138.693 138.107 137.609 
137.027 136.696 136.301 136.285 136.111 136.311 136.252 136.479 141.434 
140.312 140.996 141.307 139.239 139.896 140.232 140.959 141.377 138.174 
138.808 139.116 139.882 140.347 141.115 141.562 137.145 137.714 137.962 
138.729 139.209 140.061 140.574 141.307 141.69 136.215 136.698 136.881 
137.575 138.042 138.909 139.506 140.32 140.806 141.443 141.826 135.533 
135.855 136.043 136.585 137.037 137.799 138.437 139.277 139.883 140.597 
141.077 141.668 142.123 135.464 135.468 135.747 136.001 136.501 136.996 
137.638 138.318 138.983 139.708 140.285 140.94 141.442 142.034 142.511 
135.983 135.765 136.072 136.05 136.567 136.765 137.401 137.78 138.444 
138.967 139.61 140.203 140.787 141.372 141.898 142.445 142.923 136.51 
136.349 136.546 136.485 136.873 136.977 137.525 137.751 138.364 138.678 
139.317 139.725 140.366 140.835 141.438 141.916 142.47 142.93 143.443 
142.163 142.023 142.44 143.187 142.072 142.369 143.075 143.475 144.233 
142.232 142.48 143.146 143.444 144.182 144.57 145.358 142.315 142.602 
143.267 143.564 144.299 144.619 145.415 145.765 146.51 142.417 142.659 
143.329 143.651 144.41 144.761 145.577 145.91 146.688 146.937 147.605 
142.722 142.859 143.527 143.755 144.509 144.842 145.666 146.05 146.864 
147.168 147.889 148.076 148.788 143.108 143.23 143.886 144.046 144.758 
144.992 145.771 146.111 146.929 147.297 148.065 148.352 149.079 149.328 
150.118 143.473 143.591 144.215 144.387 145.059 145.269 145.992 146.259 
147.033 147.362 148.141 148.475 149.221 149.538 150.282 150.613 151.357 
143.942 143.98 144.573 144.69 145.334 145.53 146.229 146.481 147.22 
147.505 148.257 148.564 149.313 149.636 150.376 150.705 151.417 151.737 
152.379 146.775 146.202 146.142 145.451 145.731 145.598 144.867 144.779 
144.042 145.348 145.181 144.462 144.281 143.556 143.404 142.703 144.931 
144.786 144.052 143.895 143.173 143.013 142.353 142.194 141.601 144.476 
144.32 143.529 143.406 142.627 142.551 141.823 141.784 141.111 141.088 
140.451 144.13 143.893 143.097 142.89 142.091 141.952 141.164 141.111 
140.32 140.359 139.576 139.692 138.948 143.931 143.633 142.872 142.574 
141.819 141.543 140.792 140.552 139.78 139.601 138.835 138.77 138.085 
138.147 137.59 143.785 143.486 142.749 142.433 141.706 141.39 140.679 
140.357 139.659 139.323 138.656 138.346 137.783 137.586 137.199 137.141 
136.919 143.672 143.376 142.687 142.359 141.664 141.326 140.631 140.3 
139.627 139.308 138.684 138.367 137.821 137.546 137.146 136.996 136.783 
136.764 136.687 
POINT_DATA 1002
SCALARS Distance double
LOOKUP_TABLE default
143.462 142.726 143.345 144.194 144.142 144.451 145.125 145.074 145.305 
145.738 146.087 145.96 146.315 146.698 147.309 146.923 146.751 147.315 
147.776 148.39 149.129 147.822 147.654 148.329 148.941 149.585 150.334 
151.032 149.004 148.769 149.528 150.222 150.902 151.619 152.297 152.813 
150.317 149.941 150.855 151.546 152.249 152.971 153.646 154.131 154.487 
151.524 151.028 152.112 152.816 153.544 154.29 155.017 155.537 155.847 
156.089 152.608 152.035 153.253 154.01 154.803 155.563 156.289 156.864 
157.199 157.393 157.529 142.437 143.103 142.147 142.865 141.867 143.945 
142.662 141.624 143.761 144.935 142.504 141.333 143.642 144.862 145.929 
142.326 140.991 143.616 144.86 146.005 146.848 142.175 140.826 143.631 
144.92 146.039 146.966 147.772 142.211 141.001 143.634 144.964 146.06 
146.968 147.804 148.775 142.477 141.416 143.686 144.925 146.118 147.108 
147.868 148.708 149.815 142.841 141.891 143.862 144.928 146.171 147.41 
148.234 148.818 149.675 150.836 142.912 143.895 143.927 144.982 144.997 
144.92 146.171 146.139 146.195 146.154 147.188 147.177 147.422 147.624 
147.63 148.026 148.222 148.139 148.547 148.879 148.736 149.337 149.556 
149.092 149.066 149.347 149.522 149.25 151.054 150.959 150.903 150.477 
150.121 150.079 150.064 149.877 152.408 152.074 152.642 152.475 151.913 
151.406 151.209 151.122 150.99 153.299 152.968 153.696 153.938 153.774 
153.309 152.912 152.702 152.528 152.296 153.506 153.937 155.304 154.314 
155.905 157.338 154.613 156.413 158.007 159.311 154.933 156.839 158.585 
159.966 161.198 155.252 157.2 159.125 160.596 161.932 163.253 155.301 
157.264 159.446 161.14 162.599 164.097 165.22 154.972 156.871 159.216 
161.209 162.881 164.609 165.956 166.627 154.504 156.257 158.54 160.674 
162.494 164.418 166.11 167.084 167.579 154.124 155.708 157.787 159.885 
161.703 163.599 165.513 166.891 167.73 168.366 154.242 156.231 155.087 
158.354 157.217 156.008 160.36 159.331 158.153 156.861 162.411 161.366 
160.176 158.906 157.585 164.453 163.44 162.195 160.826 159.466 158.16 
166.029 165.194 164.132 162.791 161.287 159.857 158.531 167.198 166.504 
165.63 164.546 163.131 161.547 160.079 158.726 168.281 167.723 166.829 
165.814 164.629 163.155 161.589 160.152 158.817 169.211 169.029 169.672 
169.098 169.097 168.156 168.145 167.821 167.857 166.928 166.952 166.673 
166.997 166.526 165.701 166.007 165.662 166.219 165.978 165.292 164.358 
164.964 164.632 165.308 165.33 164.786 163.874 162.794 163.878 163.698 
164.045 164.154 163.932 163.23 162.259 161.218 162.86 162.702 162.816 
162.699 162.578 162.222 161.515 160.658 159.761 161.747 161.538 161.701 
161.438 161.179 160.95 160.521 159.884 159.179 158.397 168.514 169.277 
168.157 168.666 167.358 169.414 167.58 166.271 168.51 168.58 166.258 
164.991 167.268 167.737 167.41 164.815 163.59 165.824 166.572 166.776 
166.321 163.31 162.102 164.309 165.084 165.637 165.665 165.196 161.749 
160.598 162.801 163.579 164.191 164.598 164.552 164.17 160.233 159.241 
161.258 162.108 162.745 163.287 163.59 163.497 163.152 158.912 158.106 
159.78 160.596 161.25 161.798 162.238 162.398 162.248 161.934 153.435 
154.855 154.065 155.705 154.716 156.736 156.473 155.344 157.708 158.871 
157.204 156.026 158.522 159.788 160.818 157.974 156.722 159.294 160.595 
161.722 162.695 158.619 157.291 159.989 161.302 162.531 163.655 164.689 
158.986 157.683 160.422 161.817 163.131 164.366 165.467 166.361 159.15 
157.941 160.577 162.072 163.496 164.823 165.992 166.93 167.548 152.1 
152.533 151.112 151.486 150.052 153.068 150.354 148.998 151.942 153.635 
149.248 147.971 150.755 152.48 154.243 148.174 146.951 149.603 151.286 
153.099 154.904 147.139 145.987 148.523 150.133 151.927 153.754 155.556 
146.265 145.166 147.591 149.095 150.79 152.615 154.432 156.147 145.583 
144.501 146.85 148.213 149.724 151.465 153.313 155.072 156.618 145 