# vtk DataFile Version 4.0
vtk output
ASCII
DATASET POLYDATA
POINTS 1002 float
-76.5265 -107.961 59.312 -76.9159 -107.224 58.6327 -77.5322 -107.47 58.9002 
-77.1016 -108.342 59.6208 -78.1624 -107.821 59.2986 -76.0636 -109.123 60.0978 
-77.6436 -108.857 60.1012 -78.8012 -108.232 59.9428 -76.4604 -109.801 60.3513 
-75.6238 -110.789 61.052 -78.0527 -109.572 60.6155 -79.2673 -108.906 60.5145 
-76.7744 -110.683 60.6569 -75.8376 -111.832 61.159 -75.3491 -112.767 62.0437 
-78.1217 -110.663 60.656 -79.3304 -109.936 60.5938 -76.9497 -111.811 60.7952 
-76.0119 -113.058 61.2266 -75.5703 -114.031 62.1089 -75.2741 -114.817 62.9814 
-77.9294 -111.911 60.2567 -79.0803 -111.071 60.3045 -77.036 -113.094 60.6493 
-76.2731 -114.321 61.3164 -75.8253 -115.323 62.2202 -75.6266 -116.099 63.2257 
-75.2948 -116.844 64.0323 -77.8802 -113.007 60.0926 -78.817 -112.187 60.0115 
-77.302 -114.168 60.7299 -76.8282 -115.351 61.7078 -76.3456 -116.386 62.664 
-76.044 -117.287 63.5804 -75.7769 -118.069 64.4686 -75.4151 -118.768 65.1952 
-78.1423 -114.078 60.4308 -78.7053 -113.317 59.9288 -77.8173 -115.079 61.3416 
-77.5801 -116.132 62.4775 -77.1774 -117.162 63.4779 -76.7376 -118.217 64.2502 
-76.4026 -119.182 64.9693 -76.0812 -119.922 65.6665 -75.7586 -120.486 66.2202 
-78.5738 -115.203 61.0589 -78.7972 -114.394 60.178 -78.398 -116.106 62.1655 
-78.2065 -117.041 63.2527 -77.9223 -118.022 64.1771 -77.5663 -119.097 64.9374 
-77.2282 -120.146 65.5873 -76.9161 -120.955 66.188 -76.601 -121.506 66.7145 
-76.2755 -121.912 67.1198 -79.0376 -116.25 61.7689 -79.0825 -115.385 60.7297 
-78.949 -117.152 62.9132 -78.7285 -118.088 63.8619 -78.4558 -119.1 64.6008 
-78.2473 -120.157 65.3318 -78.056 -121.126 66.0608 -77.7942 -121.875 66.6964 
-77.4788 -122.385 67.2476 -77.1385 -122.734 67.7195 -76.768 -122.99 68.0998 
-77.6182 -106.771 58.0581 -78.2447 -107.114 58.2719 -78.2874 -106.382 57.3061 
-78.9505 -106.827 57.4744 -79.046 -105.953 56.4775 -78.9449 -107.487 58.6769 
-79.7926 -106.403 56.7683 -79.8252 -105.466 55.6338 -79.7449 -107.215 57.9373 
-79.7387 -107.884 59.4206 -80.6103 -105.918 56.1107 -80.3702 -105.121 54.6183 
-80.6435 -106.77 57.3827 -80.6657 -107.593 58.8089 -80.4083 -108.547 60.2138 
-81.2466 -105.657 55.1969 -80.8364 -104.919 53.586 -81.473 -106.311 56.7517 
-81.4867 -107.115 58.2269 -81.4642 -108.223 59.8578 -80.6596 -109.542 60.6762 
-81.8885 -105.499 54.3184 -81.4845 -104.586 52.9281 -82.2573 -106.088 55.8304 
-82.1751 -106.666 57.3484 -82.1466 -107.803 59.1808 -81.829 -109.313 60.6257 
-80.4254 -110.732 60.6077 -82.4646 -105.247 53.7487 -82.0764 -104.244 52.4626 
-83.0034 -105.971 55.0576 -82.9796 -106.488 56.3869 -82.6683 -107.491 58.087 
-82.4675 -109.144 59.904 -81.5205 -110.691 60.577 -79.8565 -111.945 60.0845 
-82.7344 -105.162 53.1396 -82.3652 -104.304 51.8328 -83.4098 -105.931 54.4382 
-83.7154 -106.53 55.7138 -83.3824 -107.402 57.1666 -82.9306 -108.944 58.8094 
-82.1371 -110.611 59.8837 -80.6539 -111.857 59.8642 -79.3063 -113.012 59.6228 
-82.786 -105.453 52.3845 -82.4422 -104.799 51.1746 -83.4638 -106.142 53.661 
-84.0369 -106.778 55.0096 -83.9935 -107.532 56.4728 -83.483 -108.754 57.9276 
-82.6309 -110.297 58.9968 -81.2584 -111.614 59.3466 -79.8522 -112.714 59.308 
-79.1291 -113.967 59.6743 -82.6414 -105.819 51.4204 -83.2294 -106.446 52.5639 
-82.9371 -106.846 51.8778 -83.6515 -107.544 52.861 -83.0991 -107.918 52.4181 
-83.9516 -107.133 53.8388 -83.6362 -108.613 53.2581 -82.88 -109.06 52.8958 
-84.1089 -108.262 54.0802 -84.2364 -107.832 55.3806 -83.0148 -109.554 53.803 
-82.4171 -110.311 53.4638 -83.5899 -109.206 54.4491 -83.897 -108.949 55.6769 
-83.8733 -108.738 57.0018 -82.2732 -110.835 54.6391 -82.0329 -111.924 54.3541 
-82.6182 -110.161 55.1161 -82.9612 -109.947 55.9772 -83.1541 -109.91 57.1691 
-83.0211 -110.029 58.1995 -81.8737 -112.899 55.7468 -81.7297 -113.806 55.6072 
-81.9304 -111.931 56.1042 -81.9971 -111.393 56.6104 -82.0899 -111.27 57.3224 
-82.0239 -111.276 58.1184 -81.6699 -111.409 58.7724 -81.6622 -115.084 57.0631 
-81.3372 -115.39 57.1338 -81.7654 -114.362 57.233 -81.6155 -113.573 57.5735 
-81.3829 -113.161 57.958 -81.1747 -112.962 58.3886 -80.7857 -112.744 58.7685 
-80.254 -112.659 59.035 -81.3539 -116.641 58.527 -80.8833 -116.521 58.6994 
-81.7064 -116.425 58.4814 -81.69 -115.788 58.6735 -81.306 -115.174 58.9882 
-80.924 -114.871 59.2823 -80.576 -114.582 59.49 -80.0416 -114.211 59.5496 
-79.4881 -114 59.5576 -80.9664 -117.74 59.9495 -80.5094 -117.533 60.0555 
-81.4597 -117.839 59.8444 -81.7397 -117.552 59.9127 -81.556 -116.966 60.1986 
-81.1389 -116.53 60.5332 -80.8113 -116.336 60.74 -80.4239 -116.079 60.7594 
-79.8806 -115.734 60.6672 -79.4004 -115.496 60.631 -79.4952 -116.959 62.1428 
-79.8584 -117.226 62.1142 -79.9795 -118.631 63.6946 -80.3604 -117.545 62.207 
-80.3734 -118.994 63.7702 -80.6326 -120.252 65.1687 -80.8866 -117.764 62.3366 
-80.9711 -119.24 63.9459 -81.202 -120.575 65.3742 -81.6144 -121.687 66.6044 
-81.2878 -117.901 62.2971 -81.6612 -119.374 64.0736 -82.0753 -120.735 65.5343 
-82.4626 -121.886 66.7684 -82.6462 -122.881 67.9513 -81.6287 -118.267 61.9908 
-82.1261 -119.756 63.9248 -82.8628 -121.079 65.4673 -83.4169 -122.106 66.6383 
-83.5989 -123.041 67.901 -83.5205 -123.976 69.187 -81.7872 -118.829 61.5827 
-82.1733 -120.378 63.5299 -82.9852 -121.778 65.2046 -83.771 -122.699 66.3393 
-84.1762 -123.445 67.5148 -84.303 -124.263 69.0102 -84.3372 -125.04 70.3951 
-81.5082 -119.127 61.3289 -81.775 -120.696 63.1217 -82.449 -122.222 64.8975 
-83.2712 -123.28 66.1946 -83.8769 -124.041 67.2668 -84.3406 -124.816 68.6289 
-84.7389 -125.529 70.1241 -84.9519 -126.007 71.4556 -80.9738 -119.037 61.2699 
-81.1538 -120.573 62.821 -81.6884 -122.114 64.5272 -82.4525 -123.332 66.0333 
-83.0847 -124.291 67.2489 -83.6606 -125.227 68.4785 -84.3603 -126.077 69.768 
-84.9317 -126.661 70.9944 -85.1651 -126.924 72.2269 -80.5 -118.824 61.256 
-80.6197 -120.333 62.5894 -81.0315 -121.846 64.0943 -81.7389 -123.128 65.5936 
-82.3924 -124.219 66.9496 -82.8893 -125.275 68.2735 -83.5525 -126.257 69.5357 
-84.3253 -127.05 70.5893 -84.8428 -127.581 71.5974 -85.0406 -127.81 72.7681 
-79.5005 -117.897 63.32 -80.0626 -119.578 64.7588 -79.3864 -118.887 64.314 
-80.8952 -121.19 66.1756 -80.0616 -120.642 65.6209 -79.1363 -120.009 65.0244 
-81.8115 -122.601 67.6694 -80.9878 -122.192 67.1758 -79.9441 -121.819 66.4493 
-78.9511 -121.183 65.7405 -82.5852 -123.852 69.0365 -81.7495 -123.518 68.6888 
-80.8798 -123.153 68.1701 -79.8345 -122.832 67.329 -78.8602 -122.152 66.551 
-83.4928 -124.96 70.3664 -82.5025 -124.81 69.9778 -81.6112 -124.363 69.584 
-80.6672 -123.921 68.9736 -79.6108 -123.522 68.0448 -78.6396 -122.822 67.2627 
-84.451 -125.747 71.7733 -83.5152 -125.71 71.5327 -82.4268 -125.529 71.0272 
-81.3425 -125.041 70.4645 -80.2129 -124.551 69.5992 -79.1419 -124.029 68.6304 
-78.2613 -123.278 67.8817 -85.0122 -126.385 72.9741 -84.3653 -126.057 73.2494 
-83.2936 -126.005 72.9041 -82.0484 -125.882 72.2271 -80.7866 -125.543 71.3035 
-79.5796 -125.059 70.2127 -78.602 -124.387 69.2675 -77.8498 -123.576 68.478 
-85.1247 -127.209 73.7659 -84.7822 -126.501 74.5151 -83.9075 -126.095 74.5813 
-82.6789 -126.046 73.9942 -81.3943 -126.06 73.0151 -80.1308 -125.854 71.8475 
-78.9801 -125.3 70.7825 -78.1092 -124.522 69.8953 -77.4316 -123.743 68.9977 
-84.8774 -128.364 73.8791 -84.9202 -127.649 74.9795 -84.5197 -128.819 74.8753 
-84.3351 -128.133 75.7375 -83.6262 -129.078 75.3821 -84.3717 -126.79 75.5571 
-82.8752 -128.534 75.8606 -81.9259 -129.231 75.4165 -83.3729 -127.283 75.8917 
-83.2172 -126.263 75.3029 -80.6983 -128.713 75.7148 -79.9728 -129.434 75.1791 
-81.5329 -127.715 75.8477 -82.0034 -126.686 75.3763 -81.8846 -126.196 74.4116 
-78.9224 -128.717 75.32 -78.5114 -129.552 74.5734 -79.5087 -127.762 75.8291 
-80.3061 -127.032 75.4428 -80.7759 -126.529 74.3838 -80.6161 -126.241 73.1975 
-77.8344 -128.639 74.4795 -77.3463 -129.38 73.7111 -78.1461 -127.619 75.3324 
-78.6624 -127.054 75.4394 -79.3408 -126.774 74.4233 -79.5983 -126.376 73.1585 
-79.3393 -125.899 72.0351 -76.6431 -128.507 73.639 -76.0753 -129.057 72.9908 
-77.0268 -127.591 74.3298 -77.3402 -127.002 74.6992 -77.8643 -126.811 74.1617 
-78.3411 -126.374 73.1051 -78.4041 -125.714 72.1487 -78.237 -125.125 71.1198 
-75.2322 -128.362 73.08 -74.8808 -128.785 72.4283 -75.6295 -127.63 73.5196 
-76.0194 -127.012 73.6689 -76.5283 -126.733 73.3471 -77.1112 -126.285 72.7063 
-77.4283 -125.506 72.0664 -77.4555 -124.83 71.279 -77.438 -124.317 70.1727 
-74.0837 -128.197 72.492 -73.9956 -128.532 71.7926 -74.3234 -127.596 72.9163 
-74.7259 -126.957 72.9472 -75.288 -126.542 72.5761 -75.9666 -126.115 72.0482 
-76.4871 -125.403 71.6129 -76.6726 -124.674 71.0756 -76.711 -124.142 70.1681 
-76.7578 -123.628 69.0689 -84.5722 -128.424 72.4406 -84.2575 -128.976 73.413 
-83.7763 -128.567 72.0765 -83.2675 -129.034 72.7614 -82.7767 -128.437 71.5289 
-83.7098 -129.268 74.2256 -82.1651 -128.964 71.8521 -81.7585 -128.391 70.7106 
-82.6008 -129.296 73.2396 -82.6889 -129.353 74.6191 -81.1447 -129.005 70.8042 
-80.7664 -128.292 69.7908 -81.5127 -129.429 72.0053 -81.6639 -129.521 73.4854 
-81.0971 -129.559 74.6897 -80.1317 -128.811 69.7863 -79.7865 -127.961 68.8417 
-80.4163 -129.498 70.7661 -80.5899 -129.785 72.0559 -80.2468 -129.799 73.5526 
-79.3517 -129.837 74.4394 -79.1441 -128.386 68.7037 -78.9323 -127.571 67.7815 
-79.2369 -129.156 69.5948 -79.2899 -129.743 70.5232 -79.1151 -129.865 71.8551 
-78.4915 -129.802 73.1771 -77.8029 -129.769 73.707 -78.3106 -127.955 67.5224 
-78.2212 -127.119 66.6969 -78.2322 -128.686 68.3978 -78.0688 -129.39 69.1258 
-77.8498 -129.789 69.9599 -77.3898 -129.691 71.2062 -76.8128 -129.525 72.2872 
-76.4148 -129.416 72.7682 -77.5705 -127.396 66.4226 -77.5401 -126.478 65.7339 
-77.4712 -128.186 67.2259 -77.2457 -128.921 67.9532 -76.9125 -129.587 68.5016 
-76.4212 -129.842 69.2615 -75.8652 -129.638 70.3537 -75.4864 -129.362 71.3226 
-75.2344 -129.127 71.9771 -76.8629 -126.65 65.4875 -76.8905 -125.741 64.8939 
-76.7805 -127.498 66.1826 -76.6254 -128.254 66.9205 -76.2972 -129.007 67.502 
[...]
CELL_DATA 2000
SCALARS Distance double
LOOKUP_TABLE default
143.81 144.508 144.254 144.569 145.352 145.034 145.368 145.157 145.706 
146.302 145.945 146.292 146.034 146.608 146.491 147.279 147.192 146.879 
147.23 147 147.603 147.467 148.304 148.232 149.143 147.888 147.665 
148.059 147.937 148.628 148.522 149.413 149.33 150.311 150.196 151.131 
148.522 148.331 148.856 148.807 149.681 149.624 150.615 150.509 151.535 
151.42 152.421 152.248 153.167 149.329 149.129 149.862 149.78 150.839 
150.789 151.899 151.782 152.843 152.701 153.741 153.575 154.544 154.309 
155.168 150.344 150.184 151.133 151.01 152.15 152.06 153.209 153.098 
154.185 154.048 155.107 154.942 155.939 155.706 156.575 156.273 157.018 
151.475 151.385 152.473 152.381 153.515 153.408 154.508 154.399 155.481 
155.379 156.451 156.316 157.305 157.093 157.938 157.653 158.358 158.026 
158.627 143.54 143.356 143.702 144.226 143.154 143.532 144.106 144.453 
145.054 142.949 143.364 143.994 144.358 145.021 145.37 146.025 142.697 
143.182 143.88 144.278 144.999 145.377 146.13 146.429 147.018 142.43 
142.953 143.724 144.167 144.899 145.333 146.168 146.586 147.313 147.447 
147.842 142.269 142.77 143.608 144.038 144.736 145.154 145.962 146.542 
147.461 147.815 148.342 148.236 148.473 142.178 142.679 143.571 143.998 
144.708 145.015 145.725 146.254 147.249 147.876 148.653 148.766 148.986 
148.798 149.048 142.1 142.584 143.494 143.981 144.778 145.077 145.766 
146.107 147.01 147.623 148.523 148.927 149.259 149.205 149.26 149.289 
149.729 142.139 142.521 143.403 143.892 144.766 145.165 145.921 146.222 
147.002 147.448 148.253 148.715 149.135 149.276 149.311 149.348 149.581 
149.933 150.637 142.512 143.542 143.233 143.741 144.651 144.332 144.833 
144.552 145.088 145.615 145.384 145.861 145.629 146.12 145.86 146.294 
146.386 146.17 146.528 146.451 146.879 146.78 147.217 146.991 147.398 
147.399 146.924 147.126 146.946 147.301 147.312 147.744 147.748 148.17 
148.046 148.455 148.988 148.224 148.423 147.799 148.133 147.815 148.269 
148.187 148.615 148.594 148.898 148.882 149.101 150.751 150.048 150.396 
149.534 149.885 149.107 149.549 149.03 149.498 149.166 149.483 149.237 
149.381 149.26 149.33 152.195 151.764 152.26 151.596 151.981 151.133 
151.478 150.673 151.094 150.44 150.85 150.226 150.489 149.891 150.079 
149.639 149.852 153.356 153.082 153.663 153.273 153.748 153.121 153.451 
152.657 152.987 152.23 152.662 151.938 152.347 151.522 151.844 151 
151.353 150.647 151.08 152.225 152.569 153.007 154.308 153.09 153.461 
154.782 155.191 156.501 153.576 153.997 155.313 155.728 157.064 157.428 
158.705 153.884 154.389 155.745 156.248 157.632 158.033 159.339 159.647 
160.828 154.213 154.677 156.11 156.673 158.17 158.626 159.962 160.275 
161.439 161.684 162.724 154.611 155.043 156.448 157.051 158.6 159.155 
160.505 160.856 161.955 162.226 163.245 163.499 164.474 154.762 155.295 
156.515 157.236 158.648 159.407 160.686 161.228 162.23 162.606 163.549 
163.918 164.898 165.201 166.091 154.557 155.181 156.209 157.011 158.222 
159.138 160.311 161.1 162.05 162.638 163.508 164.043 164.982 165.469 
166.363 166.682 167.4 154.203 154.823 155.766 156.528 157.625 158.517 
159.636 160.514 161.495 162.241 163.113 163.791 164.682 165.338 166.203 
166.74 167.456 167.797 168.354 152.504 154.579 153.557 153.617 156.73 
155.692 155.74 154.687 154.678 158.919 157.871 157.935 156.843 156.833 
155.721 155.658 161.022 160.055 160.156 159.084 159.122 157.962 157.931 
156.738 156.671 162.915 162.069 162.182 161.236 161.29 160.247 160.239 
159.082 159.002 157.783 157.665 164.702 163.918 164.068 163.178 163.221 
162.279 162.241 161.244 161.11 160.025 159.818 158.676 158.452 166.33 
165.668 165.859 165.044 165.103 164.171 164.106 163.119 162.939 161.928 
161.657 160.632 160.328 159.288 158.986 167.626 167.147 167.318 166.692 
166.726 165.952 165.853 164.938 164.712 163.7 163.381 162.349 161.999 
161.003 160.657 159.68 159.337 168.618 168.286 168.447 167.958 167.936 
167.329 167.156 166.453 166.172 165.345 164.972 164.02 163.592 162.603 
162.185 161.235 160.845 159.923 159.547 169.167 169.89 169.427 169.038 
170.218 170.014 169.584 169.071 168.458 169.861 170.023 169.608 169.372 
168.658 168.256 167.561 169.011 169.347 168.966 169.064 168.388 168.217 
167.483 167.229 166.543 168.095 168.393 167.993 168.23 167.704 167.764 
167.126 167.017 166.359 166.14 165.395 167.144 167.456 167.019 167.258 
166.814 167.021 166.535 166.58 165.963 165.852 165.118 164.881 164.029 
166.069 166.45 166.034 166.291 165.83 166.113 165.689 165.903 165.333 
165.349 164.597 164.478 163.647 163.436 162.58 165.018 165.391 165.034 
165.295 164.82 165.098 164.656 164.964 164.45 164.605 163.896 163.873 
163.073 162.966 162.17 161.996 161.21 164.092 164.422 164.102 164.34 
163.882 164.101 163.63 163.908 163.43 163.665 163.064 163.139 162.421 
162.378 161.641 161.54 160.803 160.648 159.906 169.19 169.057 169.446 
169.886 168.395 169.042 169.516 169.972 170.18 167.502 168.201 168.634 
169.302 169.556 169.978 169.854 166.592 167.279 167.687 168.342 168.636 
169.182 169.218 169.468 169.138 165.549 166.308 166.698 167.389 167.677 
168.269 168.383 168.786 168.64 168.742 168.317 164.374 165.162 165.487 
166.263 166.472 167.195 167.237 167.833 167.668 168.072 167.706 167.849 
167.315 163.205 163.955 164.217 164.96 165.109 165.844 165.841 166.51 
166.297 166.858 166.475 166.92 166.442 166.693 166.141 162.009 162.757 
162.988 163.697 163.839 164.508 164.55 165.147 165.028 165.507 165.217 
165.624 165.264 165.637 165.249 165.501 165.056 160.762 161.507 161.713 
162.445 162.587 163.273 163.341 163.951 163.919 164.399 164.241 164.579 
164.334 164.612 164.348 164.612 164.317 164.508 164.141 154.287 155.042 
155.054 155.915 155.917 155.936 156.878 156.843 157.792 156.774 156.846 
157.866 157.878 158.864 158.812 159.764 157.637 157.713 158.771 158.852 
159.904 159.904 160.857 160.77 161.622 158.478 158.577 159.605 159.722 
160.8 160.901 161.916 161.873 162.732 162.568 163.313 159.141 159.332 
160.298 160.471 161.483 161.694 162.732 162.853 163.758 163.68 164.444 
164.241 164.932 159.633 159.887 160.827 161.047 161.983 162.245 163.234 
163.51 164.436 164.563 165.34 165.299 165.997 165.833 166.448 160.046 
160.327 161.266 161.513 162.417 162.667 163.593 163.898 164.808 165.07 
165.856 165.999 166.694 166.732 167.359 167.239 167.71 160.357 160.678 
161.585 161.892 162.763 163.041 163.902 164.204 165.063 165.362 166.132 
166.364 167.047 167.233 167.882 167.97 168.498 168.358 168.662 153.452 
152.363 153.284 154.106 151.249 152.161 152.958 153.982 154.898 150.18 
151.039 151.785 152.793 153.686 154.768 155.714 149.175 149.968 150.639 
151.598 152.441 153.522 154.481 155.592 156.576 148.227 148.956 149.536 
150.426 151.2 152.257 153.195 154.338 155.353 156.479 157.441 147.336 
148.013 148.526 149.32 150.027 151.015 151.922 153.044 154.039 155.204 
156.175 157.286 158.132 146.483 147.138 147.641 148.353 149.014 149.893 
150.766 151.805 152.776 153.887 154.842 155.964 156.841 157.898 158.653 
145.672 146.304 146.826 147.508 148.147 148.941 149.744 150.689 151.604 
152.651 153.588 154.667 155.569 156.62 157.436 158.412 159.111 144.968 
145.536 146.058 146.715 147.345 148.093 148.824 149.68 150.492 151.47 
152.356 153.427 154.347 155.41 156.269 157.244 157.981 158.873 159.486 
144.785 144.915 145.168 145.874 145.133 145.372 146.138 146.387 147.201 
145.422 145.659 146.497 146.737 147.612 147.827 148.702 145.844 146.037 
146.945 147.168 148.098 148.302 149.217 149.403 150.337 146.424 146.567 
147.512 147.697 148.685 148.862 149.84 149.991 150.995 151.156 152.197 
147.065 147.206 148.175 148.339 149.371 149.532 150.587 150.717 151.806 
151.933 153.067 153.171 154.25 147.724 147.868 148.878 149.044 150.11 
150.272 151.361 151.514 152.639 152.801 153.966 154.106 155.215 155.255 
156.211 148.438 148.565 149.6 149.77 150.849 151.023 152.1 152.275 
153.368 153.579 154.706 154.931 156.011 156.155 157.087 157.103 157.897 
149.171 149.3 150.313 150.486 151.532 151.726 152.763 152.963 154.005 
154.234 155.304 155.564 156.606 156.828 157.748 157.864 158.646 158.664 
159.361 149.89 151.422 150.781 151.074 153.099 152.39 152.682 152.008 
152.292 154.894 154.132 154.413 153.673 153.961 153.255 153.533 156.67 
155.947 156.259 155.488 155.804 155.018 155.326 154.547 154.819 158.314 
157.68 158.053 157.355 157.718 156.938 157.265 156.439 156.729 155.888 
156.144 159.912 159.32 159.767 159.134 159.549 158.83 159.161 158.376 
158.653 157.832 158.068 157.22 157.422 161.442 160.928 161.421 160.852 
161.314 160.644 160.992 160.228 160.499 159.71 159.935 159.115 159.269 
158.424 158.529 162.687 162.338 162.779 162.376 162.795 162.303 162.641 
162.001 162.248 161.51 161.71 160.924 161.052 160.217 160.26 159.416 
159.417 163.592 163.386 163.744 163.486 163.795 163.507 163.783 163.409 
163.622 163.101 163.24 162.587 162.658 161.908 161.907 161.093 161.042 
160.21 160.136 149.431 149.156 149.836 150.936 148.865 149.574 150.777 
151.459 152.653 148.722 149.393 150.697 151.372 152.703 153.303 154.511 
148.728 149.414 150.802 151.414 152.797 153.411 154.717 155.216 156.324 
148.628 149.454 150.902 151.564 152.895 153.515 154.825 155.412 156.581 
156.993 157.974 148.361 149.257 150.718 151.538 152.824 153.518 154.753 
155.438 156.651 157.206 158.252 158.608 159.54 148.159 148.942 150.33 
151.21 152.511 153.304 154.501 155.254 156.454 157.164 158.282 158.814 
159.781 160.151 161.036 148.125 148.751 149.999 150.794 152.071 152.906 
154.118 154.919 156.082 156.863 157.98 158.688 159.691 160.251 161.126 
161.541 162.295 148.163 148.702 149.816 150.488 151.668 152.456 153.649 
154.477 155.622 156.427 157.5 158.273 159.265 159.975 160.858 161.448 
162.193 162.626 163.223 148.456 146.926 147.848 148.143 145.317 146.282 
146.536 147.474 147.777 143.547 144.587 144.825 145.809 146.028 147.057 
147.474 141.742 142.743 142.974 144.018 144.189 145.215 145.482 146.711 
147.273 140.168 140.971 141.151 142.154 142.372 143.363 143.554 144.647 
145.045 146.442 147.072 138.999 139.528 139.589 140.409 140.665 141.626 
141.925 142.862 143.216 144.307 144.866 146.234 146.895 138.297 138.571 
138.534 139.023 139.189 140.011 140.412 141.365 141.846 142.76 143.307 
144.321 144.991 146.196 146.88 137.901 138.073 138.052 138.24 138.302 
138.763 139.113 139.94 140.527 141.48 142.095 143.007 143.625 144.594 
145.264 146.345 146.998 137.535 137.749 137.801 137.932 138.003 138.186 
138.462 138.929 139.494 140.264 140.939 141.816 142.43 143.327 143.916 
144.886 145.501 146.533 147.121 137.335 137.195 137.395 137.647 137.236 
137.313 137.614 137.748 137.973 137.634 137.498 137.842 137.882 138.272 
138.23 138.537 138.441 138.09 138.424 138.313 138.838 138.758 139.214 
139.035 139.526 139.526 139.057 139.32 139.039 139.532 139.442 139.987 
139.839 140.323 140.187 140.829 140.638 140.184 140.359 139.965 140.276 
140.123 140.623 140.576 141.073 140.967 141.5 141.498 142.221 141.589 
141.215 141.327 140.925 141.067 140.812 141.194 141.157 141.705 141.668 
142.211 142.15 142.799 142.872 143.671 142.382 142.061 142.152 141.793 
141.903 141.579 141.906 141.776 142.384 142.351 143.015 142.914 143.567 
143.514 144.289 144.373 145.235 143.101 142.797 142.918 142.595 142.792 
142.459 142.845 142.615 143.268 143.168 143.932 143.813 144.514 144.37 
145.096 145.069 145.905 145.987 146.842 143.537 144.32 143.732 143.416 
145.536 144.737 144.471 143.738 143.436 147.159 146.202 146.006 145.074 
144.839 143.935 143.676 148.989 147.959 147.763 146.768 146.575 145.579 
145.369 144.371 144.194 150.944 149.855 149.63 148.568 148.351 147.353 
147.152 146.165 145.967 144.994 144.832 152.995 151.887 151.717 150.548 
150.34 149.205 149.002 147.948 147.743 146.75 146.537 145.593 145.393 
154.993 153.961 153.863 152.726 152.577 151.359 151.174 149.953 149.756 
148.601 148.402 147.332 147.142 146.148 145.995 156.818 155.898 155.814 
154.81 154.675 153.578 153.397 152.211 152.008 150.775 150.576 149.359 
149.187 148.041 147.916 146.864 146.801 158.425 157.624 157.535 156.645 
156.491 155.525 155.322 154.292 154.077 152.979 152.764 151.595 151.382 
150.192 150.018 148.888 148.783 147.748 147.707 148.531 149.64 149.429 
150.176 150.903 150.63 151.398 151.156 151.976 152.29 151.985 152.774 
152.461 153.282 153.04 153.925 153.657 153.395 154.214 153.899 154.717 
154.414 155.282 155.035 155.906 154.923 154.718 155.568 155.326 156.172 
155.878 156.722 156.43 157.269 156.992 157.781 156.152 155.968 156.855 
156.66 157.557 157.311 158.159 157.864 158.661 158.358 159.115 158.816 
159.527 157.332 157.196 158.108 157.951 158.868 158.669 159.516 159.252 
160.003 159.707 160.407 160.118 160.794 160.502 161.122 158.367 158.319 
159.214 159.14 160.018 159.904 160.713 160.524 161.221 160.964 161.581 
161.32 161.92 161.682 162.256 161.987 162.468 159.217 159.249 160.093 
160.106 160.918 160.903 161.669 161.593 162.27 162.086 162.646 162.398 
162.905 162.687 163.194 163.001 163.45 163.187 163.509 141.388 141.27 
140.941 140.241 141.316 140.891 140.142 139.82 139.159 141.433 140.979 
140.26 139.847 139.168 138.803 138.221 141.654 141.158 140.495 140.05 
139.414 138.945 138.31 137.951 137.512 141.991 141.471 140.831 140.351 
139.749 139.256 138.626 138.148 137.635 137.357 137.072 142.309 141.835 
141.193 140.71 140.092 139.611 139.005 138.513 137.994 137.594 137.251 
137.008 136.795 142.58 142.148 141.54 141.059 140.441 139.958 139.371 
138.9 138.387 137.973 137.586 137.264 136.993 136.768 136.618 142.857 
142.459 141.943 141.456 140.913 140.379 139.836 139.311 138.796 138.343 
137.901 137.558 137.234 136.991 136.825 136.676 136.691 143.104 142.766 
142.349 141.924 141.486 140.962 140.487 139.896 139.388 138.814 138.336 
137.877 137.526 137.227 137.073 136.914 136.959 136.885 137.061 141.341 
140.2 140.854 141.096 139.075 139.695 139.949 140.696 141.071 138.12 
138.617 138.857 139.569 140.017 140.771 141.224 137.464 137.802 138.047 
138.606 139.091 139.791 140.338 141.017 141.482 137.034 137.271 137.505 
137.943 138.412 139.001 139.581 140.217 140.76 141.346 141.797 136.705 
136.88 137.053 137.441 137.872 138.405 138.969 139.555 140.142 140.71 
141.239 141.74 142.211 136.537 136.597 136.738 137.019 137.449 137.914 
138.499 139.022 139.634 140.167 140.758 141.261 141.797 142.245 142.754 
136.675 136.579 136.734 136.833 137.264 137.599 138.225 138.662 139.305 
139.755 140.373 140.843 141.435 141.886 142.426 142.846 143.362 137.088 
136.896 137.054 136.988 137.359 137.537 138.132 138.485 139.139 139.522 
140.14 140.54 141.15 141.575 142.155 142.556 143.079 143.466 143.961 
142.037 141.819 142.273 143.057 141.781 142.129 142.855 143.33 144.134 
141.894 142.151 142.824 143.179 143.931 144.411 145.159 142.109 142.313 
142.996 143.249 144.011 144.337 145.134 145.476 146.148 142.367 142.542 
143.251 143.5 144.334 144.591 145.474 145.691 146.511 146.626 147.338 
142.731 142.83 143.524 143.77 144.635 144.949 145.876 146.143 147.025 
147.175 147.982 148.03 148.854 143.267 143.279 143.961 144.108 144.948 
145.23 146.13 146.462 147.312 147.608 148.389 148.612 149.384 149.577 
150.413 143.875 143.872 144.551 144.628 145.422 145.596 146.431 146.683 
147.477 147.775 148.513 148.832 149.552 149.88 150.623 150.963 151.732 
144.452 144.471 145.123 145.206 145.935 146.074 146.822 147.005 147.734 
147.954 148.667 148.929 149.648 149.953 150.696 151.038 151.794 152.149 
152.886 148.301 147.541 147.533 146.766 146.813 146.757 145.931 145.947 
145.141 146.164 146.056 145.174 145.105 144.219 144.24 143.376 145.535 
145.416 144.528 144.394 143.485 143.38 142.496 142.471 141.642 144.98 
144.814 143.961 143.794 142.947 142.772 141.954 141.783 141.006 140.89 
140.186 144.625 144.377 143.588 143.338 142.568 142.343 141.614 141.4 
140.683 140.459 139.781 139.624 139.076 144.421 144.151 143.441 143.127 
142.407 142.097 141.403 141.144 140.461 140.214 139.53 139.321 138.761 
138.674 138.323 144.266 144.012 143.368 143.068 142.388 142.041 141.352 
141.023 140.358 140.054 139.384 139.107 138.508 138.372 137.983 138.021 
137.823 144.171 143.906 143.309 143.026 142.395 142.059 141.394 141.035 
140.39 140.042 139.408 139.053 138.431 138.162 137.685 137.642 137.382 
137.525 137.388 
POINT_DATA 1002
SCALARS Distance double
LOOKUP_TABLE default
144.017 143.398 144.018 144.73 144.777 144.963 145.596 145.687 145.781 
146.379 146.555 146.668 146.731 147.318 148.142 147.42 147.495 147.725 
148.361 149.239 150.05 148.09 148.088 148.677 149.488 150.395 151.303 
152.043 148.824 148.664 149.659 150.712 151.648 152.563 153.399 154.062 
149.904 149.422 150.86 152 152.99 153.894 154.766 155.468 155.977 
151.23 150.382 152.269 153.324 154.306 155.262 156.166 156.884 157.375 
157.701 152.546 151.499 153.647 154.632 155.568 156.572 157.52 158.23 
158.699 159.001 159.181 143.206 143.884 142.979 143.736 142.75 144.701 
143.607 142.493 144.64 145.724 143.448 142.154 144.589 145.771 146.898 
143.261 141.878 144.467 145.643 147.093 147.953 143.175 141.757 144.39 
145.354 146.892 148.402 148.677 143.106 141.674 144.434 145.305 146.522 
148.338 149.226 149.063 142.973 141.655 144.404 145.496 146.499 148.013 
149.225 149.336 149.387 142.939 141.824 144.3 145.595 146.673 147.838 
148.913 149.275 149.327 150.033 142.776 143.987 143.866 145.143 144.944 
145.37 146.066 145.838 146.377 146.617 146.609 146.714 146.912 147.353 
147.688 147.455 148.033 147.321 147.676 148.209 148.62 149.191 149.744 
148.629 148.455 148.685 148.96 149.12 151.215 151.299 150.789 150.244 
149.956 149.861 149.636 149.392 152.782 152.509 152.788 152.371 151.825 
151.507 151.186 150.648 150.2 153.959 153.604 154.252 154.208 153.778 
153.36 153.123 152.734 152.153 151.709 153.469 153.847 155.611 154.385 
156.118 157.774 154.875 156.682 158.393 159.95 155.171 157.19 159.025 
160.599 161.934 155.503 157.659 159.662 161.2 162.519 163.72 155.85 
157.995 160.146 161.707 162.959 164.26 165.443 155.832 157.868 160.083 
161.831 163.154 164.537 165.9 166.93 155.463 157.336 159.464 161.388 
162.933 164.44 165.972 167.216 168.055 155.051 156.788 158.752 160.692 
162.405 164.003 165.605 167.034 168.12 168.89 154.658 156.806 155.757 
159.033 157.967 156.775 161.183 160.253 159.146 157.873 163.091 162.273 
161.344 160.229 158.904 164.945 164.171 163.222 162.16 160.944 159.605 
166.618 166.018 165.123 163.977 162.681 161.349 160.03 167.895 167.444 
166.721 165.719 164.445 163.021 161.631 160.311 168.911 168.538 167.828 
166.925 165.876 164.598 163.16 161.765 160.459 169.704 169.668 170.302 
170.075 170.281 169.01 169.717 169.589 169.034 167.932 168.742 168.709 
168.446 167.688 166.833 167.732 167.847 167.509 167.161 166.534 165.715 
166.791 166.795 166.537 166.398 166.05 165.311 164.332 165.767 165.646 
165.547 165.407 165.266 164.688 163.794 162.816 164.764 164.646 164.574 
164.343 164.221 163.866 163.137 162.288 161.407 163.858 163.773 163.687 
163.388 163.161 162.912 162.417 161.71 160.925 160.08 168.979 169.657 
168.538 168.935 167.715 169.96 167.955 166.837 169.014 169.698 167.049 
165.893 168.06 168.839 169.121 165.985 164.77 167.062 167.913 168.404 
168.399 164.733 163.619 165.744 166.613 167.19 167.418 167.304 163.514 
162.483 164.406 165.178 165.735 165.972 166.041 165.983 162.277 161.267 
163.174 163.941 164.533 164.821 164.866 164.891 164.876 160.979 160.042 
161.885 162.705 163.38 163.848 164.057 164.084 164.072 164.005 154.207 
155.907 155.013 156.891 155.849 157.837 157.8 156.675 158.908 159.85 
158.666 157.571 159.85 160.955 161.769 159.498 158.368 160.652 161.898 
162.898 163.531 160.131 158.925 161.266 162.534 163.765 164.614 165.19 
160.606 159.37 161.748 162.937 164.233 165.313 166.096 166.706 161.006 
159.764 162.188 163.317 164.526 165.668 166.591 167.396 167.977 152.548 
153.1 151.444 151.942 150.367 153.837 150.813 149.366 152.605 154.62 
149.732 148.433 151.38 153.343 155.483 148.709 147.546 150.173 152.052 
154.192 156.386 147.789 146.678 149.085 150.827 152.892 155.035 157.104 
146.95 145.826 148.189 149.772 151.701 153.738 155.754 157.665 146.141 
145.053 147.389 148.865 150.597 152.516 154.513 156.443 158.202 145.417 