# vtk DataFile Version 4.0
vtk output
ASCII
DATASET POLYDATA
POINTS 1002 float
-72.8414 -113.233 57.0596 -73.1634 -112.269 56.1516 -73.8418 -112.559 56.4725 
-73.5002 -113.841 57.3424 -74.6032 -112.946 56.8652 -72.5527 -115.03 57.6435 
-74.1184 -114.582 57.5598 -75.3508 -113.464 57.1965 -73.0934 -115.899 57.8243 
-72.3124 -117.065 58.2533 -74.5813 -115.431 57.6601 -75.9579 -114.154 57.5159 
-73.4499 -116.908 57.8494 -72.7225 -118.052 58.3618 -72.1209 -118.884 59.1985 
-74.9092 -116.586 57.7551 -76.3074 -115.252 57.7875 -73.6528 -118.099 57.8326 
-72.9282 -119.267 58.351 -72.5048 -120.093 59.2924 -71.9759 -120.979 60.1521 
-75.1075 -118.174 57.7658 -76.3195 -116.786 57.7338 -73.9081 -119.618 57.9114 
-73.1117 -120.704 58.4464 -72.7494 -121.487 59.4275 -72.3945 -122.318 60.4392 
-71.8736 -123.306 61.0344 -75.162 -119.728 57.6378 -76.1351 -118.314 57.4183 
-74.2423 -121.148 58.064 -73.5099 -122.191 58.76 -73.0782 -122.912 59.7449 
-72.7591 -123.586 60.8726 -72.3624 -124.325 61.7551 -71.8867 -125.102 62.1981 
-75.2971 -120.897 57.7211 -76.0663 -119.584 57.3216 -74.6474 -122.249 58.4069 
-74.1169 -123.313 59.3356 -73.6963 -124.099 60.3413 -73.2983 -124.786 61.3629 
-72.9074 -125.366 62.3781 -72.5336 -125.91 63.121 -72.0956 -126.514 63.4817 
-75.6904 -121.942 58.2455 -76.2416 -120.746 57.656 -75.2188 -123.164 59.0588 
-74.835 -124.157 60.0966 -74.5182 -124.944 61.1752 -74.1227 -125.74 62.0556 
-73.6491 -126.466 62.8568 -73.2629 -126.992 63.6686 -72.918 -127.462 64.2745 
-72.4602 -127.964 64.5953 -76.2105 -123.034 58.9995 -76.5547 -121.895 58.242 
-75.8815 -124.16 59.8639 -75.5639 -125.063 60.8485 -75.3137 -125.754 61.9185 
-75.0268 -126.492 62.8343 -74.5744 -127.327 63.5139 -74.105 -128.027 64.1606 
-73.7492 -128.513 64.819 -73.3765 -128.886 65.3406 -72.8811 -129.201 65.6753 
-73.9063 -111.97 55.1839 -74.6784 -112.049 55.6215 -74.6774 -111.498 54.4162 
-75.5257 -111.472 54.9333 -75.4862 -110.532 54.1318 -75.5711 -112.289 56.1125 
-76.4228 -110.622 54.6169 -76.3734 -109.538 53.8953 -76.5223 -111.826 55.3973 
-76.4972 -112.749 56.6032 -77.4713 -109.802 54.333 -77.3058 -109.104 53.2307 
-77.553 -111.246 54.9342 -77.5835 -112.425 55.9248 -77.2412 -113.374 57.1995 
-78.6057 -109.337 53.8389 -78.2195 -108.984 52.3789 -78.7677 -110.493 54.6612 
-78.7175 -111.987 55.3933 -78.4301 -113.001 56.7074 -77.5866 -114.38 57.6793 
-79.5807 -109.178 53.1498 -79.0137 -108.795 51.5435 -79.9286 -109.941 54.3903 
-79.9166 -111.313 55.1439 -79.6625 -112.588 56.2811 -78.8997 -113.841 57.452 
-77.5205 -115.834 57.6682 -80.2005 -109.22 52.1339 -79.5252 -108.703 50.6173 
-80.6883 -109.857 53.7143 -80.8418 -110.939 54.8531 -80.8231 -112.201 56.0106 
-80.3332 -113.454 57.3073 -78.9562 -115.171 57.7214 -77.2472 -117.373 57.3519 
-80.4682 -109.447 50.9626 -79.7154 -108.937 49.7652 -81.0173 -110.057 52.5207 
-81.2652 -111.01 54.0107 -81.4923 -112.203 55.4273 -81.4723 -113.352 56.9967 
-80.4448 -114.772 57.8468 -78.6035 -116.689 57.5412 -77.0205 -118.762 57.2023 
-80.5208 -109.877 50.0962 -79.726 -109.47 49.2436 -81.1125 -110.373 51.3438 
-81.3663 -111.209 52.825 -81.6095 -112.414 54.3405 -81.8829 -113.566 56.0678 
-81.4186 -114.68 57.4918 -79.8826 -116.221 57.7073 -78.1126 -118.119 57.2743 
-76.9761 -120.048 57.3877 -80.2159 -110.451 49.4287 -80.9817 -110.829 50.2979 
-80.6632 -111.681 49.7517 -81.29 -112.149 50.7128 -80.9123 -113.183 50.1354 
-81.3721 -111.423 51.5777 -81.4405 -113.855 51.2183 -80.9113 -114.705 50.6009 
-81.533 -112.957 52.0321 -81.52 -112.534 53.0464 -81.3393 -115.484 51.7327 
-80.6083 -115.984 51.2524 -81.5954 -114.755 52.5447 -81.5892 -114.147 53.4621 
-81.753 -113.837 54.6966 -80.7757 -116.803 52.3201 -80.0281 -117.327 52.056 
-81.2629 -116.247 53.0063 -81.3717 -115.623 53.9191 -81.4694 -115.184 55.0645 
-81.629 -114.896 56.4529 -79.9464 -118.333 53.1023 -79.4357 -119.106 52.9666 
-80.4108 -117.603 53.5593 -80.6789 -116.911 54.3591 -80.7672 -116.425 55.3389 
-80.7507 -116.222 56.4352 -80.5076 -116.175 57.3475 -79.3074 -120.338 54.1521 
-78.9622 -121.062 54.0546 -79.5386 -119.469 54.4183 -79.7306 -118.645 54.9656 
-79.8904 -118.098 55.707 -79.8373 -117.902 56.4202 -79.4551 -117.914 56.9625 
-78.839 -118.001 57.2407 -78.876 -122.415 55.4017 -78.4836 -122.787 55.304 
-79.0557 -121.78 55.5847 -79.0854 -121.028 55.8992 -79.1434 -120.453 56.4112 
-79.157 -120.182 56.9408 -78.8421 -120.08 57.225 -78.2253 -120.027 57.3023 
-77.5672 -120.014 57.3421 -78.4663 -124.188 56.7053 -77.9948 -124.199 56.5778 
-78.8104 -123.983 56.894 -78.947 -123.544 57.098 -78.9379 -123.031 57.4398 
-78.8755 -122.659 57.955 -78.6424 -122.427 58.3092 -78.1361 -122.226 58.3079 
-77.5326 -122.054 58.2052 -77.0094 -121.945 58.2026 -76.7894 -123.76 59.4891 
-77.2408 -123.91 59.5321 -77.2559 -125.514 60.9503 -77.7848 -124.106 59.6895 
-77.8322 -125.739 61.1227 -78.0087 -126.883 62.5472 -78.4224 -124.34 59.9058 
-78.5418 -125.97 61.4217 -78.7877 -127.221 62.8037 -78.9123 -128.183 64.3022 
-78.9687 -124.605 59.758 -79.332 -126.155 61.5601 -79.6381 -127.452 63.0386 
-79.6613 -128.602 64.4873 -79.4793 -129.791 65.9584 -79.2638 -124.995 59.1778 
-79.9413 -126.465 61.1184 -80.4346 -127.598 62.8779 -80.4065 -128.779 64.4698 
-80.0989 -130.054 66.0253 -79.7809 -131.208 67.4089 -79.2667 -125.483 58.6969 
-80.0524 -127.016 60.4781 -80.789 -128.026 62.2542 -80.9778 -129.052 64.0125 
-80.8228 -130.25 65.8316 -80.6404 -131.292 67.516 -80.464 -131.903 69.0397 
-78.9683 -125.802 58.4712 -79.585 -127.434 60.168 -80.3975 -128.563 61.7867 
-80.9097 -129.582 63.3748 -81.1584 -130.773 65.2318 -81.3746 -131.696 67.2438 
-81.466 -132.116 69.125 -81.4138 -132.229 70.8722 -78.469 -125.802 58.2367 
-78.8336 -127.411 59.9468 -79.5331 -128.702 61.5827 -80.2058 -129.849 63.0055 
-80.7294 -131.184 64.5801 -81.2619 -132.278 66.5603 -81.6894 -132.675 68.6516 
-81.885 -132.687 70.6078 -81.9274 -132.686 72.3317 -77.9339 -125.613 57.9698 
-78.1462 -127.122 59.5747 -78.7002 -128.491 61.236 -79.3811 -129.727 62.6986 
-79.9657 -131.089 64.0954 -80.5057 -132.369 65.8345 -81.0056 -133.031 67.868 
-81.3742 -133.168 69.8543 -81.6508 -133.231 71.6231 -81.8084 -133.314 73.0635 
-76.5899 -124.897 60.4442 -77.1439 -126.41 62.0152 -76.3308 -125.843 61.4221 
-77.9706 -127.619 63.7989 -76.9524 -127.183 63.0894 -76.0764 -126.572 62.4463 
-78.8081 -129.21 65.6903 -77.8288 -128.604 65.0082 -76.7634 -128.053 64.135 
-75.8669 -127.296 63.4692 -79.2 -130.982 67.3154 -78.571 -130.369 66.9798 
-77.6226 -129.674 66.1836 -76.5479 -128.936 65.2366 -75.5349 -128.117 64.3616 
-79.5697 -131.876 68.9349 -78.9382 -131.513 68.7618 -78.3172 -130.884 68.3573 
-77.3645 -130.266 67.5062 -76.1885 -129.613 66.3287 -75.0552 -128.89 65.1002 
-80.4965 -132.012 70.9702 -79.5462 -131.676 70.7022 -78.8557 -131.204 70.2642 
-78.1191 -130.879 69.6234 -77.0025 -130.598 68.5683 -75.7139 -130.13 67.1252 
-74.607 -129.453 65.7458 -81.477 -132.279 72.8917 -80.5474 -131.796 72.8116 
-79.5694 -131.322 72.1131 -78.7268 -131.163 71.1743 -77.7142 -131.207 70.2175 
-76.4161 -130.962 69.0606 -75.1689 -130.434 67.6405 -74.1834 -129.766 66.3159 
-81.7989 -132.876 73.9473 -81.1777 -132.316 74.3241 -80.1482 -131.779 73.8572 
-79.1019 -131.572 72.6996 -78.0738 -131.711 71.4411 -76.8684 -131.614 70.4089 
-75.6098 -131.056 69.3547 -74.5475 -130.456 68.0713 -73.6726 -129.914 66.7676 
-81.437 -133.717 73.8272 -81.1567 -133.133 74.6728 -80.4713 -133.885 74.0829 
-79.6461 -133.224 74.8278 -78.8742 -133.913 74.0741 -80.2451 -132.494 74.9815 
-77.7556 -133.473 74.7493 -77.2139 -134.319 74.0176 -78.482 -132.655 75.1738 
-79.0795 -132.066 74.3764 -76.2909 -134.186 74.4672 -75.7901 -135.05 73.7104 
-76.78 -133.025 75.0606 -77.4507 -132.306 74.6304 -77.9882 -132.049 73.0259 
-74.9104 -134.803 73.8165 -74.1662 -135.515 73.0536 -75.5228 -133.606 74.4111 
-76.0227 -132.55 74.3901 -76.5055 -132.206 73.2395 -76.8499 -132.055 71.6444 
-73.0834 -134.95 73.0806 -72.4254 -135.757 72.3269 -73.9324 -133.918 73.5121 
-74.6529 -132.917 73.5087 -75.1092 -132.289 72.906 -75.4287 -131.921 71.8002 
-75.6303 -131.509 70.5902 -71.5167 -135.02 72.3876 -71.213 -135.926 71.6183 
-72.1481 -133.966 72.8232 -72.9758 -133.152 72.7101 -73.6671 -132.574 72.1792 
-74.1215 -131.906 71.5155 -74.4092 -131.198 70.6727 -74.5551 -130.752 69.4886 
-70.6606 -134.98 71.5105 -70.5192 -135.682 70.8174 -71.0036 -133.994 72.0026 
-71.6002 -133.172 72.063 -72.2704 -132.673 71.6075 -72.8654 -132.063 70.9877 
-73.3034 -131.2 70.3583 -73.5418 -130.568 69.4068 -73.6463 -130.28 68.0918 
-69.9919 -134.542 70.5167 -69.8597 -134.976 69.9669 -70.2755 -133.828 70.8858 
-70.7449 -133.068 71.0498 -71.2484 -132.493 70.8745 -71.7234 -131.963 70.391 
-72.1904 -131.257 69.7835 -72.5254 -130.603 68.9757 -72.6847 -130.222 67.8606 
-72.7878 -129.849 66.6687 -81.2122 -133.92 72.5513 -80.8217 -134.4 73.1229 
-80.4227 -134.369 71.8889 -80.0558 -134.884 72.3315 -79.6538 -134.53 71.0072 
-79.8777 -134.516 73.3206 -79.0772 -134.981 71.2056 -78.6991 -134.403 69.7458 
-79.0309 -134.953 72.4608 -78.3164 -134.497 73.3743 -77.8401 -134.742 69.6857 
-77.5414 -134.124 68.4059 -77.8058 -135.087 71.07 -77.3753 -134.945 72.3786 
-76.6356 -134.875 73.2727 -76.7385 -134.473 68.2648 -76.5789 -133.847 67.1894 
-76.5825 -135.049 69.3641 -76.1758 -135.293 70.7173 -75.6768 -135.28 72.0028 
-75.0172 -135.459 72.7566 -75.9032 -134.239 66.9945 -75.8289 -133.509 65.8656 
-75.6992 -134.943 67.9351 -75.2485 -135.499 68.9503 -74.7337 -135.67 70.2038 
-74.1181 -135.761 71.2934 -73.297 -135.94 71.9512 -75.0292 -133.768 65.6739 
-75.0049 -132.936 64.5408 -74.8471 -134.554 66.7075 -74.5101 -135.284 67.5644 
-74.0544 -135.756 68.5016 -73.3973 -135.992 69.5691 -72.5786 -136.259 70.5044 
-71.8037 -136.355 71.1906 -74.1198 -133.027 64.4457 -74.1474 -132.206 63.4492 
-73.9178 -133.8 65.5167 -73.6608 -134.563 66.4155 -73.3646 -135.269 67.1472 
-72.7828 -135.808 67.9647 -71.9508 -136.238 68.9063 -71.266 -136.511 69.796 
-70.8429 -136.346 70.469 -73.3918 -132.303 63.3092 -73.4587 -131.571 62.4523 
[...]
CELL_DATA 2000
SCALARS Distance double
LOOKUP_TABLE default
144.835 145.647 145.45 146.026 146.55 146.354 146.989 146.857 147.618 
147.482 147.287 147.944 147.84 148.617 148.526 149.327 148.543 148.282 
148.959 148.814 149.633 149.538 150.406 150.286 151.169 149.754 149.468 
150.219 149.969 150.842 150.648 151.598 151.45 152.439 152.278 153.254 
150.866 150.702 151.539 151.34 152.262 152.013 152.983 152.762 153.78 
153.606 154.598 154.408 155.298 151.837 151.765 152.676 152.613 153.602 
153.45 154.432 154.214 155.202 154.988 155.954 155.738 156.614 156.364 
157.132 152.923 152.816 153.834 153.766 154.85 154.748 155.791 155.627 
156.62 156.412 157.358 157.113 157.995 157.711 158.52 158.191 158.921 
154.189 154.06 155.174 155.056 156.186 156.048 157.111 156.956 157.956 
157.784 158.727 158.509 159.388 159.119 159.936 159.621 160.363 159.993 
160.636 144.447 144.188 144.579 145.164 143.87 144.306 144.877 145.343 
146.022 143.501 143.975 144.644 145.11 145.816 146.262 146.985 143.29 
143.69 144.462 144.941 145.768 146.176 146.924 147.286 148.045 143.318 
143.631 144.421 144.851 145.757 146.194 147.016 147.338 148.059 148.403 
149.186 143.397 143.738 144.536 144.905 145.8 146.222 147.112 147.47 
148.231 148.498 149.183 149.527 150.258 143.356 143.788 144.624 145.03 
145.911 146.312 147.241 147.621 148.505 148.758 149.469 149.627 150.23 
150.518 151.199 143.281 143.719 144.56 145.032 145.903 146.376 147.32 
147.785 148.771 149.112 149.922 150.027 150.573 150.619 151.144 151.436 
152.183 143.37 143.7 144.503 144.924 145.753 146.259 147.178 147.767 
148.773 149.312 150.178 150.448 150.978 150.999 151.376 151.474 152.047 
152.463 153.333 143.807 144.947 144.503 144.869 146.287 145.721 145.996 
145.588 146.05 147.719 147.149 147.423 146.836 147.248 146.87 147.492 
148.965 148.566 148.926 148.352 148.715 148.197 148.777 148.449 149.141 
149.953 149.675 150.062 149.711 150.007 149.585 149.97 149.68 150.239 
150.028 150.526 151.089 150.654 150.967 150.652 150.901 150.607 150.842 
150.627 150.974 150.876 151.238 151.098 151.281 152.64 151.988 152.27 
151.683 151.946 151.479 151.771 151.428 151.784 151.544 151.894 151.685 
151.907 151.642 151.715 154.329 153.693 154.077 153.305 153.654 152.881 
153.308 152.665 153.203 152.665 153.182 152.651 153.032 152.497 152.764 
152.248 152.481 155.841 155.379 155.938 155.272 155.782 154.936 155.467 
154.611 155.25 154.486 155.147 154.382 154.909 154.091 154.506 153.715 
154.123 153.406 153.841 155.043 155.36 155.845 157.166 155.793 156.239 
157.619 158.061 159.349 156.281 156.75 158.186 158.609 159.984 160.281 
161.505 156.615 157.221 158.715 159.212 160.622 160.971 162.235 162.472 
163.667 156.794 157.496 159.06 159.673 161.089 161.542 162.776 163.12 
164.262 164.572 165.658 157.001 157.688 159.289 159.958 161.387 161.905 
163.118 163.537 164.673 165.055 166.149 166.442 167.385 157.169 157.858 
159.359 160.103 161.48 162.094 163.271 163.777 164.936 165.414 166.59 
166.943 167.971 168.121 168.943 157.1 157.821 159.099 159.948 161.188 
161.975 163.066 163.747 164.843 165.525 166.699 167.284 168.317 168.65 
169.443 169.587 170.25 156.813 157.514 158.584 159.447 160.564 161.455 
162.498 163.322 164.338 165.178 166.251 167.089 168.047 168.689 169.379 
169.801 170.345 170.651 171.143 155.298 157.435 156.368 156.374 159.528 
158.51 158.508 157.439 157.37 161.607 160.562 160.542 159.507 159.435 
158.367 158.247 163.848 162.755 162.785 161.617 161.583 160.437 160.345 
159.223 159.087 165.929 165.024 165.167 164.021 164.021 162.751 162.667 
161.408 161.262 160.065 159.877 167.559 166.886 167.016 166.201 166.178 
165.143 164.998 163.792 163.572 162.302 162.04 160.814 160.543 169.016 
168.366 168.392 167.713 167.61 166.889 166.714 165.859 165.608 164.528 
164.186 162.968 162.605 161.406 161.069 170.399 169.808 169.831 169.064 
168.901 168.125 167.931 167.241 167.058 166.282 165.963 164.948 164.497 
163.372 162.934 161.83 161.439 171.402 171.059 171.129 170.492 170.293 
169.469 169.17 168.408 168.181 167.522 167.245 166.463 165.982 165.031 
164.478 163.506 163.023 162.061 161.629 171.802 171.953 171.882 171.552 
171.453 171.69 171.427 171.36 170.737 170.823 171.026 170.8 170.963 
170.512 170.353 169.609 170.53 170.562 170.312 170.347 169.982 169.984 
169.44 169.225 168.559 170.122 170.287 169.971 169.964 169.487 169.47 
168.951 168.92 168.334 168.188 167.534 169.294 169.612 169.223 169.416 
168.84 168.917 168.294 168.345 167.719 167.739 167.048 166.99 166.219 
168.476 168.689 168.245 168.461 167.917 168.103 167.518 167.633 167.003 
167.038 166.33 166.32 165.556 165.515 164.724 167.72 167.905 167.415 
167.542 167.017 167.177 166.678 166.835 166.285 166.34 165.666 165.621 
164.885 164.831 164.114 164.05 163.321 166.694 167.024 166.503 166.709 
166.145 166.325 165.8 165.993 165.452 165.587 164.942 164.966 164.247 
164.211 163.512 163.47 162.789 162.705 161.976 171.78 171.652 171.914 
172.006 171.249 171.691 171.846 171.899 171.607 170.415 171.106 171.323 
171.62 171.4 171.334 170.977 169.169 170.011 170.235 170.856 170.751 
170.997 170.73 170.775 170.59 167.924 168.688 168.917 169.622 169.658 
170.166 170.029 170.346 170.185 170.384 170.159 166.804 167.517 167.775 
168.41 168.552 169.094 169.1 169.526 169.427 169.77 169.591 169.781 
169.426 165.544 166.349 166.592 167.305 167.453 168.064 168.115 168.608 
168.553 168.947 168.834 169.136 168.95 169.049 168.704 164.133 164.973 
165.169 165.983 166.091 166.847 166.879 167.535 167.477 168.002 167.883 
168.322 168.189 168.514 168.288 168.378 167.965 162.816 163.562 163.734 
164.501 164.594 165.369 165.41 166.163 166.136 166.794 166.666 167.231 
167.044 167.564 167.321 167.72 167.324 167.48 166.905 156.921 157.628 
157.708 158.67 158.503 158.536 159.545 159.599 160.63 159.39 159.472 
160.522 160.562 161.597 161.611 162.588 160.102 160.275 161.333 161.497 
162.564 162.625 163.622 163.571 164.497 160.735 160.906 161.909 162.162 
163.259 163.497 164.559 164.622 165.583 165.508 166.422 161.357 161.529 
162.486 162.695 163.76 164.071 165.185 165.435 166.412 166.497 167.358 
167.357 168.144 161.842 162.1 163.076 163.29 164.304 164.565 165.645 
165.954 166.957 167.166 167.986 168.093 168.808 168.859 169.452 162.175 
162.502 163.5 163.816 164.813 165.088 166.069 166.366 167.336 167.619 
168.494 168.654 169.391 169.439 170.068 170.031 170.501 162.429 162.77 
163.728 164.131 165.108 165.475 166.366 166.686 167.531 167.884 168.758 
169.085 169.9 170.047 170.705 170.678 171.183 171.044 171.379 156.027 
154.9 155.836 156.65 153.744 154.67 155.455 156.5 157.444 152.598 
153.489 154.227 155.267 156.192 157.324 158.3 151.496 152.348 153.047 
154.034 154.913 156.031 157.008 158.145 159.061 150.437 151.259 151.938 
152.873 153.699 154.752 155.692 156.83 157.799 158.892 159.762 149.447 
150.215 150.858 151.759 152.538 153.542 154.427 155.524 156.481 157.617 
158.547 159.598 160.4 148.57 149.258 149.853 150.684 151.419 152.372 
153.218 154.268 155.199 156.314 157.253 158.35 159.186 160.186 160.885 
147.82 148.427 148.997 149.734 150.442 151.296 152.105 153.074 153.981 
155.055 156.007 157.09 157.97 158.97 159.716 160.63 161.261 147.198 
147.73 148.286 148.945 149.639 150.399 151.163 152.015 152.85 153.846 
154.776 155.863 156.79 157.815 158.625 159.526 160.204 161.024 161.597 
147.046 147.224 147.451 148.159 147.475 147.706 148.495 148.72 149.541 
147.771 148.004 148.848 149.106 149.989 150.198 151.059 148.169 148.367 
149.254 149.501 150.439 150.668 151.592 151.774 152.712 148.679 148.855 
149.805 150.005 151.014 151.201 152.21 152.372 153.411 153.568 154.636 
149.249 149.428 150.436 150.637 151.714 151.89 152.98 153.113 154.232 
154.367 155.518 155.629 156.696 149.891 150.05 151.084 151.291 152.397 
152.619 153.759 153.943 155.089 155.245 156.402 156.54 157.623 157.668 
158.573 150.581 150.731 151.76 151.952 153.047 153.285 154.431 154.683 
155.825 156.047 157.152 157.352 158.393 158.526 159.417 159.418 160.149 
151.219 151.4 152.407 152.616 153.677 153.916 155.018 155.296 156.398 
156.675 157.714 157.968 158.934 159.158 160.024 160.15 160.875 160.872 
161.501 151.852 153.29 152.738 153.112 154.936 154.307 154.726 154.082 
154.438 156.716 156.046 156.467 155.776 156.143 155.45 155.791 158.538 
157.851 158.249 157.535 157.873 157.172 157.511 156.823 157.152 160.349 
159.661 160.045 159.319 159.647 158.914 159.241 158.538 158.863 158.165 
158.449 162.03 161.412 161.79 161.111 161.485 160.746 161.104 160.331 
160.649 159.884 160.152 159.416 159.646 163.536 163.017 163.432 162.824 
163.25 162.591 162.998 162.25 162.554 161.726 161.932 161.123 161.3 
160.559 160.713 164.939 164.52 165.039 164.471 164.919 164.306 164.711 
164.063 164.351 163.59 163.723 162.893 162.971 162.186 162.266 161.534 
161.57 166.154 165.906 166.501 166.054 166.478 165.912 166.235 165.647 
165.892 165.245 165.36 164.6 164.622 163.823 163.835 163.063 163.055 
162.294 162.227 151.348 151.018 151.679 152.734 150.741 151.397 152.492 
153.168 154.353 150.526 151.216 152.382 153.003 154.211 154.885 156.138 
150.292 151.076 152.369 152.985 154.188 154.793 156.061 156.731 157.996 
150.034 150.867 152.263 152.981 154.214 154.805 156.048 156.699 158.045 
158.672 159.901 149.893 150.639 152.023 152.814 154.083 154.765 156.004 
156.696 158.075 158.774 160.108 160.608 161.675 149.959 150.557 151.854 
152.575 153.826 154.543 155.765 156.544 157.904 158.743 160.098 160.764 
161.853 162.263 163.139 150.134 150.643 151.856 152.47 153.674 154.309 
155.477 156.216 157.496 158.406 159.719 160.572 161.644 162.259 163.103 
163.573 164.39 150.278 150.763 151.887 152.471 153.623 154.211 155.322 
155.952 157.125 157.931 159.168 160.047 161.116 161.86 162.697 163.325 
164.11 164.705 165.503 150.427 148.924 149.806 150.066 147.358 148.253 
148.471 149.403 149.699 145.745 146.643 146.778 147.711 147.897 148.953 
149.305 144.029 144.977 145.084 145.986 146.069 147.047 147.265 148.467 
148.904 142.204 143.169 143.33 144.296 144.442 145.314 145.493 146.468 
146.841 148.076 148.631 140.645 141.362 141.486 142.489 142.789 143.776 
144.107 144.954 145.347 146.261 146.816 147.952 148.608 139.791 140.085 
140.072 140.756 141.062 142.093 142.603 143.631 144.142 145.012 145.544 
146.434 147.07 148.108 148.795 139.428 139.536 139.482 139.724 139.916 
140.57 141.084 142.086 142.702 143.73 144.289 145.232 145.807 146.754 
147.398 148.401 149.056 139.003 139.225 139.238 139.387 139.524 139.811 
140.207 140.826 141.409 142.283 142.869 143.846 144.425 145.441 146.066 
147.075 147.713 148.691 149.284 138.65 138.281 138.66 139.027 138.178 
138.393 138.887 139.142 139.489 138.566 138.481 138.98 139.171 139.723 
139.788 140.219 139.317 139.026 139.437 139.475 140.136 140.193 140.734 
140.696 141.268 140.198 139.825 140.187 140.09 140.758 140.766 141.368 
141.279 141.79 141.816 142.543 141.21 140.758 141.084 140.886 141.499 
141.47 142.09 141.98 142.48 142.378 143.03 143.168 144.072 142.274 
141.808 142.027 141.755 142.238 142.18 142.783 142.722 143.281 143.149 
143.81 143.792 144.694 144.835 145.812 143.188 142.796 142.948 142.645 
143.036 142.901 143.494 143.434 144.092 144 144.734 144.676 145.566 
145.601 146.565 146.634 147.526 143.995 143.651 143.872 143.56 144.004 
143.783 144.434 144.281 145.025 144.896 145.688 145.617 146.484 146.492 
147.389 147.426 148.271 148.301 149.081 144.555 145.77 144.914 144.575 
147.418 146.4 146.098 145.127 144.869 149.149 148.148 147.908 146.875 
146.64 145.603 145.39 150.969 149.908 149.677 148.679 148.467 147.461 
147.224 146.189 145.977 153.061 151.884 151.649 150.503 150.279 149.242 
149.029 148.017 147.792 146.786 146.625 155.126 154.044 153.866 152.647 
152.418 151.196 150.986 149.857 149.675 148.622 148.48 147.489 147.418 
156.934 155.995 155.866 154.819 154.626 153.444 153.212 151.977 151.764 
150.592 150.434 149.375 149.285 148.32 148.283 158.683 157.755 157.628 
156.678 156.508 155.503 155.278 154.169 153.901 152.731 152.484 151.36 
151.194 150.178 150.09 149.16 149.111 160.386 159.504 159.371 158.423 
158.241 157.276 157.062 156.069 155.807 154.747 154.459 153.366 153.13 
152.082 151.94 150.964 150.886 149.963 149.903 150.659 151.702 151.534 
152.278 152.784 152.624 153.436 153.258 154.019 153.964 153.759 154.61 
154.447 155.282 155.032 155.746 155.268 155.009 155.878 155.684 156.605 
156.366 157.195 156.826 157.574 156.603 156.352 157.233 157.019 157.984 
157.765 158.691 158.361 159.173 158.755 159.544 157.877 157.68 158.575 
158.378 159.318 159.138 160.062 159.835 160.65 160.319 161.03 160.673 
161.366 159.099 158.949 159.868 159.691 160.59 160.413 161.278 161.108 
161.907 161.677 162.36 162.044 162.649 162.329 162.916 160.24 160.149 
161.06 160.928 161.787 161.625 162.445 162.274 163.06 162.864 163.574 
163.3 163.92 163.586 164.176 163.827 164.393 161.215 161.203 162.046 
161.994 162.779 162.703 163.472 163.375 164.126 163.981 164.662 164.451 
165.048 164.791 165.363 165.082 165.658 165.318 165.833 142.619 142.475 
142.144 141.427 142.542 142.099 141.303 140.962 140.252 142.65 142.227 
141.418 140.936 140.092 139.749 139.052 142.662 142.336 141.62 141.125 
140.246 139.695 138.873 138.573 138.115 142.68 142.365 141.788 141.37 
140.649 140.02 139.228 138.632 138.123 137.905 137.833 142.932 142.512 
142.005 141.596 141.08 140.551 139.977 139.283 138.765 138.201 137.966 
137.817 137.84 143.38 142.916 142.423 141.932 141.441 140.998 140.566 
140.075 139.601 138.985 138.508 138.054 137.795 137.73 137.708 143.744 
143.372 142.903 142.417 141.849 141.363 140.842 140.487 140.011 139.617 
139.037 138.544 138.044 137.749 137.607 137.63 137.794 143.97 143.658 
143.22 142.837 142.283 141.781 141.175 140.721 140.196 139.841 139.334 
138.925 138.446 138.059 137.874 137.718 137.908 137.961 138.322 142.601 
141.39 142.088 142.372 140.216 140.889 141.173 141.958 142.403 139.06 
139.721 140.034 140.813 141.318 142.123 142.655 138.21 138.676 139.031 
139.728 140.295 141.105 141.71 142.454 142.963 137.988 138.155 138.515 
138.924 139.494 140.167 140.834 141.566 142.135 142.788 143.302 138.006 
138.138 138.451 138.66 139.133 139.558 140.2 140.801 141.448 142.051 
142.647 143.246 143.897 137.899 138.088 138.379 138.61 139.018 139.332 
139.9 140.343 141.01 141.514 142.198 142.729 143.452 144.02 144.756 
138.014 138.041 138.383 138.532 138.999 139.254 139.853 140.184 140.859 
141.241 141.953 142.405 143.16 143.675 144.42 144.932 145.579 138.522 
138.381 138.745 138.719 139.232 139.363 140.026 140.261 140.963 141.23 
141.917 142.258 142.982 143.432 144.163 144.636 145.275 145.704 146.227 
143.364 143.213 143.693 144.58 143.242 143.639 144.561 145.022 145.955 
143.421 143.727 144.592 145.029 145.956 146.421 147.323 143.665 143.921 
144.727 145.091 145.973 146.402 147.259 147.715 148.51 143.997 144.184 
145.006 145.292 146.2 146.517 147.391 147.704 148.497 148.846 149.579 
144.588 144.632 145.472 145.658 146.608 146.864 147.813 148.023 148.881 
149.042 149.852 150.04 150.849 145.389 145.346 146.124 146.207 147.083 
147.299 148.229 148.488 149.383 149.567 150.407 150.532 151.39 151.52 
152.411 146.119 146.106 146.776 146.838 147.578 147.741 148.548 148.821 
149.664 149.968 150.788 151.044 151.854 152.076 152.921 153.127 153.991 
146.695 146.712 147.305 147.382 148.039 148.174 148.894 149.104 149.88 
150.166 150.96 151.278 152.062 152.383 153.173 153.489 154.291 154.587 
155.387 150.344 149.672 149.616 148.818 148.962 148.893 148.063 148.044 
147.256 148.335 148.208 147.356 147.28 146.461 146.455 145.66 147.813 
147.648 146.801 146.636 145.765 145.665 144.794 144.794 143.931 147.361 
147.181 146.366 146.151 145.257 145.036 144.096 143.954 143.035 143.012 
142.145 147 146.788 146.011 145.768 144.912 144.616 143.716 143.417 
142.555 142.314 141.542 141.396 140.737 146.741 146.5 145.756 145.479 
144.676 144.352 143.548 143.208 142.473 142.118 141.46 141.125 140.582 
140.341 139.954 146.552 146.301 145.604 145.3 144.535 144.188 143.424 
143.107 142.432 142.137 141.506 141.184 140.595 140.329 139.888 139.754 
139.482 146.441 146.175 145.531 145.213 144.482 144.109 143.339 143.002 
142.304 142.05 141.397 141.148 140.479 140.249 139.665 139.57 139.163 
139.209 138.933 
POINT_DATA 1002
SCALARS Distance double
LOOKUP_TABLE default
145.231 144.294 144.984 146.14 145.82 146.711 147.107 146.727 147.724 
148.421 148.035 147.69 148.696 149.436 150.127 149.131 148.817 149.721 
150.486 151.299 152.085 150.47 149.986 151.068 151.744 152.569 153.453 
154.227 151.664 150.959 152.493 153.231 153.975 154.798 155.547 156.121 
152.68 151.88 153.688 154.629 155.438 156.193 156.871 157.426 157.851 
153.892 153.002 154.933 155.93 156.818 157.606 158.276 158.838 159.296 
159.617 155.289 154.278 156.345 157.282 158.123 158.93 159.648 160.243 
160.729 161.065 161.228 144.068 144.69 143.809 144.423 143.381 145.521 
144.123 143.001 145.389 146.54 143.95 142.922 145.315 146.602 147.633 
144.025 143.012 145.291 146.669 147.783 148.765 144.182 143.001 145.404 
146.71 147.963 148.953 149.84 144.186 142.884 145.508 146.824 148.194 
149.365 150.097 150.766 144.09 142.869 145.406 146.799 148.341 149.782 
150.626 151.006 151.672 144.142 143.1 145.279 146.575 148.164 149.817 
150.941 151.377 151.755 152.721 144.18 145.188 145.473 146.503 146.888 
146.298 148.06 148.212 147.709 147.739 149.429 149.256 149.291 149.148 
149.447 150.344 150.261 150.416 150.319 150.449 150.827 151.362 151.649 
151.201 151.093 151.12 151.359 151.535 152.959 153.315 152.495 152.15 
152.078 152.161 152.172 152.024 154.809 154.869 154.467 154.007 153.774 
153.764 153.629 153.303 152.975 156.465 156.193 156.543 156.341 156.058 
155.925 155.758 155.347 154.873 154.527 156.328 156.683 158.491 157.163 
159.013 160.545 157.743 159.655 161.287 162.685 158.165 160.24 161.973 
163.448 164.871 158.401 160.615 162.415 163.941 165.401 166.704 158.608 
160.861 162.686 164.256 165.827 167.223 168.232 158.628 160.844 162.737 
164.391 166.163 167.782 168.911 169.692 158.296 160.375 162.347 164.117 
166.024 167.912 169.261 170.163 170.901 157.786 159.674 161.646 163.504 
165.394 167.336 168.898 169.983 170.894 171.638 157.489 159.551 158.485 
161.593 160.485 159.336 163.989 162.776 161.492 160.21 166.214 165.301 
163.988 162.524 161.056 167.745 167.093 166.144 164.867 163.328 161.739 
169.129 168.308 167.434 166.569 165.394 163.84 162.239 170.609 169.762 
168.639 167.723 166.885 165.613 164.041 162.524 171.671 171.109 170.01 
168.864 167.959 166.894 165.441 163.954 162.595 172.098 171.878 171.885 
171.312 171.165 171.094 170.606 170.704 170.488 169.959 170.382 170.511 
169.953 169.509 168.859 169.975 169.885 169.562 168.95 168.398 167.753 
168.981 169.019 168.718 168.244 167.692 167.071 166.325 168.071 168.341 
167.688 167.35 166.966 166.355 165.566 164.781 167.304 167.516 166.87 
166.495 166.191 165.701 164.943 164.148 163.418 166.252 166.315 165.953 
165.614 165.295 164.872 164.256 163.544 162.847 162.106 171.609 172.039 
171.311 171.727 170.713 171.775 170.882 169.653 171.363 171.066 169.501 
168.356 170.328 170.569 170.561 168.21 167.208 169.043 169.61 169.915 
170.086 167.136 166.072 167.983 168.636 169.059 169.315 169.379 165.842 
164.721 166.8 167.578 168.134 168.472 168.721 168.755 164.358 163.323 
165.309 166.165 166.895 167.405 167.778 168.073 168.041 163.008 162.118 
163.839 164.636 165.429 166.084 166.513 166.845 167.047 166.885 156.787 
158.553 157.545 159.511 158.455 160.573 160.454 159.263 161.604 162.617 
161.111 159.933 162.435 163.656 164.595 161.677 160.599 162.941 164.404 
165.619 166.538 162.314 161.16 163.471 164.87 166.284 167.338 168.202 
162.828 161.539 164.088 165.357 166.711 167.881 168.746 169.482 163.141 
161.847 164.534 165.821 167.032 168.269 169.338 170.093 170.632 155.103 
155.622 153.981 154.412 152.846 156.335 153.216 151.737 155.059 157.186 
152.099 150.656 153.832 155.851 157.989 151.026 149.634 152.693 154.576 
156.653 158.755 149.99 148.721 151.562 153.363 155.346 157.446 159.443 
149.067 147.926 150.505 152.195 154.1 156.154 158.162 159.956 148.293 
147.245 149.634 151.192 152.933 154.914 156.956 158.795 160.398 147.656 