# vtk DataFile Version 4.0
vtk output
ASCII
DATASET POLYDATA
POINTS 1002 float
-118.061 -110.357 51.9439 -117.928 -109.127 51.1114 -117.381 -109.498 51.2707 
-117.552 -110.745 52.2831 -116.932 -109.833 51.6496 -118.22 -111.558 53.0978 
-117.147 -111.068 52.9104 -116.488 -110.125 52.2993 -117.747 -112.026 53.678 
-118.407 -112.827 54.6599 -116.664 -111.454 53.7541 -115.93 -110.546 53.0755 
-117.306 -112.578 54.4273 -117.925 -113.595 55.2964 -118.451 -114.471 56.2819 
-116.074 -112.133 54.6107 -115.376 -111.265 53.8465 -116.751 -113.331 55.2327 
-117.418 -114.552 55.9178 -117.945 -115.56 56.8001 -118.328 -116.593 57.5937 
-115.589 -113.106 55.3972 -114.924 -112.204 54.6517 -116.188 -114.271 56.0643 
-116.825 -115.54 56.6801 -117.422 -116.636 57.4261 -117.839 -117.662 58.2094 
-118.2 -118.819 58.7511 -115.146 -114.16 56.1876 -114.487 -113.185 55.5472 
-115.704 -115.287 56.873 -116.199 -116.458 57.6201 -116.76 -117.564 58.3624 
-117.3 -118.555 59.1043 -117.686 -119.619 59.6862 -118.02 -120.69 60.0607 
-114.631 -115.157 57.075 -114.104 -114.17 56.4988 -115.142 -116.295 57.6875 
-115.555 -117.397 58.4863 -115.97 -118.494 59.3109 -116.543 -119.481 60.0622 
-117.09 -120.356 60.7293 -117.438 -121.302 61.1707 -117.734 -122.144 61.4927 
-114.208 -116.074 58.0588 -113.843 -115.161 57.4575 -114.588 -117.199 58.6526 
-114.949 -118.297 59.3683 -115.254 -119.41 60.1216 -115.704 -120.493 60.8184 
-116.335 -121.269 61.5625 -116.841 -121.937 62.2061 -117.163 -122.715 62.5745 
-117.513 -123.352 62.8664 -113.916 -116.878 59.0445 -113.603 -116.067 58.3937 
-114.197 -117.936 59.7056 -114.505 -119.007 60.4125 -114.777 -120.07 61.0901 
-115.071 -121.221 61.6642 -115.579 -122.122 62.3148 -116.165 -122.661 63.0666 
-116.597 -123.244 63.6029 -116.964 -123.912 63.8701 -117.417 -124.368 64.1165 
-117.348 -108.084 50.3592 -116.766 -108.437 50.5497 -116.636 -107.024 49.4672 
-115.964 -107.298 49.7621 -115.914 -105.991 48.4964 -116.221 -108.809 50.9624 
-115.175 -106.119 48.9176 -115.293 -104.87 47.6476 -115.289 -107.704 50.2151 
-115.661 -109.229 51.55 -114.554 -104.947 48.1694 -114.668 -103.662 47.1193 
-114.457 -106.532 49.4244 -114.696 -108.273 50.745 -115.09 -109.8 52.2205 
-113.886 -103.928 47.6551 -113.936 -102.586 46.8078 -113.811 -105.418 48.754 
-113.903 -107.172 50.0677 -114.201 -108.978 51.4253 -114.572 -110.594 53.0009 
-113.044 -103.059 47.241 -113.167 -101.624 46.4936 -113.067 -104.469 48.2249 
-113.238 -106.063 49.5742 -113.422 -107.959 50.9082 -113.683 -109.861 52.259 
-114.094 -111.541 53.9251 -112.291 -102.153 46.9239 -112.491 -100.624 46.3323 
-112.297 -103.579 47.7972 -112.555 -105.101 49.1239 -112.741 -106.929 50.5407 
-112.853 -108.975 51.7354 -113.207 -110.89 53.1869 -113.723 -112.564 54.9461 
-111.865 -101.27 47.0174 -112.04 -99.776 46.6099 -111.831 -102.698 47.7519 
-112.034 -104.243 48.9135 -112.199 -106.051 50.2794 -112.217 -108.027 51.4368 
-112.45 -110.07 52.6405 -112.991 -112.002 54.2754 -113.521 -113.677 56.0076 
-111.722 -100.665 47.6287 -111.843 -99.3339 47.321 -111.679 -101.994 48.2682 
-111.776 -103.461 49.2467 -111.869 -105.246 50.3935 -111.86 -107.13 51.4428 
-111.992 -109.05 52.4824 -112.412 -111.173 53.8594 -112.93 -113.211 55.5088 
-113.344 -114.81 57.0701 -111.709 -100.009 48.5142 -111.633 -101.282 49.0253 
-111.583 -100.879 50.0819 -111.512 -102.1 50.7257 -111.493 -101.94 51.7177 
-111.626 -102.597 49.8743 -111.445 -103.125 52.3504 -111.632 -103.199 53.3232 
-111.482 -103.427 51.5759 -111.657 -104.256 50.8703 -111.724 -104.472 53.9992 
-112 -104.631 55.0856 -111.548 -104.537 53.0796 -111.588 -105.211 52.3775 
-111.7 -106.202 51.7909 -112.338 -106.318 55.7112 -112.559 -106.395 56.5925 
-112.075 -106.223 54.6918 -111.97 -106.513 53.8304 -111.933 -107.222 53.2147 
-111.875 -108.118 52.7507 -113.073 -108.591 56.9143 -113.325 -108.564 57.3976 
-112.735 -108.52 56.2972 -112.54 -108.534 55.561 -112.47 -108.828 54.8977 
-112.294 -109.46 54.4163 -112.196 -110.35 54.0391 -113.649 -110.809 57.7729 
-113.935 -110.717 58.1643 -113.231 -110.844 57.5287 -112.851 -110.885 57.284 
-112.675 -111.086 56.8151 -112.496 -111.545 56.3064 -112.348 -112.236 55.9099 
-112.515 -112.879 55.6096 -113.78 -112.587 59.057 -114.041 -112.449 59.4831 
-113.435 -112.722 58.808 -112.974 -112.896 58.8096 -112.574 -113.225 58.6484 
-112.284 -113.743 58.1759 -112.115 -114.336 57.7248 -112.302 -114.78 57.4032 
-112.819 -114.906 57.1733 -113.536 -113.996 60.6595 -113.821 -113.817 60.9518 
-113.279 -114.226 60.3971 -112.897 -114.527 60.3663 -112.397 -114.936 60.3313 
-111.99 -115.454 59.9421 -111.807 -115.965 59.4105 -111.961 -116.292 59.046 
-112.487 -116.347 58.7914 -113.122 -116.212 58.5713 -113.498 -117.312 59.7851 
-112.968 -117.377 60.0711 -113.262 -118.663 61.2702 -112.337 -117.468 60.3474 
-112.775 -118.675 61.6349 -112.877 -120.264 62.7677 -111.796 -117.488 60.6344 
-112.246 -118.746 61.9679 -112.488 -120.331 63.2366 -112.37 -121.949 64.3802 
-111.477 -117.329 61.1114 -111.541 -118.833 62.335 -111.96 -120.368 63.6377 
-111.978 -122.005 64.9417 -111.699 -123.395 66.1104 -111.547 -116.973 61.7122 
-110.865 -118.785 62.9084 -110.989 -120.316 64.0386 -111.325 -121.853 65.2702 
-111.127 -123.365 66.5487 -110.847 -124.646 67.6178 -112.052 -116.501 61.9965 
-110.899 -118.51 63.4195 -110.275 -120.11 64.5317 -110.453 -121.493 65.5469 
-110.453 -123.045 66.7037 -110.119 -124.592 67.91 -110.108 -125.747 68.9425 
-112.613 -116.007 61.9738 -111.603 -118.02 63.5114 -110.622 -119.758 64.8224 
-110.267 -121.086 65.9027 -110.093 -122.518 66.9785 -109.619 -124.194 68.1973 
-109.402 -125.625 69.4031 -109.683 -126.515 70.4173 -112.98 -115.576 62.0081 
-112.283 -117.43 63.3843 -111.487 -119.235 64.798 -110.905 -120.691 66.1446 
-110.451 -122.056 67.3846 -109.733 -123.622 68.6695 -109.128 -125.14 69.9582 
-109.088 -126.26 71.0567 -109.369 -127.013 71.8724 -113.323 -115.267 62.1125 
-112.786 -116.93 63.2608 -112.185 -118.644 64.6414 -111.618 -120.185 66.2166 
-111.102 -121.633 67.6685 -110.351 -123.139 69.0225 -109.504 -124.572 70.378 
-109.04 -125.734 71.5526 -108.958 -126.641 72.4202 -109.016 -127.438 72.9939 
-113.78 -118.317 60.5352 -113.48 -119.875 62.0898 -114.065 -119.444 61.3398 
-112.998 -121.552 63.6497 -113.801 -120.98 63.0029 -114.389 -120.473 62.1529 
-112.381 -123.161 65.3605 -113.323 -122.607 64.6514 -114.155 -121.973 63.9338 
-114.649 -121.587 62.8276 -111.618 -124.57 67.0736 -112.601 -124.256 66.3065 
-113.616 -123.658 65.6166 -114.389 -123.089 64.6961 -114.976 -122.692 63.4196 
-110.877 -125.74 68.5712 -111.775 -125.621 67.8924 -112.797 -125.301 67.1131 
-113.815 -124.697 66.3308 -114.713 -124.039 65.2987 -115.49 -123.401 64.1048 
-110.411 -126.585 70.0762 -111.185 -126.507 69.5434 -112.064 -126.387 68.7481 
-113.112 -126.068 67.8034 -114.197 -125.449 66.8369 -115.178 -124.695 65.8083 
-115.987 -123.951 64.6979 -110.04 -127.231 71.5693 -110.813 -127.212 71.1638 
-111.632 -127.079 70.5718 -112.601 -126.9 69.6161 -113.666 -126.573 68.4042 
-114.694 -126.01 67.2546 -115.646 -125.306 66.164 -116.424 -124.596 65.0086 
-109.535 -127.873 72.7506 -110.352 -128.051 72.3712 -111.275 -127.946 71.9393 
-112.251 -127.664 71.2876 -113.262 -127.344 70.1793 -114.237 -126.966 68.8459 
-115.219 -126.43 67.6108 -116.184 -125.77 66.4154 -116.937 -125.076 65.2125 
-108.866 -128.275 73.7772 -109.562 -128.842 73.3868 -109.058 -129.14 74.4665 
-110.094 -129.68 73.8439 -110.03 -129.588 75.0654 -110.65 -129.013 72.8389 
-111.295 -129.863 74.3108 -111.577 -129.487 75.4006 -111.397 -129.666 73.0663 
-111.801 -128.742 72.2954 -112.8 -129.577 74.704 -113.224 -129.131 75.3577 
-112.58 -129.683 73.376 -112.602 -129.226 72.2949 -112.895 -128.238 71.5205 
-114.437 -129.259 74.7275 -114.935 -128.614 75.1357 -114.112 -129.492 73.6802 
-113.822 -129.363 72.2909 -113.739 -128.663 71.3439 -113.927 -127.736 70.3343 
-116.157 -128.746 74.4621 -116.714 -127.971 74.9491 -115.804 -129.198 73.6346 
-115.456 -129.33 72.3354 -115.038 -128.926 71.1484 -114.841 -128.021 70.2461 
-114.96 -127.182 69.0275 -117.713 -128.079 74.1989 -118.356 -127.498 74.7371 
-117.207 -128.544 73.3547 -116.912 -128.86 72.2551 -116.518 -128.817 71.0663 
-116.087 -128.107 70.1048 -115.964 -127.179 69.0713 -116.073 -126.49 67.7216 
-119.049 -127.635 73.8724 -119.705 -127.247 74.3066 -118.329 -127.909 73.0338 
-117.934 -128.119 72.0228 -117.699 -128.229 70.9126 -117.332 -127.875 69.8533 
-117.085 -127.048 68.8681 -117.089 -126.308 67.6917 -117.068 -125.759 66.374 
-120.167 -127.348 73.2449 -120.672 -126.955 73.5619 -119.45 -127.556 72.5214 
-118.939 -127.625 71.5905 -118.739 -127.629 70.5455 -118.496 -127.461 69.411 
-118.184 -126.924 68.347 -118.058 -126.196 67.3547 -117.974 -125.586 66.2668 
-117.722 -125.039 65.1293 -108.819 -127.232 73.6021 -108.696 -127.973 74.4918 
-109.199 -126.712 74.0798 -109.234 -127.15 75.0522 -110.026 -125.927 74.4655 
-109.092 -128.609 75.3259 -110.248 -126.045 75.2908 -110.885 -125.208 74.5437 
-109.864 -127.506 75.7278 -110.379 -128.865 75.803 -111.348 -125.264 74.9467 
-111.797 -124.854 73.8677 -111.12 -126.263 75.5065 -111.385 -127.67 75.8419 
-112.193 -128.7 75.7526 -112.585 -124.989 73.9577 -113.022 -124.595 72.5094 
-112.48 -125.467 74.854 -112.786 -126.388 75.5073 -113.368 -127.433 75.7481 
-114.051 -128.175 75.5286 -113.954 -124.694 72.6264 -114.284 -124.054 71.0001 
-113.777 -125.059 73.9565 -114.021 -125.485 74.9995 -114.625 -126.171 75.6389 
-115.215 -126.877 75.659 -115.869 -127.496 75.3653 -115.104 -124.128 71.1284 
-115.212 -123.337 69.5859 -114.946 -124.603 72.7326 -114.941 -124.904 74.049 
-115.397 -125.393 74.9168 -116.092 -126.003 75.2264 -116.794 -126.542 75.2022 
-117.615 -127.066 75.0892 -115.932 -123.466 69.5561 -115.918 -122.602 68.328 
-115.936 -124.051 71.109 -115.865 -124.388 72.5604 -116.017 -124.853 73.5429 
-116.59 -125.543 73.9883 -117.366 -126.107 74.1869 -118.262 -126.5 74.4572 
-119.155 -126.899 74.6132 -116.631 -122.694 68.2129 -116.611 -121.762 67.3448 
-116.745 -123.408 69.4414 -116.813 -123.854 70.8176 -116.878 -124.283 71.9709 
[...]
CELL_DATA 2000
SCALARS Distance double
LOOKUP_TABLE default
167.957 167.935 168.34 169.168 168.011 168.39 169.265 169.638 170.535 
168.145 168.521 169.467 169.831 170.813 171.143 172.114 168.407 168.732 
169.758 170.116 171.198 171.529 172.583 172.838 173.837 168.898 169.138 
170.221 170.516 171.659 171.983 173.101 173.37 174.402 174.614 175.607 
169.522 169.736 170.835 171.079 172.201 172.487 173.597 173.888 174.931 
175.176 176.149 176.368 177.29 170.179 170.375 171.448 171.693 172.759 
173.022 174.067 174.357 175.381 175.665 176.628 176.868 177.746 177.95 
178.731 170.907 171.038 172.061 172.275 173.304 173.542 174.539 174.801 
175.793 176.083 177.043 177.304 178.166 178.369 179.128 179.287 179.96 
171.658 171.755 172.708 172.883 173.873 174.08 175.045 175.266 176.215 
176.48 177.416 177.688 178.537 178.755 179.495 179.665 180.332 180.468 
181.076 167.139 165.774 166.663 167.075 164.29 165.221 165.661 166.626 
167.106 162.809 163.698 164.094 165.125 165.655 166.671 167.2 161.41 
162.233 162.571 163.543 164.083 165.163 165.78 166.8 167.42 160.092 
160.877 161.214 162.085 162.605 163.631 164.308 165.376 166.089 167.112 
167.859 158.815 159.592 159.931 160.768 161.27 162.235 162.916 163.963 
164.727 165.785 166.587 167.638 168.462 157.605 158.345 158.688 159.497 
160.011 160.946 161.639 162.644 163.414 164.451 165.284 166.362 167.254 
168.304 169.168 156.677 157.273 157.702 158.376 158.965 159.791 160.555 
161.469 162.267 163.208 164.051 165.091 166.06 167.146 168.139 169.112 
169.993 156.246 156.632 157.185 157.658 158.332 158.964 159.793 160.558 
161.408 162.203 163.044 163.951 164.946 166.016 167.129 168.167 169.177 
170.03 170.848 156.408 157.21 156.945 157.336 158.231 157.839 158.194 
157.955 158.479 159.464 158.92 159.22 158.885 159.397 159.229 159.91 
161.061 160.308 160.549 160.005 160.489 160.217 160.89 160.752 161.484 
163.055 162.159 162.474 161.617 162.096 161.512 162.197 161.847 162.587 
162.361 163.125 165.261 164.36 164.826 163.836 164.346 163.462 164.141 
163.459 164.24 163.717 164.553 164.186 165.1 167.399 166.6 167.09 
166.218 166.711 165.828 166.434 165.631 166.365 165.656 166.492 165.911 
166.849 166.403 167.363 169.213 168.57 168.972 168.292 168.719 168.01 
168.517 167.823 168.431 167.776 168.477 167.901 168.702 168.229 169.07 
168.649 169.425 170.635 170.134 170.464 169.945 170.331 169.785 170.225 
169.665 170.15 169.61 170.142 169.665 170.265 169.879 170.533 170.198 
170.83 170.48 171.049 171.951 171.747 172.298 173.191 171.482 172.063 
172.98 173.556 174.505 171.24 171.803 172.759 173.355 174.376 174.949 
175.934 171.112 171.609 172.544 173.13 174.175 174.824 175.865 176.402 
177.284 171.122 171.552 172.414 172.908 173.833 174.513 175.51 176.213 
177.08 177.615 178.317 171.199 171.613 172.462 172.834 173.616 174.122 
174.975 175.684 176.525 177.218 177.927 178.492 179.134 171.251 171.679 
172.557 172.926 173.701 174.02 174.779 175.23 176.046 176.634 177.415 
178.015 178.738 179.292 179.97 171.296 171.696 172.55 172.982 173.809 
174.158 174.941 175.243 176.051 176.405 177.225 177.648 178.436 178.925 
179.665 180.155 180.792 171.409 171.739 172.539 172.949 173.784 174.212 
175.04 175.42 176.242 176.571 177.379 177.68 178.447 178.78 179.502 
179.897 180.534 180.938 181.453 172.328 173.632 173.116 173.4 174.981 
174.474 174.832 174.273 174.572 176.37 175.861 176.249 175.727 176.065 
175.469 175.735 177.685 177.237 177.621 177.141 177.516 176.962 177.261 
176.63 176.889 178.761 178.459 178.868 178.478 178.881 178.4 178.741 
178.156 178.433 177.798 178.059 179.638 179.44 179.89 179.621 180.038 
179.689 180.046 179.58 179.859 179.298 179.533 178.929 179.135 180.483 
180.309 180.78 180.559 180.973 180.721 181.089 180.763 181.054 180.618 
180.84 180.317 180.495 179.917 180.059 181.275 181.152 181.637 181.44 
181.865 181.62 182.009 181.73 182.059 181.709 181.957 181.524 181.714 
181.208 181.354 180.783 180.885 181.897 181.866 182.369 182.264 182.726 
182.525 182.937 182.665 183.009 182.682 182.937 182.562 182.754 182.339 
182.494 182.016 182.123 181.564 181.619 182.343 183.259 182.83 182.887 
184.329 183.838 183.908 183.386 183.33 185.376 184.919 184.942 184.422 
184.341 183.771 183.578 186.233 185.876 185.853 185.377 185.227 184.711 
184.482 183.919 183.621 186.934 186.666 186.705 186.25 186.091 185.544 
185.28 184.733 184.407 183.857 183.501 187.524 187.323 187.435 187.087 
186.998 186.458 186.191 185.56 185.198 184.593 184.211 183.669 183.297 
188.059 187.85 187.873 187.66 187.555 187.243 186.973 186.462 186.029 
185.397 184.927 184.346 183.938 183.431 183.044 188.571 188.328 188.193 
187.947 187.721 187.543 187.262 187.005 186.565 186.101 185.54 184.999 
184.499 184.019 183.598 183.129 182.687 188.872 188.723 188.508 188.221 
187.903 187.649 187.355 187.147 186.788 186.462 185.95 185.492 184.956 
184.505 184.045 183.618 183.156 182.694 182.185 182.166 182.172 182.427 
183.034 182.219 182.431 183.018 183.365 184.081 182.256 182.44 182.942 
183.309 184.034 184.459 185.164 182.284 182.436 182.855 183.177 183.852 
184.342 185.084 185.481 186.051 182.362 182.5 182.911 183.114 183.737 
184.152 184.905 185.347 185.957 186.263 186.715 182.351 182.603 183.055 
183.226 183.772 184.08 184.783 185.192 185.818 186.141 186.614 186.881 
187.301 182.06 182.497 182.985 183.292 183.731 184.042 184.579 185.013 
185.587 185.983 186.454 186.763 187.225 187.496 187.928 181.561 182.088 
182.596 183.055 183.458 183.828 184.214 184.655 185.133 185.63 186.102 
186.53 186.99 187.377 187.871 188.151 188.525 181.03 181.544 182.04 
182.564 182.998 183.433 183.794 184.206 184.625 185.112 185.588 186.081 
186.528 187.009 187.458 187.933 188.331 188.642 188.838 171.755 172.685 
172.425 172.878 173.722 173.438 173.919 173.618 174.113 174.815 174.549 
175.089 174.743 175.237 174.908 175.407 175.936 175.694 176.311 175.973 
176.491 176.1 176.597 176.232 176.688 177.087 176.859 177.541 177.235 
177.798 177.392 177.874 177.469 177.931 177.515 177.877 178.182 177.999 
178.683 178.453 179.038 178.689 179.156 178.747 179.178 178.767 179.137 
178.664 178.933 179.098 178.987 179.604 179.483 180.04 179.826 180.275 
179.954 180.343 179.975 180.319 179.892 180.15 179.665 179.901 179.843 
179.774 180.331 180.272 180.804 180.694 181.128 180.924 181.263 181.003 
181.285 180.968 181.177 180.786 180.964 180.563 180.801 180.501 180.448 
180.993 180.946 181.485 181.403 181.831 181.668 181.947 181.746 181.946 
181.744 181.902 181.652 181.785 181.487 181.663 181.376 181.624 171.205 
170.518 171.302 172.111 169.553 170.527 171.428 172.229 173.086 168.431 
169.496 170.501 171.46 172.403 173.228 174.13 167.394 168.396 169.474 
170.514 171.599 172.529 173.535 174.311 175.239 166.634 167.465 168.544 
169.551 170.762 171.769 172.914 173.751 174.745 175.456 176.382 166.233 
166.873 167.925 168.765 169.989 170.979 172.196 173.124 174.171 174.956 
175.9 176.615 177.503 166.109 166.633 167.673 168.325 169.474 170.298 
171.463 172.371 173.425 174.297 175.267 176.085 177.015 177.719 178.509 
166.111 166.588 167.604 168.164 169.223 169.88 170.939 171.697 172.708 
173.528 174.516 175.383 176.378 177.191 178.065 178.679 179.338 166.18 
166.609 167.575 168.092 169.08 169.65 170.623 171.254 172.211 172.905 
173.869 174.66 175.67 176.521 177.475 178.206 178.951 179.47 180.028 
166.545 167.596 167.337 167.937 168.764 168.46 169.058 168.793 169.419 
169.975 169.664 170.262 169.96 170.572 170.295 170.93 171.209 170.887 
171.514 171.2 171.831 171.506 172.137 171.838 172.487 172.53 172.161 
172.801 172.477 173.138 172.806 173.449 173.106 173.758 173.439 174.126 
173.885 173.506 174.1 173.765 174.409 174.106 174.768 174.443 175.114 
174.772 175.485 175.158 175.911 175.162 174.82 175.376 175.035 175.648 
175.357 176.055 175.767 176.49 176.161 176.891 176.557 177.3 176.982 
177.694 176.403 176.072 176.664 176.31 176.952 176.631 177.373 177.087 
177.861 177.55 178.274 177.944 178.621 178.312 178.934 178.634 179.16 
177.681 177.341 177.978 177.634 178.322 177.995 178.744 178.443 179.182 
178.886 179.542 179.241 179.819 179.53 180.051 179.765 180.207 179.902 
180.251 178.617 180.086 179.215 178.918 181.462 180.675 180.469 179.583 
179.332 182.777 182.042 181.929 181.142 180.97 180.046 179.786 184.074 
183.365 183.233 182.531 182.356 181.581 181.308 180.436 180.134 185.192 
184.588 184.402 183.755 183.519 182.821 182.506 181.766 181.438 180.677 
180.382 186.112 185.589 185.432 184.849 184.653 183.97 183.684 182.918 
182.607 181.867 181.601 180.877 180.614 187.081 186.529 186.419 185.846 
185.712 185.103 184.889 184.154 183.853 183.073 182.797 182.065 181.815 
181.088 180.813 188.079 187.563 187.424 186.833 186.624 186.077 185.823 
185.245 184.891 184.234 183.865 183.208 182.896 182.235 181.921 181.227 
180.906 188.74 188.432 188.218 187.726 187.363 186.852 186.466 185.984 
185.554 185.038 184.587 184.07 183.697 183.18 182.842 182.245 181.876 
181.232 180.881 178.75 179.481 179.533 180.27 180.069 180.305 181.107 
181.02 181.622 180.219 180.792 181.777 181.855 182.468 182.322 182.897 
179.971 180.782 181.974 182.395 183.163 183.157 183.734 183.62 184.209 
179.695 180.493 181.753 182.422 183.354 183.673 184.326 184.392 184.955 
184.886 185.355 179.538 180.243 181.41 182.121 183.076 183.639 184.358 
184.725 185.299 185.462 185.913 185.874 186.235 179.359 180.023 181.047 
181.728 182.621 183.257 184.003 184.541 185.151 185.542 186.032 186.239 
186.665 186.699 187.129 179.115 179.74 180.658 181.302 182.16 182.798 
183.588 184.157 184.812 185.27 185.799 186.17 186.669 186.957 187.476 
187.614 188.083 178.855 179.434 180.291 180.89 181.736 182.362 183.189 
183.776 184.466 184.934 185.462 185.87 186.372 186.8 187.342 187.73 
188.214 188.429 188.733 177.829 176.405 177.561 178.428 174.775 175.955 
176.722 178.04 178.857 173.183 174.258 174.866 176.15 176.842 178.232 
178.871 171.647 172.645 173.156 174.302 174.898 176.155 176.723 178.05 
178.587 170.158 171.072 171.506 172.593 173.189 174.348 174.924 176.042 
176.564 177.782 178.367 168.883 169.652 170.008 170.946 171.502 172.657 
173.301 174.408 174.913 175.951 176.478 177.676 178.298 167.805 168.511 
168.894 169.621 170.098 171.039 171.662 172.769 173.313 174.352 174.785 
175.873 176.423 177.65 178.226 166.775 167.5 167.984 168.673 169.161 
169.859 170.386 171.248 171.798 172.758 173.221 174.21 174.694 175.819 
176.403 177.584 178.093 165.801 166.506 167.037 167.79 168.344 169.026 
169.511 170.173 170.657 171.419 171.931 172.773 173.284 174.216 174.773 
175.835 176.397 177.474 177.917 165.434 165.316 165.801 166.699 165.272 
165.755 166.721 167.18 168.072 165.354 165.801 166.802 167.241 168.159 
168.53 169.288 165.541 165.976 167.009 167.388 168.296 168.628 169.413 
169.701 170.407 165.739 166.191 167.252 167.636 168.532 168.813 169.612 
169.88 170.664 170.903 171.664 166.004 166.393 167.43 167.837 168.725 
169.037 169.831 170.126 170.964 171.235 172.058 172.248 173.026 166.47 
166.718 167.687 168.01 168.874 169.182 169.966 170.303 171.14 171.507 
172.358 172.639 173.433 173.63 174.446 167.08 167.233 168.13 168.336 
169.167 169.382 170.157 170.433 171.25 171.619 172.469 172.841 173.663 
173.973 174.805 175.08 175.97 167.694 167.816 168.644 168.806 169.604 
169.759 170.52 170.703 171.492 171.763 172.603 172.939 173.797 174.148 
175.029 175.375 176.279 176.598 177.47 168.287 169.48 168.981 169.217 
170.817 170.231 170.46 169.944 170.17 172.342 171.652 171.853 171.247 
171.463 170.901 171.096 174.039 173.267 173.457 172.733 172.938 172.275 
172.478 171.861 172.074 175.854 175.063 175.316 174.481 174.719 173.9 
174.134 173.376 173.612 172.928 173.185 177.571 176.897 177.231 176.441 
176.739 175.852 176.118 175.219 175.487 174.638 174.902 174.134 174.41 
178.987 178.486 178.83 178.249 178.563 177.843 178.093 177.256 177.493 
176.623 176.88 176.008 176.266 175.436 175.703 180.19 179.772 180.109 
179.668 179.992 179.469 179.713 179.057 179.23 178.504 178.701 177.947 
178.175 177.365 177.591 176.76 176.988 181.306 180.928 181.282 180.882 
181.249 180.802 181.104 180.539 180.713 180.06 180.202 179.569 179.767 
179.127 179.328 178.602 178.772 177.99 178.151 178.99 179.624 179.68 
180.403 180.172 180.298 181.069 181.117 181.852 180.57 180.774 181.581 
181.75 182.544 182.598 183.309 180.984 181.154 181.953 182.176 182.979 
183.178 183.893 183.97 184.54 181.533 181.662 182.478 182.598 183.376 
183.534 184.246 184.405 184.996 185.054 185.508 181.95 182.204 183.051 
183.195 183.957 184.017 184.719 184.79 185.453 185.499 186.062 186.013 
186.469 182.058 182.456 183.264 183.605 184.317 184.525 185.161 185.295 
185.931 186.018 186.612 186.609 187.123 187.032 187.476 182.03 182.438 
183.163 183.591 184.223 184.609 185.168 185.512 186.054 186.338 186.824 
187.011 187.43 187.545 187.95 187.973 188.323 181.998 182.367 183.016 
183.404 183.971 184.363 184.888 185.308 185.834 186.236 186.677 186.981 
187.3 187.563 187.872 188.145 188.463 188.618 188.813 155.725 156.207 
155.641 155.226 157.219 156.417 155.979 155.354 155.235 158.466 157.609 
157.21 156.382 156.208 155.687 155.993 159.792 158.942 158.624 157.748 
157.609 156.898 157.117 156.733 157.306 161.216 160.383 160.215 159.306 
159.267 158.446 158.669 158.051 158.499 158.138 158.763 162.651 161.881 
161.836 161.003 161.037 160.211 160.428 159.707 160.085 159.495 159.998 
159.628 160.307 164.078 163.328 163.29 162.568 162.592 161.894 162.042 
161.402 161.691 161.094 161.493 160.986 161.538 161.229 161.936 165.546 
164.782 164.737 163.995 164.016 163.336 163.473 162.877 163.146 162.6 
162.96 162.449 162.901 162.497 163.059 162.806 163.415 166.959 166.255 
166.254 165.5 165.563 164.821 165.013 164.345 164.682 164.078 164.485 
163.913 164.346 163.846 164.325 163.942 164.451 164.176 164.674 155.566 
155.031 155.287 155.53 155.082 155.005 155.342 155.61 156.209 155.923 
155.464 155.837 155.792 156.528 156.677 157.444 157.272 156.629 156.943 
156.61 157.264 157.228 157.994 158.061 158.799 158.716 158.056 158.307 
157.837 158.308 158.069 158.686 158.648 159.333 159.417 160.15 160.27 
159.543 159.786 159.21 159.61 159.18 159.708 159.453 160.13 160.047 
160.804 160.823 161.554 161.928 161.185 161.43 160.758 161.135 160.564 
161.068 160.642 161.318 161.059 161.837 161.665 162.379 162.25 162.864 
163.402 162.786 163.006 162.394 162.707 162.121 162.531 162.05 162.614 
162.308 162.98 162.768 163.384 163.167 163.681 163.507 164.029 164.614 
164.104 164.287 163.806 164.063 163.576 163.886 163.427 163.83 163.498 
164 163.79 164.284 164.091 164.518 164.325 164.773 164.651 165.202 
156.035 156.004 156.23 156.869 156.51 156.385 156.93 157.187 157.92 
157.554 157.088 157.433 157.399 158.122 158.385 159.239 158.918 158.289 
158.527 158.137 158.752 158.77 159.68 159.885 160.863 160.354 159.74 
160.049 159.464 159.969 159.646 160.423 160.438 161.395 161.615 162.71 
161.699 161.173 161.539 161.029 161.503 161.027 161.614 161.332 162.115 
162.163 163.22 163.546 164.793 162.91 162.441 162.76 162.384 162.849 
162.478 163.009 162.621 163.277 163.052 164.021 164.14 165.411 165.737 
167.006 164.09 163.614 163.911 163.526 163.97 163.671 164.222 163.933 
164.593 164.326 165.218 165.138 166.328 166.482 167.74 167.937 168.974 
165.334 164.845 165.192 164.734 165.173 164.795 165.33 165.057 165.721 
165.546 166.388 166.328 167.369 167.45 168.57 168.706 169.682 169.753 
170.493 177.168 175.871 176.295 175.801 174.64 175.018 174.494 174.854 
174.278 173.345 173.758 173.218 173.577 172.992 173.334 172.756 171.954 
172.39 171.842 172.257 171.664 172.04 171.448 171.823 171.252 170.615 
170.99 170.443 170.859 170.286 170.676 170.072 170.468 169.907 170.317 
169.798 169.357 169.674 169.086 169.479 168.918 169.309 168.709 169.083 
168.516 168.944 168.475 168.918 168.509 168.113 168.395 167.731 168.104 
167.51 167.93 167.349 167.738 167.173 167.578 167.112 167.58 167.197 
167.682 167.351 166.946 167.16 166.487 166.776 166.193 166.554 166.026 
166.401 165.89 166.274 165.825 166.258 165.89 166.36 166.033 166.538 
166.267 165.934 166.075 165.465 165.662 165.163 165.404 164.953 165.213 
164.755 165.056 164.634 165.019 164.673 165.111 164.811 165.261 164.995 
165.495 165.298 
POINT_DATA 1002
SCALARS Distance double
LOOKUP_TABLE default
168.751 167.607 167.514 168.755 167.536 170 168.881 167.62 170.161 
171.448 169.066 167.753 170.456 171.824 173.075 169.381 168.09 170.831 
172.31 173.619 174.821 169.947 168.66 171.34 172.812 174.186 175.406 
176.599 170.606 169.306 171.955 173.313 174.672 175.942 177.105 178.171 
171.219 170.018 172.524 173.803 175.091 176.386 177.561 178.577 179.45 
171.881 170.826 173.088 174.306 175.514 176.778 177.97 178.973 179.837 
180.597 172.562 171.59 173.685 174.852 175.982 177.153 178.32 179.326 
180.189 180.973 181.662 166.299 166.178 164.847 164.641 163.385 166.165 
163.072 161.975 164.57 166.231 161.656 160.601 162.989 164.691 166.419 
160.376 159.301 161.613 163.216 165.021 166.831 159.1 158.047 160.319 
161.881 163.656 165.507 167.425 157.892 156.88 159.075 160.642 162.399 
164.192 166.157 168.183 157.051 156.101 158.165 159.658 161.369 163.039 
164.927 167.1 169.137 156.746 155.893 157.761 159.073 160.652 162.206 
163.89 166.024 168.267 170.13 156.589 157.504 157.542 158.476 158.679 
158.606 159.61 160.106 159.579 160.011 161.212 161.869 160.829 161.065 
161.599 163.399 163.901 162.815 162.647 162.883 163.282 165.784 166.103 
165.299 164.928 164.852 164.991 165.39 167.916 168.182 167.575 167.263 
167.119 167.132 167.361 167.802 169.616 169.847 169.389 169.198 169.096 
169.088 169.22 169.533 169.882 170.946 171.119 170.837 170.775 170.708 
170.653 170.693 170.889 171.182 171.432 172.835 172.632 174.11 172.379 
173.931 175.478 172.143 173.757 175.443 176.886 171.997 173.495 175.277 
176.882 178.091 172.015 173.237 174.771 176.487 177.877 178.989 172.124 
173.257 174.361 175.797 177.296 178.614 179.802 172.148 173.407 174.446 
175.533 176.813 178.141 179.464 180.646 172.111 173.399 174.628 175.753 
176.871 177.996 179.176 180.359 181.373 172.167 173.343 174.615 175.884 
177.094 178.178 179.174 180.16 181.084 181.903 173.956 175.361 175.183 
176.749 176.641 176.375 178.082 178.038 177.876 177.536 179.209 179.32 
179.293 179.06 178.708 180.126 180.339 180.46 180.392 180.132 179.763 
181.003 181.216 181.369 181.442 181.334 181.06 180.667 181.808 182.104 
182.28 182.383 182.358 182.185 181.903 181.497 182.418 182.882 183.195 
183.338 183.31 183.148 182.933 182.652 182.224 182.711 183.364 183.706 
184.448 184.835 183.915 185.476 185.821 184.907 184.205 186.337 186.547 
185.752 185.025 184.218 187.118 187.142 186.667 185.859 184.959 184.049 
187.714 187.723 187.481 186.854 185.864 184.776 183.814 188.119 188.34 
187.791 187.399 186.672 185.554 184.454 183.551 188.527 188.849 187.935 
187.442 186.948 186.079 184.992 184.057 183.19 188.796 188.975 188.204 
187.573 187.056 186.365 185.41 184.472 183.611 182.672 181.886 182.688 
181.944 182.664 182.054 183.704 182.606 182.111 183.561 184.839 182.594 
182.15 183.368 184.63 185.788 182.76 182.182 183.383 184.462 185.627 
186.46 182.872 182.006 183.539 184.398 185.493 186.341 187.045 182.619 
181.56 183.469 184.191 185.152 186.118 186.907 187.726 182.091 181.036 
183.082 183.83 184.626 185.624 186.567 187.5 188.39 181.509 180.548 
182.524 183.392 184.166 185.089 186.056 186.965 187.913 188.691 171.984 
173.129 172.946 174.245 173.979 174.388 175.428 175.045 175.601 175.727 
176.617 176.154 176.897 176.981 177.09 177.813 177.301 178.198 178.305 
178.342 178.365 178.889 178.362 179.352 179.568 179.599 179.598 179.454 
179.715 179.222 180.212 180.563 180.702 180.735 180.628 180.373 180.389 
179.923 180.893 181.314 181.515 181.58 181.545 181.36 181.161 170.518 
171.409 169.634 170.544 168.488 172.337 169.46 167.35 171.506 173.372 
168.382 166.455 170.584 172.714 174.523 167.561 165.889 169.691 172.015 
174.019 175.698 167.17 165.641 169.044 171.236 173.343 175.157 176.853 
167.089 165.599 168.761 170.618 172.541 174.397 176.253 177.946 167.081 
165.657 168.645 170.264 171.937 173.65 175.506 177.382 178.874 167.092 
165.792 168.554 170.043 171.565 173.134 174.828 176.68 178.367 179.617 