# vtk DataFile Version 4.0
vtk output
ASCII
DATASET POLYDATA
POINTS 1002 float
-119.274 -109.747 52.0216 -118.996 -108.768 51.0055 -118.487 -108.895 51.4317 
-118.733 -110.006 52.5306 -118.039 -109.115 52.0134 -119.6 -110.776 53.3071 
-118.308 -110.327 53.1618 -117.668 -109.455 52.6824 -119.078 -111.105 53.9407 
-119.913 -111.791 54.8759 -117.964 -110.696 53.9155 -117.292 -109.864 53.409 
-118.648 -111.498 54.6685 -119.394 -112.23 55.6603 -120.158 -113.001 56.6427 
-117.531 -111.153 54.8418 -116.816 -110.406 54.1795 -118.219 -112.024 55.5548 
-118.886 -112.887 56.4693 -119.6 -113.712 57.4752 -120.329 -114.626 58.2938 
-117.023 -111.846 55.7892 -116.299 -111.161 54.9509 -117.735 -112.716 56.609 
-118.39 -113.735 57.3638 -119.045 -114.654 58.2497 -119.773 -115.47 59.1193 
-120.405 -116.389 59.7056 -116.595 -112.709 56.6324 -115.899 -111.993 55.7817 
-117.319 -113.525 57.5939 -117.96 -114.52 58.3727 -118.539 -115.593 59.0525 
-119.205 -116.403 59.9031 -119.86 -117.117 60.6644 -120.29 -118.009 61.0924 
-116.254 -113.489 57.5479 -115.64 -112.744 56.7646 -116.953 -114.34 58.4631 
-117.583 -115.209 59.3583 -118.064 -116.294 60.0162 -118.584 -117.359 60.6878 
-119.203 -118.055 61.5253 -119.673 -118.734 62.1442 -119.95 -119.588 62.4255 
-115.952 -114.126 58.5723 -115.43 -113.417 57.7838 -116.537 -115.105 59.3527 
-117.127 -116.041 60.2178 -117.575 -117.002 61.0085 -117.939 -118.187 61.6153 
-118.435 -119.156 62.2839 -118.94 -119.755 62.9646 -119.259 -120.389 63.3634 
-119.524 -121.089 63.5366 -115.697 -114.751 59.4843 -115.219 -114.091 58.6496 
-116.134 -115.819 60.2093 -116.586 -116.982 60.9529 -117.027 -117.958 61.7893 
-117.354 -118.969 62.5261 -117.698 -120.005 63.1209 -118.168 -120.733 63.6914 
-118.568 -121.254 64.1352 -118.844 -121.796 64.3773 -119.173 -122.273 64.5359 
-118.464 -107.856 50.4155 -117.993 -107.902 50.9097 -117.945 -106.871 49.9642 
-117.431 -106.933 50.4472 -117.266 -105.901 49.4805 -117.512 -108.099 51.5581 
-116.636 -106.088 49.8934 -116.437 -104.923 48.97 -116.824 -107.129 51.0958 
-117.037 -108.474 52.2425 -115.735 -105.265 49.4301 -115.648 -103.903 48.7373 
-115.953 -106.296 50.5669 -116.242 -107.512 51.7565 -116.566 -109.012 52.8786 
-114.823 -104.408 49.2603 -114.847 -103.014 48.7483 -115.024 -105.543 50.1594 
-115.35 -106.667 51.2662 -115.706 -108.173 52.359 -116.029 -109.739 53.5515 
-113.826 -103.68 49.1687 -113.978 -102.379 48.7346 -113.994 -104.876 49.876 
-114.4 -105.973 50.8536 -114.795 -107.368 51.951 -115.165 -109.023 53.0921 
-115.53 -110.588 54.3472 -112.967 -103.102 49.1842 -113.225 -101.827 48.8721 
-113.013 -104.329 49.7576 -113.434 -105.441 50.6062 -113.918 -106.647 51.6773 
-114.361 -108.169 52.8194 -114.818 -109.893 53.9558 -115.246 -111.465 55.2586 
-112.468 -102.543 49.5853 -112.669 -101.263 49.3695 -112.438 -103.795 50.0963 
-112.73 -104.963 50.8388 -113.178 -106.075 51.744 -113.676 -107.284 52.7411 
-114.238 -108.929 53.721 -114.718 -110.82 54.8236 -115.083 -112.334 56.2412 
-112.202 -102.08 50.2847 -112.255 -100.864 50.0758 -112.23 -103.286 50.8149 
-112.397 -104.463 51.537 -112.651 -105.628 52.2679 -113.05 -106.647 52.9842 
-113.675 -107.891 53.7154 -114.256 -109.811 54.5562 -114.593 -111.803 55.7234 
-114.87 -113.159 57.1946 -111.966 -101.502 51.0091 -112.054 -102.691 51.5011 
-111.804 -102.411 52.3393 -111.871 -103.495 52.9955 -111.561 -103.359 53.9575 
-112.174 -103.85 52.246 -111.412 -104.473 54.5161 -111.289 -104.267 55.4724 
-111.815 -104.727 53.6545 -112.236 -105.139 52.9475 -111.015 -105.493 55.9528 
-111.427 -105.223 56.6559 -111.185 -105.854 54.9404 -111.746 -106.129 54.0896 
-112.41 -106.321 53.4764 -111.448 -106.393 57.1371 -112.344 -106.259 57.4811 
-111.118 -106.805 56.3054 -111.503 -107.132 55.1933 -112.252 -107.156 54.4448 
-113.033 -107.29 54.0032 -112.968 -107.451 57.6729 -113.9 -107.498 57.8381 
-112.258 -107.657 57.3148 -112.238 -107.976 56.4021 -112.701 -108.1 55.5235 
-113.259 -108.272 55.0257 -113.798 -108.92 54.6991 -114.786 -108.989 57.8202 
-115.413 -109.013 57.9998 -114.052 -109.017 57.687 -113.685 -109.173 57.2273 
-113.716 -109.376 56.6258 -113.765 -109.698 56.2406 -113.862 -110.397 55.9367 
-114.179 -111.25 55.7098 -115.853 -110.632 58.4403 -116.236 -110.534 58.5888 
-115.301 -110.707 58.2867 -114.845 -110.83 57.9977 -114.64 -111.047 57.667 
-114.368 -111.406 57.5124 -113.992 -112.027 57.3746 -113.969 -112.739 57.1472 
-114.37 -113.131 57.0731 -116.017 -111.947 59.7196 -116.376 -111.822 59.731 
-115.578 -112.108 59.6225 -115.187 -112.352 59.3897 -114.985 -112.679 59.1203 
-114.744 -113.058 58.9968 -114.266 -113.544 58.919 -113.958 -114.076 58.7014 
-114.187 -114.35 58.5189 -114.722 -114.269 58.5481 -115.324 -115.266 59.9606 
-114.809 -115.539 59.9461 -115.335 -116.922 61.3343 -114.247 -115.713 60.059 
-114.766 -117.279 61.4879 -114.989 -118.791 62.8833 -114.048 -115.506 60.3881 
-114.09 -117.413 61.7499 -114.242 -119.128 63.0886 -114.253 -120.31 64.3938 
-114.368 -115.058 60.6988 -113.809 -117.115 62.1395 -113.409 -119.052 63.2482 
-113.377 -120.483 64.4105 -113.45 -121.558 65.5995 -114.733 -114.608 60.8661 
-114.103 -116.699 62.4792 -113.173 -118.631 63.5112 -112.634 -120.166 64.4661 
-112.692 -121.546 65.6945 -112.777 -122.989 66.8936 -114.881 -114.116 61.0396 
-114.5 -116.298 62.6878 -113.694 -118.363 63.8415 -112.696 -119.766 64.8233 
-112.312 -121.105 66.1185 -112.323 -122.826 67.4936 -112.224 -124.392 68.5432 
-115.095 -113.611 61.2154 -114.762 -115.717 62.7798 -114.352 -118.1 64.0508 
-113.435 -119.674 65.2526 -112.626 -120.736 66.6816 -112.35 -122.334 68.1882 
-112.144 -124.11 69.3581 -111.881 -125.366 70.0843 -115.508 -113.267 61.2626 
-115.107 -115.107 62.7264 -114.849 -117.542 64.0052 -114.184 -119.492 65.4106 
-113.269 -120.566 66.9762 -112.754 -121.872 68.4868 -112.472 -123.586 69.7719 
-112.083 -124.946 70.6867 -111.767 -125.907 71.2539 -115.985 -113.106 61.1798 
-115.609 -114.733 62.5577 -115.366 -116.943 63.7543 -114.811 -119.024 65.2162 
-113.89 -120.272 66.934 -113.243 -121.434 68.42 -112.944 -123.04 69.6552 
-112.544 -124.384 70.7843 -112.052 -125.248 71.6696 -111.758 -126.118 72.2257 
-115.731 -116.273 60.8176 -115.532 -118.156 62.2647 -116.005 -117.626 61.57 
-114.971 -119.836 63.925 -115.614 -119.441 63.1184 -116.339 -118.862 62.3799 
-114.199 -121.207 65.4357 -114.972 -120.882 64.8145 -115.875 -120.531 63.9723 
-116.717 -119.825 63.2591 -113.439 -122.814 66.6461 -114.244 -122.433 66.2795 
-115.213 -121.995 65.5983 -116.214 -121.383 64.8287 -117.028 -120.698 64.0219 
-112.703 -124.456 68.0141 -113.533 -124.195 67.5811 -114.512 -123.679 67.0642 
-115.54 -122.854 66.4052 -116.549 -122.028 65.6032 -117.427 -121.439 64.6301 
-112.095 -125.593 69.5524 -112.844 -125.462 69.0167 -113.873 -125.109 68.4667 
-114.887 -124.433 67.8447 -115.951 -123.443 67.1275 -117.032 -122.629 66.17 
-117.902 -122.03 65.0751 -111.796 -126.395 70.888 -112.33 -126.409 70.4263 
-113.296 -126.071 69.8568 -114.334 -125.657 69.1218 -115.37 -124.993 68.3653 
-116.517 -124.06 67.5527 -117.544 -123.245 66.4903 -118.271 -122.565 65.3467 
-111.746 -127.01 71.9772 -112.106 -127.44 71.618 -112.886 -127.179 71.1195 
-113.877 -126.672 70.3213 -114.88 -126.216 69.3712 -115.972 -125.5 68.5805 
-117.095 -124.526 67.7864 -117.986 -123.67 66.721 -118.623 -122.978 65.5526 
-111.773 -126.86 73.0434 -111.982 -128.028 72.7298 -112.058 -127.558 73.6751 
-112.483 -128.575 73.2472 -112.744 -127.616 73.9304 -112.568 -128.385 72.311 
-113.37 -128.097 73.3614 -113.973 -127.073 73.9522 -113.289 -128.642 72.6897 
-113.489 -127.895 71.5996 -114.76 -127.357 73.3043 -115.671 -126.796 74.0123 
-114.353 -128.11 72.6992 -114.332 -128.111 71.7373 -114.517 -127.252 70.4791 
-116.516 -127.243 73.3026 -117.41 -126.952 73.9562 -115.814 -127.661 72.5902 
-115.479 -127.865 71.651 -115.406 -127.42 70.4634 -115.589 -126.575 69.4161 
-118.269 -127.319 73.0785 -118.894 -126.919 73.5015 -117.565 -127.516 72.3949 
-116.996 -127.546 71.4565 -116.644 -127.17 70.4061 -116.568 -126.432 69.5084 
-116.773 -125.559 68.7087 -119.814 -127.092 72.5045 -120.275 -126.54 72.8762 
-119.255 -127.255 71.931 -118.674 -127.174 71.0981 -118.184 -126.842 70.1865 
-117.881 -126.119 69.5051 -117.804 -125.262 68.8541 -117.872 -124.483 67.8807 
-121.165 -126.687 71.9244 -121.596 -126.067 72.4036 -120.615 -126.874 71.3592 
-120.037 -126.732 70.6579 -119.555 -126.503 69.821 -119.222 -126.001 69.1497 
-119.01 -125.139 68.6358 -118.844 -124.323 67.8204 -118.694 -123.681 66.659 
-122.223 -126.196 71.4566 -122.576 -125.613 71.9666 -121.652 -126.407 70.8741 
-120.991 -126.247 70.2598 -120.468 -126.028 69.4968 -120.163 -125.786 68.6681 
-119.98 -125.197 67.9909 -119.808 -124.353 67.3154 -119.57 -123.636 66.3953 
-119.315 -123.024 65.3784 -111.914 -125.443 72.8629 -111.924 -125.9 73.7915 
-112.302 -124.762 73.336 -112.461 -124.977 74.3219 -113.112 -124.421 73.423 
-112.372 -126.408 74.3829 -113.485 -124.448 74.4147 -114.215 -124.278 72.9945 
-113.208 -125.392 74.9761 -113.401 -126.551 74.6497 -114.676 -124.09 73.9395 
-115.266 -123.968 72.1616 -114.382 -124.592 75.1964 -114.514 -125.678 75.4368 
-114.986 -126.427 74.8272 -115.811 -123.75 72.8959 -116.266 -123.382 71.1784 
-115.53 -123.907 74.5781 -115.634 -124.724 75.5726 -116.104 -125.807 75.5421 
-116.756 -126.485 74.7983 -116.968 -123.322 71.6016 -117.272 -122.547 70.224 
-116.709 -123.545 73.1418 -116.67 -123.918 74.4737 -116.953 -124.912 75.1202 
-117.551 -125.899 74.9232 -118.238 -126.507 74.2666 -117.989 -122.565 70.4396 
-118.113 -121.588 69.2723 -117.888 -123.145 71.6705 -117.845 -123.452 72.8758 
-117.851 -124.094 73.7628 -118.136 -125.02 74.0485 -118.79 -125.689 73.8789 
-119.56 -126.133 73.4859 -118.756 -121.6 69.3766 -118.799 -120.684 68.2482 
-118.779 -122.326 70.5248 -118.9 -122.781 71.6448 -118.925 -123.282 72.5571 
-118.951 -124.044 72.9795 -119.396 -124.706 73.0612 -120.202 -125.116 73.0998 
-120.999 -125.564 72.9375 -119.44 -120.676 68.2684 -119.468 -119.834 67.2259 
-119.447 -121.376 69.397 -119.618 -121.878 70.5471 -119.801 -122.322 71.5762 
[...]
CELL_DATA 2000
SCALARS Distance double
LOOKUP_TABLE default
168.422 168.356 168.781 169.637 168.45 168.801 169.671 170.082 170.985 
168.663 168.972 169.848 170.197 171.122 171.499 172.445 168.927 169.226 
170.135 170.448 171.407 171.733 172.734 173.068 174.088 169.281 169.549 
170.523 170.81 171.841 172.125 173.18 173.462 174.518 174.808 175.82 
169.773 169.998 171.034 171.291 172.372 172.635 173.715 173.976 175.026 
175.285 176.278 176.523 177.417 170.364 170.557 171.605 171.858 172.933 
173.188 174.235 174.499 175.523 175.79 176.759 176.989 177.861 178.044 
178.809 170.979 171.153 172.163 172.422 173.48 173.737 174.751 174.993 
175.986 176.252 177.226 177.467 178.338 178.502 179.243 179.367 180.017 
171.577 171.739 172.701 172.951 173.994 174.264 175.283 175.513 176.478 
176.709 177.648 177.899 178.757 178.955 179.667 179.791 180.39 180.492 
181.03 167.664 166.525 167.233 167.566 165.345 166.088 166.41 167.18 
167.62 164.052 164.863 165.185 165.99 166.412 167.272 167.794 162.735 
163.55 163.891 164.714 165.117 166.01 166.54 167.463 168.033 161.516 
162.274 162.621 163.423 163.821 164.692 165.224 166.179 166.799 167.73 
168.356 160.398 161.083 161.394 162.175 162.575 163.419 163.943 164.877 
165.535 166.501 167.196 168.119 168.82 159.452 160.019 160.313 161.005 
161.439 162.228 162.778 163.65 164.321 165.272 166.038 166.995 167.779 
168.681 169.441 158.776 159.219 159.581 160.108 160.624 161.263 161.884 
162.61 163.289 164.128 164.914 165.873 166.747 167.696 168.539 169.382 
170.13 158.38 158.736 159.214 159.617 160.216 160.695 161.368 161.918 
162.583 163.228 163.946 164.792 165.67 166.666 167.592 168.516 169.325 
170.096 170.783 158.437 159.126 158.929 159.351 160.039 159.743 160.126 
159.931 160.394 160.938 160.63 160.948 160.74 161.172 161.021 161.516 
161.905 161.496 161.754 161.514 161.9 161.766 162.227 162.129 162.645 
163.233 162.59 162.821 162.394 162.773 162.521 162.99 162.832 163.367 
163.28 163.936 165.054 164.179 164.442 163.727 164.164 163.638 164.189 
163.795 164.423 164.154 164.917 164.786 165.674 167.164 166.235 166.579 
165.661 166.145 165.362 165.987 165.339 166.04 165.518 166.327 165.995 
166.929 166.738 167.661 169.102 168.351 168.725 167.882 168.314 167.495 
168.067 167.34 168.013 167.361 168.086 167.575 168.389 168.075 168.917 
168.693 169.433 170.594 170.069 170.381 169.786 170.119 169.489 169.944 
169.339 169.917 169.317 169.924 169.344 169.976 169.532 170.218 169.917 
170.58 170.32 170.899 171.779 171.537 172.156 173.2 171.27 171.925 
173.046 173.702 174.809 171.103 171.711 172.835 173.516 174.634 175.271 
176.185 171.093 171.641 172.709 173.296 174.288 174.946 175.801 176.403 
177.085 171.087 171.657 172.728 173.232 174.104 174.573 175.287 175.857 
176.566 177.192 177.938 171.021 171.587 172.696 173.266 174.229 174.562 
175.231 175.486 176.181 176.69 177.602 178.224 179.131 171.045 171.494 
172.538 173.174 174.3 174.785 175.62 175.733 176.388 176.581 177.508 
178.02 179.077 179.565 180.383 171.203 171.535 172.452 173.006 174.153 
174.811 175.845 176.169 176.85 176.956 177.712 178.072 179.077 179.57 
180.43 180.755 181.334 171.395 171.694 172.545 172.972 174.046 174.673 
175.778 176.292 177.055 177.289 177.902 178.219 179.049 179.548 180.37 
180.759 181.297 181.547 181.95 172.209 173.667 173.053 173.383 175.263 
174.622 174.953 174.328 174.689 176.601 176.141 176.45 175.902 176.249 
175.661 175.985 177.549 177.282 177.615 177.243 177.6 177.153 177.495 
176.915 177.178 178.501 178.217 178.667 178.331 178.745 178.385 178.766 
178.323 178.616 178.051 178.289 179.647 179.303 179.822 179.469 179.943 
179.554 179.939 179.511 179.805 179.353 179.603 179.104 179.321 180.738 
180.436 180.869 180.599 181.048 180.745 181.115 180.698 180.957 180.492 
180.731 180.295 180.523 180.049 180.197 181.634 181.41 181.785 181.547 
181.942 181.714 182.08 181.785 182.058 181.647 181.871 181.42 181.637 
181.177 181.33 180.825 180.894 182.332 182.229 182.698 182.478 182.911 
182.613 182.977 182.673 182.972 182.654 182.893 182.521 182.707 182.275 
182.399 181.914 181.974 181.459 181.493 182.787 183.75 183.337 183.352 
184.533 184.315 184.429 183.879 183.657 184.931 184.88 185.063 184.83 
184.663 184.041 183.658 185.461 185.2 185.35 185.264 185.253 184.885 
184.532 183.928 183.546 186.479 185.937 185.977 185.651 185.7 185.388 
185.16 184.672 184.287 183.765 183.43 187.463 187.014 186.971 186.475 
186.406 185.957 185.739 185.254 184.883 184.403 184.046 183.594 183.243 
188.032 187.81 187.76 187.369 187.169 186.701 186.398 185.885 185.502 
184.985 184.603 184.144 183.777 183.329 182.917 188.396 188.259 188.213 
187.936 187.669 187.293 186.922 186.496 186.105 185.625 185.224 184.72 
184.312 183.829 183.396 182.932 182.473 188.625 188.555 188.45 188.245 
187.901 187.602 187.15 186.846 186.415 186.1 185.673 185.277 184.809 
184.348 183.86 183.39 182.906 182.453 181.989 182.578 182.437 182.769 
183.39 182.495 182.637 183.166 183.587 184.164 182.835 182.811 183.259 
183.471 184.064 184.336 184.755 183.114 183.152 183.553 183.683 184.31 
184.477 185.055 185.062 185.498 183.126 183.315 183.676 183.876 184.436 
184.739 185.413 185.562 186.12 186.05 186.554 182.96 183.266 183.652 
183.873 184.3 184.663 185.256 185.704 186.278 186.546 186.977 187.056 
187.429 182.611 183.049 183.499 183.795 184.175 184.458 184.903 185.337 
185.834 186.327 186.72 187.102 187.388 187.635 187.891 182.094 182.612 
183.077 183.525 183.922 184.276 184.642 184.986 185.365 185.779 186.149 
186.598 186.933 187.34 187.658 187.961 188.241 181.553 182.054 182.491 
182.996 183.391 183.869 184.222 184.642 184.95 185.33 185.638 186.044 
186.408 186.848 187.251 187.655 188.019 188.301 188.527 171.752 172.815 
172.493 172.987 174.077 173.718 174.318 173.908 174.54 175.333 175.041 
175.713 175.348 175.98 175.581 176.192 176.495 176.255 176.911 176.66 
177.216 176.901 177.325 177.015 177.366 177.623 177.383 177.97 177.737 
178.227 177.956 178.311 177.995 178.293 177.972 178.275 178.639 178.456 
179.005 178.758 179.241 178.942 179.401 179.04 179.493 179.061 179.517 
179.052 179.509 179.487 179.377 179.946 179.757 180.277 180.009 180.565 
180.256 180.846 180.444 180.944 180.45 180.849 180.374 180.735 180.27 
180.179 180.777 180.655 181.222 181.034 181.589 181.389 181.935 181.701 
182.082 181.727 181.887 181.503 181.616 181.323 181.497 181.007 180.937 
181.522 181.454 182.025 181.915 182.412 182.274 182.682 182.542 182.786 
182.559 182.57 182.253 182.202 181.95 182.042 181.882 182.085 171.154 
170.403 171.243 172.162 169.521 170.457 171.49 172.356 173.367 168.633 
169.569 170.687 171.672 172.789 173.619 174.62 167.858 168.7 169.821 
170.872 172.13 173.062 174.151 174.88 175.833 167.292 167.987 169.027 
170.019 171.343 172.403 173.643 174.458 175.468 176.114 177.015 166.931 
167.505 168.439 169.265 170.501 171.587 172.923 173.919 175.029 175.762 
176.66 177.268 178.059 166.731 167.216 168.085 168.734 169.816 170.756 
172.054 173.135 174.354 175.251 176.201 176.876 177.656 178.231 178.923 
166.69 167.087 167.936 168.449 169.439 170.157 171.342 172.299 173.546 
174.52 175.575 176.358 177.192 177.815 178.544 179.077 179.733 166.753 
167.093 167.914 168.359 169.306 169.872 170.947 171.699 172.862 173.753 
174.841 175.689 176.596 177.316 178.1 178.705 179.41 179.906 180.512 
167.042 167.935 167.711 168.243 169.031 168.731 169.325 169.061 169.68 
170.258 169.915 170.52 170.23 170.899 170.612 171.314 171.542 171.177 
171.766 171.452 172.119 171.855 172.584 172.33 173.127 172.883 172.496 
173.095 172.73 173.385 173.087 173.813 173.575 174.36 174.166 174.99 
174.218 173.856 174.469 174.095 174.764 174.418 175.144 174.837 175.597 
175.359 176.148 175.973 176.731 175.446 175.153 175.768 175.447 176.117 
175.809 176.535 176.217 176.939 176.626 177.362 177.123 177.868 177.651 
178.3 176.575 176.337 176.972 176.697 177.344 177.086 177.775 177.532 
178.212 177.937 178.596 178.334 179.019 178.792 179.434 179.159 179.664 
177.634 177.442 178.094 177.863 178.481 178.239 178.856 178.651 179.281 
179.085 179.699 179.486 180.091 179.886 180.465 180.24 180.714 180.413 
180.766 178.423 179.771 179.042 178.906 181.094 180.38 180.242 179.496 
179.304 182.372 181.679 181.54 180.816 180.633 179.866 179.662 183.572 
182.94 182.838 182.131 181.995 181.222 181.046 180.253 180.078 184.685 
184.129 184.115 183.455 183.386 182.633 182.51 181.696 181.531 180.705 
180.522 185.851 185.301 185.362 184.732 184.673 183.987 183.857 183.133 
182.955 182.167 181.946 181.127 180.909 187.057 186.527 186.567 185.952 
185.803 185.154 184.92 184.31 184.075 183.445 183.176 182.466 182.186 
181.448 181.209 187.999 187.606 187.512 187.002 186.707 186.122 185.754 
185.201 184.899 184.383 184.105 183.528 183.218 182.586 182.291 181.652 
181.382 188.48 188.26 188.024 187.669 187.261 186.809 186.359 185.889 
185.532 185.094 184.821 184.348 184.058 183.505 183.192 182.61 182.304 
181.716 181.4 178.361 178.709 178.946 179.736 179.015 179.331 180.199 
180.368 181.116 179.189 179.644 180.662 180.902 181.747 181.792 182.462 
179.288 179.825 181.016 181.399 182.392 182.5 183.211 183.128 183.669 
179.415 179.948 181.178 181.709 182.814 183.114 183.893 183.882 184.365 
184.236 184.693 179.455 180.006 181.11 181.749 182.836 183.37 184.218 
184.441 184.943 184.879 185.261 185.206 185.748 179.347 179.902 180.882 
181.541 182.55 183.207 184.076 184.553 185.14 185.307 185.699 185.717 
186.212 186.298 186.931 179.243 179.746 180.684 181.266 182.215 182.841 
183.679 184.257 184.885 185.292 185.727 185.968 186.421 186.647 187.233 
187.43 187.95 179.187 179.663 180.556 181.074 181.93 182.488 183.243 
183.807 184.408 184.908 185.351 185.765 186.177 186.592 187.101 187.515 
188.01 188.246 188.516 177.517 176.267 177.202 177.811 174.948 175.901 
176.485 177.46 178.043 173.621 174.566 175.108 176.074 176.576 177.57 
178.088 172.233 173.21 173.748 174.7 175.153 176.063 176.49 177.521 
178.085 170.717 171.738 172.288 173.321 173.836 174.716 175.143 176.007 
176.555 177.602 178.271 169.206 170.168 170.679 171.778 172.38 173.405 
173.952 174.81 175.384 176.264 176.933 177.893 178.486 167.89 168.715 
169.157 170.159 170.747 171.869 172.521 173.579 174.222 175.169 175.796 
176.68 177.214 178.06 178.475 166.795 167.504 167.914 168.741 169.262 
170.266 170.914 172.047 172.741 173.858 174.475 175.467 175.93 176.793 
177.148 177.983 178.354 165.88 166.503 166.914 167.615 168.096 168.916 
169.506 170.501 171.186 172.293 172.93 173.995 174.457 175.4 175.73 
176.615 176.962 177.865 178.279 165.545 165.423 165.841 166.587 165.383 
165.781 166.575 166.964 167.771 165.507 165.828 166.67 167.018 167.879 
168.243 169.158 165.86 166.077 166.933 167.204 168.109 168.435 169.404 
169.763 170.796 166.315 166.498 167.329 167.547 168.445 168.737 169.716 
170.057 171.066 171.446 172.472 166.742 166.928 167.719 167.936 168.791 
169.082 170.026 170.368 171.312 171.67 172.587 173.01 173.93 167.19 
167.342 168.103 168.294 169.098 169.377 170.274 170.632 171.543 171.882 
172.731 173.08 173.932 174.359 175.217 167.697 167.817 168.572 168.707 
169.466 169.666 170.498 170.827 171.731 172.09 172.961 173.263 174.114 
174.434 175.326 175.681 176.541 168.217 168.338 169.103 169.218 169.957 
170.072 170.826 171.052 171.912 172.263 173.171 173.511 174.392 174.693 
175.594 175.907 176.821 177.101 177.935 168.767 169.984 169.474 169.69 
171.308 170.752 170.952 170.4 170.554 172.751 172.128 172.328 171.708 
171.849 171.247 171.405 174.388 173.674 173.908 173.184 173.363 172.648 
172.835 172.195 172.476 176.1 175.387 175.642 174.876 175.094 174.304 
174.531 173.777 174.068 173.408 173.752 177.663 177.048 177.293 176.599 
176.814 176.076 176.311 175.556 175.827 175.094 175.402 174.721 175.021 
179.034 178.515 178.773 178.165 178.389 177.732 177.987 177.305 177.575 
176.852 177.127 176.41 176.707 175.999 176.271 180.237 179.812 180.109 
179.589 179.855 179.262 179.554 178.937 179.234 178.554 178.804 178.099 
178.374 177.7 178.001 177.282 177.518 181.247 180.929 181.245 180.851 
181.134 180.658 180.947 180.436 180.728 180.144 180.352 179.692 179.88 
179.268 179.54 178.948 179.197 178.488 178.624 179.412 180.016 180.095 
180.763 180.336 180.562 181.277 181.399 182.048 180.648 180.831 181.555 
181.774 182.481 182.632 183.269 181.135 181.241 181.962 182.093 182.838 
183.007 183.698 183.808 184.383 181.519 181.717 182.425 182.564 183.281 
183.424 184.114 184.219 184.783 184.837 185.305 181.694 181.973 182.642 
182.896 183.547 183.793 184.422 184.599 185.121 185.2 185.658 185.709 
186.167 181.827 182.098 182.741 183.007 183.632 183.919 184.529 184.786 
185.312 185.469 185.948 186.057 186.594 186.652 187.17 181.895 182.194 
182.822 183.099 183.729 183.997 184.627 184.873 185.437 185.62 186.131 
186.302 186.866 187.049 187.627 187.691 188.115 181.85 182.181 182.773 
183.115 183.718 184.055 184.657 184.961 185.509 185.739 186.219 186.428 
186.928 187.195 187.716 187.965 188.355 188.442 188.606 157.979 158.472 
158.031 157.805 159.212 158.674 158.44 158.012 157.959 160.142 159.522 
159.269 158.724 158.541 158.203 158.271 161.206 160.517 160.263 159.636 
159.43 158.88 158.809 158.538 158.785 162.418 161.646 161.412 160.718 
160.592 159.931 159.885 159.313 159.499 159.242 159.768 163.79 162.97 
162.78 161.993 161.935 161.229 161.273 160.591 160.76 160.241 160.697 
160.481 161.175 165.154 164.409 164.298 163.488 163.468 162.703 162.802 
162.079 162.248 161.612 161.955 161.559 162.127 161.958 162.596 166.381 
165.753 165.729 165.018 165.046 164.306 164.43 163.691 163.869 163.151 
163.413 162.854 163.286 162.955 163.487 163.297 163.81 167.541 166.967 
167.002 166.393 166.46 165.824 165.955 165.301 165.475 164.783 164.984 
164.333 164.638 164.15 164.573 164.242 164.694 164.452 164.885 157.72 
157.509 157.477 157.457 157.78 157.538 157.521 157.473 157.8 158.296 
158.05 158.197 157.909 158.218 158.157 158.778 158.906 158.684 159.023 
158.782 159.135 158.859 159.33 159.309 159.999 159.855 159.451 159.821 
159.615 160.045 159.806 160.186 159.986 160.507 160.54 161.212 161.226 
160.62 160.912 160.518 160.943 160.676 161.092 160.842 161.306 161.17 
161.799 161.807 162.49 162.622 162.035 162.267 161.75 162.11 161.697 
162.124 161.787 162.263 162.032 162.629 162.53 163.203 163.154 163.784 
163.792 163.305 163.502 163.051 163.362 162.938 163.318 162.918 163.341 
163.023 163.529 163.365 163.951 163.887 164.461 164.407 164.936 164.83 
164.379 164.549 164.159 164.441 164.095 164.444 164.092 164.462 164.111 
164.517 164.252 164.724 164.587 165.087 165.025 165.507 165.472 165.953 
158.02 157.783 158.102 158.717 158.101 158.099 158.707 159.006 159.712 
159.029 158.709 159.199 159.199 159.851 160.065 160.7 160.225 159.786 
160.128 159.861 160.341 160.331 160.943 161.099 161.745 161.399 160.953 
161.23 160.844 161.205 160.969 161.56 161.544 162.321 162.367 163.17 
162.59 162.094 162.362 161.943 162.339 161.987 162.625 162.434 163.329 
163.232 164.171 164.063 165.001 163.831 163.301 163.551 163.107 163.555 
163.205 163.88 163.653 164.539 164.406 165.336 165.198 166.099 166.011 
166.993 165.006 164.523 164.772 164.33 164.76 164.428 165.041 164.843 
165.586 165.509 166.297 166.256 167.04 167.023 167.882 167.941 168.862 
166.071 165.66 165.938 165.532 165.928 165.597 166.117 165.892 166.494 
166.385 167.056 167.044 167.779 167.817 168.623 168.706 169.551 169.648 
170.411 177.069 175.999 176.302 175.814 174.883 175.199 174.677 174.99 
174.49 173.643 174.015 173.464 173.811 173.271 173.637 173.15 172.286 
172.684 172.092 172.501 171.94 172.363 171.843 172.264 171.758 170.957 
171.314 170.709 171.089 170.52 170.962 170.453 170.911 170.388 170.814 
170.269 169.678 170.012 169.428 169.767 169.206 169.578 169.065 169.497 
168.993 169.426 168.888 169.305 168.791 168.433 168.737 168.148 168.505 
167.958 168.32 167.79 168.163 167.65 168.049 167.541 167.948 167.461 
167.888 167.478 167.362 167.56 166.968 167.253 166.717 167.066 166.556 
166.918 166.423 166.781 166.308 166.669 166.224 166.61 166.223 166.665 
166.368 166.537 166.632 166.084 166.222 165.708 165.918 165.434 165.723 
165.278 165.614 165.204 165.539 165.149 165.473 165.115 165.48 165.195 
165.642 165.446 
POINT_DATA 1002
SCALARS Distance double
LOOKUP_TABLE default
169.227 168.093 167.946 169.172 167.953 170.515 169.28 168.121 170.563 
171.881 169.517 168.352 170.75 172.057 173.401 169.811 168.62 171.08 
172.396 173.752 175.115 170.22 169.006 171.543 172.904 174.244 175.562 
176.788 170.77 169.548 172.115 173.462 174.785 176.054 177.222 178.243 
171.356 170.19 172.694 173.992 175.254 176.534 177.695 178.67 179.517 
171.917 170.833 173.221 174.529 175.736 176.973 178.177 179.146 179.918 
180.619 172.471 171.43 173.718 175.047 176.278 177.424 178.551 179.546 
180.313 180.942 181.532 166.954 166.801 165.82 165.643 164.574 166.789 
164.373 163.209 165.54 166.91 163.07 161.929 164.231 165.583 167.13 
161.826 160.797 162.97 164.263 165.826 167.444 160.628 159.772 161.732 
163.024 164.544 166.236 167.91 159.658 158.929 160.656 161.93 163.383 
165.039 166.842 168.587 159.072 158.33 160.014 161.204 162.52 163.966 
165.739 167.662 169.371 158.807 158.005 159.767 160.87 162.033 163.199 
164.674 166.599 168.519 170.089 158.503 159.481 159.398 160.354 160.37 
160.548 161.171 161.278 161.324 161.649 162.046 162.395 162.051 162.329 
162.707 163.331 163.973 163.088 163.185 163.46 163.937 165.234 165.956 
164.762 164.643 164.741 165.067 165.75 167.516 168.021 166.989 166.684 
166.634 166.747 167.17 167.87 169.519 169.767 169.14 168.813 168.704 
168.703 168.812 169.191 169.694 170.926 171.091 170.702 170.518 170.503 
170.549 170.524 170.597 170.869 171.182 172.728 172.563 174.314 172.347 
174.233 175.885 172.192 173.973 175.701 176.975 172.213 173.728 175.169 
176.537 177.748 172.215 173.763 174.828 175.869 177.295 178.777 172.049 
173.83 175.103 175.767 176.911 178.606 180.014 171.921 173.649 175.428 
176.335 177.069 178.549 180.081 181.06 171.988 173.454 175.362 176.751 
177.472 178.602 180.085 181.129 181.816 172.172 173.479 175.21 176.769 
177.652 178.588 179.962 181.066 181.7 182.336 173.963 175.594 175.307 
176.949 176.811 176.635 177.927 177.976 178.018 177.837 178.982 179.097 
179.168 179.118 178.896 180.156 180.333 180.404 180.253 180.049 179.87 
181.144 181.313 181.503 181.444 181.179 180.97 180.734 182.028 182.186 
182.33 182.412 182.324 182.114 181.831 181.43 182.846 183.222 183.325 
183.28 183.229 183.128 182.884 182.486 182.009 183.179 183.989 184.084 
184.874 184.642 184.427 185.128 185.028 185.191 184.374 185.449 185.909 
185.478 185.093 184.134 186.457 187.073 186.029 185.598 184.795 183.935 
187.516 187.804 186.944 186.249 185.374 184.485 183.722 188.116 188.181 
187.653 186.915 186.037 185.1 184.228 183.385 188.483 188.528 188.043 
187.315 186.541 185.741 184.834 183.879 182.927 188.658 188.692 188.212 
187.451 186.685 186.021 185.26 184.336 183.368 182.427 182.221 182.911 
182.182 182.822 182.483 183.768 183.13 182.898 183.826 184.601 183.434 
183.015 184.097 185.009 185.56 183.5 182.868 184.1 185.114 186.121 
186.684 183.436 182.581 184.025 184.779 185.88 186.836 187.414 183.134 
182.121 183.93 184.577 185.358 186.268 187.061 187.691 182.584 181.581 
183.516 184.325 185.028 185.715 186.47 187.272 188.016 182.002 181.078 
182.891 183.77 184.576 185.251 185.952 186.806 187.68 188.363 171.996 
173.315 173.137 174.706 174.393 174.936 176.029 175.582 176.408 176.602 
177.159 176.75 177.549 177.699 177.682 178.247 177.877 178.511 178.628 
178.613 178.589 179.251 178.797 179.523 179.695 179.885 179.984 179.982 
180.09 179.581 180.502 180.813 181.192 181.466 181.387 181.181 180.869 
180.364 181.376 181.792 182.167 182.45 182.334 181.945 181.727 170.378 
171.359 169.475 170.538 168.552 172.579 169.619 167.732 171.906 173.892 
168.752 167.093 171.094 173.396 175.173 168.117 166.668 170.213 172.727 
174.813 176.423 167.732 166.395 169.467 171.825 174.223 176.054 177.507 
167.521 166.28 169.004 170.98 173.36 175.482 177.07 178.395 167.463 
166.327 168.824 170.489 172.56 174.722 176.526 177.984 179.259 167.49 