# vtk DataFile Version 4.0
vtk output
ASCII
DATASET POLYDATA
POINTS 1002 float
-119.733 -111.283 55.7312 -119.351 -110.261 54.6556 -118.775 -110.497 54.9904 
-119.158 -111.708 56.0584 -118.238 -110.802 55.4897 -120.047 -112.463 56.9477 
-118.617 -112.169 56.6104 -117.833 -111.182 56.1886 -119.483 -113.048 57.331 
-120.283 -113.729 58.3097 -118.232 -112.585 57.4415 -117.496 -111.613 56.9721 
-118.942 -113.625 57.945 -119.752 -114.361 58.8699 -120.526 -115.048 59.9321 
-117.903 -113.015 58.357 -117.097 -112.175 57.7038 -118.509 -114.127 58.8307 
-119.228 -115.011 59.6141 -120.013 -115.688 60.74 -120.699 -116.481 61.7321 
-117.475 -113.679 59.1905 -116.632 -112.954 58.4522 -118.094 -114.675 59.8445 
-118.745 -115.661 60.6157 -119.496 -116.442 61.6716 -120.105 -117.263 62.6297 
-120.591 -118.162 63.275 -116.97 -114.574 60.0189 -116.163 -113.851 59.2413 
-117.638 -115.422 60.8588 -118.228 -116.378 61.7556 -118.91 -117.288 62.72 
-119.478 -118.185 63.5539 -119.864 -119.13 64.0846 -120.252 -120.011 64.4553 
-116.457 -115.489 60.871 -115.751 -114.723 60.0053 -117.139 -116.315 61.8261 
-117.652 -117.241 62.8071 -118.147 -118.226 63.6794 -118.671 -119.194 64.3704 
-119.086 -120.106 64.8847 -119.466 -120.943 65.2644 -119.887 -121.662 65.5924 
-115.979 -116.345 61.7324 -115.448 -115.55 60.8249 -116.558 -117.228 62.7117 
-117.003 -118.216 63.6726 -117.296 -119.244 64.4552 -117.678 -120.215 65.0316 
-118.163 -121.052 65.5659 -118.633 -121.761 66.0769 -119.092 -122.391 66.4588 
-119.542 -122.922 66.7268 -115.555 -117.188 62.6305 -115.218 -116.385 61.7547 
-115.933 -118.082 63.5584 -116.274 -119.117 64.4314 -116.474 -120.189 65.138 
-116.716 -121.127 65.6799 -117.19 -121.872 66.2272 -117.751 -122.475 66.8286 
-118.249 -123.016 67.2943 -118.716 -123.511 67.5408 -119.185 -123.913 67.6801 
-118.586 -109.442 53.9069 -118.004 -109.563 54.3755 -117.855 -108.579 53.3041 
-117.333 -108.608 53.8517 -117.205 -107.596 52.7749 -117.517 -109.829 54.9637 
-116.702 -107.555 53.3967 -116.51 -106.484 52.3693 -116.805 -108.897 54.45 
-117.04 -110.315 55.5889 -115.973 -106.473 53.1748 -115.706 -105.51 52.2325 
-116.048 -107.85 54.1183 -116.083 -109.53 54.9698 -116.498 -110.936 56.1896 
-115.141 -105.61 53.1508 -114.869 -104.701 52.2805 -115.288 -106.776 54.0655 
-115.229 -108.515 54.7349 -115.403 -110.242 55.5559 -116.021 -111.599 56.9294 
-114.236 -104.862 53.0908 -114.057 -103.811 52.3755 -114.476 -105.956 53.9757 
-114.59 -107.448 54.7488 -114.666 -109.22 55.4423 -115.057 -110.841 56.4691 
-115.66 -112.349 57.836 -113.374 -104.137 53.1121 -113.351 -103.02 52.6218 
-113.568 -105.355 53.8628 -113.843 -106.731 54.6813 -114.047 -108.281 55.4776 
-114.322 -109.909 56.3365 -114.799 -111.572 57.3886 -115.318 -113.222 58.6341 
-112.749 -103.67 53.4715 -112.841 -102.624 53.1473 -112.812 -104.912 54.0995 
-113.028 -106.282 54.8234 -113.237 -107.718 55.5512 -113.445 -109.23 56.2795 
-113.863 -110.846 57.0603 -114.467 -112.525 58.0655 -115.037 -114.124 59.3672 
-112.385 -103.487 54.1763 -112.514 -102.532 53.9355 -112.369 -104.641 54.7063 
-112.475 -105.91 55.3382 -112.577 -107.259 55.9279 -112.632 -108.724 56.4557 
-112.887 -110.273 56.9739 -113.508 -111.855 57.7053 -114.279 -113.448 58.8494 
-114.891 -114.985 60.2883 -112.182 -103.079 55.102 -112.101 -104.166 55.4616 
-111.903 -103.717 56.6123 -111.872 -104.924 56.8858 -111.695 -104.587 58.1729 
-112.139 -105.387 55.9755 -111.692 -105.927 58.3901 -111.64 -105.775 59.793 
-111.935 -106.189 57.2885 -112.216 -106.659 56.5215 -111.696 -107.121 60.1471 
-111.816 -106.884 61.4965 -111.801 -107.243 58.8173 -112.054 -107.497 57.7744 
-112.233 -108.096 56.986 -112.126 -108.001 61.5003 -112.406 -107.617 62.4527 
-112.024 -108.312 60.3307 -112.226 -108.474 59.0915 -112.319 -108.94 58.0646 
-112.358 -109.689 57.3303 -113.15 -108.749 61.652 -113.562 -108.517 62.1689 
-112.858 -109.157 60.9638 -112.94 -109.413 59.9756 -113.059 -109.727 58.9984 
-112.841 -110.457 58.2943 -112.874 -111.291 57.8387 -114.462 -110.12 61.4393 
-114.924 -110.065 61.6874 -114.061 -110.372 61.1037 -113.973 -110.643 60.4928 
-114.078 -110.856 59.78 -113.849 -111.335 59.3566 -113.521 -112.173 59.1097 
-113.702 -112.958 58.8875 -115.451 -112.038 61.9982 -115.9 -111.951 62.0375 
-115.011 -112.199 61.8857 -114.768 -112.457 61.563 -114.738 -112.71 61.0587 
-114.545 -112.994 60.7371 -114.175 -113.525 60.6776 -114.115 -114.209 60.5645 
-114.45 -114.721 60.3674 -115.89 -113.889 63.1874 -116.323 -113.708 63.0776 
-115.429 -114.084 63.2371 -115.063 -114.38 63.1591 -114.844 -114.747 62.9091 
-114.57 -115.072 62.5993 -114.206 -115.426 62.404 -114.117 -115.88 62.2787 
-114.424 -116.25 62.0933 -114.848 -116.391 61.8857 -115.042 -117.825 63.2796 
-114.549 -118.007 63.4414 -114.493 -119.318 64.783 -113.951 -117.984 63.5997 
-113.773 -119.541 64.8163 -113.688 -120.622 66.1177 -113.553 -117.643 63.8431 
-113.031 -119.408 64.8872 -112.819 -120.767 66.0153 -112.946 -121.87 67.3361 
-113.713 -117.207 64.2196 -112.745 -118.906 65.3087 -112.162 -120.449 66.1512 
-112.103 -122.003 67.3323 -112.402 -123.283 68.6986 -114.22 -116.865 64.552 
-113.157 -118.515 65.8884 -112.176 -119.912 66.7891 -111.666 -121.623 67.7506 
-111.658 -123.345 69.0394 -111.892 -124.528 70.3325 -114.678 -116.483 64.6745 
-113.854 -118.349 66.1122 -112.795 -119.749 67.3743 -111.894 -121.135 68.514 
-111.429 -122.863 69.7013 -111.309 -124.394 70.9228 -111.35 -125.39 71.9274 
-115.114 -116.048 64.6565 -114.493 -118.04 66.0155 -113.575 -119.756 67.4602 
-112.55 -121.006 68.9581 -111.794 -122.314 70.3093 -111.364 -123.87 71.5284 
-111.098 -125.175 72.5532 -110.98 -126.16 73.3145 -115.624 -115.713 64.577 
-115.106 -117.596 65.8907 -114.338 -119.469 67.3021 -113.351 -120.927 68.9154 
-112.479 -122.043 70.4354 -111.912 -123.36 71.7901 -111.48 -124.734 73.002 
-111.121 -125.848 73.9796 -110.916 -126.865 74.7353 -116.127 -115.463 64.4316 
-115.7 -117.233 65.7539 -115.066 -119.032 67.1056 -114.197 -120.632 68.6583 
-113.308 -121.852 70.1962 -112.65 -123.039 71.6233 -112.143 -124.317 73.0304 
-111.676 -125.367 74.3094 -111.3 -126.264 75.3749 -111.063 -127.257 76.1996 
-115.232 -118.683 64.2199 -114.605 -120.134 65.7754 -115.454 -119.669 65.112 
-113.89 -121.423 67.1594 -114.777 -121.116 66.5851 -115.639 -120.799 65.8219 
-113.296 -122.838 68.4439 -114.128 -122.467 67.9237 -114.944 -122.253 67.1717 
-115.82 -121.841 66.3955 -112.748 -124.327 69.9054 -113.552 -124.001 69.2859 
-114.31 -123.685 68.5228 -115.243 -123.229 67.7878 -116.249 -122.604 67.0118 
-112.08 -125.436 71.4919 -112.946 -125.361 70.8614 -113.711 -125.173 69.9957 
-114.663 -124.648 69.1924 -115.834 -123.894 68.4965 -116.886 -123.177 67.6865 
-111.401 -126.343 72.8937 -112.26 -126.323 72.4032 -113.178 -126.242 71.6444 
-114.127 -125.936 70.6562 -115.302 -125.244 69.7875 -116.486 -124.437 69.0308 
-117.45 -123.713 68.1868 -110.991 -127.331 74.2728 -111.625 -127.342 73.7619 
-112.651 -127.03 73.1915 -113.74 -126.724 72.2887 -114.845 -126.344 71.1405 
-115.979 -125.715 70.1245 -117.022 -124.967 69.2587 -117.932 -124.224 68.3995 
-110.92 -128.083 75.8168 -111.252 -128.382 75.1718 -112.156 -127.958 74.5273 
-113.352 -127.339 73.7883 -114.512 -126.992 72.6848 -115.581 -126.673 71.412 
-116.607 -126.114 70.2957 -117.583 -125.396 69.3379 -118.458 -124.64 68.473 
-111.125 -127.969 77.4024 -111.11 -128.853 76.8287 -111.368 -128.345 78.021 
-111.671 -128.978 77.1187 -112.132 -128.177 77.6312 -111.709 -128.888 75.927 
-112.92 -128.639 76.6193 -113.686 -127.911 76.8929 -112.666 -128.827 76.0715 
-112.87 -128.178 75.0729 -114.753 -128.586 76.2437 -115.602 -127.991 76.7207 
-114.177 -128.845 75.797 -113.94 -128.351 75.1202 -114.15 -127.579 74.0874 
-116.512 -128.639 76.1445 -117.187 -127.923 76.5409 -115.903 -129.174 75.5659 
-115.29 -128.835 74.799 -115.078 -127.993 73.9317 -115.3 -127.296 72.7817 
-117.95 -128.197 75.3845 -118.53 -127.54 75.6095 -117.504 -128.991 75.0094 
-116.862 -129.016 74.2947 -116.295 -128.261 73.4858 -116.237 -127.501 72.6208 
-116.422 -126.886 71.4551 -119.41 -127.908 74.2248 -120.016 -127.504 74.6079 
-119.015 -128.485 74.0079 -118.537 -128.581 73.6489 -117.901 -127.993 73.0377 
-117.556 -127.347 72.341 -117.534 -126.871 71.3974 -117.537 -126.254 70.2618 
-120.921 -128.206 73.58 -121.477 -127.781 74.1231 -120.469 -128.562 73.2814 
-120.052 -128.424 73.1047 -119.508 -127.741 72.6898 -119.044 -127.112 72.0151 
-118.839 -126.738 71.1682 -118.684 -126.252 70.1485 -118.518 -125.505 69.1934 
-122.184 -128.363 73.3037 -122.583 -127.726 73.7922 -121.738 -128.824 72.9343 
-121.289 -128.695 72.6963 -120.786 -127.947 72.2902 -120.297 -127.2 71.5563 
-119.987 -126.756 70.6934 -119.766 -126.254 69.8366 -119.508 -125.519 69.0134 
-119.293 -124.705 68.2985 -111.463 -126.674 76.9563 -111.589 -127.153 78.0543 
-112.07 -126.095 77.0798 -112.444 -126.459 77.9528 -112.995 -125.819 76.6719 
-111.994 -127.388 78.3937 -113.697 -126.068 77.5514 -114.181 -125.571 76.1642 
-113.225 -126.639 78.3343 -113.073 -127.286 77.8962 -114.903 -125.484 77.1916 
-115.279 -125.064 75.4923 -114.687 -126.018 78.2817 -114.616 -126.665 78.2674 
-114.903 -127.338 77.4211 -115.815 -124.742 76.3481 -116.265 -124.575 74.3275 
-115.695 -125.137 77.8791 -115.976 -125.993 78.4352 -116.397 -126.986 78.0397 
-116.771 -127.619 77.303 -116.906 -124.397 74.7968 -117.371 -124.174 72.9586 
-116.568 -124.503 76.5763 -116.781 -125.096 77.6706 -117.438 -126.273 77.9197 
-117.966 -127.258 77.5346 -118.209 -127.515 76.7302 -118.215 -124.153 73.2078 
-118.418 -123.502 71.899 -117.897 -124.422 74.8107 -117.795 -124.589 76.2011 
-118.205 -125.209 76.9564 -118.849 -126.272 77.062 -119.304 -127.039 76.6232 
-119.61 -127.258 75.7099 -119.216 -123.42 72.1061 -119.177 -122.542 71.1943 
-119.176 -124.096 73.3028 -119.102 -124.392 74.6686 -119.24 -124.524 75.7435 
-119.681 -125.032 76.2232 -120.234 -125.999 76.2034 -120.715 -126.833 75.7771 
-121.112 -127.313 74.9951 -119.831 -122.347 71.4041 -119.749 -121.594 70.5986 
-119.936 -123.107 72.2845 -120.034 -123.716 73.3618 -120.21 -124.042 74.4677 
[...]
CELL_DATA 2000
SCALARS Distance double
LOOKUP_TABLE default
170.809 170.752 171.226 172.153 170.847 171.251 172.222 172.65 173.591 
171.108 171.445 172.42 172.794 173.777 174.145 175.105 171.444 171.761 
172.744 173.067 174.062 174.399 175.404 175.742 176.74 171.846 172.136 
173.147 173.437 174.459 174.762 175.812 176.117 177.151 177.436 178.398 
172.352 172.603 173.643 173.897 174.95 175.222 176.308 176.595 177.652 
177.903 178.855 179.065 179.914 172.905 173.145 174.202 174.449 175.51 
175.757 176.816 177.095 178.12 178.39 179.305 179.52 180.328 180.513 
181.256 173.486 173.701 174.748 175.008 176.059 176.314 177.307 177.561 
178.49 178.769 179.624 179.89 180.655 180.879 181.577 181.769 182.401 
174.138 174.294 175.284 175.522 176.522 176.799 177.728 177.981 178.808 
179.062 179.839 180.121 180.859 181.127 181.794 182.02 182.606 182.795 
183.303 169.954 168.658 169.462 169.843 167.405 168.182 168.549 169.406 
169.911 166.125 166.928 167.292 168.137 168.624 169.541 170.141 164.848 
165.64 166.011 166.86 167.311 168.23 168.79 169.783 170.432 163.695 
164.426 164.795 165.589 166.023 166.897 167.423 168.396 169.047 170.089 
170.811 162.588 163.306 163.665 164.424 164.863 165.669 166.204 167.083 
167.74 168.73 169.5 170.539 171.324 161.56 162.209 162.586 163.323 
163.807 164.588 165.155 165.965 166.613 167.508 168.268 169.27 170.093 
171.108 171.896 160.903 161.345 161.785 162.377 162.945 163.636 164.256 
164.993 165.621 166.431 167.125 168.066 168.865 169.89 170.729 171.72 
172.513 160.704 160.949 161.442 161.836 162.46 162.976 163.632 164.22 
164.842 165.506 166.143 166.952 167.702 168.674 169.542 170.571 171.463 
172.413 173.231 160.866 161.503 161.289 161.62 162.341 162.03 162.367 
162.173 162.618 163.446 162.973 163.267 162.973 163.382 163.222 163.72 
164.833 164.225 164.46 163.975 164.323 164.024 164.469 164.324 164.859 
166.176 165.628 165.839 165.28 165.565 165.093 165.489 165.164 165.658 
165.497 166.118 167.407 166.893 167.143 166.637 166.94 166.427 166.808 
166.342 166.818 166.46 167.073 166.892 167.667 168.965 168.28 168.663 
168.039 168.493 167.9 168.4 167.821 168.37 167.833 168.484 168.081 
168.891 168.657 169.56 170.915 170.126 170.63 169.852 170.442 169.706 
170.36 169.647 170.315 169.617 170.328 169.73 170.562 170.124 171.037 
170.707 171.58 172.824 172.138 172.641 171.922 172.485 171.783 172.425 
171.737 172.39 171.68 172.32 171.664 172.389 171.883 172.707 172.299 
173.098 172.709 173.409 174.424 174.213 174.839 175.762 173.87 174.577 
175.499 176.057 176.785 173.544 174.201 175.071 175.662 176.341 176.906 
177.567 173.485 173.985 174.799 175.227 175.845 176.368 177.062 177.697 
178.517 173.61 174.067 174.928 175.16 175.756 176.013 176.705 177.231 
178.148 178.799 179.714 173.665 174.197 175.172 175.446 176.136 176.214 
176.868 177.102 177.985 178.506 179.471 180.028 180.807 173.685 174.223 
175.256 175.672 176.51 176.7 177.378 177.469 178.214 178.497 179.399 
179.853 180.686 181.083 181.736 173.793 174.273 175.3 175.745 176.663 
177.012 177.779 177.956 178.622 178.79 179.558 179.885 180.725 181.073 
181.801 182.067 182.71 173.928 174.393 175.398 175.823 176.748 177.143 
177.971 178.259 178.945 179.13 179.812 180.071 180.858 181.185 181.929 
182.197 182.829 183.076 183.688 174.844 176.154 175.651 175.936 177.214 
176.878 177.204 176.764 177.112 178.084 177.851 178.251 177.939 178.316 
177.928 178.267 179.096 178.793 179.25 178.942 179.354 179.039 179.401 
179.017 179.305 180.274 179.939 180.416 180.03 180.445 180.076 180.466 
180.106 180.443 180.026 180.306 181.277 181.058 181.533 181.226 181.629 
181.233 181.6 181.202 181.566 181.168 181.492 181.047 181.318 182.11 
181.927 182.389 182.213 182.642 182.366 182.714 182.345 182.665 182.286 
182.6 182.206 182.469 182.026 182.234 183.063 182.795 183.256 183.032 
183.482 183.268 183.647 183.37 183.671 183.337 183.604 183.247 183.48 
183.097 183.277 182.857 183.004 184.089 183.83 184.305 183.999 184.411 
184.118 184.47 184.214 184.519 184.253 184.508 184.193 184.4 184.043 
184.21 183.827 183.961 183.557 183.667 184.748 185.663 185.21 185.025 
186.123 185.964 185.869 185.383 185.074 186.435 186.306 186.349 186.069 
185.848 185.338 185.028 187.277 186.867 187.03 186.641 186.579 186.065 
185.814 185.286 185.034 188.304 187.916 188.09 187.615 187.588 186.942 
186.682 186.069 185.798 185.291 185.031 188.752 188.653 188.756 188.58 
188.493 187.975 187.574 186.928 186.534 186.018 185.723 185.243 184.928 
189.076 188.903 189.006 188.957 188.938 188.649 188.249 187.691 187.203 
186.693 186.366 185.912 185.6 185.095 184.735 189.856 189.462 189.623 
189.341 189.447 189.094 188.86 188.304 187.869 187.327 187.002 186.552 
186.264 185.767 185.39 184.863 184.472 190.61 190.338 190.474 190.153 
190.228 189.804 189.607 189.016 188.596 188.006 187.633 187.172 186.858 
186.401 186 185.486 185.04 184.552 184.151 184.691 184.747 185.029 
185.539 184.822 185.033 185.495 185.718 186.001 185.115 185.21 185.672 
185.745 186.051 186.083 186.334 185.317 185.5 185.996 186.073 186.493 
186.398 186.769 186.673 187.184 185.182 185.492 185.921 186.241 186.747 
186.922 187.455 187.397 187.919 187.803 188.283 185.023 185.277 185.628 
185.962 186.422 186.887 187.505 187.898 188.467 188.546 188.86 188.714 
188.832 184.93 185.19 185.601 185.783 186.201 186.506 187.055 187.589 
188.197 188.681 189.064 189.163 189.26 189.075 189.168 184.631 185.043 
185.518 185.815 186.248 186.451 186.881 187.181 187.678 188.16 188.659 
189.078 189.422 189.505 189.73 189.578 189.881 184.134 184.615 185.042 
185.533 185.936 186.354 186.715 187.039 187.392 187.732 188.157 188.603 
189.093 189.494 189.903 190.057 190.343 190.318 190.566 174.333 175.459 
175.209 175.809 176.679 176.371 176.965 176.652 177.166 177.941 177.604 
178.162 177.831 178.328 177.976 178.386 179.163 178.83 179.346 179.016 
179.493 179.136 179.515 179.117 179.388 180.346 180.019 180.524 180.185 
180.663 180.302 180.706 180.276 180.574 180.083 180.322 181.447 181.173 
181.677 181.355 181.831 181.479 181.916 181.504 181.861 181.36 181.65 
181.102 181.379 182.34 182.178 182.67 182.443 182.898 182.608 183.026 
182.686 183.038 182.624 182.886 182.413 182.638 182.152 182.376 183.043 
182.959 183.446 183.32 183.754 183.559 183.938 183.695 184.02 183.702 
183.915 183.513 183.653 183.251 183.418 183.028 183.214 183.656 183.61 
184.103 184.024 184.438 184.295 184.618 184.457 184.766 184.572 184.813 
184.473 184.592 184.174 184.309 183.955 184.181 183.83 184.058 173.504 
172.574 173.569 174.647 171.778 172.684 173.837 174.806 175.924 171.195 
171.986 173.129 174.074 175.316 176.198 177.289 170.615 171.415 172.532 
173.455 174.74 175.656 176.855 177.606 178.59 169.963 170.785 171.928 
172.875 174.172 175.115 176.349 177.173 178.233 178.9 179.8 169.436 
170.166 171.32 172.261 173.579 174.544 175.788 176.651 177.753 178.512 
179.488 180.108 180.929 169.128 169.718 170.786 171.659 172.961 173.94 
175.21 176.093 177.219 178.017 179.048 179.759 180.639 181.187 181.868 
168.997 169.458 170.406 171.145 172.377 173.32 174.614 175.525 176.674 
177.485 178.519 179.284 180.207 180.85 181.574 182.043 182.6 169.007 
169.368 170.244 170.822 171.964 172.779 174.054 174.946 176.113 176.931 
177.93 178.707 179.618 180.352 181.135 181.713 182.315 182.732 183.222 
169.302 170.303 170.023 170.604 171.533 171.197 171.865 171.552 172.333 
172.866 172.518 173.236 172.919 173.732 173.459 174.364 174.287 173.907 
174.634 174.31 175.118 174.855 175.714 175.495 176.353 175.786 175.397 
176.149 175.767 176.554 176.229 177.022 176.77 177.549 177.351 178.111 
177.205 176.886 177.655 177.307 178.065 177.693 178.409 178.063 178.762 
178.5 179.229 179.038 179.767 178.476 178.22 178.942 178.697 179.398 
179.114 179.763 179.429 180.064 179.742 180.431 180.179 180.896 180.674 
181.307 179.65 179.412 180.07 179.857 180.5 180.287 180.906 180.666 
181.285 181.016 181.661 181.397 182.042 181.792 182.352 182.089 182.518 
180.734 180.522 181.145 180.931 181.547 181.329 181.943 181.733 182.358 
182.15 182.752 182.531 183.06 182.834 183.273 183.04 183.391 183.132 
183.419 181.507 182.841 182.096 181.946 184.259 183.48 183.338 182.548 
182.363 185.74 184.93 184.791 183.978 183.8 182.974 182.771 187.192 
186.4 186.22 185.422 185.248 184.438 184.242 183.402 183.199 188.362 
187.729 187.493 186.777 186.559 185.827 185.607 184.832 184.574 183.781 
183.542 189.138 188.707 188.504 187.922 187.683 187.035 186.763 186.067 
185.714 184.996 184.645 183.984 183.724 189.784 189.435 189.354 188.854 
188.642 188.053 187.761 187.12 186.734 186.025 185.598 184.936 184.615 
184.063 183.838 190.4 190.125 190.106 189.685 189.45 188.908 188.545 
187.989 187.615 187.003 186.617 185.922 185.588 184.943 184.709 184.155 
183.94 190.694 190.593 190.49 190.278 189.977 189.57 189.095 188.613 
188.166 187.724 187.376 186.881 186.572 185.974 185.698 185.078 184.824 
184.24 183.977 181.486 181.872 182.064 182.829 182.233 182.492 183.328 
183.473 184.264 182.492 182.883 183.833 184.02 184.872 184.971 185.777 
182.629 183.154 184.265 184.554 185.481 185.612 186.481 186.547 187.304 
182.732 183.312 184.557 184.985 186.013 186.22 187.121 187.252 188.046 
188.031 188.553 182.81 183.401 184.64 185.216 186.308 186.678 187.59 
187.827 188.605 188.693 189.175 189.049 189.289 182.76 183.361 184.463 
185.15 186.201 186.782 187.663 188.102 188.828 189.094 189.537 189.53 
189.706 189.591 189.789 182.563 183.154 184.107 184.815 185.772 186.47 
187.288 187.9 188.56 189.05 189.488 189.709 189.899 189.903 190.074 
190.076 190.346 182.291 182.85 183.696 184.362 185.236 185.938 186.708 
187.36 187.967 188.555 188.997 189.44 189.716 189.953 190.176 190.293 
190.544 190.595 190.75 180.697 179.511 180.425 181.022 178.069 179.113 
179.689 180.683 181.275 176.376 177.508 178.039 179.175 179.707 180.812 
181.38 174.647 175.719 176.188 177.375 177.886 179.081 179.598 180.792 
181.379 173.112 174.045 174.455 175.526 176.043 177.216 177.771 178.959 
179.555 180.781 181.45 171.709 172.594 173.014 173.943 174.445 175.474 
176.054 177.179 177.829 179.018 179.735 180.941 181.632 170.319 171.204 
171.672 172.598 173.128 174.046 174.583 175.561 176.178 177.322 178.073 
179.297 180.039 181.168 181.745 169.06 169.852 170.318 171.254 171.841 
172.79 173.351 174.226 174.761 175.735 176.425 177.619 178.407 179.603 
180.24 181.253 181.678 168.07 168.718 169.155 169.963 170.545 171.488 
172.113 173.027 173.579 174.438 175.026 176.039 176.781 177.955 178.661 
179.75 180.24 181.154 181.482 167.738 167.738 168.073 168.842 167.846 
168.165 168.936 169.278 170.173 167.9 168.272 169.05 169.395 170.267 
170.704 171.701 167.973 168.324 169.143 169.498 170.375 170.8 171.804 
172.268 173.232 168.264 168.498 169.359 169.654 170.567 170.933 171.955 
172.4 173.44 173.806 174.742 168.752 168.899 169.755 169.982 170.91 
171.201 172.215 172.603 173.692 174.084 175.138 175.43 176.456 169.309 
169.423 170.247 170.433 171.344 171.595 172.587 172.916 173.991 174.378 
175.478 175.845 176.913 177.231 178.263 169.903 169.997 170.806 170.943 
171.82 172.036 173.007 173.307 174.36 174.714 175.792 176.168 177.217 
177.595 178.581 178.931 179.819 170.526 170.614 171.42 171.519 172.346 
172.51 173.428 173.71 174.737 175.087 176.135 176.486 177.487 177.842 
178.781 179.142 179.995 180.322 181.071 171.158 172.474 171.896 172.07 
173.872 173.253 173.414 172.811 172.987 175.391 174.713 174.906 174.226 
174.437 173.802 174.078 177.051 176.338 176.603 175.849 176.119 175.386 
175.722 175.05 175.427 178.682 178.03 178.338 177.623 177.919 177.169 
177.507 176.792 177.176 176.483 176.841 180.165 179.6 179.911 179.3 
179.597 178.932 179.233 178.558 178.898 178.229 178.562 177.866 178.162 
181.511 181.019 181.345 180.802 181.12 180.526 180.831 180.203 180.516 
179.885 180.203 179.548 179.833 179.142 179.406 182.658 182.281 182.615 
182.171 182.505 181.996 182.318 181.746 182.042 181.439 181.729 181.124 
181.406 180.769 181.014 180.342 180.571 183.552 183.301 183.623 183.314 
183.637 183.271 183.593 183.148 183.425 182.891 183.124 182.566 182.812 
182.256 182.498 181.893 182.09 181.44 181.613 182.376 182.895 183.007 
183.769 183.304 183.503 184.306 184.46 185.261 183.595 183.844 184.665 
184.927 185.755 185.934 186.68 183.904 184.129 184.947 185.234 186.088 
186.346 187.095 187.249 187.884 184.194 184.439 185.227 185.511 186.339 
186.629 187.365 187.573 188.167 188.325 188.849 184.303 184.627 185.349 
185.703 186.449 186.801 187.483 187.757 188.333 188.535 189.053 189.21 
189.634 184.277 184.622 185.278 185.681 186.361 186.774 187.406 187.764 
188.353 188.648 189.244 189.446 189.964 189.994 190.299 184.208 184.541 
185.148 185.541 186.179 186.596 187.182 187.579 188.136 188.553 189.173 
189.568 190.145 190.337 190.684 190.617 190.744 184.088 184.423 184.974 
185.367 185.947 186.366 186.877 187.276 187.718 188.183 188.688 189.262 
189.761 190.249 190.519 190.762 190.792 190.842 190.796 160.369 160.56 
160.27 160.042 161.202 160.644 160.312 160 159.853 162.212 161.475 
161.051 160.446 160.184 159.903 159.984 163.34 162.576 162.176 161.388 
161.102 160.504 160.57 160.332 160.782 164.562 163.785 163.535 162.691 
162.526 161.725 161.823 161.267 161.686 161.44 162.049 165.916 165.146 
165.05 164.217 164.193 163.345 163.468 162.746 163.071 162.567 163.026 
162.754 163.296 167.245 166.558 166.544 165.807 165.83 165.048 165.127 
164.394 164.609 164.007 164.352 163.874 164.301 163.995 164.534 168.509 
167.873 167.891 167.249 167.28 166.598 166.633 165.944 166.078 165.476 
165.786 165.264 165.677 165.192 165.656 165.304 165.845 169.792 169.151 
169.175 168.551 168.591 167.962 168.009 167.362 167.47 166.874 167.144 
166.658 167.063 166.604 167.015 166.552 166.955 166.6 167.048 160.328 
160.007 160.194 160.376 159.863 159.974 160.206 160.421 160.847 160.057 
159.986 160.302 160.411 160.92 161.141 161.797 160.852 160.475 160.828 
160.726 161.31 161.396 162.095 162.275 162.971 162.075 161.536 161.833 
161.501 162.045 161.956 162.65 162.703 163.377 163.465 164.054 163.317 
162.802 163.062 162.631 163.045 162.79 163.37 163.318 163.957 163.962 
164.535 164.538 165.089 164.55 164.033 164.33 163.875 164.233 163.833 
164.265 164.056 164.619 164.572 165.153 165.111 165.652 165.626 166.187 
165.824 165.3 165.606 165.155 165.521 165.056 165.41 165.019 165.477 
165.286 165.849 165.764 166.301 166.231 166.738 166.719 167.236 167 
166.531 166.787 166.387 166.724 166.31 166.632 166.198 166.566 166.236 
166.719 166.522 167.027 166.892 167.359 167.276 167.744 167.724 168.205 
160.634 160.672 160.795 161.241 161.13 161 161.4 161.518 162.092 
162.063 161.691 162.042 161.881 162.423 162.515 163.238 163.183 162.753 
163.055 162.716 163.173 163.041 163.725 163.83 164.647 164.197 163.82 
164.093 163.758 164.161 163.917 164.523 164.464 165.226 165.303 166.038 
165.205 164.797 165.072 164.744 165.172 164.924 165.547 165.392 166.136 
166.028 166.724 166.656 167.307 166.312 165.867 166.147 165.759 166.186 
165.926 166.582 166.451 167.244 167.084 167.783 167.53 168.163 168.008 
168.793 167.37 166.978 167.259 166.872 167.25 166.951 167.529 167.419 
168.191 168.144 168.866 168.664 169.269 169.02 169.757 169.684 170.646 
168.338 167.99 168.288 167.949 168.328 168.016 168.534 168.345 169.045 
168.999 169.747 169.661 170.308 170.119 170.799 170.685 171.554 171.588 
172.543 180.232 179.099 179.469 179.021 177.846 178.231 177.71 178.13 
177.576 176.501 176.886 176.276 176.715 176.125 176.566 175.927 175.069 
175.465 174.794 175.22 174.596 175.062 174.465 174.889 174.265 173.588 
173.981 173.291 173.708 173.06 173.521 172.942 173.42 172.866 173.288 
172.737 172.158 172.5 171.799 172.198 171.554 171.998 171.416 171.897 
171.359 171.85 171.323 171.788 171.279 170.84 171.117 170.411 170.751 
170.138 170.542 169.996 170.424 169.901 170.353 169.854 170.333 169.852 
170.333 169.879 169.692 169.893 169.239 169.481 168.916 169.234 168.739 
169.097 168.614 168.989 168.537 168.949 168.543 168.968 168.578 169.009 
168.657 168.791 168.901 168.337 168.475 167.965 168.165 167.694 167.951 
167.48 167.786 167.354 167.73 167.376 167.777 167.446 167.823 167.5 
167.904 167.659 
POINT_DATA 1002
SCALARS Distance double
LOOKUP_TABLE default
171.702 170.434 170.293 171.685 170.279 173.076 171.791 170.474 173.192 
174.506 172.072 170.781 173.401 174.741 176.072 172.434 171.119 173.73 
175.059 176.416 177.737 172.859 171.564 174.152 175.5 176.881 178.16 
179.301 173.389 172.106 174.684 176.019 177.41 178.672 179.738 180.708 
173.944 172.668 175.277 176.574 177.861 179.094 180.155 181.096 181.968 
174.495 173.299 175.808 177.099 178.255 179.359 180.426 181.39 182.247 
182.992 175.093 174.027 176.268 177.494 178.597 179.579 180.584 181.57 
182.425 183.148 183.772 169.136 168.958 167.88 167.709 166.628 168.982 
166.448 165.301 167.721 169.171 165.174 164.071 166.415 167.801 169.399 
164.033 162.983 165.179 166.479 167.99 169.752 162.904 161.877 164.06 
165.353 166.783 168.448 170.303 161.847 160.959 163.008 164.354 165.761 
167.296 169.061 170.918 161.231 160.522 162.279 163.551 164.867 166.238 
167.842 169.694 171.576 161.096 160.497 162.001 163.103 164.246 165.416 
166.779 168.487 170.446 172.368 161.007 161.767 161.741 162.586 162.702 
162.753 163.636 164.006 163.583 163.813 165.038 165.46 164.711 164.68 
164.917 166.388 166.681 166.095 165.893 165.899 166.162 167.613 167.93 
167.43 167.297 167.236 167.322 167.736 169.302 169.667 169.075 168.974 
168.931 168.943 169.188 169.75 171.41 171.669 171.18 171.071 171.037 
170.981 171.063 171.436 171.928 173.339 173.469 173.178 173.102 173.108 
173.031 172.956 173.155 173.536 173.834 175.414 175.273 176.603 174.927 
176.302 177.456 174.529 175.763 176.964 178.286 174.478 175.396 176.383 
177.846 179.424 174.701 175.612 176.267 177.471 179.134 180.587 174.791 
176.032 176.77 177.574 178.917 180.367 181.47 174.781 176.202 177.303 
178.069 179.007 180.28 181.416 182.325 174.866 176.257 177.538 178.503 
179.298 180.373 181.526 182.463 183.344 174.979 176.352 177.64 178.742 
179.595 180.546 181.66 182.604 183.423 184.3 176.45 177.587 177.578 
178.514 178.658 178.716 179.583 179.658 179.749 179.744 180.814 180.855 
180.825 180.829 180.76 181.777 182.013 182.025 181.955 181.919 181.803 
182.539 182.854 183.064 183.058 182.987 182.9 182.71 183.523 183.708 
183.889 183.991 183.969 183.86 183.684 183.441 184.626 184.768 184.76 
184.766 184.805 184.755 184.59 184.359 184.085 185.323 185.685 185.984 
186.225 186.163 185.698 186.536 186.613 186.289 185.562 187.457 187.764 
187.103 186.349 185.536 188.529 188.62 188.288 187.376 186.327 185.536 
188.815 188.823 188.928 188.267 187.085 186.194 185.441 189.076 189.336 
189.133 188.76 187.727 186.804 186.106 185.258 189.979 190.257 189.818 
189.394 188.431 187.455 186.751 185.94 184.974 190.78 190.797 190.665 
190.203 189.226 188.134 187.313 186.514 185.549 184.6 184.453 185.314 
184.476 185.313 184.68 185.859 185.64 185.029 186.066 186.231 185.836 
185.09 186.515 186.901 187.181 185.555 184.907 186.376 187.353 188.114 
188.468 185.377 184.791 185.958 186.935 188.231 189.059 189.056 185.409 
184.594 186.022 186.63 187.606 188.759 189.378 189.351 185.13 184.171 
186.019 186.708 187.313 188.121 189.103 189.791 190.053 184.545 183.687 
185.454 186.339 187.102 187.765 188.59 189.592 190.33 190.648 174.554 
176.098 175.73 177.291 177.02 177.51 178.505 178.303 178.696 178.783 
179.687 179.504 179.854 179.936 179.831 180.872 180.668 181.02 181.122 
181.065 180.829 181.985 181.692 182.179 182.3 182.331 182.191 181.935 
182.86 182.473 183.17 183.349 183.433 183.355 183.117 182.866 183.548 
183.112 183.934 184.163 184.308 184.324 184.071 183.775 183.616 172.493 
173.664 171.569 172.823 170.945 175.03 172.191 170.453 174.375 176.551 
171.605 169.79 173.802 176.05 177.969 170.962 169.139 173.22 175.498 
177.506 179.231 170.397 168.772 172.603 174.917 176.954 178.805 180.431 
169.985 168.629 171.978 174.304 176.412 178.295 180.047 181.443 169.761 
168.604 171.475 173.678 175.862 177.752 179.514 181.065 182.218 169.74 
168.677 171.231 173.186 175.299 177.182 178.861 180.483 181.86 182.869 