# vtk DataFile Version 4.0
vtk output
ASCII
DATASET POLYDATA
POINTS 1002 float
-118.963 -113.949 56.0533 -118.842 -112.682 55.1404 -118.298 -113.015 55.3574 
-118.442 -114.307 56.4474 -117.889 -113.276 55.8522 -119.11 -115.298 57.115 
-118.034 -114.654 57.0371 -117.512 -113.551 56.5785 -118.616 -115.714 57.6382 
-119.166 -116.651 58.3202 -117.537 -115.133 57.7035 -117.02 -114.087 57.2727 
-118.1 -116.209 58.2372 -118.586 -117.215 58.8826 -118.999 -118.217 59.5645 
-116.89 -115.834 58.3307 -116.427 -114.868 57.835 -117.45 -116.845 58.9046 
-117.931 -117.865 59.5421 -118.304 -118.927 60.2061 -118.745 -119.951 60.8992 
-116.215 -116.595 59.0107 -115.804 -115.655 58.4806 -116.801 -117.532 59.7233 
-117.339 -118.492 60.4398 -117.705 -119.554 61.0934 -118.117 -120.608 61.7449 
-118.583 -121.511 62.3385 -115.581 -117.329 59.826 -115.229 -116.394 59.3349 
-116.191 -118.225 60.6301 -116.848 -119.076 61.4853 -117.267 -120.063 62.1691 
-117.644 -121.142 62.776 -118.058 -122.131 63.2742 -118.351 -123.038 63.5746 
-115.061 -118.031 60.6894 -114.767 -117.073 60.2388 -115.556 -118.992 61.4374 
-116.217 -119.812 62.3428 -116.713 -120.699 63.0842 -117.09 -121.765 63.6862 
-117.509 -122.816 64.1761 -117.799 -123.769 64.4389 -117.959 -124.672 64.5432 
-114.674 -118.615 61.5121 -114.375 -117.647 61.017 -114.989 -119.711 62.1606 
-115.461 -120.666 62.9835 -115.935 -121.544 63.7427 -116.322 -122.562 64.3636 
-116.756 -123.604 64.8917 -117.149 -124.511 65.2409 -117.39 -125.306 65.4272 
-117.617 -125.995 65.5689 -114.323 -119.143 62.2707 -113.997 -118.212 61.658 
-114.527 -120.289 62.9055 -114.8 -121.399 63.6343 -115.184 -122.35 64.3722 
-115.574 -123.3 65.0233 -115.986 -124.26 65.5849 -116.414 -125.078 66.0126 
-116.764 -125.751 66.31 -117.073 -126.319 66.5615 -117.422 -126.764 66.7771 
-118.381 -111.807 54.2604 -117.877 -112.095 54.5129 -117.915 -111.026 53.3118 
-117.395 -111.204 53.6914 -117.397 -110.054 52.5956 -117.46 -112.24 55.1461 
-116.766 -110.186 53.0907 -116.878 -108.885 52.2709 -116.853 -111.28 54.3724 
-117.012 -112.489 55.9691 -116.079 -109.146 52.8113 -116.305 -107.951 52.1629 
-116.039 -110.391 53.6614 -116.257 -111.607 55.1247 -116.489 -113.126 56.6758 
-115.32 -108.299 52.7051 -115.438 -107.283 52.0184 -115.256 -109.571 53.3385 
-115.349 -110.864 54.3476 -115.701 -112.292 55.8655 -115.937 -113.969 57.3123 
-114.395 -107.574 52.4988 -114.441 -106.634 51.8545 -114.509 -108.81 53.3034 
-114.602 -110.125 54.1051 -114.832 -111.468 55.2206 -115.238 -113.075 56.7179 
-115.378 -114.8 58.1408 -113.554 -106.96 52.3498 -113.77 -106.108 52.0101 
-113.637 -108.145 53.175 -113.864 -109.449 54.1219 -114.12 -110.654 55.0073 
-114.51 -112.152 56.2095 -114.822 -113.971 57.7382 -114.841 -115.647 59.1249 
-113.073 -106.495 52.6898 -113.446 -105.719 52.6596 -112.872 -107.632 53.2013 
-112.945 -108.961 54.1006 -113.321 -110.077 55.0056 -113.88 -111.342 55.953 
-114.265 -113.154 57.2563 -114.321 -114.992 58.7265 -114.304 -116.425 59.985 
-112.874 -106.069 53.4629 -113.189 -105.288 53.5344 -112.524 -107.21 53.7114 
-112.243 -108.595 54.3482 -112.413 -109.763 55.1709 -113.152 -110.823 56.008 
-113.793 -112.387 56.991 -113.824 -114.287 58.2098 -113.664 -115.87 59.4736 
-113.766 -117.074 60.6193 -112.786 -105.333 54.3391 -112.619 -106.492 54.474 
-112.675 -105.889 55.334 -112.542 -107.411 55.7621 -112.709 -107.027 56.763 
-112.176 -107.996 54.9232 -112.376 -108.476 57.2778 -112.514 -108.108 58.4655 
-111.96 -108.929 56.3392 -111.827 -109.399 55.5969 -112.28 -109.245 58.6751 
-112.558 -108.903 59.7713 -112 -109.691 57.6769 -111.908 -110.145 56.9369 
-112.357 -110.498 56.361 -113.003 -110.178 59.6969 -113.523 -110.074 60.42 
-112.684 -110.517 58.8209 -112.628 -110.959 58.1566 -112.863 -111.396 57.6545 
-113.32 -111.855 57.1948 -114.21 -111.809 60.4824 -114.708 -111.801 60.8424 
-113.811 -111.992 59.9356 -113.577 -112.245 59.4103 -113.42 -112.536 58.9678 
-113.343 -113.03 58.4699 -113.471 -113.698 58.1378 -114.789 -113.686 61.2729 
-115.183 -113.54 61.4754 -114.427 -113.92 60.9855 -114.048 -114.067 60.6899 
-113.55 -114.05 60.3481 -113.003 -114.236 59.7963 -112.761 -114.833 59.274 
-113.05 -115.475 59.2001 -114.746 -115.271 62.2367 -115.145 -115.029 62.4003 
-114.406 -115.619 61.978 -114.008 -115.887 61.7589 -113.434 -115.839 61.5765 
-112.765 -115.735 61.1599 -112.32 -116.025 60.5432 -112.429 -116.543 60.2224 
-113.04 -116.894 60.3622 -114.673 -116.624 63.335 -115.084 -116.403 63.4268 
-114.326 -116.957 63.0963 -113.944 -117.318 62.8357 -113.417 -117.457 62.6846 
-112.84 -117.399 62.4744 -112.447 -117.535 62.0036 -112.423 -117.894 61.537 
-112.811 -118.124 61.4235 -113.428 -118.159 61.5611 -113.84 -119.513 62.7652 
-113.353 -119.652 62.7867 -113.441 -121.175 64.0573 -112.876 -119.754 62.8346 
-112.936 -121.419 64.1929 -112.751 -122.859 65.3191 -112.561 -119.512 63.1422 
-112.437 -121.395 64.4298 -112.092 -122.971 65.5066 -112.081 -124.259 66.5157 
-112.53 -119.09 63.6352 -112.063 -120.918 64.9242 -111.506 -122.673 65.9044 
-111.419 -124.253 66.817 -111.669 -125.546 68.0347 -112.884 -118.899 63.9526 
-112.081 -120.439 65.4408 -111.241 -122.123 66.5436 -111.031 -123.919 67.3772 
-111.209 -125.563 68.5872 -111.2 -126.839 69.9708 -113.483 -118.813 64.064 
-112.619 -120.304 65.6473 -111.552 -121.837 67.022 -111.088 -123.498 68.0153 
-111.076 -125.178 69.2391 -110.767 -126.653 70.6641 -110.288 -127.824 71.6825 
-114.012 -118.546 64.2081 -113.332 -120.206 65.6318 -112.274 -121.806 67.089 
-111.554 -123.273 68.341 -111.258 -124.654 69.7159 -110.662 -125.99 71.2164 
-109.786 -127.277 72.2615 -109.219 -128.409 72.7758 -114.413 -118.219 64.3763 
-113.916 -119.962 65.5815 -113.016 -121.661 66.9369 -112.191 -123.088 68.3464 
-111.666 -124.264 69.8797 -110.912 -125.378 71.4618 -109.838 -126.546 72.6092 
-108.977 -127.738 73.1978 -108.605 -128.827 73.612 -114.819 -117.984 64.4325 
-114.428 -119.722 65.489 -113.698 -121.409 66.7232 -112.876 -122.792 68.213 
-112.228 -123.904 69.8637 -111.446 -124.996 71.4615 -110.382 -126.125 72.6818 
-109.431 -127.198 73.4238 -108.858 -128.195 73.975 -108.627 -129.137 74.5431 
-114.023 -120.619 63.5235 -113.504 -122.326 64.8887 -114.177 -121.841 64.2721 
-112.922 -123.907 66.1867 -113.769 -123.435 65.7031 -114.499 -122.932 65.0403 
-112.409 -125.244 67.5865 -113.329 -124.824 67.1165 -114.21 -124.363 66.5272 
-114.925 -123.874 65.7829 -111.844 -126.597 69.3803 -112.703 -126.127 68.7205 
-113.685 -125.64 68.0443 -114.617 -125.177 67.3158 -115.343 -124.761 66.4436 
-111.013 -127.903 71.1762 -111.926 -127.516 70.5042 -112.887 -126.996 69.6871 
-113.959 -126.432 68.8548 -114.983 -125.902 67.9675 -115.756 -125.515 66.9579 
-109.915 -128.838 72.4377 -111.01 -128.723 71.9818 -112.109 -128.313 71.299 
-113.17 -127.815 70.4094 -114.331 -127.137 69.4685 -115.373 -126.506 68.4492 
-116.143 -126.125 67.3394 -108.964 -129.456 73.3981 -109.946 -129.622 73.0953 
-111.221 -129.331 72.6169 -112.437 -128.934 71.8473 -113.625 -128.423 70.8953 
-114.806 -127.678 69.9133 -115.797 -127.025 68.8438 -116.53 -126.648 67.6795 
-108.599 -129.902 74.4317 -109.155 -130.372 74.1787 -110.254 -130.262 73.7599 
-111.585 -129.784 73.0886 -112.907 -129.3 72.1667 -114.174 -128.758 71.1827 
-115.334 -128.069 70.2143 -116.287 -127.458 69.1491 -116.968 -127.066 67.9627 
-108.868 -129.802 75.5422 -108.914 -130.732 75.3336 -109.414 -130.319 76.2157 
-109.671 -131.383 75.7652 -110.311 -130.453 76.2097 -109.538 -131.2 74.9265 
-110.755 -131.409 75.6798 -111.411 -130.06 76.0961 -110.399 -131.774 75.284 
-110.693 -130.862 74.3225 -111.89 -130.759 75.7388 -112.654 -129.546 76.3568 
-111.542 -131.627 75.4102 -111.579 -131.13 74.6557 -112.126 -130.072 73.4198 
-113.328 -130.16 75.9301 -114.34 -129.48 76.426 -112.824 -130.967 75.4895 
-112.789 -130.9 74.768 -113.063 -130.1 73.5519 -113.589 -129.425 72.2917 
-115.404 -130.143 75.7049 -116.4 -129.829 76.0231 -114.577 -130.537 75.1839 
-114.274 -130.568 74.4554 -114.335 -130.072 73.3673 -114.568 -129.504 72.1895 
-114.944 -128.909 71.2026 -117.585 -130.461 75.2109 -118.227 -130.166 75.5346 
-116.71 -130.549 74.5678 -116.045 -130.44 73.7655 -115.807 -130.141 72.8566 
-115.779 -129.714 71.8616 -115.901 -129.105 70.9913 -116.124 -128.286 70.166 
-119.197 -130.628 74.6609 -119.478 -130.169 74.9822 -118.565 -130.688 73.9982 
-117.785 -130.429 73.1215 -117.277 -130.134 72.2759 -117.027 -129.855 71.4478 
-116.919 -129.31 70.633 -116.97 -128.48 69.8793 -117.02 -127.688 69.0079 
-120.181 -130.364 73.9076 -120.267 -129.784 74.1867 -119.825 -130.584 73.3634 
-119.184 -130.382 72.5452 -118.597 -130.043 71.6863 -118.203 -129.79 70.9299 
-117.887 -129.371 70.1823 -117.723 -128.621 69.4232 -117.686 -127.857 68.6287 
-117.581 -127.29 67.7156 -109.158 -128.712 75.1749 -109.458 -129.072 76.2556 
-109.909 -128.126 75.7515 -110.122 -128.118 76.8208 -110.659 -127.414 76.1339 
-110.004 -129.259 76.8114 -110.832 -127.226 77.0702 -111.548 -126.832 76.1121 
-110.703 -128.207 77.3864 -110.996 -129.235 76.8722 -111.815 -126.669 76.8069 
-112.729 -126.641 75.6326 -111.626 -127.457 77.6468 -111.993 -128.457 77.8079 
-112.342 -129.045 77.1097 -113.067 -126.472 76.1401 -113.983 -126.537 74.8799 
-112.72 -126.89 77.2265 -113.15 -127.931 78.1086 -113.633 -128.671 78.0966 
-113.891 -129.004 77.2314 -114.435 -126.294 75.2719 -115.098 -126.046 73.9284 
-113.925 -126.463 76.3789 -114.13 -127.198 77.3222 -114.748 -128.163 77.8581 
-115.227 -128.784 77.4677 -115.69 -129.246 76.6656 -115.782 -125.834 74.151 
-116.083 -125.225 72.8159 -115.361 -126.13 75.3666 -115.235 -126.542 76.1902 
-115.626 -127.271 76.7383 -116.253 -128.085 76.8165 -116.854 -128.821 76.4159 
-117.501 -129.519 75.9804 -116.884 -125.121 72.9087 -116.934 -124.357 71.7662 
-116.757 -125.652 74.1415 -116.648 -126.082 75.0765 -116.779 -126.56 75.7046 
-117.258 -127.153 76.0987 -117.87 -127.915 76.1057 -118.405 -128.77 75.8538 
-118.93 -129.564 75.5105 -117.658 -124.303 71.8358 -117.631 -123.526 70.9078 
-117.729 -124.936 72.9045 -117.847 -125.489 73.877 -118.022 -126.009 74.6844 
[...]
CELL_DATA 2000
SCALARS Distance double
LOOKUP_TABLE default
172.176 172.166 172.579 173.452 172.284 172.646 173.539 173.932 174.814 
172.486 172.813 173.712 174.075 174.966 175.312 176.163 172.748 173.041 
173.927 174.27 175.166 175.499 176.366 176.684 177.552 173.051 173.316 
174.201 174.519 175.446 175.75 176.655 176.939 177.841 178.136 179.017 
173.408 173.634 174.535 174.837 175.811 176.102 177.048 177.298 178.226 
178.485 179.39 179.627 180.435 173.837 174.025 174.919 175.202 176.187 
176.493 177.445 177.71 178.622 178.887 179.792 180.036 180.855 181.017 
181.717 174.265 174.463 175.325 175.593 176.539 176.849 177.774 178.065 
178.944 179.236 180.113 180.404 181.22 181.428 182.114 182.241 182.841 
174.649 174.869 175.717 175.976 176.88 177.175 178.074 178.363 179.225 
179.516 180.361 180.666 181.454 181.717 182.376 182.565 183.118 183.266 
183.766 171.385 170.233 170.97 171.347 169.061 169.816 170.169 170.964 
171.421 167.821 168.591 168.919 169.742 170.178 171.062 171.597 166.656 
167.342 167.621 168.428 168.837 169.764 170.333 171.284 171.879 165.58 
166.214 166.446 167.167 167.537 168.4 168.976 169.982 170.667 171.614 
172.219 164.44 165.092 165.345 166.065 166.446 167.198 167.718 168.632 
169.35 170.379 171.111 172.004 172.611 163.458 163.97 164.252 164.974 
165.434 166.186 166.684 167.465 168.118 169.089 169.916 170.909 171.66 
172.468 173.078 162.941 163.2 163.451 163.99 164.475 165.196 165.745 
166.481 167.1 167.956 168.786 169.776 170.643 171.534 172.221 172.955 
173.518 162.739 162.881 163.105 163.415 163.863 164.383 164.96 165.6 
166.265 167.029 167.863 168.765 169.655 170.545 171.267 172.051 172.612 
173.343 173.871 162.687 163.041 162.918 163.195 163.985 163.592 163.888 
163.613 163.972 165.151 164.697 164.892 164.477 164.731 164.5 164.968 
166.182 165.757 165.894 165.485 165.706 165.368 165.804 165.635 166.291 
167.55 166.886 167.153 166.587 166.98 166.508 167.073 166.707 167.428 
167.181 167.989 169.503 168.634 169.059 168.242 168.788 168.092 168.716 
168.168 168.819 168.444 169.143 168.933 169.698 171.385 170.673 171.091 
170.346 170.83 170.089 170.532 169.855 170.212 169.724 170.123 169.916 
170.479 170.47 171.149 172.827 172.319 172.665 172.148 172.52 171.946 
172.223 171.549 171.693 171.033 171.227 170.805 171.245 171.126 171.774 
171.806 172.484 174.082 173.616 173.946 173.503 173.854 173.387 173.665 
173.075 173.244 172.536 172.753 172.104 172.559 172.123 172.805 172.576 
173.312 173.189 173.844 174.659 174.285 174.978 175.958 173.933 174.677 
175.779 176.368 177.273 173.704 174.396 175.538 176.177 177.066 177.574 
178.328 173.751 174.247 175.282 175.881 176.714 177.26 177.996 178.555 
179.372 174.095 174.385 175.268 175.669 176.443 176.889 177.664 178.224 
179.163 179.751 180.7 174.481 174.742 175.57 175.807 176.569 176.805 
177.617 178.03 179.037 179.61 180.604 181.106 181.841 174.687 175.036 
175.891 176.165 176.957 177.125 177.915 178.171 179.096 179.549 180.445 
180.928 181.544 181.954 182.329 174.785 175.175 176.06 176.427 177.252 
177.508 178.261 178.5 179.288 179.629 180.381 180.745 181.271 181.587 
181.916 182.247 182.553 174.91 175.282 176.181 176.569 177.42 177.736 
178.484 178.752 179.468 179.766 180.449 180.724 181.256 181.438 181.82 
181.981 182.351 182.591 183.028 175.158 176.408 175.926 176.265 177.684 
177.228 177.561 177.081 177.437 178.799 178.456 178.848 178.41 178.777 
178.284 178.626 179.9 179.554 180.017 179.655 180.07 179.631 179.984 
179.472 179.782 181.169 180.748 181.18 180.795 181.208 180.845 181.219 
180.798 181.117 180.613 180.902 182.246 181.98 182.353 181.973 182.318 
181.936 182.282 181.928 182.248 181.859 182.131 181.678 181.924 182.741 
182.772 183.165 183.011 183.343 183.029 183.339 182.974 183.276 182.905 
183.166 182.781 182.998 182.595 182.783 182.977 183.084 183.553 183.602 
184.001 183.895 184.214 183.972 184.254 183.923 184.165 183.778 183.979 
183.583 183.763 183.367 183.513 183.437 183.425 183.97 183.991 184.482 
184.442 184.805 184.682 184.955 184.769 184.996 184.723 184.906 184.549 
184.711 184.321 184.467 184.056 184.161 183.976 185.01 184.511 184.517 
185.893 185.566 185.622 185.071 185.014 186.416 186.337 186.538 186.15 
186.035 185.45 185.281 186.772 186.736 187.034 186.915 186.876 186.385 
186.083 185.564 185.362 187.443 187.155 187.4 187.315 187.397 187.076 
186.779 186.276 185.975 185.578 185.399 188.604 188.046 188.17 187.812 
187.9 187.57 187.387 186.916 186.616 186.176 185.981 185.6 185.38 
189.885 189.326 189.361 188.762 188.706 188.201 188.055 187.572 187.346 
186.861 186.654 186.214 185.997 185.545 185.232 190.757 190.463 190.451 
189.909 189.671 189.067 188.793 188.287 188.058 187.601 187.357 186.895 
186.609 186.151 185.812 185.345 184.97 190.966 190.996 190.953 190.703 
190.373 189.884 189.449 188.963 188.626 188.228 187.917 187.504 187.113 
186.681 186.261 185.849 185.44 185.027 184.629 183.908 184.134 184.289 
184.855 184.251 184.412 184.838 185.125 185.606 184.3 184.408 184.772 
185.04 185.477 185.756 186.122 184.504 184.454 184.824 185.034 185.648 
185.824 186.303 186.322 186.653 184.879 184.732 185.005 185.147 185.882 
186.173 186.914 186.868 187.294 187.06 187.467 185.12 185.098 185.273 
185.326 185.868 186.282 187.067 187.407 187.931 187.864 188.215 188.052 
188.586 185.007 185.233 185.498 185.559 185.903 186.158 186.737 187.231 
187.795 188.155 188.537 188.664 189.095 189.179 189.756 184.633 185.036 
185.446 185.682 186.041 186.201 186.635 186.916 187.457 187.842 188.363 
188.698 189.167 189.436 189.912 190.148 190.572 184.172 184.63 185.074 
185.488 185.899 186.216 186.631 186.891 187.377 187.663 188.211 188.527 
189.041 189.346 189.761 190.057 190.357 190.636 190.791 175.285 176.34 
176.072 176.596 177.449 177.192 177.735 177.407 177.844 178.531 178.31 
178.883 178.567 178.982 178.587 178.911 179.534 179.349 179.926 179.682 
180.113 179.729 180.03 179.607 179.896 180.437 180.276 180.821 180.655 
181.116 180.818 181.135 180.731 180.995 180.582 180.839 181.278 181.122 
181.673 181.533 182.075 181.825 182.222 181.831 182.111 181.679 181.886 
181.458 181.601 182.108 181.951 182.542 182.421 183.071 182.866 183.363 
182.97 183.259 182.79 182.972 182.5 182.585 182.114 182.15 182.919 
182.781 183.363 183.282 183.925 183.836 184.32 184.053 184.234 183.833 
183.881 183.488 183.53 183.098 183.107 182.631 182.67 183.648 183.557 
184.085 184.029 184.548 184.526 184.871 184.755 184.783 184.53 184.397 
184.149 184.102 183.876 183.916 183.578 183.635 183.202 183.321 174.667 
174.049 174.779 175.664 173.429 174.163 175.041 175.813 176.745 172.769 
173.557 174.476 175.227 176.176 176.923 177.849 172.008 172.877 173.892 
174.703 175.72 176.442 177.409 178.068 178.935 171.285 172.116 173.175 
174.082 175.198 176.024 177.055 177.718 178.615 179.173 179.932 170.824 
171.491 172.5 173.353 174.502 175.44 176.558 177.346 178.278 178.884 
179.662 180.153 180.815 170.599 171.128 172.036 172.741 173.832 174.74 
175.927 176.807 177.82 178.502 179.31 179.864 180.565 181.024 181.646 
170.484 170.926 171.727 172.308 173.286 174.105 175.304 176.217 177.353 
178.075 178.949 179.502 180.236 180.745 181.417 181.858 182.459 170.474 
170.829 171.563 172.019 172.89 173.576 174.71 175.619 176.846 177.665 
178.649 179.21 179.955 180.429 181.114 181.593 182.227 182.651 183.202 
170.764 171.66 171.394 171.837 172.744 172.398 172.854 172.56 173.156 
173.952 173.581 174.112 173.732 174.389 174.107 174.976 175.278 174.881 
175.502 175.104 175.823 175.489 176.392 176.161 177.121 176.728 176.309 
176.976 176.565 177.292 176.948 177.794 177.572 178.451 178.232 178.94 
178.143 177.782 178.459 178.072 178.755 178.386 179.115 178.867 179.626 
179.433 180.059 179.785 180.24 179.391 179.113 179.77 179.476 180.107 
179.772 180.389 180.1 180.754 180.528 181.126 180.851 181.313 180.976 
181.377 180.514 180.27 180.877 180.655 181.241 180.986 181.532 181.27 
181.848 181.621 182.2 181.931 182.409 182.066 182.462 182.11 182.481 
181.541 181.318 181.869 181.673 182.229 182.019 182.544 182.312 182.845 
182.642 183.19 182.975 183.437 183.139 183.496 183.161 183.482 183.153 
183.45 182.253 183.395 182.741 182.581 184.557 183.916 183.8 183.118 
182.964 185.784 185.14 185.111 184.412 184.284 183.517 183.309 187.081 
186.418 186.403 185.739 185.631 184.874 184.642 183.843 183.612 188.283 
187.669 187.523 186.92 186.74 186.115 185.865 185.149 184.875 184.137 
183.918 189.148 188.699 188.472 187.91 187.656 187.09 186.846 186.247 
185.971 185.316 185.034 184.374 184.108 189.677 189.39 189.264 188.795 
188.598 188.021 187.82 187.211 186.975 186.334 186.032 185.387 185.065 
184.447 184.132 190.125 189.884 189.85 189.518 189.382 188.932 188.707 
188.172 187.884 187.296 186.955 186.331 185.973 185.352 185.017 184.415 
184.1 190.597 190.355 190.27 190.007 189.798 189.505 189.163 188.815 
188.378 187.982 187.53 187.091 186.679 186.184 185.819 185.273 184.938 
184.367 184.045 182.294 182.786 182.872 183.485 183.36 183.491 184.192 
184.099 184.65 183.901 184.173 185.035 184.923 185.429 185.249 185.8 
184.113 184.624 185.56 185.699 186.19 186.033 186.473 186.42 187.067 
183.854 184.531 185.342 185.86 186.359 186.55 186.958 187.04 187.654 
187.735 188.363 183.393 184.026 184.685 185.325 185.894 186.409 186.981 
187.34 188.004 188.237 188.851 188.895 189.265 183.012 183.534 184.189 
184.708 185.414 185.96 186.801 187.307 188.141 188.479 189.085 189.223 
189.543 189.541 189.71 182.715 183.206 183.93 184.391 185.184 185.688 
186.641 187.208 188.143 188.569 189.172 189.349 189.626 189.682 189.865 
189.895 190.104 182.437 182.935 183.687 184.191 184.97 185.502 186.352 
186.986 187.832 188.42 188.986 189.31 189.554 189.692 189.881 189.997 
190.271 190.346 190.61 181.588 180.467 181.344 181.964 179.124 180.083 
180.619 181.623 182.314 177.725 178.677 179.16 180.143 180.705 181.872 
182.645 176.425 177.313 177.828 178.721 179.223 180.224 180.884 182.138 
182.883 175.215 176.06 176.572 177.451 177.976 178.854 179.416 180.445 
181.125 182.309 182.863 173.939 174.807 175.258 176.178 176.688 177.607 
178.111 179.041 179.581 180.636 181.194 182.238 182.597 172.565 173.442 
173.873 174.821 175.332 176.279 176.755 177.668 178.103 179.085 179.564 
180.618 181.054 181.99 182.265 171.275 172.07 172.514 173.44 174.006 
174.949 175.452 176.311 176.702 177.581 178.014 179.014 179.495 180.482 
180.859 181.707 181.963 170.206 170.883 171.317 172.152 172.735 173.662 
174.213 175.06 175.459 176.242 176.645 177.537 178.055 179.013 179.491 
180.351 180.683 181.447 181.702 169.799 169.629 170.086 170.927 169.562 
169.993 170.88 171.358 172.33 169.583 169.973 170.858 171.334 172.306 
172.824 173.781 169.687 170.026 170.897 171.338 172.305 172.796 173.737 
174.204 175.036 169.855 170.145 171.013 171.426 172.44 172.877 173.862 
174.231 175.11 175.448 176.273 170.17 170.369 171.244 171.598 172.651 
173.081 174.12 174.464 175.39 175.667 176.562 176.831 177.72 170.703 
170.813 171.716 171.947 172.977 173.326 174.332 174.697 175.603 175.952 
176.843 177.176 178.059 178.334 179.147 171.331 171.436 172.358 172.528 
173.508 173.725 174.638 174.896 175.746 176.088 176.971 177.378 178.258 
178.607 179.376 179.642 180.317 171.925 172.056 172.951 173.149 174.074 
174.263 175.106 175.264 176.067 176.29 177.175 177.514 178.432 178.771 
179.565 179.823 180.484 180.714 181.334 172.524 173.803 173.278 173.575 
175.122 174.591 174.876 174.385 174.687 176.456 175.913 176.187 175.682 
175.977 175.473 175.703 177.87 177.294 177.606 177.042 177.371 176.811 
177.097 176.492 176.698 179.318 178.755 179.088 178.515 178.857 178.278 
178.62 177.999 178.289 177.593 177.847 180.676 180.169 180.486 179.967 
180.26 179.722 180 179.477 179.772 179.206 179.471 178.808 179.055 
181.928 181.469 181.8 181.323 181.628 181.083 181.294 180.748 180.963 
180.51 180.767 180.295 180.503 179.926 180.098 183.061 182.673 183.031 
182.618 182.993 182.481 182.744 182.103 182.276 181.682 181.921 181.46 
181.727 181.243 181.419 180.851 180.979 183.996 183.716 184.055 183.758 
184.131 183.78 184.1 183.576 183.768 183.109 183.289 182.695 182.969 
182.462 182.718 182.16 182.319 181.706 181.83 182.519 183.051 183.127 
183.798 183.468 183.643 184.356 184.435 185.104 183.754 183.997 184.738 
184.922 185.638 185.741 186.457 184.116 184.309 185.085 185.271 186.007 
186.19 186.947 187.111 187.851 184.553 184.722 185.482 185.653 186.394 
186.562 187.284 187.486 188.179 188.38 188.926 184.777 185.039 185.679 
185.954 186.635 186.905 187.572 187.783 188.369 188.564 189.045 189.206 
189.509 184.739 185.065 185.593 185.944 186.53 186.946 187.569 187.925 
188.448 188.68 189.12 189.29 189.667 189.725 189.958 184.635 184.947 
185.449 185.768 186.304 186.713 187.31 187.749 188.263 188.606 189.029 
189.31 189.756 189.943 190.325 190.282 190.478 184.541 184.842 185.343 
185.639 186.147 186.493 187.039 187.446 187.934 188.311 188.693 189.068 
189.487 189.894 190.345 190.589 190.867 190.799 190.855 162.652 162.84 
162.693 162.555 163.319 162.961 162.766 162.506 162.257 164.31 163.702 
163.526 162.949 162.718 162.285 162.272 165.443 164.826 164.693 164.002 
163.845 163.138 163.181 162.747 163.215 166.45 165.871 165.699 165.138 
164.997 164.395 164.413 163.906 164.264 164.008 164.604 167.576 166.891 
166.696 166.082 165.96 165.435 165.454 165.034 165.268 165.006 165.418 
165.274 165.725 168.838 168.122 167.99 167.249 167.211 166.536 166.649 
166.093 166.349 165.945 166.315 166.051 166.472 166.291 166.749 170.038 
169.397 169.329 168.637 168.645 167.959 168.11 167.475 167.749 167.181 
167.539 167.077 167.502 167.161 167.633 167.402 167.923 171.216 170.606 
170.59 169.954 169.963 169.345 169.442 168.892 169.106 168.598 168.889 
168.398 168.753 168.319 168.738 168.394 168.854 168.615 169.103 162.492 
162.431 162.41 162.213 162.17 162.296 162.261 162.2 162.171 162.192 
162.119 162.298 162.315 162.5 162.418 162.762 163.149 162.601 162.851 
162.622 163.028 162.889 163.332 163.287 163.9 164.559 163.896 164.076 
163.58 163.983 163.66 164.139 163.949 164.503 164.498 165.122 165.689 
165.193 165.311 164.858 165.144 164.765 165.155 164.852 165.314 165.154 
165.696 165.669 166.223 166.726 166.233 166.386 165.961 166.237 165.872 
166.225 165.886 166.276 166.007 166.466 166.316 166.834 166.768 167.314 
167.922 167.378 167.595 167.096 167.417 166.982 167.365 166.972 167.365 
167.007 167.419 167.147 167.612 167.448 167.966 167.898 168.467 169.111 
168.621 168.862 168.38 168.688 168.224 168.573 168.149 168.525 168.134 
168.523 168.165 168.579 168.297 168.766 168.598 169.124 169.062 169.62 
162.498 162.169 162.37 162.683 162.13 162.115 162.451 162.817 163.568 
162.81 162.425 162.762 162.803 163.597 163.996 164.868 164.037 163.472 
163.778 163.453 164.092 164.195 165.032 165.306 166.015 165.241 164.754 
164.985 164.574 164.964 164.807 165.435 165.558 166.323 166.507 167.338 
166.287 165.852 166.027 165.648 165.922 165.651 166.14 166.082 166.875 
166.994 167.997 168.157 169.238 167.396 166.913 167.133 166.682 167.017 
166.638 167.179 166.954 167.801 167.78 168.866 168.965 170.073 170.186 
171.163 168.604 168.116 168.432 167.932 168.356 167.892 168.495 168.162 
169.011 168.876 169.911 169.922 170.952 171.004 171.882 171.928 172.658 
169.767 169.347 169.709 169.282 169.73 169.304 169.869 169.523 170.272 
170.093 170.997 170.951 171.855 171.844 172.631 172.618 173.302 173.296 
173.931 181.113 180.025 180.4 179.998 178.833 179.222 178.765 179.165 
178.675 177.545 177.957 177.443 177.862 177.341 177.755 177.251 176.128 
176.584 176.054 176.502 175.962 176.383 175.874 176.329 175.914 174.689 
175.12 174.593 175.071 174.549 174.993 174.473 174.934 174.527 175.053 
174.719 173.396 173.736 173.198 173.624 173.129 173.576 173.058 173.51 
173.061 173.617 173.28 173.856 173.484 172.233 172.514 171.959 172.303 
171.816 172.216 171.734 172.128 171.653 172.133 171.771 172.362 172.023 
172.569 172.147 171.167 171.394 170.823 171.108 170.601 170.965 170.515 
170.884 170.437 170.813 170.431 170.909 170.605 171.128 170.784 171.257 
170.879 170.259 170.396 169.818 170.019 169.494 169.79 169.344 169.705 
169.297 169.661 169.277 169.672 169.344 169.799 169.492 169.954 169.633 
170.084 169.803 
POINT_DATA 1002
SCALARS Distance double
LOOKUP_TABLE default
173.007 171.804 171.717 173.014 171.768 174.337 173.157 171.928 174.447 
175.661 173.357 172.175 174.624 175.831 177 173.595 172.479 174.832 
176.046 177.225 178.436 173.879 172.801 175.134 176.375 177.55 178.751 
179.868 174.226 173.201 175.504 176.801 177.974 179.157 180.266 181.173 
174.652 173.661 175.881 177.18 178.36 179.535 180.689 181.614 182.367 
175.078 174.059 176.249 177.49 178.658 179.818 180.991 181.984 182.746 
183.412 175.473 174.417 176.604 177.791 178.946 180.075 181.194 182.179 
182.968 183.643 184.246 170.637 170.558 169.508 169.384 168.294 170.569 
168.098 167.074 169.277 170.692 166.858 166.037 167.911 169.325 170.986 
165.749 164.957 166.734 167.967 169.638 171.38 164.574 163.793 165.713 
166.894 168.295 170.122 171.834 163.546 163.036 164.639 165.953 167.207 
168.853 170.777 172.374 163.021 162.767 163.788 165 166.285 167.809 
169.7 171.457 172.835 162.858 162.595 163.44 164.364 165.519 166.994 
168.787 170.481 171.866 173.138 162.611 163.289 163.226 164.264 164.47 
164.116 165.362 165.628 165.056 165.025 166.284 166.636 166.041 166.024 
166.363 167.738 168.276 167.439 167.461 167.734 168.187 169.89 170.345 
169.551 169.377 169.311 169.415 169.83 171.787 172.025 171.6 171.341 
170.881 170.45 170.509 171.103 173.148 173.31 173.063 172.902 172.429 
171.775 171.462 171.77 172.453 174.393 174.548 174.302 174.2 173.897 
173.409 173.079 173.14 173.507 173.978 175.586 175.374 176.92 175.154 
176.814 178.091 174.898 176.567 177.823 179.074 174.769 176.185 177.397 
178.771 180.275 174.982 176.06 177.092 178.509 180.212 181.619 175.35 
176.386 177.27 178.495 180.112 181.494 182.415 175.563 176.767 177.726 
178.753 180.045 181.185 181.96 182.615 175.665 176.957 178.038 179.024 
180.091 181.011 181.622 182.17 182.876 175.792 177.09 178.219 179.2 
180.186 181.075 181.687 182.155 182.73 183.481 176.723 178.046 177.92 
179.236 179.268 179.146 180.355 180.464 180.483 180.328 181.619 181.572 
181.592 181.586 181.439 182.71 182.736 182.651 182.61 182.554 182.403 
183.196 183.593 183.706 183.667 183.557 183.391 183.205 183.444 184.022 
184.392 184.549 184.552 184.392 184.159 183.931 183.956 184.511 184.916 
185.111 185.212 185.229 185.101 184.876 184.597 184.493 185.087 185.45 
186.162 186.069 185.618 186.784 186.401 186.671 185.821 187.027 186.893 
187.293 186.667 185.767 187.549 187.891 187.628 187.273 186.402 185.761 
188.702 189.222 188.264 187.813 187.08 186.373 185.814 190.058 190.38 
189.328 188.532 187.828 187.135 186.459 185.723 190.953 190.941 190.345 
189.347 188.506 187.845 187.096 186.276 185.44 191.095 190.864 190.814 
189.964 189.04 188.337 187.573 186.674 185.835 185.047 183.753 184.623 
184.027 184.588 184.139 185.304 184.5 184.264 185.229 185.9 184.6 
184.651 185.373 186.345 186.669 184.949 185.04 185.47 186.804 187.595 
187.622 185.31 185.013 185.563 186.574 187.825 188.378 188.649 185.382 
184.631 185.808 186.342 187.298 188.266 188.972 189.67 185.099 184.172 
185.863 186.457 187.112 187.967 188.863 189.671 190.398 184.621 183.726 
185.505 186.332 187.11 187.915 188.756 189.509 190.106 190.571 175.518 
176.909 176.596 178.074 177.682 178.227 179.176 178.739 179.404 179.321 
180.135 179.731 180.471 180.47 180.306 180.968 180.617 181.365 181.52 
181.423 181.261 181.786 181.438 182.271 182.594 182.557 182.359 182.046 
182.634 182.257 183.21 183.737 183.764 183.46 183.101 182.612 183.456 
183.048 184.004 184.566 184.664 184.28 183.908 183.584 183.126 173.939 
174.885 173.327 174.283 172.682 175.963 173.71 171.919 175.441 177.131 
173.004 171.104 174.965 176.763 178.339 172.244 170.51 174.281 176.352 
178.059 179.453 171.722 170.241 173.537 175.693 177.636 179.144 180.394 
171.422 170.134 172.966 174.995 177.098 178.731 180.06 181.246 171.223 
170.096 172.537 174.359 176.563 178.401 179.72 180.934 182.075 171.168 