# vtk DataFile Version 4.0
vtk output
ASCII
DATASET POLYDATA
POINTS 1002 float
-119.886 -110.193 44.8364 -119.575 -108.812 44.0759 -119.073 -109.095 44.489 
-119.335 -110.669 45.2482 -118.563 -109.558 44.9982 -120.068 -111.871 45.5283 
-118.739 -111.247 45.7882 -118.022 -110.176 45.5057 -119.512 -112.37 46.1207 
-120.176 -113.313 46.724 -118.16 -111.848 46.4584 -117.529 -110.827 46.141 
-118.889 -112.845 46.9485 -119.647 -113.694 47.697 -120.26 -114.36 48.7004 
-117.681 -112.434 47.3633 -117.1 -111.483 47.0047 -118.272 -113.378 47.943 
-118.991 -114.215 48.788 -119.652 -114.978 49.7396 -120.247 -115.762 50.6536 
-117.109 -113.166 48.394 -116.537 -112.293 47.8838 -117.659 -114.069 49.0432 
-118.285 -114.971 49.8589 -118.885 -115.964 50.5952 -119.493 -116.924 51.2879 
-120.166 -117.819 51.9278 -116.248 -114.155 49.3152 -115.78 -113.304 48.7081 
-116.851 -115.036 50.0259 -117.56 -115.875 50.8664 -118.14 -116.948 51.4763 
-118.675 -118.148 51.865 -119.378 -119.058 52.4198 -120.105 -119.734 53.0097 
-115.352 -115.164 50.1863 -115.021 -114.323 49.5854 -115.912 -116.122 50.8225 
-116.737 -116.943 51.6404 -117.461 -117.809 52.4018 -117.978 -118.979 52.7943 
-118.586 -120.048 53.1462 -119.319 -120.711 53.7082 -119.983 -121.192 54.2191 
-114.694 -115.971 51.0391 -114.365 -115.176 50.3934 -115.167 -116.987 51.615 
-115.918 -117.977 52.2769 -116.711 -118.793 53.0958 -117.316 -119.716 53.7636 
-117.873 -120.765 54.1516 -118.498 -121.604 54.5049 -119.14 -122.169 54.9092 
-119.751 -122.618 55.2407 -114.208 -116.651 51.7193 -113.788 -115.87 50.9861 
-114.668 -117.63 52.3768 -115.259 -118.739 52.981 -115.922 -119.74 53.6774 
-116.53 -120.629 54.4156 -117.128 -121.538 54.98 -117.734 -122.396 55.3165 
-118.304 -123.105 55.5472 -118.896 -123.663 55.7752 -119.53 -124.085 55.9942 
-118.871 -107.842 43.3368 -118.393 -108.047 43.9234 -118.186 -106.899 42.6354 
-117.659 -107.04 43.3156 -117.489 -105.81 42.1493 -117.889 -108.459 44.509 
-116.824 -105.986 42.7342 -116.685 -104.653 41.7256 -117.045 -107.425 43.8596 
-117.296 -109.097 45.0309 -116.011 -104.966 42.3103 -115.936 -103.615 41.4136 
-116.122 -106.448 43.2975 -116.314 -108.124 44.4521 -116.721 -109.851 45.7401 
-115.335 -104.047 42.3164 -115.397 -102.653 41.6 -115.396 -105.491 43.202 
-115.431 -107.168 44.1513 -115.681 -108.955 45.296 -116.249 -110.644 46.5869 
-114.576 -103.26 42.6566 -114.856 -101.772 42.191 -114.635 -104.612 43.4154 
-114.829 -106.088 44.2585 -114.91 -107.88 45.1041 -115.278 -109.776 46.1212 
-115.762 -111.586 47.3696 -113.724 -102.66 43.016 -114.185 -101.129 42.7796 
-113.582 -103.994 43.531 -113.958 -105.201 44.3176 -114.321 -106.69 45.1327 
-114.566 -108.653 45.9284 -114.961 -110.8 46.9408 -115.176 -112.728 48.2351 
-113.111 -102.157 43.4703 -113.555 -100.748 43.3629 -112.751 -103.51 43.77 
-112.884 -104.713 44.3822 -113.414 -105.95 45.1893 -113.92 -107.602 46.002 
-114.308 -109.806 46.8656 -114.535 -112.06 47.9291 -114.5 -113.836 49.1683 
-112.781 -101.689 44.2156 -113.075 -100.558 44.1519 -112.467 -102.932 44.4361 
-112.305 -104.256 44.8979 -112.527 -105.596 45.5263 -113.126 -107.014 46.2259 
-113.743 -108.869 47.0151 -114.008 -111.133 47.8986 -113.926 -113.179 48.8679 
-113.786 -114.685 49.9219 -112.537 -101.04 45.278 -112.407 -102.06 45.4055 
-112.085 -101.5 46.6655 -112.151 -102.673 46.8091 -111.771 -102.316 48.0063 
-112.259 -103.404 45.7551 -111.918 -103.91 48.0898 -111.697 -103.636 49.3015 
-112.097 -104.318 47.1188 -112.125 -105.013 46.2319 -111.831 -105.377 49.4397 
-111.865 -105.03 50.7646 -111.955 -105.569 48.2501 -112.091 -105.993 47.3991 
-112.434 -106.577 46.6972 -112.143 -106.543 50.8899 -112.407 -106.318 51.8724 
-112.132 -106.666 49.5311 -112.354 -106.934 48.4344 -112.744 -107.561 47.7541 
-113.223 -108.243 47.3147 -113.074 -107.833 51.6954 -113.517 -107.89 52.0735 
-112.88 -107.9 50.7589 -113.012 -108.187 49.7045 -113.347 -108.769 48.9579 
-113.561 -109.557 48.479 -113.7 -110.385 48.1469 -114.321 -109.692 51.9129 
-114.781 -109.796 52.045 -114.003 -109.812 51.4205 -113.915 -110.253 50.7941 
-113.985 -110.766 50.2962 -113.834 -111.223 49.8084 -113.502 -111.842 49.3137 
-113.499 -112.601 48.9902 -115.173 -111.759 52.4515 -115.557 -111.652 52.5947 
-114.834 -112.052 52.0673 -114.589 -112.616 51.6462 -114.416 -113.135 51.4071 
-113.999 -113.276 51.1092 -113.29 -113.366 50.542 -112.893 -113.808 50.0245 
-113.166 -114.364 49.8506 -115.412 -113.596 53.4642 -115.776 -113.277 53.5744 
-115.046 -114.029 53.1652 -114.689 -114.556 52.805 -114.371 -115.001 52.5684 
-113.933 -115.114 52.3398 -113.223 -115.002 51.848 -112.612 -115.097 51.2146 
-112.609 -115.457 50.8383 -113.144 -115.76 50.8352 -113.576 -117.11 51.991 
-112.933 -117.129 51.9326 -113.436 -118.705 53.2075 -112.474 -116.982 52.1297 
-112.838 -118.901 53.4147 -113.195 -120.486 54.6783 -112.514 -116.75 52.6787 
-112.414 -118.881 53.884 -112.61 -120.726 55.1609 -112.779 -122.169 56.2003 
-112.974 -116.607 53.3521 -112.296 -118.597 54.5361 -112.138 -120.702 55.7822 
-112.139 -122.33 56.767 -112.231 -123.745 57.5395 -113.506 -116.521 53.8531 
-112.517 -118.167 55.1947 -111.939 -120.337 56.4246 -111.675 -122.275 57.3772 
-111.533 -123.837 58.0591 -111.724 -125.156 58.7978 -114.012 -116.377 54.1176 
-113.084 -117.883 55.614 -112.295 -119.825 56.9296 -111.707 -121.949 57.9454 
-111.246 -123.667 58.6735 -111.134 -125.089 59.3676 -111.541 -126.215 60.2499 
-114.542 -116.085 54.2935 -113.846 -117.818 55.6554 -113.164 -119.577 57.0025 
-112.423 -121.565 58.1966 -111.643 -123.269 59.2112 -111.172 -124.596 60.0943 
-111.252 -125.861 60.9827 -111.695 -127.04 61.8363 -115.042 -115.623 54.4661 
-114.545 -117.617 55.5511 -114.065 -119.477 56.7371 -113.438 -121.329 58.0067 
-112.568 -122.923 59.317 -111.825 -124.025 60.606 -111.57 -125.074 61.7526 
-111.697 -126.396 62.6432 -111.946 -127.733 63.2051 -115.492 -115.121 54.567 
-115.111 -117.149 55.5061 -114.732 -119.128 56.5375 -114.259 -120.987 57.7614 
-113.55 -122.611 59.1101 -112.762 -123.704 60.5926 -112.252 -124.472 62.0923 
-112.101 -125.498 63.266 -112.12 -126.848 63.9302 -112.224 -128.101 64.1768 
-114.088 -118.081 52.8387 -113.901 -119.82 54.1371 -114.598 -119.209 53.6118 
-113.539 -121.673 55.5934 -114.342 -121.024 55.002 -115.125 -120.409 54.3201 
-113.081 -123.443 57.0208 -113.951 -122.91 56.4195 -114.783 -122.255 55.7039 
-115.649 -121.52 54.9885 -112.63 -124.972 58.384 -113.584 -124.576 57.7927 
-114.429 -124.049 57.002 -115.302 -123.382 56.2086 -116.265 -122.503 55.5815 
-112.345 -126.136 59.8617 -113.324 -125.777 59.286 -114.18 -125.447 58.3965 
-115.039 -125.02 57.4539 -116.039 -124.281 56.6933 -116.985 -123.336 56.0388 
-112.265 -127.187 61.4156 -113.164 -126.814 60.8585 -114.035 -126.476 59.969 
-114.87 -126.261 58.9342 -115.874 -125.718 58.0264 -116.866 -124.893 57.1694 
-117.641 -124.034 56.3124 -112.246 -128.25 62.7466 -112.965 -128.065 62.1768 
-113.868 -127.581 61.3515 -114.762 -127.28 60.3402 -115.774 -126.847 59.4298 
-116.826 -126.089 58.5381 -117.638 -125.378 57.4743 -118.265 -124.654 56.4843 
-112.334 -128.909 63.7159 -112.836 -129.103 63.1295 -113.688 -128.699 62.3588 
-114.664 -128.228 61.3862 -115.711 -127.805 60.461 -116.83 -127.103 59.7072 
-117.771 -126.363 58.791 -118.421 -125.837 57.6444 -118.965 -125.144 56.6631 
-112.684 -128.617 64.6499 -112.978 -129.303 64.0993 -113.684 -128.594 65.1129 
-114.317 -129.096 64.5036 -115.222 -128.468 65.6545 -113.693 -129.356 63.3823 
-116.117 -128.946 64.9252 -116.841 -128.801 66.0124 -115.239 -129.154 63.6665 
-114.686 -128.966 62.4329 -117.708 -129.339 65.0568 -118.389 -129.354 66.0478 
-116.992 -129.225 63.8951 -116.186 -129.074 62.5243 -115.754 -128.602 61.3336 
-119.114 -129.787 64.9272 -120.095 -129.732 65.958 -118.403 -129.674 63.8194 
-117.722 -129.474 62.5676 -117.145 -128.953 61.3084 -116.908 -128.066 60.4524 
-120.737 -129.971 64.7065 -121.762 -129.948 65.6215 -119.794 -129.896 63.5339 
-119.127 -129.801 62.4094 -118.571 -129.313 61.3012 -118.217 -128.305 60.4309 
-118.016 -127.232 59.7233 -122.318 -129.923 64.1529 -122.995 -129.748 64.7915 
-121.394 -129.871 63.0787 -120.644 -129.767 62.014 -120.035 -129.374 61.0855 
-119.513 -128.465 60.292 -119.168 -127.422 59.581 -118.821 -126.602 58.6874 
-123.456 -129.469 63.2073 -123.81 -129.015 63.6995 -122.778 -129.648 62.3373 
-122.073 -129.615 61.3783 -121.446 -129.295 60.541 -120.773 -128.556 59.8128 
-120.21 -127.621 59.1525 -119.805 -126.822 58.4021 -119.374 -126.072 57.502 
-124.223 -128.73 62.2226 -124.446 -128.18 62.714 -123.741 -129.087 61.4901 
-123.121 -129.223 60.6538 -122.53 -129.08 59.8809 -121.869 -128.582 59.1737 
-121.166 -127.806 58.5162 -120.652 -126.968 57.9042 -120.267 -126.123 57.2548 
-119.871 -125.159 56.5871 -112.547 -127.434 64.8797 -113.175 -127.747 65.4156 
-113.042 -126.671 65.4688 -113.876 -126.906 66.1166 -113.772 -125.969 65.8965 
-114.347 -127.763 66.02 -114.822 -126.207 66.6037 -114.84 -125.255 65.9976 
-115.165 -127.174 66.7563 -115.86 -128.019 66.6065 -115.967 -125.502 66.5601 
-116.029 -124.687 65.4235 -116.227 -126.648 67.0095 -116.74 -127.611 67.1676 
-117.523 -128.539 66.8586 -117.018 -124.988 65.6989 -117.057 -124.43 64.1636 
-117.335 -126.003 66.5532 -117.934 -126.951 67.0073 -118.657 -127.845 67.1694 
-119.436 -128.94 66.7996 -117.972 -124.692 64.27 -118.028 -124.112 62.7638 
-118.216 -125.464 65.4677 -118.92 -126.255 66.199 -119.789 -126.96 66.6604 
-120.585 -128.1 66.7977 -121.269 -129.349 66.4694 -119.014 -124.162 62.8774 
-118.991 -123.39 61.6704 -119.097 -124.875 64.1262 -119.575 -125.621 65.1002 
-120.38 -126.283 65.7001 -121.156 -127.237 65.9683 -121.87 -128.574 65.9928 
-122.534 -129.521 65.66 -119.926 -123.262 61.8282 -119.737 -122.381 60.8945 
-120.033 -123.992 62.8867 -120.285 -124.728 63.9278 -120.843 -125.482 64.7164 
-121.466 -126.33 65.0333 -122.042 -127.437 65.0302 -122.709 -128.443 64.9346 
-123.37 -128.929 64.5472 -120.501 -122.202 61.0468 -120.222 -121.297 60.2695 
-120.727 -122.979 61.8744 -120.975 -123.682 62.7706 -121.442 -124.407 63.6644 
[...]
CELL_DATA 2000
SCALARS Distance double
LOOKUP_TABLE default
166.992 167.006 167.443 168.375 167.12 167.513 168.452 168.878 169.787 
167.317 167.66 168.58 168.98 169.904 170.286 171.136 167.628 167.905 
168.807 169.139 170.071 170.436 171.345 171.662 172.538 168.011 168.258 
169.152 169.424 170.362 170.676 171.644 171.948 172.905 173.178 174.139 
168.384 168.628 169.516 169.793 170.738 171.035 172.023 172.318 173.312 
173.595 174.579 174.849 175.786 168.763 168.977 169.845 170.14 171.104 
171.425 172.42 172.721 173.704 174 174.964 175.259 176.165 176.422 
177.218 169.146 169.345 170.179 170.465 171.435 171.779 172.789 173.108 
174.078 174.372 175.31 175.606 176.489 176.754 177.536 177.744 178.428 
169.471 169.702 170.524 170.803 171.753 172.099 173.101 173.447 174.402 
174.714 175.624 175.924 176.786 177.055 177.826 178.043 178.73 178.907 
179.541 166.11 164.801 165.65 166.095 163.484 164.337 164.769 165.679 
166.196 162.085 162.97 163.363 164.309 164.823 165.8 166.381 160.726 
161.563 161.954 162.868 163.364 164.373 164.996 166.027 166.686 159.618 
160.323 160.755 161.548 162.052 162.953 163.577 164.611 165.345 166.389 
167.085 158.71 159.324 159.724 160.449 160.944 161.754 162.332 163.254 
163.971 165.028 165.82 166.833 167.516 157.898 158.436 158.73 159.404 
159.827 160.642 161.177 162.057 162.711 163.703 164.53 165.59 166.421 
167.334 167.988 157.26 157.678 157.938 158.452 158.822 159.524 160.063 
160.9 161.572 162.502 163.347 164.382 165.319 166.298 167.084 167.861 
168.437 156.889 157.176 157.485 157.829 158.225 158.704 159.269 159.926 
160.658 161.467 162.357 163.306 164.288 165.265 166.122 166.962 167.576 
168.274 168.753 156.887 157.197 157.168 157.478 157.764 157.604 157.966 
157.869 158.272 158.736 158.384 158.804 158.546 158.991 158.813 159.332 
160.06 159.556 159.929 159.529 159.954 159.675 160.206 160.04 160.711 
161.549 160.958 161.249 160.724 161.084 160.715 161.285 161.055 161.803 
161.624 162.462 163.268 162.535 162.872 162.177 162.615 162.047 162.731 
162.338 163.198 162.892 163.774 163.522 164.399 165.303 164.447 164.911 
164.069 164.699 163.94 164.777 164.135 165.004 164.459 165.211 164.831 
165.545 165.364 166.11 167.353 166.569 167.08 166.278 166.957 166.22 
167.049 166.364 167.087 166.368 166.815 166.203 166.591 166.313 166.858 
166.835 167.461 169.07 168.481 168.951 168.333 168.882 168.307 168.913 
168.39 168.873 168.254 168.451 167.731 167.842 167.315 167.666 167.487 
168.067 168.063 168.656 169.367 168.852 169.559 170.536 168.506 169.113 
170.214 170.93 172.041 168.653 168.967 170.062 170.702 171.907 172.53 
173.565 169.204 169.296 170.189 170.643 171.795 172.42 173.465 173.987 
174.862 169.684 169.818 170.497 170.778 171.734 172.298 173.32 173.862 
174.709 175.187 175.981 169.882 170.171 170.858 171.051 171.871 172.273 
173.268 173.752 174.624 175.04 175.804 176.267 177.069 169.948 170.344 
171.193 171.419 172.27 172.529 173.512 173.85 174.76 175.052 175.796 
176.132 176.907 177.381 178.235 169.991 170.44 171.386 171.743 172.668 
172.969 173.937 174.222 175.12 175.32 176.034 176.218 176.912 177.264 
178.086 178.583 179.422 170.031 170.482 171.425 171.88 172.824 173.254 
174.198 174.58 175.448 175.703 176.396 176.527 177.135 177.337 178.045 
178.442 179.224 179.708 180.395 169.895 171.101 170.651 171.05 172.559 
172.012 172.424 171.912 172.335 174.03 173.513 173.92 173.377 173.799 
173.269 173.688 175.349 174.939 175.385 174.883 175.298 174.756 175.153 
174.616 174.984 176.513 176.206 176.715 176.304 176.731 176.227 176.605 
176.073 176.439 175.888 176.216 177.623 177.352 177.888 177.557 177.997 
177.582 177.959 177.486 177.853 177.338 177.675 177.103 177.373 178.806 
178.505 179.052 178.705 179.151 178.774 179.175 178.775 179.159 178.71 
179.043 178.522 178.773 178.195 178.38 179.983 179.715 180.257 179.895 
180.314 179.917 180.304 179.939 180.334 179.954 180.288 179.827 180.069 
179.536 179.712 179.134 179.268 180.898 180.771 181.268 181.022 181.381 
181.035 181.337 181.003 181.343 181.039 181.366 180.995 181.241 180.776 
180.967 180.436 180.586 179.996 180.091 181.426 182.222 181.855 181.823 
183.105 182.653 182.632 182.169 181.973 184.305 183.67 183.601 183.014 
182.822 182.244 181.955 185.658 184.956 184.839 184.118 183.887 183.177 
182.892 182.248 181.971 186.937 186.237 186.056 185.36 185.11 184.357 
184.035 183.279 182.966 182.302 182.002 188.1 187.42 187.116 186.451 
186.172 185.527 185.197 184.458 184.056 183.32 182.932 182.279 181.888 
188.855 188.412 188.027 187.411 187.042 186.468 186.128 185.502 185.043 
184.336 183.839 183.172 182.72 182.09 181.633 188.902 188.837 188.493 
188.126 187.695 187.228 186.829 186.303 185.813 185.179 184.605 183.972 
183.455 182.87 182.383 181.777 181.259 188.521 188.652 188.409 188.317 
187.909 187.655 187.207 186.848 186.331 185.822 185.204 184.621 184.028 
183.494 182.963 182.436 181.88 181.309 180.731 181.261 181.238 181.521 
182.054 181.308 181.538 182.128 182.36 182.98 181.514 181.707 182.379 
182.569 183.298 183.477 184.236 181.711 181.947 182.68 182.919 183.71 
183.9 184.72 184.876 185.648 181.776 182.075 182.787 183.156 183.955 
184.271 185.076 185.334 186.163 186.319 187.029 181.729 182.055 182.691 
183.125 183.877 184.339 185.091 185.512 186.312 186.704 187.519 187.688 
188.276 181.568 181.941 182.501 182.926 183.578 184.096 184.773 185.306 
185.98 186.565 187.298 187.86 188.468 188.714 188.982 181.215 181.682 
182.183 182.629 183.153 183.678 184.26 184.838 185.399 186.008 186.549 
187.255 187.743 188.394 188.632 188.973 188.912 180.66 181.209 181.67 
182.177 182.607 183.137 183.627 184.226 184.745 185.34 185.792 186.391 
186.77 187.415 187.665 188.231 188.264 188.603 188.463 170.368 171.415 
171.17 171.776 172.687 172.339 172.954 172.636 173.229 174.063 173.701 
174.294 173.895 174.457 174.108 174.647 175.298 175.025 175.588 175.22 
175.71 175.346 175.847 175.496 175.915 176.361 176.147 176.704 176.419 
176.909 176.569 177.041 176.683 177.075 176.657 176.884 177.367 177.157 
177.736 177.497 178.059 177.757 178.263 177.887 178.266 177.813 178.027 
177.515 177.636 178.345 178.155 178.754 178.545 179.146 178.899 179.412 
179.078 179.423 178.987 179.182 178.676 178.827 178.299 178.506 179.262 
179.121 179.729 179.553 180.115 179.916 180.369 180.111 180.399 180.045 
180.207 179.781 179.932 179.484 179.714 179.264 179.585 180.064 179.998 
180.599 180.471 180.973 180.793 181.176 180.951 181.225 180.931 181.119 
180.75 180.909 180.518 180.723 180.367 180.651 180.319 180.646 169.653 
168.865 169.727 170.686 168.03 168.952 169.969 170.842 171.919 167.165 
168.154 169.241 170.134 171.233 172.144 173.274 166.298 167.351 168.596 
169.497 170.616 171.459 172.589 173.493 174.555 165.537 166.567 167.998 
168.973 170.215 170.958 172.043 172.832 173.94 174.759 175.717 165.073 
165.931 167.366 168.402 169.749 170.587 171.664 172.377 173.448 174.223 
175.283 175.958 176.812 164.939 165.586 166.83 167.752 169.003 169.964 
171.043 171.905 172.953 173.783 174.869 175.594 176.524 177.067 177.814 
164.968 165.482 166.544 167.245 168.32 169.156 170.198 171.124 172.224 
173.192 174.332 175.179 176.153 176.774 177.53 178.027 178.7 165.052 
165.487 166.469 167.012 168.01 168.618 169.621 170.365 171.497 172.43 
173.657 174.591 175.649 176.364 177.145 177.69 178.343 178.857 179.484 
165.427 166.526 166.244 166.85 167.76 167.436 168.061 167.756 168.374 
169.048 168.707 169.355 169.032 169.665 169.312 169.951 170.409 170.023 
170.668 170.341 171.04 170.688 171.401 171.017 171.819 171.846 171.438 
172.089 171.705 172.449 172.111 172.936 172.577 173.444 173.069 173.974 
173.261 172.897 173.605 173.206 173.976 173.603 174.469 174.139 175.029 
174.691 175.517 175.174 175.915 174.628 174.305 175.053 174.717 175.497 
175.156 175.989 175.676 176.516 176.198 176.927 176.583 177.178 176.853 
177.367 175.982 175.675 176.416 176.117 176.866 176.583 177.347 177.094 
177.858 177.592 178.254 177.906 178.42 178.036 178.481 178.137 178.569 
177.269 177.002 177.727 177.448 178.162 177.879 178.571 178.323 179.01 
178.798 179.427 179.149 179.639 179.258 179.659 179.266 179.67 179.316 
179.719 178.182 179.723 178.869 178.682 181.261 180.442 180.286 179.38 
179.14 182.704 181.955 181.842 180.992 180.752 179.806 179.521 184.084 
183.357 183.249 182.482 182.263 181.382 181.068 180.153 179.891 185.5 
184.758 184.632 183.85 183.632 182.812 182.508 181.644 181.339 180.5 
180.249 186.727 186.127 185.984 185.232 184.975 184.158 183.842 183.012 
182.673 181.864 181.536 180.76 180.428 187.434 187.097 186.912 186.4 
186.098 185.425 185.055 184.29 183.884 183.097 182.688 181.937 181.548 
180.815 180.426 187.796 187.58 187.397 187.066 186.771 186.314 185.939 
185.353 184.91 184.207 183.726 182.993 182.56 181.866 181.491 180.785 
180.421 188.185 187.968 187.907 187.552 187.343 186.892 186.569 186.072 
185.672 185.097 184.621 183.953 183.478 182.817 182.436 181.804 181.469 
180.792 180.444 178.158 178.617 178.841 179.718 179.104 179.372 180.322 
180.445 181.269 179.519 179.905 180.975 181.125 181.976 181.998 182.738 
179.679 180.247 181.422 181.764 182.696 182.758 183.492 183.45 184.142 
179.569 180.258 181.443 182.038 183.047 183.362 184.116 184.184 184.85 
184.85 185.534 179.327 180.038 181.155 181.871 182.865 183.446 184.221 
184.575 185.224 185.43 186.081 186.184 186.753 179.008 179.711 180.735 
181.469 182.389 183.07 183.831 184.401 185.074 185.541 186.204 186.538 
187.092 187.203 187.516 178.629 179.302 180.229 180.959 181.83 182.527 
183.285 183.909 184.608 185.203 185.907 186.441 187.037 187.354 187.69 
187.74 187.874 178.249 178.863 179.701 180.394 181.238 181.944 182.732 
183.377 184.09 184.697 185.376 185.991 186.591 187.102 187.485 187.755 
187.933 188.002 188.141 177.22 175.798 176.867 177.582 174.226 175.317 
175.966 177.161 177.929 172.652 173.679 174.21 175.406 176.118 177.446 
178.236 171.121 172.092 172.541 173.631 174.255 175.546 176.318 177.68 
178.395 169.619 170.558 170.993 172.005 172.562 173.722 174.425 175.73 
176.446 177.75 178.344 168.225 169.099 169.555 170.509 171.055 172.096 
172.713 173.881 174.532 175.792 176.401 177.651 178.164 166.982 167.785 
168.26 169.155 169.731 170.676 171.274 172.269 172.863 173.957 174.557 
175.74 176.307 177.482 177.942 165.849 166.596 167.051 167.912 168.501 
169.425 170.063 170.966 171.578 172.48 173.084 174.066 174.667 175.723 
176.252 177.296 177.688 164.807 165.491 165.895 166.709 167.268 168.199 
168.869 169.809 170.477 171.343 171.962 172.802 173.386 174.269 174.797 
175.723 176.157 177.078 177.405 164.353 164.033 164.59 165.449 163.86 
164.374 165.334 165.852 166.858 163.898 164.357 165.427 165.891 166.999 
167.448 168.528 164.081 164.509 165.656 166.116 167.289 167.708 168.837 
169.208 170.216 164.4 164.757 165.911 166.383 167.576 168.022 169.138 
169.533 170.553 170.866 171.746 164.915 165.164 166.297 166.688 167.884 
168.301 169.393 169.784 170.768 171.143 172.041 172.332 173.133 165.529 
165.737 166.841 167.152 168.318 168.659 169.721 170.037 170.952 171.292 
172.145 172.52 173.338 173.661 174.443 166.116 166.326 167.361 167.668 
168.74 169.079 170.063 170.364 171.199 171.471 172.232 172.566 173.356 
173.754 174.563 174.929 175.718 166.699 166.871 167.813 168.093 169.042 
169.382 170.265 170.607 171.39 171.682 172.391 172.668 173.407 173.761 
174.581 174.985 175.81 176.176 176.943 167.354 168.711 168.141 168.428 
170.079 169.506 169.735 169.228 169.562 171.402 170.845 171.046 170.509 
170.774 170.333 170.697 172.808 172.199 172.445 171.85 172.112 171.573 
171.895 171.459 171.811 174.432 173.741 174.053 173.366 173.677 173.018 
173.333 172.749 173.07 172.568 172.855 176.092 175.448 175.799 175.094 
175.428 174.697 175.005 174.299 174.599 173.954 174.242 173.646 173.92 
177.506 177.016 177.382 176.81 177.16 176.483 176.784 176.038 176.321 
175.588 175.89 175.189 175.494 174.82 175.127 178.694 178.299 178.668 
178.243 178.623 178.112 178.444 177.793 178.062 177.336 177.617 176.904 
177.212 176.503 176.796 176.094 176.373 179.812 179.445 179.82 179.439 
179.829 179.438 179.806 179.323 179.601 178.991 179.219 178.571 178.826 
178.18 178.435 177.76 177.979 177.294 177.498 178.306 178.823 178.945 
179.727 179.301 179.469 180.286 180.422 181.24 179.693 179.913 180.764 
180.97 181.834 181.969 182.755 180.06 180.279 181.114 181.38 182.264 
182.513 183.342 183.449 184.139 180.405 180.636 181.421 181.681 182.512 
182.83 183.657 183.92 184.643 184.755 185.385 180.587 180.907 181.677 
181.96 182.744 183.037 183.82 184.122 184.846 185.104 185.761 185.931 
186.521 180.605 180.995 181.779 182.14 182.928 183.249 184.025 184.303 
185.024 185.265 185.924 186.163 186.759 186.948 187.4 180.593 180.989 
181.773 182.174 182.942 183.335 184.096 184.466 185.197 185.478 186.126 
186.331 186.905 187.094 187.555 187.672 187.934 180.556 180.962 181.707 
182.123 182.822 183.24 183.915 184.378 185.074 185.524 186.162 186.484 
187.011 187.227 187.676 187.816 188.142 188.144 188.281 156.569 156.936 
156.531 156.197 157.579 157.034 156.653 156.22 156.044 158.345 157.752 
157.363 156.808 156.566 156.236 156.364 159.229 158.57 158.204 157.589 
157.351 156.883 156.932 156.745 157.125 160.411 159.62 159.352 158.595 
158.441 157.811 157.87 157.46 157.766 157.619 158.138 161.843 161.007 
160.863 160 159.946 159.143 159.246 158.603 158.886 158.459 158.923 
158.749 159.395 163.252 162.497 162.415 161.618 161.599 160.79 160.871 
160.129 160.351 159.751 160.141 159.74 160.318 160.147 160.87 164.575 
163.879 163.837 163.128 163.127 162.395 162.446 161.731 161.886 161.248 
161.554 161.047 161.523 161.195 161.815 161.661 162.338 165.917 165.231 
165.258 164.559 164.621 163.897 163.984 163.264 163.431 162.769 163.062 
162.485 162.893 162.437 162.946 162.652 163.225 163.065 163.636 156.412 
156.044 156.222 156.373 155.951 155.975 156.225 156.446 156.891 156.382 
156.161 156.475 156.515 157.084 157.238 157.784 157.227 156.866 157.203 
157.033 157.614 157.624 158.235 158.241 158.699 158.267 157.85 158.203 
157.917 158.433 158.299 158.896 158.821 159.326 159.199 159.622 159.527 
159.009 159.396 159.006 159.49 159.202 159.731 159.559 160.099 159.94 
160.407 160.217 160.683 160.984 160.392 160.781 160.302 160.78 160.358 
160.826 160.488 160.993 160.775 161.289 161.079 161.532 161.326 161.8 
162.417 161.855 162.18 161.698 162.12 161.68 162.096 161.665 162.088 
161.754 162.244 161.996 162.462 162.207 162.627 162.426 162.915 163.679 
163.187 163.444 163 163.342 162.945 163.314 162.906 163.266 162.881 
163.297 162.995 163.447 163.161 163.568 163.288 163.716 163.544 164.086 
156.636 156.611 156.683 156.964 157.063 156.855 157.038 157.074 157.468 
157.854 157.48 157.581 157.347 157.638 157.723 158.371 158.701 158.311 
158.458 158.101 158.379 158.15 158.711 158.847 159.716 159.604 159.182 
159.454 159.12 159.562 159.178 159.695 159.456 160.21 160.333 161.269 
160.656 160.172 160.469 160.173 160.737 160.461 161.038 160.656 161.26 
161.053 161.906 161.999 163.012 161.787 161.286 161.512 161.178 161.635 
161.491 162.067 161.892 162.464 162.215 162.953 162.852 163.866 163.933 
165.046 162.961 162.459 162.689 162.242 162.579 162.306 162.805 162.711 
163.356 163.285 164.064 163.982 164.949 164.934 166.013 166.057 167.098 
164.204 163.708 164.036 163.518 163.906 163.414 163.934 163.597 164.342 
164.194 165.119 165.059 166.052 166.022 167.012 167.017 167.948 167.986 
168.829 176.672 175.366 175.789 175.268 173.988 174.419 173.896 174.322 
173.761 172.613 173.018 172.459 172.907 172.379 172.807 172.245 171.227 
171.629 171.028 171.453 170.899 171.378 170.856 171.295 170.73 169.801 
170.21 169.594 170.01 169.417 169.881 169.361 169.857 169.341 169.775 
169.226 168.411 168.778 168.159 168.567 167.979 168.413 167.893 168.377 
167.911 168.378 167.885 168.299 167.817 167.109 167.419 166.805 167.178 
166.631 167.024 166.524 166.96 166.522 166.988 166.55 166.979 166.524 
166.947 166.552 165.894 166.153 165.557 165.899 165.403 165.762 165.292 
165.661 165.228 165.652 165.252 165.683 165.268 165.68 165.289 165.738 
165.422 164.826 165.01 164.442 164.73 164.284 164.616 164.185 164.502 
164.066 164.423 164.04 164.444 164.079 164.471 164.104 164.51 164.192 
164.655 164.399 
POINT_DATA 1002
SCALARS Distance double
LOOKUP_TABLE default
167.895 166.574 166.509 167.926 166.586 169.306 168.031 166.746 169.403 
170.655 168.205 167.002 169.508 170.805 171.952 168.51 167.376 169.709 
171.001 172.236 173.431 168.892 167.771 170.058 171.324 172.612 173.872 
175.119 169.226 168.161 170.435 171.728 173.022 174.308 175.561 176.684 
169.551 168.583 170.764 172.118 173.419 174.676 175.914 177.025 177.95 
169.906 168.954 171.086 172.46 173.793 175.027 176.231 177.326 178.261 
179.075 170.248 169.215 171.421 172.754 174.091 175.328 176.52 177.611 
178.545 179.388 180.163 165.248 165.194 163.964 163.856 162.634 165.26 
162.423 161.2 163.813 165.398 161.07 159.911 162.371 163.911 165.683 
159.993 158.952 161.207 162.581 164.242 166.112 159.031 158.153 160.151 
161.478 162.942 164.732 166.62 158.131 157.415 159.033 160.3 161.755 
163.44 165.422 167.226 157.492 156.878 158.195 159.242 160.649 162.316 
164.288 166.251 167.779 157.162 156.631 157.803 158.68 159.89 161.439 
163.318 165.261 166.859 168.092 156.873 157.472 157.25 158.094 157.953 
158.337 159.111 159.148 159.213 159.428 160.415 160.623 160.267 160.387 
160.805 161.841 162.186 161.495 161.494 161.976 162.63 163.579 164.04 
163.198 163.155 163.546 164.073 164.622 165.723 166.148 165.432 165.471 
165.708 165.762 165.803 166.216 167.838 168.074 167.682 167.761 167.918 
167.64 167.051 166.927 167.436 169.536 169.605 169.484 169.485 169.498 
169.21 168.509 167.973 168.102 168.665 170.223 169.793 171.597 169.449 
171.404 173.126 169.485 171.259 173.065 174.508 169.9 171.192 172.942 
174.392 175.691 170.351 171.25 172.768 174.256 175.483 176.774 170.672 
171.562 172.808 174.236 175.386 176.546 177.89 170.882 172.031 173.224 
174.51 175.537 176.468 177.709 179.108 170.959 172.322 173.656 174.937 
175.919 176.652 177.619 178.935 180.225 170.956 172.365 173.79 175.152 
176.26 177.015 177.744 178.775 179.965 180.997 171.485 172.957 172.833 
174.46 174.346 174.222 175.853 175.848 175.705 175.538 177.08 177.215 
177.134 176.981 176.803 178.207 178.38 178.4 178.346 178.235 177.991 
179.422 179.532 179.545 179.583 179.552 179.345 178.986 180.616 180.736 
180.678 180.691 180.73 180.586 180.278 179.875 181.473 181.716 181.694 
181.643 181.699 181.673 181.467 181.158 180.726 181.811 182.282 182.576 
183.106 183.637 182.512 184.272 185.009 183.43 182.529 185.591 186.379 
184.658 183.577 182.574 186.745 187.689 185.836 184.841 183.691 182.638 
187.83 188.786 186.777 185.908 184.846 183.633 182.529 188.624 189.159 
187.632 186.724 185.755 184.531 183.357 182.278 188.734 188.82 188.127 
187.333 186.435 185.254 184.032 182.978 181.896 188.406 188.341 188.094 
187.511 186.78 185.781 184.58 183.474 182.438 181.307 180.977 181.776 
180.962 181.878 181.084 182.732 182.162 181.299 183.1 184.065 182.383 
181.455 183.496 184.538 185.558 182.389 181.489 183.59 184.782 185.911 
187.023 182.292 181.411 183.397 184.646 185.847 187.182 188.356 182.123 
181.174 183.093 184.248 185.428 186.67 188.047 189.004 181.753 180.721 
182.676 183.695 184.841 185.929 187.052 188.134 188.761 181.156 180.105 
182.105 183.045 184.145 185.252 186.197 187.064 187.801 188.232 170.547 
172.012 171.69 173.319 173.056 173.535 174.732 174.405 174.838 175.003 
175.943 175.552 176.095 176.205 176.337 176.951 176.585 177.224 177.413 
177.511 177.38 177.941 177.58 178.321 178.638 178.742 178.552 178.155 
178.947 178.514 179.378 179.742 179.861 179.673 179.328 179.002 179.906 
179.37 180.338 180.634 180.736 180.608 180.347 180.125 180.016 168.811 
169.827 167.962 169.07 167.06 171.015 168.334 166.105 170.323 172.368 
167.619 165.174 169.839 171.693 173.713 166.913 164.528 169.464 171.348 
173.095 175.018 166.356 164.339 168.831 170.954 172.695 174.561 176.276 
166.066 164.414 168.07 170.109 172.071 174.101 175.951 177.351 165.969 
164.522 167.6 169.292 171.196 173.411 175.491 177.023 178.221 165.973 