# vtk DataFile Version 4.0
vtk output
ASCII
DATASET POLYDATA
POINTS 1002 float
-120.227 -110.246 49.848 -120.215 -109.221 48.7987 -119.779 -109.219 49.3356 
-119.794 -110.301 50.4367 -119.22 -109.44 49.8602 -120.316 -111.244 51.1788 
-119.161 -110.616 51.0186 -118.444 -109.997 50.2705 -119.805 -111.391 51.9152 
-120.366 -112.334 52.7899 -118.346 -111.228 51.6001 -117.634 -110.533 50.8998 
-119.122 -111.874 52.6226 -119.813 -112.737 53.6423 -120.302 -113.905 54.36 
-117.679 -111.779 52.4848 -117.088 -110.871 51.9341 -118.448 -112.621 53.3292 
-119.228 -113.47 54.3874 -119.842 -114.629 55.155 -120.225 -115.978 55.5941 
-117.267 -112.287 53.5821 -116.665 -111.451 52.9073 -117.987 -113.293 54.2617 
-118.699 -114.305 55.1041 -119.313 -115.472 55.8771 -119.781 -116.829 56.3178 
-120.102 -118.036 56.6862 -116.809 -113.117 54.4251 -116.104 -112.447 53.5422 
-117.595 -113.976 55.2793 -118.237 -115.048 55.9988 -118.683 -116.28 56.6364 
-119.095 -117.626 57.1045 -119.452 -118.856 57.4799 -119.782 -119.766 57.9656 
-116.317 -114.146 55.1043 -115.628 -113.466 54.239 -117.14 -114.855 56.134 
-117.788 -115.834 56.9765 -118.113 -117.104 57.5258 -118.374 -118.438 57.953 
-118.687 -119.625 58.3746 -119.001 -120.582 58.8425 -119.399 -121.323 59.3389 
-116.032 -115.033 56.0211 -115.464 -114.278 55.2695 -116.742 -115.766 56.9705 
-117.332 -116.687 57.8734 -117.621 -117.932 58.4675 -117.813 -119.284 58.8512 
-118.094 -120.424 59.2836 -118.38 -121.332 59.7768 -118.697 -122.132 60.2004 
-119.141 -122.818 60.5136 -115.869 -115.747 57.1268 -115.436 -114.965 56.4187 
-116.392 -116.569 57.9019 -116.837 -117.522 58.6733 -117.072 -118.68 59.3085 
-117.24 -119.98 59.7571 -117.533 -121.142 60.1776 -117.881 -122.025 60.6729 
-118.184 -122.784 61.0978 -118.522 -123.51 61.3341 -118.954 -124.118 61.449 
-119.937 -108.203 48.1687 -119.337 -108.211 48.7706 -119.424 -107.257 47.5396 
-118.626 -107.327 48.0584 -118.65 -106.417 46.7819 -118.618 -108.611 49.2038 
-117.847 -106.512 47.2467 -117.956 -105.482 46.1545 -117.859 -107.792 48.4521 
-117.79 -109.26 49.5773 -117.338 -105.556 46.8627 -117.512 -104.386 46.0524 
-117.208 -106.85 47.8934 -117.11 -108.377 49.0053 -117.062 -109.701 50.3498 
-116.862 -104.51 46.8858 -116.909 -103.354 46.1501 -116.727 -105.75 47.7652 
-116.474 -107.336 48.7183 -116.42 -108.857 49.9062 -116.556 -110.097 51.4098 
-116.038 -103.621 46.7236 -116.005 -102.51 46.0531 -116.096 -104.725 47.6209 
-115.888 -106.224 48.5458 -115.675 -107.99 49.5515 -115.817 -109.474 50.8518 
-116.005 -110.89 52.2411 -115.249 -102.96 46.683 -115.315 -101.808 46.2118 
-115.331 -103.99 47.5111 -115.354 -105.247 48.4332 -115.138 -107.003 49.3204 
-115.047 -108.722 50.4101 -115.221 -110.249 51.6891 -115.393 -111.887 52.9377 
-114.952 -102.481 47.3482 -115.106 -101.287 47.0225 -114.81 -103.536 48.0307 
-114.84 -104.58 48.8541 -114.841 -106.057 49.5766 -114.674 -107.738 50.3569 
-114.637 -109.3 51.4211 -114.811 -110.994 52.6278 -115.082 -112.776 53.8864 
-114.908 -102.171 48.45 -115.069 -101.029 48.1983 -114.554 -103.243 48.965 
-114.322 -104.198 49.6534 -114.387 -105.382 50.2949 -114.446 -106.802 50.8402 
-114.401 -108.213 51.5484 -114.494 -109.837 52.5554 -114.756 -111.774 53.7447 
-115.088 -113.58 55.0517 -114.762 -101.666 49.5134 -114.364 -102.756 49.771 
-113.91 -102.324 50.7015 -113.34 -103.292 50.7726 -112.881 -102.902 51.845 
-113.835 -103.767 50.2034 -112.498 -104.016 51.9164 -112.421 -103.785 53.3129 
-112.953 -104.452 51.1104 -113.66 -104.87 50.8298 -112.282 -105.247 53.8056 
-112.506 -105.144 55.0636 -112.505 -105.516 52.4873 -113.092 -105.756 51.8686 
-113.89 -106.127 51.4787 -112.344 -106.544 55.888 -112.728 -106.335 56.775 
-112.494 -106.759 54.5825 -112.954 -106.76 53.3923 -113.57 -106.829 52.6907 
-114.128 -107.348 52.0839 -112.749 -107.361 57.3023 -113.318 -107.094 58.0994 
-112.759 -107.678 56.3135 -113.2 -107.726 55.1114 -113.662 -107.645 54.1322 
-114.063 -108.015 53.4342 -114.336 -108.869 52.8865 -113.826 -108.257 57.9496 
-114.413 -108.14 58.6346 -113.624 -108.533 57.1989 -113.889 -108.794 56.3103 
-114.187 -108.902 55.5 -114.338 -109.267 54.8907 -114.489 -110.088 54.3756 
-114.627 -111.007 53.9918 -115.11 -109.91 58.2077 -115.545 -109.881 58.574 
-114.838 -110.06 57.7906 -114.877 -110.392 57.2443 -114.954 -110.734 56.7056 
-114.816 -111.153 56.3191 -114.694 -111.867 55.9407 -114.773 -112.643 55.5688 
-114.928 -113.202 55.2931 -115.968 -112.008 58.5855 -116.3 -111.885 58.6622 
-115.667 -112.169 58.5437 -115.505 -112.491 58.3794 -115.385 -112.899 58.0721 
-115.101 -113.299 57.7861 -114.771 -113.808 57.4921 -114.701 -114.367 57.1446 
-114.902 -114.725 56.8766 -115.177 -114.876 56.6699 -115.489 -116.178 57.9616 
-115.061 -116.249 58.1964 -115.209 -117.619 59.3879 -114.636 -116.278 58.3826 
-114.664 -117.799 59.6214 -114.69 -119.333 60.6059 -114.362 -116.091 58.7012 
-114.112 -117.894 59.8591 -114.113 -119.548 60.8805 -114.139 -121.033 61.8346 
-114.395 -115.708 59.1294 -113.58 -117.674 60.3011 -113.337 -119.491 61.1655 
-113.458 -121.192 62.061 -113.575 -122.391 63.2575 -114.704 -115.338 59.4899 
-113.329 -117.233 60.8674 -112.465 -118.913 61.6837 -112.513 -120.864 62.2633 
-112.821 -122.541 63.3168 -113.038 -123.545 64.7148 -115.117 -114.981 59.7266 
-113.674 -116.908 61.2676 -112.246 -118.275 62.2867 -111.849 -120.032 62.748 
-112.143 -122.181 63.46 -112.418 -123.784 64.7588 -112.596 -124.729 66.0273 
-115.551 -114.581 59.7484 -114.472 -116.66 61.3309 -113.027 -118.079 62.5655 
-112.226 -119.506 63.2225 -112.153 -121.538 63.8845 -112.15 -123.543 65.0489 
-112.048 -124.884 66.3439 -112.03 -125.758 67.3092 -116 -114.229 59.5646 
-115.307 -116.3 61.1114 -114.151 -117.968 62.4776 -113.264 -119.472 63.3314 
-112.9 -121.239 64.1434 -112.525 -123.1 65.4129 -111.912 -124.565 66.8446 
-111.389 -125.604 67.9261 -111.185 -126.385 68.6707 -116.418 -113.942 59.3965 
-115.979 -115.884 60.8357 -115.058 -117.612 62.284 -114.148 -119.284 63.2762 
-113.634 -121.046 64.1491 -113.178 -122.736 65.4718 -112.344 -124.08 67.1215 
-111.344 -125.11 68.4765 -110.598 -125.984 69.347 -110.32 -126.663 69.973 
-115.846 -117.098 58.6946 -115.395 -118.797 60.0159 -116.17 -118.184 59.3362 
-114.783 -120.627 61.2475 -115.563 -120.078 60.5635 -116.378 -119.362 59.9566 
-114.27 -122.13 62.8008 -115.015 -121.834 61.9909 -115.779 -121.272 61.2553 
-116.539 -120.589 60.5742 -113.753 -123.267 64.5361 -114.591 -123.162 63.7874 
-115.366 -122.944 62.8362 -116.046 -122.397 62.0033 -116.816 -121.783 61.1213 
-113.227 -124.454 65.9325 -114.028 -124.304 65.4081 -114.903 -124.287 64.4614 
-115.634 -123.995 63.4999 -116.383 -123.419 62.5909 -117.232 -122.758 61.6311 
-112.708 -125.716 67.0583 -113.446 -125.542 66.6103 -114.277 -125.435 65.8146 
-115.152 -125.26 64.8711 -115.988 -124.835 63.9564 -116.872 -124.227 63.0294 
-117.662 -123.531 62.0657 -111.984 -126.626 68.3344 -112.908 -126.606 67.8475 
-113.779 -126.441 67.1045 -114.704 -126.226 66.1989 -115.683 -125.921 65.268 
-116.599 -125.47 64.3064 -117.408 -124.897 63.3048 -118.046 -124.245 62.2929 
-111.08 -127.018 69.726 -112.263 -127.15 69.2733 -113.423 -127.096 68.5189 
-114.427 -126.96 67.561 -115.44 -126.774 66.5795 -116.417 -126.465 65.578 
-117.208 -126.009 64.5118 -117.86 -125.473 63.4091 -118.439 -124.865 62.3527 
-110.07 -126.991 71.0559 -111.224 -127.234 70.7523 -110.615 -127.09 71.9032 
-112.191 -127.328 71.3019 -112.212 -127.186 72.2742 -112.805 -127.343 70.0511 
-113.751 -127.708 71.3448 -114.277 -127.552 72.3558 -113.811 -127.632 70.2659 
-114.132 -127.426 68.9885 -115.127 -128.368 71.4242 -115.933 -128.055 72.2791 
-114.745 -128.297 70.2383 -114.863 -127.989 69.0419 -115.171 -127.486 67.8421 
-116.302 -128.831 71.4103 -117.186 -128.405 71.7127 -115.588 -128.927 70.3439 
-115.475 -128.671 68.9812 -115.837 -128.142 67.8195 -116.219 -127.352 66.743 
-117.811 -128.927 70.747 -118.435 -128.461 70.7273 -117.087 -129.161 70.004 
-116.676 -129.058 68.6878 -116.75 -128.609 67.5379 -116.982 -127.841 66.6439 
-117.132 -126.923 65.6196 -119.367 -128.682 69.7516 -119.65 -128.136 69.7787 
-118.971 -129.076 69.1008 -118.529 -129.185 67.8847 -118.254 -128.859 66.8687 
-118.054 -128.118 66.2672 -117.873 -127.217 65.4899 -117.819 -126.36 64.4133 
-120.548 -128.136 68.829 -120.785 -127.562 68.9244 -120.341 -128.659 68.2371 
-120.01 -129.019 67.0905 -119.645 -128.961 66.0699 -119.271 -128.345 65.6151 
-118.845 -127.43 65.1411 -118.555 -126.581 64.2063 -118.469 -125.787 63.1697 
-121.563 -127.535 67.9346 -121.947 -127.029 68.0877 -121.278 -128.025 67.4842 
-120.932 -128.453 66.571 -120.516 -128.634 65.5614 -120.15 -128.331 64.9618 
-119.795 -127.579 64.558 -119.457 -126.72 63.8395 -119.245 -125.938 62.8942 
-119.109 -125.099 62.0813 -109.904 -126.426 70.771 -109.827 -126.741 71.8352 
-110.391 -126.105 71.3223 -110.721 -126.375 72.3162 -111.679 -125.741 71.3822 
-110.765 -126.793 72.674 -112.383 -125.974 72.1514 -113.112 -125.377 70.7619 
-111.989 -126.369 73.1087 -112.807 -126.818 73.1175 -113.957 -125.662 71.1448 
-114.324 -124.966 69.7149 -113.648 -126.05 72.6275 -114.031 -126.398 73.4323 
-115.12 -127.093 73.106 -115.189 -125.228 69.904 -115.471 -124.304 68.7881 
-115.027 -125.829 71.2414 -115.29 -126.178 72.5801 -116.103 -126.655 73.0275 
-116.835 -127.52 72.4712 -116.355 -124.398 69.0155 -116.647 -123.4 67.98 
-116.182 -125.208 69.9667 -116.364 -125.773 71.1145 -117.009 -126.239 72.0414 
-117.669 -126.945 71.9862 -118.035 -127.828 71.3413 -117.531 -123.425 68.119 
-117.731 -122.52 66.9577 -117.378 -124.202 69.0862 -117.457 -124.851 69.9829 
-117.92 -125.42 70.9098 -118.499 -126.121 71.2674 -118.846 -127.013 70.8516 
-119.14 -127.759 70.2786 -118.569 -122.587 66.9456 -118.615 -121.729 65.8381 
-118.531 -123.297 68.0275 -118.576 -123.914 68.9494 -118.853 -124.47 69.8216 
-119.334 -125.082 70.4274 -119.741 -125.897 70.3993 -120.007 -126.734 69.9419 
-120.336 -127.291 69.4423 -119.382 -121.784 65.8218 -119.305 -120.897 64.9324 
-119.467 -122.52 66.8013 -119.549 -123.19 67.6965 -119.711 -123.81 68.507 
[...]
CELL_DATA 2000
SCALARS Distance double
LOOKUP_TABLE default
168.867 168.751 169.16 169.903 168.675 169.073 169.835 170.256 171.065 
168.647 169.031 169.832 170.238 171.116 171.521 172.432 168.746 169.08 
169.971 170.338 171.316 171.688 172.717 173.055 174.061 169.058 169.319 
170.296 170.613 171.672 172.008 173.097 173.434 174.5 174.789 175.759 
169.511 169.745 170.761 171.05 172.132 172.437 173.504 173.828 174.863 
175.198 176.149 176.422 177.25 170.046 170.256 171.297 171.567 172.661 
172.936 173.985 174.249 175.241 175.531 176.464 176.746 177.573 177.804 
178.545 170.721 170.866 171.919 172.14 173.231 173.481 174.525 174.754 
175.732 175.956 176.886 177.104 177.954 178.141 178.907 179.081 179.799 
171.487 171.592 172.595 172.777 173.801 174.033 175.013 175.256 176.179 
176.427 177.318 177.552 178.386 178.57 179.324 179.474 180.17 180.321 
180.966 168.198 167.094 167.771 168.031 165.849 166.586 166.845 167.614 
167.936 164.554 165.288 165.555 166.376 166.743 167.534 167.888 163.42 
164.066 164.346 165.101 165.499 166.32 166.733 167.511 167.934 162.383 
163.021 163.288 163.967 164.325 165.101 165.548 166.359 166.844 167.642 
168.193 161.224 161.932 162.171 162.889 163.186 163.943 164.355 165.183 
165.708 166.557 167.142 167.98 168.611 160.189 160.795 161.089 161.757 
162.109 162.82 163.252 164.03 164.562 165.411 166.015 166.897 167.543 
168.42 169.11 159.701 160.056 160.48 160.907 161.369 161.903 162.436 
163.074 163.646 164.356 164.954 165.764 166.436 167.333 168.087 168.987 
169.779 159.706 159.9 160.375 160.6 161.047 161.389 161.913 162.426 
163.014 163.596 164.163 164.81 165.454 166.269 167.082 168.003 168.893 
169.769 170.606 159.953 160.336 160.309 160.538 160.377 160.476 160.713 
160.802 161.087 160.699 160.536 160.806 160.884 161.303 161.417 161.901 
161.864 161.275 161.576 161.271 161.778 161.731 162.348 162.404 163.003 
163.395 162.725 163.016 162.456 162.892 162.519 163.07 162.945 163.551 
163.554 164.131 164.776 164.182 164.426 163.93 164.294 163.816 164.225 
163.853 164.383 164.207 164.846 164.768 165.444 166.273 165.574 165.85 
165.295 165.751 165.245 165.744 165.202 165.772 165.326 166.072 165.769 
166.61 166.363 167.187 168.109 167.298 167.711 166.962 167.582 166.925 
167.648 166.973 167.697 167.037 167.848 167.328 168.24 167.825 168.708 
168.317 169.103 170.04 169.291 169.812 169.043 169.713 169 169.774 
169.078 169.825 169.118 169.84 169.228 170.002 169.533 170.315 169.905 
170.61 170.199 170.826 171.811 171.636 172.21 173.132 171.403 172.019 
172.96 173.5 174.383 171.171 171.791 172.755 173.309 174.214 174.75 
175.621 171.066 171.625 172.544 173.055 173.88 174.485 175.346 175.946 
176.755 171.095 171.616 172.452 172.822 173.419 173.966 174.689 175.464 
176.301 176.993 177.756 171.115 171.69 172.567 172.809 173.26 173.5 
174.038 174.68 175.567 176.414 177.36 178.011 178.793 171.083 171.713 
172.744 173.024 173.592 173.585 174.092 174.304 175.217 175.838 176.981 
177.657 178.607 179.092 179.778 171.108 171.71 172.834 173.238 174.003 
174.076 174.683 174.705 175.582 175.882 177.028 177.507 178.511 178.936 
179.608 179.965 180.424 171.214 171.761 172.871 173.342 174.199 174.455 
175.125 175.28 176.062 176.342 177.323 177.709 178.605 178.929 179.526 
179.78 180.153 180.439 180.726 172.209 173.551 173.027 173.308 174.812 
174.347 174.679 174.163 174.475 176.052 175.609 175.962 175.496 175.832 
175.325 175.632 177.228 176.851 177.239 176.793 177.155 176.659 176.988 
176.467 176.772 178.264 177.974 178.428 178.07 178.494 178.024 178.375 
177.835 178.16 177.619 177.915 179.258 178.984 179.45 179.184 179.651 
179.319 179.697 179.223 179.521 178.998 179.293 178.752 178.988 180.195 
179.974 180.409 180.158 180.589 180.347 180.739 180.421 180.716 180.291 
180.553 180.079 180.319 179.77 179.922 180.833 180.791 181.234 181.073 
181.468 181.234 181.603 181.35 181.691 181.376 181.664 181.267 181.508 
181.035 181.207 180.644 180.742 181.112 181.234 181.707 181.75 182.177 
182.056 182.417 182.198 182.557 182.304 182.644 182.319 182.573 182.159 
182.324 181.846 181.951 181.411 181.484 181.332 181.951 181.747 182 
182.875 182.489 182.753 182.467 182.602 184.195 183.582 183.753 183.31 
183.436 183.014 182.949 185.601 184.953 184.949 184.363 184.365 183.882 
183.827 183.317 183.143 186.659 186.189 186.072 185.48 185.314 184.787 
184.677 184.201 184.056 183.508 183.261 187.326 187.053 186.99 186.479 
186.269 185.696 185.518 185.027 184.866 184.37 184.098 183.536 183.173 
187.686 187.6 187.65 187.314 187.171 186.637 186.431 185.884 185.666 
185.139 184.812 184.266 183.841 183.309 182.874 187.77 187.824 187.901 
187.814 187.704 187.399 187.153 186.719 186.415 185.909 185.503 184.934 
184.448 183.9 183.431 182.938 182.493 187.778 187.818 187.854 187.884 
187.767 187.676 187.391 187.174 186.798 186.473 186.014 185.551 185.014 
184.48 183.967 183.465 183.004 182.525 182.056 181.092 181.146 181.252 
181.696 181.585 181.501 181.913 182.002 182.643 182.124 182.068 182.502 
182.431 183.061 183.183 184.029 182.398 182.542 183.048 183.064 183.666 
183.734 184.539 184.711 185.526 182.393 182.685 183.222 183.441 184.02 
184.23 184.926 185.167 185.875 186.06 186.607 182.255 182.602 183.104 
183.432 183.955 184.324 184.932 185.325 185.916 186.225 186.677 186.872 
187.198 182.026 182.41 182.883 183.23 183.686 184.083 184.616 185.096 
185.643 186.071 186.479 186.776 187.054 187.28 187.494 181.705 182.129 
182.606 182.976 183.412 183.775 184.241 184.685 185.191 185.669 186.097 
186.48 186.771 187.048 187.251 187.472 187.609 181.303 181.761 182.238 
182.659 183.096 183.479 183.906 184.305 184.75 185.192 185.622 186.05 
186.408 186.746 187.017 187.245 187.439 187.583 187.704 171.663 172.853 
172.613 173.274 174.058 173.797 174.387 174.103 174.558 175.22 174.972 
175.492 175.168 175.543 175.217 175.528 176.284 176.071 176.586 176.256 
176.6 176.211 176.557 176.199 176.58 177.304 177.092 177.637 177.345 
177.734 177.32 177.672 177.297 177.77 177.41 177.873 178.301 178.088 
178.614 178.375 178.812 178.463 178.815 178.438 178.855 178.561 179.018 
178.69 179.035 179.207 179.032 179.522 179.318 179.758 179.491 179.861 
179.533 179.89 179.588 179.944 179.668 179.925 179.62 179.787 180.009 
179.876 180.372 180.195 180.645 180.414 180.809 180.524 180.883 180.577 
180.887 180.557 180.738 180.382 180.454 180.164 180.275 180.744 180.642 
181.145 181.009 181.466 181.281 181.686 181.446 181.806 181.529 181.829 
181.494 181.645 181.22 181.216 180.806 180.821 180.58 180.745 170.788 
169.831 170.856 171.971 168.912 169.889 171.028 172.085 173.227 168.199 
169.039 170.177 171.189 172.416 173.398 174.476 167.778 168.451 169.569 
170.455 171.707 172.657 173.819 174.656 175.613 167.607 168.13 169.145 
169.91 171.115 172.026 173.234 174.078 175.128 175.825 176.708 167.574 
168.003 168.874 169.492 170.57 171.427 172.651 173.547 174.692 175.429 
176.397 176.979 177.787 167.562 167.968 168.785 169.26 170.217 170.908 
172.08 172.966 174.176 175.006 176.032 176.686 177.516 178.036 178.725 
167.575 167.963 168.811 169.226 170.128 170.643 171.692 172.439 173.602 
174.453 175.497 176.246 177.082 177.697 178.399 178.907 179.523 167.708 
168.03 168.894 169.286 170.168 170.594 171.508 172.091 173.105 173.869 
174.869 175.646 176.502 177.189 177.93 178.524 179.195 179.685 180.273 
168.115 169.176 168.841 169.297 170.279 169.944 170.392 170.08 170.558 
171.393 171.06 171.519 171.186 171.658 171.342 171.865 172.566 172.225 
172.75 172.376 172.881 172.497 173.04 172.725 173.381 173.767 173.44 
174.028 173.679 174.248 173.824 174.373 173.973 174.606 174.329 175.052 
174.966 174.642 175.229 174.942 175.554 175.209 175.781 175.368 175.96 
175.597 176.261 175.993 176.665 176.168 175.841 176.416 176.128 176.76 
176.472 177.096 176.749 177.36 176.983 177.62 177.26 177.893 177.566 
178.143 177.311 177.028 177.621 177.337 177.989 177.7 178.363 178.047 
178.69 178.35 178.984 178.63 179.232 178.854 179.385 179.001 179.458 
178.346 178.128 178.743 178.52 179.181 178.935 179.596 179.314 179.94 
179.632 180.213 179.904 180.44 180.121 180.587 180.229 180.615 180.228 
180.554 179.103 180.535 179.715 179.573 182.166 181.254 181.089 180.229 
180.061 183.804 182.895 182.673 181.779 181.571 180.712 180.496 185.292 
184.446 184.182 183.318 183.067 182.214 181.969 181.109 180.836 186.621 
185.84 185.554 184.743 184.469 183.658 183.374 182.538 182.22 181.378 
181.063 187.66 187.048 186.713 185.999 185.657 184.938 184.596 183.843 
183.458 182.67 182.298 181.533 181.219 188.116 187.82 187.439 186.943 
186.492 185.92 185.486 184.881 184.449 183.778 183.356 182.663 182.311 
181.632 181.319 188.027 187.978 187.633 187.39 186.929 186.527 186.042 
185.572 185.122 184.603 184.179 183.603 183.22 182.622 182.283 181.66 
181.313 187.804 187.797 187.554 187.439 187.096 186.829 186.412 186.027 
185.595 185.16 184.745 184.283 183.889 183.403 183.037 182.515 182.153 
181.575 181.201 179.102 179.563 179.708 180.529 180.018 180.204 181.086 
181.266 182.185 180.299 180.605 181.504 181.799 182.796 183.002 183.892 
180.315 180.755 181.636 182.08 183.108 183.53 184.543 184.7 185.458 
180.177 180.678 181.553 182.071 183.08 183.674 184.781 185.229 186.144 
186.217 186.832 180.01 180.526 181.416 181.942 182.898 183.518 184.585 
185.254 186.265 186.707 187.428 187.481 187.881 179.783 180.329 181.203 
181.774 182.671 183.27 184.179 184.875 185.796 186.518 187.29 187.758 
188.178 188.248 188.324 179.465 180.023 180.822 181.457 182.293 182.936 
183.72 184.364 185.116 185.853 186.587 187.302 187.798 188.206 188.307 
188.355 188.197 179.132 179.647 180.362 180.979 181.75 182.429 183.174 
183.821 184.499 185.15 185.825 186.525 187.095 187.654 187.897 188.143 
188.079 188.086 187.922 178.352 177.33 178.145 178.751 176.107 177.025 
177.615 178.526 179.152 174.72 175.679 176.224 177.242 177.847 178.846 
179.406 173.421 174.296 174.8 175.769 176.313 177.373 177.926 178.96 
179.413 172.198 173.044 173.541 174.422 174.925 175.847 176.344 177.363 
177.85 178.865 179.266 170.867 171.749 172.207 173.154 173.665 174.556 
175.006 175.872 176.317 177.275 177.737 178.712 179.107 169.553 170.372 
170.761 171.714 172.204 173.209 173.681 174.588 174.988 175.851 176.28 
177.207 177.652 178.576 178.933 168.389 169.119 169.472 170.295 170.724 
171.68 172.174 173.17 173.63 174.541 174.948 175.824 176.244 177.144 
177.536 178.4 178.693 167.286 167.984 168.309 169.068 169.453 170.286 
170.756 171.687 172.212 173.158 173.636 174.514 174.923 175.778 176.161 
177.019 177.354 178.163 178.421 166.75 166.279 166.914 167.776 166.081 
166.55 167.465 168.057 168.976 166.305 166.565 167.465 167.897 168.883 
169.37 170.317 166.675 166.895 167.735 168.045 168.997 169.402 170.39 
170.818 171.782 166.965 167.2 167.979 168.294 169.159 169.552 170.507 
170.94 171.907 172.321 173.229 167.328 167.472 168.198 168.471 169.297 
169.671 170.589 171.033 171.986 172.427 173.321 173.709 174.525 167.807 
167.881 168.564 168.738 169.551 169.837 170.75 171.128 172.077 172.491 
173.388 173.777 174.6 174.96 175.741 168.271 168.357 169.023 169.155 
169.93 170.151 171.035 171.347 172.284 172.636 173.538 173.877 174.713 
175.046 175.844 176.179 176.934 168.705 168.807 169.48 169.609 170.345 
170.534 171.357 171.637 172.54 172.875 173.775 174.086 174.922 175.21 
176.003 176.304 177.057 177.352 178.03 169.172 170.225 169.786 169.992 
171.403 170.916 171.149 170.663 170.887 172.747 172.175 172.442 171.903 
172.163 171.633 171.915 174.324 173.634 173.92 173.3 173.623 173.025 
173.356 172.775 173.121 176.002 175.295 175.576 174.891 175.251 174.602 
174.977 174.329 174.677 174.049 174.368 177.513 176.928 177.221 176.576 
176.922 176.281 176.65 175.995 176.313 175.643 175.911 175.264 175.506 
178.828 178.349 178.685 178.141 178.477 177.902 178.244 177.633 177.926 
177.261 177.494 176.813 177.023 176.363 176.571 180.083 179.647 180.021 
179.537 179.879 179.362 179.688 179.146 179.445 178.836 179.072 178.395 
178.584 177.893 178.068 177.408 177.592 181.239 180.878 181.257 180.837 
181.164 180.69 180.983 180.499 180.791 180.279 180.532 179.934 180.105 
179.432 179.551 178.877 178.994 178.369 178.512 179.186 179.689 179.738 
180.398 180.282 180.303 180.977 181.023 181.757 180.879 180.937 181.634 
181.653 182.377 182.434 183.172 181.313 181.488 182.22 182.308 183.034 
183.084 183.815 183.845 184.526 181.552 181.821 182.567 182.792 183.537 
183.691 184.435 184.509 185.211 185.197 185.844 181.74 182.016 182.759 
183.041 183.786 184.058 184.789 185.012 185.697 185.821 186.425 186.462 
187.013 181.924 182.206 182.937 183.213 183.936 184.226 184.916 185.207 
185.831 186.097 186.627 186.83 187.246 187.391 187.717 181.994 182.333 
183.017 183.339 184.011 184.332 184.989 185.284 185.868 186.124 186.614 
186.851 187.228 187.42 187.652 187.804 187.919 181.923 182.3 182.911 
183.289 183.884 184.284 184.901 185.285 185.862 186.15 186.628 186.836 
187.224 187.379 187.638 187.719 187.818 187.866 187.863 159.25 159.313 
159.056 158.895 159.934 159.413 159.335 159.074 159.34 161.016 160.333 
160.254 159.777 159.962 159.786 160.149 162.141 161.483 161.298 160.753 
160.758 160.444 160.585 160.466 160.637 163.224 162.583 162.369 161.743 
161.613 161.174 161.223 160.949 161.092 160.9 161.165 164.477 163.793 
163.728 162.945 162.84 162.134 162.202 161.73 162.006 161.642 162.023 
161.739 162.283 165.822 165.184 165.264 164.493 164.486 163.615 163.68 
162.972 163.274 162.779 163.195 162.802 163.272 163.038 163.636 167.038 
166.502 166.6 166.001 166.038 165.294 165.326 164.582 164.78 164.18 
164.489 163.999 164.319 163.985 164.411 164.296 164.857 168.107 167.624 
167.686 167.198 167.233 166.672 166.694 166.09 166.219 165.652 165.873 
165.31 165.522 165.021 165.321 165.044 165.534 165.462 166.043 159.232 
158.877 159.021 159.213 159.351 159.068 159.28 159.281 159.664 160.225 
159.873 160.108 159.798 160.182 160.046 160.559 160.719 160.623 160.927 
160.764 161.108 160.837 161.229 161.087 161.637 161.173 160.99 161.335 
161.368 161.794 161.698 162.031 161.834 162.275 162.22 162.84 162.27 
161.733 162.063 161.849 162.383 162.295 162.765 162.596 163.06 162.936 
163.549 163.509 164.131 163.694 163.082 163.379 162.897 163.392 163.092 
163.639 163.399 163.94 163.769 164.392 164.297 164.895 164.77 165.22 
164.977 164.474 164.747 164.263 164.638 164.248 164.701 164.391 164.88 
164.669 165.234 165.129 165.685 165.547 165.951 165.749 166.08 166.154 
165.693 165.953 165.51 165.816 165.427 165.795 165.458 165.865 165.596 
166.065 165.915 166.423 166.299 166.718 166.507 166.838 166.612 166.998 
159.655 159.54 159.772 160.096 159.822 159.767 160.019 160.117 160.258 
160.61 160.256 160.441 160.26 160.461 160.36 160.642 161.7 161.202 
161.378 160.972 161.236 160.906 161.296 161.134 161.779 162.912 162.356 
162.526 162.047 162.322 161.917 162.348 162.057 162.685 162.57 163.324 
164.128 163.578 163.697 163.201 163.419 163.019 163.404 163.137 163.713 
163.552 164.223 164.11 164.775 165.158 164.705 164.807 164.35 164.541 
164.106 164.416 164.114 164.61 164.477 165.112 165.019 165.68 165.548 
166.248 166.036 165.643 165.807 165.424 165.69 165.263 165.573 165.161 
165.571 165.324 165.899 165.821 166.503 166.454 167.192 167.118 167.954 
167.005 166.576 166.824 166.449 166.799 166.422 166.791 166.368 166.754 
166.37 166.871 166.647 167.303 167.236 168.005 168.009 168.858 168.876 
169.781 177.894 176.862 177.226 176.869 175.718 176.127 175.738 176.115 
175.658 174.484 174.908 174.481 174.9 174.413 174.793 174.283 173.239 
173.632 173.163 173.587 173.102 173.507 173.021 173.416 172.978 172.037 
172.383 171.89 172.277 171.818 172.219 171.793 172.19 171.789 172.183 
171.78 170.898 171.201 170.697 171.04 170.582 170.972 170.573 170.994 
170.612 171.012 170.58 170.955 170.491 169.796 170.083 169.565 169.877 
169.377 169.739 169.281 169.725 169.3 169.766 169.295 169.709 169.202 
169.609 169.166 168.697 168.982 168.477 168.773 168.27 168.562 168.049 
168.407 167.925 168.375 167.896 168.35 167.851 168.288 167.847 168.318 
167.976 167.668 167.915 167.47 167.747 167.324 167.551 167.067 167.273 
166.779 167.074 166.628 167.001 166.575 166.971 166.58 167.019 166.698 
167.184 166.901 
POINT_DATA 1002
SCALARS Distance double
LOOKUP_TABLE default
169.568 168.594 168.44 169.472 168.342 170.67 169.406 168.28 170.629 
171.898 169.412 168.252 170.683 172.039 173.362 169.581 168.409 170.924 
172.346 173.769 175.056 169.971 168.798 171.339 172.758 174.191 175.546 
176.681 170.47 169.269 171.844 173.218 174.54 175.863 177.044 178.03 
171.034 169.84 172.391 173.751 174.992 176.196 177.338 178.343 179.268 
171.727 170.599 173 174.305 175.525 176.685 177.781 178.746 179.636 
180.496 172.455 171.411 173.608 174.798 175.942 177.077 178.195 179.187 
180.043 180.835 181.569 167.562 167.314 166.41 166.035 165.105 167.189 
164.726 163.834 165.906 167.138 163.64 162.787 164.676 165.919 167.146 
162.638 161.726 163.59 164.713 166.016 167.374 161.435 160.513 162.442 
163.531 164.825 166.285 167.769 160.439 159.618 161.396 162.491 163.739 
165.125 166.639 168.224 160.116 159.373 160.889 161.825 162.995 164.208 
165.531 167.14 168.9 160.215 159.533 160.801 161.457 162.461 163.589 
164.696 166.139 167.97 169.811 160.115 160.602 160.297 160.534 160.305 
161.008 160.774 161.026 161.115 161.789 162.032 162.539 161.93 162.293 
162.964 163.61 164.04 163.413 163.339 163.582 164.111 164.899 165.39 
164.772 164.7 164.641 164.931 165.5 166.434 166.996 166.217 166.265 
166.268 166.408 166.881 167.455 168.466 168.869 168.236 168.293 168.387 
168.439 168.701 169.145 169.53 170.542 170.713 170.43 170.475 170.558 
170.535 170.552 170.76 171.044 171.261 172.766 172.608 174.027 172.409 
173.869 175.259 172.21 173.653 175.125 176.484 172.121 173.31 174.684 
176.234 177.551 172.202 173.046 173.911 175.477 177.197 178.525 172.32 
173.193 173.551 174.657 176.572 178.316 179.541 172.351 173.571 174.021 
174.709 176.288 178.087 179.423 180.374 172.356 173.803 174.643 175.39 
176.651 178.15 179.303 180.102 180.8 172.389 173.875 174.927 175.812 
176.989 178.332 179.34 179.94 180.42 180.963 173.864 175.155 175.022 
176.419 176.318 176.161 177.655 177.648 177.505 177.304 178.721 178.914 
178.925 178.7 178.48 179.711 179.921 180.123 180.048 179.818 179.586 
180.672 180.846 181.003 181.095 181.01 180.836 180.539 181.33 181.704 
181.856 181.955 182.027 181.958 181.734 181.352 181.577 182.219 182.612 
182.786 182.932 182.976 182.788 182.454 182.049 181.459 182.209 182.188 
183.075 183.368 182.98 184.308 184.915 183.88 183.454 185.64 186.251 
184.904 184.315 183.716 186.679 187.051 185.899 185.143 184.576 183.879 
187.433 187.498 186.864 186.05 185.367 184.66 183.758 187.873 187.691 
187.653 187.007 186.244 185.394 184.384 183.384 187.913 187.711 187.922 
187.546 186.913 186.092 185.027 183.934 182.978 187.833 187.795 187.82 
187.565 187.067 186.417 185.535 184.482 183.487 182.551 180.855 181.444 
181.142 181.92 181.698 182.377 182.59 182.088 182.999 183.81 182.954 
182.158 183.606 184.397 185.414 182.949 182.076 183.769 184.69 185.694 
186.521 182.784 181.908 183.583 184.518 185.595 186.465 187.048 182.542 
181.634 183.328 184.153 185.182 186.157 186.821 187.297 182.216 181.269 
183.064 183.849 184.725 185.671 186.467 187.03 187.43 181.8 180.841 
182.701 183.528 184.345 185.184 186.014 186.746 187.28 187.612 171.891 
173.562 173.11 174.725 174.345 174.88 175.853 175.468 175.907 175.849 
176.899 176.49 177.014 176.885 176.942 177.891 177.535 178.128 178.067 
178.069 178.304 178.844 178.53 179.114 179.201 179.184 179.317 179.441 
179.726 179.371 180.001 180.166 180.222 180.269 180.253 180.087 180.535 
180.126 180.862 181.079 181.189 181.244 181.154 180.811 180.47 169.765 
170.917 168.815 169.939 167.985 172.232 169.197 167.418 171.399 173.621 
168.74 167.177 170.772 172.955 174.887 168.476 167.171 170.221 172.354 
174.397 176.106 168.367 167.186 169.782 171.709 173.893 175.79 177.303 
168.354 167.146 169.635 171.235 173.301 175.34 176.972 178.28 168.39 
167.191 169.69 171.06 172.784 174.724 176.433 177.846 179.076 168.512 
167.423 169.78 171.035 172.431 174.101 175.785 177.292 178.656 179.857 