# vtk DataFile Version 4.0
vtk output
ASCII
DATASET POLYDATA
POINTS 1002 float
-120.114 -107.349 49.5641 -119.861 -106.599 48.4686 -119.297 -106.96 48.581 
-119.554 -107.686 49.8931 -118.625 -107.263 48.93 -120.404 -108.033 51.0556 
-118.883 -107.96 50.504 -117.982 -107.619 49.533 -119.866 -108.325 51.7085 
-120.759 -108.788 52.8578 -118.291 -108.326 51.2874 -117.419 -108.064 50.2772 
-119.273 -108.653 52.5108 -120.264 -109.215 53.6483 -121.187 -109.943 54.5867 
-117.866 -108.826 52.1087 -116.932 -108.523 51.0766 -118.832 -109.205 53.2994 
-119.79 -109.838 54.3967 -120.713 -110.734 55.272 -121.575 -111.625 56.1146 
-117.525 -109.39 52.991 -116.548 -108.997 51.9991 -118.534 -109.95 54.1105 
-119.473 -110.648 55.2071 -120.303 -111.603 56.0812 -121.1 -112.596 56.8804 
-121.798 -113.393 57.7324 -117.224 -109.997 54.0249 -116.255 -109.542 53.0679 
-118.221 -110.725 55.0589 -119.195 -111.478 56.1818 -120.002 -112.337 57.2065 
-120.686 -113.308 58.0349 -121.343 -114.133 58.8312 -121.892 -114.772 59.5857 
-116.995 -110.648 55.1252 -116.008 -110.155 54.113 -117.911 -111.446 56.1471 
-118.81 -112.243 57.2344 -119.641 -113.013 58.3608 -120.275 -113.891 59.31 
-120.841 -114.713 60.0952 -121.415 -115.383 60.808 -121.901 -115.973 61.4 
-116.822 -111.32 56.1081 -115.832 -110.806 55.0145 -117.666 -112.13 57.2112 
-118.375 -112.979 58.2824 -119.105 -113.766 59.3595 -119.737 -114.663 60.3105 
-120.223 -115.526 61.0974 -120.745 -116.213 61.8057 -121.298 -116.825 62.3951 
-121.761 -117.389 62.8173 -116.665 -111.993 56.9672 -115.762 -111.475 55.8491 
-117.419 -112.809 58.121 -117.946 -113.745 59.2067 -118.471 -114.605 60.2426 
-119.042 -115.547 61.1428 -119.51 -116.525 61.8641 -119.958 -117.281 62.5277 
-120.5 -117.888 63.117 -121.035 -118.459 63.5291 -121.476 -118.931 63.7838 
-119.244 -105.997 47.5167 -118.556 -106.29 47.688 -118.47 -105.245 46.5209 
-117.763 -105.456 46.8441 -117.654 -104.404 45.5659 -117.889 -106.622 48.1002 
-116.949 -104.63 46.0344 -116.907 -103.541 44.8537 -117.111 -105.861 47.3448 
-117.243 -107.114 48.705 -116.084 -103.903 45.3528 -116.128 -102.665 44.3686 
-116.145 -105.163 46.5409 -116.312 -106.503 47.9121 -116.543 -107.701 49.3904 
-115.215 -103.174 44.8638 -115.245 -101.843 43.9993 -115.151 -104.517 45.8551 
-115.213 -105.853 47.1494 -115.487 -107.254 48.5993 -115.95 -108.296 50.1958 
-114.383 -102.471 44.6281 -114.447 -101.234 43.9539 -114.389 -103.795 45.5281 
-114.441 -105.064 46.7382 -114.625 -106.567 48.1427 -115.02 -108.023 49.5902 
-115.578 -108.889 51.2395 -113.555 -101.963 44.7235 -113.837 -100.826 44.347 
-113.618 -103.138 45.5386 -113.939 -104.226 46.734 -114.235 -105.563 48.1361 
-114.487 -107.281 49.4895 -114.794 -108.668 50.8383 -115.278 -109.451 52.4001 
-112.836 -101.595 45.0684 -113.306 -100.434 44.9195 -112.76 -102.69 45.7498 
-113.22 -103.621 46.8896 -113.816 -104.663 48.2557 -114.218 -106.159 49.6237 
-114.413 -107.827 50.8533 -114.571 -109.115 52.057 -115.025 -110.003 53.444 
-112.395 -101.226 45.5698 -112.834 -100.017 45.4882 -112.215 -102.344 46.1424 
-112.535 -103.245 47.1695 -113.15 -104.155 48.3894 -113.746 -105.322 49.6592 
-114.182 -106.711 50.9129 -114.344 -108.177 52.0287 -114.456 -109.531 53.0919 
-114.941 -110.609 54.3538 -112.32 -100.449 46.2341 -112.128 -101.716 46.6764 
-112.259 -101.057 47.6731 -112.327 -102.207 48.442 -112.342 -101.688 49.6172 
-112.247 -102.755 47.5771 -112.372 -102.728 50.3719 -112.157 -102.335 51.296 
-112.482 -103.219 49.4203 -112.612 -103.725 48.6929 -112.01 -103.514 51.9458 
-111.973 -103.208 52.6674 -112.259 -103.976 51.2123 -112.562 -104.514 50.3777 
-113.079 -104.903 49.8012 -111.874 -104.569 53.5644 -112.138 -104.224 54.4711 
-111.828 -105.042 52.8454 -112.202 -105.561 52.0538 -112.949 -105.845 51.3146 
-113.721 -106.072 50.9885 -112.358 -105.508 55.3794 -112.647 -105.112 56.344 
-112.056 -106.003 54.4931 -112.137 -106.499 53.6502 -112.895 -106.694 52.8683 
-113.818 -106.767 52.3962 -114.262 -107.278 52.1998 -113.334 -106.345 56.5955 
-113.593 -106.071 57.2918 -113.072 -106.726 55.7915 -112.895 -107.194 54.9838 
-113.211 -107.457 54.264 -113.953 -107.573 53.7803 -114.412 -108.036 53.4952 
-114.411 -108.854 53.2564 -114.533 -107.52 57.1651 -114.85 -107.418 57.5639 
-114.331 -107.695 56.6318 -114.127 -108.045 56.0585 -113.99 -108.415 55.5352 
-114.165 -108.726 55.145 -114.482 -109.241 54.8562 -114.582 -109.945 54.5763 
-114.624 -110.455 54.3684 -115.548 -109.069 57.8882 -115.929 -109.01 58.0572 
-115.291 -109.157 57.621 -115.104 -109.385 57.321 -114.816 -109.737 57.0348 
-114.528 -110.143 56.7541 -114.522 -110.691 56.4631 -114.725 -111.297 56.1642 
-114.948 -111.639 55.909 -115.269 -111.63 55.7949 -116.253 -112.514 57.5057 
-115.748 -112.777 57.6031 -116.453 -113.857 59.4268 -115.259 -112.968 57.7852 
-115.891 -114.198 59.6563 -116.139 -115.577 61.2805 -114.78 -112.786 58.0541 
-115.207 -114.491 59.795 -115.462 -115.992 61.4361 -115.55 -117.401 62.8215 
-114.559 -112.265 58.4269 -114.573 -114.385 60.0397 -114.681 -116.273 61.4246 
-114.804 -117.831 62.8272 -115.141 -118.944 64.247 -114.836 -111.768 58.7859 
-114.466 -113.956 60.5353 -114.182 -116.091 61.7289 -114.141 -117.964 62.8936 
-114.427 -119.322 64.3766 -114.995 -120.347 65.7775 -115.282 -111.401 58.9824 
-114.887 -113.561 60.9491 -114.355 -115.639 62.3408 -113.99 -117.607 63.4258 
-113.954 -119.286 64.8279 -114.323 -120.646 66.2423 -114.88 -121.815 67.2754 
-115.569 -111.087 59.0749 -115.307 -113.205 61.0481 -114.845 -115.198 62.7032 
-114.401 -117.049 63.9983 -114.022 -118.819 65.4649 -113.962 -120.461 66.9357 
-114.267 -121.917 67.9655 -114.663 -123.067 68.6553 -115.861 -110.857 59.1451 
-115.654 -112.811 60.985 -115.248 -114.719 62.7099 -114.885 -116.481 64.1778 
-114.462 -118.192 65.7564 -114.102 -119.91 67.3494 -114.071 -121.525 68.5677 
-114.24 -122.865 69.3874 -114.407 -123.881 70.0074 -116.281 -110.7 59.1584 
-116.127 -112.46 60.854 -115.711 -114.227 62.5524 -115.32 -115.926 64.0729 
-114.931 -117.558 65.6843 -114.537 -119.221 67.3021 -114.344 -120.869 68.6558 
-114.335 -122.288 69.7533 -114.312 -123.411 70.6407 -114.279 -124.364 71.2737 
-116.963 -113.291 58.7288 -116.801 -114.974 60.5869 -117.411 -114.385 59.8659 
-116.301 -116.848 62.3319 -117.049 -116.249 61.6055 -117.774 -115.455 60.9358 
-115.897 -118.473 63.9619 -116.681 -118.008 63.318 -117.466 -117.341 62.6197 
-118.26 -116.454 61.927 -115.739 -119.914 65.5548 -116.497 -119.506 65.0377 
-117.227 -119.061 64.2756 -117.959 -118.386 63.5226 -118.745 -117.524 62.7009 
-115.627 -121.512 67.0078 -116.374 -121.089 66.6479 -117.041 -120.705 65.8957 
-117.687 -120.157 65.0197 -118.41 -119.377 64.2005 -119.198 -118.418 63.3383 
-115.368 -123.016 68.3116 -116.185 -122.654 68.0585 -116.896 -122.28 67.4735 
-117.511 -121.827 66.499 -118.198 -121.056 65.5878 -118.972 -120.119 64.7651 
-119.753 -119.079 63.9104 -114.926 -124.129 69.6261 -115.779 -123.92 69.3359 
-116.68 -123.511 68.9287 -117.423 -123.157 68.0546 -118.127 -122.584 66.9872 
-118.89 -121.688 66.0683 -119.632 -120.734 65.1731 -120.347 -119.68 64.2956 
-114.512 -124.924 70.9394 -115.215 -125.022 70.5284 -116.224 -124.627 70.1012 
-117.209 -124.158 69.4052 -118.061 -123.744 68.3911 -118.862 -123.068 67.3613 
-119.578 -122.176 66.3722 -120.21 -121.252 65.3675 -120.852 -120.172 64.494 
-114.379 -125.22 72.237 -114.69 -125.927 71.8111 -114.905 -126.072 72.9737 
-115.357 -126.751 72.4384 -115.953 -126.389 73.5803 -115.538 -125.939 71.2133 
-116.487 -126.687 72.9629 -117.144 -125.896 74.1162 -116.296 -126.484 71.6051 
-116.697 -125.328 70.4896 -117.759 -125.931 73.3096 -118.308 -125.309 74.1304 
-117.465 -126.206 71.9032 -117.537 -125.694 70.5681 -117.844 -124.718 69.5542 
-119.235 -125.657 73.146 -119.801 -125.251 73.5809 -118.907 -125.845 72.0122 
-118.767 -125.722 70.5407 -118.786 -125.105 69.4683 -118.853 -124.164 68.5225 
-120.979 -125.901 72.7231 -121.446 -125.289 73.0776 -120.574 -126.118 71.734 
-120.214 -125.991 70.2838 -119.934 -125.45 69.1856 -119.761 -124.48 68.4404 
-119.654 -123.347 67.4729 -122.378 -125.741 72.2295 -122.585 -124.959 72.5243 
-122.073 -126.241 71.2221 -121.597 -126.275 69.7388 -121.071 -125.78 68.624 
-120.67 -124.755 68.0627 -120.407 -123.53 67.3405 -120.264 -122.391 66.318 
-123.135 -125.093 71.2946 -123.226 -124.389 71.4792 -122.986 -125.675 70.4428 
-122.625 -125.897 69.0942 -122.082 -125.622 67.9906 -121.584 -124.807 67.4805 
-121.219 -123.631 66.977 -120.971 -122.456 66.1188 -120.866 -121.351 65.2254 
-123.713 -124.407 70.0306 -123.844 -123.802 70.2304 -123.597 -124.899 69.3903 
-123.379 -125.114 68.3976 -122.981 -124.938 67.5079 -122.53 -124.39 66.9924 
-122.15 -123.507 66.53 -121.833 -122.411 65.8259 -121.612 -121.272 65.0511 
-121.517 -120.115 64.3907 -114.49 -124.039 71.991 -114.792 -124.751 72.9193 
-115.135 -123.608 72.24 -115.65 -124.1 73.0421 -116.022 -123.259 71.9588 
-115.598 -125.304 73.5989 -116.652 -123.543 72.6806 -116.929 -122.858 71.3795 
-116.581 -124.336 73.7532 -116.774 -125.322 74.3045 -117.569 -122.93 72.0945 
-117.711 -122.141 70.6871 -117.533 -123.544 73.5498 -117.677 -124.256 74.6863 
-117.891 -124.909 74.8261 -118.319 -122.097 71.2797 -118.357 -121.184 69.8457 
-118.356 -122.785 72.9037 -118.536 -123.415 74.5338 -118.786 -124.017 75.1526 
-119.129 -124.612 74.4844 -119.015 -121.218 70.1574 -119.037 -120.202 68.7795 
-119.089 -121.997 71.6761 -119.333 -122.62 73.4096 -119.732 -123.169 74.6349 
-120.19 -123.766 74.4848 -120.735 -124.53 73.6606 -119.803 -120.305 68.8568 
-119.777 -119.167 67.6131 -119.863 -121.221 70.1969 -120.058 -121.845 71.6596 
-120.491 -122.328 73.0451 -121.084 -122.875 73.6651 -121.633 -123.602 73.4028 
-122.118 -124.379 72.9749 -120.511 -119.173 67.6315 -120.354 -117.99 66.6077 
-120.635 -120.232 68.8091 -120.757 -120.958 70.0719 -121.048 -121.443 71.2714 
-121.588 -121.995 72.1505 -122.164 -122.721 72.473 -122.592 -123.456 72.3755 
-122.924 -124.022 72.0774 -120.942 -117.84 66.653 -120.693 -116.74 65.8392 
-121.181 -118.927 67.6101 -121.343 -119.783 68.7435 -121.536 -120.372 69.8707 
[...]
CELL_DATA 2000
SCALARS Distance double
LOOKUP_TABLE default
166.848 166.711 167.145 167.879 166.595 167.016 167.811 168.241 169.059 
166.634 166.978 167.803 168.215 169.129 169.543 170.495 166.83 167.126 
168.01 168.343 169.34 169.713 170.783 171.152 172.233 167.137 167.418 
168.412 168.708 169.798 170.096 171.247 171.561 172.721 173.024 174.11 
167.577 167.83 168.912 169.213 170.389 170.677 171.863 172.135 173.293 
173.566 174.65 174.891 175.838 168.133 168.368 169.491 169.782 170.978 
171.284 172.464 172.755 173.868 174.134 175.16 175.402 176.327 176.522 
177.335 168.732 168.975 170.119 170.399 171.566 171.854 172.985 173.29 
174.369 174.656 175.642 175.878 176.771 176.977 177.801 177.964 178.707 
169.356 169.592 170.73 171.015 172.142 172.414 173.475 173.759 174.792 
175.098 176.076 176.332 177.207 177.409 178.219 178.405 179.159 179.298 
179.958 166.156 164.946 165.704 165.963 163.597 164.414 164.72 165.51 
165.838 162.26 163.057 163.407 164.252 164.663 165.458 165.871 160.989 
161.758 162.08 162.931 163.36 164.247 164.708 165.537 166.004 159.742 
160.507 160.807 161.612 161.994 162.892 163.387 164.316 164.845 165.704 
166.249 158.627 159.307 159.662 160.398 160.797 161.589 162.128 163.028 
163.693 164.58 165.221 166.031 166.667 157.808 158.315 158.672 159.338 
159.809 160.533 161.129 161.932 162.693 163.554 164.32 165.099 165.757 
166.514 167.189 157.238 157.605 157.879 158.44 158.924 159.626 160.265 
161.043 161.812 162.657 163.463 164.265 164.946 165.659 166.275 167.048 
167.748 156.8 157.096 157.362 157.779 158.265 158.849 159.514 160.227 
160.992 161.798 162.595 163.414 164.128 164.859 165.474 166.177 166.831 
167.629 168.378 156.694 157.142 157.004 157.375 158.079 157.738 158.088 
157.864 158.337 159.023 158.738 159.078 158.769 159.187 158.979 159.573 
159.836 159.581 159.947 159.727 160.156 159.923 160.464 160.321 161.028 
160.952 160.494 160.873 160.581 161.077 160.871 161.444 161.27 161.938 
161.839 162.6 162.44 161.834 162.2 161.698 162.184 161.857 162.461 
162.256 162.925 162.783 163.489 163.406 164.114 164.03 163.409 163.789 
163.187 163.629 163.129 163.682 163.343 164.005 163.793 164.499 164.338 
165.018 164.878 165.507 165.757 165.07 165.511 164.852 165.338 164.717 
165.263 164.728 165.367 164.983 165.725 165.453 166.198 165.925 166.594 
166.316 166.938 167.654 166.914 167.394 166.678 167.228 166.546 167.143 
166.479 167.103 166.525 167.244 166.827 167.626 167.27 168.015 167.612 
168.269 167.873 168.515 169.574 169.387 170.05 171.21 169.184 169.899 
171.092 171.741 172.863 168.824 169.637 170.856 171.597 172.728 173.346 
174.347 168.472 169.253 170.482 171.273 172.41 173.124 174.131 174.736 
175.657 168.389 169.04 170.294 170.955 172.099 172.764 173.8 174.453 
175.431 176.028 176.988 168.462 169.086 170.386 170.943 172.104 172.599 
173.648 174.185 175.221 175.813 176.861 177.437 178.45 168.519 169.158 
170.463 171.068 172.239 172.718 173.746 174.18 175.194 175.698 176.761 
177.331 178.378 178.919 179.838 168.641 169.217 170.478 171.086 172.235 
172.782 173.785 174.269 175.22 175.711 176.698 177.245 178.25 178.813 
179.722 180.205 180.937 168.867 169.374 170.58 171.109 172.209 172.727 
173.704 174.214 175.133 175.654 176.573 177.126 178.063 178.639 179.527 
180.047 180.787 181.194 181.783 170.098 171.722 171.087 171.483 173.344 
172.734 173.114 172.499 172.874 174.826 174.305 174.692 174.112 174.474 
173.851 174.18 176.173 175.732 176.173 175.655 176.054 175.455 175.806 
175.155 175.483 177.546 177.103 177.617 177.128 177.586 177.03 177.418 
176.794 177.127 176.467 176.754 179.017 178.563 179.131 178.629 179.128 
178.573 178.974 178.375 178.695 178.071 178.33 177.673 177.869 180.361 
180.01 180.573 180.149 180.649 180.131 180.522 179.92 180.211 179.586 
179.827 179.196 179.391 178.722 178.869 181.396 181.188 181.701 181.438 
181.904 181.54 181.916 181.417 181.689 181.086 181.301 180.668 180.86 
180.215 180.365 179.689 179.793 182.205 182.076 182.569 182.403 182.848 
182.613 182.977 182.645 182.924 182.468 182.672 182.108 182.256 181.641 
181.748 181.117 181.182 180.533 180.56 182.791 183.906 183.3 183.208 
185.078 184.481 184.354 183.686 183.492 185.94 185.543 185.379 184.787 
184.493 183.867 183.587 186.402 186.178 186.026 185.625 185.313 184.774 
184.442 183.88 183.55 186.975 186.661 186.631 186.221 186.032 185.525 
185.25 184.705 184.385 183.792 183.369 187.869 187.489 187.608 187.065 
186.983 186.36 186.135 185.531 185.204 184.603 184.151 183.51 182.961 
188.465 188.354 188.463 188.098 187.938 187.367 187.012 186.403 185.951 
185.357 184.805 184.2 183.586 182.988 182.39 188.35 188.559 188.541 
188.557 188.254 188.001 187.468 187.05 186.445 185.956 185.309 184.753 
184.073 183.511 182.875 182.352 181.774 187.898 188.16 188.093 188.265 
187.966 187.939 187.418 187.2 186.592 186.255 185.625 185.169 184.494 
183.955 183.29 182.772 182.172 181.697 181.131 182.723 182.926 183.131 
183.805 183.115 183.319 183.975 184.256 184.953 183.251 183.476 184.07 
184.365 185.04 185.347 185.869 183.176 183.522 184.085 184.408 185.047 
185.384 185.928 186.107 186.402 182.784 183.291 183.858 184.307 184.94 
185.358 185.94 186.174 186.532 186.582 186.896 182.212 182.792 183.363 
183.922 184.531 185.1 185.706 186.128 186.55 186.72 187.05 187.176 
187.635 181.604 182.207 182.789 183.364 183.919 184.527 185.078 185.688 
186.153 186.592 186.932 187.22 187.571 187.86 188.205 180.897 181.559 
182.128 182.755 183.259 183.847 184.29 184.913 185.34 185.971 186.344 
186.866 187.152 187.569 187.77 188.117 188.168 180.041 180.748 181.257 
181.975 182.429 183.085 183.446 184.062 184.403 185.058 185.418 186.074 
186.365 186.921 187.073 187.505 187.528 187.844 187.764 169.418 170.78 
170.441 171.096 172.081 171.769 172.398 172.065 172.649 173.344 173.035 
173.674 173.35 173.93 173.562 174.1 174.599 174.296 174.962 174.649 
175.276 174.882 175.416 175.001 175.525 175.805 175.54 176.209 175.934 
176.587 176.243 176.799 176.366 176.872 176.445 176.972 176.935 176.725 
177.401 177.151 177.813 177.525 178.14 177.758 178.307 177.854 178.392 
177.938 178.475 177.937 177.816 178.522 178.318 179.01 178.756 179.455 
179.127 179.786 179.348 179.932 179.429 179.953 179.454 179.93 178.762 
178.745 179.476 179.375 180.083 179.922 180.648 180.436 181.145 180.822 
181.416 180.963 181.421 180.913 181.288 180.803 181.141 179.443 179.501 
180.248 180.241 180.935 180.878 181.551 181.483 182.135 182.009 182.544 
182.273 182.635 182.235 182.49 182.05 182.282 181.857 182.093 168.531 
167.582 168.703 169.929 166.617 167.767 169.123 170.164 171.327 165.772 
166.848 168.296 169.421 170.747 171.612 172.675 165.114 166.025 167.41 
168.604 170.065 171.082 172.256 172.983 173.956 164.727 165.394 166.561 
167.666 169.121 170.325 171.616 172.529 173.535 174.233 175.142 164.6 
165.072 166.041 166.864 168.179 169.331 170.697 171.778 172.877 173.72 
174.643 175.366 176.24 164.509 164.952 165.811 166.427 167.56 168.489 
169.813 170.869 172.069 172.997 173.981 174.784 175.673 176.406 177.223 
164.348 164.807 165.621 166.181 167.169 167.931 169.103 170.056 171.247 
172.204 173.243 174.093 174.996 175.773 176.594 177.311 178.043 164.231 
164.646 165.459 165.974 166.901 167.535 168.553 169.359 170.436 171.37 
172.409 173.325 174.251 175.072 175.891 176.636 177.372 178.061 178.723 
164.459 165.351 165.157 165.742 166.363 166.168 166.805 166.573 167.217 
167.346 167.188 167.87 167.682 168.329 168.096 168.799 168.449 168.197 
168.893 168.725 169.413 169.205 169.898 169.725 170.555 169.795 169.423 
170.102 169.824 170.56 170.318 171.062 170.85 171.684 171.563 172.482 
171.131 170.803 171.466 171.137 171.865 171.567 172.359 172.097 172.959 
172.759 173.669 173.514 174.367 172.291 172.054 172.73 172.469 173.184 
172.909 173.703 173.451 174.327 174.097 174.979 174.751 175.558 175.329 
176.033 173.394 173.177 173.884 173.674 174.419 174.19 174.99 174.777 
175.647 175.448 176.297 176.059 176.799 176.527 177.172 176.908 177.503 
174.481 174.283 175.004 174.821 175.592 175.401 176.201 176.019 176.856 
176.696 177.5 177.3 177.982 177.719 178.303 178.028 178.583 178.321 
178.852 175.298 176.789 175.978 175.883 178.428 177.565 177.502 176.631 
176.523 180.193 179.284 179.238 178.319 178.228 177.303 177.174 182.033 
181.104 181.057 180.1 180.003 179.049 178.928 177.976 177.841 183.79 
182.911 182.832 181.907 181.775 180.828 180.672 179.725 179.552 178.62 
178.44 185.265 184.512 184.353 183.553 183.38 182.527 182.321 181.413 
181.163 180.25 179.988 179.11 178.851 186.326 185.757 185.548 184.897 
184.704 183.987 183.767 182.954 182.663 181.781 181.466 180.586 180.289 
179.433 179.146 187.004 186.623 186.468 185.962 185.801 185.194 184.981 
184.27 183.978 183.183 182.871 182.036 181.751 180.884 180.601 179.72 
179.43 187.487 187.229 187.19 186.81 186.716 186.214 186.016 185.39 
185.084 184.382 184.062 183.346 183.071 182.311 182.031 181.187 180.867 
179.991 179.675 175.243 175.596 175.848 176.713 175.891 176.229 177.176 
177.409 178.347 176.029 176.514 177.582 177.906 178.909 179.118 180.108 
175.95 176.577 177.763 178.283 179.388 179.69 180.729 180.938 181.951 
175.839 176.456 177.738 178.418 179.7 180.149 181.275 181.551 182.64 
182.83 183.791 175.981 176.459 177.81 178.471 179.937 180.485 181.756 
182.096 183.255 183.522 184.59 184.668 185.421 176.298 176.727 178.064 
178.669 180.149 180.756 182.071 182.523 183.678 184.07 185.164 185.417 
186.223 186.148 186.561 176.509 176.999 178.23 178.867 180.189 180.867 
182.045 182.642 183.674 184.259 185.277 185.79 186.601 186.781 187.17 
187.025 187.171 176.564 177.08 178.181 178.841 179.993 180.705 181.719 
182.381 183.265 183.96 184.875 185.607 186.421 186.901 187.323 187.412 
187.521 187.425 187.516 174.413 173.251 174.124 174.702 171.979 172.875 
173.368 174.323 174.879 170.605 171.501 171.892 172.863 173.338 174.399 
174.926 169.204 170.075 170.405 171.324 171.761 172.804 173.337 174.397 
174.874 167.807 168.675 169.005 169.862 170.275 171.254 171.833 172.874 
173.426 174.366 174.825 166.413 167.289 167.672 168.519 168.908 169.805 
170.325 171.374 171.988 173 173.527 174.412 174.948 165.114 165.937 
166.39 167.248 167.703 168.515 168.958 169.87 170.435 171.504 172.122 
173.134 173.7 174.629 175.234 164.025 164.735 165.213 166.044 166.612 
167.412 167.932 168.666 169.209 170.065 170.736 171.724 172.398 173.362 
173.959 174.902 175.477 163.154 163.758 164.213 164.957 165.552 166.375 
167.004 167.762 168.383 169.096 169.783 170.565 171.279 172.123 172.752 
173.623 174.174 175.084 175.6 162.852 162.819 163.174 163.93 162.922 
163.234 164.037 164.379 165.256 163.19 163.441 164.268 164.552 165.454 
165.817 166.742 163.594 163.792 164.608 164.834 165.723 166.06 167.068 
167.387 168.271 164.053 164.204 164.979 165.185 166.042 166.354 167.398 
167.774 168.809 168.986 169.784 164.583 164.649 165.384 165.562 166.427 
166.701 167.706 168.092 169.149 169.49 170.372 170.489 171.201 165.234 
165.209 165.918 166.027 166.93 167.152 168.127 168.408 169.352 169.707 
170.575 170.899 171.649 171.835 172.542 165.937 165.889 166.562 166.616 
167.487 167.692 168.649 168.862 169.712 169.92 170.725 171.024 171.858 
172.16 172.964 173.161 173.922 166.581 166.573 167.205 167.243 168.01 
168.2 169.09 169.334 170.169 170.333 171.121 171.304 172.199 172.454 
173.397 173.606 174.461 174.58 175.349 167.103 168.149 167.67 167.781 
169.348 168.801 168.959 168.417 168.609 170.803 170.14 170.346 169.712 
169.943 169.382 169.673 172.542 171.769 172.035 171.275 171.541 170.843 
171.131 170.522 170.774 174.386 173.61 173.914 173.112 173.421 172.61 
172.912 172.131 172.395 171.647 171.83 176.074 175.403 175.695 174.982 
175.293 174.533 174.838 174.028 174.32 173.469 173.714 172.823 173.009 
177.556 176.978 177.265 176.653 176.948 176.301 176.582 175.878 176.147 
175.399 175.666 174.833 175.032 174.099 174.232 178.924 178.402 178.707 
178.147 178.453 177.866 178.149 177.511 177.756 177.096 177.346 176.666 
176.875 176.076 176.16 175.249 175.269 180.164 179.722 180.036 179.544 
179.854 179.323 179.611 179.024 179.269 178.639 178.881 178.249 178.481 
177.788 177.907 177.079 177.067 176.168 176.129 176.898 177.875 177.745 
178.513 178.75 178.729 179.533 179.447 180.268 179.365 179.514 180.362 
180.401 181.193 181.146 181.886 179.761 180.013 180.887 181.086 181.892 
181.959 182.685 182.659 183.375 180.114 180.365 181.213 181.483 182.331 
182.541 183.362 183.439 184.255 184.216 185.02 180.454 180.712 181.546 
181.797 182.658 182.922 183.832 184.062 184.968 185.083 185.906 185.881 
186.549 180.688 181 181.841 182.129 182.985 183.264 184.144 184.447 
185.308 185.599 186.326 186.518 187.029 187.086 187.379 180.818 181.16 
181.959 182.328 183.148 183.517 184.321 184.669 185.402 185.738 186.353 
186.65 187.085 187.272 187.499 187.55 187.602 180.888 181.227 181.945 
182.335 183.079 183.523 184.273 184.702 185.379 185.731 186.313 186.599 
187.096 187.284 187.633 187.661 187.822 187.712 187.722 156.625 157.086 
156.769 156.593 157.547 157.191 156.951 156.67 156.415 158.283 157.711 
157.385 156.981 156.692 156.408 156.225 159.457 158.678 158.386 157.665 
157.433 156.864 156.77 156.416 156.547 160.785 160.017 159.847 158.995 
158.843 158.002 157.974 157.312 157.5 157.09 157.46 162.087 161.381 
161.308 160.542 160.434 159.587 159.494 158.722 158.816 158.256 158.559 
158.173 158.59 163.455 162.743 162.728 162 161.943 161.143 161.016 
160.214 160.181 159.555 159.758 159.322 159.69 159.342 159.794 164.817 
164.142 164.13 163.428 163.393 162.636 162.566 161.746 161.722 160.96 
161.12 160.545 160.892 160.473 160.903 160.57 161.041 166.006 165.425 
165.364 164.743 164.661 164.012 163.958 163.269 163.297 162.569 162.715 
162.027 162.305 161.745 162.111 161.688 162.084 161.77 162.184 156.319 
156.256 156.125 155.904 156.165 156.082 155.856 155.809 155.947 156.092 
156.024 155.96 155.875 156.051 156.171 156.79 156.443 156.178 156.302 
156.151 156.457 156.442 157.06 157.288 158.07 157.309 156.834 157.039 
156.771 157.213 157.05 157.655 157.68 158.42 158.583 159.229 158.407 
157.839 158.019 157.693 158.21 157.998 158.625 158.445 159.112 159.062 
159.728 159.733 160.3 159.628 158.994 159.128 158.72 159.209 159.025 
159.688 159.501 160.121 159.912 160.511 160.377 160.951 160.869 161.411 
160.921 160.284 160.407 159.884 160.258 159.99 160.572 160.454 161.032 
160.886 161.382 161.215 161.682 161.552 162.007 161.947 162.427 162.099 
161.565 161.699 161.177 161.438 161.041 161.432 161.231 161.683 161.602 
162.029 161.954 162.339 162.233 162.603 162.507 162.908 162.887 163.356 
156.374 156.043 156.319 156.778 156.21 156.21 156.728 157.019 157.724 
157.117 156.76 157.227 157.194 157.836 158.075 158.714 158.324 157.869 
158.185 157.9 158.351 158.32 158.855 159.01 159.574 159.334 158.942 
159.12 158.818 159.126 158.944 159.389 159.331 159.907 159.994 160.715 
160.33 159.869 160.026 159.67 160.003 159.761 160.247 160.058 160.638 
160.545 161.264 161.346 162.19 161.486 160.975 161.215 160.728 161.142 
160.773 161.336 161.052 161.633 161.409 162.038 161.986 162.765 162.887 
163.758 162.58 162.175 162.508 162.059 162.494 162.064 162.581 162.221 
162.752 162.449 163.003 162.817 163.532 163.532 164.43 164.535 165.493 
163.547 163.232 163.618 163.298 163.73 163.376 163.803 163.438 163.89 
163.565 164.122 163.864 164.603 164.456 165.394 165.368 166.406 166.426 
167.43 173.945 172.847 173.199 172.795 171.723 172.062 171.63 172.011 
171.571 170.548 170.904 170.404 170.792 170.334 170.732 170.243 169.214 
169.64 169.102 169.511 168.976 169.411 168.913 169.347 168.837 167.839 
168.233 167.687 168.131 167.545 167.981 167.406 167.903 167.399 167.898 
167.396 166.674 166.916 166.319 166.696 166.097 166.502 165.867 166.335 
165.798 166.364 165.908 166.441 165.975 165.677 165.83 165.178 165.425 
164.825 165.12 164.496 164.839 164.292 164.783 164.388 164.946 164.576 
165.071 164.686 164.727 164.858 164.235 164.403 163.861 164.036 163.504 
163.67 163.168 163.448 163.082 163.531 163.249 163.735 163.434 163.888 
163.606 163.914 163.987 163.449 163.567 163.121 163.248 162.835 162.916 
162.495 162.581 162.197 162.418 162.106 162.488 162.211 162.67 162.419 
162.9 162.715 
POINT_DATA 1002
SCALARS Distance double
LOOKUP_TABLE default
167.547 166.569 166.429 167.46 166.247 168.632 167.343 166.198 168.635 
169.914 167.397 166.311 168.673 170.083 171.492 167.674 166.509 168.964 
170.386 171.883 173.326 168.075 166.832 169.491 170.944 172.416 173.867 
175.141 168.586 167.318 170.078 171.601 173.048 174.419 175.668 176.71 
169.205 167.879 170.685 172.177 173.62 174.94 176.125 177.192 178.108 
169.844 168.475 171.313 172.706 174.078 175.414 176.575 177.619 178.596 
179.422 170.46 169.137 171.891 173.226 174.496 175.807 177.011 178.038 
179.005 179.882 180.575 165.471 165.215 164.154 163.874 162.765 165.072 
162.535 161.481 163.813 165.107 161.26 160.228 162.448 163.824 165.196 
160.035 158.967 161.131 162.408 163.932 165.409 158.924 157.992 160.032 
161.234 162.747 164.402 165.855 158.033 157.403 159.064 160.336 161.82 
163.517 165.045 166.375 157.382 156.934 158.227 159.483 160.979 162.64 
164.236 165.561 166.892 156.975 156.494 157.732 158.84 160.223 161.779 
163.368 164.782 166.081 167.524 156.618 157.422 157.39 158.406 158.446 
158.442 159.368 159.259 159.464 159.659 160.12 160.133 160.356 160.652 
161.085 161.233 161.495 161.271 161.61 162.076 162.657 162.778 163.05 
162.593 162.692 163.085 163.618 164.194 164.399 164.641 164.192 164.103 
164.252 164.679 165.204 165.659 166.171 166.46 165.964 165.857 165.829 
166.021 166.478 166.915 167.211 168.111 168.391 167.901 167.819 167.754 
167.729 167.985 168.421 168.712 168.886 170.701 170.565 172.368 170.423 
172.295 173.934 170.072 172.08 173.815 175.299 169.708 171.673 173.483 
175.101 176.575 169.691 171.491 173.141 174.782 176.414 177.98 169.819 
171.656 173.172 174.636 176.249 177.923 179.45 169.84 171.737 173.332 
174.738 176.214 177.826 179.389 180.677 169.913 171.689 173.285 174.742 
176.186 177.7 179.228 180.552 181.583 170.101 171.731 173.212 174.622 
176.041 177.499 178.993 180.363 181.449 182.32 172.102 173.736 173.509 
175.252 175.096 174.824 176.649 176.622 176.45 176.15 178.088 178.118 
178.023 177.787 177.449 179.623 179.686 179.584 179.321 178.982 178.563 
180.959 181.14 181.126 180.859 180.458 180.046 179.569 181.931 182.217 
182.359 182.268 181.943 181.504 181.033 180.496 182.716 183.063 183.266 
183.31 183.196 182.879 182.388 181.826 181.226 183.339 183.847 184.533 
185.066 185.637 184.151 185.929 186.259 185.146 184.187 186.35 186.602 
185.805 184.994 184.147 187.035 187.293 186.514 185.782 184.976 184.035 
188.144 188.174 187.652 186.79 185.838 184.801 183.619 188.748 188.477 
188.502 187.666 186.585 185.434 184.182 182.96 188.456 188.121 188.425 
187.841 186.903 185.851 184.647 183.394 182.273 187.908 187.671 187.921 
187.558 186.86 186.015 185.013 183.827 182.652 181.593 182.511 183.546 
182.722 183.691 182.935 184.69 183.806 183.015 184.715 185.716 183.748 
182.769 184.706 185.723 186.349 183.358 182.228 184.47 185.648 186.452 
186.797 182.795 181.617 183.94 185.186 186.288 186.914 187.443 182.214 
180.986 183.362 184.46 185.595 186.58 187.308 187.966 181.481 180.228 
182.693 183.725 184.69 185.741 186.715 187.437 187.91 180.538 179.361 
181.756 182.842 183.777 184.747 185.77 186.614 187.172 187.505 169.764 
171.46 171.121 172.731 172.399 173.009 173.982 173.658 174.316 174.471 
175.254 174.89 175.654 175.865 175.917 176.482 176.049 176.897 177.216 
177.323 177.383 177.649 177.112 178.078 178.468 178.741 178.862 178.936 
178.69 178.013 179.232 179.725 180.176 180.444 180.492 180.435 179.534 
178.743 180.208 180.813 181.412 181.85 181.957 181.815 181.615 167.441 
168.907 166.399 167.996 165.458 170.468 167.093 164.766 169.803 171.974 
166.218 164.359 168.92 171.474 173.324 165.606 164.22 167.862 170.583 
172.794 174.491 165.394 164.189 167.125 169.552 171.96 173.881 175.562 
165.275 164.065 166.766 168.791 171.099 173.153 174.915 176.547 165.083 
163.898 166.505 168.237 170.282 172.364 174.215 175.863 177.376 164.959 