# vtk DataFile Version 4.0
vtk output
ASCII
DATASET POLYDATA
POINTS 1002 float
-120.597 -114.239 53.5358 -120.431 -113.292 52.5312 -119.752 -113.581 52.7257 
-119.986 -114.54 53.9082 -119.159 -113.766 53.2104 -120.84 -115.191 54.8981 
-119.475 -114.772 54.5647 -118.714 -113.969 53.8857 -120.309 -115.511 55.507 
-121.091 -116.242 56.579 -118.994 -115.102 55.3818 -118.231 -114.332 54.6276 
-119.788 -115.896 56.2764 -120.538 -116.724 57.2912 -121.225 -117.57 58.2474 
-118.427 -115.591 56.2923 -117.65 -114.842 55.4412 -119.194 -116.464 57.1288 
-119.946 -117.379 58.0397 -120.611 -118.298 58.9548 -121.243 -119.199 59.7401 
-117.913 -116.172 57.2567 -117.165 -115.483 56.2993 -118.616 -117.101 58.1012 
-119.35 -118.11 58.9241 -120.04 -119.059 59.7988 -120.635 -119.988 60.5671 
-121.181 -120.88 61.1862 -117.512 -116.886 58.1697 -116.799 -116.248 57.164 
-118.159 -117.746 59.1019 -118.814 -118.773 59.947 -119.474 -119.746 60.8166 
-120.055 -120.661 61.5723 -120.544 -121.571 62.125 -121.008 -122.356 62.5924 
-117.057 -117.716 59.0534 -116.412 -117.027 58.0949 -117.668 -118.519 60.0332 
-118.259 -119.458 60.94 -118.815 -120.449 61.8001 -119.327 -121.381 62.5428 
-119.804 -122.254 63.07 -120.267 -123.014 63.5009 -120.749 -123.59 63.9233 
-116.531 -118.528 59.9615 -115.997 -117.768 59.0686 -117.07 -119.381 60.9312 
-117.615 -120.251 61.881 -118.098 -121.182 62.7221 -118.496 -122.16 63.401 
-118.912 -123.039 63.9115 -119.396 -123.739 64.3476 -119.925 -124.264 64.7911 
-120.457 -124.669 65.1819 -116.043 -119.276 60.8328 -115.609 -118.524 59.9702 
-116.48 -120.173 61.7796 -116.945 -121.05 62.7534 -117.393 -121.872 63.6327 
-117.739 -122.768 64.303 -118.066 -123.668 64.7808 -118.498 -124.387 65.1938 
-119.029 -124.9 65.619 -119.595 -125.294 66.0112 -120.132 -125.631 66.2908 
-119.834 -112.443 51.7304 -119.107 -112.612 52.0477 -119.145 -111.329 51.0456 
-118.434 -111.405 51.4928 -118.411 -110.07 50.4818 -118.521 -112.742 52.6157 
-117.662 -110.267 50.9022 -117.685 -108.951 49.9489 -117.8 -111.628 52.0448 
-118.022 -113.033 53.2294 -116.772 -109.383 50.2354 -116.95 -108.008 49.4529 
-116.847 -110.744 51.3348 -117.107 -112.127 52.5639 -117.39 -113.546 53.8533 
-115.943 -108.447 49.7634 -116.211 -107.067 49.1377 -115.864 -109.967 50.6694 
-116.034 -111.377 51.9342 -116.324 -112.8 53.1844 -116.716 -114.205 54.5935 
-115.34 -107.402 49.717 -115.593 -106.244 49.0656 -115.175 -108.952 50.451 
-115.2 -110.556 51.5377 -115.336 -112.056 52.7351 -115.665 -113.562 53.9278 
-116.244 -114.975 55.4311 -114.897 -106.654 49.989 -115.108 -105.682 49.2245 
-114.679 -107.98 50.7498 -114.585 -109.607 51.5332 -114.586 -111.217 52.449 
-114.749 -112.793 53.4713 -115.263 -114.366 54.7566 -115.933 -115.773 56.387 
-114.43 -106.224 50.3736 -114.604 -105.237 49.6272 -114.174 -107.38 51.2213 
-113.942 -108.823 51.8476 -113.831 -110.374 52.3748 -113.94 -111.899 53.1417 
-114.402 -113.53 54.2958 -115.08 -115.15 55.8092 -115.652 -116.54 57.4818 
-113.876 -105.845 50.8291 -114.053 -104.836 50.2523 -113.654 -106.961 51.6103 
-113.389 -108.259 52.2157 -113.162 -109.673 52.5799 -113.196 -111.041 53.1017 
-113.685 -112.525 54.0788 -114.408 -114.271 55.4511 -114.993 -115.957 57.0125 
-115.364 -117.339 58.558 -113.38 -105.178 51.3203 -113.157 -106.249 51.8992 
-112.702 -105.697 52.6088 -112.528 -106.783 53.0882 -112.126 -106.35 54.0928 
-113 -107.511 52.5132 -112.028 -107.538 54.5628 -111.804 -107.117 55.5864 
-112.513 -108.232 53.5987 -112.799 -108.964 52.9681 -111.791 -108.491 56.1344 
-112.102 -108.051 56.7764 -112.1 -109.221 55.1926 -112.445 -109.826 54.2088 
-112.697 -110.354 53.4686 -112.39 -109.523 57.2873 -113.173 -109.273 57.7227 
-112.109 -110.231 56.7572 -112.373 -110.804 55.9052 -112.753 -111.117 54.9894 
-113.151 -111.673 54.3263 -113.803 -110.896 58.1339 -114.474 -110.971 58.6812 
-113.138 -111.258 57.7579 -112.964 -111.757 57.2139 -113.291 -112.049 56.5173 
-113.687 -112.537 55.9209 -114.013 -113.411 55.5555 -115.056 -112.923 59.0899 
-115.448 -113.107 59.5696 -114.535 -112.906 58.7092 -114.118 -113.127 58.2398 
-114.067 -113.38 57.6658 -114.251 -113.851 57.2573 -114.423 -114.693 57.0766 
-114.629 -115.485 57.0107 -115.649 -115.176 60.1817 -116.034 -115.213 60.3745 
-115.258 -115.129 59.995 -114.894 -115.196 59.6728 -114.61 -115.328 59.1346 
-114.445 -115.655 58.6483 -114.418 -116.345 58.4595 -114.565 -117.009 58.4779 
-114.9 -117.286 58.5289 -115.825 -116.969 61.381 -116.318 -116.843 61.3504 
-115.357 -117.09 61.4202 -114.98 -117.255 61.3678 -114.643 -117.396 61.0689 
-114.303 -117.584 60.57 -114.096 -118.055 60.1466 -114.2 -118.602 59.9693 
-114.589 -118.785 59.9609 -115.099 -118.653 59.9789 -115.462 -119.803 61.389 
-114.887 -120.063 61.4757 -115.17 -121.177 63.0193 -114.249 -120.293 61.5668 
-114.491 -121.494 63.2394 -114.639 -122.428 64.865 -113.747 -120.112 61.7809 
-113.715 -121.683 63.4403 -113.823 -122.744 65.1309 -113.996 -123.507 66.6654 
-113.652 -119.585 62.2271 -113.132 -121.357 63.7888 -112.934 -122.82 65.2757 
-113.092 -123.819 66.8153 -113.429 -124.662 68.1513 -113.973 -119.208 62.7431 
-113.113 -120.759 64.3231 -112.406 -122.332 65.6333 -112.238 -123.77 66.9401 
-112.52 -124.918 68.3015 -112.758 -125.982 69.4753 -114.433 -119.013 63.0262 
-113.629 -120.409 64.7035 -112.66 -121.748 66.1494 -112.006 -123.235 67.4278 
-111.937 -124.69 68.7004 -111.969 -126.023 69.9098 -111.888 -127.154 70.9381 
-114.892 -118.735 63.0268 -114.288 -120.17 64.7478 -113.465 -121.494 66.3742 
-112.599 -122.815 67.8859 -112.128 -124.186 69.284 -111.847 -125.587 70.5473 
-111.438 -126.868 71.6491 -111.195 -127.897 72.5343 -115.42 -118.419 62.9057 
-114.889 -119.798 64.6434 -114.259 -121.245 66.3096 -113.496 -122.63 67.9174 
-112.866 -123.878 69.4786 -112.407 -125.137 70.8904 -111.796 -126.32 72.1667 
-111.178 -127.307 73.2796 -110.953 -128.197 74.0648 -116.009 -118.175 62.7668 
-115.48 -119.421 64.508 -114.886 -120.832 66.178 -114.237 -122.301 67.729 
-113.628 -123.583 69.2889 -113.165 -124.804 70.7606 -112.603 -125.95 72.129 
-111.848 -126.771 73.4942 -111.256 -127.419 74.6629 -111.09 -128.174 75.345 
-115.833 -120.66 62.3811 -115.433 -122.024 64.1341 -116.196 -121.612 63.4175 
-114.839 -123.194 66.0086 -115.704 -122.933 65.1668 -116.595 -122.469 64.4092 
-114.269 -124.346 67.7271 -115.08 -124.15 66.8909 -116.019 -123.796 66.039 
-116.96 -123.271 65.2198 -113.687 -125.703 69.1822 -114.521 -125.453 68.5052 
-115.363 -125.144 67.5833 -116.357 -124.616 66.7243 -117.286 -124.13 65.7835 
-112.82 -127.057 70.586 -113.914 -126.707 70.1065 -114.848 -126.405 69.2344 
-115.781 -125.968 68.2147 -116.794 -125.395 67.2453 -117.699 -124.916 66.208 
-111.881 -128.127 72.0568 -113.104 -127.774 71.6417 -114.358 -127.313 71.0149 
-115.387 -127.042 69.9523 -116.365 -126.624 68.7669 -117.343 -126.047 67.6725 
-118.228 -125.501 66.6097 -111.308 -128.827 73.522 -112.318 -128.79 72.9489 
-113.698 -128.187 72.4418 -114.986 -127.753 71.6547 -116.03 -127.546 70.4539 
-116.989 -127.113 69.1682 -117.931 -126.523 68.0074 -118.814 -125.938 66.9611 
-111.195 -129.082 74.8511 -111.852 -129.563 74.1047 -113.035 -129.228 73.4048 
-114.444 -128.577 72.7455 -115.694 -128.212 71.8507 -116.695 -127.924 70.6513 
-117.616 -127.444 69.3639 -118.54 -126.894 68.1964 -119.402 -126.304 67.1945 
-111.455 -128.565 76.1221 -111.707 -129.56 75.4303 -112.254 -128.764 76.4619 
-112.71 -129.608 75.7413 -113.604 -128.67 76.4532 -112.518 -129.957 74.5165 
-114.319 -129.359 75.9904 -115.316 -128.707 76.3869 -113.766 -129.93 74.8336 
-113.868 -129.579 73.6023 -116.15 -129.498 76.1619 -117.113 -129.235 76.3114 
-115.523 -129.846 75.1765 -115.248 -129.8 73.6992 -115.361 -129.036 72.7195 
-117.92 -129.9 75.9618 -119.083 -129.68 76.0885 -117.165 -130.012 75.2245 
-116.779 -130.05 73.7437 -116.582 -129.507 72.5315 -116.564 -128.643 71.7248 
-119.852 -129.845 75.382 -121.049 -129.595 75.6589 -118.728 -129.919 74.6952 
-118.052 -130.085 73.4544 -117.728 -129.858 72.235 -117.557 -129.044 71.4018 
-117.518 -128.187 70.4918 -121.707 -129.634 74.5593 -122.48 -129.379 74.9109 
-120.62 -129.649 73.8051 -119.592 -129.792 72.7515 -118.939 -129.844 71.7344 
-118.618 -129.31 70.9528 -118.477 -128.456 70.1398 -118.467 -127.661 69.1693 
-123.068 -129.659 73.5317 -123.415 -129.238 73.8705 -122.419 -129.747 72.8255 
-121.497 -129.732 71.9066 -120.599 -129.68 71.0888 -119.974 -129.298 70.4494 
-119.612 -128.597 69.7353 -119.444 -127.85 68.8676 -119.407 -127.091 68.0103 
-124.065 -129.555 72.5232 -124.256 -128.964 72.8506 -123.714 -129.823 71.9474 
-123.083 -129.804 71.1825 -122.268 -129.576 70.482 -121.507 -129.107 69.9537 
-120.911 -128.472 69.3622 -120.505 -127.841 68.5737 -120.303 -127.177 67.7615 
-120.218 -126.411 67.0255 -111.531 -127.526 76.0656 -112.035 -127.734 76.8728 
-112.317 -127.058 76.4572 -112.976 -127.139 77.3683 -113.33 -126.769 76.503 
-113.1 -127.866 77.0702 -114.074 -126.771 77.5265 -114.431 -126.43 75.9713 
-114.236 -127.263 77.6401 -114.672 -127.915 76.844 -115.219 -126.433 76.7838 
-115.618 -126.067 74.7399 -115.389 -126.844 77.9047 -115.891 -127.341 77.4694 
-116.435 -128.181 76.6215 -116.494 -126.125 75.1514 -116.877 -125.733 73.3786 
-116.569 -126.494 76.9112 -117.082 -126.806 77.6519 -117.69 -127.458 77.1444 
-118.376 -128.69 76.4532 -117.749 -125.71 73.6316 -117.982 -125.266 72.2538 
-117.824 -126.127 75.0867 -118.285 -126.424 76.4124 -118.889 -126.75 76.9448 
-119.657 -127.704 76.6179 -120.476 -128.955 76.1454 -118.728 -125.107 72.4278 
-118.862 -124.663 71.0464 -118.866 -125.527 73.654 -119.356 -125.98 74.7549 
-119.912 -126.353 75.6309 -120.579 -126.924 75.9633 -121.436 -127.932 75.8594 
-122.109 -128.876 75.5566 -119.575 -124.492 71.0714 -119.692 -124.009 69.7323 
-119.666 -124.87 72.3883 -120.12 -125.313 73.5026 -120.676 -125.856 74.3168 
-121.203 -126.446 74.7679 -121.899 -127.157 74.9543 -122.607 -127.959 74.9676 
-123.074 -128.679 74.6358 -120.454 -123.859 69.7143 -120.49 -123.27 68.6561 
-120.508 -124.328 70.8915 -120.81 -124.732 72.0899 -121.286 -125.201 73.0979 
[...]
CELL_DATA 2000
SCALARS Distance double
LOOKUP_TABLE default
172.762 172.605 173.072 173.897 172.572 172.991 173.875 174.313 175.218 
172.68 173.054 173.972 174.375 175.334 175.738 176.691 172.87 173.225 
174.179 174.553 175.554 175.933 176.937 177.29 178.261 173.177 173.485 
174.489 174.827 175.877 176.231 177.286 177.614 178.624 178.917 179.863 
173.652 173.894 174.925 175.212 176.287 176.613 177.693 178.012 179.031 
179.315 180.245 180.5 181.337 174.204 174.426 175.442 175.699 176.747 
177.047 178.098 178.417 179.405 179.699 180.588 180.85 181.642 181.874 
182.576 174.743 174.964 175.953 176.21 177.219 177.499 178.495 178.793 
179.732 180.025 180.869 181.137 181.889 182.131 182.808 183.02 183.628 
175.271 175.473 176.426 176.686 177.662 177.939 178.88 179.157 180.031 
180.308 181.1 181.369 182.081 182.333 182.978 183.211 183.8 184.005 
184.534 172.011 170.708 171.508 171.791 169.263 170.134 170.456 171.313 
171.708 167.813 168.674 169.028 169.94 170.378 171.289 171.779 166.459 
167.258 167.592 168.501 168.948 169.913 170.426 171.381 171.926 165.184 
165.925 166.22 167.088 167.525 168.476 168.998 169.982 170.563 171.551 
172.187 164.076 164.703 165.003 165.778 166.247 167.126 167.675 168.596 
169.201 170.183 170.883 171.899 172.647 163.29 163.765 164.098 164.708 
165.198 165.962 166.529 167.363 167.955 168.873 169.581 170.609 171.423 
172.445 173.228 162.736 163.146 163.499 163.976 164.418 165.03 165.528 
166.263 166.789 167.647 168.312 169.328 170.176 171.242 172.109 173.073 
173.829 162.248 162.647 163.003 163.445 163.838 164.334 164.746 165.327 
165.777 166.504 167.127 168.077 168.956 170.038 171.005 172.009 172.863 
173.718 174.431 162.125 162.278 162.394 162.873 162.638 162.617 163.068 
163.209 163.732 163.28 163.097 163.54 163.534 164.059 164.117 164.634 
164.275 163.897 164.379 164.205 164.761 164.622 165.116 165.07 165.632 
165.787 165.124 165.6 165.232 165.845 165.548 166.09 165.798 166.377 
166.257 167.026 167.888 166.945 167.375 166.693 167.303 166.823 167.461 
167.025 167.704 167.349 168.201 167.998 168.978 170.281 169.264 169.704 
168.758 169.33 168.557 169.222 168.605 169.36 168.894 169.794 169.456 
170.441 170.165 171.11 172.506 171.637 172.088 171.172 171.703 170.807 
171.408 170.594 171.273 170.654 171.48 171.085 171.996 171.689 172.535 
172.232 172.98 174.302 173.65 174.037 173.344 173.795 173.07 173.563 
172.795 173.301 172.591 173.204 172.711 173.469 173.147 173.903 173.597 
174.253 173.94 174.535 175.432 175.211 175.793 176.729 174.927 175.579 
176.55 177.118 178 174.551 175.254 176.252 176.896 177.784 178.32 
179.086 174.326 174.916 175.883 176.517 177.376 178 178.765 179.314 
180.041 174.449 174.862 175.765 176.197 176.965 177.512 178.26 178.889 
179.657 180.259 181.018 174.705 175.086 175.976 176.243 176.95 177.242 
177.955 178.426 179.25 179.852 180.688 181.252 181.972 174.872 175.289 
176.195 176.501 177.259 177.442 178.164 178.385 179.223 179.618 180.52 
180.989 181.766 182.185 182.801 175.025 175.408 176.294 176.663 177.489 
177.778 178.557 178.76 179.566 179.808 180.681 181 181.793 182.091 
182.708 182.998 183.526 175.231 175.567 176.408 176.752 177.573 177.94 
178.744 179.071 179.84 180.132 180.919 181.226 181.987 182.236 182.838 
183.012 183.487 183.711 184.17 175.875 177.174 176.681 177.031 178.428 
177.99 178.356 177.889 178.261 179.509 179.172 179.549 179.171 179.553 
179.11 179.453 180.52 180.217 180.619 180.289 180.679 180.322 180.673 
180.247 180.548 181.55 181.27 181.723 181.374 181.768 181.403 181.758 
181.386 181.701 181.289 181.564 182.47 182.282 182.766 182.487 182.895 
182.524 182.868 182.468 182.785 182.391 182.682 182.267 182.515 183.234 
183.117 183.598 183.435 183.864 183.603 183.965 183.601 183.909 183.494 
183.774 183.357 183.608 183.181 183.392 183.936 183.841 184.328 184.202 
184.634 184.459 184.842 184.608 184.936 184.601 184.853 184.442 184.656 
184.24 184.441 184.021 184.196 184.567 184.517 185.018 184.923 185.347 
185.184 185.54 185.372 185.711 185.508 185.773 185.454 185.625 185.238 
185.396 185.015 185.18 184.781 184.914 185.029 185.839 185.483 185.522 
186.591 186.278 186.344 185.943 185.864 187.486 187.079 187.183 186.762 
186.704 186.207 186.046 188.735 188.151 188.291 187.729 187.715 187.112 
186.954 186.385 186.219 190.115 189.481 189.524 188.917 188.853 188.213 
188.008 187.353 187.104 186.538 186.296 191.236 190.695 190.493 189.955 
189.696 189.201 188.896 188.342 187.974 187.391 187.025 186.496 186.146 
191.959 191.573 191.255 190.715 190.309 189.829 189.477 189.039 188.663 
188.152 187.725 187.182 186.779 186.272 185.91 192.31 192.125 191.928 
191.443 191.084 190.49 190.15 189.617 189.297 188.781 188.39 187.846 
187.43 186.907 186.533 186.043 185.694 192.395 192.382 192.335 192.065 
191.807 191.311 190.949 190.383 190.003 189.45 189.03 188.487 188.04 
187.528 187.113 186.642 186.259 185.801 185.42 184.903 185.073 185.199 
185.681 185.444 185.453 185.879 185.98 186.451 185.824 185.881 186.333 
186.321 186.768 186.797 187.344 185.95 186.172 186.725 186.83 187.32 
187.27 187.787 187.831 188.557 185.926 186.195 186.78 187.089 187.674 
187.801 188.307 188.343 189.02 189.189 190.001 185.881 186.142 186.654 
187.021 187.63 187.974 188.517 188.723 189.318 189.579 190.359 190.612 
191.266 185.674 186.006 186.433 186.819 187.364 187.807 188.368 188.734 
189.265 189.644 190.296 190.75 191.386 191.649 192.004 185.306 185.688 
186.077 186.489 186.969 187.459 188.001 188.467 188.963 189.396 189.905 
190.427 190.955 191.459 191.813 192.094 192.234 184.925 185.301 185.692 
186.087 186.534 187.004 187.514 188.022 188.505 188.98 189.417 189.909 
190.341 190.865 191.211 191.654 191.843 192.142 192.23 175.638 176.636 
176.363 176.797 177.693 177.389 177.835 177.516 177.948 178.857 178.511 
178.983 178.612 179.042 178.697 179.126 180.048 179.714 180.2 179.815 
180.225 179.823 180.217 179.864 180.251 181.106 180.842 181.315 181.007 
181.415 181.018 181.381 180.98 181.377 181.001 181.377 182.049 181.815 
182.282 182.046 182.498 182.175 182.575 182.177 182.589 182.189 182.596 
182.161 182.465 182.974 182.748 183.247 183.015 183.515 183.235 183.675 
183.338 183.745 183.394 183.761 183.363 183.602 183.138 183.263 183.811 
183.651 184.16 183.982 184.476 184.241 184.636 184.35 184.679 184.412 
184.702 184.402 184.56 184.157 184.192 183.761 183.811 184.47 184.393 
184.853 184.78 185.219 185.093 185.422 185.2 185.441 185.207 185.446 
185.208 185.365 185.017 185.039 184.617 184.641 184.267 184.402 174.98 
174.137 175.075 176.005 173.186 174.205 175.29 176.152 177.086 172.437 
173.352 174.544 175.463 176.55 177.31 178.263 171.938 172.739 173.94 
174.83 176.023 176.824 177.886 178.564 179.491 171.468 172.24 173.384 
174.283 175.502 176.352 177.48 178.212 179.208 179.81 180.63 171.04 
171.728 172.817 173.701 174.92 175.822 176.974 177.781 178.818 179.513 
180.402 180.917 181.627 170.848 171.371 172.408 173.166 174.368 175.238 
176.394 177.227 178.261 179.044 179.981 180.642 181.425 181.893 182.542 
170.905 171.293 172.252 172.844 173.958 174.724 175.845 176.645 177.659 
178.443 179.38 180.135 180.986 181.613 182.322 182.782 183.374 171.099 
171.411 172.29 172.742 173.724 174.348 175.386 176.117 177.128 177.871 
178.815 179.542 180.417 181.106 181.88 182.467 183.107 183.553 184.067 
171.509 172.551 172.231 172.7 173.695 173.345 173.828 173.504 174.076 
174.927 174.562 175.089 174.706 175.275 174.969 175.656 176.211 175.847 
176.441 176.048 176.66 176.27 176.953 176.645 177.386 177.545 177.16 
177.772 177.417 178.079 177.715 178.416 178.044 178.752 178.401 179.088 
178.926 178.52 179.112 178.749 179.411 179.097 179.795 179.479 180.137 
179.782 180.385 180.04 180.643 180.23 179.875 180.462 180.105 180.748 
180.418 181.076 180.768 181.366 181.052 181.582 181.27 181.8 181.517 
182.065 181.36 181.085 181.652 181.383 182.003 181.725 182.339 182.021 
182.558 182.211 182.695 182.381 182.882 182.613 183.123 182.858 183.313 
182.37 182.13 182.651 182.448 183.016 182.84 183.412 183.19 183.688 
183.375 183.815 183.482 183.95 183.664 184.143 183.872 184.278 183.985 
184.292 183.086 184.277 183.564 183.371 185.535 184.8 184.595 183.879 
183.728 186.77 186.079 185.882 185.133 184.947 184.259 184.119 187.949 
187.316 187.182 186.438 186.226 185.483 185.296 184.62 184.412 189.172 
188.542 188.491 187.763 187.569 186.776 186.539 185.801 185.575 184.862 
184.579 190.375 189.79 189.744 189.075 188.881 188.103 187.808 187.037 
186.771 186.046 185.785 185.031 184.735 191.262 190.834 190.695 190.189 
189.933 189.293 188.92 188.213 187.853 187.181 186.876 186.204 185.896 
185.18 184.875 191.783 191.483 191.267 190.907 190.603 190.134 189.726 
189.152 188.72 188.128 187.736 187.156 186.78 186.193 185.828 185.226 
184.901 192.13 191.888 191.689 191.368 191.079 190.674 190.282 189.803 
189.37 188.861 188.433 187.901 187.465 186.924 186.504 185.995 185.631 
185.138 184.823 183.162 183.671 183.735 184.371 184.164 184.267 184.95 
184.99 185.63 184.649 184.792 185.541 185.596 186.265 186.259 186.854 
185.084 185.313 186.179 186.265 187.004 186.95 187.539 187.45 187.997 
185.292 185.684 186.631 186.898 187.738 187.759 188.37 188.205 188.718 
188.599 189.181 185.18 185.716 186.599 187.122 187.972 188.32 188.973 
189.003 189.492 189.373 189.912 189.839 190.416 184.833 185.435 186.195 
186.823 187.575 188.201 188.877 189.302 189.828 189.99 190.49 190.532 
191.049 191.006 191.393 184.386 184.993 185.693 186.293 186.963 187.616 
188.304 188.939 189.55 190.016 190.527 190.839 191.31 191.478 191.829 
191.787 191.956 183.967 184.53 185.216 185.772 186.417 187.008 187.705 
188.348 189.03 189.598 190.127 190.59 191.019 191.427 191.784 192.018 
192.218 192.198 192.267 182.475 181.48 182.309 182.932 180.281 181.206 
181.84 182.738 183.374 178.936 179.898 180.49 181.507 182.165 183.135 
183.782 177.551 178.494 179.007 180.041 180.668 181.775 182.457 183.495 
184.133 176.151 177.085 177.551 178.531 179.096 180.199 180.891 182.042 
182.721 183.774 184.334 174.708 175.652 176.117 177.083 177.632 178.666 
179.342 180.465 181.171 182.277 182.861 183.865 184.287 173.264 174.192 
174.666 175.646 176.224 177.243 177.918 178.983 179.67 180.735 181.302 
182.322 182.736 183.696 183.988 171.916 172.789 173.289 174.238 174.848 
175.853 176.528 177.574 178.227 179.258 179.779 180.757 181.127 182.085 
182.374 183.317 183.556 170.733 171.533 172.076 172.958 173.591 174.532 
175.183 176.174 176.779 177.787 178.282 179.243 179.604 180.509 180.799 
181.706 181.992 182.9 183.167 170.298 170.216 170.714 171.692 170.206 
170.703 171.725 172.215 173.232 170.198 170.691 171.716 172.253 173.291 
173.779 174.789 170.276 170.702 171.717 172.238 173.281 173.797 174.799 
175.303 176.302 170.501 170.843 171.857 172.305 173.355 173.81 174.795 
175.269 176.245 176.774 177.746 170.88 171.128 172.116 172.503 173.554 
173.958 174.94 175.323 176.277 176.726 177.69 178.181 179.077 171.428 
171.569 172.477 172.776 173.775 174.165 175.152 175.523 176.484 176.855 
177.82 178.206 179.108 179.488 180.304 172.045 172.138 172.95 173.147 
174.047 174.375 175.34 175.726 176.714 177.101 178.092 178.44 179.358 
179.64 180.455 180.739 181.52 172.597 172.707 173.456 173.606 174.423 
174.667 175.577 175.922 176.902 177.307 178.307 178.704 179.641 179.947 
180.765 180.991 181.744 181.989 182.729 173.115 174.247 173.775 174.007 
175.562 175.007 175.264 174.735 175.001 177.028 176.419 176.713 176.113 
176.417 175.834 176.166 178.582 177.949 178.279 177.652 177.994 177.36 
177.712 177.102 177.493 180.164 179.54 179.884 179.257 179.608 178.973 
179.32 178.694 179.074 178.483 178.892 181.626 181.09 181.437 180.856 
181.194 180.574 180.885 180.267 180.608 180.041 180.429 179.871 180.223 
182.853 182.44 182.791 182.324 182.662 182.113 182.403 181.795 182.089 
181.521 181.882 181.358 181.705 181.128 181.364 183.894 183.564 183.912 
183.551 183.9 183.478 183.783 183.257 183.519 182.96 183.265 182.756 
183.092 182.565 182.817 182.193 182.346 184.799 184.536 184.874 184.58 
184.922 184.602 184.93 184.534 184.804 184.316 184.561 184.07 184.345 
183.877 184.128 183.596 183.766 183.141 183.278 184.012 184.462 184.571 
185.211 184.816 184.979 185.628 185.752 186.402 185.074 185.293 186.015 
186.188 186.932 187.023 187.735 185.318 185.556 186.344 186.584 187.422 
187.598 188.378 188.424 189.076 185.527 185.796 186.559 186.869 187.68 
187.993 188.737 188.946 189.53 189.614 190.098 185.594 185.921 186.599 
186.968 187.672 188.074 188.723 189.074 189.6 189.847 190.309 190.476 
190.934 185.549 185.893 186.509 186.889 187.519 187.933 188.555 188.944 
189.518 189.824 190.377 190.615 191.164 191.316 191.758 185.475 185.808 
186.385 186.742 187.325 187.723 188.334 188.753 189.379 189.757 190.379 
190.693 191.287 191.519 191.981 192.068 192.293 185.357 185.695 186.216 
186.573 187.086 187.481 188.021 188.475 189.038 189.524 190.069 190.546 
191.046 191.473 191.872 192.149 192.354 192.411 192.405 161.905 162.401 
161.968 161.695 163.019 162.54 162.295 161.882 161.835 163.873 163.291 
163.102 162.584 162.526 162.189 162.391 165.006 164.323 164.168 163.53 
163.458 162.972 163.116 162.871 163.238 166.26 165.549 165.421 164.724 
164.665 164.039 164.147 163.71 164.03 163.804 164.266 167.608 166.855 
166.772 166.049 166.065 165.378 165.527 164.922 165.228 164.773 165.205 
164.924 165.444 169.097 168.302 168.269 167.491 167.561 166.857 167.061 
166.418 166.726 166.142 166.533 166.051 166.509 166.183 166.725 170.59 
169.849 169.85 169.064 169.113 168.387 168.559 167.936 168.214 167.647 
167.99 167.46 167.866 167.396 167.863 167.517 168.066 171.914 171.292 
171.313 170.612 170.633 169.919 170.026 169.391 169.618 169.064 169.38 
168.873 169.265 168.788 169.236 168.781 169.264 168.895 169.431 161.598 
161.405 161.373 161.364 161.609 161.367 161.381 161.41 161.796 162.263 
161.836 161.88 161.667 162.056 162.155 162.802 163.178 162.683 162.768 
162.392 162.745 162.622 163.232 163.313 163.961 164.224 163.701 163.836 
163.398 163.737 163.459 164.009 163.906 164.532 164.508 165.11 165.41 
164.848 165.058 164.568 164.947 164.553 165.078 164.811 165.405 165.229 
165.823 165.729 166.363 166.701 166.125 166.407 165.901 166.328 165.863 
166.364 165.972 166.516 166.215 166.77 166.554 167.145 167.047 167.7 
168.035 167.462 167.773 167.294 167.733 167.273 167.721 167.278 167.736 
167.366 167.866 167.572 168.112 167.9 168.492 168.388 169.012 169.377 
168.81 169.109 168.645 169.063 168.63 169.035 168.585 168.97 168.565 
169.009 168.68 169.185 168.91 169.449 169.242 169.814 169.687 170.267 
161.734 161.546 161.691 161.966 162.031 161.827 162.101 162.095 162.429 
163.019 162.607 162.858 162.557 162.831 162.71 163.102 164.071 163.639 
163.83 163.46 163.692 163.365 163.679 163.538 164.093 165.155 164.662 
164.826 164.425 164.699 164.335 164.71 164.382 164.943 164.795 165.64 
166.444 165.855 166.09 165.554 165.937 165.483 166.013 165.605 166.262 
165.929 166.785 166.643 167.734 167.81 167.238 167.541 166.981 167.428 
166.92 167.52 167.068 167.76 167.362 168.161 167.917 168.923 168.882 
170.052 169.099 168.586 168.874 168.4 168.81 168.397 168.954 168.585 
169.224 168.851 169.54 169.247 170.107 170.027 171.093 171.159 172.256 
170.33 169.838 170.1 169.649 170.009 169.643 170.151 169.875 170.504 
170.222 170.885 170.575 171.327 171.151 172.095 172.117 173.141 173.213 
174.115 181.985 180.923 181.308 180.97 179.752 180.171 179.776 180.19 
179.775 178.422 178.894 178.455 178.918 178.47 178.913 178.456 176.997 
177.468 176.987 177.502 177.031 177.535 177.066 177.544 177.08 175.617 
176.017 175.488 175.987 175.513 176.042 175.566 176.085 175.612 176.129 
175.667 174.339 174.665 174.097 174.519 174.043 174.539 174.073 174.571 
174.086 174.608 174.144 174.685 174.226 173.145 173.424 172.836 173.183 
172.673 173.11 172.629 173.096 172.598 173.09 172.62 173.153 172.707 
173.239 172.792 172.023 172.266 171.669 171.96 171.41 171.776 171.257 
171.672 171.161 171.62 171.158 171.666 171.241 171.749 171.311 171.823 
171.421 170.995 171.189 170.587 170.823 170.257 170.552 170.019 170.357 
169.851 170.24 169.803 170.262 169.878 170.349 169.938 170.392 169.982 
170.499 170.194 
POINT_DATA 1002
SCALARS Distance double
LOOKUP_TABLE default
173.53 172.49 172.267 173.421 172.128 174.743 173.426 172.165 174.78 
176.135 173.572 172.306 174.922 176.304 177.637 173.801 172.506 175.168 
176.578 177.934 179.215 174.151 172.879 175.517 176.951 178.334 179.606 
180.771 174.657 173.423 175.972 177.375 178.756 180.007 181.127 182.117 
175.201 173.992 176.473 177.8 179.123 180.34 181.42 182.383 183.231 
175.703 174.539 176.961 178.229 179.462 180.616 181.657 182.596 183.449 
184.206 176.182 175.096 177.398 178.631 179.785 180.85 181.839 182.751 
183.591 184.362 185.036 171.279 170.981 169.868 169.557 168.368 170.834 
168.099 166.975 169.431 170.87 166.703 165.701 167.977 169.44 170.97 
165.374 164.479 166.586 168.015 169.54 171.18 164.26 163.491 165.378 
166.78 168.234 169.831 171.64 163.547 162.835 164.49 165.732 167.078 
168.555 170.358 172.273 163.06 162.316 163.895 164.873 165.983 167.309 
169.074 171.098 172.958 162.569 161.863 163.384 164.239 165.129 166.223 
167.852 169.945 171.974 173.661 161.947 162.668 162.223 162.963 162.734 
163.577 163.597 163.513 164.065 164.538 164.587 164.728 164.958 165.266 
165.547 166.06 166.574 166.156 166.424 166.584 167.005 168.201 168.89 
167.864 167.891 168.069 168.46 169.14 170.702 171.251 170.211 169.918 
169.857 170.155 170.77 171.415 172.961 173.308 172.605 172.297 172.012 
171.955 172.336 172.885 173.31 174.685 174.916 174.471 174.315 174.084 
173.814 173.85 174.227 174.602 174.852 176.35 176.182 177.66 175.957 
177.517 178.829 175.585 177.221 178.621 179.813 175.323 176.751 178.164 
179.514 180.8 175.457 176.524 177.628 178.993 180.467 181.791 175.724 
176.754 177.58 178.663 180.1 181.5 182.628 175.835 177.031 177.999 
178.918 180.094 181.37 182.433 183.345 175.924 177.129 178.311 179.367 
180.416 181.538 182.475 183.221 184.015 176.097 177.209 178.385 179.541 
180.618 181.728 182.699 183.343 183.9 184.598 177.515 178.8 178.758 
179.892 179.961 179.947 180.951 181.019 181.063 181.014 182.063 182.157 
182.132 182.086 182.008 182.995 183.244 183.287 183.191 183.084 182.958 
183.732 184.071 184.282 184.33 184.212 184.032 183.839 184.449 184.806 
185.03 185.218 185.265 185.087 184.852 184.637 185.089 185.518 185.722 
185.873 186.045 186.013 185.78 185.56 185.346 185.402 185.96 186.157 
186.719 186.902 186.355 187.619 187.94 187.214 186.547 188.898 189.37 
188.36 187.578 186.741 190.179 190.8 189.498 188.706 187.744 186.832 
191.112 191.801 190.193 189.405 188.581 187.601 186.647 191.813 192.267 
190.847 189.895 189.136 188.277 187.301 186.393 192.299 192.367 191.677 
190.736 189.826 188.934 187.964 187.03 186.178 192.485 192.336 192.225 
191.524 190.591 189.594 188.567 187.593 186.719 185.881 184.71 185.487 
185.023 185.853 185.459 186.3 186.335 185.684 186.813 187.194 186.501 
185.672 187.344 187.807 188.363 186.42 185.691 187.427 188.256 188.863 
189.838 186.322 185.634 187.225 188.244 189.055 190.041 191.204 186.067 
185.325 186.913 187.959 188.906 189.84 191.011 191.947 185.676 184.923 
186.491 187.508 188.541 189.445 190.433 191.423 192.071 185.308 184.546 
186.098 187.017 188.022 188.956 189.852 190.741 191.472 191.99 175.906 
177.091 176.915 178.167 178.003 178.254 179.368 179.203 179.42 179.457 
180.576 180.37 180.663 180.599 180.6 181.585 181.368 181.789 181.8 
181.748 181.788 182.498 182.285 182.769 182.943 182.989 183.034 182.971 
183.465 183.177 183.782 183.999 184.088 184.164 184.089 183.75 184.317 
183.944 184.705 184.946 184.966 184.988 184.959 184.638 184.195 174.123 
175.201 173.09 174.325 172.146 176.346 173.588 171.579 175.722 177.588 
173.052 171.184 175.183 177.169 178.906 172.485 170.736 174.617 176.71 
178.567 180.158 171.965 170.422 174.004 176.142 178.072 179.821 181.231 
171.73 170.395 173.533 175.572 177.471 179.245 180.88 182.168 171.756 
170.564 173.273 175.071 176.896 178.616 180.284 181.796 183.004 171.914 
170.82 173.199 174.703 176.387 178.104 179.729 181.242 182.605 183.714 