# vtk DataFile Version 4.0
vtk output
ASCII
DATASET POLYDATA
POINTS 1002 float
-118.749 -112.342 51.0557 -118.333 -111.084 50.0246 -117.896 -111.487 50.2146 
-118.27 -112.899 51.3611 -117.4 -112.01 50.4949 -119.111 -113.951 52.1264 
-117.716 -113.513 51.8141 -116.858 -112.611 50.9613 -118.556 -114.593 52.59 
-119.283 -115.752 53.2413 -117.17 -114.143 52.5094 -116.386 -113.246 51.6945 
-117.955 -115.225 53.2368 -118.669 -116.47 53.8142 -119.271 -117.514 54.4453 
-116.749 -114.79 53.4215 -115.983 -113.946 52.5722 -117.447 -115.842 54.1127 
-118.057 -117.12 54.6024 -118.616 -118.281 55.1494 -119.247 -118.991 55.9576 
-116.308 -115.525 54.3434 -115.511 -114.752 53.4572 -117.033 -116.496 55.1015 
-117.561 -117.709 55.6067 -117.964 -118.897 56.1139 -118.551 -119.681 56.897 
-119.293 -120.127 57.8394 -115.727 -116.374 55.2134 -115.044 -115.604 54.3944 
-116.471 -117.255 56.0356 -117.056 -118.331 56.6866 -117.389 -119.462 57.2441 
-117.827 -120.298 57.9889 -118.536 -120.783 58.9094 -119.23 -121.181 59.7571 
-115.176 -117.252 56.1353 -114.697 -116.435 55.3986 -115.774 -118.088 56.9413 
-116.363 -119.027 57.7233 -116.755 -120.08 58.3967 -117.136 -120.982 59.1034 
-117.725 -121.556 59.9464 -118.365 -121.934 60.7821 -118.9 -122.308 61.4452 
-114.705 -118.064 57.0854 -114.341 -117.232 56.3471 -115.147 -118.875 57.8869 
-115.628 -119.717 58.7251 -116.013 -120.683 59.497 -116.387 -121.619 60.2073 
-116.907 -122.316 60.9683 -117.467 -122.77 61.7477 -117.953 -123.098 62.4074 
-118.427 -123.412 62.8787 -114.197 -118.774 57.9639 -113.857 -117.988 57.1625 
-114.59 -119.537 58.825 -114.997 -120.321 59.7127 -115.316 -121.206 60.5488 
-115.609 -122.089 61.2966 -116.046 -122.814 62.0257 -116.567 -123.378 62.7455 
-117.041 -123.806 63.3548 -117.509 -124.123 63.7912 -118.025 -124.397 64.0724 
-117.646 -110.225 49.0137 -117.129 -110.56 49.2133 -116.852 -109.32 47.8748 
-116.199 -109.597 48.1317 -115.931 -108.301 46.7027 -116.552 -111.038 49.5185 
-115.231 -108.585 47.0836 -115.094 -107.161 45.7144 -115.529 -110.042 48.5506 
-115.971 -111.636 50.0501 -114.495 -107.525 46.2899 -114.488 -105.972 45.1368 
-114.55 -109.107 47.6594 -114.881 -110.682 49.168 -115.476 -112.349 50.8096 
-113.862 -106.414 45.8774 -113.934 -104.931 44.9038 -113.812 -108.14 46.9915 
-113.85 -109.819 48.3334 -114.33 -111.51 49.91 -115.027 -113.201 51.6778 
-113.073 -105.415 45.6511 -113.364 -104.203 44.8264 -113.077 -106.997 46.6131 
-113.117 -108.799 47.7381 -113.326 -110.647 49.1266 -113.94 -112.479 50.8178 
-114.619 -114.119 52.6642 -112.347 -104.713 45.5343 -112.872 -103.704 44.9814 
-112.271 -105.967 46.3939 -112.51 -107.619 47.4954 -112.712 -109.559 48.7312 
-113.081 -111.625 50.2008 -113.748 -113.465 51.9686 -114.368 -114.992 53.7911 
-111.822 -104.232 45.7838 -112.36 -103.274 45.4894 -111.64 -105.324 46.424 
-111.92 -106.738 47.4935 -112.235 -108.483 48.7095 -112.491 -110.571 49.9629 
-113.005 -112.679 51.4835 -113.693 -114.38 53.2433 -114.174 -115.827 54.9167 
-111.306 -103.817 46.4549 -111.752 -102.904 46.2302 -111.143 -104.895 46.8907 
-111.406 -106.218 47.7414 -111.761 -107.724 48.8254 -111.995 -109.532 49.9225 
-112.372 -111.691 51.2138 -112.993 -113.692 52.8109 -113.55 -115.265 54.4423 
-113.812 -116.669 55.8832 -110.863 -103.168 47.2491 -110.603 -104.183 47.5892 
-110.237 -103.593 48.3884 -110.328 -104.714 48.8556 -110.262 -104.27 49.5645 
-110.839 -105.49 48.1772 -110.774 -105.395 50.1119 -110.981 -105.251 51.0022 
-110.945 -106.084 49.4528 -111.322 -106.962 49.0003 -111.726 -106.476 51.5619 
-111.949 -106.619 52.7016 -111.609 -106.785 50.6491 -111.564 -107.608 50.0805 
-111.652 -108.577 49.9097 -112.658 -108.262 53.0782 -112.919 -108.415 53.9254 
-112.485 -108.259 52.1838 -112.268 -108.686 51.4304 -111.971 -109.586 51.0948 
-111.969 -110.684 51.1173 -113.458 -110.5 54.2478 -113.882 -110.483 54.6216 
-113.113 -110.566 53.8916 -112.874 -110.727 53.4253 -112.545 -111.239 52.9728 
-112.284 -112.133 52.7648 -112.468 -113.044 52.745 -114.017 -112.618 55.4955 
-114.457 -112.49 55.7464 -113.472 -112.823 55.4289 -112.987 -112.985 55.3658 
-112.624 -113.252 55.0891 -112.371 -113.826 54.7305 -112.45 -114.512 54.4873 
-112.936 -114.993 54.4006 -114.058 -114.344 57.219 -114.423 -114.183 57.4596 
-113.545 -114.54 57.0529 -112.916 -114.656 56.9548 -112.372 -114.826 56.7363 
-112.058 -115.291 56.3672 -112.085 -115.922 56.031 -112.517 -116.367 55.8511 
-113.184 -116.559 55.8279 -113.785 -115.74 58.9482 -114.151 -115.553 59.0772 
-113.366 -115.914 58.7508 -112.845 -115.966 58.5415 -112.317 -116.044 58.2689 
-111.94 -116.463 57.8866 -111.831 -117.17 57.5019 -112.065 -117.734 57.2432 
-112.603 -117.949 57.1405 -113.262 -117.974 57.1431 -113.503 -119.214 58.5343 
-112.871 -119.339 58.6426 -113.178 -120.41 60.3002 -112.293 -119.435 58.8103 
-112.534 -120.706 60.6492 -112.773 -121.602 62.3697 -111.925 -119.221 59.0916 
-111.949 -120.939 61.0408 -111.922 -121.995 62.7991 -111.992 -122.828 64.275 
-111.845 -118.539 59.4772 -111.567 -120.712 61.4708 -111.036 -122.157 63.1174 
-110.846 -123.108 64.4641 -110.958 -124.001 65.812 -112.02 -117.78 59.869 
-111.526 -119.984 61.8972 -110.529 -121.738 63.4792 -109.842 -122.9 64.5536 
-109.876 -124.062 65.9225 -110.082 -125.114 67.3676 -112.377 -117.424 60.1289 
-111.819 -119.311 62.1489 -110.727 -121.048 63.9295 -109.637 -122.242 64.9583 
-109.277 -123.521 66.1702 -109.312 -124.981 67.8228 -109.427 -126.105 69.1045 
-112.837 -117.34 60.2561 -112.323 -118.98 62.1105 -111.433 -120.589 64.1371 
-110.309 -121.749 65.5545 -109.562 -122.843 66.7168 -109.128 -124.27 68.3459 
-108.866 -125.656 69.8538 -109.018 -126.676 70.7027 -113.305 -117.184 60.344 
-112.907 -118.719 61.9376 -112.26 -120.253 63.9526 -111.281 -121.513 65.7905 
-110.403 -122.544 67.1371 -109.643 -123.643 68.6612 -108.898 -124.775 70.3403 
-108.624 -125.817 71.47 -109.007 -126.741 71.9915 -113.75 -116.933 60.388 
-113.468 -118.386 61.7879 -113.009 -119.831 63.625 -112.157 -121.152 65.5994 
-111.265 -122.327 67.1309 -110.494 -123.37 68.5448 -109.587 -124.189 70.259 
-108.851 -124.859 71.7931 -108.8 -125.645 72.6803 -109.311 -126.546 73.0518 
-113.903 -119.95 59.5455 -113.586 -121.111 61.4966 -114.328 -120.721 60.5847 
-113.026 -122.359 63.6 -113.895 -121.983 62.6241 -114.642 -121.614 61.5638 
-112.08 -123.61 65.4498 -113.124 -123.251 64.6764 -114.054 -122.915 63.608 
-114.857 -122.503 62.4295 -111.063 -124.779 67.012 -112.181 -124.36 66.4398 
-113.323 -124.049 65.5901 -114.324 -123.644 64.4743 -115.2 -123.206 63.2223 
-110.255 -125.958 68.5776 -111.366 -125.468 67.994 -112.668 -125.11 67.289 
-113.857 -124.755 66.3641 -114.801 -124.254 65.2062 -115.692 -123.813 63.9433 
-109.73 -126.935 70.1485 -110.736 -126.567 69.5803 -112.042 -126.108 68.8856 
-113.381 -125.834 67.9517 -114.427 -125.442 66.8608 -115.309 -124.907 65.6972 
-116.202 -124.393 64.4972 -109.615 -127.402 71.5126 -110.426 -127.337 71.0759 
-111.501 -126.804 70.507 -112.791 -126.45 69.5247 -113.968 -126.309 68.2912 
-114.955 -125.995 67.1077 -115.89 -125.467 65.9781 -116.748 -124.838 64.8534 
-109.832 -127.441 72.6229 -110.5 -127.732 72.2469 -111.334 -127.327 71.851 
-112.401 -126.818 71.0516 -113.536 -126.666 69.815 -114.604 -126.624 68.5182 
-115.651 -126.34 67.3169 -116.596 -125.809 66.1581 -117.354 -125.135 65.0653 
-109.999 -126.937 73.755 -110.599 -127.755 73.2782 -110.77 -127.207 74.2991 
-111.525 -127.925 73.7435 -111.89 -127.196 74.6121 -111.372 -127.888 72.8775 
-112.847 -127.882 74.0666 -113.615 -126.982 74.8154 -112.531 -128.191 73.2419 
-112.346 -127.534 72.3261 -114.516 -127.563 74.3281 -115.616 -126.898 74.9641 
-113.903 -128.404 73.4631 -113.604 -128.224 72.5067 -113.412 -127.248 71.3145 
-116.339 -127.369 74.2472 -117.475 -127.2 74.8225 -115.393 -128.012 73.4496 
-114.868 -128.538 72.5057 -114.559 -127.968 71.44 -114.449 -127.1 70.0319 
-118.209 -127.818 73.676 -119.028 -127.628 74.2415 -117.255 -127.76 73.0009 
-116.436 -127.968 72.2079 -115.859 -127.918 71.3472 -115.572 -127.367 70.1882 
-115.564 -126.844 68.692 -119.697 -128.325 72.9885 -120.181 -127.633 73.4782 
-119.088 -128.332 72.4236 -118.404 -127.9 71.7709 -117.637 -127.457 70.9905 
-116.986 -127.103 70.001 -116.716 -126.808 68.682 -116.664 -126.426 67.2983 
-120.655 -128.067 72.4846 -121.068 -127.145 72.8468 -120.191 -128.637 71.9934 
-119.807 -128.503 71.4216 -119.343 -127.787 70.6338 -118.616 -127.09 69.5871 
-117.97 -126.728 68.3507 -117.679 -126.416 67.0839 -117.517 -125.864 65.9883 
-121.485 -127.297 72.048 -121.903 -126.537 72.3161 -120.915 -128.009 71.5602 
-120.465 -128.392 70.9801 -120.245 -128.14 70.2259 -119.884 -127.462 69.1706 
-119.23 -126.887 67.9309 -118.685 -126.469 66.7372 -118.402 -125.909 65.7243 
-118.194 -125.164 64.8725 -109.422 -125.698 73.848 -110.115 -126.018 74.6373 
-109.91 -124.937 74.3399 -110.639 -125.029 75.1716 -110.851 -124.445 74.2471 
-111.02 -126.187 75.1635 -111.65 -124.211 75.0619 -112.058 -124.125 73.6448 
-111.79 -125.048 75.6931 -112.549 -126.178 75.3466 -112.891 -123.733 74.4252 
-113.314 -123.905 72.7569 -112.921 -124.172 75.6363 -113.63 -125.241 75.7881 
-114.712 -126.263 75.3655 -114.205 -123.675 73.3776 -114.637 -123.795 71.5659 
-114.078 -123.847 74.946 -114.679 -124.577 75.6777 -115.84 -125.614 75.661 
-116.849 -126.525 75.4128 -115.606 -123.714 71.9251 -115.945 -123.566 70.1826 
-115.319 -123.917 73.6221 -115.641 -124.305 74.7722 -116.693 -124.877 75.3639 
-117.813 -125.721 75.5954 -118.534 -126.733 75.2286 -116.82 -123.352 70.4374 
-116.935 -122.955 68.9843 -116.613 -123.708 72.0287 -116.75 -124.113 73.2943 
-117.527 -124.379 74.2418 -118.539 -124.721 75.0262 -119.282 -125.566 75.189 
-119.782 -126.705 74.4907 -117.607 -122.574 69.2629 -117.547 -122.047 68.0849 
-117.614 -122.975 70.6504 -117.782 -123.449 71.8703 -118.365 -123.887 72.8202 
-119.192 -124.135 73.7283 -119.872 -124.561 74.3099 -120.347 -125.439 74.1419 
-120.752 -126.428 73.504 -118.139 -121.687 68.3079 -118.006 -121.083 67.302 
-118.288 -122.107 69.499 -118.517 -122.5 70.6512 -118.981 -123.009 71.5747 
[...]
CELL_DATA 2000
SCALARS Distance double
LOOKUP_TABLE default
169.317 169.392 169.831 170.842 169.527 169.954 170.998 171.446 172.495 
169.772 170.147 171.205 171.629 172.703 173.122 174.121 170.173 170.48 
171.544 171.895 172.972 173.357 174.384 174.729 175.644 170.651 170.935 
172.002 172.305 173.367 173.683 174.691 175.007 175.932 176.223 177.073 
171.151 171.411 172.457 172.765 173.808 174.107 175.079 175.347 176.242 
176.511 177.363 177.633 178.43 171.725 171.92 172.913 173.19 174.197 
174.508 175.461 175.734 176.611 176.852 177.694 177.935 178.73 178.955 
179.66 172.327 172.492 173.412 173.637 174.575 174.858 175.777 176.07 
176.936 177.205 178.03 178.278 179.051 179.261 179.937 180.111 180.696 
172.829 173.024 173.872 174.094 174.96 175.216 176.078 176.357 177.18 
177.467 178.244 178.539 179.266 179.531 180.171 180.368 180.919 181.074 
181.576 168.398 166.981 167.925 168.403 165.41 166.423 166.888 167.926 
168.486 163.777 164.796 165.261 166.34 166.923 168.032 168.697 162.307 
163.233 163.717 164.725 165.307 166.425 167.145 168.308 169.077 161.045 
161.871 162.361 163.281 163.833 164.85 165.551 166.728 167.571 168.756 
169.569 159.944 160.64 161.051 161.947 162.476 163.442 164.092 165.184 
166.042 167.252 168.178 169.31 170.132 159.101 159.583 159.86 160.632 
161.161 162.109 162.796 163.813 164.676 165.813 166.823 167.978 168.943 
169.964 170.789 158.522 158.836 159.038 159.58 160.112 160.921 161.693 
162.619 163.513 164.552 165.591 166.725 167.791 168.854 169.788 170.701 
171.472 158.059 158.32 158.524 158.928 159.456 160.098 160.89 161.675 
162.551 163.463 164.46 165.549 166.652 167.76 168.771 169.736 170.558 
171.381 172.042 157.857 157.896 158 158.406 158.411 158.27 158.802 
158.833 159.479 159.594 159.105 159.646 159.485 160.22 160.184 160.951 
161.429 160.62 161.062 160.578 161.24 161.045 161.802 161.745 162.56 
163.639 162.69 163.115 162.296 162.89 162.318 163.064 162.743 163.622 
163.496 164.485 165.928 164.997 165.509 164.575 165.203 164.336 165.091 
164.389 165.297 164.851 165.905 165.665 166.744 168.096 167.27 167.782 
166.951 167.517 166.701 167.317 166.572 167.29 166.716 167.589 167.224 
168.185 167.944 168.863 169.928 169.274 169.669 169.003 169.373 168.717 
169.064 168.48 168.901 168.457 169.041 168.748 169.475 169.276 170.045 
169.872 170.603 171.356 170.857 171.155 170.621 170.865 170.283 170.487 
169.925 170.222 169.783 170.279 169.983 170.635 170.42 171.115 170.938 
171.606 171.444 172.06 172.861 172.48 173.118 174.008 172.092 172.788 
173.797 174.379 175.303 171.691 172.454 173.591 174.239 175.207 175.688 
176.487 171.318 172.078 173.282 174.033 174.986 175.512 176.185 176.678 
177.302 171.166 171.766 172.938 173.696 174.618 175.158 175.669 176.17 
176.71 177.349 178.012 171.352 171.734 172.814 173.419 174.369 174.81 
175.302 175.62 176.102 176.691 177.469 178.152 178.934 171.702 171.984 
172.964 173.413 174.404 174.755 175.407 175.511 176.026 176.298 177.085 
177.668 178.546 179.129 179.833 171.98 172.282 173.183 173.583 174.555 
174.928 175.729 175.857 176.46 176.525 177.213 177.502 178.275 178.737 
179.399 179.911 180.471 172.155 172.48 173.334 173.734 174.653 175.075 
175.908 176.189 176.844 176.988 177.596 177.757 178.367 178.597 179.125 
179.466 179.956 180.449 180.965 173.336 174.471 174.057 174.399 175.718 
175.258 175.608 175.163 175.503 176.898 176.515 176.871 176.424 176.772 
176.297 176.616 177.794 177.581 177.964 177.637 177.982 177.565 177.866 
177.393 177.678 178.557 178.385 178.798 178.59 178.967 178.687 179.006 
178.602 178.867 178.416 178.695 179.448 179.21 179.633 179.393 179.835 
179.618 180.049 179.717 180.028 179.583 179.848 179.412 179.688 180.342 
180.152 180.585 180.304 180.742 180.514 181.008 180.76 181.15 180.75 
181.009 180.553 180.798 180.369 180.587 181.043 180.993 181.477 181.26 
181.633 181.397 181.782 181.622 181.99 181.767 182.027 181.67 181.876 
181.459 181.648 181.205 181.34 181.579 181.635 182.197 182.09 182.462 
182.223 182.5 182.295 182.591 182.447 182.735 182.539 182.777 182.472 
182.659 182.252 182.378 181.91 181.991 182.057 182.981 182.624 182.708 
183.822 183.513 183.602 183.154 183.015 184.713 184.364 184.539 184.086 
183.975 183.352 183.075 185.752 185.292 185.496 185.093 185.12 184.456 
184.167 183.41 183.131 186.916 186.323 186.329 185.963 186.019 185.579 
185.351 184.604 184.202 183.486 183.235 188.107 187.49 187.333 186.764 
186.655 186.276 186.079 185.594 185.176 184.53 184.134 183.555 183.294 
188.931 188.585 188.522 187.886 187.7 187.038 186.792 186.212 185.85 
185.299 184.89 184.371 184.027 183.529 183.201 189.153 189.146 189.185 
188.907 188.772 188.202 187.906 187.16 186.747 186.017 185.594 185.018 
184.649 184.177 183.804 183.325 182.91 189.074 189.172 189.17 189.19 
189.033 188.893 188.572 188.155 187.657 186.996 186.436 185.763 185.29 
184.752 184.342 183.866 183.429 182.951 182.501 181.736 181.591 181.989 
182.667 181.599 181.862 182.483 182.889 183.512 181.758 181.883 182.408 
182.743 183.414 183.777 184.436 181.998 182.037 182.495 182.74 183.475 
183.813 184.638 184.898 185.636 182.298 182.303 182.741 182.894 183.622 
183.957 184.884 185.227 186.128 186.277 186.986 182.545 182.622 183.063 
183.177 183.803 184.095 184.923 185.377 186.271 186.679 187.431 187.589 
188.135 182.494 182.759 183.17 183.395 183.904 184.197 184.844 185.278 
186.011 186.55 187.222 187.695 188.181 188.463 188.781 182.076 182.509 
182.869 183.264 183.674 184.088 184.601 185.064 185.642 186.154 186.699 
187.228 187.652 188.132 188.413 188.78 188.938 181.478 181.967 182.317 
182.785 183.14 183.632 184.05 184.605 185.087 185.661 186.118 186.644 
187.006 187.485 187.763 188.211 188.423 188.782 188.9 172.508 173.517 
173.229 173.73 174.687 174.349 174.877 174.546 175.069 175.876 175.566 
176.079 175.728 176.186 175.858 176.275 176.93 176.701 177.194 176.883 
177.259 176.913 177.244 176.934 177.222 177.862 177.68 178.198 177.941 
178.357 177.986 178.32 177.924 178.232 177.841 178.071 178.781 178.604 
179.171 178.948 179.479 179.146 179.592 179.137 179.478 178.969 179.19 
178.683 178.818 179.68 179.542 180.138 179.944 180.492 180.251 180.724 
180.399 180.722 180.255 180.372 179.815 179.816 179.326 179.402 180.438 
180.396 180.994 180.873 181.352 181.165 181.507 181.308 181.514 181.253 
181.279 180.864 180.763 180.272 180.258 179.878 180.09 181.013 181.051 
181.624 181.61 182.047 181.911 182.143 181.927 182.005 181.791 181.78 
181.528 181.468 181.119 181.125 180.754 180.957 180.673 181.055 171.95 
171.423 172.097 172.942 170.868 171.613 172.506 173.161 174.074 170.133 
171.056 172.033 172.738 173.643 174.325 175.248 169.103 170.234 171.356 
172.232 173.186 173.892 174.808 175.482 176.34 167.943 169.123 170.38 
171.482 172.605 173.432 174.4 175.069 175.949 176.546 177.318 167.026 
168.015 169.299 170.485 171.802 172.819 173.916 174.669 175.574 176.185 
176.976 177.513 178.234 166.588 167.283 168.491 169.518 170.898 171.996 
173.207 174.109 175.053 175.764 176.551 177.152 177.866 178.411 179.096 
166.554 167.032 168.127 168.892 170.179 171.159 172.394 173.344 174.353 
175.159 175.987 176.668 177.393 177.99 178.659 179.219 179.845 166.697 
167.079 168.056 168.625 169.745 170.535 171.706 172.585 173.659 174.476 
175.398 176.103 176.893 177.502 178.193 178.752 179.378 179.911 180.466 
167.092 168.098 167.848 168.429 169.17 168.886 169.497 169.29 170.036 
170.415 170.048 170.696 170.429 171.225 171.039 171.919 171.833 171.417 
172.123 171.769 172.615 172.339 173.239 173.005 173.865 173.31 172.903 
173.632 173.267 174.088 173.789 174.651 174.376 175.178 174.901 175.617 
174.745 174.374 175.073 174.737 175.461 175.176 175.906 175.678 176.381 
176.155 176.787 176.526 177.098 176.041 175.733 176.397 176.107 176.788 
176.479 177.11 176.822 177.437 177.223 177.829 177.619 178.162 177.901 
178.388 177.215 176.945 177.599 177.359 178.059 177.778 178.414 178.056 
178.632 178.302 178.906 178.647 179.231 178.956 179.444 179.136 179.568 
178.361 178.103 178.759 178.526 179.214 178.988 179.623 179.331 179.878 
179.538 180.084 179.782 180.346 180.053 180.535 180.202 180.59 180.264 
180.629 179.219 180.695 179.859 179.658 182.101 181.321 181.111 180.284 
180.075 183.41 182.659 182.426 181.659 181.41 180.652 180.427 184.659 
183.941 183.695 182.932 182.661 181.906 181.659 180.937 180.681 185.689 
185.111 184.913 184.215 183.952 183.161 182.872 182.124 181.886 181.164 
180.906 186.563 186.051 185.924 185.364 185.147 184.433 184.083 183.313 
182.999 182.319 182.089 181.398 181.139 187.491 186.95 186.814 186.299 
186.117 185.525 185.182 184.454 184.039 183.354 183.048 182.463 182.205 
181.572 181.261 188.296 187.842 187.628 187.141 186.921 186.412 186.12 
185.482 185.071 184.356 183.962 183.34 183.037 182.488 182.185 181.591 
181.253 188.778 188.485 188.247 187.845 187.572 187.136 186.848 186.341 
185.973 185.341 184.913 184.248 183.868 183.279 182.969 182.423 182.125 
181.549 181.251 179.222 179.623 179.856 180.69 179.96 180.227 181.107 
181.338 182.123 180.367 180.586 181.498 181.752 182.66 182.801 183.53 
180.811 181.047 182.001 182.233 183.271 183.444 184.338 184.283 184.88 
180.977 181.395 182.378 182.749 183.825 184.116 185.077 185.126 185.728 
185.537 185.893 180.761 181.335 182.285 182.91 183.918 184.462 185.307 
185.632 186.16 186.207 186.518 186.395 186.702 180.427 180.984 181.861 
182.589 183.533 184.236 184.946 185.472 185.923 186.287 186.675 186.859 
187.281 187.247 187.648 180.162 180.638 181.444 182.111 183.033 183.726 
184.438 184.954 185.418 185.861 186.374 186.824 187.436 187.708 188.211 
188.185 188.482 179.948 180.383 181.129 181.715 182.6 183.251 184.023 
184.517 185.063 185.448 186.006 186.488 187.161 187.658 188.215 188.496 
188.789 188.8 188.907 178.375 177.22 178.111 178.726 175.946 176.891 
177.475 178.419 179.05 174.474 175.516 176.087 177.101 177.745 178.75 
179.441 172.887 173.962 174.533 175.615 176.22 177.336 178.051 179.151 
179.842 171.361 172.368 172.912 174.002 174.56 175.695 176.345 177.585 
178.311 179.468 180.019 169.983 170.888 171.391 172.408 172.975 174.038 
174.642 175.813 176.547 177.806 178.48 179.536 179.92 168.707 169.567 
170.066 170.984 171.595 172.568 173.227 174.237 174.963 176.101 176.88 
178.001 178.568 179.43 179.716 167.415 168.311 168.845 169.74 170.38 
171.316 172.053 172.989 173.725 174.687 175.428 176.483 177.155 178.119 
178.543 179.278 179.514 166.076 167.006 167.569 168.514 169.161 170.132 
170.89 171.874 172.638 173.553 174.217 175.13 175.734 176.704 177.203 
178.078 178.393 179.095 179.308 165.497 165.238 165.912 167.055 165.184 
165.764 166.96 167.576 168.738 165.275 165.785 166.971 167.565 168.823 
169.38 170.56 165.472 165.9 167.049 167.61 168.899 169.518 170.81 
171.295 172.389 165.936 166.189 167.302 167.734 169.004 169.608 170.948 
171.531 172.687 173.06 173.972 166.694 166.8 167.864 168.113 169.322 
169.781 171.112 171.675 172.876 173.304 174.242 174.538 175.385 167.49 
167.584 168.582 168.756 169.883 170.2 171.464 171.918 173.133 173.529 
174.496 174.781 175.619 175.928 176.776 168.192 168.303 169.252 169.437 
170.505 170.776 171.952 172.323 173.491 173.848 174.818 175.071 175.87 
176.134 176.921 177.253 177.996 168.896 168.974 169.9 170.067 171.102 
171.354 172.456 172.782 173.87 174.207 175.15 175.404 176.171 176.385 
177.099 177.371 178.071 178.363 178.975 169.616 171.156 170.445 170.652 
172.816 172.081 172.303 171.585 171.868 174.408 173.73 173.958 173.266 
173.545 172.865 173.201 175.897 175.269 175.493 174.86 175.138 174.515 
174.842 174.208 174.55 177.341 176.745 176.992 176.366 176.66 176.065 
176.406 175.806 176.116 175.494 175.756 178.718 178.189 178.478 177.877 
178.176 177.585 177.94 177.357 177.668 177.026 177.229 176.581 176.743 
179.934 179.516 179.839 179.329 179.616 179.064 179.383 178.85 179.166 
178.566 178.76 178.064 178.176 177.503 177.645 180.954 180.642 180.993 
180.607 180.909 180.427 180.698 180.206 180.498 179.991 180.217 179.586 
179.691 178.977 179.065 178.406 178.56 181.831 181.587 181.961 181.68 
182.027 181.643 181.918 181.456 181.717 181.251 181.505 180.979 181.135 
180.479 180.543 179.843 179.916 179.291 179.413 180.035 180.62 180.617 
181.276 181.288 181.292 182.016 182.003 182.741 181.873 181.961 182.699 
182.75 183.481 183.485 184.117 182.239 182.45 183.192 183.353 184.074 
184.151 184.762 184.724 185.178 182.457 182.726 183.474 183.729 184.446 
184.631 185.259 185.314 185.828 185.729 186.173 182.639 182.918 183.649 
183.936 184.64 184.895 185.517 185.696 186.236 186.312 186.819 186.778 
187.283 182.698 183.035 183.713 184.048 184.725 185.029 185.67 185.902 
186.465 186.618 187.127 187.251 187.75 187.823 188.258 182.583 182.974 
183.589 183.992 184.613 185.011 185.661 186.016 186.668 186.885 187.453 
187.541 188.026 188.11 188.52 188.595 188.844 182.409 182.787 183.356 
183.768 184.315 184.758 185.322 185.828 186.468 186.954 187.583 187.865 
188.356 188.429 188.784 188.792 189.021 188.999 189.05 157.903 158.381 
158.023 157.685 158.925 158.519 158.148 157.672 157.176 159.651 159.114 
158.741 158.182 157.645 157.114 156.76 160.655 159.957 159.63 158.952 
158.552 157.805 157.458 156.945 157.031 161.932 161.106 160.868 160.09 
159.914 159.055 158.88 158.031 158.095 157.608 158.093 163.473 162.554 
162.388 161.527 161.467 160.631 160.619 159.727 159.796 159.012 159.352 
158.92 159.568 165.152 164.233 164.116 163.189 163.113 162.251 162.259 
161.461 161.563 160.788 161.023 160.37 160.828 160.458 161.139 166.734 
165.917 165.848 164.965 164.893 163.968 163.937 163.089 163.208 162.479 
162.748 162.066 162.451 161.866 162.414 162.057 162.767 168.146 167.425 
167.394 166.634 166.62 165.761 165.742 164.842 164.93 164.144 164.433 
163.766 164.181 163.548 164.041 163.493 164.109 163.74 164.455 157.611 
157.333 157.378 157.225 156.873 157.017 156.951 157.113 157.289 156.632 
156.684 156.854 156.978 157.346 157.495 157.993 157.012 156.798 157.177 
157.182 157.783 157.824 158.453 158.474 159.083 158.063 157.56 157.923 
157.754 158.409 158.433 159.136 159.116 159.714 159.661 160.286 159.555 
158.877 159.169 158.717 159.265 159.124 159.84 159.828 160.468 160.374 
160.93 160.895 161.577 161.166 160.473 160.793 160.168 160.652 160.2 
160.882 160.661 161.399 161.217 161.825 161.631 162.235 162.215 162.941 
162.779 162.096 162.431 161.822 162.274 161.73 162.306 161.908 162.595 
162.305 162.947 162.648 163.22 162.999 163.65 163.611 164.334 164.425 
163.723 164.013 163.404 163.785 163.264 163.712 163.297 163.82 163.516 
164.067 163.79 164.315 164.045 164.614 164.439 165.101 165.034 165.714 
157.601 157.331 157.474 157.626 157.495 157.424 157.646 157.705 158.116 
158.162 157.868 158.146 157.993 158.454 158.517 159.302 159.16 158.718 
158.96 158.681 159.147 159.071 159.874 160.042 161.143 160.405 159.857 
160.094 159.639 160.049 159.837 160.595 160.707 161.812 162.08 163.314 
161.815 161.253 161.613 161.002 161.415 160.918 161.599 161.488 162.575 
162.787 164.059 164.319 165.574 163.193 162.705 163.146 162.617 163.088 
162.498 163.132 162.73 163.759 163.715 165.032 165.165 166.466 166.615 
167.795 164.51 164.039 164.428 164.023 164.496 164.09 164.725 164.357 
165.319 165.123 166.389 166.343 167.634 167.624 168.749 168.772 169.727 
165.84 165.336 165.668 165.231 165.673 165.343 166.001 165.789 166.742 
166.64 167.822 167.768 168.948 168.861 169.858 169.756 170.576 170.524 
171.224 177.861 176.73 177.118 176.74 175.519 175.939 175.519 175.933 
175.467 174.138 174.604 174.084 174.578 174.039 174.514 173.95 172.655 
173.113 172.519 173.023 172.452 172.972 172.408 172.91 172.359 171.205 
171.62 171.022 171.463 170.919 171.403 170.915 171.4 170.919 171.377 
170.898 169.831 170.205 169.606 170.009 169.431 169.9 169.395 169.926 
169.46 169.969 169.495 169.966 169.524 168.59 168.883 168.254 168.604 
167.954 168.379 167.758 168.306 167.751 168.374 167.848 168.46 167.972 
168.564 168.163 167.493 167.7 167.03 167.291 166.625 166.938 166.297 
166.692 166.107 166.618 166.091 166.697 166.213 166.875 166.45 167.145 
166.793 166.483 166.634 165.931 166.121 165.466 165.709 165.128 165.402 
164.868 165.178 164.682 165.084 164.637 165.159 164.755 165.384 165.023 
165.737 165.43 
POINT_DATA 1002
SCALARS Distance double
LOOKUP_TABLE default
170.257 168.839 168.855 170.383 168.938 171.887 170.544 169.101 172.069 
173.533 170.799 169.42 172.276 173.768 175.067 171.224 169.879 172.613 
174.032 175.357 176.511 171.705 170.373 173.082 174.409 175.638 176.807 
177.905 172.16 170.925 173.512 174.835 175.998 177.095 178.192 179.199 
172.68 171.574 173.902 175.181 176.373 177.468 178.524 179.479 180.307 
173.227 172.183 174.331 175.496 176.661 177.78 178.849 179.787 180.551 
181.234 173.666 172.644 174.728 175.825 176.918 177.965 178.992 179.962 
180.77 181.44 182.057 167.502 167.419 166.026 165.825 164.38 167.423 
164.185 162.769 165.774 167.574 162.749 161.405 164.22 165.931 167.934 
161.461 160.271 162.878 164.404 166.323 168.459 160.19 159.373 161.505 
163.048 164.829 166.977 169.101 159.189 158.745 160.203 161.777 163.566 
165.636 167.86 169.871 158.578 158.248 159.35 160.787 162.518 164.459 
166.682 168.835 170.661 158.14 157.794 158.859 160.162 161.724 163.416 
165.509 167.767 169.715 171.302 157.642 158.224 157.826 158.764 158.646 
159.421 159.905 160.233 160.272 160.971 161.723 162.334 161.559 161.894 
162.543 164.016 164.568 163.61 163.506 163.795 164.533 166.41 166.808 
166.105 165.9 165.874 166.23 166.959 168.596 168.889 168.344 168.107 
167.953 168.054 168.49 169.11 170.342 170.558 170.076 169.705 169.387 
169.371 169.706 170.233 170.795 171.679 171.839 171.452 171.074 170.688 
170.596 170.876 171.327 171.79 172.238 173.703 173.415 174.909 173.164 
174.819 176.186 172.876 174.741 176.068 177.214 172.489 174.492 175.735 
176.759 177.939 172.22 174.116 175.257 176.022 177.353 178.75 172.299 
173.932 175.069 175.587 176.701 178.358 179.699 172.585 174.016 175.275 
175.885 176.611 177.95 179.335 180.468 172.815 174.153 175.503 176.419 
177.083 177.952 178.932 179.934 181.013 172.952 174.238 175.575 176.653 
177.467 178.242 178.913 179.535 180.402 181.482 174.806 176.064 175.961 
177.302 177.252 177.109 178.235 178.363 178.339 178.155 178.988 179.179 
179.367 179.319 179.133 179.899 180.019 180.313 180.47 180.302 180.117 
180.863 180.998 181.214 181.502 181.482 181.248 181.035 181.65 181.922 
181.984 182.154 182.321 182.284 182.1 181.813 182.244 182.699 182.766 
182.753 182.872 183.018 183.034 182.847 182.479 182.447 183.183 183.315 
184.043 184.109 183.581 184.942 185.092 184.636 183.71 185.845 186.323 
185.704 185.023 183.771 186.804 187.623 186.344 186.013 185.02 183.818 
188.048 188.653 187.151 186.476 185.754 184.757 183.833 189.058 189.086 
188.463 187.492 186.413 185.39 184.527 183.725 189.297 189.079 189.201 
188.652 187.578 186.254 185.142 184.283 183.409 189.142 189.004 189.073 
188.828 188.237 187.158 185.898 184.835 183.911 182.969 181.283 182.24 
181.253 182.097 181.448 183.115 182.108 181.723 183.021 184.11 182.285 
181.992 183.095 184.314 185.497 182.637 182.272 183.306 184.467 185.876 
187.014 182.965 182.405 183.592 184.514 185.792 187.15 188.132 182.913 
182.168 183.636 184.49 185.533 186.712 187.808 188.607 182.448 181.616 
183.248 184.142 185.175 186.222 187.167 187.985 188.652 181.841 180.979 
182.664 183.511 184.501 185.589 186.547 187.308 188 188.619 172.736 
174.004 173.815 175.231 175.019 175.4 176.453 176.163 176.56 176.605 
177.493 177.141 177.642 177.582 177.553 178.412 178.039 178.695 178.741 
178.642 178.507 179.366 178.944 179.742 180.007 180.034 179.763 179.306 
180.322 179.779 180.729 181.011 181.161 180.976 180.383 179.765 181.092 
180.447 181.572 181.76 181.758 181.629 181.238 180.675 180.337 171.28 
172.281 170.714 171.852 170.043 173.393 171.278 169.083 172.975 174.568 
170.346 167.885 172.448 174.14 175.722 169.141 166.807 171.658 173.714 
175.352 176.78 168.1 166.173 170.66 173.091 174.949 176.429 177.724 
167.578 166.016 169.797 172.241 174.294 175.923 177.309 178.57 167.503 
166.144 169.302 171.441 173.502 175.266 176.778 178.097 179.314 167.593 