# vtk DataFile Version 4.0
vtk output
ASCII
DATASET POLYDATA
POINTS 1002 float
-120.533 -111.982 50.3812 -120.255 -110.908 49.4456 -119.703 -111.094 49.8732 
-119.976 -112.337 50.8939 -119.192 -111.402 50.4369 -120.834 -113.189 51.6115 
-119.459 -112.835 51.5397 -118.692 -111.855 51.0779 -120.268 -113.731 52.2439 
-121.046 -114.63 53.1614 -118.939 -113.427 52.2614 -118.134 -112.439 51.755 
-119.768 -114.368 52.9669 -120.506 -115.331 53.8521 -121.193 -116.417 54.6884 
-118.401 -114.093 53.0618 -117.589 -113.175 52.4706 -119.273 -115.04 53.8024 
-120.046 -116.091 54.6258 -120.69 -117.279 55.3809 -121.311 -118.456 55.9839 
-117.942 -114.892 53.9167 -117.172 -114.018 53.2011 -118.736 -115.854 54.7284 
-119.517 -116.946 55.5427 -120.148 -118.208 56.2189 -120.72 -119.413 56.7899 
-121.262 -120.446 57.34 -117.535 -115.833 54.7305 -116.809 -114.927 53.935 
-118.17 -116.925 55.5489 -118.852 -118.058 56.3775 -119.446 -119.281 57.0653 
-119.962 -120.464 57.6332 -120.504 -121.434 58.219 -120.995 -122.317 58.763 
-117.039 -116.916 55.4744 -116.4 -115.959 54.7052 -117.53 -118.155 56.2027 
-118.1 -119.368 56.9631 -118.675 -120.479 57.7023 -119.127 -121.605 58.3232 
-119.621 -122.585 58.9295 -120.165 -123.381 59.5239 -120.642 -124.139 59.9682 
-116.471 -118.047 56.1661 -115.974 -117.027 55.4832 -116.842 -119.349 56.8085 
-117.31 -120.618 57.503 -117.917 -121.614 58.2964 -118.394 -122.603 59.0262 
-118.795 -123.662 59.6345 -119.297 -124.54 60.1954 -119.819 -125.204 60.6751 
-120.287 -125.765 61.0135 -115.947 -119.016 56.8126 -115.581 -117.936 56.2035 
-116.236 -120.323 57.425 -116.582 -121.624 58.1261 -117.145 -122.599 58.9914 
-117.709 -123.42 59.8728 -118.107 -124.394 60.5655 -118.511 -125.382 61.065 
-118.988 -126.133 61.4626 -119.47 -126.645 61.7967 -119.943 -127.026 62.0561 
-119.715 -109.886 48.8683 -119.133 -110.027 49.3671 -119.218 -108.704 48.4333 
-118.584 -108.889 48.9816 -118.65 -107.425 48.205 -118.601 -110.317 49.9674 
-117.948 -107.764 48.789 -117.969 -106.222 48.113 -117.978 -109.263 49.5939 
-118.043 -110.759 50.6247 -117.173 -106.702 48.7311 -117.237 -105.268 48.0696 
-117.17 -108.302 49.3967 -117.277 -109.756 50.2704 -117.378 -111.408 51.3108 
-116.303 -105.72 48.6845 -116.44 -104.437 48.1545 -116.182 -107.336 49.2852 
-116.286 -108.888 50.0255 -116.455 -110.494 50.9361 -116.718 -112.317 51.96 
-115.446 -104.835 48.8069 -115.608 -103.58 48.4595 -115.244 -106.363 49.2626 
-115.284 -108.015 49.8539 -115.449 -109.673 50.6216 -115.665 -111.523 51.4761 
-116.185 -113.327 52.5583 -114.736 -104.158 49.3094 -114.872 -102.872 48.9804 
-114.531 -105.567 49.6637 -114.521 -107.145 50.0405 -114.672 -108.793 50.59 
-114.757 -110.618 51.2396 -115.081 -112.585 52.0399 -115.79 -114.348 53.2643 
-114.14 -103.748 50.0352 -114.23 -102.472 49.6715 -113.977 -105.05 50.4323 
-113.931 -106.445 50.7334 -114.095 -107.956 51.0972 -114.219 -109.593 51.5712 
-114.358 -111.524 52.063 -114.85 -113.58 52.8772 -115.529 -115.401 54.1548 
-113.536 -103.507 50.7385 -113.625 -102.312 50.4602 -113.424 -104.713 51.1209 
-113.375 -105.935 51.4588 -113.51 -107.328 51.8108 -113.745 -108.804 52.2625 
-114.002 -110.405 52.6448 -114.402 -112.389 53.0625 -114.923 -114.52 53.8994 
-115.35 -116.372 55.0761 -112.951 -102.99 51.4247 -112.818 -104.177 51.6361 
-112.301 -103.773 52.4961 -112.229 -104.871 52.6064 -111.976 -104.696 53.8617 
-112.789 -105.331 51.927 -112.115 -105.841 54.0339 -112.207 -105.883 55.4957 
-112.4 -106.146 52.8766 -112.903 -106.708 52.3115 -112.425 -107.316 55.8322 
-112.751 -107.377 56.9883 -112.34 -107.523 54.408 -112.565 -107.946 53.3939 
-113.122 -108.338 52.857 -112.859 -108.961 57.2188 -113.281 -108.917 58.0242 
-112.451 -109.194 56.0974 -112.345 -109.521 54.812 -112.816 -109.666 53.9431 
-113.536 -109.819 53.3488 -113.641 -110.298 57.7083 -114.059 -110.239 58.3893 
-113.083 -110.509 56.9948 -112.658 -110.772 55.9843 -112.931 -110.862 54.9362 
-113.708 -110.93 54.238 -114.223 -111.457 53.6575 -115.047 -111.545 57.5991 
-115.39 -111.535 58.1147 -114.598 -111.687 57.0984 -114.052 -111.869 56.5444 
-113.943 -111.976 55.7793 -114.421 -112.134 55.0594 -114.82 -112.702 54.5866 
-114.846 -113.661 54.1985 -116.555 -113.181 57.5949 -116.837 -113.128 57.8587 
-116.256 -113.35 57.2483 -115.796 -113.552 56.9881 -115.401 -113.699 56.688 
-115.348 -113.884 56.185 -115.374 -114.344 55.6942 -115.212 -115.128 55.3798 
-115.116 -115.911 55.1772 -117.462 -115.162 58.1427 -117.752 -114.988 58.2157 
-117.157 -115.416 57.952 -116.722 -115.688 57.8228 -116.203 -115.896 57.8188 
-115.792 -116.089 57.6513 -115.484 -116.39 57.1978 -115.179 -116.842 56.7358 
-115.023 -117.35 56.4446 -115.182 -117.739 56.2844 -115.396 -119.421 57.3004 
-114.968 -119.269 57.5156 -115.206 -121.103 58.6322 -114.721 -119.071 57.8464 
-114.777 -121.105 59.0522 -114.995 -123.036 60.3427 -114.792 -118.795 58.3591 
-114.442 -121.025 59.5739 -114.536 -123.212 60.8814 -114.514 -124.953 62.1632 
-115.112 -118.448 58.9429 -114.373 -120.652 60.1985 -114.105 -122.98 61.4199 
-113.872 -125.067 62.6273 -113.72 -126.392 63.7283 -115.583 -118.166 59.2274 
-114.635 -120.161 60.6881 -113.987 -122.296 61.9838 -113.357 -124.53 63.1483 
-112.898 -126.21 64.1473 -113.02 -127.388 65.1194 -116.202 -117.993 59.1436 
-115.197 -119.925 60.7592 -114.352 -121.788 62.3427 -113.413 -123.812 63.7742 
-112.517 -125.519 64.853 -112.344 -126.959 65.683 -112.691 -128.392 66.5546 
-116.846 -117.778 59.0766 -115.92 -119.845 60.6065 -115.03 -121.65 62.3361 
-114.044 -123.494 64.1388 -112.903 -125.013 65.5901 -112.342 -126.283 66.5196 
-112.409 -127.861 67.298 -112.547 -129.497 68.0875 -117.372 -117.474 59.1556 
-116.619 -119.659 60.533 -115.745 -121.491 62.1584 -114.828 -123.255 64.0874 
-113.724 -124.794 65.8717 -112.952 -125.918 67.0695 -112.725 -127.215 67.9888 
-112.569 -128.884 68.9208 -112.365 -130.388 69.6856 -117.788 -117.164 59.1991 
-117.222 -119.379 60.5042 -116.415 -121.233 61.9577 -115.548 -122.855 63.7821 
-114.55 -124.424 65.7134 -113.742 -125.718 67.1092 -113.357 -126.858 68.1574 
-113.007 -128.208 69.341 -112.521 -129.637 70.4666 -112.213 -130.83 71.1563 
-115.687 -120.745 57.9635 -115.437 -122.558 59.4888 -115.929 -122.171 58.7273 
-115.079 -124.399 61.37 -115.615 -123.909 60.4513 -116.319 -123.363 59.6658 
-114.518 -126.027 63.2127 -115.199 -125.546 62.3474 -115.976 -125.022 61.459 
-116.892 -124.252 60.6983 -113.924 -127.317 64.8368 -114.76 -126.984 64.1993 
-115.556 -126.628 63.2278 -116.488 -125.97 62.4047 -117.396 -125.119 61.5856 
-113.433 -128.545 66.3043 -114.332 -128.269 65.9573 -115.169 -127.988 65.0732 
-116.05 -127.549 64.0164 -116.991 -126.775 63.1583 -117.818 -126.05 62.1771 
-112.993 -129.849 67.6637 -113.819 -129.597 67.3597 -114.754 -129.183 66.7966 
-115.668 -128.833 65.7532 -116.603 -128.222 64.6424 -117.49 -127.487 63.6302 
-118.272 -126.872 62.5291 -112.59 -130.964 69.0889 -113.292 -130.905 68.4937 
-114.291 -130.42 67.9943 -115.311 -129.992 67.2931 -116.271 -129.534 66.2195 
-117.172 -128.83 65.0273 -117.99 -128.122 63.8894 -118.754 -127.463 62.7895 
-112.336 -131.62 70.5809 -112.915 -131.929 69.7551 -113.875 -131.643 68.9808 
-114.956 -131.135 68.3557 -115.974 -130.692 67.5862 -116.908 -130.116 66.4633 
-117.754 -129.344 65.2209 -118.533 -128.585 64.0799 -119.271 -127.847 63.0256 
-112.314 -131.493 72.0794 -112.664 -132.373 71.3686 -112.98 -132.034 72.5529 
-113.413 -132.998 71.8519 -114.105 -132.507 72.6379 -113.431 -132.68 70.383 
-114.515 -133.364 72.0082 -115.525 -132.842 72.5882 -114.199 -133.233 70.8018 
-114.497 -132.321 69.4173 -116.115 -133.476 71.8776 -117.214 -133.094 72.4243 
-115.385 -133.45 70.8447 -115.314 -132.758 69.6201 -115.638 -131.737 68.6087 
-118.024 -133.525 71.5064 -118.969 -133.256 72.0253 -117.144 -133.538 70.5539 
-116.589 -133.016 69.4361 -116.535 -132.112 68.5526 -116.723 -131.169 67.6523 
-119.731 -133.416 70.9161 -120.574 -133.19 71.4811 -118.938 -133.505 70.0777 
-118.181 -133.225 69.0615 -117.733 -132.404 68.2076 -117.667 -131.418 67.4264 
-117.707 -130.424 66.3967 -121.219 -133.178 70.1401 -121.966 -132.994 70.8276 
-120.471 -133.214 69.3691 -119.673 -133.093 68.5836 -118.992 -132.512 67.8107 
-118.709 -131.547 67.0433 -118.653 -130.536 66.1605 -118.576 -129.544 65.1295 
-122.549 -132.969 69.2204 -123.041 -132.731 69.9298 -121.916 -132.933 68.4651 
-121.124 -132.714 67.8804 -120.286 -132.25 67.3195 -119.756 -131.495 66.5903 
-119.601 -130.579 65.7677 -119.505 -129.628 64.908 -119.359 -128.71 63.9747 
-123.581 -132.598 68.2373 -123.818 -132.26 68.846 -123.14 -132.634 67.5576 
-122.47 -132.368 67.0653 -121.645 -131.864 66.6618 -120.934 -131.239 66.0284 
-120.559 -130.535 65.2132 -120.397 -129.699 64.4516 -120.233 -128.782 63.6987 
-120.06 -127.893 62.8723 -112.354 -130.266 72.0516 -112.639 -130.709 72.8675 
-112.85 -129.612 72.5069 -113.439 -129.897 73.1934 -113.806 -129.185 72.4129 
-113.683 -131.132 73.0336 -114.658 -129.46 73.0933 -115.125 -129.039 71.6998 
-114.818 -130.325 73.2649 -115.169 -131.637 72.936 -116.05 -129.274 72.3815 
-116.441 -128.831 70.5488 -116.108 -129.884 73.3069 -116.445 -130.889 73.28 
-116.738 -132.13 72.9278 -117.302 -128.881 71.1776 -117.472 -128.281 69.5017 
-117.354 -129.496 72.6225 -117.647 -130.293 73.3563 -117.971 -131.382 73.2797 
-118.391 -132.543 72.74 -118.283 -128.186 70.086 -118.298 -127.477 68.7201 
-118.451 -128.881 71.3695 -118.762 -129.654 72.4735 -119.119 -130.547 73.079 
-119.6 -131.694 72.8887 -120.135 -132.725 72.2864 -119.114 -127.382 69.1589 
-119.104 -126.55 67.8891 -119.341 -128.132 70.2727 -119.733 -128.946 71.1796 
-120.156 -129.742 72.0446 -120.711 -130.649 72.4955 -121.335 -131.758 72.3403 
-121.733 -132.628 71.7924 -119.934 -126.508 68.0743 -119.923 -125.532 66.9312 
-120.106 -127.334 69.2336 -120.481 -128.135 70.1217 -120.95 -128.939 70.8729 
-121.519 -129.705 71.5484 -122.187 -130.615 71.8652 -122.665 -131.631 71.7207 
-122.868 -132.388 71.0678 -120.74 -125.526 66.9134 -120.695 -124.495 66.0143 
-120.854 -126.442 67.98 -121.12 -127.219 68.9991 -121.538 -127.976 69.8217 
[...]
CELL_DATA 2000
SCALARS Distance double
LOOKUP_TABLE default
170.241 170.194 170.627 171.516 170.296 170.68 171.617 172.02 172.994 
170.491 170.861 171.849 172.22 173.241 173.612 174.661 170.771 171.114 
172.155 172.519 173.599 173.95 175.05 175.389 176.482 171.206 171.488 
172.573 172.896 174.037 174.376 175.526 175.849 176.963 177.256 178.293 
171.768 172.015 173.13 173.405 174.571 174.879 176.046 176.354 177.458 
177.744 178.755 179.011 179.931 172.39 172.619 173.739 174.003 175.155 
175.447 176.584 176.875 177.939 178.214 179.195 179.45 180.355 180.58 
181.409 173.035 173.246 174.328 174.592 175.701 176 177.089 177.381 
178.398 178.665 179.62 179.875 180.781 181.005 181.832 182.011 182.741 
173.627 173.845 174.854 175.126 176.171 176.482 177.521 177.83 178.811 
179.088 180.01 180.275 181.158 181.408 182.215 182.415 183.109 183.257 
183.852 169.449 168.219 168.988 169.347 166.962 167.749 168.101 168.93 
169.393 165.694 166.495 166.868 167.688 168.128 169.004 169.537 164.469 
165.241 165.625 166.45 166.87 167.728 168.226 169.159 169.769 163.31 
164.023 164.338 165.167 165.56 166.437 166.901 167.832 168.434 169.438 
170.158 162.223 162.866 163.107 163.865 164.238 165.104 165.576 166.496 
167.076 168.083 168.81 169.881 170.682 161.34 161.876 162.168 162.756 
163.162 163.886 164.414 165.239 165.827 166.744 167.446 168.504 169.342 
170.449 171.305 160.748 161.189 161.591 162.035 162.484 163.023 163.586 
164.253 164.874 165.624 166.304 167.209 168.054 169.129 170.077 171.146 
172.019 160.367 160.749 161.188 161.59 162.029 162.48 163.008 163.575 
164.204 164.837 165.513 166.23 167.044 167.963 168.948 169.986 170.953 
171.916 172.714 160.36 160.649 160.693 161.139 161.169 161.011 161.398 
161.482 161.971 162.271 161.739 162.041 161.859 162.379 162.407 162.993 
163.967 163.158 163.422 162.837 163.327 163.052 163.692 163.605 164.249 
165.767 164.977 165.202 164.456 164.806 164.261 164.788 164.493 165.119 
164.963 165.594 167.367 166.685 166.87 166.178 166.391 165.764 166.11 
165.679 166.234 165.97 166.652 166.433 167.166 168.997 168.288 168.579 
167.843 168.148 167.387 167.768 167.117 167.712 167.26 168.054 167.71 
168.566 168.24 169.103 170.89 170.112 170.606 169.783 170.324 169.425 
170.003 169.106 169.802 169.058 169.894 169.34 170.216 169.786 170.629 
170.272 171.083 172.888 172.153 172.738 171.969 172.584 171.761 172.375 
171.514 172.148 171.331 172.003 171.308 171.989 171.449 172.125 171.734 
172.411 172.117 172.785 173.721 173.387 174.03 175.054 173.17 173.757 
174.84 175.495 176.672 173.148 173.655 174.755 175.353 176.597 177.262 
178.44 173.273 173.738 174.791 175.301 176.451 177.149 178.303 178.93 
179.82 173.464 173.918 174.921 175.329 176.306 176.919 177.931 178.618 
179.428 180.003 180.657 173.689 174.146 175.157 175.478 176.387 176.807 
177.738 178.25 179.02 179.511 180.165 180.736 181.489 173.898 174.39 
175.454 175.764 176.698 177 177.958 178.277 179.096 179.328 180.006 
180.352 181.17 181.737 182.663 174.041 174.587 175.701 176.075 177.02 
177.332 178.274 178.599 179.46 179.638 180.322 180.457 181.223 181.59 
182.536 183.043 183.92 174.138 174.707 175.853 176.302 177.252 177.595 
178.461 178.828 179.661 179.968 180.669 180.844 181.523 181.767 182.589 
182.992 183.823 184.244 184.908 174.235 175.595 175.085 175.487 177.195 
176.558 176.969 176.407 176.82 178.884 178.229 178.574 177.951 178.345 
177.776 178.166 180.245 179.799 180.102 179.532 179.877 179.313 179.693 
179.116 179.453 181.209 180.981 181.391 180.958 181.317 180.806 181.184 
180.635 180.975 180.37 180.65 182.157 181.956 182.532 182.195 182.637 
182.192 182.572 182.075 182.404 181.854 182.13 181.532 181.774 183.291 
183.033 183.643 183.343 183.823 183.455 183.839 183.401 183.705 183.206 
183.451 182.926 183.15 182.596 182.786 184.431 184.183 184.713 184.432 
184.87 184.561 184.952 184.598 184.925 184.47 184.698 184.179 184.362 
183.858 184.025 183.508 183.631 185.349 185.196 185.677 185.443 185.849 
185.558 185.934 185.637 185.997 185.639 185.9 185.414 185.563 185.03 
185.151 184.651 184.763 184.26 184.333 185.9 186.856 186.379 186.308 
187.881 187.399 187.366 186.752 186.527 188.912 188.43 188.387 187.805 
187.56 186.896 186.594 189.983 189.447 189.341 188.763 188.485 187.864 
187.537 186.93 186.629 191.065 190.514 190.37 189.733 189.42 188.75 
188.392 187.798 187.478 186.916 186.544 191.915 191.469 191.28 190.731 
190.395 189.721 189.293 188.634 188.242 187.68 187.274 186.7 186.205 
192.49 192.132 191.859 191.453 191.084 190.575 190.084 189.477 188.956 
188.382 187.898 187.352 186.84 186.266 185.746 192.834 192.579 192.271 
191.909 191.512 191.094 190.589 190.089 189.501 188.976 188.417 187.914 
187.39 186.861 186.337 185.796 185.313 192.838 192.775 192.493 192.244 
191.836 191.466 190.952 190.494 189.898 189.406 188.824 188.36 187.836 
187.368 186.853 186.35 185.839 185.343 184.866 185.775 185.777 186.052 
186.654 185.881 186.057 186.646 186.967 187.651 186.241 186.288 186.867 
187.048 187.767 188.048 188.76 186.612 186.715 187.317 187.421 188.138 
188.303 189.066 189.242 189.93 186.664 186.959 187.563 187.818 188.505 
188.722 189.444 189.624 190.334 190.465 191.068 186.427 186.843 187.418 
187.842 188.486 188.894 189.557 189.89 190.554 190.817 191.446 191.566 
192.009 186.059 186.526 187.086 187.561 188.175 188.675 189.312 189.787 
190.422 190.856 191.501 191.827 192.348 192.41 192.674 185.593 186.108 
186.662 187.173 187.751 188.278 188.874 189.409 190.003 190.542 191.144 
191.669 192.206 192.558 192.867 192.921 192.992 185.06 185.595 186.126 
186.678 187.204 187.767 188.289 188.87 189.386 189.984 190.48 191.101 
191.537 192.117 192.391 192.788 192.843 192.993 192.898 174.595 175.874 
175.615 176.306 177.187 176.906 177.566 177.224 177.722 178.535 178.224 
178.861 178.484 178.943 178.523 178.919 179.877 179.551 180.145 179.766 
180.204 179.758 180.118 179.698 180.073 181.113 180.818 181.336 180.99 
181.42 181.013 181.377 180.928 181.267 180.832 181.12 182.154 181.943 
182.432 182.12 182.557 182.203 182.641 182.222 182.606 182.101 182.403 
181.857 182.085 183.003 182.884 183.427 183.187 183.672 183.355 183.854 
183.495 183.947 183.478 183.798 183.228 183.478 182.881 183.141 183.751 
183.679 184.27 184.137 184.677 184.453 184.961 184.68 185.123 184.75 
185.031 184.548 184.72 184.219 184.426 183.945 184.224 184.472 184.411 
184.997 184.927 185.474 185.357 185.843 185.671 186.075 185.808 186.049 
185.645 185.733 185.29 185.39 185.027 185.237 184.915 185.177 173.656 
172.699 173.75 174.946 171.869 172.834 174.017 175.079 176.286 171.055 
172.01 173.155 174.197 175.453 176.481 177.691 170.062 171.091 172.261 
173.369 174.689 175.73 177.038 177.971 179.141 169.069 170.027 171.232 
172.435 173.884 175.029 176.422 177.389 178.632 179.451 180.482 168.499 
169.191 170.367 171.45 172.976 174.207 175.7 176.77 178.03 178.924 
179.982 180.72 181.563 168.397 168.873 169.998 170.8 172.256 173.35 
174.862 175.982 177.288 178.266 179.349 180.169 181.059 181.714 182.425 
168.481 168.897 169.975 170.599 171.906 172.761 174.14 175.148 176.46 
177.481 178.66 179.549 180.54 181.229 182.02 182.56 183.21 168.602 
168.992 170.008 170.576 171.749 172.455 173.655 174.485 175.692 176.659 
177.888 178.868 179.99 180.772 181.66 182.218 182.917 183.369 183.97 
168.987 170.121 169.797 170.429 171.447 171.06 171.718 171.411 172.163 
172.839 172.455 173.107 172.757 173.48 173.193 173.979 174.196 173.85 
174.532 174.174 174.88 174.537 175.312 175.041 175.924 175.586 175.223 
175.953 175.607 176.365 175.997 176.806 176.464 177.394 177.125 178.122 
177.053 176.671 177.418 177.062 177.87 177.519 178.365 178.021 178.948 
178.663 179.651 179.379 180.268 178.436 178.13 178.886 178.555 179.366 
179.037 179.877 179.556 180.411 180.147 181.026 180.815 181.616 181.341 
181.951 179.636 179.433 180.214 179.973 180.773 180.497 181.301 181.01 
181.79 181.512 182.265 182.043 182.747 182.532 183.095 182.79 183.198 
180.708 180.567 181.363 181.213 182.004 181.806 182.56 182.33 183.056 
182.806 183.483 183.22 183.838 183.586 184.123 183.848 184.264 183.919 
184.24 181.528 183.04 182.269 182.245 184.625 183.852 183.85 183.015 
182.924 186.251 185.473 185.477 184.629 184.509 183.64 183.475 187.913 
187.12 187.107 186.242 186.091 185.207 185.025 184.161 183.971 189.417 
188.706 188.627 187.82 187.633 186.769 186.567 185.707 185.514 184.641 
184.403 190.512 189.973 189.804 189.169 188.952 188.223 187.993 187.201 
186.965 186.138 185.861 184.998 184.696 191.315 190.874 190.716 190.185 
190.004 189.407 189.194 188.509 188.228 187.476 187.143 186.355 186.004 
185.207 184.885 192.069 191.683 191.651 191.125 191.022 190.433 190.257 
189.616 189.329 188.626 188.256 187.526 187.143 186.409 186.04 185.313 
184.966 192.678 192.451 192.52 192.106 192.031 191.473 191.252 190.627 
190.29 189.634 189.225 188.55 188.129 187.453 187.049 186.37 185.973 
185.296 184.914 181.417 181.77 182.006 182.887 182.181 182.412 183.278 
183.518 184.444 182.593 182.903 183.861 184.005 184.903 185.102 186.062 
182.947 183.396 184.581 184.736 185.64 185.663 186.565 186.764 187.746 
183.125 183.722 185.019 185.43 186.379 186.435 187.196 187.303 188.243 
188.487 189.365 183.001 183.692 184.816 185.546 186.473 186.896 187.564 
187.81 188.612 188.938 189.83 190.013 190.604 182.646 183.322 184.206 
185.008 185.854 186.588 187.307 187.862 188.618 189.122 189.963 190.344 
190.978 191.055 191.404 182.254 182.857 183.642 184.314 185.114 185.851 
186.678 187.401 188.237 188.899 189.694 190.253 190.879 191.223 191.618 
191.722 192.02 181.922 182.469 183.242 183.812 184.597 185.227 186.083 
186.798 187.676 188.393 189.143 189.782 190.349 190.887 191.311 191.698 
192.027 192.245 192.521 180.542 179.33 180.262 180.902 177.976 179.008 
179.671 180.633 181.27 176.423 177.544 178.202 179.297 179.888 180.899 
181.5 174.777 175.887 176.491 177.685 178.287 179.394 179.922 181.017 
181.661 173.185 174.207 174.7 175.873 176.486 177.705 178.334 179.443 
180.07 181.193 181.883 171.704 172.634 173.037 174.08 174.606 175.839 
176.554 177.831 178.581 179.711 180.38 181.429 181.981 170.342 171.194 
171.586 172.498 172.959 174.023 174.677 175.977 176.785 178.113 178.813 
179.95 180.444 181.426 181.77 169.106 169.879 170.27 171.125 171.618 
172.539 173.15 174.224 174.962 176.224 176.936 178.197 178.704 179.814 
180.155 181.129 181.402 168.022 168.696 169.056 169.857 170.375 171.281 
171.927 172.875 173.55 174.563 175.202 176.314 176.856 177.986 178.411 
179.47 179.825 180.783 181.088 167.584 167.341 167.8 168.598 167.328 
167.673 168.514 168.979 169.955 167.478 167.775 168.639 169.032 170.078 
170.536 171.602 167.591 167.93 168.793 169.206 170.239 170.717 171.813 
172.24 173.24 167.714 168.024 168.907 169.338 170.346 170.834 171.874 
172.374 173.361 173.801 174.75 168.109 168.269 169.2 169.528 170.568 
170.955 171.947 172.377 173.344 173.828 174.801 175.283 176.278 168.772 
168.837 169.777 169.979 171.017 171.278 172.236 172.518 173.462 173.859 
174.9 175.358 176.412 176.85 177.854 169.45 169.541 170.436 170.607 
171.56 171.768 172.66 172.867 173.769 174.083 175.152 175.573 176.699 
177.081 178.101 178.436 179.348 170.027 170.158 171.004 171.191 172.068 
172.267 173.11 173.295 174.169 174.436 175.479 175.881 177.013 177.411 
178.426 178.735 179.603 179.882 180.664 170.599 171.865 171.334 171.606 
173.325 172.699 172.969 172.408 172.682 174.988 174.27 174.558 173.883 
174.152 173.513 173.742 176.788 176.023 176.336 175.589 175.897 175.135 
175.389 174.636 174.878 178.572 177.842 178.14 177.399 177.716 176.961 
177.262 176.453 176.743 175.922 176.257 180.218 179.577 179.881 179.175 
179.46 178.742 179.033 178.308 178.605 177.849 178.172 177.401 177.756 
181.695 181.152 181.505 180.874 181.177 180.469 180.743 180.025 180.301 
179.605 179.887 179.211 179.503 178.82 179.092 182.995 182.551 182.916 
182.412 182.749 182.144 182.439 181.746 182.017 181.289 181.544 180.838 
181.091 180.433 180.676 180.019 180.222 184.088 183.747 184.092 183.705 
184.036 183.583 183.887 183.348 183.625 182.986 183.223 182.508 182.715 
182.004 182.215 181.545 181.743 181.077 181.241 182.002 182.536 182.63 
183.324 183.064 183.187 183.952 183.995 184.699 183.612 183.75 184.578 
184.658 185.446 185.444 186.199 184.119 184.301 185.133 185.272 186.081 
186.175 186.969 186.995 187.758 184.469 184.726 185.525 185.75 186.515 
186.706 187.446 187.616 188.332 188.449 189.116 184.662 184.967 185.732 
186.032 186.78 187.037 187.737 187.955 188.621 188.828 189.472 189.644 
190.237 184.766 185.089 185.821 186.159 186.895 187.215 187.917 188.181 
188.855 189.076 189.752 189.94 190.588 190.713 191.249 184.788 185.133 
185.822 186.188 186.873 187.242 187.898 188.253 188.903 189.241 189.917 
190.208 190.87 191.062 191.625 191.687 192.077 184.731 185.086 185.717 
186.109 186.733 187.131 187.718 188.116 188.697 189.129 189.748 190.199 
190.807 191.188 191.703 191.948 192.33 192.397 192.623 159.933 160.303 
159.87 159.531 161 160.404 160.04 159.6 159.504 161.993 161.306 
160.988 160.318 160.132 159.758 159.966 163.065 162.391 162.105 161.39 
161.137 160.549 160.623 160.414 160.93 164.168 163.478 163.223 162.524 
162.287 161.615 161.59 161.186 161.589 161.542 162.229 165.434 164.681 
164.53 163.762 163.67 162.893 162.919 162.288 162.612 162.317 162.928 
162.887 163.537 166.78 166.053 166.006 165.236 165.263 164.464 164.593 
163.825 164.123 163.541 164.049 163.73 164.325 164.173 164.722 168.07 
167.418 167.402 166.717 166.723 166.039 166.135 165.487 165.727 165.131 
165.5 164.999 165.446 165.09 165.568 165.352 165.842 169.313 168.703 
168.709 168.061 168.033 167.38 167.392 166.83 166.993 166.537 166.826 
166.385 166.698 166.26 166.593 166.256 166.658 166.461 166.927 159.703 
159.371 159.481 159.566 159.442 159.379 159.596 159.674 160.08 159.998 
159.728 160.042 159.973 160.488 160.516 161.095 161.046 160.563 160.888 
160.637 161.17 161.09 161.667 161.645 162.187 162.373 161.802 162.095 
161.663 162.125 161.882 162.413 162.278 162.774 162.706 163.213 163.609 
163.103 163.344 162.906 163.286 162.936 163.394 163.114 163.574 163.369 
163.852 163.764 164.327 164.706 164.229 164.404 164.024 164.347 164.046 
164.448 164.146 164.551 164.26 164.707 164.504 165.027 164.938 165.512 
165.821 165.314 165.469 165.037 165.33 165.02 165.413 165.142 165.527 
165.239 165.642 165.401 165.878 165.708 166.222 166.116 166.639 166.946 
166.458 166.64 166.158 166.438 166.043 166.435 166.114 166.525 166.209 
166.611 166.332 166.79 166.577 167.067 166.882 167.364 167.227 167.736 
159.963 159.788 159.962 160.316 160.224 160.04 160.376 160.477 160.968 
161.165 160.731 161.01 160.839 161.389 161.417 162.149 162.224 161.752 
161.967 161.66 162.174 162.075 162.839 162.886 163.816 163.275 162.805 
163.019 162.653 163.111 162.94 163.678 163.677 164.587 164.68 165.622 
164.428 163.928 164.208 163.769 164.236 163.944 164.672 164.577 165.5 
165.511 166.437 166.455 167.283 165.609 165.136 165.442 165.015 165.474 
165.135 165.815 165.645 166.55 166.501 167.436 167.36 168.176 168.081 
168.874 166.711 166.284 166.553 166.184 166.56 166.278 166.825 166.702 
167.491 167.51 168.41 168.386 169.199 169.064 169.839 169.744 170.646 
167.818 167.381 167.655 167.254 167.58 167.256 167.698 167.55 168.229 
168.292 169.167 169.265 170.124 170.081 170.872 170.763 171.626 171.603 
172.582 180.091 178.987 179.302 178.82 177.787 178.136 177.582 177.952 
177.43 176.407 176.836 176.251 176.649 176.054 176.464 175.89 174.917 
175.357 174.75 175.215 174.607 175.048 174.444 174.876 174.299 173.517 
173.876 173.233 173.667 173.072 173.547 172.967 173.424 172.848 173.292 
172.748 172.182 172.515 171.855 172.214 171.614 172.038 171.494 171.948 
171.398 171.842 171.297 171.759 171.267 170.813 171.164 170.516 170.874 
170.261 170.642 170.09 170.517 169.995 170.421 169.888 170.32 169.834 
170.318 169.903 169.514 169.819 169.207 169.552 168.962 169.313 168.745 
169.141 168.627 169.053 168.55 168.959 168.477 168.921 168.524 169.023 
168.689 168.434 168.638 168.077 168.341 167.812 168.088 167.555 167.862 
167.375 167.745 167.297 167.676 167.225 167.617 167.222 167.686 167.384 
167.888 167.632 
POINT_DATA 1002
SCALARS Distance double
LOOKUP_TABLE default
171.066 169.901 169.758 171.059 169.767 172.426 171.217 169.905 172.577 
173.982 171.464 170.105 172.868 174.281 175.725 171.777 170.433 173.228 
174.706 176.166 177.557 172.257 170.93 173.688 175.199 176.678 178.048 
179.277 172.86 171.516 174.276 175.755 177.191 178.511 179.713 180.809 
173.485 172.171 174.877 176.317 177.686 178.947 180.133 181.224 182.197 
174.087 172.85 175.419 176.812 178.145 179.369 180.551 181.662 182.614 
183.414 174.603 173.433 175.879 177.22 178.537 179.756 180.91 182.015 
182.971 183.746 184.4 168.691 168.517 167.45 167.281 166.158 168.508 
166.049 164.876 167.277 168.602 164.8 163.732 166.028 167.308 168.772 
163.54 162.659 164.676 165.979 167.42 169.113 162.403 161.611 163.381 
164.66 166.091 167.718 169.601 161.618 160.794 162.488 163.619 164.967 
166.426 168.197 170.231 161.158 160.296 162.002 162.966 164.177 165.483 
167.007 168.962 171.039 160.798 160.011 161.614 162.476 163.585 164.855 
166.205 167.923 169.96 171.863 160.274 161.01 160.667 161.36 161.484 
161.827 162.377 162.956 162.392 162.922 164.147 164.802 163.748 163.847 
164.311 165.984 166.518 165.48 165.195 165.326 165.724 167.554 168.031 
167.073 166.621 166.517 166.86 167.372 169.282 169.682 168.903 168.47 
168.214 168.405 168.898 169.429 171.373 171.617 171.166 170.903 170.635 
170.557 170.72 171.033 171.429 173.472 173.577 173.371 173.217 173.007 
172.806 172.652 172.601 172.745 173.062 174.673 174.359 176.133 174.172 
175.996 177.894 174.201 175.899 177.903 179.53 174.372 175.811 177.652 
179.363 180.572 174.587 175.814 177.301 178.848 180.08 181.323 174.851 
176.043 177.313 178.608 179.613 180.808 182.339 175.111 176.408 177.652 
178.919 179.769 180.64 182.066 183.587 175.284 176.715 177.944 179.235 
180.234 180.967 182.066 183.48 184.696 175.37 176.914 178.134 179.314 
180.443 181.335 182.271 183.434 184.559 185.471 175.982 177.564 177.366 
179.235 178.93 178.746 180.64 180.438 180.268 180.071 181.735 181.801 
181.717 181.571 181.289 182.813 183.052 183.064 182.942 182.706 182.4 
183.95 184.169 184.253 184.204 183.975 183.677 183.377 185.014 185.179 
185.266 185.341 185.234 184.89 184.523 184.181 185.882 186.139 186.232 
186.307 186.345 186.123 185.681 185.254 184.857 186.351 186.908 187.312 
187.981 188.352 187.214 188.96 189.426 188.223 187.248 189.958 190.568 
189.109 188.127 187.239 191.02 191.61 190.136 189.02 188.033 187.166 
191.781 192.358 191.044 190.011 188.853 187.845 186.814 192.262 192.855 
191.539 190.675 189.57 188.45 187.402 186.307 192.625 193.028 191.931 
191.072 190.026 188.912 187.893 186.877 185.831 192.677 192.813 192.182 
191.401 190.388 189.285 188.279 187.338 186.346 185.344 185.505 186.302 
185.525 186.347 185.773 187.291 186.747 186.205 187.509 188.504 187.198 
186.438 188.01 188.898 189.8 187.246 186.313 188.249 189.259 190.176 
191.029 186.975 185.996 188.036 189.177 190.239 191.251 192.064 186.61 
185.574 187.676 188.815 189.948 191.083 192.172 192.813 186.144 185.064 
187.236 188.345 189.466 190.598 191.756 192.694 193.098 185.581 184.538 
186.656 187.722 188.802 189.892 190.952 191.905 192.576 192.858 174.841 
176.64 176.146 177.94 177.483 178.124 179.257 178.87 179.394 179.318 
180.53 180.236 180.654 180.572 180.472 181.693 181.414 181.792 181.822 
181.747 181.588 182.727 182.328 182.883 183.004 183.104 182.972 182.652 
183.603 183.083 183.958 184.182 184.381 184.361 184.064 183.722 184.356 
183.818 184.855 185.224 185.48 185.512 185.226 184.877 184.684 172.553 
173.859 171.687 172.958 170.967 175.239 172.111 170.095 174.398 176.729 
171.074 169.021 173.601 176.072 178.322 169.991 168.198 172.634 175.42 
177.78 179.8 169.385 167.915 171.728 174.57 177.115 179.199 180.951 
169.321 167.956 171.289 173.755 176.265 178.49 180.362 181.868 169.415 
168.073 171.19 173.241 175.427 177.694 179.801 181.462 182.734 169.487 
168.247 171.123 172.937 174.79 176.862 179.115 181.058 182.464 183.559 