# vtk DataFile Version 4.0
vtk output
ASCII
DATASET POLYDATA
POINTS 1002 float
-120.368 -111.172 52.133 -119.966 -109.921 51.3358 -119.442 -110.41 51.4412 
-119.826 -111.73 52.4027 -118.92 -110.982 51.67 -120.794 -112.58 53.1692 
-119.249 -112.342 52.8098 -118.381 -111.457 52.2329 -120.224 -113.132 53.6602 
-121.092 -113.799 54.6628 -118.667 -112.899 53.522 -117.93 -111.878 53.1147 
-119.584 -113.74 54.2799 -120.506 -114.402 55.3485 -121.226 -115.03 56.3966 
-118.24 -113.448 54.4959 -117.599 -112.46 54.0292 -118.989 -114.323 55.1988 
-119.864 -115.04 56.2208 -120.654 -115.784 57.2252 -121.301 -116.659 58.0424 
-117.89 -114.027 55.5675 -117.224 -113.15 54.9245 -118.562 -114.881 56.3685 
-119.32 -115.662 57.3715 -120.064 -116.513 58.2878 -120.718 -117.428 59.0132 
-121.289 -118.313 59.6822 -117.452 -114.632 56.7405 -116.81 -113.807 55.9818 
-118.11 -115.498 57.6085 -118.821 -116.37 58.5544 -119.488 -117.357 59.378 
-120.086 -118.284 60.0303 -120.623 -119.029 60.6891 -121.098 -119.666 61.3536 
-117.028 -115.383 57.9333 -116.466 -114.551 57.109 -117.588 -116.313 58.8033 
-118.19 -117.248 59.6105 -118.761 -118.333 60.2714 -119.304 -119.374 60.8505 
-119.856 -120.045 61.5171 -120.357 -120.526 62.2442 -120.811 -121.037 62.848 
-116.612 -116.326 58.9386 -116.104 -115.495 58.1026 -117.081 -117.304 59.8096 
-117.55 -118.231 60.5785 -117.975 -119.207 61.1676 -118.392 -120.284 61.6832 
-118.929 -121.087 62.3038 -119.529 -121.544 63.0268 -120.066 -121.978 63.6682 
-120.552 -122.482 64.1182 -116.067 -117.31 59.7715 -115.641 -116.531 58.981 
-116.463 -118.255 60.6066 -116.887 -119.15 61.4191 -117.3 -119.934 62.1297 
-117.648 -120.801 62.7389 -118.064 -121.675 63.3351 -118.645 -122.3 63.9646 
-119.266 -122.76 64.5467 -119.821 -123.236 64.9804 -120.325 -123.696 65.2611 
-119.285 -109.174 50.4949 -118.73 -109.657 50.553 -118.539 -108.415 49.5021 
-117.885 -108.852 49.6144 -117.6 -107.445 48.5998 -118.164 -110.136 50.8663 
-116.798 -107.906 48.8246 -116.531 -106.442 47.8383 -117.226 -109.268 50.0255 
-117.615 -110.456 51.6111 -115.647 -106.897 48.2282 -115.505 -105.541 47.1833 
-116.074 -108.415 49.2667 -116.618 -109.612 50.7938 -117.164 -110.877 52.5617 
-114.687 -105.8 47.8084 -114.568 -104.603 46.8146 -115.031 -107.425 48.7884 
-115.469 -108.941 49.9844 -116.063 -110.222 51.6846 -116.748 -111.656 53.406 
-113.884 -104.812 47.5822 -113.738 -103.772 46.8216 -114.259 -106.271 48.6042 
-114.566 -108.015 49.6157 -114.892 -109.664 50.8932 -115.57 -111.153 52.5765 
-116.326 -112.518 54.3045 -113.097 -104.227 47.5887 -113.036 -103.182 47.1245 
-113.468 -105.446 48.5505 -113.858 -106.946 49.6021 -114.064 -108.716 50.5703 
-114.491 -110.523 51.9064 -115.273 -112.041 53.6504 -116.003 -113.277 55.4324 
-112.392 -103.845 47.9333 -112.455 -102.683 47.7048 -112.595 -105.06 48.691 
-113.01 -106.286 49.6956 -113.384 -107.73 50.5399 -113.771 -109.532 51.5372 
-114.398 -111.363 53.0872 -115.135 -112.854 54.8878 -115.734 -114.139 56.5823 
-111.931 -103.445 48.6396 -112.028 -102.273 48.5293 -111.981 -104.723 49.1862 
-112.249 -105.924 50.0062 -112.674 -107.125 50.7285 -113.173 -108.606 51.4706 
-113.761 -110.411 52.7066 -114.391 -112.221 54.3751 -114.958 -113.792 56.0637 
-115.395 -115.193 57.6034 -111.735 -102.767 49.6113 -111.75 -104.026 49.9414 
-111.731 -103.545 51.1354 -111.877 -104.778 51.5879 -111.817 -104.556 52.9264 
-111.884 -105.328 50.5755 -111.988 -105.809 53.385 -111.711 -105.815 54.7348 
-112.095 -106.065 52.1525 -112.179 -106.587 51.2335 -111.898 -107.098 55.2032 
-111.671 -107.124 56.3947 -112.298 -107.086 53.9054 -112.419 -107.387 52.7349 
-112.645 -107.929 51.8516 -112.24 -108.303 56.647 -112.349 -108.17 57.553 
-112.605 -108.27 55.5442 -112.851 -108.351 54.4707 -112.936 -108.814 53.4768 
-113.257 -109.56 52.8193 -113.471 -109.427 57.4402 -113.767 -109.241 58.0611 
-113.562 -109.538 56.6119 -113.693 -109.582 55.8544 -113.589 -109.887 55.1805 
-113.571 -110.627 54.5654 -113.882 -111.522 54.2859 -114.871 -110.91 58.1425 
-115.194 -110.809 58.4891 -114.75 -111.109 57.5747 -114.694 -111.3 57.0329 
-114.439 -111.534 56.6571 -114.093 -112.092 56.2914 -114.039 -112.913 55.9993 
-114.385 -113.545 55.9509 -115.665 -112.76 59.2569 -116.077 -112.684 59.3413 
-115.327 -112.96 59.016 -115.048 -113.273 58.7228 -114.72 -113.592 58.4837 
-114.337 -114.006 58.1985 -114.122 -114.634 57.8576 -114.28 -115.175 57.6369 
-114.77 -115.32 57.5796 -115.911 -114.545 60.5395 -116.433 -114.388 60.4644 
-115.38 -114.762 60.5637 -114.857 -115.082 60.5801 -114.342 -115.435 60.5633 
-113.919 -115.801 60.3472 -113.772 -116.293 59.92 -113.976 -116.785 59.5126 
-114.438 -116.953 59.2453 -115.032 -116.781 59.0769 -115.312 -118.005 60.3919 
-114.695 -118.275 60.6645 -114.82 -119.413 61.934 -114.043 -118.415 60.9622 
-114.224 -119.639 62.2766 -114.336 -120.706 63.4791 -113.386 -118.174 61.3143 
-113.424 -119.677 62.5011 -113.68 -120.9 63.7417 -113.918 -122.02 64.9592 
-113.062 -117.681 61.8065 -112.617 -119.357 62.7898 -112.685 -120.86 63.8829 
-113.08 -122.181 65.2619 -113.491 -123.41 66.4652 -113.394 -117.283 62.2076 
-112.591 -118.946 63.2585 -112.091 -120.529 64.2269 -112.147 -122.029 65.6078 
-112.666 -123.474 66.9937 -113.154 -124.786 68.0471 -114.132 -116.988 62.2139 
-113.453 -118.708 63.5005 -112.695 -120.232 64.6501 -112.144 -121.631 66.068 
-112.305 -123.14 67.5209 -112.699 -124.73 68.6837 -112.9 -125.951 69.6583 
-114.865 -116.652 61.9904 -114.41 -118.462 63.3225 -113.832 -120.048 64.6969 
-113.084 -121.331 66.2616 -112.861 -122.644 67.804 -113.017 -124.286 69.119 
-112.799 -125.79 70.259 -112.498 -126.661 71.2708 -115.514 -116.307 61.8121 
-115.1 -118.057 63.0644 -114.659 -119.706 64.4756 -114.009 -121.08 66.095 
-113.634 -122.29 67.6808 -113.737 -123.76 69.1611 -113.451 -125.354 70.5677 
-112.608 -126.439 71.8216 -112.086 -126.917 72.7984 -116.133 -116.004 61.6841 
-115.696 -117.604 62.8948 -115.258 -119.188 64.2707 -114.71 -120.657 65.8717 
-114.235 -121.946 67.4269 -114.197 -123.282 68.9362 -114.131 -124.793 70.5237 
-113.408 -126.057 72.0088 -112.454 -126.703 73.2121 -112.055 -126.968 74.0695 
-115.605 -118.859 61.207 -115.002 -120.277 62.776 -115.954 -119.79 62.0609 
-114.51 -121.647 64.3683 -115.36 -121.199 63.6556 -116.452 -120.593 62.9437 
-114.144 -123.126 65.87 -114.859 -122.715 65.1971 -115.957 -122.053 64.5677 
-116.965 -121.313 63.7897 -113.823 -124.615 67.4178 -114.468 -124.311 66.6667 
-115.431 -123.746 66.0061 -116.586 -122.849 65.4307 -117.409 -122.113 64.5285 
-113.564 -125.904 69.1411 -114.298 -125.662 68.4223 -115.053 -125.308 67.5631 
-116.13 -124.586 66.8418 -117.178 -123.609 66.1686 -117.933 -122.872 65.1585 
-113.168 -126.779 70.8746 -114.209 -126.667 70.3295 -115.022 -126.414 69.5434 
-115.844 -125.995 68.5438 -116.895 -125.212 67.6343 -117.824 -124.25 66.7683 
-118.566 -123.464 65.6865 -112.62 -127.164 72.4557 -113.838 -127.339 71.9232 
-114.95 -127.262 71.3103 -115.751 -126.954 70.4472 -116.678 -126.463 69.3207 
-117.673 -125.672 68.2416 -118.486 -124.751 67.2077 -119.186 -123.968 66.0748 
-112.331 -127.277 73.8398 -113.374 -127.726 73.2282 -114.58 -127.985 72.5251 
-115.519 -127.797 71.8354 -116.458 -127.375 70.8945 -117.5 -126.833 69.7204 
-118.373 -126.033 68.5814 -119.083 -125.158 67.4592 -119.743 -124.42 66.3094 
-112.488 -127.219 75.0747 -113.037 -127.821 74.6563 -113.422 -127.781 75.7754 
-114.099 -128.722 75.1206 -114.656 -128.553 75.9363 -114.09 -128.502 73.7799 
-115.427 -129.528 75.186 -116.209 -129.056 75.6269 -115.028 -129.345 74.1171 
-115.119 -128.671 72.9041 -117.003 -129.692 75.032 -117.93 -128.984 75.3351 
-116.346 -129.765 74.2611 -116.031 -129.19 73.1112 -116.156 -128.277 72.0508 
-118.555 -129.398 74.7683 -119.372 -128.722 75.094 -117.876 -129.698 74.0504 
-117.395 -129.451 72.9848 -117.226 -128.729 71.9328 -117.343 -127.79 70.9315 
-119.978 -129.319 74.1732 -120.547 -128.749 74.4663 -119.377 -129.609 73.3765 
-118.803 -129.58 72.3403 -118.414 -129.148 71.4195 -118.306 -128.26 70.6261 
-118.344 -127.145 69.6957 -121.408 -129.403 73.3273 -121.765 -128.749 73.605 
-120.943 -129.643 72.5343 -120.272 -129.578 71.5314 -119.596 -129.289 70.7413 
-119.201 -128.559 70.1379 -119.098 -127.405 69.4261 -119.099 -126.21 68.4968 
-122.748 -129.011 72.6168 -123.038 -128.244 72.9407 -122.404 -129.33 71.8877 
-121.823 -129.254 70.985 -121.051 -128.983 70.2626 -120.373 -128.421 69.7031 
-120 -127.432 69.0494 -119.876 -126.306 68.2137 -119.822 -125.319 67.2695 
-123.892 -128.134 72.0769 -124.215 -127.427 72.4531 -123.534 -128.497 71.3868 
-123.077 -128.53 70.5742 -122.488 -128.357 69.8951 -121.825 -127.936 69.327 
-121.236 -127.166 68.6609 -120.857 -126.228 67.8509 -120.65 -125.373 66.9751 
-120.489 -124.566 66.0995 -112.614 -126.849 74.5686 -113.176 -127.022 75.5457 
-113.696 -126.619 74.6586 -114.37 -126.635 75.5577 -114.901 -126.109 74.5079 
-114.135 -127.354 76.1837 -115.637 -125.971 75.4209 -115.924 -125.448 74.1941 
-115.271 -126.595 76.2176 -115.446 -127.776 76.206 -116.646 -125.289 75.0602 
-116.804 -124.853 73.4008 -116.488 -125.755 76.0975 -116.64 -126.688 76.3171 
-117.262 -128.024 75.8249 -117.466 -124.704 74.0215 -117.725 -124.241 72.0503 
-117.416 -125.236 75.3941 -117.78 -125.908 76.0916 -118.508 -126.931 76.0017 
-119.071 -127.975 75.5346 -118.392 -124.078 72.4791 -118.695 -123.588 70.5756 
-118.206 -124.823 73.9329 -118.501 -125.56 74.9523 -119.334 -126.255 75.5686 
-120.059 -127.065 75.4994 -120.294 -127.914 75.0641 -119.39 -123.44 70.967 
-119.524 -122.922 69.3238 -119.228 -124.19 72.3585 -119.278 -125.014 73.3622 
-119.835 -125.624 74.3086 -120.644 -126.242 74.8237 -121.089 -127.033 74.6221 
-121.303 -127.934 74.163 -120.143 -122.71 69.6826 -120.096 -122.061 68.3534 
-120.232 -123.396 70.996 -120.341 -124.105 72.0257 -120.613 -124.628 72.9745 
-121.215 -125.149 73.7694 -121.83 -125.908 73.9166 -122.175 -126.781 73.6215 
-122.522 -127.627 73.3262 -120.601 -121.731 68.6328 -120.505 -120.967 67.5916 
-120.852 -122.448 69.7716 -121.186 -123.105 70.8359 -121.488 -123.575 71.8121 
[...]
CELL_DATA 2000
SCALARS Distance double
LOOKUP_TABLE default
170.053 170.093 170.518 171.477 170.194 170.606 171.577 172.023 172.997 
170.369 170.742 171.728 172.151 173.152 173.552 174.481 170.717 171.005 
172 172.348 173.374 173.753 174.756 175.084 176.046 171.185 171.436 
172.434 172.71 173.748 174.063 175.119 175.433 176.452 176.738 177.704 
171.67 171.918 172.924 173.189 174.239 174.522 175.605 175.887 176.929 
177.181 178.126 178.364 179.202 172.244 172.443 173.481 173.713 174.773 
175.034 176.102 176.39 177.418 177.675 178.592 178.791 179.597 179.771 
180.502 172.919 173.082 174.13 174.329 175.373 175.584 176.579 176.835 
177.789 178.084 178.965 179.215 179.996 180.179 180.903 181.052 181.745 
173.575 173.74 174.716 174.943 175.914 176.145 177.044 177.267 178.11 
178.376 179.197 179.491 180.261 180.516 181.224 181.428 182.097 182.266 
182.892 169.205 167.947 168.781 169.203 166.529 167.462 167.882 168.789 
169.267 164.933 165.944 166.391 167.394 167.878 168.844 169.398 163.347 
164.32 164.78 165.839 166.363 167.399 167.991 169.025 169.708 161.887 
162.773 163.226 164.26 164.836 165.88 166.514 167.589 168.334 169.418 
170.177 160.632 161.388 161.851 162.803 163.434 164.434 165.101 166.137 
166.909 168.03 168.866 169.928 170.688 159.686 160.281 160.749 161.563 
162.22 163.139 163.824 164.787 165.552 166.638 167.533 168.641 169.508 
170.494 171.276 159.024 159.495 159.953 160.611 161.248 162.042 162.721 
163.583 164.326 165.333 166.252 167.366 168.34 169.375 170.258 171.173 
171.979 158.609 158.973 159.451 159.96 160.587 161.217 161.892 162.602 
163.329 164.191 165.09 166.144 167.176 168.258 169.24 170.205 171.078 
171.936 172.713 158.652 159.343 159.109 159.545 160.463 160.016 160.378 
160.14 160.674 161.78 161.252 161.558 161.131 161.556 161.336 161.925 
163.149 162.6 162.917 162.405 162.776 162.355 162.855 162.646 163.339 
164.626 164.024 164.389 163.831 164.239 163.697 164.172 163.752 164.428 
164.225 165.113 166.362 165.652 166.116 165.454 165.972 165.314 165.85 
165.25 165.922 165.52 166.416 166.213 167.222 168.402 167.593 168.166 
167.398 168.036 167.271 167.91 167.146 167.835 167.21 168.067 167.675 
168.653 168.403 169.34 170.526 169.731 170.291 169.533 170.155 169.425 
170.065 169.314 169.961 169.244 169.992 169.439 170.314 169.919 170.792 
170.462 171.235 172.405 171.738 172.179 171.525 172.009 171.395 171.9 
171.3 171.796 171.207 171.762 171.263 171.952 171.556 172.3 171.93 
172.616 172.251 172.87 173.794 173.61 174.168 175.04 173.353 173.976 
174.884 175.39 176.189 172.98 173.636 174.515 175.139 175.95 176.494 
177.287 172.72 173.249 174.025 174.636 175.398 176.088 176.915 177.569 
178.43 172.758 173.127 173.89 174.259 174.985 175.514 176.363 177.073 
178.045 178.747 179.701 172.928 173.289 174.175 174.407 175.215 175.424 
176.28 176.691 177.736 178.381 179.496 180.114 181.064 173.067 173.48 
174.459 174.792 175.711 175.902 176.752 176.921 177.894 178.299 179.468 
180.021 181.075 181.501 182.233 173.223 173.627 174.591 175.009 175.943 
176.312 177.15 177.399 178.232 178.557 179.608 180.114 181.204 181.613 
182.368 182.563 183.006 173.418 173.794 174.699 175.091 175.968 176.402 
177.239 177.618 178.394 178.759 179.651 180.175 181.207 181.73 182.55 
182.78 183.229 183.261 183.566 174.218 175.432 174.984 175.317 176.56 
176.152 176.497 176.11 176.48 177.708 177.285 177.637 177.257 177.661 
177.271 177.605 178.944 178.504 178.89 178.446 178.871 178.466 178.854 
178.382 178.665 180.256 179.816 180.251 179.765 180.195 179.744 180.171 
179.685 180.006 179.458 179.724 181.57 181.174 181.659 181.176 181.61 
181.114 181.548 181.055 181.416 180.853 181.115 180.535 180.778 182.614 
182.388 182.906 182.574 183.043 182.562 182.976 182.457 182.832 182.283 
182.558 181.953 182.161 181.566 181.757 183.257 183.196 183.709 183.647 
184.18 183.909 184.308 183.857 184.185 183.679 183.954 183.382 183.564 
182.948 183.094 182.497 182.634 183.756 183.702 184.205 184.275 184.872 
184.84 185.279 185.018 185.303 184.922 185.169 184.707 184.875 184.305 
184.394 183.799 183.887 183.319 183.408 184.21 185.277 184.682 184.731 
186.619 185.953 185.987 185.361 185.432 187.918 187.346 187.36 186.668 
186.573 185.962 185.841 188.945 188.536 188.545 187.943 187.717 187.039 
186.758 186.17 185.893 189.671 189.392 189.375 188.937 188.696 188.079 
187.724 187.081 186.755 186.155 185.812 190.25 190.02 189.998 189.631 
189.411 188.914 188.564 187.991 187.611 187.017 186.61 186.004 185.53 
190.776 190.601 190.638 190.265 190.049 189.562 189.203 188.703 188.279 
187.76 187.26 186.704 186.144 185.576 185.011 191.101 191.063 191.112 
190.861 190.622 190.183 189.774 189.281 188.814 188.312 187.769 187.235 
186.632 186.097 185.519 184.999 184.47 191.166 191.224 191.192 191.118 
190.826 190.581 190.135 189.766 189.267 188.807 188.241 187.705 187.089 
186.55 185.975 185.479 184.966 184.477 183.983 184.267 184.756 184.704 
185.243 185.204 185.198 185.66 185.757 186.458 185.427 185.557 185.973 
186.081 186.646 186.926 187.66 185.401 185.678 186.119 186.284 186.772 
187.027 187.705 188.058 188.726 185.128 185.533 186.011 186.32 186.833 
187.12 187.789 188.119 188.807 189.06 189.558 184.735 185.17 185.647 
186.084 186.615 187.055 187.706 188.153 188.809 189.132 189.602 189.775 
190.117 184.356 184.772 185.248 185.687 186.198 186.688 187.259 187.838 
188.424 188.948 189.366 189.695 189.976 190.225 190.532 183.88 184.36 
184.828 185.299 185.786 186.244 186.716 187.241 187.736 188.34 188.776 
189.277 189.566 189.935 190.204 190.553 190.834 183.201 183.765 184.19 
184.774 185.231 185.772 186.186 186.671 187.067 187.607 188.039 188.603 
188.972 189.433 189.717 190.119 190.399 190.765 190.974 173.844 174.88 
174.611 175.089 175.919 175.638 176.114 175.834 176.321 176.995 176.701 
177.216 176.91 177.423 177.114 177.599 178.081 177.802 178.368 178.076 
178.654 178.307 178.803 178.404 178.82 179.165 178.906 179.509 179.25 
179.88 179.576 180.111 179.685 180.124 179.658 180.124 180.273 180.035 
180.682 180.415 181.055 180.779 181.33 180.967 181.421 181.004 181.511 
181.096 181.655 181.31 181.155 181.829 181.595 182.212 181.939 182.476 
182.143 182.597 182.239 182.725 182.413 182.925 182.58 182.953 182.128 
182.1 182.743 182.628 183.183 183.001 183.503 183.251 183.706 183.386 
183.831 183.529 183.952 183.66 183.913 183.551 183.597 182.714 182.78 
183.382 183.373 183.866 183.791 184.243 184.136 184.587 184.409 184.819 
184.561 184.893 184.586 184.767 184.386 184.381 183.955 183.893 173.126 
172.229 173.234 174.221 171.182 172.292 173.437 174.361 175.301 170.258 
171.269 172.456 173.513 174.607 175.471 176.384 169.701 170.471 171.553 
172.526 173.664 174.687 175.753 176.585 177.475 169.451 170.054 171.027 
171.755 172.805 173.74 174.876 175.866 176.908 177.686 178.551 169.209 
169.824 170.778 171.377 172.353 173.052 174.139 175.028 176.157 177.048 
178.028 178.753 179.606 168.834 169.498 170.448 171.112 172.086 172.726 
173.748 174.462 175.546 176.352 177.38 178.165 179.071 179.786 180.61 
168.468 169.071 169.971 170.684 171.653 172.389 173.387 174.106 175.114 
175.841 176.828 177.561 178.476 179.201 180.037 180.729 181.458 168.27 
168.74 169.565 170.194 171.125 171.871 172.855 173.634 174.612 175.373 
176.33 177.058 177.974 178.659 179.496 180.148 180.877 181.495 182.098 
168.48 169.26 169.121 169.736 170.259 170.017 170.66 170.518 171.278 
171.532 171.179 171.856 171.579 172.337 172.178 173.01 172.998 172.593 
173.294 172.91 173.638 173.342 174.135 173.961 174.785 174.5 174.108 
174.817 174.409 175.099 174.713 175.451 175.169 175.982 175.773 176.557 
175.962 175.595 176.298 175.913 176.585 176.18 176.884 176.542 177.349 
177.071 177.877 177.573 178.263 177.338 177.015 177.709 177.36 178.03 
177.64 178.324 177.973 178.755 178.473 179.265 178.947 179.603 179.223 
179.77 178.557 178.311 178.996 178.718 179.386 179.048 179.702 179.368 
180.082 179.82 180.539 180.266 180.843 180.497 180.95 180.603 181.057 
179.614 179.437 180.108 179.915 180.57 180.321 180.942 180.662 181.296 
181.051 181.68 181.432 181.935 181.62 181.996 181.671 182.046 181.778 
182.202 180.387 181.765 181.016 180.915 183.228 182.445 182.332 181.552 
181.401 184.717 183.938 183.823 183.001 182.831 182.011 181.801 186.175 
185.432 185.346 184.517 184.334 183.47 183.251 182.402 182.178 187.587 
186.864 186.779 186.004 185.802 184.961 184.703 183.858 183.602 182.77 
182.518 188.915 188.214 188.049 187.337 187.089 186.328 186.019 185.234 
184.915 184.127 183.789 183.011 182.677 189.961 189.38 189.111 188.48 
188.176 187.496 187.148 186.43 186.078 185.347 184.977 184.208 183.805 
183.053 182.687 190.585 190.186 189.866 189.372 189.035 188.47 188.096 
187.454 187.07 186.412 186.063 185.361 184.988 184.203 183.822 183.058 
182.742 190.913 190.641 190.334 189.959 189.622 189.192 188.826 188.296 
187.877 187.293 186.916 186.344 186.01 185.357 184.992 184.243 183.898 
183.161 182.889 180.328 180.713 180.914 181.721 181.104 181.346 182.214 
182.388 183.216 181.385 181.744 182.723 182.951 183.841 183.931 184.722 
181.565 182.024 183.194 183.535 184.559 184.637 185.435 185.43 186.168 
181.805 182.269 183.592 184.059 185.26 185.42 186.252 186.189 186.902 
186.885 187.615 182.048 182.541 183.818 184.406 185.627 186.014 186.858 
186.936 187.608 187.636 188.397 188.392 189.065 182.032 182.633 183.725 
184.417 185.463 186.084 186.858 187.245 187.874 188.16 188.907 189.116 
189.827 189.78 190.211 181.759 182.408 183.354 184.07 184.95 185.65 
186.362 186.949 187.579 188.119 188.841 189.345 190.035 190.308 190.723 
190.672 190.822 181.475 182.057 182.93 183.578 184.39 185.046 185.762 
186.377 187.059 187.674 188.394 189.021 189.66 190.171 190.564 190.843 
191.002 191.032 191.067 179.517 178.339 179.245 179.855 176.961 177.99 
178.629 179.589 180.205 175.35 176.486 177.151 178.266 178.903 179.883 
180.424 173.691 174.793 175.404 176.627 177.286 178.449 178.999 179.995 
180.498 172.16 173.152 173.642 174.792 175.369 176.641 177.25 178.445 
179.001 180.057 180.661 170.697 171.624 172.044 173.069 173.55 174.7 
175.296 176.575 177.267 178.498 179.176 180.283 180.935 169.344 170.171 
170.575 171.52 172.019 173.025 173.612 174.733 175.47 176.726 177.508 
178.727 179.382 180.482 180.995 168.231 168.931 169.329 170.147 170.673 
171.601 172.225 173.23 173.948 175.067 175.839 177.024 177.692 178.83 
179.328 180.392 180.78 167.256 167.927 168.356 169.059 169.571 170.368 
170.971 171.899 172.596 173.639 174.378 175.459 176.118 177.166 177.69 
178.714 179.16 180.162 180.559 166.814 166.626 167.17 168.041 166.584 
167.124 168.117 168.49 169.317 166.682 167.213 168.313 168.677 169.549 
169.816 170.672 166.93 167.405 168.588 168.965 169.908 170.128 171.002 
171.279 172.274 167.388 167.724 168.898 169.286 170.336 170.581 171.529 
171.731 172.757 173.023 174.084 168.011 168.214 169.257 169.604 170.691 
171.034 172.092 172.343 173.387 173.6 174.617 174.835 175.787 168.621 
168.784 169.71 169.98 171.019 171.383 172.477 172.844 173.897 174.191 
175.146 175.36 176.225 176.435 177.29 169.162 169.32 170.236 170.463 
171.493 171.779 172.838 173.172 174.183 174.542 175.482 175.793 176.659 
176.877 177.708 177.91 178.757 169.732 169.859 170.797 171.016 172.065 
172.315 173.332 173.569 174.487 174.767 175.667 176.024 176.948 177.273 
178.163 178.38 179.216 179.39 180.191 170.38 171.838 171.206 171.497 
173.337 172.725 173.036 172.44 172.789 174.754 174.165 174.436 173.919 
174.252 173.717 174.01 176.308 175.619 175.863 175.269 175.582 175.082 
175.381 174.844 175.084 178.003 177.299 177.595 176.848 177.171 176.499 
176.853 176.236 176.549 175.934 176.237 179.483 178.943 179.276 178.632 
178.945 178.231 178.558 177.852 178.206 177.52 177.886 177.218 177.572 
180.74 180.289 180.611 180.138 180.438 179.89 180.153 179.535 179.812 
179.189 179.533 178.916 179.275 178.6 178.865 181.987 181.531 181.866 
181.397 181.73 181.245 181.551 181.008 181.273 180.694 180.986 180.447 
180.789 180.234 180.505 179.812 179.945 183.156 182.772 183.131 182.681 
183.038 182.556 182.92 182.401 182.735 182.15 182.443 181.858 182.169 
181.639 181.932 181.353 181.521 180.806 180.877 181.644 182.272 182.324 
183.029 182.718 182.89 183.621 183.707 184.421 183.031 183.287 184.103 
184.265 185.017 185.086 185.771 183.343 183.619 184.485 184.713 185.536 
185.678 186.436 186.458 187.131 183.614 183.928 184.757 185.037 185.842 
186.113 186.931 187.111 187.858 187.855 188.501 183.767 184.127 184.91 
185.225 185.967 186.303 187.102 187.459 188.224 188.442 189.056 189.118 
189.649 183.852 184.217 184.976 185.309 186.03 186.373 187.149 187.542 
188.303 188.628 189.207 189.416 189.866 190.037 190.441 183.888 184.253 
184.959 185.317 186.002 186.382 187.125 187.55 188.298 188.658 189.251 
189.475 189.925 190.107 190.507 190.67 190.952 183.84 184.214 184.845 
185.225 185.843 186.261 186.932 187.416 188.109 188.566 189.158 189.483 
189.96 190.178 190.598 190.745 191.048 191.092 191.177 158.275 158.717 
158.331 158.125 159.392 158.895 158.634 158.249 158.091 160.372 159.727 
159.466 158.869 158.58 158.186 158.135 161.666 160.907 160.745 159.949 
159.692 158.92 158.804 158.414 158.76 163.097 162.301 162.215 161.418 
161.307 160.378 160.322 159.521 159.843 159.472 160.175 164.647 163.785 
163.675 162.901 162.844 162.048 162.032 161.236 161.444 160.853 161.361 
161.054 161.713 166.276 165.406 165.309 164.441 164.37 163.548 163.507 
162.788 162.884 162.336 162.63 162.247 162.695 162.468 163.039 167.74 
167.002 166.979 166.156 166.139 165.221 165.193 164.302 164.384 163.684 
163.962 163.455 163.88 163.503 164.046 163.808 164.461 169.008 168.376 
168.403 167.744 167.803 167.022 167.067 166.156 166.274 165.393 165.713 
164.981 165.476 164.881 165.458 165 165.627 165.326 165.968 158.068 
157.903 157.904 157.948 157.959 157.897 157.966 158.017 158.392 158.161 
158.08 158.317 158.266 158.695 158.77 159.426 158.849 158.53 158.926 
158.794 159.322 159.272 159.915 159.993 160.731 160.196 159.583 159.964 
159.628 160.189 160.014 160.626 160.577 161.243 161.32 162.04 161.698 
161.06 161.338 160.855 161.344 161.014 161.588 161.376 161.992 161.909 
162.587 162.641 163.383 163.064 162.479 162.729 162.225 162.636 162.236 
162.758 162.44 163.021 162.786 163.43 163.314 164.027 164.042 164.793 
164.494 163.867 164.149 163.595 163.967 163.51 163.959 163.606 164.122 
163.855 164.432 164.243 164.883 164.783 165.462 165.458 166.14 165.958 
165.349 165.62 165.047 165.378 164.852 165.217 164.781 165.197 164.891 
165.378 165.187 165.737 165.622 166.206 166.146 166.735 166.734 167.318 
158.311 158.23 158.428 159.003 158.668 158.574 159.14 159.37 160.157 
159.643 159.263 159.727 159.698 160.437 160.666 161.5 160.914 160.394 
160.748 160.462 161.093 161.098 161.898 162.073 162.902 162.248 161.712 
162.054 161.611 162.173 161.942 162.707 162.66 163.486 163.554 164.403 
163.616 163.082 163.485 162.993 163.552 163.175 163.901 163.665 164.453 
164.321 165.132 165.146 166.079 165.017 164.498 164.948 164.468 165.046 
164.622 165.301 164.957 165.672 165.403 166.142 166.003 166.894 166.958 
168.049 166.35 165.891 166.357 165.932 166.529 166.123 166.781 166.384 
167.041 166.673 167.356 167.094 167.943 167.883 168.959 169.062 170.209 
167.53 167.156 167.625 167.285 167.891 167.56 168.215 167.843 168.464 
168.06 168.694 168.359 169.154 169 170.018 170.037 171.137 171.207 
172.191 179.074 177.985 178.325 177.863 176.734 177.135 176.614 177.002 
176.45 175.308 175.758 175.176 175.631 175.017 175.449 174.824 173.796 
174.237 173.588 174.077 173.442 173.927 173.304 173.77 173.194 172.284 
172.69 172.002 172.459 171.828 172.322 171.753 172.25 171.731 172.21 
171.714 170.85 171.198 170.512 170.911 170.287 170.748 170.214 170.725 
170.262 170.772 170.316 170.78 170.298 169.63 169.868 169.214 169.511 
168.892 169.27 168.719 169.203 168.743 169.291 168.874 169.389 168.952 
169.397 168.97 168.677 168.805 168.193 168.363 167.764 167.995 167.425 
167.771 167.279 167.767 167.36 167.918 167.539 168.059 167.681 168.147 
167.823 167.912 167.971 167.377 167.471 166.888 167.011 166.443 166.626 
166.111 166.419 165.992 166.446 166.086 166.622 166.279 166.819 166.491 
167.029 166.767 
POINT_DATA 1002
SCALARS Distance double
LOOKUP_TABLE default
170.947 169.617 169.597 171.012 169.672 172.472 171.134 169.778 172.587 
173.934 171.316 170.014 172.735 174.138 175.376 171.688 170.453 172.998 
174.393 175.743 177.023 172.171 170.934 173.448 174.803 176.167 177.451 
178.642 172.652 171.426 173.953 175.321 176.696 177.929 179.003 179.967 
173.256 172.055 174.538 175.832 177.156 178.406 179.446 180.347 181.196 
173.94 172.768 175.198 176.388 177.522 178.694 179.799 180.749 181.615 
182.428 174.517 173.446 175.695 176.853 177.896 178.918 179.985 181.004 
181.923 182.757 183.494 168.404 168.344 167.095 166.951 165.542 168.352 
165.341 163.918 166.881 168.404 163.704 162.422 165.296 166.913 168.659 
162.195 161.048 163.781 165.433 167.199 169.146 160.924 159.927 162.436 
164.089 165.783 167.748 169.708 159.994 159.139 161.331 162.895 164.491 
166.386 168.469 170.352 159.354 158.58 160.512 161.904 163.366 165.125 
167.247 169.309 171.116 158.986 158.265 160.016 161.236 162.539 164.085 
166.064 168.221 170.194 171.927 158.71 159.636 159.687 160.729 160.976 
160.772 162.055 162.316 161.896 162.003 163.434 163.701 163.269 163.168 
163.397 164.941 165.239 164.794 164.658 164.695 165.195 166.778 167.07 
166.63 166.494 166.4 166.673 167.385 168.932 169.204 168.787 168.692 
168.547 168.56 168.972 169.608 171.06 171.317 170.882 170.8 170.71 
170.632 170.792 171.184 171.588 172.842 173.061 172.64 172.511 172.4 
172.29 172.375 172.699 173.024 173.242 174.697 174.568 175.859 174.341 
175.746 176.967 173.874 175.335 176.773 178.126 173.505 174.703 176.162 
177.814 179.355 173.595 174.575 175.683 177.249 179.077 180.675 173.88 
175.056 176.019 177.145 178.82 180.594 181.928 174.056 175.445 176.637 
177.605 178.935 180.652 181.984 182.79 174.191 175.53 176.858 177.961 
179.134 180.758 182.207 182.918 183.313 174.354 175.556 176.823 178.041 
179.186 180.636 182.229 183.221 183.553 183.835 175.744 176.857 176.895 
178.036 178.023 178.069 179.355 179.284 179.311 179.186 180.741 180.661 
180.643 180.564 180.275 182.11 182.13 182.042 181.964 181.725 181.35 
183.129 183.485 183.518 183.372 183.166 182.79 182.347 183.673 184.331 
184.727 184.684 184.505 184.196 183.712 183.226 184.123 184.823 185.464 
185.647 185.582 185.424 185.011 184.462 183.975 184.674 185.251 185.908 
186.7 187.251 186.011 188.088 188.419 187.296 186.414 189.105 189.315 
188.447 187.411 186.453 189.761 189.94 189.263 188.383 187.381 186.433 
190.363 190.45 189.876 189.101 188.214 187.242 186.16 190.995 190.887 
190.561 189.716 188.798 187.827 186.714 185.562 191.313 191.107 191.033 
190.276 189.334 188.315 187.167 186.02 184.977 191.257 191.137 191.011 
190.438 189.694 188.777 187.637 186.467 185.442 184.482 184.293 185.147 
184.831 185.618 185.165 186.216 185.893 185.227 186.411 187.314 185.917 
185.062 186.549 187.359 188.447 185.624 184.705 186.497 187.454 188.557 
189.423 185.186 184.32 186.135 187.217 188.451 189.42 189.964 184.816 
183.937 185.746 186.717 187.848 188.975 189.705 190.263 184.331 183.375 
185.34 186.274 187.162 188.202 189.155 189.841 190.512 183.59 182.639 
184.652 185.705 186.582 187.461 188.457 189.308 190.007 190.681 174.122 
175.362 175.16 176.398 176.205 176.588 177.506 177.28 177.749 177.938 
178.626 178.343 178.979 179.239 179.237 179.756 179.402 180.151 180.516 
180.584 180.554 180.953 180.469 181.343 181.675 181.806 181.879 182.103 
182.047 181.42 182.492 182.804 182.954 183.039 183.262 183.413 182.837 
182.131 183.349 183.712 184 184.171 184.289 184.308 184.023 172.198 
173.385 171.107 172.388 170.053 174.542 171.368 169.358 173.613 175.672 
170.691 169.061 172.601 174.784 176.808 170.417 168.88 171.976 173.841 
176.011 177.911 170.181 168.569 171.741 173.342 175.24 177.227 178.951 
169.744 168.189 171.421 173.098 174.809 176.596 178.321 179.944 169.282 
167.936 170.889 172.65 174.414 176.124 177.77 179.342 180.828 169.002 