# vtk DataFile Version 4.0
vtk output
ASCII
DATASET POLYDATA
POINTS 1002 float
-119.43 -111.193 55.3917 -119.076 -110.232 54.3586 -118.638 -110.36 54.8562 
-119.032 -111.496 55.9079 -118.181 -110.705 55.3397 -119.849 -112.399 56.5464 
-118.572 -112.002 56.4713 -117.661 -111.21 55.8766 -119.44 -112.868 57.1621 
-120.227 -113.796 57.9863 -118.079 -112.598 57.1738 -117.128 -111.789 56.5272 
-118.968 -113.476 57.9004 -119.814 -114.374 58.7798 -120.549 -115.36 59.6574 
-117.676 -113.265 57.9884 -116.71 -112.518 57.2474 -118.563 -114.168 58.7842 
-119.385 -115.08 59.669 -120.191 -116.068 60.5168 -120.885 -117.128 61.2054 
-117.329 -114.108 58.8549 -116.408 -113.4 58.0712 -118.231 -115.012 59.6922 
-118.991 -115.966 60.5793 -119.735 -116.947 61.3884 -120.453 -117.998 62.0068 
-121.066 -118.978 62.5517 -116.934 -115.087 59.817 -116.168 -114.318 59.0195 
-117.764 -116.02 60.6141 -118.489 -117.029 61.4206 -119.139 -118.047 62.1756 
-119.803 -119.06 62.783 -120.404 -120.009 63.2996 -120.962 -120.822 63.8235 
-116.567 -116.145 60.7794 -115.988 -115.301 59.9813 -117.211 -117.112 61.5501 
-117.844 -118.113 62.2735 -118.42 -119.181 62.9022 -119.051 -120.249 63.4581 
-119.682 -121.148 64.0201 -120.25 -121.913 64.5605 -120.798 -122.621 65.0045 
-116.216 -117.267 61.614 -115.783 -116.42 60.8942 -116.716 -118.247 62.3273 
-117.273 -119.187 63.0569 -117.774 -120.172 63.6747 -118.32 -121.301 64.1427 
-118.99 -122.262 64.6843 -119.638 -122.924 65.3259 -120.203 -123.536 65.8316 
-120.703 -124.163 66.1249 -115.764 -118.343 62.3363 -115.446 -117.586 61.7309 
-116.172 -119.303 62.9252 -116.728 -120.256 63.6164 -117.262 -121.126 64.3408 
-117.713 -122.146 64.8957 -118.274 -123.177 65.3942 -118.954 -123.842 66.0503 
-119.586 -124.282 66.6913 -120.11 -124.789 67.0717 -120.543 -125.309 67.2307 
-118.436 -109.369 53.657 -117.897 -109.528 54.1229 -117.622 -108.464 52.8837 
-116.971 -108.753 53.2384 -116.628 -107.599 51.9902 -117.341 -109.914 54.5793 
-115.923 -108.023 52.3598 -115.669 -106.756 51.1713 -116.331 -109.223 53.7192 
-116.728 -110.439 55.1407 -115.008 -107.193 51.8086 -114.976 -105.796 50.752 
-115.262 -108.571 53.0179 -115.674 -109.797 54.3925 -116.147 -111.1 55.8042 
-114.336 -106.247 51.5936 -114.473 -104.827 50.6821 -114.291 -107.847 52.5647 
-114.568 -109.218 53.762 -115.113 -110.537 55.107 -115.758 -111.966 56.5274 
-113.738 -105.453 51.4829 -113.956 -104.09 50.6969 -113.436 -107.155 52.2064 
-113.461 -108.676 53.1747 -114.001 -110.001 54.4828 -114.773 -111.45 55.8832 
-115.531 -112.896 57.3903 -113.132 -104.9 51.4791 -113.407 -103.522 50.777 
-112.681 -106.596 52.0874 -112.496 -108.209 52.809 -112.907 -109.536 54.0097 
-113.684 -110.909 55.4224 -114.553 -112.376 56.8105 -115.386 -113.803 58.3659 
-112.622 -104.433 51.6796 -112.924 -103.033 51.038 -112.112 -106.034 52.35 
-111.824 -107.637 52.9868 -112.111 -109.069 53.9728 -112.738 -110.425 55.2748 
-113.506 -111.836 56.4887 -114.453 -113.305 57.7942 -115.316 -114.844 59.3786 
-112.279 -104.036 52.1259 -112.562 -102.732 51.5622 -111.801 -105.446 52.836 
-111.48 -106.887 53.5104 -111.665 -108.396 54.352 -112.157 -109.9 55.459 
-112.728 -111.287 56.478 -113.557 -112.733 57.4667 -114.538 -114.402 58.8313 
-115.216 -116.1 60.4073 -112.159 -103.395 52.7409 -111.79 -104.658 53.3729 
-111.814 -104.107 54.3468 -111.593 -105.301 54.825 -111.695 -104.899 55.9589 
-111.448 -105.956 54.0329 -111.753 -106.337 56.3815 -111.87 -106.041 57.4315 
-111.538 -106.75 55.4366 -111.455 -107.473 54.8108 -111.956 -107.728 58.1786 
-112.217 -107.314 58.983 -111.674 -108.143 57.2302 -111.568 -108.578 56.3943 
-111.782 -109.225 55.8371 -112.257 -108.77 59.6932 -112.833 -108.391 60.1933 
-111.77 -109.365 59.0444 -111.598 -109.824 58.1273 -111.866 -110.225 57.2936 
-112.276 -110.762 56.7682 -113.168 -109.81 60.3308 -113.85 -109.779 60.6801 
-112.593 -110.23 59.9945 -112.336 -110.714 59.4168 -112.495 -111.06 58.6064 
-112.798 -111.559 57.9306 -113.084 -112.216 57.5681 -114.395 -111.759 60.8757 
-114.877 -111.819 61.1458 -114.034 -111.983 60.5937 -113.862 -112.322 60.3245 
-113.844 -112.54 59.9333 -113.857 -112.912 59.4066 -113.87 -113.588 58.9731 
-114.069 -114.16 58.7933 -115.155 -114.175 62.0443 -115.483 -113.981 62.1219 
-114.943 -114.577 61.8368 -114.806 -115.011 61.6402 -114.584 -115.214 61.5178 
-114.29 -115.393 61.2627 -114.157 -115.848 60.8379 -114.327 -116.262 60.5123 
-114.733 -116.294 60.3997 -115.393 -116.172 63.3401 -115.749 -115.797 63.2445 
-115.076 -116.744 63.3015 -114.751 -117.357 63.1708 -114.249 -117.726 63.0863 
-113.619 -117.904 62.9297 -113.337 -118.203 62.5226 -113.667 -118.481 62.0927 
-114.318 -118.37 61.8856 -114.943 -117.963 61.8084 -115.123 -119.099 62.8283 
-114.514 -119.511 62.9134 -114.806 -120.528 63.8329 -113.68 -119.943 62.9346 
-114.259 -120.806 63.8911 -114.718 -122.122 65.0506 -112.768 -120.023 63.1694 
-113.45 -121.041 63.9244 -114.28 -122.293 65.2677 -114.49 -123.974 66.6356 
-112.441 -119.716 63.7077 -112.677 -120.936 64.2956 -113.588 -122.337 65.5611 
-113.822 -124.047 67.0817 -113.814 -125.472 68.2676 -113.031 -119.418 64.1302 
-112.73 -120.608 64.8701 -113.242 -122.158 66.0766 -113.162 -123.92 67.5447 
-112.908 -125.333 68.7007 -113.202 -126.371 69.8719 -113.931 -119.152 64.2606 
-113.52 -120.346 65.1528 -113.73 -121.914 66.4712 -113.337 -123.726 67.9775 
-112.573 -125.047 69.0825 -112.535 -126.131 70.2679 -112.851 -127.217 71.7872 
-114.626 -118.676 64.3292 -114.301 -120.069 65.1867 -114.406 -121.634 66.5511 
-114.12 -123.489 68.2391 -113.227 -124.843 69.4662 -112.675 -125.824 70.6799 
-112.511 -126.96 72.3545 -112.273 -128.005 73.8824 -115.182 -118.095 64.3546 
-114.957 -119.712 65.1824 -114.895 -121.295 66.5005 -114.673 -123.079 68.3484 
-114.047 -124.594 69.8252 -113.414 -125.629 71.1005 -112.84 -126.6 72.8508 
-112.093 -127.575 74.5849 -111.491 -128.305 75.657 -115.69 -117.618 64.2612 
-115.612 -119.376 65.1157 -115.478 -121.025 66.3609 -115.12 -122.65 68.2476 
-114.55 -124.182 69.969 -114.037 -125.422 71.3184 -113.484 -126.36 73.0501 
-112.56 -127.099 74.9725 -111.527 -127.706 76.2879 -111.005 -128.227 76.9239 
-115.435 -119.964 63.379 -115.164 -121.664 64.5096 -115.931 -121.075 63.991 
-114.974 -123.574 65.9609 -115.667 -122.963 65.2705 -116.571 -122.087 64.7792 
-114.597 -125.294 67.6636 -115.33 -124.782 66.8906 -116.259 -123.969 66.1908 
-117.106 -123.012 65.5859 -114.084 -126.38 69.4711 -114.913 -126.071 68.8059 
-115.82 -125.541 67.9768 -116.767 -124.83 67.1313 -117.572 -124.019 66.2516 
-113.571 -127.282 71.4471 -114.421 -127.012 70.871 -115.354 -126.643 70.0299 
-116.35 -126.229 69.0154 -117.286 -125.604 67.9472 -118.18 -124.767 66.9349 
-112.835 -128.229 73.4501 -113.714 -128.033 72.7926 -114.763 -127.637 71.9422 
-115.9 -127.273 70.9136 -116.938 -126.794 69.7532 -117.907 -126.038 68.6355 
-118.856 -125.141 67.6376 -111.954 -128.734 75.1812 -112.919 -128.797 74.4194 
-114.101 -128.52 73.493 -115.364 -128.132 72.5104 -116.558 -127.713 71.3851 
-117.57 -127.122 70.1792 -118.544 -126.325 69.1062 -119.456 -125.514 68.1041 
-111.365 -128.75 76.5695 -112.371 -129.046 75.8952 -113.643 -129.011 74.9351 
-114.908 -128.73 73.9086 -116.153 -128.369 72.8372 -117.271 -127.984 71.5806 
-118.223 -127.434 70.3479 -119.136 -126.701 69.308 -119.954 -125.977 68.2849 
-111.118 -128.518 77.794 -111.876 -129.015 77.4721 -111.879 -128.986 78.6246 
-112.862 -129.362 78.2654 -113.071 -129.325 79.045 -113.182 -129.229 76.6899 
-114.051 -129.567 78.3787 -114.728 -129.334 78.7426 -114.171 -129.438 77.2161 
-114.518 -129.135 75.5152 -115.676 -129.641 77.8617 -116.79 -129.401 78.2335 
-115.284 -129.62 77.0314 -115.458 -129.292 75.7559 -115.782 -128.848 74.2817 
-117.662 -129.766 77.3418 -118.754 -129.572 77.7382 -116.855 -129.775 76.4845 
-116.63 -129.525 75.4293 -116.806 -129.067 74.2614 -117.056 -128.573 72.9235 
-119.564 -129.775 76.5449 -120.442 -129.505 76.7809 -118.699 -129.817 75.7986 
-118.132 -129.686 74.7778 -118.014 -129.368 73.7396 -118.098 -128.9 72.6189 
-118.148 -128.27 71.4305 -121.29 -129.688 75.2406 -121.938 -129.318 75.5097 
-120.541 -129.8 74.6483 -119.787 -129.737 73.8122 -119.306 -129.56 72.908 
-119.158 -129.174 72.0107 -119.089 -128.534 71.0841 -119.054 -127.677 70.1735 
-122.765 -129.635 74.0255 -123.143 -129.165 74.4293 -122.26 -129.864 73.3953 
-121.529 -129.847 72.6693 -120.752 -129.69 71.95 -120.271 -129.306 71.2929 
-120.051 -128.614 70.6496 -119.922 -127.771 69.9158 -119.904 -126.891 69.1065 
-123.896 -129.446 73.1926 -124.083 -128.909 73.5961 -123.636 -129.786 72.5384 
-123.117 -129.849 71.8006 -122.306 -129.701 71.1363 -121.566 -129.322 70.6038 
-121.132 -128.603 70.1472 -120.865 -127.72 69.5837 -120.691 -126.922 68.8236 
-120.616 -126.157 67.9978 -111.187 -127.783 77.6113 -111.465 -128.174 78.4491 
-112.059 -127.386 78.0729 -112.565 -127.7 78.937 -113.355 -127.06 78.1938 
-112.416 -128.67 79.1279 -114.011 -127.077 79.1518 -114.64 -126.821 77.6329 
-113.735 -127.901 79.4899 -113.976 -128.796 79.2467 -115.378 -126.694 78.43 
-115.871 -126.746 76.1586 -115.295 -126.987 79.5626 -115.556 -127.807 79.3924 
-116.076 -128.735 78.8041 -116.753 -126.787 76.4809 -117.166 -126.67 74.2781 
-116.685 -126.718 78.453 -117.015 -127.024 79.1699 -117.563 -127.964 78.7873 
-118.163 -128.977 78.2887 -118.128 -126.759 74.3215 -118.313 -126.22 72.7673 
-118.041 -126.936 76.195 -118.157 -126.93 77.7506 -118.574 -127.399 78.2033 
-119.235 -128.348 77.9405 -119.891 -129.123 77.5384 -119.179 -126.1 72.8569 
-119.16 -125.348 71.7224 -119.249 -126.662 74.1508 -119.298 -126.882 75.6434 
-119.456 -127.056 76.7336 -120 -127.624 77.0083 -120.794 -128.365 76.8402 
-121.452 -128.922 76.3853 -119.913 -125.091 71.8173 -119.844 -124.332 70.7963 
-120.079 -125.771 72.8186 -120.275 -126.282 73.9439 -120.454 -126.591 75.0507 
-120.824 -126.964 75.6962 -121.525 -127.552 75.8477 -122.257 -128.165 75.7068 
-122.759 -128.698 75.2317 -120.556 -124.107 70.7656 -120.46 -123.352 69.8568 
-120.71 -124.792 71.6698 -120.96 -125.41 72.6279 -121.274 -125.915 73.6039 
[...]
CELL_DATA 2000
SCALARS Distance double
LOOKUP_TABLE default
170.507 170.535 170.934 171.834 170.668 171.048 172.002 172.389 173.387 
170.885 171.255 172.266 172.634 173.685 174.051 175.12 171.247 171.567 
172.66 172.99 174.103 174.431 175.565 175.888 177.002 171.81 172.057 
173.219 173.502 174.68 174.952 176.118 176.403 177.546 177.823 178.888 
172.516 172.712 173.878 174.138 175.331 175.589 176.742 176.998 178.112 
178.375 179.417 179.653 180.597 173.319 173.463 174.601 174.821 175.973 
176.223 177.33 177.591 178.663 178.928 179.948 180.174 181.112 181.298 
182.163 174.18 174.279 175.364 175.541 176.636 176.848 177.899 178.131 
179.163 179.434 180.453 180.703 181.646 181.829 182.688 182.836 183.62 
174.995 175.079 176.043 176.229 177.241 177.471 178.47 178.686 179.659 
179.905 180.889 181.167 182.099 182.33 183.15 183.326 184.054 184.201 
184.838 169.7 168.399 169.251 169.658 166.95 167.883 168.309 169.233 
169.73 165.458 166.405 166.868 167.839 168.35 169.317 169.886 164.109 
164.975 165.466 166.411 166.953 167.922 168.512 169.508 170.187 162.983 
163.733 164.206 165.073 165.617 166.552 167.17 168.161 168.886 169.915 
170.727 162.053 162.697 163.118 163.877 164.37 165.244 165.853 166.843 
167.608 168.659 169.522 170.56 171.447 161.274 161.839 162.229 162.864 
163.317 164.064 164.657 165.571 166.355 167.401 168.302 169.372 170.303 
171.34 172.265 160.646 161.141 161.547 162.071 162.526 163.137 163.75 
164.523 165.331 166.249 167.162 168.169 169.133 170.197 171.201 172.232 
173.187 160.246 160.637 161.087 161.503 161.97 162.468 163.099 163.77 
164.612 165.401 166.305 167.148 168.085 169.063 170.124 171.198 172.283 
173.242 174.151 160.328 160.908 160.758 161.126 161.737 161.418 161.697 
161.557 161.984 162.953 162.433 162.737 162.322 162.76 162.563 163.179 
164.497 163.878 164.265 163.644 164.091 163.622 164.262 164.016 164.778 
166.018 165.439 165.791 165.235 165.606 165.082 165.588 165.237 165.917 
165.705 166.442 167.624 166.931 167.252 166.691 167.1 166.57 167.052 
166.594 167.22 166.895 167.636 167.397 168.196 169.698 168.784 169.293 
168.454 169.156 168.362 169.139 168.357 169.177 168.497 169.401 168.865 
169.821 169.391 170.341 171.982 171.107 171.807 170.907 171.801 170.888 
171.829 170.871 171.753 170.837 171.743 170.985 171.959 171.329 172.284 
171.724 172.593 173.942 173.311 173.97 173.34 174.089 173.448 174.143 
173.434 173.972 173.245 173.759 173.17 173.822 173.367 174.089 173.635 
174.3 173.818 174.417 175.348 175.267 175.716 176.502 175.06 175.572 
176.346 176.827 177.715 174.737 175.252 176.003 176.584 177.524 178.174 
179.274 174.621 174.945 175.636 176.177 177.165 177.93 179.076 179.77 
180.765 174.888 175.022 175.677 175.966 176.978 177.636 178.815 179.491 
180.421 181.002 181.755 175.189 175.395 176.078 176.225 177.223 177.688 
178.907 179.377 180.272 180.641 181.362 181.895 182.71 175.228 175.632 
176.386 176.625 177.564 178.017 179.236 179.662 180.598 180.738 181.423 
181.678 182.525 183.024 183.871 175.12 175.628 176.491 176.844 177.754 
178.236 179.384 179.932 180.937 181.177 181.881 181.988 182.747 183.03 
183.825 184.169 184.712 175.045 175.563 176.536 176.956 177.918 178.364 
179.436 179.975 180.989 181.403 182.18 182.418 183.121 183.344 184.015 
184.214 184.663 184.818 185.068 175.674 176.858 176.398 176.682 178.176 
177.643 178.027 177.526 177.899 179.796 179.157 179.576 178.979 179.408 
178.83 179.17 181.284 180.81 181.202 180.607 180.996 180.395 180.752 
180.105 180.378 182.335 182.101 182.534 182.109 182.46 181.943 182.287 
181.697 181.995 181.324 181.589 183.337 183.102 183.627 183.292 183.686 
183.278 183.641 183.166 183.486 182.906 183.168 182.523 182.756 184.372 
184.152 184.646 184.356 184.746 184.411 184.782 184.42 184.75 184.291 
184.529 183.986 184.177 183.593 183.756 185.03 184.988 185.372 185.25 
185.579 185.365 185.689 185.441 185.757 185.429 185.651 185.209 185.361 
184.872 185.018 184.487 184.609 185.314 185.382 185.761 185.793 186.163 
186.072 186.392 186.224 186.524 186.306 186.548 186.221 186.375 185.956 
186.083 185.634 185.755 185.261 185.343 185.582 186.451 186.011 186.121 
187.583 187.056 187.105 186.61 186.62 188.548 188.115 188.108 187.626 
187.533 187.021 186.885 189.476 188.98 188.923 188.485 188.351 187.881 
187.681 187.196 187.004 190.575 189.978 189.84 189.281 189.121 188.63 
188.446 187.967 187.76 187.282 187.044 191.442 191.002 190.787 190.221 
189.959 189.419 189.204 188.723 188.519 188.034 187.768 187.255 186.914 
191.922 191.664 191.471 191.034 190.715 190.206 189.899 189.438 189.179 
188.741 188.439 187.949 187.564 187.041 186.629 192.25 192.08 191.998 
191.647 191.404 190.909 190.585 190.084 189.77 189.326 188.984 188.535 
188.117 187.635 187.191 186.708 186.284 192.46 192.396 192.4 192.172 
192.014 191.598 191.288 190.77 190.403 189.903 189.514 189.039 188.595 
188.123 187.652 187.202 186.753 186.317 185.871 185.469 185.727 185.759 
186.313 186.257 186.168 186.678 186.792 187.457 186.768 186.73 187.178 
187.215 187.79 187.918 188.478 187.02 187.129 187.568 187.655 188.165 
188.262 188.827 188.915 189.481 187.09 187.288 187.763 187.935 188.446 
188.59 189.164 189.305 189.948 190.037 190.628 187.024 187.315 187.812 
188.06 188.555 188.771 189.278 189.528 190.113 190.392 190.962 191.11 
191.497 186.698 187.133 187.608 187.995 188.442 188.754 189.148 189.458 
189.896 190.3 190.794 191.176 191.559 191.732 191.935 186.147 186.663 
187.092 187.603 188.016 188.468 188.824 189.192 189.538 189.933 190.36 
190.816 191.239 191.599 191.875 192.039 192.195 185.532 186.048 186.446 
186.975 187.373 187.903 188.291 188.76 189.115 189.525 189.899 190.34 
190.745 191.188 191.514 191.842 192.036 192.226 192.344 175.376 176.516 
176.275 176.917 177.816 177.522 178.228 177.863 178.446 179.131 178.858 
179.612 179.276 179.914 179.449 179.995 180.424 180.152 180.893 180.626 
181.276 180.901 181.397 180.955 181.412 181.717 181.442 182.157 181.88 
182.525 182.189 182.675 182.259 182.647 182.241 182.595 182.851 182.673 
183.376 183.136 183.774 183.441 183.947 183.518 183.92 183.465 183.83 
183.365 183.654 183.716 183.66 184.335 184.23 184.833 184.617 185.087 
184.75 185.113 184.713 185.011 184.583 184.801 184.335 184.475 184.416 
184.409 185.047 185.03 185.588 185.497 185.907 185.713 185.999 185.737 
185.931 185.606 185.669 185.291 185.253 184.902 184.891 185.031 185.044 
185.644 185.655 186.193 186.145 186.54 186.395 186.651 186.451 186.621 
186.364 186.403 186.033 185.925 185.523 185.414 185.134 185.156 174.536 
173.606 174.598 175.679 172.706 173.725 174.877 175.84 176.97 171.803 
172.873 174.105 175.09 176.275 177.193 178.312 170.924 172.01 173.316 
174.341 175.564 176.513 177.679 178.56 179.65 170.177 171.203 172.537 
173.565 174.795 175.77 176.956 177.915 179.08 179.934 180.983 169.591 
170.517 171.829 172.824 174.056 175 176.18 177.161 178.377 179.337 
180.453 181.244 182.157 169.193 169.973 171.227 172.157 173.396 174.301 
175.464 176.399 177.604 178.601 179.761 180.653 181.6 182.313 183.063 
169.031 169.643 170.816 171.621 172.841 173.686 174.823 175.697 176.833 
177.805 178.942 179.901 180.888 181.696 182.492 183.146 183.806 169.037 
169.53 170.609 171.283 172.44 173.192 174.29 175.076 176.143 177.027 
178.114 179.057 180.071 180.943 181.807 182.548 183.272 183.875 184.472 
169.386 170.42 170.222 170.952 171.534 171.318 172.083 171.915 172.728 
172.781 172.492 173.26 173.067 173.887 173.716 174.526 174.196 173.825 
174.591 174.315 175.166 174.931 175.772 175.537 176.369 175.639 175.271 
176.02 175.71 176.579 176.311 177.207 176.902 177.754 177.455 178.316 
177.006 176.677 177.405 177.116 177.956 177.728 178.639 178.386 179.246 
178.918 179.722 179.42 180.231 178.349 178.038 178.805 178.502 179.333 
179.076 179.961 179.752 180.617 180.363 181.137 180.825 181.553 181.262 
181.965 179.675 179.401 180.233 179.948 180.81 180.499 181.345 181.064 
181.898 181.659 182.438 182.171 182.866 182.561 183.192 182.888 183.454 
180.946 180.717 181.562 181.351 182.213 181.957 182.745 182.445 183.181 
182.914 183.639 183.402 184.067 183.798 184.363 184.062 184.542 184.238 
184.653 181.917 183.617 182.689 182.564 185.247 184.389 184.257 183.36 
183.22 186.691 185.951 185.832 184.997 184.831 183.951 183.733 188.062 
187.373 187.32 186.519 186.336 185.483 185.253 184.383 184.131 189.412 
188.748 188.708 187.968 187.777 186.945 186.696 185.857 185.633 184.777 
184.552 190.575 189.991 189.851 189.232 189.011 188.296 188.024 187.255 
187.018 186.233 186.009 185.184 184.935 191.427 190.96 190.747 190.22 
189.979 189.388 189.124 188.475 188.211 187.522 187.248 186.52 186.222 
185.463 185.158 191.995 191.656 191.463 191.021 190.782 190.266 189.995 
189.444 189.157 188.574 188.252 187.615 187.257 186.592 186.248 185.573 
185.257 192.315 192.111 191.95 191.641 191.399 190.981 190.654 190.184 
189.834 189.359 189.014 188.49 188.121 187.527 187.165 186.552 186.23 
185.611 185.31 181.884 182.454 182.658 183.618 183.037 183.3 184.32 
184.434 185.29 183.512 183.899 185.009 185.166 185.994 186.005 186.702 
183.831 184.345 185.566 185.843 186.706 186.701 187.327 187.318 187.996 
183.93 184.573 185.848 186.326 187.292 187.396 188.035 187.973 188.636 
188.668 189.398 183.74 184.492 185.702 186.415 187.432 187.831 188.534 
188.636 189.306 189.369 190.124 190.122 190.719 183.361 184.125 185.221 
186.047 187.038 187.71 188.455 188.881 189.556 189.879 190.621 190.804 
191.395 191.313 191.636 182.983 183.676 184.687 185.468 186.434 187.178 
187.976 188.581 189.28 189.829 190.555 191.024 191.623 191.811 192.121 
192.028 192.159 182.67 183.293 184.229 184.931 185.863 186.585 187.435 
188.082 188.826 189.419 190.121 190.708 191.321 191.766 192.138 192.305 
192.447 192.394 192.434 180.891 179.503 180.577 181.365 177.946 179.076 
179.78 180.996 181.821 176.214 177.369 177.957 179.238 179.982 181.348 
182.177 174.492 175.582 176.062 177.281 177.912 179.332 180.135 181.615 
182.435 172.844 173.908 174.358 175.42 175.902 177.174 177.893 179.435 
180.302 181.823 182.576 171.162 172.252 172.765 173.806 174.232 175.264 
175.811 177.167 178.02 179.614 180.47 181.912 182.515 169.63 170.593 
171.125 172.208 172.737 173.72 174.216 175.274 176.015 177.404 178.327 
179.8 180.528 181.801 182.262 168.451 169.206 169.669 170.626 171.223 
172.252 172.877 173.858 174.562 175.66 176.52 177.797 178.6 179.857 
180.425 181.557 181.963 167.451 168.127 168.53 169.317 169.874 170.824 
171.529 172.554 173.322 174.35 175.133 176.205 176.944 178.061 178.669 
179.776 180.258 181.314 181.711 166.982 166.709 167.261 168.133 166.708 
167.148 168.121 168.555 169.509 166.991 167.345 168.4 168.736 169.779 
170.12 171.19 167.314 167.71 168.836 169.171 170.264 170.537 171.637 
171.949 173.057 167.631 168.022 169.184 169.603 170.712 171.038 172.092 
172.418 173.507 173.833 174.882 168.173 168.405 169.507 169.896 170.984 
171.382 172.395 172.779 173.803 174.204 175.238 175.589 176.579 168.916 
169.023 169.982 170.234 171.229 171.59 172.597 173.004 174.029 174.444 
175.474 175.866 176.864 177.227 178.199 169.614 169.711 170.548 170.712 
171.596 171.861 172.833 173.207 174.265 174.68 175.742 176.121 177.137 
177.489 178.475 178.823 179.776 170.213 170.313 171.102 171.24 172.074 
172.266 173.188 173.49 174.526 174.927 175.995 176.396 177.408 177.771 
178.74 179.093 180.037 180.371 181.251 170.809 172.123 171.525 171.719 
173.669 172.961 173.15 172.506 172.724 175.391 174.604 174.802 174.056 
174.278 173.59 173.863 177.259 176.415 176.632 175.805 176.051 175.271 
175.566 174.847 175.208 179.149 178.342 178.6 177.735 178.017 177.16 
177.476 176.663 177.015 176.28 176.666 180.867 180.184 180.496 179.72 
180.037 179.199 179.521 178.655 178.964 178.137 178.465 177.729 178.071 
182.421 181.826 182.168 181.52 181.856 181.148 181.469 180.68 180.943 
180.094 180.341 179.539 179.838 179.106 179.412 183.861 183.334 183.676 
183.104 183.436 182.835 183.156 182.498 182.757 181.992 182.187 181.385 
181.623 180.878 181.176 180.444 180.715 185.068 184.671 184.992 184.524 
184.837 184.32 184.64 184.077 184.363 183.702 183.902 183.153 183.339 
182.611 182.865 182.175 182.437 181.709 181.911 182.784 183.345 183.489 
184.311 183.798 184.015 184.908 185.06 185.909 184.273 184.477 185.425 
185.638 186.568 186.687 187.491 184.817 185.001 185.94 186.158 187.12 
187.316 188.179 188.234 188.922 185.262 185.516 186.412 186.652 187.535 
187.785 188.624 188.822 189.543 189.588 190.194 185.505 185.841 186.701 
187.018 187.819 188.096 188.839 189.117 189.829 190.057 190.696 190.788 
191.327 185.631 185.979 186.769 187.154 187.912 188.26 188.948 189.249 
189.925 190.226 190.895 191.136 191.689 191.788 192.154 185.71 186.036 
186.717 187.102 187.778 188.203 188.85 189.247 189.86 190.235 190.849 
191.207 191.745 191.986 192.326 192.394 192.521 185.72 186.041 186.627 
186.977 187.552 187.969 188.542 188.999 189.527 189.991 190.478 190.96 
191.402 191.83 192.133 192.388 192.498 192.562 192.529 159.764 160.198 
159.705 159.296 160.871 160.288 159.862 159.362 159.082 161.666 161.048 
160.635 160.031 159.652 159.202 159.068 162.603 161.93 161.584 160.907 
160.562 159.911 159.725 159.331 159.548 163.751 162.996 162.76 162.021 
161.851 161.069 161.013 160.319 160.562 160.185 160.776 165.137 164.297 
164.127 163.346 163.307 162.552 162.653 161.896 162.158 161.518 161.972 
161.607 162.208 166.684 165.819 165.675 164.823 164.76 164.026 164.13 
163.512 163.745 163.147 163.421 162.885 163.244 162.932 163.45 168.192 
167.41 167.326 166.456 166.362 165.519 165.542 164.888 165.096 164.571 
164.821 164.269 164.516 164.027 164.429 164.164 164.767 169.524 168.868 
168.857 168.098 168.059 167.194 167.201 166.392 166.59 165.948 166.281 
165.679 165.992 165.382 165.742 165.279 165.806 165.559 166.183 159.535 
159.03 159.21 159.313 158.872 158.886 159.011 159.259 159.728 158.991 
158.916 159.155 159.236 159.77 160.014 160.707 159.56 159.267 159.631 
159.595 160.216 160.31 161.003 161.157 161.824 160.776 160.197 160.566 
160.293 160.935 160.894 161.594 161.609 162.23 162.292 162.923 162.194 
161.593 161.89 161.441 161.972 161.738 162.38 162.277 162.893 162.832 
163.449 163.479 164.175 163.475 162.944 163.218 162.766 163.192 162.846 
163.375 163.143 163.72 163.574 164.188 164.125 164.799 164.819 165.512 
164.821 164.244 164.544 164.05 164.452 164.046 164.518 164.193 164.721 
164.481 165.066 164.92 165.556 165.498 166.146 166.139 166.764 166.219 
165.648 165.932 165.405 165.776 165.316 165.761 165.369 165.871 165.548 
166.1 165.859 166.449 166.291 166.892 166.805 167.404 167.371 167.985 
159.919 159.763 160.043 160.604 160.152 160.132 160.688 160.879 161.504 
161.04 160.771 161.237 161.174 161.751 161.89 162.643 162.086 161.752 
162.171 161.925 162.421 162.309 162.986 163.181 164.11 163.157 162.788 
163.227 162.943 163.45 163.172 163.778 163.703 164.58 164.791 165.757 
164.372 163.91 164.322 164.007 164.529 164.255 164.842 164.642 165.45 
165.463 166.459 166.542 167.495 165.662 165.166 165.501 165.119 165.58 
165.306 165.872 165.683 166.44 166.407 167.394 167.433 168.467 168.446 
169.489 166.901 166.426 166.741 166.312 166.756 166.407 167 166.739 
167.514 167.403 168.393 168.416 169.494 169.506 170.555 170.559 171.643 
168.156 167.679 168.061 167.598 168.119 167.706 168.399 168.041 168.894 
168.626 169.632 169.508 170.594 170.557 171.599 171.586 172.574 172.627 
173.598 180.31 179.03 179.437 178.945 177.72 178.127 177.612 178.024 
177.453 176.375 176.778 176.213 176.64 176.04 176.441 175.78 174.968 
175.374 174.728 175.164 174.513 174.962 174.296 174.713 174.056 173.49 
173.895 173.192 173.619 172.929 173.388 172.732 173.191 172.532 172.981 
172.352 172.061 172.4 171.693 172.08 171.402 171.824 171.2 171.649 
171.031 171.455 170.805 171.253 170.655 170.797 171.035 170.329 170.649 
170.001 170.367 169.767 170.178 169.61 170.014 169.421 169.788 169.214 
169.633 169.178 169.689 169.849 169.134 169.376 168.738 169.044 168.445 
168.802 168.232 168.629 168.08 168.467 167.946 168.326 167.903 168.336 
168.033 168.713 168.818 168.123 168.279 167.648 167.865 167.267 167.541 
166.963 167.298 166.758 167.142 166.647 167.064 166.637 167.096 166.761 
167.266 167.007 
POINT_DATA 1002
SCALARS Distance double
LOOKUP_TABLE default
171.325 170.129 170.066 171.412 170.129 172.767 171.606 170.272 172.991 
174.404 171.887 170.497 173.307 174.761 176.198 172.319 170.927 173.778 
175.229 176.708 178.105 172.928 171.577 174.413 175.853 177.275 178.659 
179.902 173.634 172.341 175.078 176.505 177.872 179.194 180.401 181.492 
174.419 173.2 175.755 177.09 178.4 179.721 180.933 182.006 182.994 
175.222 174.122 176.454 177.703 178.908 180.185 181.458 182.552 183.51 
184.36 175.897 174.969 177.014 178.26 179.449 180.625 181.861 182.983 
183.918 184.735 185.422 168.906 168.781 167.512 167.357 165.982 168.791 
165.88 164.514 167.37 168.891 164.534 163.281 165.986 167.507 169.14 
163.388 162.284 164.701 166.168 167.839 169.681 162.424 161.453 163.547 
164.867 166.526 168.461 170.426 161.644 160.73 162.625 163.784 165.323 
167.216 169.231 171.255 161.052 160.16 161.951 163.007 164.464 166.21 
168.063 170.108 172.243 160.701 159.882 161.512 162.451 163.843 165.533 
167.174 169.02 171.245 173.365 160.406 161.17 161.155 161.933 162.129 
161.994 163.241 163.493 163.042 163.247 164.905 165.096 164.655 164.581 
164.962 166.32 166.64 166.152 166.016 166.172 166.622 167.835 168.397 
167.604 167.545 167.595 167.894 168.395 170.121 170.578 169.926 169.939 
169.933 170.003 170.309 170.759 172.627 172.745 172.677 172.803 172.748 
172.583 172.649 172.924 173.173 174.566 174.519 174.724 174.873 174.762 
174.417 174.29 174.538 174.813 174.92 176.16 176.073 177.276 175.834 
177.133 178.738 175.388 176.787 178.654 180.433 175.164 176.358 178.352 
180.227 181.64 175.493 176.377 178.2 179.899 181.144 182.485 175.938 
176.806 178.489 180.038 180.885 182.06 183.589 176.092 177.132 178.758 
180.466 181.296 182.093 183.426 184.605 176.073 177.312 178.822 180.577 
181.774 182.578 183.575 184.481 185.055 176.053 177.485 178.962 180.531 
181.863 182.907 183.884 184.593 184.922 185.23 177.14 178.518 178.428 
180.22 179.995 179.806 181.783 181.609 181.39 181.065 182.884 182.938 
182.837 182.641 182.285 183.943 184.06 184.066 184.026 183.796 183.429 
184.929 185.071 185.112 185.173 185.056 184.739 184.37 185.436 185.756 
185.917 186.042 186.063 185.837 185.512 185.177 185.659 186.191 186.547 
186.718 186.818 186.767 186.524 186.218 185.875 185.858 186.518 186.979 
187.674 188.098 187.127 188.574 188.974 188.081 187.396 189.395 190.063 
188.804 188.172 187.481 190.482 191.184 189.648 188.918 188.254 187.55 
191.345 191.804 190.54 189.698 189.003 188.304 187.454 191.852 192.117 
191.226 190.388 189.619 188.922 188.094 187.149 192.278 192.359 191.871 
191.122 190.253 189.442 188.593 187.667 186.761 192.556 192.47 192.371 
191.806 190.942 190.018 189.086 188.111 187.182 186.317 185.319 186.102 
185.761 186.641 186.371 187.294 187.181 186.757 187.714 188.365 187.454 
186.859 188.074 188.713 189.411 187.562 186.858 188.282 188.988 189.797 
190.642 187.537 186.683 188.347 189.046 189.804 190.742 191.507 187.184 
186.231 188.109 188.877 189.529 190.359 191.285 191.89 186.576 185.637 
187.521 188.423 189.177 189.915 190.81 191.626 192.114 185.934 185.028 
186.831 187.77 188.683 189.488 190.298 191.131 191.789 192.207 175.56 
177.214 176.778 178.578 178.096 178.894 179.904 179.398 180.359 180.496 
181.158 180.718 181.621 181.855 181.846 182.453 181.984 182.865 183.095 
183.081 183.018 183.587 182.987 184.094 184.367 184.384 184.302 184.176 
184.41 183.754 185.014 185.395 185.505 185.459 185.28 184.955 185.067 
184.431 185.67 186.087 186.246 186.257 186.088 185.646 185.164 173.533 
174.705 172.584 173.889 171.647 176.042 173.086 170.68 175.343 177.446 
172.267 169.829 174.599 176.756 178.838 171.515 169.191 173.831 175.96 
178.156 180.249 170.848 168.737 173.128 175.212 177.371 179.61 181.503 
170.338 168.508 172.499 174.565 176.617 178.827 180.849 182.452 170.084 
168.502 172.03 173.996 175.911 177.974 180.029 181.79 183.236 170.006 