# vtk DataFile Version 4.0
vtk output
ASCII
DATASET POLYDATA
POINTS 1002 float
-118.167 -115.383 58.9823 -117.934 -114.546 57.7798 -117.525 -114.828 57.9891 
-117.737 -115.763 59.3691 -117.045 -115.115 58.4287 -118.347 -116.49 60.302 
-117.216 -116.232 59.9034 -116.469 -115.494 59.0866 -117.917 -117.06 60.7516 
-118.501 -117.904 61.5722 -116.606 -116.871 60.5071 -115.898 -116.066 59.8163 
-117.379 -117.73 61.2672 -118.062 -118.589 62.0938 -118.672 -119.416 62.9301 
-116.044 -117.647 61.1561 -115.457 -116.765 60.5683 -116.748 -118.493 61.8626 
-117.462 -119.297 62.7439 -118.113 -120.116 63.6409 -118.73 -120.939 64.4356 
-115.602 -118.37 61.9798 -115.099 -117.465 61.4317 -116.173 -119.244 62.6537 
-116.806 -120.047 63.5416 -117.441 -120.862 64.4583 -118.034 -121.758 65.1657 
-118.561 -122.663 65.65 -115.193 -119.039 62.9787 -114.724 -118.204 62.3674 
-115.693 -119.895 63.6705 -116.233 -120.795 64.4611 -116.826 -121.719 65.2574 
-117.407 -122.64 65.8727 -117.88 -123.599 66.2303 -118.281 -124.495 66.4534 
-114.754 -119.795 63.9546 -114.317 -119.01 63.2816 -115.233 -120.597 64.6885 
-115.707 -121.515 65.3823 -116.216 -122.586 65.9725 -116.789 -123.567 66.4935 
-117.298 -124.426 66.8992 -117.67 -125.294 67.1395 -118.02 -126.036 67.3519 
-114.291 -120.571 64.8296 -113.886 -119.788 64.176 -114.76 -121.4 65.542 
-115.203 -122.269 66.203 -115.595 -123.334 66.6838 -116.043 -124.417 67.0972 
-116.569 -125.212 67.5915 -117.048 -125.889 68.0203 -117.431 -126.606 68.2845 
-117.81 -127.172 68.5265 -113.847 -121.235 65.6317 -113.466 -120.486 65.0204 
-114.299 -122.124 66.2838 -114.742 -122.999 66.9415 -115.096 -123.941 67.469 
-115.397 -125.028 67.8478 -115.782 -125.933 68.2923 -116.294 -126.517 68.8322 
-116.809 -127.063 69.2412 -117.241 -127.64 69.4751 -117.648 -128.074 69.6678 
-117.433 -113.939 56.7869 -116.97 -114.229 56.927 -116.889 -113.24 55.8743 
-116.357 -113.559 56.0009 -116.254 -112.33 55.116 -116.446 -114.476 57.3956 
-115.668 -112.631 55.3898 -115.518 -111.184 54.5166 -115.809 -113.802 56.5107 
-115.852 -114.78 58.1573 -114.963 -111.446 55.0761 -114.842 -110.055 54.0529 
-115.1 -112.924 55.9825 -115.193 -114.097 57.2711 -115.301 -115.275 59.0085 
-114.363 -110.329 54.8364 -114.331 -109.189 53.7762 -114.383 -111.87 55.7365 
-114.417 -113.381 56.6291 -114.595 -114.602 58.1349 -114.879 -115.931 59.9221 
-113.78 -109.496 54.5996 -113.829 -108.504 53.7647 -113.735 -110.842 55.506 
-113.667 -112.557 56.2455 -113.762 -114.061 57.4137 -114.137 -115.29 59.2012 
-114.524 -116.688 60.9257 -113.059 -108.858 54.5054 -113.19 -107.814 53.9638 
-113.052 -109.985 55.2937 -113.073 -111.583 56.0184 -113.077 -113.384 56.9662 
-113.329 -114.816 58.5629 -113.82 -116.1 60.3617 -114.179 -117.557 61.908 
-112.336 -108.266 54.6173 -112.525 -107.093 54.2872 -112.336 -109.354 55.2685 
-112.533 -110.657 55.9944 -112.661 -112.413 56.8201 -112.744 -114.158 58.1396 
-113.102 -115.616 59.8295 -113.569 -117.049 61.4333 -113.812 -118.486 62.8675 
-111.861 -107.69 54.947 -112.027 -106.463 54.7706 -111.826 -108.892 55.4844 
-112.048 -110.028 56.2217 -112.355 -111.461 57.0049 -112.47 -113.218 58.0504 
-112.598 -114.945 59.4805 -112.957 -116.568 61.0234 -113.283 -118.086 62.4859 
-113.403 -119.382 63.837 -111.702 -106.802 55.5384 -111.641 -108.204 55.8694 
-111.709 -107.646 56.7738 -111.685 -109.121 57.3433 -111.791 -108.992 58.5461 
-111.711 -109.491 56.5884 -111.817 -110.308 59.2295 -111.862 -110.376 60.4817 
-111.833 -110.367 58.1663 -112.041 -110.713 57.4321 -112.278 -111.504 60.8539 
-112.362 -111.451 61.8265 -112.257 -111.496 59.8343 -112.29 -111.672 58.9725 
-112.358 -112.276 58.3435 -113.26 -112.803 61.7885 -113.427 -112.641 62.4051 
-113.125 -112.929 61.0834 -112.887 -113.032 60.4636 -112.581 -113.408 59.9345 
-112.433 -114.158 59.555 -114.115 -114.439 62.624 -114.369 -114.335 63.0014 
-113.877 -114.625 62.1838 -113.477 -114.719 61.8487 -112.909 -114.895 61.5877 
-112.508 -115.438 61.2672 -112.556 -116.116 61.0277 -114.252 -116.156 63.928 
-114.644 -116.117 64.1489 -113.853 -116.264 63.6618 -113.394 -116.324 63.4481 
-112.855 -116.405 63.3025 -112.441 -116.861 63.0595 -112.427 -117.548 62.7321 
-112.79 -117.969 62.5228 -113.954 -117.575 65.3723 -114.447 -117.548 65.4989 
-113.396 -117.615 65.2399 -112.824 -117.647 65.1179 -112.325 -117.705 64.9765 
-112.027 -118.12 64.7086 -112.062 -118.884 64.342 -112.417 -119.403 64.0589 
-112.915 -119.46 63.9138 -113.706 -118.731 66.5267 -114.189 -118.7 66.6006 
-113.134 -118.778 66.4716 -112.499 -118.859 66.4465 -111.904 -118.96 66.3779 
-111.536 -119.294 66.1148 -111.555 -120.002 65.685 -111.926 -120.622 65.3494 
-112.458 -120.737 65.211 -112.988 -120.575 65.1315 -113.315 -121.601 66.1892 
-112.792 -121.741 66.305 -113.248 -122.87 67.4044 -112.168 -121.94 66.3533 
-112.679 -123.053 67.545 -113.096 -124.29 68.7328 -111.522 -121.788 66.5325 
-111.934 -123.201 67.6475 -112.456 -124.475 68.9371 -112.669 -125.76 70.0586 
-111.169 -121.172 66.977 -111.243 -122.944 67.9251 -111.68 -124.466 69.0832 
-112.031 -125.902 70.2823 -112.144 -127.175 71.3034 -111.381 -120.602 67.4063 
-111.116 -122.371 68.3611 -111.164 -124.023 69.3171 -111.413 -125.739 70.4101 
-111.592 -127.3 71.6355 -111.751 -128.433 72.7454 -112.007 -120.323 67.5479 
-111.644 -121.951 68.649 -111.302 -123.432 69.6395 -111.126 -125.127 70.6553 
-111.102 -127.08 71.9789 -111.153 -128.577 73.3341 -111.254 -129.5 74.3231 
-112.685 -120.118 67.5235 -112.34 -121.69 68.7277 -111.841 -123.095 69.9331 
-111.288 -124.475 71.0652 -110.918 -126.362 72.4732 -110.743 -128.289 73.9789 
-110.642 -129.59 75.0097 -110.523 -130.45 75.547 -113.262 -119.943 67.5013 
-112.897 -121.402 68.7234 -112.364 -122.875 70.1369 -111.675 -124.177 71.44 
-111.118 -125.672 72.8706 -110.803 -127.492 74.4964 -110.594 -129.126 75.6554 
-110.296 -130.32 76.1456 -109.938 -131.242 76.3678 -113.758 -119.864 67.4956 
-113.383 -121.171 68.6386 -112.868 -122.588 70.1436 -112.181 -123.997 71.5983 
-111.583 -125.381 72.9313 -111.235 -126.82 74.4997 -111.034 -128.281 75.9213 
-110.765 -129.627 76.6453 -110.313 -130.778 76.8979 -109.851 -131.699 77.0675 
-113.759 -122.498 66.8615 -113.662 -123.895 68.1944 -114.214 -123.495 67.5702 
-113.333 -125.387 69.5794 -114.023 -124.921 68.9763 -114.622 -124.421 68.2578 
-112.757 -126.921 70.8413 -113.565 -126.464 70.3036 -114.383 -125.895 69.6581 
-114.938 -125.445 68.7744 -112.308 -128.319 72.187 -112.999 -128.062 71.5473 
-113.906 -127.513 70.9317 -114.693 -126.969 70.1512 -115.211 -126.523 69.1762 
-111.976 -129.421 73.7927 -112.679 -129.325 73.0937 -113.419 -128.968 72.3249 
-114.278 -128.427 71.4992 -115.023 -127.917 70.5639 -115.634 -127.278 69.6579 
-111.265 -130.419 75.1666 -112.31 -130.258 74.6711 -113.197 -129.939 73.9694 
-113.938 -129.51 73.0411 -114.759 -129.107 71.9604 -115.551 -128.549 70.9668 
-116.218 -127.78 70.1218 -110.273 -131.443 76.0601 -111.418 -131.28 75.7197 
-112.821 -130.819 75.2442 -113.802 -130.336 74.486 -114.516 -130.052 73.3854 
-115.343 -129.705 72.2055 -116.15 -129.043 71.2435 -116.765 -128.281 70.3996 
-109.678 -132.196 76.7785 -110.427 -132.274 76.4178 -112 -131.861 75.9705 
-113.492 -131.271 75.3652 -114.357 -130.936 74.4652 -115.045 -130.717 73.3283 
-115.894 -130.205 72.2533 -116.669 -129.455 71.3735 -117.221 -128.727 70.5496 
-109.955 -132.211 77.6206 -109.941 -132.741 77.2515 -110.738 -132.346 78.0717 
-111.08 -132.83 77.5962 -112.282 -132.25 78.3149 -111.003 -132.752 76.7144 
-112.951 -132.669 77.8229 -114.121 -132.315 78.5171 -112.348 -132.805 76.9022 
-112.769 -132.274 76.0326 -114.909 -132.657 77.9379 -115.724 -132.534 78.558 
-114.163 -132.701 76.9981 -113.936 -132.498 75.9398 -114.145 -131.835 75.1615 
-116.556 -132.836 77.6485 -117.118 -132.596 78.1363 -115.95 -132.845 76.8071 
-115.391 -132.691 75.7171 -115.025 -132.307 74.7846 -114.916 -131.607 74.1054 
-118.031 -133.005 77.0637 -118.494 -132.5 77.5733 -117.49 -133.246 76.2791 
-116.882 -133.072 75.341 -116.267 -132.592 74.4561 -115.811 -131.952 73.7382 
-115.722 -131.145 73.0425 -119.351 -132.958 76.6151 -119.624 -132.274 77.1339 
-118.866 -133.458 75.821 -118.2 -133.411 74.9885 -117.564 -132.806 74.2455 
-117.047 -132.021 73.5378 -116.715 -131.232 72.8236 -116.637 -130.38 72.0967 
-120.236 -132.497 76.1441 -120.297 -131.747 76.5338 -119.996 -133.117 75.4685 
-119.408 -133.22 74.7192 -118.708 -132.726 74.035 -118.206 -132.011 73.3165 
-117.844 -131.269 72.5718 -117.547 -130.45 71.8954 -117.352 -129.586 71.2423 
-120.738 -131.673 75.4188 -120.751 -130.963 75.7106 -120.733 -132.311 74.9088 
-120.444 -132.514 74.292 -119.823 -132.191 73.6593 -119.224 -131.727 72.9205 
-118.828 -131.258 72.134 -118.485 -130.548 71.5232 -118.141 -129.655 71.0205 
-117.855 -128.818 70.4059 -110.499 -131.242 77.6736 -110.86 -131.531 78.2589 
-111.27 -130.449 78.2856 -111.781 -130.608 78.8159 -111.831 -129.487 78.8753 
-111.875 -131.515 78.6306 -112.517 -129.65 79.2713 -112.559 -128.5 79.2172 
-112.888 -130.658 79.1029 -113.449 -131.571 78.8606 -113.509 -128.803 79.2832 
-113.706 -127.854 78.7706 -113.763 -129.894 79.4063 -114.391 -130.922 79.4078 
-115.062 -131.92 79.1113 -114.656 -128.381 78.4451 -114.756 -127.776 77.4821 
-114.815 -129.268 79.0384 -115.295 -130.196 79.5513 -115.892 -131.248 79.5529 
-116.462 -132.137 78.9552 -115.51 -128.242 77.1902 -115.515 -127.717 76.0963 
-115.768 -128.864 78.0086 -116.251 -129.471 78.8503 -116.789 -130.235 79.3517 
-117.284 -131.232 79.0308 -117.832 -132.007 78.3151 -116.259 -127.763 76.1442 
-116.293 -127.155 75.0297 -116.481 -128.322 77.044 -116.966 -128.796 77.8578 
-117.54 -129.249 78.5595 -118.069 -130.034 78.6821 -118.574 -131.031 78.2678 
-119.106 -131.783 77.7452 -117.069 -126.914 75.1791 -117.084 -126.302 74.0606 
-117.179 -127.426 76.2317 -117.495 -127.935 77.08 -117.982 -128.407 77.7336 
-118.536 -128.971 78.082 -119.095 -129.859 78.0052 -119.597 -130.802 77.6674 
-119.989 -131.417 77.1923 -117.759 -126.085 74.0705 -117.71 -125.473 73.0666 
-117.839 -126.535 75.1783 -118.017 -126.993 76.1774 -118.357 -127.56 76.8861 
[...]
CELL_DATA 2000
SCALARS Distance double
LOOKUP_TABLE default
173.626 173.653 174.026 174.835 173.734 174.108 174.994 175.349 176.242 
173.921 174.26 175.205 175.565 176.525 176.847 177.787 174.271 174.541 
175.503 175.828 176.814 177.151 178.118 178.432 179.375 174.753 174.969 
175.921 176.185 177.166 177.469 178.454 178.766 179.725 180.02 180.925 
175.302 175.485 176.421 176.641 177.614 177.874 178.879 179.155 180.144 
180.402 181.323 181.55 182.372 175.887 176.047 176.97 177.161 178.116 
178.348 179.342 179.613 180.601 180.856 181.765 181.973 182.781 182.953 
183.668 176.459 176.62 177.525 177.716 178.641 178.85 179.787 180.046 
180.982 181.265 182.131 182.376 183.142 183.339 184.031 184.188 184.813 
176.972 177.144 178.016 178.236 179.139 179.353 180.236 180.46 181.329 
181.591 182.418 182.675 183.419 183.642 184.317 184.508 185.127 185.274 
185.824 172.9 171.796 172.52 172.872 170.608 171.384 171.722 172.487 
172.893 169.274 170.146 170.521 171.321 171.715 172.523 173.024 167.888 
168.784 169.23 170.096 170.518 171.337 171.828 172.707 173.334 166.695 
167.473 167.949 168.811 169.284 170.127 170.624 171.506 172.143 173.091 
173.813 165.755 166.391 166.805 167.586 168.074 168.911 169.443 170.313 
170.964 171.911 172.679 173.633 174.39 164.902 165.472 165.786 166.483 
166.938 167.748 168.325 169.183 169.869 170.78 171.583 172.535 173.364 
174.266 175.018 164.074 164.604 164.89 165.502 165.943 166.682 167.299 
168.133 168.869 169.748 170.577 171.501 172.385 173.296 174.123 174.944 
175.652 163.408 163.853 164.22 164.727 165.227 165.83 166.492 167.223 
168.007 168.82 169.673 170.55 171.469 172.379 173.283 174.116 174.891 
175.606 176.242 163.297 163.874 163.711 164.189 165.093 164.58 164.962 
164.734 165.264 166.665 165.983 166.249 165.741 166.18 165.932 166.557 
168.277 167.596 167.852 167.187 167.562 167.063 167.62 167.363 168.082 
169.963 169.274 169.677 168.936 169.36 168.65 169.155 168.624 169.274 
168.99 169.767 171.827 171.101 171.609 170.875 171.352 170.578 171.025 
170.312 170.857 170.35 171.076 170.777 171.601 173.636 172.966 173.359 
172.728 173.087 172.444 172.751 172.105 172.502 171.967 172.592 172.208 
172.986 172.678 173.45 175.094 174.551 174.747 174.224 174.393 173.886 
174.039 173.546 173.808 173.41 173.923 173.64 174.328 174.058 174.736 
174.435 175.043 176.22 175.766 175.88 175.404 175.513 175.026 175.151 
174.672 174.892 174.522 174.964 174.763 175.387 175.234 175.844 175.615 
176.132 175.86 176.344 177.113 176.916 177.413 178.269 176.649 177.203 
178.065 178.634 179.58 176.202 176.854 177.729 178.385 179.348 179.974 
180.908 175.756 176.371 177.256 177.962 178.928 179.658 180.631 181.255 
182.114 175.649 176.071 176.965 177.535 178.482 179.169 180.162 180.895 
181.857 182.452 183.298 175.883 176.161 177.071 177.453 178.365 178.824 
179.752 180.403 181.437 182.16 183.143 183.687 184.482 176.209 176.453 
177.346 177.686 178.584 178.882 179.696 180.107 181.069 181.749 182.837 
183.509 184.4 184.828 185.433 176.527 176.747 177.571 177.926 178.816 
179.135 179.913 180.176 181.001 181.483 182.531 183.206 184.205 184.727 
185.401 185.679 186.108 176.838 177.032 177.776 178.096 178.946 179.311 
180.121 180.405 181.181 181.514 182.435 182.971 183.964 184.523 185.299 
185.655 186.152 186.327 186.686 177.506 178.713 178.25 178.588 180.059 
179.556 179.921 179.416 179.747 181.38 180.924 181.291 180.791 181.12 
180.58 180.855 182.569 182.181 182.558 182.124 182.467 181.963 182.248 
181.679 181.928 183.75 183.358 183.768 183.355 183.738 183.284 183.613 
183.081 183.336 182.752 182.98 184.902 184.56 184.999 184.598 184.991 
184.543 184.882 184.406 184.681 184.144 184.348 183.768 183.95 185.77 
185.586 186.019 185.774 186.162 185.779 186.07 185.62 185.878 185.416 
185.638 185.107 185.267 184.69 184.834 186.354 186.261 186.654 186.595 
187.008 186.82 187.112 186.745 186.961 186.544 186.767 186.323 186.503 
185.978 186.096 185.53 185.631 186.877 186.763 187.106 187.09 187.515 
187.492 187.854 187.664 187.896 187.561 187.749 187.372 187.542 187.117 
187.226 186.731 186.793 186.26 186.306 187.278 187.982 187.564 187.507 
188.83 188.342 188.304 187.886 187.91 189.91 189.305 189.254 188.741 
188.733 188.319 188.286 191.094 190.473 190.365 189.751 189.654 189.149 
189.049 188.6 188.4 192.039 191.582 191.463 190.866 190.673 190.075 
189.863 189.342 189.092 188.599 188.282 192.716 192.411 192.388 191.896 
191.711 191.086 190.783 190.159 189.815 189.269 188.915 188.422 188.059 
193.219 193.051 193.114 192.757 192.613 192.059 191.708 191.058 190.616 
189.997 189.565 189.029 188.626 188.148 187.742 193.296 193.387 193.437 
193.333 193.158 192.796 192.365 191.832 191.297 190.731 190.221 189.674 
189.207 188.694 188.247 187.772 187.319 192.868 193.165 193.171 193.352 
193.16 193.07 192.591 192.248 191.639 191.221 190.668 190.234 189.73 
189.25 188.747 188.257 187.761 187.298 186.818 187.337 187.598 187.659 
188.017 187.667 187.861 188.274 188.369 188.822 187.595 187.867 188.376 
188.589 189.146 189.285 189.897 187.589 187.83 188.414 188.688 189.37 
189.616 190.339 190.482 191.115 187.644 187.875 188.456 188.753 189.465 
189.808 190.562 190.848 191.478 191.602 192.036 187.584 187.88 188.403 
188.749 189.374 189.793 190.453 190.881 191.445 191.757 192.152 192.308 
192.616 187.331 187.706 188.169 188.57 189.083 189.542 190.065 190.558 
191.032 191.492 191.888 192.236 192.559 192.783 193.052 186.911 187.347 
187.751 188.197 188.616 189.101 189.522 190.027 190.419 190.932 191.313 
191.809 192.159 192.56 192.794 193.062 193.138 186.381 186.848 187.205 
187.673 188.021 188.518 188.88 189.399 189.748 190.263 190.594 191.132 
191.458 191.988 192.21 192.614 192.634 192.89 192.751 177.213 178.133 
177.826 178.196 179.194 178.858 179.285 178.929 179.36 180.327 180 
180.472 180.093 180.529 180.151 180.549 181.429 181.146 181.661 181.313 
181.785 181.379 181.8 181.347 181.697 182.51 182.246 182.81 182.508 
183.044 182.669 183.149 182.686 183.1 182.564 182.97 183.579 183.339 
183.932 183.666 184.238 183.918 184.412 184.018 184.434 183.98 184.385 
183.911 184.369 184.534 184.372 184.957 184.757 185.307 185.053 185.495 
185.173 185.51 185.164 185.497 185.171 185.549 185.22 185.591 185.305 
185.233 185.79 185.677 186.176 186.006 186.388 186.131 186.389 186.09 
186.338 186.09 186.41 186.194 186.502 186.227 186.432 185.915 185.907 
186.435 186.391 186.85 186.749 187.106 186.917 187.158 186.889 187.089 
186.838 187.103 186.924 187.215 187.009 187.197 186.895 186.975 176.801 
176.319 176.928 177.646 175.654 176.383 177.161 177.814 178.637 174.923 
175.729 176.601 177.304 178.179 178.859 179.742 174.175 175.058 176.06 
176.797 177.731 178.41 179.335 179.988 180.855 173.413 174.345 175.462 
176.295 177.308 178.007 178.954 179.603 180.513 181.113 181.95 172.786 
173.641 174.798 175.688 176.775 177.562 178.542 179.235 180.167 180.796 
181.675 182.23 183.03 172.409 173.118 174.232 175.058 176.154 176.981 
178 178.774 179.739 180.44 181.34 181.946 182.748 183.278 183.99 
172.236 172.815 173.839 174.548 175.577 176.358 177.372 178.186 179.193 
179.971 180.901 181.568 182.363 182.936 183.627 184.151 184.768 172.212 
172.68 173.616 174.196 175.136 175.809 176.773 177.555 178.582 179.405 
180.387 181.104 181.918 182.508 183.185 183.73 184.345 184.858 185.403 
172.56 173.594 173.332 173.919 174.735 174.418 174.95 174.714 175.351 
175.894 175.578 176.102 175.791 176.398 176.193 176.942 177.061 176.75 
177.338 177.005 177.654 177.358 178.14 177.929 178.786 178.319 177.972 
178.603 178.279 178.975 178.682 179.477 179.231 180.074 179.84 180.619 
179.63 179.278 179.889 179.561 180.223 179.961 180.701 180.511 181.279 
181.088 181.775 181.539 182.121 180.842 180.553 181.146 180.834 181.434 
181.152 181.798 181.61 182.304 182.163 182.804 182.606 183.138 182.888 
183.363 181.903 181.685 182.286 182.037 182.62 182.33 182.905 182.656 
183.283 183.118 183.758 183.584 184.135 183.887 184.356 184.081 184.518 
182.847 182.677 183.275 183.102 183.692 183.46 184.004 183.74 184.297 
184.089 184.689 184.522 185.076 184.864 185.321 185.06 185.461 185.193 
185.565 183.536 184.769 184.09 183.999 186.086 185.381 185.286 184.582 
184.448 187.38 186.705 186.599 185.884 185.729 184.996 184.785 188.646 
187.985 187.898 187.187 187.037 186.293 186.094 185.317 185.095 189.911 
189.25 189.15 188.458 188.323 187.612 187.448 186.673 186.465 185.663 
185.465 190.951 190.42 190.231 189.621 189.436 188.829 188.67 187.999 
187.772 187.013 186.754 186.008 185.786 191.554 191.243 191.047 190.565 
190.33 189.81 189.615 189.081 188.831 188.193 187.86 187.179 186.876 
186.23 185.976 191.934 191.738 191.696 191.316 191.144 190.64 190.415 
189.91 189.655 189.111 188.774 188.16 187.816 187.213 186.936 186.346 
186.091 192.391 192.201 192.304 191.995 191.92 191.449 191.208 190.678 
190.39 189.873 189.562 189.007 188.674 188.097 187.805 187.248 186.996 
186.429 186.171 183.521 183.943 184.059 184.752 184.422 184.555 185.29 
185.372 186.092 184.867 185.104 185.939 185.991 186.696 186.716 187.384 
185.169 185.58 186.556 186.677 187.329 187.296 187.869 187.937 188.594 
185.238 185.81 186.851 187.187 187.792 187.814 188.236 188.325 188.977 
189.179 189.891 185.057 185.692 186.614 187.201 187.793 188.048 188.419 
188.586 189.225 189.528 190.345 190.506 191.057 184.717 185.304 186.016 
186.691 187.283 187.798 188.29 188.657 189.366 189.768 190.635 190.909 
191.476 191.462 191.668 184.338 184.839 185.426 186.016 186.629 187.22 
187.88 188.435 189.269 189.834 190.735 191.134 191.692 191.761 191.913 
191.834 191.916 183.994 184.435 185.02 185.51 186.177 186.706 187.461 
188.044 188.923 189.594 190.496 191.071 191.66 191.881 192.053 192.016 
192.087 192.067 192.275 182.827 181.853 182.646 183.225 180.678 181.61 
182.222 183.044 183.629 179.283 180.323 180.978 181.945 182.495 183.356 
183.911 177.807 178.835 179.469 180.572 181.158 182.113 182.561 183.496 
184.042 176.349 177.302 177.807 178.946 179.567 180.677 181.179 182.108 
182.55 183.548 184.104 174.934 175.811 176.201 177.244 177.817 179.003 
179.622 180.69 181.193 182.125 182.633 183.614 184.113 173.633 174.429 
174.818 175.714 176.245 177.305 177.944 179.077 179.678 180.727 181.262 
182.237 182.744 183.639 183.997 172.476 173.209 173.634 174.449 174.988 
175.887 176.479 177.477 178.06 179.129 179.695 180.78 181.322 182.312 
182.728 183.518 183.739 171.43 172.117 172.548 173.333 173.87 174.71 
175.248 176.117 176.613 177.559 178.083 179.15 179.729 180.816 181.32 
182.242 182.548 183.255 183.413 170.99 170.794 171.287 172.158 170.748 
171.195 172.107 172.577 173.505 170.8 171.215 172.108 172.553 173.458 
173.94 174.842 170.951 171.312 172.185 172.566 173.407 173.854 174.732 
175.239 176.14 171.24 171.515 172.379 172.689 173.515 173.852 174.731 
175.165 176.138 176.606 177.603 171.65 171.842 172.663 172.925 173.763 
174.043 174.948 175.298 176.339 176.744 177.835 178.225 179.284 172.149 
172.268 173.046 173.249 174.085 174.337 175.243 175.574 176.605 177.019 
178.113 178.524 179.566 179.936 180.885 172.712 172.784 173.545 173.688 
174.532 174.726 175.63 175.895 176.877 177.256 178.288 178.732 179.709 
180.133 180.996 181.378 182.119 173.305 173.357 174.099 174.216 175.053 
175.226 176.132 176.341 177.29 177.56 178.53 178.879 179.809 180.195 
181.018 181.394 182.094 182.437 183.025 173.877 175.085 174.527 174.697 
176.472 175.828 176.015 175.442 175.68 178.023 177.313 177.517 176.862 
177.143 176.535 176.813 179.649 178.943 179.182 178.465 178.769 178.101 
178.428 177.748 178.015 181.207 180.578 180.859 180.169 180.465 179.781 
180.112 179.426 179.709 178.978 179.222 182.621 182.082 182.388 181.794 
182.085 181.446 181.74 181.091 181.367 180.671 180.885 180.168 180.405 
183.893 183.426 183.739 183.24 183.549 182.988 183.268 182.659 182.915 
182.272 182.48 181.789 181.959 181.293 181.518 185.029 184.629 184.938 
184.515 184.837 184.371 184.665 184.123 184.373 183.774 183.987 183.336 
183.492 182.806 182.944 182.323 182.522 186.034 185.7 186.004 185.643 
185.954 185.571 185.871 185.43 185.684 185.169 185.386 184.804 184.977 
184.317 184.421 183.735 183.832 183.241 183.401 184.003 184.512 184.522 
185.098 185.177 185.17 185.822 185.74 186.329 185.76 185.855 186.582 
186.556 187.204 187.059 187.663 186.147 186.347 187.099 187.238 187.945 
187.935 188.592 188.464 189.142 186.411 186.656 187.393 187.636 188.368 
188.537 189.233 189.297 189.997 189.97 190.654 186.576 186.862 187.585 
187.871 188.598 188.852 189.541 189.753 190.419 190.6 191.208 191.29 
191.719 186.646 186.969 187.689 188.019 188.736 189.03 189.681 189.938 
190.547 190.817 191.38 191.591 191.961 192.008 192.121 186.666 186.997 
187.691 188.06 188.759 189.105 189.726 190.007 190.569 190.851 191.43 
191.69 192.16 192.221 192.421 192.274 192.278 186.65 186.978 187.609 
187.99 188.632 189.033 189.627 189.975 190.511 190.824 191.399 191.723 
192.305 192.483 192.859 192.737 192.857 192.545 192.563 163.101 163.805 
163.277 163.058 164.624 164.057 163.768 163.298 163.185 165.419 164.858 
164.551 164.028 163.821 163.447 163.497 166.314 165.674 165.417 164.855 
164.715 164.203 164.238 163.905 164.212 167.528 166.732 166.552 165.877 
165.875 165.275 165.41 164.884 165.182 164.844 165.336 168.985 168.135 
168.009 167.222 167.256 166.584 166.747 166.172 166.44 165.975 166.361 
166.06 166.58 170.383 169.632 169.537 168.765 168.753 168.031 168.103 
167.491 167.673 167.196 167.493 167.123 167.524 167.282 167.804 171.598 
170.961 170.893 170.22 170.193 169.498 169.518 168.845 168.969 168.409 
168.684 168.246 168.622 168.27 168.719 168.495 169.037 172.705 172.127 
172.082 171.485 171.48 170.861 170.911 170.264 170.401 169.779 170.053 
169.519 169.905 169.446 169.874 169.499 169.971 169.733 170.259 162.745 
162.717 162.58 162.504 162.972 162.744 162.733 162.63 162.925 163.412 
163.15 163.275 163.087 163.422 163.364 163.925 164.16 163.767 163.975 
163.745 164.116 163.982 164.479 164.48 165.104 165.267 164.722 164.93 
164.575 164.951 164.722 165.176 165.067 165.62 165.655 166.298 166.533 
165.945 166.13 165.659 166.006 165.653 166.093 165.845 166.382 166.266 
166.896 166.893 167.549 167.812 167.243 167.443 166.917 167.216 166.774 
167.167 166.839 167.345 167.136 167.734 167.61 168.225 168.166 168.767 
169.079 168.545 168.788 168.254 168.532 168.018 168.342 167.932 168.364 
168.105 168.634 168.472 169.018 168.894 169.433 169.364 169.94 170.289 
169.806 170.066 169.582 169.859 169.343 169.627 169.14 169.504 169.138 
169.604 169.359 169.866 169.686 170.199 170.069 170.621 170.561 171.176 
162.89 162.673 162.893 163.463 163.072 162.945 163.524 163.821 164.744 
164.046 163.632 164.104 164.122 165.05 165.374 166.405 165.244 164.741 
165.078 164.856 165.602 165.778 166.764 167.066 168.008 166.454 165.951 
166.23 165.86 166.388 166.353 167.178 167.412 168.332 168.624 169.583 
167.672 167.172 167.454 167.015 167.451 167.194 167.886 167.905 168.818 
169.01 170.04 170.32 171.427 168.87 168.392 168.686 168.248 168.691 
168.333 168.995 168.805 169.719 169.713 170.807 170.941 172.105 172.31 
173.38 170.078 169.604 169.946 169.506 169.991 169.615 170.3 170.038 
170.944 170.816 171.879 171.875 172.988 173.083 174.108 174.2 174.999 
171.352 170.875 171.29 170.834 171.373 170.97 171.674 171.379 172.263 
172.09 173.071 172.988 173.958 173.961 174.852 174.905 175.643 175.645 
176.195 182.401 181.405 181.733 181.366 180.31 180.656 180.194 180.577 
180.132 179.075 179.466 178.947 179.329 178.802 179.222 178.728 177.731 
178.135 177.587 178.007 177.461 177.874 177.364 177.798 177.325 176.46 
176.784 176.204 176.604 176.069 176.507 176.009 176.454 175.992 176.429 
175.957 175.305 175.561 174.94 175.26 174.709 175.119 174.62 175.074 
174.594 175.069 174.598 175.049 174.564 174.135 174.389 173.711 174.005 
173.388 173.772 173.235 173.674 173.164 173.631 173.153 173.646 173.199 
173.666 173.241 172.963 173.186 172.473 172.743 172.081 172.431 171.852 
172.273 171.744 172.196 171.72 172.21 171.812 172.308 171.943 172.409 
172.069 171.923 172.062 171.375 171.563 170.939 171.187 170.626 170.942 
170.426 170.808 170.352 170.812 170.451 170.961 170.653 171.139 170.83 
171.294 171.014 
POINT_DATA 1002
SCALARS Distance double
LOOKUP_TABLE default
174.373 173.263 173.242 174.465 173.255 175.67 174.608 173.342 175.913 
177.144 174.833 173.59 176.178 177.488 178.732 175.203 174.023 176.477 
177.791 179.08 180.315 175.683 174.556 176.879 178.144 179.43 180.67 
181.792 176.218 175.136 177.364 178.602 179.894 181.111 182.192 183.135 
176.791 175.739 177.905 179.081 180.345 181.566 182.621 183.534 184.339 
177.334 176.308 178.454 179.567 180.716 181.888 182.944 183.866 184.694 
185.409 177.793 176.818 178.923 180.041 181.101 182.172 183.198 184.119 
184.968 185.72 186.344 172.198 172.121 171.071 170.961 169.795 172.086 
169.684 168.347 170.919 172.143 168.322 166.996 169.687 170.952 172.392 
167.102 165.99 168.425 169.744 171.178 172.862 166.082 165.195 167.234 
168.567 170.021 171.696 173.482 165.142 164.372 166.137 167.447 168.964 
170.627 172.43 174.184 164.3 163.554 165.23 166.464 167.991 169.657 
171.45 173.278 174.911 163.709 162.964 164.653 165.799 167.217 168.817 
170.548 172.411 174.163 175.601 163.221 164.207 164.196 165.341 165.746 
165.343 166.866 167.387 166.544 166.658 168.537 168.909 168.155 167.99 
168.217 170.378 170.605 170.119 169.809 169.67 169.939 172.322 172.557 
172.129 171.809 171.46 171.447 171.848 174.022 174.333 173.736 173.4 
173.051 173.001 173.336 173.779 175.304 175.652 174.921 174.529 174.196 
174.185 174.589 175.064 175.368 176.347 176.664 175.992 175.632 175.296 
175.19 175.522 176.054 176.418 176.615 177.909 177.717 179.183 177.477 
179.003 180.558 177.035 178.678 180.364 181.807 176.56 178.177 179.934 
181.598 182.941 176.467 177.871 179.4 181.157 182.82 184.136 176.725 
178.024 179.204 180.654 182.505 184.109 185.204 177.006 178.312 179.421 
180.465 182.092 183.919 185.177 185.922 177.245 178.464 179.675 180.646 
181.897 183.612 185.087 185.941 186.464 177.505 178.582 179.797 180.897 
182.004 183.41 184.873 185.94 186.577 187.019 179.049 180.438 180.279 
181.778 181.66 181.423 182.961 182.938 182.809 182.514 184.176 184.17 
184.11 183.925 183.573 185.371 185.452 185.354 185.186 184.937 184.535 
186.188 186.501 186.535 186.323 186.128 185.851 185.418 186.677 187.101 
187.425 187.38 187.184 186.993 186.667 186.207 187.149 187.495 187.952 
188.189 188.122 187.943 187.694 187.321 186.854 187.666 187.878 188.403 
188.747 189.343 188.288 189.828 190.562 189.193 188.722 191.032 191.689 
190.237 189.537 188.892 192.029 192.401 191.333 190.456 189.601 188.784 
192.806 192.946 192.332 191.474 190.423 189.423 188.542 193.404 193.31 
193.137 192.373 191.279 190.148 189.126 188.212 193.449 193.13 193.461 
192.879 191.845 190.768 189.75 188.746 187.785 192.917 192.558 193.15 
192.872 192.023 191.052 190.187 189.256 188.24 187.258 187.329 187.984 
187.485 188.118 187.4 188.724 188.085 187.301 188.928 189.79 188.105 
187.363 189.053 190.133 191.096 188.16 187.413 189.105 190.24 191.317 
192.023 188.069 187.272 188.984 190.036 191.088 191.934 192.504 187.78 
186.942 188.659 189.608 190.554 191.459 192.275 192.901 187.321 186.473 
188.156 189.037 189.921 190.785 191.697 192.508 192.977 186.754 185.918 
187.545 188.364 189.241 190.083 190.916 191.762 192.361 192.566 177.472 
178.504 178.424 179.648 179.514 179.705 180.842 180.628 180.93 180.956 
181.973 181.691 182.174 182.257 182.192 183.079 182.764 183.381 183.582 
183.613 183.499 184.179 183.799 184.542 184.795 184.864 184.83 184.827 
185.14 184.667 185.555 185.828 185.867 185.805 185.859 185.963 185.893 
185.359 186.339 186.638 186.704 186.604 186.611 186.764 186.781 176.271 
177.046 175.645 176.465 174.859 177.977 175.867 174.047 177.476 179.089 
175.264 173.218 177.052 178.67 180.251 174.554 172.469 176.572 178.303 
179.893 181.399 173.901 171.989 175.942 177.815 179.513 181.101 182.53 
173.464 171.774 175.333 177.19 178.998 180.711 182.212 183.508 173.208 
171.725 174.848 176.553 178.375 180.208 181.786 183.094 184.282 173.109 