# vtk DataFile Version 4.0
vtk output
ASCII
DATASET POLYDATA
POINTS 1002 float
-121.017 -112.235 53.5644 -120.988 -111.165 52.6892 -120.559 -111.287 53.0994 
-120.542 -112.536 54.0176 -119.962 -111.63 53.5116 -120.986 -113.682 54.4951 
-119.936 -113.064 54.4808 -119.262 -112.149 53.9739 -120.452 -114.159 54.9867 
-120.953 -115.469 55.4048 -119.29 -113.735 55.0036 -118.604 -112.788 54.4929 
-119.924 -114.751 55.5444 -120.473 -115.962 56.0512 -121.002 -117.198 56.5157 
-118.677 -114.487 55.579 -117.992 -113.574 55.0204 -119.372 -115.461 56.1444 
-120.013 -116.537 56.7589 -120.547 -117.707 57.34 -121.012 -118.743 57.9239 
-118.072 -115.282 56.2168 -117.415 -114.41 55.6442 -118.739 -116.246 56.8034 
-119.377 -117.299 57.4303 -119.874 -118.406 58.0974 -120.327 -119.447 58.741 
-120.773 -120.345 59.3973 -117.517 -116.061 56.9786 -116.956 -115.186 56.4339 
-118.11 -117.02 57.6003 -118.687 -118.084 58.2257 -119.077 -119.236 58.8373 
-119.419 -120.301 59.4739 -119.917 -121.227 60.122 -120.432 -122.019 60.7753 
-117.053 -116.879 57.7878 -116.569 -116.016 57.2335 -117.577 -117.827 58.4696 
-118.139 -118.81 59.2032 -118.525 -119.942 59.8048 -118.737 -121.122 60.3277 
-119.113 -122.123 60.8886 -119.676 -122.935 61.4798 -120.193 -123.561 62.0655 
-116.579 -117.762 58.5266 -116.125 -116.947 57.9366 -117.06 -118.708 59.2535 
-117.607 -119.613 60.1181 -118.075 -120.577 60.8533 -118.313 -121.778 61.3464 
-118.536 -122.938 61.784 -118.964 -123.807 62.2675 -119.48 -124.434 62.7782 
-119.947 -124.879 63.2757 -116.069 -118.583 59.2269 -115.653 -117.832 58.6197 
-116.507 -119.512 59.9507 -116.985 -120.447 60.8402 -117.45 -121.305 61.6857 
-117.754 -122.369 62.2594 -117.942 -123.594 62.6694 -118.236 -124.556 63.0937 
-118.673 -125.182 63.5427 -119.141 -125.638 63.9862 -119.592 -125.985 64.3846 
-120.601 -110.147 52.2179 -120.011 -110.325 52.5547 -119.952 -108.978 51.803 
-119.222 -109.271 52.035 -119.14 -107.762 51.2771 -119.29 -110.675 52.9327 
-118.44 -108.151 51.5161 -118.381 -106.621 50.6901 -118.514 -109.676 52.3807 
-118.573 -111.155 53.4035 -117.741 -106.976 51.1254 -117.679 -105.527 50.3528 
-117.777 -108.67 51.9229 -117.786 -110.239 52.8287 -117.87 -111.853 53.8927 
-116.972 -105.798 50.8965 -116.979 -104.526 50.209 -116.98 -107.554 51.6073 
-116.908 -109.413 52.3511 -116.932 -111.107 53.2594 -117.168 -112.786 54.4081 
-116.231 -104.857 50.6803 -116.334 -103.682 50.0709 -116.163 -106.416 51.339 
-116.09 -108.403 52.0278 -116.033 -110.364 52.7935 -116.229 -112.09 53.8417 
-116.635 -113.681 55.1499 -115.636 -104.157 50.6362 -115.738 -102.857 50.1724 
-115.505 -105.598 51.2134 -115.47 -107.36 51.9008 -115.467 -109.348 52.6415 
-115.538 -111.226 53.5265 -115.865 -112.923 54.7165 -116.293 -114.509 56.0414 
-115.109 -103.517 50.9571 -115.201 -102.113 50.6421 -114.96 -105.073 51.4459 
-114.912 -106.671 52.086 -114.993 -108.374 52.8098 -115.066 -110.158 53.5521 
-115.239 -111.976 54.4483 -115.596 -113.794 55.6039 -115.937 -115.476 56.831 
-114.651 -103.032 51.4957 -114.807 -101.737 51.2783 -114.503 -104.637 51.9284 
-114.429 -106.234 52.5043 -114.48 -107.726 53.155 -114.561 -109.24 53.8036 
-114.68 -110.93 54.4537 -114.948 -112.867 55.2825 -115.276 -114.837 56.3699 
-115.509 -116.513 57.5397 -114.367 -102.445 52.0944 -114.194 -103.897 52.4307 
-113.976 -103.397 53.2367 -114.036 -104.878 53.6323 -113.874 -104.398 54.688 
-114.164 -105.549 52.947 -114.246 -105.83 55.0089 -114.058 -105.633 56.0678 
-114.27 -106.369 54.0854 -114.213 -107.076 53.5189 -114.407 -107.046 56.3845 
-114.263 -107.256 57.2099 -114.568 -107.217 55.3702 -114.37 -107.833 54.5625 
-114.235 -108.535 54.1179 -114.496 -108.705 57.6522 -114.647 -108.94 58.2772 
-114.635 -108.62 56.8084 -114.648 -108.978 55.8504 -114.342 -109.534 55.1577 
-114.286 -110.15 54.7293 -115.12 -110.567 58.6367 -115.508 -110.572 59.112 
-114.915 -110.605 58.0502 -114.937 -110.871 57.2706 -114.792 -111.15 56.4905 
-114.486 -111.473 55.8461 -114.516 -112.101 55.4068 -116.105 -112.445 59.3073 
-116.482 -112.342 59.605 -115.716 -112.634 58.9046 -115.467 -112.992 58.3787 
-115.312 -113.185 57.8271 -115.011 -113.224 57.2464 -114.721 -113.629 56.6623 
-114.816 -114.323 56.3391 -116.664 -114.216 59.9977 -117.023 -114.118 60.1362 
-116.299 -114.376 59.7584 -115.926 -114.722 59.3875 -115.582 -114.983 59.0099 
-115.261 -114.998 58.6559 -114.932 -115.245 58.1943 -114.782 -115.865 57.7343 
-115.01 -116.362 57.5227 -116.659 -115.761 60.9156 -117.084 -115.661 60.9737 
-116.264 -115.868 60.8322 -115.877 -116.112 60.6466 -115.429 -116.388 60.3765 
-115.009 -116.528 60.0919 -114.747 -116.768 59.7534 -114.655 -117.293 59.3294 
-114.778 -117.76 58.9507 -115.147 -117.896 58.7258 -115.48 -119.085 59.8075 
-115.016 -119.221 60.1 -115.388 -120.436 61.2295 -114.623 -119.215 60.4772 
-114.933 -120.713 61.6292 -115.202 -122.006 62.7719 -114.308 -118.853 60.9173 
-114.341 -120.85 62.0343 -114.55 -122.387 63.1155 -114.57 -123.634 64.2283 
-114.202 -118.34 61.3632 -113.732 -120.519 62.4823 -113.667 -122.44 63.3891 
-113.647 -123.88 64.3777 -113.663 -124.992 65.5066 -114.518 -118.024 61.7265 
-113.636 -120.014 62.9488 -113.085 -121.992 63.7477 -112.817 -123.63 64.4965 
-112.827 -125.015 65.5884 -113.133 -126.127 66.8737 -115.105 -117.803 61.9341 
-114.236 -119.753 63.2203 -113.424 -121.624 64.1255 -112.733 -123.119 64.8478 
-112.42 -124.568 65.8805 -112.578 -126.059 67.2625 -112.943 -127.222 68.6076 
-115.628 -117.528 61.9923 -114.977 -119.527 63.2103 -114.319 -121.529 64.2744 
-113.466 -122.947 65.2758 -112.694 -124.084 66.4752 -112.378 -125.542 67.9329 
-112.396 -127.053 69.3472 -112.483 -128.13 70.4331 -116.091 -117.311 61.9914 
-115.521 -119.167 63.1218 -115.011 -121.234 64.2462 -114.276 -122.877 65.5208 
-113.354 -123.93 66.9799 -112.64 -125.058 68.5377 -112.223 -126.505 70.0138 
-111.942 -127.812 71.1534 -111.76 -128.699 71.9203 -116.596 -117.17 62.0152 
-116.015 -118.841 63.1213 -115.456 -120.723 64.2461 -114.768 -122.459 65.6103 
-113.93 -123.733 67.184 -113.179 -124.823 68.7257 -112.584 -126.069 70.1913 
-112.048 -127.319 71.4883 -111.585 -128.299 72.4433 -111.285 -128.993 73.0908 
-115.886 -119.957 60.5235 -115.719 -121.456 62.0677 -116.29 -121.014 61.3864 
-115.351 -123.118 63.693 -115.988 -122.628 62.9577 -116.684 -122.025 62.2932 
-114.606 -124.68 65.2056 -115.472 -124.305 64.507 -116.216 -123.774 63.6917 
-116.99 -123.052 62.9847 -113.88 -125.929 66.6394 -114.765 -125.72 66.0449 
-115.619 -125.472 65.1289 -116.381 -124.946 64.2457 -117.184 -124.266 63.4748 
-113.553 -127.069 68.2365 -114.212 -126.816 67.6907 -114.988 -126.719 66.8139 
-115.826 -126.476 65.8048 -116.629 -125.938 64.8674 -117.455 -125.285 63.9776 
-113.181 -128.165 69.9885 -113.868 -127.898 69.422 -114.499 -127.686 68.6244 
-115.339 -127.491 67.6546 -116.298 -127.051 66.6296 -117.122 -126.482 65.5549 
-117.9 -125.889 64.4946 -112.369 -128.97 71.5785 -113.273 -128.921 71.0597 
-114.085 -128.698 70.2907 -114.887 -128.424 69.3521 -115.955 -127.972 68.3832 
-116.974 -127.39 67.2958 -117.703 -126.874 66.0778 -118.4 -126.339 64.9372 
-111.518 -129.404 72.8781 -112.353 -129.612 72.4838 -113.463 -129.57 71.7673 
-114.445 -129.342 70.7592 -115.462 -128.938 69.7448 -116.626 -128.375 68.7562 
-117.553 -127.83 67.5989 -118.205 -127.347 66.3668 -118.881 -126.753 65.2836 
-111.147 -129.435 74.1932 -111.389 -129.885 73.9025 -111.363 -129.801 75.3414 
-111.761 -130.239 74.7767 -112.066 -130.038 76.0094 -112.435 -130.102 73.3173 
-112.855 -130.413 75.0259 -113.382 -130.138 75.8039 -113.099 -130.377 73.7905 
-113.813 -130.036 72.2474 -114.593 -130.569 74.6911 -115.239 -130.232 75.2821 
-114.43 -130.544 73.7293 -114.635 -130.256 72.3661 -114.987 -129.745 70.9638 
-116.436 -130.8 74.4382 -117.157 -130.341 75.0843 -116.022 -130.895 73.4985 
-115.843 -130.519 72.2808 -115.817 -129.97 70.9636 -116.14 -129.285 69.8335 
-117.932 -130.816 74.2278 -118.69 -130.312 74.7576 -117.349 -131.159 73.3168 
-117.072 -130.947 72.1744 -116.891 -130.265 70.8844 -116.944 -129.554 69.7009 
-117.291 -128.757 68.6911 -119.222 -130.527 73.4761 -119.871 -130.115 73.8241 
-118.544 -130.883 72.7516 -118.203 -130.982 71.7917 -118.062 -130.521 70.6195 
-117.941 -129.787 69.389 -117.998 -129.077 68.357 -118.146 -128.25 67.4174 
-120.53 -130.204 72.3858 -120.938 -129.823 72.6909 -119.959 -130.38 71.7788 
-119.536 -130.485 70.9848 -119.321 -130.356 70.0242 -119.083 -129.87 68.9154 
-118.879 -129.239 67.9039 -118.839 -128.514 67.0813 -118.861 -127.644 66.2374 
-121.756 -129.883 71.5141 -121.967 -129.426 71.8284 -121.398 -130.022 70.9253 
-121.025 -130.004 70.1536 -120.71 -129.938 69.301 -120.325 -129.696 68.379 
-119.915 -129.225 67.4766 -119.697 -128.569 66.725 -119.648 -127.738 66.0353 
-119.623 -126.834 65.2502 -111.496 -128.751 73.9029 -111.628 -129.077 75.3604 
-112.123 -128.351 74.7952 -112.348 -128.444 76.6379 -112.628 -127.797 75.4024 
-112.061 -129.319 76.6654 -112.762 -127.725 77.1519 -113.153 -127.342 74.9887 
-112.804 -128.545 77.785 -112.846 -129.477 76.9885 -113.483 -127.379 76.0262 
-114.354 -127.157 73.5411 -113.338 -127.87 77.6457 -113.645 -128.703 77.4372 
-114.211 -129.554 76.2746 -115.025 -127.261 74.0153 -115.888 -126.778 72.1043 
-114.436 -127.616 75.9566 -114.528 -128.102 76.749 -115.158 -128.836 76.2628 
-116.156 -129.653 75.5943 -116.522 -126.699 72.4912 -117.015 -125.926 71.1289 
-116.033 -127.287 74.0049 -115.913 -127.688 75.2424 -116.308 -128.199 75.6156 
-117.143 -128.986 75.4805 -118.078 -129.77 75.2953 -117.544 -125.817 71.3521 
-117.895 -125.03 70.1133 -117.301 -126.544 72.5545 -117.33 -127.073 73.7574 
-117.621 -127.543 74.6198 -118.14 -128.26 74.9133 -118.834 -129.083 74.9229 
-119.46 -129.722 74.6243 -118.522 -125.043 70.08 -118.812 -124.278 68.9572 
-118.341 -125.769 71.1709 -118.426 -126.329 72.3213 -118.72 -126.788 73.423 
-119.077 -127.434 74.0382 -119.476 -128.223 74.1339 -119.952 -128.895 73.9515 
-120.46 -129.43 73.4656 -119.474 -124.232 68.9172 -119.606 -123.449 68.0058 
-119.392 -125.008 69.8239 -119.439 -125.622 70.8251 -119.612 -126.056 71.9526 
[...]
CELL_DATA 2000
SCALARS Distance double
LOOKUP_TABLE default
171.84 171.787 172.168 172.928 171.785 172.169 172.984 173.362 174.239 
171.878 172.243 173.126 173.483 174.404 174.781 175.733 172.094 172.423 
173.358 173.697 174.662 175.012 175.994 176.337 177.271 172.407 172.703 
173.65 173.976 174.952 175.299 176.272 176.616 177.544 177.855 178.713 
172.808 173.057 174.002 174.299 175.274 175.602 176.561 176.884 177.784 
178.099 178.958 179.261 180.081 173.312 173.506 174.454 174.7 175.694 
175.971 176.957 177.22 178.141 178.382 179.264 179.525 180.395 180.649 
181.451 173.856 174.03 174.962 175.192 176.183 176.439 177.429 177.67 
178.613 178.822 179.72 179.921 180.794 181.007 181.822 182.011 182.712 
174.361 174.539 175.422 175.671 176.622 176.905 177.848 178.117 179.011 
179.267 180.125 180.369 181.179 181.403 182.142 182.347 182.997 183.173 
183.733 171.156 169.965 170.734 171.036 168.553 169.435 169.76 170.592 
170.958 167.092 167.992 168.368 169.254 169.65 170.523 170.985 165.724 
166.58 167.002 167.89 168.322 169.196 169.676 170.592 171.155 164.444 
165.238 165.634 166.542 166.997 167.889 168.36 169.272 169.851 170.818 
171.46 163.31 163.994 164.32 165.166 165.635 166.558 167.07 167.98 
168.563 169.522 170.219 171.19 171.887 162.367 162.959 163.288 163.965 
164.449 165.273 165.88 166.754 167.399 168.299 169.025 169.986 170.769 
171.699 172.426 161.6 162.134 162.553 163.115 163.634 164.29 164.937 
165.702 166.39 167.213 167.927 168.84 169.64 170.608 171.418 172.306 
173.017 161.106 161.518 162.023 162.524 163.107 163.655 164.295 164.919 
165.577 166.282 166.944 167.766 168.52 169.482 170.33 171.299 172.095 
172.926 173.587 161.132 161.672 161.567 162.045 162.555 162.277 162.747 
162.622 163.183 163.767 163.33 163.776 163.472 163.972 163.809 164.373 
165.202 164.645 165.022 164.591 165 164.686 165.149 164.999 165.578 
166.818 166.14 166.473 165.912 166.323 165.843 166.269 165.889 166.392 
166.231 166.891 168.69 167.89 168.284 167.545 168.07 167.409 167.959 
167.298 167.805 167.279 167.908 167.681 168.488 170.7 169.897 170.368 
169.556 170.133 169.387 170.015 169.248 169.778 168.996 169.544 168.983 
169.74 169.472 170.353 172.521 171.855 172.275 171.592 172.059 171.412 
171.911 171.258 171.686 170.972 171.384 170.737 171.327 170.89 171.658 
171.388 172.162 173.982 173.459 173.754 173.236 173.553 173.06 173.382 
172.879 173.157 172.615 172.912 172.394 172.848 172.426 173.04 172.707 
173.353 173.078 173.671 174.495 174.286 174.834 175.743 174.067 174.667 
175.673 176.2 177.179 173.829 174.434 175.48 176.118 177.127 177.66 
178.551 173.736 174.199 175.14 175.815 176.781 177.455 178.275 178.838 
179.532 173.912 174.195 175.013 175.495 176.365 176.975 177.731 178.357 
179.035 179.647 180.358 174.178 174.432 175.258 175.557 176.42 176.745 
177.489 177.864 178.573 179.118 179.964 180.593 181.497 174.36 174.663 
175.528 175.87 176.816 177.067 177.875 177.971 178.665 178.891 179.752 
180.28 181.278 181.866 182.723 174.541 174.83 175.668 176.064 177.028 
177.439 178.323 178.508 179.18 179.241 179.954 180.24 181.142 181.653 
182.496 182.978 183.559 174.776 175.039 175.839 176.178 177.069 177.523 
178.401 178.791 179.485 179.69 180.301 180.504 181.239 181.591 182.366 
182.761 183.359 183.676 184.069 174.908 176.147 175.651 175.987 177.567 
176.992 177.336 176.827 177.213 178.956 178.454 178.785 178.242 178.605 
178.085 178.437 180.016 179.727 180.105 179.665 179.999 179.482 179.796 
179.272 179.577 180.916 180.688 181.151 180.856 181.242 180.824 181.133 
180.622 180.916 180.395 180.687 182.052 181.705 182.187 181.861 182.294 
181.97 182.337 181.918 182.207 181.716 181.991 181.483 181.731 183.221 
182.919 183.367 182.982 183.368 183.006 183.391 183.046 183.374 182.955 
183.2 182.727 182.943 182.454 182.642 183.968 183.885 184.309 184.093 
184.439 184.099 184.421 184.075 184.413 184.057 184.332 183.895 184.084 
183.605 183.771 183.296 183.446 184.369 184.384 184.789 184.796 185.18 
185.04 185.338 185.059 185.329 185.029 185.305 184.963 185.169 184.728 
184.867 184.389 184.518 184.05 184.161 184.715 185.437 185.05 185.107 
186.275 185.824 185.839 185.51 185.576 187.11 186.672 186.661 186.28 
186.314 185.938 185.841 188.035 187.563 187.593 187.129 187.104 186.67 
186.544 186.089 185.857 189.146 188.625 188.702 188.144 188.074 187.498 
187.295 186.774 186.539 186.076 185.824 190.085 189.692 189.688 189.221 
189.094 188.506 188.207 187.571 187.252 186.741 186.485 186.032 185.719 
190.534 190.344 190.186 189.923 189.706 189.344 189.005 188.455 188.022 
187.454 187.1 186.643 186.317 185.846 185.435 190.688 190.589 190.408 
190.195 189.936 189.71 189.411 189.067 188.64 188.144 187.689 187.213 
186.831 186.392 185.992 185.506 185.067 190.797 190.74 190.661 190.428 
190.209 189.931 189.683 189.389 189.057 188.652 188.211 187.744 187.314 
186.877 186.475 186.029 185.597 185.121 184.683 184.694 185.109 185.084 
185.492 185.489 185.577 186.04 185.98 186.377 185.481 185.794 186.327 
186.484 186.868 186.821 187.156 185.349 185.643 186.163 186.533 186.972 
187.15 187.456 187.511 187.936 185.421 185.583 186.027 186.313 186.787 
187.076 187.475 187.677 188.154 188.358 188.979 185.364 185.627 186.021 
186.257 186.699 186.944 187.412 187.655 188.22 188.516 189.198 189.456 
190.016 185.005 185.396 185.779 186.139 186.556 186.88 187.347 187.636 
188.181 188.523 189.152 189.531 190.064 190.291 190.549 184.614 184.992 
185.386 185.781 186.205 186.62 187.084 187.488 187.971 188.376 188.852 
189.288 189.683 190.081 190.31 190.552 190.636 184.241 184.622 185.017 
185.403 185.821 186.228 186.661 187.102 187.53 187.995 188.371 188.824 
189.094 189.518 189.691 190.085 190.218 190.526 190.636 175.161 176.141 
175.857 176.272 177.184 176.905 177.375 177.026 177.484 178.292 178.002 
178.499 178.152 178.575 178.257 178.721 179.441 179.14 179.614 179.265 
179.638 179.296 179.675 179.417 179.794 180.493 180.24 180.688 180.364 
180.751 180.374 180.757 180.4 180.795 180.446 180.748 181.421 181.207 
181.683 181.418 181.895 181.552 182.031 181.613 182.07 181.609 181.99 
181.478 181.765 182.326 182.117 182.63 182.411 182.966 182.715 183.246 
182.905 183.348 182.931 183.29 182.809 183.084 182.551 182.8 183.154 
182.997 183.491 183.334 183.877 183.729 184.215 183.985 184.308 184.013 
184.269 183.962 184.193 183.794 183.955 183.494 183.659 183.797 183.726 
184.162 184.083 184.549 184.499 184.923 184.788 185.022 184.774 184.938 
184.729 184.979 184.749 184.946 184.551 184.626 184.195 184.288 174.587 
173.813 174.677 175.535 172.837 173.859 174.842 175.654 176.538 171.86 
172.947 174.109 174.983 175.96 176.704 177.64 170.975 172.066 173.407 
174.363 175.479 176.203 177.194 177.888 178.841 170.261 171.241 172.628 
173.704 174.974 175.793 176.813 177.49 178.45 179.107 179.96 169.856 
170.614 171.896 172.931 174.267 175.235 176.321 177.081 178 178.692 
179.565 180.177 180.924 169.74 170.302 171.44 172.277 173.536 174.491 
175.633 176.495 177.455 178.2 179.09 179.763 180.595 181.144 181.852 
169.798 170.23 171.244 171.891 173.005 173.813 174.903 175.767 176.792 
177.617 178.58 179.308 180.197 180.812 181.587 182.079 182.71 169.985 
170.311 171.221 171.722 172.712 173.348 174.327 175.074 176.069 176.922 
177.952 178.785 179.734 180.418 181.203 181.759 182.399 182.86 183.374 
170.4 171.42 171.116 171.612 172.522 172.208 172.733 172.441 173.041 
173.71 173.383 173.945 173.609 174.169 173.893 174.543 174.986 174.644 
175.239 174.867 175.408 175.046 175.655 175.429 176.207 176.278 175.951 
176.565 176.194 176.763 176.349 176.977 176.644 177.458 177.247 178.14 
177.542 177.229 177.858 177.521 178.153 177.765 178.466 178.092 178.927 
178.626 179.503 179.228 179.989 178.814 178.493 179.132 178.81 179.482 
179.161 179.914 179.607 180.413 180.107 180.853 180.55 181.177 180.89 
181.42 180.054 179.762 180.405 180.097 180.767 180.474 181.206 180.967 
181.71 181.463 182.069 181.765 182.226 181.941 182.37 182.136 182.56 
181.165 180.947 181.597 181.347 182.011 181.74 182.415 182.174 182.83 
182.605 183.133 182.844 183.225 182.91 183.27 183.015 183.407 183.186 
183.54 181.964 183.435 182.604 182.456 185.006 184.137 183.968 183.117 
182.922 186.419 185.636 185.43 184.63 184.424 183.568 183.332 187.591 
186.898 186.658 185.972 185.751 185.004 184.738 183.923 183.663 188.634 
187.986 187.715 187.079 186.828 186.185 185.891 185.191 184.861 184.146 
183.843 189.449 188.931 188.625 188.057 187.754 187.16 186.831 186.203 
185.858 185.215 184.877 184.219 183.889 189.931 189.56 189.225 188.809 
188.49 188.003 187.66 187.081 186.741 186.145 185.852 185.227 184.927 
184.247 183.942 190.27 189.941 189.616 189.271 188.993 188.628 188.351 
187.869 187.546 186.996 186.703 186.155 185.881 185.278 184.974 184.318 
184.038 190.583 190.301 190.045 189.689 189.467 189.117 188.917 188.517 
188.241 187.752 187.418 186.919 186.589 186.099 185.763 185.241 184.913 
184.366 184.089 181.923 182.345 182.56 183.431 182.803 183.078 184.084 
184.222 185.094 183.142 183.552 184.669 184.925 185.877 185.908 186.603 
183.219 183.772 184.873 185.359 186.347 186.609 187.352 187.316 187.825 
183.091 183.695 184.699 185.324 186.281 186.818 187.644 187.916 188.524 
188.469 188.883 182.904 183.482 184.434 185.047 185.986 186.596 187.478 
187.988 188.722 188.985 189.488 189.441 189.711 182.727 183.269 184.194 
184.78 185.723 186.317 187.194 187.745 188.471 188.937 189.489 189.777 
190.114 190.096 190.205 182.552 183.077 183.948 184.522 185.412 186.027 
186.845 187.418 188.035 188.537 189.003 189.489 189.895 190.233 190.484 
190.475 190.529 182.337 182.871 183.69 184.242 185.032 185.629 186.347 
186.948 187.493 188.007 188.394 188.889 189.297 189.817 190.221 190.55 
190.758 190.745 190.769 181.105 179.937 180.818 181.421 178.623 179.565 
180.106 181.081 181.73 177.185 178.163 178.669 179.669 180.235 181.321 
181.983 175.755 176.696 177.199 178.195 178.743 179.783 180.389 181.504 
182.109 174.376 175.262 175.728 176.725 177.3 178.323 178.912 179.938 
180.513 181.57 182.075 173.008 173.844 174.196 175.194 175.731 176.841 
177.441 178.489 179.019 180.017 180.508 181.51 181.947 171.738 172.479 
172.753 173.634 174.08 175.178 175.776 176.929 177.483 178.525 178.996 
179.981 180.439 181.402 181.817 170.658 171.305 171.616 172.324 172.747 
173.622 174.195 175.251 175.87 176.95 177.497 178.501 178.986 179.938 
180.382 181.297 181.682 169.725 170.33 170.707 171.347 171.809 172.502 
173.036 173.854 174.453 175.413 176.031 177.036 177.597 178.543 179.007 
179.894 180.279 181.152 181.488 169.335 169.161 169.616 170.384 169.105 
169.525 170.374 170.778 171.564 169.153 169.521 170.358 170.79 171.633 
172.002 172.782 169.286 169.605 170.39 170.775 171.606 172.031 172.867 
173.249 174.102 169.563 169.824 170.677 170.925 171.767 172.063 172.954 
173.333 174.287 174.674 175.643 170.04 170.242 171.22 171.395 172.309 
172.434 173.335 173.559 174.566 174.914 175.95 176.292 177.242 170.611 
170.788 171.746 171.977 172.897 173.056 173.898 174.054 174.961 175.249 
176.231 176.584 177.501 177.817 178.636 171.141 171.298 172.122 172.393 
173.238 173.512 174.297 174.524 175.31 175.591 176.441 176.793 177.626 
177.981 178.759 179.098 179.853 171.625 171.742 172.466 172.689 173.487 
173.766 174.563 174.819 175.594 175.856 176.652 176.956 177.745 178.064 
178.827 179.167 179.94 180.288 181.049 172.118 173.222 172.74 172.971 
174.57 173.988 174.249 173.714 174.008 176.059 175.439 175.731 175.123 
175.405 174.825 175.101 177.546 176.938 177.205 176.617 176.895 176.29 
176.53 175.921 176.158 178.986 178.404 178.646 178.056 178.327 177.754 
178.027 177.408 177.635 176.994 177.226 180.38 179.832 180.119 179.516 
179.808 179.21 179.539 178.929 179.216 178.542 178.754 178.08 178.295 
181.721 181.218 181.544 180.992 181.325 180.745 181.106 180.499 180.837 
180.165 180.412 179.677 179.863 179.156 179.369 182.951 182.52 182.845 
182.372 182.716 182.221 182.584 182.049 182.378 181.773 182.04 181.352 
181.567 180.814 181.016 180.278 180.509 183.981 183.66 183.989 183.605 
183.946 183.531 183.875 183.423 183.714 183.203 183.433 182.876 183.098 
182.478 182.692 181.984 182.18 181.444 181.636 182.45 183.042 183.118 
183.824 183.52 183.673 184.381 184.456 185.112 183.838 184.045 184.714 
184.897 185.532 185.672 186.31 184.129 184.312 184.953 185.148 185.786 
185.987 186.615 186.799 187.38 184.445 184.63 185.304 185.443 186.132 
186.28 186.97 187.105 187.709 187.801 188.302 184.647 184.927 185.652 
185.843 186.562 186.711 187.456 187.567 188.245 188.252 188.803 188.761 
189.261 184.695 185.052 185.773 186.094 186.774 187.051 187.733 187.988 
188.646 188.793 189.341 189.344 189.818 189.778 190.217 184.666 185.031 
185.689 186.074 186.676 187.056 187.621 188.021 188.572 188.942 189.405 
189.657 190.023 190.18 190.497 190.575 190.786 184.582 184.938 185.515 
185.901 186.429 186.819 187.302 187.725 188.204 188.65 189.062 189.446 
189.735 190.058 190.285 190.567 190.724 190.866 190.86 160.718 161.189 
160.718 160.47 162.03 161.385 161.058 160.613 160.625 163.059 162.371 
162.077 161.409 161.28 160.941 161.237 164.197 163.495 163.294 162.564 
162.39 161.775 161.876 161.677 162.167 165.442 164.708 164.592 163.879 
163.809 163.05 163.063 162.505 162.839 162.699 163.315 166.826 166.032 
165.95 165.244 165.31 164.587 164.7 163.935 164.181 163.643 164.176 
163.988 164.689 168.34 167.513 167.433 166.665 166.731 166.082 166.296 
165.635 165.904 165.215 165.607 165.107 165.695 165.465 166.138 169.8 
169.058 169.003 168.206 168.207 167.501 167.669 167.112 167.409 166.862 
167.182 166.617 167.013 166.591 167.115 166.891 167.469 171.022 170.435 
170.437 169.748 169.765 169.022 169.121 168.473 168.714 168.207 168.518 
168.041 168.357 167.893 168.274 167.917 168.383 168.159 168.655 160.566 
160.382 160.479 160.737 160.618 160.519 160.866 160.986 161.511 161.323 
161.021 161.372 161.316 161.88 161.955 162.497 162.315 161.912 162.221 
161.983 162.466 162.42 162.963 162.965 163.458 163.434 162.965 163.229 
162.888 163.282 163.098 163.613 163.524 164.06 163.991 164.538 164.734 
164.152 164.376 163.921 164.276 163.978 164.475 164.294 164.86 164.714 
165.277 165.169 165.744 166.154 165.527 165.74 165.171 165.517 165.076 
165.545 165.242 165.763 165.561 166.097 165.957 166.496 166.391 166.93 
167.486 166.924 167.147 166.59 166.926 166.422 166.843 166.407 166.829 
166.488 166.932 166.742 167.257 167.151 167.685 167.568 168.082 168.657 
168.177 168.397 167.928 168.234 167.789 168.153 167.712 168.052 167.606 
167.945 167.612 168.073 167.91 168.466 168.347 168.877 168.728 169.229 
160.828 160.946 160.95 161.36 161.598 161.283 161.508 161.581 162.172 
162.495 162.04 162.09 161.873 162.299 162.524 163.344 163.464 162.968 
163.021 162.598 162.916 162.834 163.605 163.89 164.87 164.584 164.044 
164.243 163.716 164.083 163.706 164.395 164.376 165.356 165.565 166.574 
165.793 165.264 165.544 165.064 165.49 165.035 165.598 165.334 166.129 
166.17 167.151 167.347 168.391 166.949 166.459 166.698 166.311 166.686 
166.345 166.774 166.48 167.036 166.947 167.771 167.933 168.981 169.243 
170.346 168.082 167.588 167.786 167.386 167.699 167.386 167.774 167.503 
168.006 167.831 168.583 168.61 169.642 169.851 170.99 171.224 172.244 
169.246 168.745 168.972 168.507 168.843 168.435 168.886 168.538 169.156 
168.894 169.734 169.596 170.631 170.65 171.768 171.9 172.923 173.034 
173.834 180.649 179.529 179.905 179.481 178.263 178.686 178.232 178.651 
178.165 176.962 177.362 176.865 177.313 176.821 177.254 176.734 175.676 
176.047 175.516 175.935 175.436 175.874 175.383 175.809 175.32 174.369 
174.731 174.18 174.594 174.085 174.507 174.01 174.448 173.99 174.435 
173.983 173.108 173.424 172.86 173.253 172.74 173.157 172.637 173.068 
172.589 173.072 172.653 173.118 172.675 171.966 172.224 171.65 171.969 
171.434 171.812 171.294 171.702 171.22 171.676 171.27 171.763 171.381 
171.828 171.42 170.912 171.144 170.57 170.818 170.236 170.534 169.997 
170.379 169.939 170.372 170.005 170.446 170.104 170.546 170.199 170.627 
170.299 169.928 170.136 169.586 169.787 169.197 169.398 168.83 169.131 
168.707 169.134 168.817 169.255 168.931 169.338 169.005 169.424 169.122 
169.569 169.324 
POINT_DATA 1002
SCALARS Distance double
LOOKUP_TABLE default
172.525 171.546 171.45 172.53 171.382 173.731 172.598 171.378 173.827 
175.16 172.756 171.504 174.028 175.36 176.682 173.013 171.767 174.309 
175.651 176.973 178.162 173.331 172.125 174.61 175.941 177.228 178.434 
179.547 173.72 172.584 174.959 176.259 177.489 178.64 179.806 180.896 
174.219 173.137 175.426 176.701 177.916 179.024 180.134 181.25 182.21 
174.738 173.695 175.934 177.194 178.398 179.531 180.609 181.642 182.577 
183.353 175.187 174.204 176.345 177.591 178.763 179.877 180.971 181.962 
182.825 183.591 184.257 170.475 170.278 169.142 168.887 167.631 170.117 
167.46 166.188 168.759 170.076 166.095 164.891 167.454 168.756 170.198 
164.729 163.715 166.08 167.462 168.866 170.491 163.54 162.679 164.692 
166.138 167.615 169.213 170.955 162.66 161.765 163.667 164.992 166.514 
168.072 169.793 171.56 161.981 161.059 163.021 164.217 165.605 167.056 
168.656 170.474 172.222 161.519 160.743 162.574 163.731 164.94 166.19 
167.589 169.318 171.202 172.863 161.138 162.046 161.837 162.952 162.882 
163.248 164.161 164.261 164.219 164.452 165.515 165.832 165.395 165.39 
165.608 167.077 167.547 166.829 166.749 166.673 166.898 169.047 169.477 
168.731 168.655 168.478 168.269 168.56 171.167 171.457 170.891 170.779 
170.615 170.244 170.123 170.542 172.941 173.166 172.719 172.571 172.385 
172.061 171.851 172.011 172.425 174.273 174.511 174.052 173.893 173.687 
173.405 173.276 173.423 173.69 173.949 175.335 175.223 176.675 175.092 
176.707 178.158 174.794 176.559 178.121 179.381 174.534 176.099 177.69 
179.019 180.201 174.654 175.859 177.141 178.366 179.724 181.153 174.962 
176.166 177.241 178.089 179.267 180.905 182.437 175.141 176.488 177.8 
178.588 179.323 180.673 182.262 183.475 175.301 176.568 178.034 179.142 
179.816 180.729 182.03 183.201 184.004 175.548 176.671 177.974 179.202 
180.119 180.973 182.019 183.054 183.825 184.381 176.433 177.872 177.707 
179.336 179.152 178.961 180.471 180.513 180.337 180.096 181.396 181.59 
181.628 181.439 181.218 182.569 182.601 182.697 182.692 182.496 182.263 
183.757 183.78 183.726 183.756 183.681 183.426 183.142 184.429 184.745 
184.795 184.747 184.74 184.581 184.25 183.925 184.723 185.217 185.583 
185.64 185.605 185.574 185.358 184.996 184.637 185.043 185.385 185.886 
186.202 186.74 185.933 187.077 187.515 186.71 186.304 188.1 188.495 
187.606 187.003 186.329 189.283 189.664 188.729 187.891 186.995 186.298 
190.131 190.462 189.655 188.902 187.832 186.933 186.229 190.443 190.701 
189.988 189.481 188.637 187.6 186.77 185.955 190.626 190.74 190.159 
189.669 189.09 188.2 187.272 186.454 185.571 190.856 190.798 190.504 
189.971 189.415 188.671 187.765 186.909 186.066 185.157 184.661 185.551 
185.119 186.066 185.288 186.507 186.034 185.127 186.881 187.218 185.773 
185.157 186.685 187.352 187.803 185.829 185.285 186.487 187.196 187.883 
188.782 185.776 185.036 186.464 187.154 187.894 188.889 189.926 185.381 
184.601 186.183 187.028 187.866 188.79 189.782 190.488 184.996 184.247 
185.783 186.655 187.576 188.475 189.294 189.975 190.469 184.627 183.852 
185.432 186.251 187.081 187.937 188.706 189.287 189.815 190.373 175.427 
176.6 176.401 177.72 177.435 177.812 178.855 178.591 178.93 178.99 
179.979 179.758 180.016 179.975 180.066 180.987 180.739 181.105 181.138 
181.164 181.159 181.901 181.63 182.166 182.419 182.542 182.509 182.306 
182.824 182.53 183.172 183.567 183.759 183.747 183.618 183.331 183.641 
183.295 184.012 184.452 184.633 184.54 184.529 184.439 184.101 173.827 
174.782 172.833 173.965 171.716 175.784 173.162 170.703 175.205 176.899 
172.335 169.891 174.726 176.51 178.179 171.501 169.394 174.053 176.147 
177.789 179.389 170.949 169.228 173.243 175.509 177.313 178.905 180.407 
170.731 169.263 172.642 174.727 176.667 178.39 179.983 181.399 170.699 
169.434 172.303 174.074 175.913 177.8 179.557 181.057 182.31 170.8 