# vtk DataFile Version 4.0
vtk output
ASCII
DATASET POLYDATA
POINTS 1002 float
-119.257 -114.985 55.2638 -118.927 -113.946 54.5229 -118.404 -114.049 54.8778 
-118.738 -115.181 55.6808 -117.961 -114.252 55.2956 -119.475 -116.064 56.1557 
-118.228 -115.512 56.2238 -117.589 -114.586 55.8389 -118.905 -116.403 56.7337 
-119.472 -117.189 57.3986 -117.749 -115.868 56.9995 -117.176 -114.983 56.5716 
-118.319 -116.783 57.5336 -118.875 -117.61 58.1457 -119.418 -118.343 58.9344 
-117.29 -116.195 57.9544 -116.698 -115.41 57.4786 -117.832 -117.062 58.5608 
-118.372 -117.945 59.163 -118.888 -118.813 59.7995 -119.488 -119.533 60.6423 
-116.823 -116.64 58.9596 -116.242 -115.918 58.4458 -117.386 -117.467 59.5686 
-117.973 -118.284 60.2886 -118.483 -119.226 60.9107 -118.966 -120.145 61.5889 
-119.538 -120.778 62.421 -116.307 -117.262 59.9322 -115.753 -116.572 59.2934 
-116.823 -118.16 60.4936 -117.415 -118.972 61.2253 -117.995 -119.764 62.0142 
-118.45 -120.712 62.6653 -118.914 -121.488 63.3522 -119.458 -121.973 64.0867 
-115.718 -117.998 60.7705 -115.182 -117.34 60.0283 -116.194 -118.877 61.4285 
-116.695 -119.777 62.1032 -117.286 -120.494 62.9509 -117.817 -121.258 63.7433 
-118.253 -122.067 64.3648 -118.754 -122.642 64.992 -119.331 -123.033 65.6237 
-115.151 -118.76 61.5375 -114.68 -118.05 60.8597 -115.631 -119.531 62.3098 
-116.075 -120.368 63.0669 -116.599 -121.12 63.889 -117.179 -121.799 64.7713 
-117.642 -122.545 65.4751 -118.051 -123.226 66.0117 -118.575 -123.692 66.557 
-119.171 -124.02 67.093 -114.731 -119.4 62.3851 -114.367 -118.581 61.8227 
-115.169 -120.175 63.1306 -115.579 -120.92 63.9745 -116.019 -121.66 64.8211 
-116.578 -122.363 65.6997 -117.096 -123.056 66.5005 -117.457 -123.764 67.0698 
-117.837 -124.354 67.5177 -118.362 -124.736 67.9723 -118.935 -124.98 68.3865 
-118.272 -112.951 53.9009 -117.743 -113.056 54.336 -117.693 -111.959 53.1919 
-117.145 -112.077 53.7405 -117.133 -110.985 52.5769 -117.334 -113.271 54.8477 
-116.487 -111.115 53.1682 -116.445 -109.952 52.1675 -116.63 -112.32 54.3618 
-116.948 -113.65 55.4302 -115.762 -110.129 52.7764 -115.708 -108.917 51.9861 
-115.821 -111.367 53.8629 -116.091 -112.737 54.9967 -116.453 -114.159 56.1477 
-115.074 -109.198 52.6631 -114.98 -108.064 51.9708 -115.148 -110.38 53.5885 
-115.294 -111.75 54.6503 -115.581 -113.311 55.7327 -115.95 -114.737 57.016 
-114.244 -108.458 52.5945 -114.117 -107.428 51.9557 -114.505 -109.521 53.5247 
-114.775 -110.749 54.5935 -114.923 -112.314 55.5253 -115.146 -114.003 56.5344 
-115.505 -115.394 57.8707 -113.282 -107.921 52.4795 -113.246 -106.882 51.9998 
-113.575 -108.947 53.3692 -114.065 -110.042 54.5392 -114.345 -111.4 55.5374 
-114.428 -113.106 56.2908 -114.682 -114.787 57.2884 -115.007 -116.145 58.6453 
-112.61 -107.473 52.6747 -112.677 -106.346 52.3518 -112.696 -108.559 53.3353 
-113.059 -109.658 54.3175 -113.448 -110.88 55.3753 -113.636 -112.356 56.2009 
-113.885 -114.014 57.0042 -114.261 -115.553 58.1646 -114.529 -116.865 59.5502 
-112.35 -107.034 53.3216 -112.424 -105.873 53.0333 -112.267 -108.175 53.7797 
-112.311 -109.311 54.3698 -112.519 -110.551 55.1474 -112.785 -111.919 56.0201 
-113.169 -113.372 56.887 -113.675 -114.828 57.9555 -114.051 -116.189 59.2994 
-114.23 -117.433 60.649 -112.244 -106.261 54.1181 -112.145 -107.476 54.5198 
-111.95 -106.846 55.3914 -111.795 -108.041 55.7354 -111.52 -107.628 56.6093 
-111.989 -108.667 54.8827 -111.383 -108.8 56.9552 -111.256 -108.55 57.9373 
-111.652 -109.272 56.0184 -111.935 -109.964 55.2937 -111.277 -109.745 58.4771 
-111.388 -109.508 59.4681 -111.498 -110.106 57.4626 -111.764 -110.753 56.5319 
-112.128 -111.46 56.0033 -111.712 -110.844 59.9013 -111.983 -110.623 60.6318 
-111.814 -111.169 59.0865 -112.035 -111.685 58.2059 -112.263 -112.401 57.3609 
-112.62 -112.973 56.9321 -112.651 -112.259 60.656 -113.022 -112.11 61.1465 
-112.581 -112.524 60.1429 -112.585 -112.826 59.6392 -112.662 -113.35 58.9313 
-112.93 -113.95 58.2831 -113.284 -114.394 58.0244 -113.687 -113.916 61.2511 
-114.096 -113.757 61.6189 -113.477 -114.176 60.824 -113.158 -114.317 60.5577 
-112.801 -114.543 60.1941 -112.923 -115.008 59.6722 -113.406 -115.42 59.4346 
-113.774 -115.767 59.4069 -114.311 -115.39 62.304 -114.727 -115.183 62.5119 
-114.053 -115.728 61.9123 -113.621 -115.901 61.6426 -112.876 -115.965 61.4244 
-112.514 -116.278 60.9973 -112.968 -116.642 60.7468 -113.616 -116.83 60.8633 
-113.974 -117.08 60.8732 -114.506 -116.55 63.5775 -114.933 -116.341 63.6088 
-114.216 -116.935 63.3136 -113.855 -117.219 63.0561 -113.136 -117.268 62.8923 
-112.42 -117.466 62.51 -112.45 -117.873 62.0531 -113.125 -118.065 62.0368 
-113.74 -118.11 62.2266 -114.078 -118.31 62.128 -114.32 -119.602 63.1414 
-113.963 -119.409 63.4128 -114.146 -120.791 64.5261 -113.462 -119.36 63.382 
-113.648 -120.77 64.7107 -113.681 -122.209 65.9815 -112.782 -119.315 63.2806 
-113.06 -120.801 64.7291 -113.076 -122.399 66.238 -113.109 -123.78 67.5555 
-112.393 -118.928 63.646 -112.581 -120.525 65.0004 -112.58 -122.352 66.5997 
-112.532 -124.057 68.0702 -112.69 -125.227 69.2204 -112.751 -118.54 64.1955 
-112.593 -119.991 65.5726 -112.436 -121.792 67.1938 -112.263 -123.771 68.7659 
-112.186 -125.328 69.9148 -112.229 -126.314 70.8304 -113.486 -118.515 64.3806 
-113.126 -119.861 65.8103 -112.757 -121.329 67.5343 -112.437 -123.053 69.3368 
-112.177 -124.813 70.6618 -111.861 -126.139 71.5301 -111.666 -127.107 72.3035 
-114.014 -118.384 64.4634 -113.77 -119.94 65.709 -113.401 -121.362 67.3618 
-112.966 -122.642 69.3554 -112.62 -124.147 71.0471 -112.177 -125.664 72.1638 
-111.669 -126.818 72.9714 -111.389 -127.82 73.7056 -114.349 -117.952 64.6545 
-114.262 -119.623 65.7189 -114.079 -121.259 67.1506 -113.662 -122.491 69.0719 
-113.248 -123.72 70.9313 -112.848 -125.243 72.3533 -112.295 -126.532 73.4311 
-111.782 -127.473 74.2992 -111.46 -128.448 75.0671 -114.736 -117.586 64.7163 
-114.672 -119.115 65.7579 -114.623 -120.781 67.0588 -114.308 -122.155 68.8442 
-113.869 -123.343 70.646 -113.522 -124.831 72.0992 -113.077 -126.271 73.3821 
-112.487 -127.155 74.5336 -111.966 -127.853 75.4734 -111.577 -128.77 76.2742 
-114.655 -120.554 63.8194 -114.361 -121.847 65.3744 -115.003 -121.428 64.6734 
-113.829 -123.29 66.9604 -114.584 -122.839 66.2936 -115.346 -122.252 65.5898 
-113.408 -124.753 68.6081 -114.118 -124.305 67.9292 -114.911 -123.797 67.2127 
-115.821 -123.064 66.4965 -113.053 -126.095 70.326 -113.88 -125.678 69.7166 
-114.534 -125.265 68.9159 -115.401 -124.636 68.122 -116.391 -123.793 67.3757 
-112.371 -127.249 71.9145 -113.462 -127.024 71.4983 -114.283 -126.587 70.7827 
-114.955 -126.036 69.8126 -115.906 -125.294 68.9136 -116.833 -124.478 68.064 
-111.631 -128.226 73.3312 -112.565 -128.289 72.9351 -113.704 -127.935 72.3855 
-114.572 -127.362 71.5045 -115.414 -126.684 70.4397 -116.379 -125.926 69.4665 
-117.202 -125.132 68.5337 -111.28 -129.067 74.7862 -111.667 -129.325 74.2721 
-112.701 -129.096 73.5821 -113.957 -128.607 72.796 -115.068 -128 71.8671 
-116.058 -127.265 70.8357 -116.939 -126.455 69.8636 -117.691 -125.594 68.9361 
-111.24 -129.64 76.2419 -111.193 -130.079 75.8171 -111.807 -129.894 74.9158 
-113.108 -129.444 73.8612 -114.602 -128.991 72.9605 -115.853 -128.378 72.0733 
-116.802 -127.584 71.0971 -117.57 -126.731 70.1674 -118.278 -125.843 69.2933 
-111.417 -129.403 77.4113 -111.17 -130.325 77.422 -111.572 -129.717 78.2616 
-111.657 -130.408 78.103 -112.533 -129.543 78.3247 -111.353 -130.448 76.7497 
-113.033 -130.028 77.8397 -114.109 -129.227 77.707 -112.336 -130.282 77.1193 
-112.362 -129.978 75.4021 -114.68 -129.761 77.1354 -115.616 -129.146 77.2169 
-114.002 -130.075 76.8461 -113.706 -129.897 75.5892 -114.005 -129.545 74.0687 
-116.17 -129.663 76.7243 -117.121 -129.124 77.0219 -115.559 -130.068 76.4357 
-115.27 -129.983 75.5532 -115.307 -129.592 74.2147 -115.605 -129.108 73.0722 
-117.989 -129.531 76.2536 -118.89 -129.05 76.4803 -117.163 -129.95 75.9186 
-116.703 -130.034 75.2259 -116.587 -129.694 74.1107 -116.678 -129.109 73.0195 
-116.792 -128.407 72.0786 -119.94 -129.558 75.3382 -120.434 -129.034 75.5313 
-119.155 -129.861 75.0008 -118.409 -129.899 74.4089 -117.988 -129.741 73.5108 
-117.799 -129.266 72.5781 -117.712 -128.462 71.8083 -117.647 -127.582 71.0465 
-121.295 -129.624 74.4173 -121.403 -128.896 74.6705 -120.872 -129.994 74.0793 
-120.158 -129.869 73.5267 -119.527 -129.647 72.7207 -119.085 -129.418 71.8955 
-118.732 -128.74 71.287 -118.504 -127.688 70.7859 -118.382 -126.693 70.142 
-122.074 -129.317 73.7976 -122.036 -128.459 74.0725 -121.943 -129.916 73.5143 
-121.435 -129.869 73.0543 -120.79 -129.468 72.2905 -120.266 -129.216 71.4309 
-119.8 -128.799 70.8111 -119.411 -127.833 70.4247 -119.201 -126.689 69.9765 
-119.082 -125.744 69.2791 -111.866 -128.075 76.7779 -111.737 -128.351 77.801 
-112.276 -127.21 77.0949 -112.38 -127.229 78.034 -113.145 -126.732 77.1856 
-112.229 -128.467 78.3823 -113.627 -126.722 78.0676 -114.529 -126.764 76.745 
-113.375 -127.331 78.5241 -113.635 -128.39 78.2882 -115.176 -126.573 77.4374 
-115.901 -126.657 75.7449 -114.893 -126.706 78.5084 -115.101 -127.47 78.6025 
-115.353 -128.424 77.9281 -116.427 -126.105 76.2893 -116.875 -126.055 74.733 
-116.192 -126.074 77.7001 -116.46 -126.699 78.5534 -116.749 -127.789 78.4499 
-116.837 -128.63 77.7132 -117.331 -125.499 75.2602 -117.58 -125.257 73.9053 
-117.073 -125.407 76.4914 -117.298 -125.808 77.4967 -117.8 -126.982 78.061 
-118.083 -128.112 77.8959 -118.339 -128.677 77.2657 -118.107 -124.952 74.2684 
-118.176 -124.385 72.9664 -117.892 -125.104 75.4415 -117.952 -125.281 76.2615 
-118.443 -126.062 76.8214 -118.965 -127.241 77.0828 -119.354 -128.09 76.9119 
-119.828 -128.549 76.3516 -118.764 -124.193 73.0722 -118.701 -123.423 71.8977 
-118.718 -124.73 74.2983 -118.77 -125.052 75.2656 -119.125 -125.416 75.8455 
-119.646 -126.13 76.1413 -120.124 -127.059 76.2005 -120.538 -127.797 75.9668 
-120.953 -128.337 75.405 -119.312 -123.248 71.8815 -119.202 -122.507 70.899 
-119.39 -123.922 73.0056 -119.553 -124.476 74.1349 -119.898 -124.824 75.0423 
[...]
CELL_DATA 2000
SCALARS Distance double
LOOKUP_TABLE default
172.815 172.713 173.165 173.987 172.764 173.138 173.979 174.375 175.168 
172.939 173.255 174.088 174.437 175.254 175.589 176.372 173.173 173.457 
174.282 174.596 175.433 175.742 176.569 176.865 177.705 173.484 173.724 
174.566 174.839 175.715 175.995 176.883 177.149 178.042 178.303 179.18 
173.868 174.082 174.94 175.183 176.089 176.347 177.271 177.527 178.445 
178.694 179.574 179.799 180.603 174.259 174.479 175.334 175.581 176.476 
176.742 177.648 177.919 178.81 179.079 179.924 180.169 180.94 181.148 
181.852 174.669 174.874 175.726 175.967 176.843 177.105 177.983 178.261 
179.133 179.411 180.246 180.49 181.252 181.456 182.152 182.338 182.989 
175.129 175.306 176.155 176.37 177.235 177.466 178.326 178.581 179.451 
179.726 180.581 180.824 181.602 181.786 182.482 182.643 183.287 183.446 
184.035 172.001 170.72 171.516 171.878 169.478 170.254 170.633 171.46 
171.921 168.227 169.015 169.379 170.221 170.701 171.574 172.1 166.965 
167.746 168.09 168.934 169.393 170.317 170.873 171.783 172.337 165.825 
166.538 166.896 167.667 168.114 168.995 169.569 170.523 171.151 172.057 
172.652 164.773 165.452 165.824 166.555 167.031 167.819 168.4 169.269 
169.937 170.866 171.545 172.425 173.043 163.771 164.405 164.761 165.501 
166.014 166.813 167.405 168.205 168.831 169.694 170.381 171.303 171.983 
172.842 173.448 163.016 163.511 163.893 164.509 165.035 165.801 166.413 
167.219 167.814 168.625 169.262 170.155 170.87 171.776 172.46 173.273 
173.88 162.634 162.985 163.443 163.856 164.374 164.937 165.531 166.243 
166.866 167.631 168.288 169.106 169.86 170.73 171.51 172.334 173.031 
173.764 174.376 162.707 163.25 163.154 163.538 163.841 163.715 164.064 
163.984 164.406 164.558 164.316 164.638 164.512 164.916 164.89 165.453 
165.631 165.182 165.522 165.22 165.686 165.508 166.095 166.066 166.768 
167.069 166.465 166.879 166.385 166.948 166.552 167.217 166.939 167.666 
167.525 168.28 168.808 168.093 168.584 167.974 168.573 168.041 168.692 
168.265 168.974 168.654 169.398 169.165 169.926 170.744 169.981 170.498 
169.816 170.371 169.737 170.238 169.725 170.288 169.964 170.646 170.4 
171.119 170.878 171.592 172.545 171.887 172.348 171.721 172.193 171.524 
171.861 171.209 171.557 171.148 171.718 171.539 172.236 172.062 172.723 
172.494 173.11 173.989 173.486 173.859 173.378 173.775 173.216 173.477 
172.79 172.983 172.402 172.812 172.537 173.193 173.071 173.742 173.569 
174.149 173.919 174.452 175.251 174.969 175.538 176.397 174.575 175.222 
176.099 176.705 177.589 174.055 174.766 175.693 176.379 177.332 177.935 
178.855 173.698 174.285 175.267 175.964 177.015 177.697 178.739 179.294 
180.233 173.866 174.171 175.148 175.659 176.752 177.412 178.552 179.198 
180.215 180.694 181.5 174.36 174.556 175.492 175.78 176.823 177.286 
178.419 179.027 180.103 180.645 181.46 181.836 182.448 174.665 174.989 
175.903 176.209 177.2 177.526 178.565 178.997 180.057 180.555 181.464 
181.826 182.484 182.73 183.307 174.719 175.129 176.031 176.481 177.471 
177.883 178.856 179.212 180.169 180.582 181.537 181.92 182.711 182.912 
183.53 183.679 184.292 174.79 175.147 176.02 176.495 177.482 178.009 
178.977 179.412 180.282 180.682 181.574 182.016 182.882 183.194 183.846 
183.981 184.49 184.652 185.176 175.668 176.853 176.41 176.72 178.065 
177.636 177.981 177.508 177.807 179.305 178.861 179.233 178.781 179.108 
178.607 178.895 180.641 180.153 180.53 180.054 180.428 179.934 180.272 
179.734 180.036 181.907 181.509 181.921 181.43 181.82 181.294 181.662 
181.134 181.466 180.906 181.177 182.857 182.651 183.152 182.82 183.244 
182.735 183.052 182.505 182.798 182.288 182.547 181.997 182.179 183.672 
183.503 184.039 183.895 184.385 184.067 184.373 183.867 184.079 183.557 
183.786 183.287 183.476 182.919 183.038 184.624 184.375 184.854 184.686 
185.135 184.978 185.316 185.029 185.256 184.813 185.013 184.508 184.702 
184.17 184.305 183.73 183.818 185.546 185.355 185.78 185.527 185.84 
185.616 185.878 185.735 186.015 185.823 186.066 185.698 185.864 185.372 
185.483 184.948 185.02 184.466 184.524 186.077 186.872 186.512 186.406 
187.461 187.247 187.164 186.684 186.371 187.927 187.764 187.729 187.343 
187.016 186.524 186.255 188.477 188.243 188.298 187.947 187.746 187.201 
186.957 186.503 186.407 189.196 188.86 188.953 188.625 188.582 188.056 
187.858 187.305 187.179 186.734 186.585 190.026 189.639 189.687 189.337 
189.331 188.904 188.72 188.202 187.958 187.488 187.246 186.788 186.435 
190.783 190.482 190.525 190.116 190.043 189.608 189.415 188.954 188.662 
188.184 187.84 187.372 186.975 186.495 186.035 191.214 191.143 191.262 
190.944 190.825 190.334 190.069 189.587 189.296 188.832 188.477 187.963 
187.525 187.005 186.535 186.045 185.565 191.25 191.399 191.593 191.528 
191.438 191.054 190.691 190.198 189.808 189.39 189.015 188.567 188.092 
187.565 187.036 186.526 186.022 185.551 185.065 185.915 185.686 186.06 
186.583 185.599 185.77 186.225 186.664 187.168 186.046 185.895 186.263 
186.421 186.972 187.279 187.735 186.589 186.457 186.762 186.718 187.259 
187.354 187.918 187.993 188.418 186.637 186.768 186.964 187.089 187.534 
187.749 188.362 188.437 188.93 188.837 189.232 186.341 186.609 186.742 
186.965 187.244 187.688 188.271 188.731 189.291 189.414 189.779 189.691 
190.041 185.917 186.291 186.526 186.709 186.925 187.236 187.712 188.303 
188.911 189.439 189.853 190.069 190.321 190.382 190.667 185.298 185.821 
186.187 186.519 186.813 187.036 187.418 187.783 188.31 188.847 189.337 
189.815 190.119 190.409 190.599 190.796 190.983 184.587 185.147 185.548 
186.064 186.434 186.85 187.219 187.564 187.954 188.336 188.758 189.222 
189.616 190.036 190.296 190.57 190.697 190.913 190.996 175.145 176.149 
175.863 176.38 177.289 176.969 177.541 177.237 177.864 178.487 178.182 
178.796 178.474 179.094 178.788 179.375 179.651 179.392 180.027 179.736 
180.337 180.017 180.561 180.225 180.697 180.716 180.516 181.164 180.934 
181.564 181.258 181.821 181.444 181.959 181.548 182.024 181.669 181.526 
182.191 182.029 182.72 182.485 183.136 182.778 183.348 182.906 183.412 
182.942 183.357 182.548 182.448 183.149 183.035 183.774 183.621 184.337 
184.086 184.655 184.275 184.659 184.238 184.506 184.095 184.272 183.361 
183.307 184.029 183.971 184.705 184.622 185.31 185.178 185.688 185.416 
185.616 185.238 185.254 184.942 184.983 184.724 184.807 184.056 184.061 
184.743 184.765 185.416 185.414 185.965 185.945 186.348 186.224 186.333 
185.996 185.841 185.475 185.385 185.204 185.334 185.197 185.404 174.6 
174.033 174.739 175.57 173.317 174.123 175.005 175.745 176.643 172.575 
173.386 174.322 175.133 176.088 176.858 177.808 172.004 172.725 173.694 
174.48 175.505 176.302 177.318 178.056 178.994 171.529 172.212 173.158 
173.919 174.969 175.769 176.841 177.594 178.579 179.242 180.099 171.026 
171.693 172.572 173.354 174.386 175.24 176.343 177.144 178.167 178.849 
179.725 180.313 181.073 170.631 171.188 172.015 172.732 173.75 174.621 
175.769 176.638 177.715 178.442 179.342 179.943 180.705 181.247 181.944 
170.478 170.895 171.697 172.261 173.253 174.024 175.188 176.063 177.188 
177.971 178.901 179.544 180.322 180.882 181.584 182.104 182.762 170.497 
170.835 171.612 172.058 172.991 173.621 174.72 175.516 176.616 177.414 
178.343 179.047 179.838 180.469 181.203 181.757 182.426 182.911 183.505 
170.776 171.642 171.421 171.919 172.705 172.407 172.969 172.702 173.328 
173.958 173.597 174.206 173.877 174.552 174.27 175.031 175.296 174.918 
175.536 175.185 175.84 175.536 176.256 176.034 176.823 176.608 176.246 
176.84 176.508 177.121 176.804 177.434 177.19 177.883 177.738 178.46 
177.87 177.527 178.113 177.789 178.408 178.074 178.677 178.354 178.989 
178.762 179.465 179.307 179.981 179.098 178.777 179.384 179.065 179.704 
179.372 179.996 179.635 180.267 179.945 180.651 180.398 181.108 180.848 
181.438 180.267 179.986 180.589 180.309 180.923 180.638 181.237 180.927 
181.523 181.225 181.876 181.624 182.29 182.026 182.587 182.259 182.692 
181.322 181.095 181.652 181.427 181.985 181.761 182.31 182.071 182.615 
182.377 182.94 182.737 183.299 183.103 183.581 183.329 183.701 183.392 
183.719 182.041 183.235 182.548 182.386 184.559 183.804 183.638 182.907 
182.73 185.938 185.185 185.023 184.23 184.039 183.27 183.074 187.184 
186.523 186.387 185.64 185.462 184.653 184.439 183.629 183.409 188.342 
187.726 187.611 186.934 186.78 186.054 185.851 185.045 184.788 183.963 
183.732 189.433 188.906 188.816 188.137 187.947 187.267 187.067 186.377 
186.107 185.325 185.017 184.249 184.019 190.17 189.883 189.839 189.3 
189.045 188.37 188.092 187.469 187.215 186.543 186.206 185.462 185.135 
184.459 184.218 190.529 190.403 190.382 190.106 189.851 189.33 188.946 
188.384 188.084 187.538 187.244 186.583 186.227 185.523 185.211 184.582 
184.317 190.827 190.669 190.621 190.461 190.264 189.93 189.544 189.081 
188.691 188.256 187.942 187.475 187.143 186.555 186.214 185.573 185.276 
184.648 184.36 182.045 182.391 182.568 183.251 182.68 182.933 183.716 
183.857 184.596 182.959 183.272 184.197 184.387 185.223 185.291 186.006 
183.237 183.607 184.662 184.939 185.881 185.974 186.715 186.68 187.273 
183.358 183.821 184.886 185.357 186.398 186.645 187.436 187.414 187.986 
187.882 188.408 183.236 183.762 184.72 185.381 186.468 187.014 187.921 
188.096 188.689 188.601 189.054 188.966 189.428 183.014 183.522 184.412 
185.084 186.167 186.89 187.898 188.383 189.071 189.201 189.611 189.551 
189.864 189.829 190.122 182.801 183.291 184.19 184.803 185.856 186.548 
187.521 188.148 188.862 189.3 189.762 189.942 190.225 190.207 190.409 
190.36 190.534 182.595 183.085 183.968 184.584 185.57 186.229 187.073 
187.673 188.262 188.825 189.291 189.79 190.19 190.445 190.726 190.709 
190.904 190.779 190.932 181.322 180.201 181.072 181.618 178.881 179.841 
180.394 181.3 181.82 177.496 178.45 178.969 179.953 180.461 181.422 
181.969 176.152 177.061 177.528 178.48 178.962 179.959 180.508 181.557 
182.177 174.787 175.712 176.176 177.082 177.534 178.461 178.996 180.046 
180.714 181.796 182.393 173.369 174.305 174.807 175.752 176.238 177.113 
177.596 178.551 179.197 180.309 180.99 181.991 182.431 172.093 172.913 
173.404 174.362 174.919 175.849 176.337 177.208 177.731 178.764 179.428 
180.541 181.083 181.972 182.269 171.114 171.761 172.179 173.002 173.547 
174.507 175.062 175.962 176.428 177.326 177.865 178.933 179.527 180.564 
180.973 181.789 182.044 170.332 170.892 171.25 171.889 172.333 173.169 
173.728 174.661 175.186 176.053 176.527 177.441 177.996 179.014 179.544 
180.465 180.822 181.584 181.851 170.021 169.854 170.282 170.949 169.716 
170.136 170.843 171.229 171.974 169.748 170.088 170.858 171.193 171.993 
172.388 173.307 170.014 170.271 171.118 171.365 172.219 172.513 173.445 
173.843 174.789 170.386 170.63 171.529 171.759 172.642 172.855 173.75 
174.047 174.971 175.315 176.187 170.806 171.031 171.947 172.202 173.093 
173.302 174.149 174.384 175.271 175.562 176.47 176.75 177.646 171.355 
171.511 172.427 172.639 173.53 173.729 174.557 174.767 175.637 175.906 
176.847 177.119 178.045 178.292 179.172 171.999 172.118 173.005 173.159 
174.011 174.17 174.973 175.161 176.009 176.276 177.214 177.516 178.44 
178.698 179.521 179.749 180.477 172.608 172.738 173.563 173.711 174.491 
174.636 175.383 175.56 176.357 176.618 177.505 177.834 178.727 179.032 
179.817 180.049 180.719 180.919 181.532 173.189 174.328 173.881 174.125 
175.462 175.011 175.241 174.801 175.019 176.662 176.173 176.425 175.943 
176.183 175.698 175.917 178.007 177.457 177.774 177.231 177.533 176.967 
177.235 176.67 176.933 179.453 178.877 179.213 178.66 179.006 178.422 
178.724 178.104 178.393 177.788 178.099 180.852 180.32 180.63 180.098 
180.437 179.898 180.221 179.631 179.924 179.307 179.606 179.004 179.303 
182.115 181.66 181.977 181.478 181.804 181.294 181.634 181.1 181.419 
180.833 181.115 180.505 180.754 180.154 180.363 183.258 182.872 183.214 
182.774 183.098 182.626 182.955 182.473 182.8 182.281 182.557 181.978 
182.184 181.57 181.721 181.114 181.238 184.283 183.964 184.3 183.938 
184.241 183.84 184.132 183.719 184.01 183.573 183.83 183.333 183.532 
182.963 183.108 182.482 182.586 181.951 182.043 182.72 183.341 183.382 
184.141 183.871 183.999 184.815 184.917 185.73 184.25 184.443 185.207 
185.451 186.234 186.412 187.095 184.532 184.753 185.461 185.722 186.431 
186.698 187.32 187.54 188.107 184.715 184.98 185.693 185.954 186.658 
186.873 187.497 187.677 188.281 188.492 189.113 184.82 185.112 185.825 
186.142 186.881 187.136 187.81 187.954 188.616 188.763 189.481 189.62 
190.198 184.911 185.199 185.892 186.226 186.979 187.317 188.031 188.268 
188.94 189.144 189.881 190.071 190.703 190.691 190.963 184.958 185.266 
185.931 186.269 186.999 187.375 188.095 188.413 189.043 189.332 189.984 
190.329 190.958 191.142 191.448 191.282 191.239 184.918 185.257 185.875 
186.241 186.898 187.318 187.984 188.385 188.941 189.281 189.773 190.187 
190.716 191.142 191.502 191.625 191.626 191.407 191.225 162.187 162.662 
162.185 161.885 163.467 162.854 162.581 162.089 162.037 164.418 163.747 
163.402 162.85 162.736 162.414 162.637 165.439 164.711 164.268 163.631 
163.39 163.048 163.217 163.128 163.55 166.656 165.843 165.467 164.621 
164.34 163.747 163.864 163.675 164.118 164.081 164.526 167.999 167.209 
167.02 166.092 165.936 165.031 165.122 164.548 164.965 164.723 165.216 
165.055 165.464 169.275 168.584 168.505 167.732 167.701 166.834 166.915 
166.108 166.394 165.826 166.276 165.908 166.382 166.099 166.592 170.539 
169.87 169.832 169.158 169.171 168.488 168.574 167.867 168.043 167.377 
167.689 167.156 167.604 167.198 167.725 167.403 167.977 171.86 171.194 
171.203 170.509 170.543 169.879 169.986 169.364 169.539 168.924 169.154 
168.585 168.921 168.472 168.927 168.586 169.093 168.807 169.308 161.937 
161.567 161.616 161.587 161.748 161.482 161.44 161.495 161.796 162.478 
161.966 161.936 161.676 162.012 162.077 162.696 163.482 162.9 162.882 
162.429 162.729 162.572 163.175 163.233 163.925 164.446 163.933 163.912 
163.442 163.674 163.414 163.945 163.863 164.481 164.485 165.081 165.358 
164.869 164.89 164.445 164.651 164.35 164.814 164.669 165.238 165.132 
165.667 165.613 166.172 166.483 165.884 165.991 165.487 165.742 165.351 
165.765 165.53 166.05 165.904 166.416 166.285 166.799 166.74 167.33 
167.866 167.181 167.327 166.736 167.029 166.54 166.927 166.543 166.996 
166.739 167.229 167.052 167.55 167.427 167.965 167.927 168.521 169.205 
168.592 168.705 168.124 168.368 167.864 168.205 167.757 168.148 167.77 
168.214 167.929 168.41 168.206 168.708 168.59 169.127 169.096 169.649 
162.279 161.935 162.305 162.83 162.082 162.129 162.612 162.943 163.49 
162.909 162.576 162.952 162.941 163.492 163.709 164.302 164.09 163.611 
163.908 163.581 164.058 163.979 164.615 164.722 165.426 165.22 164.788 
165.081 164.679 165.087 164.793 165.375 165.277 166.002 166.046 166.854 
166.307 165.886 166.223 165.848 166.277 165.916 166.453 166.206 166.915 
166.809 167.636 167.638 168.568 167.481 167.026 167.403 167.02 167.52 
167.151 167.722 167.384 168.083 167.86 168.707 168.589 169.529 169.507 
170.509 168.679 168.236 168.612 168.233 168.753 168.424 169.041 168.709 
169.39 169.102 169.896 169.725 170.631 170.554 171.492 171.469 172.362 
169.797 169.402 169.745 169.397 169.867 169.603 170.206 169.974 170.632 
170.38 171.07 170.874 171.66 171.587 172.435 172.416 173.207 173.176 
173.863 180.871 179.765 180.142 179.722 178.585 178.97 178.519 178.895 
178.413 177.372 177.764 177.308 177.677 177.187 177.548 177.061 176.072 
176.492 175.999 176.422 175.911 176.307 175.798 176.192 175.716 174.692 
175.107 174.531 175.003 174.445 174.929 174.382 174.855 174.334 174.801 
174.312 173.342 173.698 173.09 173.508 172.944 173.409 172.873 173.362 
172.845 173.344 172.846 173.347 172.886 172.121 172.396 171.808 172.145 
171.621 172.002 171.513 171.919 171.447 171.883 171.437 171.901 171.498 
171.982 171.646 171.095 171.276 170.697 170.954 170.439 170.769 170.295 
170.657 170.202 170.586 170.169 170.584 170.226 170.677 170.398 170.883 
170.683 170.259 170.358 169.778 169.936 169.403 169.649 169.158 169.473 
169.01 169.376 168.958 169.367 169.005 169.449 169.153 169.651 169.446 
169.993 169.864 
POINT_DATA 1002
SCALARS Distance double
LOOKUP_TABLE default
173.636 172.494 172.316 173.544 172.28 174.78 173.591 172.422 174.803 
175.922 173.755 172.642 174.92 176.043 177.154 173.977 172.901 175.117 
176.266 177.401 178.563 174.296 173.256 175.427 176.605 177.783 178.947 
180.033 174.698 173.653 175.83 177.015 178.198 179.358 180.421 181.359 
175.089 174.04 176.218 177.385 178.549 179.687 180.734 181.668 182.531 
175.496 174.475 176.597 177.716 178.854 180.001 181.055 181.971 182.82 
183.619 175.951 174.964 177.021 178.09 179.176 180.328 181.419 182.336 
183.142 183.903 184.587 171.196 171.039 169.926 169.799 168.712 171.064 
168.537 167.435 169.803 171.237 167.269 166.194 168.465 169.913 171.471 
166.152 165.13 167.269 168.61 170.186 171.8 165.075 164.115 166.246 
167.58 169.014 170.614 172.223 164.027 163.172 165.184 166.614 168.024 
169.456 171.076 172.654 163.335 162.543 164.318 165.606 167.022 168.398 
169.934 171.601 173.128 163.079 162.281 163.918 164.888 166.103 167.477 
168.99 170.658 172.274 173.692 162.765 163.621 163.369 164.159 164 
164.415 164.794 164.885 164.966 165.37 165.872 166.14 165.905 166.192 
166.727 167.387 167.683 167.381 167.563 167.9 168.374 169.21 169.533 
169.157 169.182 169.335 169.689 170.132 171.201 171.498 171.084 170.873 
170.661 170.87 171.381 171.846 172.965 173.176 172.88 172.616 172.095 
171.918 172.371 172.961 173.366 174.322 174.473 174.293 174.155 173.663 
173.196 173.327 173.887 174.383 174.702 176.09 175.826 177.28 175.459 
177.014 178.478 174.956 176.667 178.319 179.774 174.576 176.274 178.109 
179.796 181.133 174.743 176.13 177.858 179.696 181.157 182.215 175.266 
176.469 177.874 179.532 181.086 182.141 182.993 175.549 176.896 178.238 
179.59 181.054 182.256 183.059 183.873 175.546 177.002 178.519 179.815 
181.107 182.454 183.425 184.108 184.896 175.576 176.939 178.509 179.908 
181.128 182.489 183.704 184.41 184.955 185.679 177.191 178.441 178.313 
179.669 179.594 179.423 181.022 180.905 180.791 180.607 182.376 182.369 
182.191 182.009 181.788 183.367 183.718 183.649 183.32 183.071 182.787 
184.151 184.603 184.838 184.636 184.287 184.006 183.639 185.104 185.309 
185.499 185.615 185.52 185.236 184.867 184.412 186.067 186.171 186.045 
186.096 186.338 186.343 186.017 185.567 185.086 186.488 186.983 187.149 
187.61 187.627 186.901 188.058 188.1 187.521 186.63 188.577 188.758 
188.265 187.457 186.791 189.249 189.585 189.037 188.449 187.673 187.077 
190.087 190.411 189.73 189.23 188.488 187.719 186.947 190.955 190.987 
190.538 189.87 189.152 188.352 187.455 186.525 191.491 191.168 191.344 
190.599 189.745 188.998 188.085 187.038 186.044 191.539 191.045 191.751 
191.223 190.255 189.429 188.62 187.574 186.499 185.526 185.58 186.116 
185.365 185.831 185.602 186.731 186.254 186.285 186.705 187.483 186.837 
186.649 187.198 187.879 188.399 186.824 186.442 187.235 188.172 189.039 
189.357 186.565 186.02 186.84 187.659 188.986 189.851 190.133 186.292 
185.444 186.726 187.212 188.267 189.485 190.227 190.607 185.731 184.722 
186.542 187.174 187.872 188.793 189.736 190.396 190.797 184.991 184.051 
185.924 186.838 187.648 188.346 189.139 189.978 190.519 190.777 175.388 
176.627 176.434 177.85 177.585 178.147 179.113 178.766 179.427 179.713 
180.3 179.892 180.673 180.917 181.059 181.362 180.899 181.836 182.189 
182.362 182.46 182.323 181.791 182.894 183.435 183.786 183.899 183.88 
183.236 182.622 183.892 184.539 185.04 185.143 184.938 184.704 184.066 
183.398 184.789 185.438 185.957 186.071 185.639 185.19 185.06 173.941 
174.891 173.27 174.212 172.469 175.916 173.478 171.782 175.277 177.079 
172.917 171.317 174.688 176.556 178.327 172.406 170.869 174.155 176.067 
177.905 179.511 171.806 170.406 173.506 175.5 177.466 179.135 180.533 
171.353 170.137 172.887 174.858 176.952 178.731 180.165 181.423 171.195 
170.103 172.544 174.327 176.382 178.234 179.74 181.063 182.271 171.208 