# vtk DataFile Version 4.0
vtk output
ASCII
DATASET POLYDATA
POINTS 1002 float
-118.422 -111.379 51.6215 -118.253 -110.623 50.2582 -117.643 -110.945 50.5261 
-117.827 -111.592 52.2176 -117.018 -111.222 51.0764 -118.57 -112.001 53.4775 
-117.237 -111.837 53.0205 -116.466 -111.486 51.8732 -118.003 -112.28 54.2933 
-118.702 -112.941 55.4616 -116.683 -112.247 53.8874 -115.951 -111.841 52.7868 
-117.445 -112.801 55.0908 -118.132 -113.627 56.168 -118.765 -114.599 57.031 
-116.127 -112.876 54.7842 -115.457 -112.408 53.7103 -116.902 -113.538 55.9002 
-117.594 -114.498 56.8424 -118.191 -115.547 57.5738 -118.8 -116.469 58.231 
-115.618 -113.692 55.7133 -115.074 -113.205 54.602 -116.345 -114.34 56.8377 
-117.056 -115.314 57.718 -117.623 -116.383 58.3225 -118.201 -117.285 58.8867 
-118.8 -118.012 59.5144 -115.18 -114.603 56.6277 -114.758 -114.047 55.5236 
-115.751 -115.196 57.768 -116.404 -116.087 58.6584 -116.922 -117.171 59.22 
-117.445 -118.084 59.7296 -118.032 -118.802 60.3343 -118.562 -119.436 60.9258 
-114.683 -115.456 57.5668 -114.344 -114.783 56.5654 -115.097 -116.124 58.5992 
-115.628 -116.954 59.448 -116.06 -118.047 59.9932 -116.499 -119.037 60.509 
-117.08 -119.7 61.1753 -117.631 -120.239 61.8119 -118.103 -120.767 62.2879 
-114.045 -116.203 58.5321 -113.779 -115.49 57.6415 -114.383 -117.008 59.4197 
-114.859 -117.853 60.2179 -115.256 -118.832 60.8092 -115.605 -119.828 61.3485 
-116.142 -120.515 62.0509 -116.748 -120.923 62.7681 -117.256 -121.318 63.2824 
-117.721 -121.759 63.6002 -113.356 -116.909 59.3889 -113.142 -116.254 58.5584 
-113.666 -117.747 60.2057 -114.139 -118.632 61.0068 -114.589 -119.451 61.7437 
-114.932 -120.229 62.4217 -115.39 -120.909 63.1329 -115.997 -121.374 63.8307 
-116.574 -121.708 64.3602 -117.076 -122.074 64.6854 -117.549 -122.474 64.8678 
-117.614 -109.937 49.2699 -116.932 -110.298 49.4852 -116.81 -109.143 48.3914 
-116.134 -109.388 48.6901 -115.973 -108.2 47.6733 -116.306 -110.622 50.0115 
-115.376 -108.233 48.2255 -115.248 -107.092 47.1927 -115.548 -109.657 49.2907 
-115.775 -110.915 50.8365 -114.692 -107.096 47.9764 -114.584 -106.014 46.928 
-114.768 -108.494 48.9259 -114.99 -110.019 50.0938 -115.272 -111.282 51.7973 
-113.896 -106.217 47.655 -113.76 -105.125 46.7403 -113.935 -107.53 48.5882 
-114.094 -109.073 49.5508 -114.451 -110.554 50.9631 -114.817 -111.896 52.7431 
-112.906 -105.441 47.3443 -112.794 -104.318 46.6721 -112.985 -106.738 48.1265 
-113.171 -108.296 49.0258 -113.485 -109.888 50.2782 -113.927 -111.338 51.8803 
-114.439 -112.728 53.658 -112.038 -104.656 47.4537 -111.998 -103.568 46.8956 
-112.086 -105.861 48.0041 -112.342 -107.426 48.7375 -112.637 -109.211 49.8683 
-112.884 -110.831 51.26 -113.426 -112.235 52.8362 -114.086 -113.548 54.6723 
-111.486 -104.054 47.9672 -111.475 -103.018 47.4014 -111.481 -105.08 48.4347 
-111.724 -106.439 48.9666 -112.094 -108.242 49.8832 -112.214 -110.102 51.0327 
-112.428 -111.705 52.2858 -113.102 -113.078 53.9203 -113.696 -114.322 55.8575 
-111.012 -103.714 48.5638 -111.027 -102.71 48.0704 -111.031 -104.624 49.0232 
-111.259 -105.702 49.4674 -111.71 -107.202 50.1697 -112.002 -108.994 51.1058 
-112.063 -110.814 52.0931 -112.371 -112.498 53.4065 -112.922 -113.944 55.1964 
-113.217 -115.166 57.0408 -110.389 -103.199 49.0774 -110.405 -104.169 49.4584 
-109.631 -103.752 50.0504 -109.909 -104.773 50.3999 -109.35 -104.519 51.1784 
-110.663 -105.136 49.8906 -109.885 -105.693 51.7629 -109.733 -105.656 52.7179 
-110.47 -105.887 50.9559 -111.176 -106.339 50.4753 -110.311 -106.867 53.4564 
-110.372 -106.861 54.3598 -110.595 -106.875 52.4202 -111.215 -107.101 51.6518 
-111.774 -107.839 51.29 -111.256 -108.067 54.7632 -111.404 -107.981 55.5008 
-111.291 -108.088 53.8803 -111.616 -108.128 53.0435 -112.047 -108.586 52.5042 
-112.14 -109.658 52.2207 -112.756 -109.453 55.5859 -112.955 -109.44 56.1845 
-112.635 -109.575 54.9605 -112.554 -109.716 54.4471 -112.578 -109.966 54.062 
-112.512 -110.71 53.7086 -112.299 -111.751 53.4387 -113.918 -111.173 56.6105 
-114.174 -111.275 57.0091 -113.729 -111.268 56.1399 -113.427 -111.601 55.843 
-112.995 -111.935 55.7747 -112.626 -112.399 55.6402 -112.425 -113.131 55.3392 
-112.494 -113.719 55.1441 -114.074 -112.867 58.1009 -114.486 -112.961 58.2525 
-113.742 -112.894 57.8214 -113.418 -113.239 57.5578 -112.908 -113.688 57.4792 
-112.302 -114.083 57.452 -111.994 -114.623 57.2561 -112.152 -115.126 57.0271 
-112.628 -115.258 56.9703 -113.711 -114.249 59.6814 -114.27 -114.254 59.6616 
-113.171 -114.289 59.6321 -112.773 -114.567 59.4979 -112.419 -114.986 59.3184 
-111.915 -115.331 59.1037 -111.473 -115.762 58.8117 -111.491 -116.307 58.5403 
-111.954 -116.566 58.4513 -112.568 -116.446 58.5062 -112.612 -117.45 59.8357 
-112.001 -117.703 59.7844 -112.145 -118.711 61.1743 -111.386 -117.772 59.7449 
-111.497 -118.988 61.2205 -111.698 -119.928 62.7703 -111.025 -117.383 59.9295 
-110.871 -119 61.2981 -110.926 -120.211 62.9561 -111.142 -121.052 64.4888 
-111.169 -116.835 60.3947 -110.574 -118.557 61.6108 -110.153 -120.131 63.0758 
-110.256 -121.236 64.6832 -110.624 -122.15 66.11 -111.586 -116.508 60.9122 
-110.785 -118.083 62.1738 -109.841 -119.601 63.3434 -109.463 -120.909 64.7923 
-109.815 -122.171 66.3541 -110.109 -123.387 67.6466 -111.926 -116.199 61.2313 
-111.229 -117.834 62.6814 -110.233 -119.181 63.7861 -109.381 -120.278 65.0663 
-109.328 -121.659 66.7085 -109.477 -123.333 68.1255 -109.339 -124.705 69.012 
-112.324 -115.812 61.287 -111.723 -117.531 62.8415 -110.985 -119.018 64.1262 
-110.085 -120.01 65.4065 -109.61 -121.104 67.0937 -109.392 -122.771 68.7359 
-108.981 -124.492 69.7057 -108.66 -125.674 70.1834 -112.946 -115.565 61.186 
-112.357 -117.147 62.6857 -111.752 -118.748 64.1621 -110.983 -119.953 65.6047 
-110.377 -120.948 67.2152 -109.905 -122.243 68.9661 -109.266 -123.771 70.2776 
-108.696 -125.094 70.9624 -108.598 -126.015 71.368 -113.626 -115.456 61.0668 
-113.054 -116.857 62.4516 -112.448 -118.357 63.9643 -111.705 -119.65 65.6061 
-111.093 -120.763 67.1709 -110.617 -121.945 68.7152 -109.956 -123.14 70.208 
-109.255 -124.189 71.3483 -108.928 -125.11 72.0813 -109.079 -125.915 72.5576 
-112.884 -118.194 60.7287 -112.481 -119.485 62.2106 -113.313 -119.109 61.6219 
-111.965 -120.685 63.9011 -112.863 -120.379 63.2024 -113.81 -119.964 62.5315 
-111.373 -121.87 65.6474 -112.192 -121.596 64.8981 -113.245 -121.152 64.1963 
-114.234 -120.596 63.4507 -110.84 -123.149 67.3222 -111.585 -122.895 66.6564 
-112.547 -122.485 65.8297 -113.719 -121.733 65.1716 -114.697 -121.16 64.3154 
-110.066 -124.513 68.7128 -111.012 -124.172 68.2957 -111.992 -123.884 67.4679 
-113.112 -123.237 66.6296 -114.321 -122.336 65.9603 -115.301 -121.736 65.0255 
-109.169 -125.735 69.7559 -110.221 -125.357 69.4576 -111.435 -124.977 68.9292 
-112.548 -124.559 68.0563 -113.736 -123.81 67.2319 -114.984 -122.914 66.4909 
-115.949 -122.204 65.5223 -108.838 -126.461 70.8408 -109.662 -126.358 70.3701 
-110.891 -125.924 69.9592 -112.092 -125.417 69.369 -113.208 -124.848 68.5328 
-114.48 -124.143 67.6783 -115.724 -123.316 66.8442 -116.569 -122.579 65.8396 
-109.203 -126.632 72.1173 -109.748 -126.921 71.4996 -110.723 -126.76 70.8838 
-111.867 -126.277 70.3476 -112.953 -125.624 69.7066 -114.107 -124.989 68.8504 
-115.392 -124.342 67.9674 -116.479 -123.597 67.0817 -117.139 -122.938 66.0284 
-109.826 -126.253 73.4452 -110.156 -126.927 72.9556 -110.778 -126.605 74.0593 
-111.311 -127.07 73.5069 -111.998 -126.832 74.3495 -110.854 -127.182 72.1825 
-112.698 -126.983 73.762 -113.622 -126.827 74.5786 -112.134 -127.223 72.6375 
-111.856 -127.081 71.3618 -114.363 -126.795 73.895 -115.401 -126.731 74.732 
-113.587 -127.033 72.8516 -113.148 -127.245 71.6331 -112.949 -126.606 70.6235 
-116.133 -126.771 73.8525 -117.045 -126.715 74.547 -115.255 -126.803 72.8697 
-114.611 -127.148 71.6409 -114.234 -126.867 70.5898 -114.068 -125.856 69.7861 
-117.874 -126.902 73.5333 -118.583 -126.647 74.0114 -117.062 -126.81 72.6495 
-116.315 -126.891 71.4737 -115.725 -126.808 70.3625 -115.386 -126.045 69.5868 
-115.308 -125.116 68.8602 -119.47 -126.858 72.9327 -119.974 -126.321 73.2391 
-118.784 -126.986 72.1429 -118.097 -126.846 71.1049 -117.442 -126.547 70.1442 
-116.863 -125.937 69.4054 -116.564 -125.148 68.7547 -116.505 -124.39 67.9785 
-120.763 -126.509 72.1409 -121.066 -125.829 72.3875 -120.223 -126.934 71.4339 
-119.602 -126.931 70.4824 -119.052 -126.483 69.7352 -118.441 -125.764 69.2073 
-117.849 -125.035 68.6131 -117.513 -124.381 67.8467 -117.331 -123.686 66.9572 
-121.705 -126.033 71.3726 -121.829 -125.353 71.6287 -121.356 -126.539 70.766 
-120.768 -126.707 69.8634 -120.222 -126.406 69.1229 -119.738 -125.735 68.7072 
-119.106 -125.003 68.232 -118.488 -124.386 67.4897 -118.084 -123.791 66.6146 
-117.8 -123.137 65.7259 -109.592 -125.161 73.3117 -110.337 -125.541 74.1297 
-110.305 -124.407 73.6938 -111.067 -124.716 74.4314 -111.285 -123.933 73.6337 
-111.33 -126.014 74.5954 -112.12 -124.007 74.3661 -112.497 -123.745 73.1201 
-112.224 -125.073 74.9485 -112.819 -126.311 74.9653 -113.346 -123.66 73.7835 
-113.68 -123.497 72.2922 -113.408 -124.14 74.9494 -113.988 -125.21 75.5638 
-114.73 -126.269 75.4085 -114.463 -123.417 72.8133 -114.673 -122.919 71.4455 
-114.55 -123.779 74.1371 -115.158 -124.224 75.4019 -115.903 -125.085 75.9466 
-116.481 -126.11 75.4451 -115.42 -122.83 71.8609 -115.534 -122.209 70.5794 
-115.495 -123.467 72.9541 -116.052 -123.889 74.1541 -116.796 -124.224 75.2693 
-117.368 -125.017 75.462 -117.925 -126.03 74.8222 -116.278 -122.083 70.8625 
-116.318 -121.564 69.5453 -116.34 -122.62 72.0091 -116.772 -123.269 72.923 
-117.437 -123.78 73.8137 -118.007 -124.26 74.4082 -118.589 -125.035 74.3411 
-119.304 -125.829 73.8689 -117.058 -121.434 69.6664 -117.026 -120.855 68.4803 
-117.148 -121.767 70.9748 -117.489 -122.173 72.073 -118.058 -122.85 72.7603 
-118.616 -123.54 73.1685 -119.2 -124.156 73.3555 -119.903 -124.796 73.2635 
-120.565 -125.375 72.9295 -117.763 -120.75 68.4813 -117.661 -120.02 67.5558 
-117.911 -121.208 69.641 -118.221 -121.432 70.9145 -118.724 -121.822 71.8548 
[...]
CELL_DATA 2000
SCALARS Distance double
LOOKUP_TABLE default
168.844 168.74 169.153 169.897 168.723 169.094 169.882 170.272 171.106 
168.842 169.16 170.008 170.359 171.288 171.645 172.619 169.113 169.375 
170.294 170.609 171.627 171.954 172.995 173.302 174.302 169.571 169.756 
170.719 170.995 172.06 172.377 173.431 173.722 174.698 174.97 175.866 
170.174 170.309 171.247 171.472 172.503 172.815 173.835 174.135 175.06 
175.332 176.185 176.445 177.232 170.757 170.91 171.787 171.989 172.926 
173.214 174.167 174.476 175.363 175.647 176.467 176.733 177.491 177.73 
178.407 171.229 171.413 172.238 172.46 173.334 173.598 174.491 174.771 
175.628 175.911 176.718 176.991 177.729 177.964 178.609 178.813 179.381 
171.621 171.804 172.577 172.827 173.676 173.961 174.823 175.088 175.893 
176.152 176.919 177.202 177.925 178.179 178.812 179.007 179.563 179.732 
180.242 168.109 166.861 167.656 167.977 165.484 166.34 166.705 167.546 
167.938 164.084 164.935 165.312 166.225 166.689 167.56 168.028 162.781 
163.574 163.937 164.823 165.309 166.262 166.808 167.703 168.255 161.555 
162.32 162.66 163.484 163.933 164.872 165.455 166.438 167.083 168.005 
168.678 160.314 161.079 161.384 162.201 162.622 163.531 164.115 165.1 
165.798 166.798 167.555 168.514 169.272 159.217 159.879 160.18 160.92 
161.361 162.247 162.884 163.843 164.564 165.534 166.304 167.326 168.147 
169.134 169.884 158.49 158.982 159.343 159.879 160.346 161.089 161.802 
162.712 163.506 164.4 165.155 166.09 166.918 167.953 168.801 169.744 
170.435 158.071 158.459 158.867 159.259 159.718 160.268 160.961 161.752 
162.597 163.44 164.231 165.052 165.87 166.8 167.721 168.687 169.519 
170.324 170.935 158.027 158.183 158.341 158.793 158.568 158.553 159.075 
159.158 159.69 159.632 159.231 159.762 159.621 160.261 160.247 160.968 
161.259 160.61 161.04 160.593 161.192 161.002 161.762 161.743 162.58 
163.074 162.356 162.78 162.113 162.64 162.166 162.88 162.667 163.499 
163.432 164.24 165.157 164.315 164.881 164.063 164.683 163.926 164.65 
164.077 164.919 164.556 165.412 165.163 165.972 167.423 166.546 167.116 
166.293 166.944 166.152 166.842 166.096 166.835 166.231 167.037 166.582 
167.404 167.042 167.86 169.346 168.641 168.992 168.342 168.792 168.215 
168.717 168.135 168.615 168.061 168.604 168.184 168.843 168.517 169.219 
168.922 169.615 170.731 170.202 170.363 169.856 170.105 169.69 170.034 
169.637 169.95 169.51 169.812 169.46 169.907 169.71 170.274 170.109 
170.663 170.466 170.981 171.679 171.398 171.898 172.626 171.015 171.583 
172.354 172.896 173.686 170.625 171.169 171.966 172.583 173.418 173.979 
174.766 170.522 170.889 171.655 172.189 173.002 173.614 174.403 174.992 
175.758 170.689 170.959 171.696 172.026 172.724 173.166 173.855 174.479 
175.279 175.968 176.8 170.792 171.134 171.914 172.206 172.868 173.055 
173.612 173.97 174.75 175.435 176.412 177.089 177.912 170.844 171.186 
172.018 172.404 173.187 173.359 173.944 174.01 174.73 175.113 176.15 
176.765 177.729 178.2 178.841 171.07 171.302 172.124 172.498 173.381 
173.684 174.413 174.501 175.196 175.359 176.282 176.69 177.64 178.065 
178.748 179.054 179.547 171.418 171.597 172.36 172.655 173.505 173.858 
174.639 174.891 175.582 175.8 176.569 176.889 177.688 178.031 178.656 
178.949 179.427 179.719 180.197 172.056 173.037 172.685 173.024 174.126 
173.746 174.14 173.768 174.171 175.207 174.86 175.262 174.921 175.352 
174.973 175.34 176.255 175.93 176.325 176.003 176.416 176.106 176.477 
176.09 176.378 177.358 177.022 177.46 177.087 177.496 177.146 177.533 
177.175 177.5 177.091 177.373 178.379 178.113 178.562 178.244 178.669 
178.294 178.688 178.276 178.632 178.215 178.535 178.101 178.371 179.173 
179 179.387 179.214 179.629 179.402 179.777 179.438 179.755 179.361 
179.665 179.256 179.52 179.068 179.255 179.877 179.716 180.101 179.945 
180.363 180.22 180.605 180.389 180.675 180.38 180.641 180.32 180.579 
180.188 180.37 179.89 180.002 180.609 180.461 180.918 180.719 181.173 
180.973 181.398 181.173 181.494 181.211 181.465 181.189 181.46 181.171 
181.396 180.987 181.105 180.6 180.671 181.185 182.255 181.687 181.568 
183.284 182.75 182.648 182.035 181.839 184.274 183.719 183.608 183.073 
182.904 182.284 182.042 185.31 184.686 184.497 183.975 183.847 183.312 
183.076 182.426 182.103 186.338 185.717 185.457 184.862 184.698 184.207 
184.009 183.414 183.048 182.387 182.031 187.234 186.731 186.508 185.855 
185.611 185.05 184.827 184.278 183.926 183.292 182.897 182.298 182.002 
187.836 187.563 187.44 186.887 186.61 185.986 185.687 185.089 184.726 
184.112 183.709 183.129 182.788 182.261 181.944 188.064 188.025 187.984 
187.672 187.406 186.895 186.536 185.951 185.542 184.916 184.47 183.878 
183.471 182.962 182.573 182.083 181.653 188.038 188.132 188.147 188.039 
187.799 187.478 187.072 186.64 186.181 185.668 185.161 184.59 184.079 
183.552 183.078 182.608 182.133 181.667 181.19 181.083 181.167 181.46 
182.13 181.272 181.514 182.209 182.533 183.192 181.536 181.641 182.269 
182.595 183.385 183.659 184.307 181.845 181.917 182.439 182.686 183.502 
183.874 184.718 184.877 185.468 181.937 182.137 182.626 182.857 183.576 
183.974 184.835 185.207 185.906 186.01 186.473 181.756 182.094 182.587 
182.919 183.534 183.96 184.679 185.156 185.801 186.179 186.66 186.851 
187.219 181.441 181.832 182.279 182.696 183.218 183.723 184.314 184.843 
185.37 185.85 186.282 186.714 187.09 187.404 187.693 181.059 181.475 
181.88 182.293 182.727 183.235 183.748 184.322 184.804 185.323 185.718 
186.198 186.568 187.028 187.338 187.688 187.871 180.605 181.053 181.468 
181.878 182.287 182.723 183.186 183.703 184.183 184.71 185.134 185.624 
186.014 186.479 186.819 187.219 187.438 187.74 187.84 171.827 172.759 
172.451 172.805 173.764 173.444 173.845 173.514 173.92 174.84 174.499 
174.888 174.553 174.926 174.623 174.99 175.943 175.603 175.979 175.605 
175.933 175.589 175.938 175.642 175.982 176.989 176.692 177.097 176.725 
177.077 176.66 177.03 176.652 177.067 176.693 177.063 177.915 177.687 
178.116 177.824 178.253 177.878 178.321 177.89 178.326 177.882 178.258 
177.813 178.118 178.726 178.563 179.019 178.801 179.278 179.021 179.534 
179.208 179.65 179.2 179.472 178.975 179.151 178.738 178.933 179.452 
179.347 179.847 179.683 180.169 179.982 180.481 180.29 180.718 180.404 
180.606 180.125 180.17 179.693 179.792 179.444 179.645 180.099 180.046 
180.557 180.463 180.931 180.801 181.235 181.103 181.467 181.274 181.452 
181.097 181.11 180.663 180.72 180.325 180.53 180.198 180.457 171.389 
170.854 171.543 172.289 170.07 170.976 171.871 172.496 173.286 169.062 
170.19 171.326 172.101 172.998 173.558 174.377 167.94 169.179 170.53 
171.549 172.614 173.288 174.148 174.677 175.48 166.993 168.107 169.513 
170.698 171.944 172.841 173.797 174.429 175.257 175.779 176.538 166.446 
167.301 168.617 169.716 171.044 172.089 173.194 174.005 174.92 175.539 
176.34 176.817 177.497 166.203 166.866 168.037 168.934 170.186 171.197 
172.368 173.32 174.354 175.143 176.02 176.598 177.294 177.716 178.298 
166.125 166.66 167.706 168.419 169.526 170.395 171.499 172.459 173.539 
174.481 175.457 176.207 176.959 177.469 178.045 178.452 178.986 166.215 
166.627 167.594 168.137 169.136 169.812 170.825 171.642 172.696 173.632 
174.684 175.567 176.441 177.083 177.717 178.169 178.703 179.112 179.632 
166.641 167.763 167.444 167.984 168.944 168.616 169.157 168.844 169.453 
170.174 169.842 170.438 170.081 170.676 170.361 171.057 171.501 171.133 
171.779 171.418 172.053 171.668 172.344 172.047 172.869 172.924 172.516 
173.15 172.781 173.437 173.07 173.758 173.416 174.208 173.957 174.836 
174.336 173.946 174.553 174.165 174.792 174.433 175.115 174.807 175.572 
175.314 176.109 175.882 176.604 175.595 175.284 175.88 175.539 176.147 
175.789 176.437 176.122 176.836 176.593 177.308 177.081 177.686 177.437 
177.908 176.701 176.45 177.036 176.778 177.395 177.106 177.734 177.423 
178.053 177.781 178.405 178.173 178.715 178.455 178.875 178.577 178.92 
177.747 177.515 178.105 177.878 178.506 178.281 178.909 178.65 179.226 
178.94 179.471 179.207 179.701 179.441 179.857 179.552 179.889 179.556 
179.858 178.535 179.97 179.137 178.941 181.482 180.646 180.444 179.572 
179.364 182.795 182.087 181.886 181.078 180.832 179.991 179.761 183.868 
183.26 183.057 182.389 182.149 181.4 181.13 180.333 180.057 184.928 
184.33 184.169 183.503 183.311 182.624 182.394 181.649 181.36 180.565 
180.265 185.966 185.457 185.392 184.702 184.517 183.792 183.583 182.872 
182.616 181.849 181.533 180.743 180.443 186.749 186.423 186.402 185.88 
185.639 184.966 184.641 183.984 183.676 183.02 182.679 181.959 181.599 
180.872 180.547 187.269 187.044 186.972 186.656 186.375 185.879 185.443 
184.878 184.449 183.904 183.498 182.93 182.517 181.906 181.518 180.886 
180.533 187.673 187.455 187.32 187.062 186.781 186.41 185.984 185.513 
185.054 184.555 184.108 183.596 183.154 182.644 182.239 181.725 181.362 
180.803 180.46 178.55 178.983 179.165 179.982 179.395 179.615 180.492 
180.676 181.5 179.804 180.054 180.987 181.204 182.091 182.202 182.891 
180.13 180.466 181.487 181.758 182.747 182.862 183.622 183.54 184.051 
180.238 180.708 181.797 182.24 183.334 183.569 184.383 184.32 184.807 
184.62 185.035 180.141 180.698 181.761 182.389 183.487 183.989 184.789 
184.948 185.343 185.265 185.546 185.504 185.906 179.922 180.509 181.48 
182.174 183.164 183.849 184.58 185.019 185.368 185.534 185.749 185.84 
186.172 186.28 186.667 179.633 180.215 181.087 181.764 182.635 183.341 
184.022 184.577 184.971 185.323 185.634 185.895 186.31 186.496 186.929 
186.991 187.299 179.343 179.88 180.656 181.281 182.062 182.738 183.42 
183.999 184.479 184.896 185.307 185.693 186.217 186.574 187.099 187.268 
187.621 187.59 187.777 177.761 176.658 177.521 178.128 175.448 176.351 
176.946 177.859 178.494 174.181 175.109 175.693 176.627 177.264 178.217 
178.868 172.801 173.802 174.388 175.35 175.973 176.953 177.612 178.574 
179.174 171.228 172.302 172.863 173.948 174.562 175.624 176.289 177.297 
177.9 178.815 179.301 169.668 170.656 171.13 172.264 172.857 174.071 
174.761 175.917 176.554 177.529 178.002 178.858 179.238 168.348 169.179 
169.605 170.568 171.117 172.272 172.966 174.242 174.934 176.091 176.591 
177.527 177.869 178.723 179.04 167.21 167.97 168.449 169.254 169.813 
170.713 171.348 172.446 173.129 174.343 174.911 176.004 176.374 177.303 
177.599 178.48 178.781 166.187 166.904 167.435 168.222 168.835 169.622 
170.209 171.035 171.601 172.598 173.169 174.269 174.744 175.757 176.115 
177.027 177.358 178.23 178.545 165.821 165.75 166.195 167.093 165.753 
166.172 167.125 167.601 168.557 165.893 166.222 167.168 167.652 168.658 
169.087 169.953 166.259 166.467 167.367 167.738 168.713 169.149 170.026 
170.4 171.223 166.707 166.897 167.759 168.02 168.918 169.24 170.096 
170.446 171.296 171.698 172.647 167.072 167.298 168.123 168.394 169.233 
169.497 170.324 170.602 171.485 171.829 172.8 173.216 174.213 167.471 
167.643 168.435 168.689 169.508 169.782 170.604 170.882 171.773 172.097 
173.069 173.427 174.39 174.759 175.648 168.018 168.106 168.877 169.035 
169.845 170.064 170.896 171.162 172.033 172.365 173.291 173.669 174.591 
174.953 175.815 176.14 176.938 168.611 168.682 169.42 169.528 170.306 
170.466 171.288 171.499 172.342 172.611 173.47 173.818 174.699 175.094 
175.962 176.321 177.13 177.421 178.156 169.149 170.212 169.774 169.974 
171.419 170.901 171.147 170.659 170.883 172.914 172.254 172.532 171.944 
172.229 171.658 171.902 174.583 173.878 174.172 173.486 173.803 173.135 
173.402 172.741 172.97 176.147 175.532 175.839 175.183 175.507 174.814 
175.081 174.338 174.532 173.825 174.056 177.515 177.01 177.328 176.771 
177.106 176.498 176.801 176.078 176.285 175.483 175.683 174.964 175.259 
178.689 178.295 178.627 178.165 178.502 177.999 178.346 177.756 178.043 
177.295 177.52 176.71 176.973 176.24 176.549 179.655 179.37 179.715 
179.366 179.691 179.289 179.616 179.176 179.489 178.946 179.195 178.516 
178.73 177.996 178.223 177.508 177.731 180.495 180.259 180.604 180.345 
180.664 180.358 180.65 180.31 180.589 180.208 180.445 179.975 180.149 
179.583 179.727 179.101 179.24 178.584 178.719 179.444 179.958 180.027 
180.703 180.424 180.516 181.192 181.31 182.045 180.821 180.951 181.643 
181.792 182.545 182.68 183.38 181.097 181.297 182.006 182.221 182.997 
183.171 183.86 183.933 184.454 181.226 181.496 182.197 182.505 183.268 
183.544 184.219 184.36 184.885 184.905 185.341 181.266 181.564 182.234 
182.596 183.33 183.693 184.352 184.602 185.161 185.303 185.853 185.871 
186.36 181.254 181.564 182.196 182.567 183.283 183.683 184.37 184.676 
185.269 185.503 186.12 186.328 186.931 186.945 187.326 181.183 181.514 
182.114 182.485 183.158 183.585 184.292 184.677 185.311 185.596 186.193 
186.483 187.088 187.329 187.752 187.737 187.862 181.073 181.416 181.998 
182.364 182.968 183.392 184.028 184.502 185.125 185.548 186.098 186.458 
186.972 187.312 187.733 187.933 188.107 188.051 187.998 157.57 158.016 
157.482 157.002 158.855 158.145 157.764 157.154 157.054 160.014 159.218 
158.949 158.206 158.165 157.623 157.926 161.254 160.478 160.245 159.513 
159.449 158.846 158.968 158.59 158.906 162.524 161.763 161.59 160.848 
160.791 160.125 160.137 159.584 159.672 159.371 159.661 163.895 163.128 
163.082 162.306 162.36 161.587 161.69 160.906 161.025 160.344 160.628 
160.246 160.789 165.313 164.575 164.598 163.872 163.999 163.263 163.451 
162.65 162.855 162.013 162.32 161.617 162.135 161.689 162.351 166.689 
165.997 166.008 165.347 165.451 164.83 165 164.357 164.532 163.831 
164.043 163.374 163.721 163.185 163.664 163.276 163.813 167.956 167.331 
167.322 166.691 166.752 166.174 166.322 165.769 165.929 165.334 165.474 
164.884 165.095 164.6 164.929 164.528 164.93 164.602 165.048 157.269 
156.686 156.866 156.842 156.71 156.494 156.526 156.694 156.976 157.642 
156.996 156.964 156.711 157.074 157.171 157.665 158.811 158.212 158.193 
157.592 157.834 157.569 158.08 158.078 158.622 159.691 159.307 159.462 
158.947 159.118 158.605 158.963 158.701 159.236 159.158 159.748 160.751 
160.24 160.503 160.109 160.378 159.901 160.171 159.745 160.181 159.934 
160.505 160.397 161.048 162.219 161.52 161.722 161.216 161.538 161.093 
161.404 160.957 161.334 160.984 161.498 161.267 161.865 161.753 162.418 
163.684 163.015 163.149 162.555 162.832 162.32 162.651 162.179 162.548 
162.148 162.614 162.313 162.868 162.65 163.264 163.143 163.811 164.955 
164.38 164.528 163.966 164.219 163.678 163.989 163.473 163.822 163.368 
163.793 163.438 163.956 163.687 164.272 164.067 164.696 164.561 165.219 
157.567 157.127 157.449 157.752 157.184 157.187 157.433 157.676 158.123 
157.779 157.493 157.681 157.617 158.102 158.365 159.21 158.682 158.251 
158.442 158.157 158.655 158.664 159.554 159.838 160.909 159.814 159.284 
159.537 159.124 159.642 159.458 160.281 160.369 161.377 161.633 162.701 
161.154 160.57 160.897 160.394 160.922 160.582 161.308 161.192 162.083 
162.181 163.237 163.5 164.715 162.545 161.986 162.353 161.847 162.349 
161.927 162.56 162.281 163.092 163.009 164.07 164.199 165.496 165.748 
167.067 163.932 163.39 163.767 163.288 163.767 163.334 163.915 163.564 
164.346 164.152 165.221 165.221 166.525 166.671 167.985 168.129 169.189 
165.327 164.79 165.175 164.692 165.185 164.739 165.337 164.946 165.748 
165.498 166.577 166.493 167.74 167.772 168.975 169.042 170.016 170.02 
170.705 177.285 176.224 176.575 176.188 175.072 175.449 175.003 175.39 
174.958 173.773 174.199 173.684 174.111 173.616 174.076 173.638 172.341 
172.801 172.255 172.713 172.158 172.634 172.127 172.672 172.213 170.885 
171.317 170.762 171.24 170.678 171.139 170.567 171.078 170.573 171.162 
170.677 169.539 169.881 169.282 169.731 169.177 169.646 169.069 169.53 
168.996 169.528 169.085 169.645 169.207 168.327 168.589 167.934 168.285 
167.69 168.133 167.568 168.034 167.509 168.01 167.586 168.13 167.76 
168.278 167.907 167.164 167.4 166.715 166.987 166.339 166.691 166.107 
166.541 166.032 166.533 166.116 166.668 166.312 166.86 166.508 167.037 
166.718 166.04 166.244 165.557 165.792 165.136 165.411 164.816 165.159 
164.655 165.093 164.685 165.207 164.861 165.414 165.083 165.629 165.327 
165.887 165.664 
POINT_DATA 1002
SCALARS Distance double
LOOKUP_TABLE default
169.569 168.55 168.416 169.478 168.329 170.648 169.479 168.364 170.695 
171.979 169.64 168.527 170.908 172.266 173.616 169.961 168.855 171.284 
172.693 174.029 175.265 170.457 169.408 171.744 173.158 174.447 175.621 
176.714 171.067 170.053 172.221 173.548 174.804 175.932 177.005 177.981 
171.616 170.608 172.684 173.878 175.081 176.21 177.265 178.208 179.036 
172.019 171.065 173.084 174.238 175.361 176.446 177.503 178.423 179.2 
179.911 172.334 171.469 173.383 174.566 175.668 176.654 177.661 178.615 
179.402 180.089 180.73 167.365 167.189 166.029 165.804 164.62 167.124 
164.384 163.25 165.75 167.197 163.091 162.006 164.338 165.842 167.387 
161.867 160.794 163.027 164.438 166.088 167.777 160.577 159.571 161.711 
163.132 164.777 166.532 168.361 159.491 158.591 160.475 161.9 163.624 
165.295 167.089 168.994 158.867 158.017 159.673 160.893 162.615 164.284 
165.889 167.778 169.636 158.495 157.705 159.242 160.241 161.753 163.426 
164.987 166.736 168.651 170.275 157.885 158.645 158.024 158.992 158.69 
159.589 160.013 160.195 160.283 160.913 161.624 161.961 161.485 161.811 
162.565 163.485 163.776 163.231 163.205 163.627 164.31 165.684 166.011 
165.475 165.345 165.4 165.734 166.198 167.942 168.316 167.72 167.639 
167.547 167.565 167.821 168.198 169.668 170.058 169.369 169.293 169.227 
169.081 169.175 169.541 169.925 170.887 171.254 170.54 170.417 170.402 
170.23 170.132 170.42 170.866 171.205 172.368 172.126 173.388 171.762 
173.178 174.498 171.328 172.813 174.268 175.536 171.211 172.431 173.768 
175.178 176.564 171.442 172.444 173.304 174.497 176.167 177.674 171.567 
172.741 173.425 174.113 175.645 177.43 178.636 171.585 172.911 173.915 
174.497 175.585 177.224 178.538 179.352 171.789 173.004 174.233 175.097 
176.001 177.266 178.436 179.275 180.016 172.12 173.176 174.341 175.347 
176.306 177.405 178.396 179.139 179.869 180.707 173.358 174.496 174.568 
175.592 175.703 175.789 176.668 176.72 176.83 176.817 177.839 177.879 
177.894 177.881 177.807 178.832 179.019 179.115 179.059 178.962 178.84 
179.536 179.797 180.075 180.146 180.066 179.971 179.752 180.264 180.505 
180.791 180.951 180.934 180.927 180.844 180.519 181.104 181.389 181.626 
181.781 181.753 181.71 181.746 181.603 181.196 181.745 182.214 182.808 
183.229 183.818 182.505 184.112 184.895 183.488 182.722 185.055 185.984 
184.329 183.73 182.778 186.115 186.919 185.206 184.566 183.737 182.634 
187.164 187.624 186.249 185.384 184.536 183.509 182.553 187.906 187.984 
187.254 186.331 185.352 184.295 183.327 182.487 188.19 188.024 187.862 
187.106 186.175 185.104 184.014 183.074 182.162 188.184 187.909 188.07 
187.469 186.643 185.728 184.655 183.571 182.592 181.647 180.798 181.839 
180.866 181.839 181.115 182.952 181.973 181.524 182.997 184.209 182.257 
181.759 183.091 184.421 185.53 182.399 181.657 183.226 184.414 185.675 
186.52 182.229 181.386 183.135 184.244 185.383 186.348 187.118 181.884 
181.056 182.728 183.794 184.907 185.823 186.68 187.476 181.489 180.634 
182.272 183.186 184.267 185.241 186.095 186.932 187.61 181.04 180.143 
181.878 182.714 183.66 184.626 185.54 186.413 187.118 187.588 172.113 
173.125 173.045 174.167 174.085 174.247 175.251 175.189 175.251 175.287 
176.374 176.271 176.32 176.235 176.297 177.436 177.265 177.487 177.431 
177.428 177.482 178.364 178.122 178.554 178.722 178.815 178.739 178.557 
179.208 178.853 179.49 179.793 180.091 180.049 179.634 179.267 179.984 
179.523 180.354 180.666 180.99 181.078 180.696 180.183 179.93 170.808 
171.715 170.047 171.171 168.994 172.734 170.406 167.788 172.406 173.862 
169.346 166.689 171.84 173.603 174.987 168.287 166.004 170.909 173.088 
174.705 176.084 167.613 165.724 169.953 172.273 174.227 175.834 177.109 
167.262 165.623 169.238 171.37 173.465 175.375 176.857 177.923 167.096 
165.656 168.76 170.582 172.548 174.608 176.393 177.631 178.585 167.132 