# vtk DataFile Version 4.0
vtk output
ASCII
DATASET POLYDATA
POINTS 1002 float
-118.468 -115.777 51.0098 -118.353 -114.769 50.0311 -117.839 -115.065 50.2875 
-117.994 -116.178 51.3335 -117.385 -115.353 50.7116 -118.593 -117.001 52.0055 
-117.486 -116.588 51.8548 -116.948 -115.632 51.4003 -118.07 -117.512 52.4551 
-118.699 -118.422 53.0652 -116.968 -117.02 52.5962 -116.476 -116.009 52.2309 
-117.467 -118.071 53.0598 -118.063 -118.991 53.6791 -118.728 -119.809 54.4159 
-116.462 -117.553 53.3843 -115.921 -116.628 52.9375 -116.923 -118.651 53.7867 
-117.413 -119.616 54.3898 -117.987 -120.436 55.1774 -118.582 -121.175 56.0683 
-115.893 -118.27 54.0977 -115.34 -117.441 53.5738 -116.395 -119.273 54.5863 
-116.87 -120.242 55.2453 -117.333 -121.129 56.0363 -117.822 -121.977 56.8292 
-118.335 -122.806 57.532 -115.329 -119.04 54.9164 -114.881 -118.196 54.4008 
-115.778 -119.978 55.4642 -116.258 -120.907 56.2 -116.749 -121.836 57.0219 
-117.218 -122.796 57.6793 -117.697 -123.675 58.2095 -118.202 -124.501 58.6051 
-114.879 -119.692 55.9055 -114.51 -118.846 55.3284 -115.237 -120.637 56.4757 
-115.61 -121.606 57.1421 -116.06 -122.567 57.9066 -116.601 -123.556 58.5233 
-117.153 -124.429 58.9874 -117.663 -125.118 59.4269 -118.134 -125.745 59.7703 
-114.414 -120.337 56.7984 -114.058 -119.57 56.1059 -114.798 -121.213 57.4755 
-115.154 -122.2 58.0938 -115.473 -123.219 58.6892 -115.903 -124.212 59.241 
-116.475 -125.062 59.7491 -117.027 -125.649 60.3037 -117.496 -126.086 60.8487 
-117.915 -126.492 61.2688 -113.855 -121.08 57.4671 -113.527 -120.379 56.7394 
-114.289 -121.838 58.2451 -114.757 -122.723 58.9616 -115.099 -123.709 59.5467 
-115.374 -124.683 60.0532 -115.77 -125.535 60.5782 -116.242 -126.143 61.1713 
-116.683 -126.52 61.7915 -117.111 -126.817 62.3401 -117.542 -127.084 62.7728 
-117.873 -113.936 49.2097 -117.307 -114.165 49.5452 -117.35 -112.975 48.44 
-116.747 -113.151 48.892 -116.812 -111.998 47.7409 -116.861 -114.397 50.103 
-116.183 -112.138 48.2884 -116.223 -111.053 47.1484 -116.282 -113.422 49.5395 
-116.429 -114.699 50.8798 -115.641 -111.167 47.8094 -115.627 -110.074 46.8516 
-115.67 -112.461 48.9855 -115.759 -113.87 50.2623 -115.87 -115.203 51.6446 
-115.143 -110.239 47.6525 -115.069 -109.109 46.9001 -115.119 -111.476 48.6285 
-115.048 -112.963 49.7226 -115.092 -114.49 50.9384 -115.226 -115.954 52.2857 
-114.542 -109.397 47.7047 -114.487 -108.245 47.0619 -114.555 -110.587 48.5173 
-114.465 -111.963 49.4773 -114.42 -113.559 50.5317 -114.511 -115.205 51.7279 
-114.706 -116.762 53.0659 -113.815 -108.62 47.7617 -113.94 -107.498 47.2594 
-113.789 -109.848 48.4268 -113.832 -111.183 49.2964 -113.919 -112.631 50.3715 
-113.998 -114.248 51.5245 -114.135 -115.924 52.741 -114.36 -117.469 54.0388 
-113.226 -107.929 47.9605 -113.533 -106.912 47.6578 -113.039 -109.151 48.4296 
-113.072 -110.582 49.1194 -113.305 -112.006 50.1289 -113.521 -113.431 51.3287 
-113.635 -115.036 52.5173 -113.811 -116.693 53.7033 -114.004 -118.213 54.9206 
-112.86 -107.396 48.4618 -113.188 -106.508 48.3181 -112.611 -108.526 48.7555 
-112.531 -109.966 49.2608 -112.674 -111.448 50.0598 -112.926 -112.794 51.0984 
-113.096 -114.276 52.2058 -113.232 -115.972 53.3237 -113.418 -117.622 54.4797 
-113.532 -119.094 55.6391 -112.601 -106.721 49.2132 -112.423 -107.743 49.349 
-112.137 -107.128 50.2085 -112.202 -108.468 50.4333 -111.944 -108.013 51.3094 
-112.335 -109.139 49.7166 -111.993 -109.631 51.8414 -111.785 -109.404 52.878 
-112.196 -110.027 51.0539 -112.314 -110.684 50.3897 -111.584 -110.988 53.7159 
-111.519 -110.941 54.9719 -111.905 -110.999 52.7194 -112.16 -111.314 51.9028 
-112.421 -112.05 51.2545 -111.506 -112.352 55.4792 -111.701 -112.35 56.5548 
-111.739 -112.124 54.3834 -112.125 -112.061 53.4824 -112.33 -112.643 52.6647 
-112.603 -113.552 52.1708 -112.348 -113.727 56.2926 -112.676 -113.64 56.9155 
-112.32 -113.637 55.4934 -112.541 -113.517 54.7817 -112.604 -113.88 54.1074 
-112.53 -114.723 53.451 -112.738 -115.479 53.1873 -113.522 -115.083 56.6058 
-113.792 -114.899 56.9508 -113.318 -115.295 56.1621 -113.183 -115.449 55.7731 
-112.963 -115.765 55.4546 -112.625 -116.402 54.9788 -112.522 -117.04 54.5009 
-112.862 -117.407 54.3576 -114.098 -116.411 57.4114 -114.352 -116.2 57.6294 
-113.815 -116.749 57.143 -113.427 -117.065 56.8886 -112.931 -117.379 56.7181 
-112.456 -117.867 56.4805 -112.251 -118.451 56.0752 -112.466 -118.864 55.7112 
-112.97 -119.036 55.5807 -114.028 -117.729 58.6981 -114.377 -117.528 58.7935 
-113.652 -118.013 58.5508 -113.184 -118.25 58.3407 -112.615 -118.426 58.0945 
-112.104 -118.763 57.8159 -111.896 -119.338 57.502 -112.076 -119.925 57.1771 
-112.501 -120.298 56.8968 -113.009 -120.415 56.7454 -113.2 -121.616 57.8638 
-112.728 -121.638 58.0347 -113.011 -122.791 59.2093 -112.293 -121.409 58.3004 
-112.626 -122.78 59.5549 -112.877 -123.935 60.7544 -111.888 -120.896 58.5385 
-112.215 -122.618 59.8363 -112.445 -124.008 61.2159 -112.49 -125.297 62.3364 
-111.705 -120.197 58.8292 -111.806 -122.212 60.0316 -111.898 -124.08 61.5078 
-111.892 -125.461 62.8568 -111.925 -126.884 63.8209 -111.918 -119.619 59.2788 
-111.699 -121.499 60.4495 -111.527 -123.789 61.8199 -111.292 -125.52 63.2654 
-111.297 -126.926 64.4274 -111.426 -128.279 65.303 -112.384 -119.414 59.6943 
-111.939 -120.882 60.9971 -111.621 -123.012 62.3352 -111.167 -125.084 63.7367 
-110.928 -126.7 65.0224 -110.857 -128.14 66.0454 -110.733 -129.166 66.9096 
-112.903 -119.374 59.9116 -112.334 -120.692 61.2542 -111.968 -122.356 62.658 
-111.491 -124.306 64.1253 -111.11 -126.113 65.5249 -110.81 -127.749 66.7636 
-110.273 -129.009 67.7509 -109.83 -129.591 68.5503 -113.423 -119.222 59.9837 
-112.851 -120.64 61.2254 -112.439 -122.085 62.5856 -111.928 -123.723 64.1536 
-111.469 -125.418 65.6947 -111.193 -127.088 67.1533 -110.587 -128.575 68.4514 
-109.7 -129.459 69.395 -109.294 -129.739 70.0237 -113.928 -118.995 59.9893 
-113.449 -120.472 61.1254 -113.058 -121.882 62.3705 -112.511 -123.347 63.9468 
-111.852 -124.858 65.5757 -111.498 -126.339 67.0907 -111.162 -127.785 68.6265 
-110.354 -128.923 69.9568 -109.535 -129.508 70.7868 -109.389 -129.761 71.1992 
-113.584 -122.358 58.6743 -113.391 -123.634 60.0702 -114.108 -123.174 59.5411 
-113.051 -125.024 61.6123 -113.798 -124.61 60.9812 -114.594 -124.113 60.3475 
-112.479 -126.658 63.1531 -113.175 -126.169 62.5256 -114.135 -125.539 61.9152 
-114.911 -125.05 61.043 -111.999 -128.22 64.6894 -112.546 -127.708 64.0967 
-113.433 -126.892 63.5747 -114.479 -126.257 62.8294 -115.205 -125.898 61.6928 
-111.483 -129.235 66.3573 -112.17 -128.924 65.7777 -112.885 -128.163 65.1974 
-113.902 -127.408 64.5727 -114.844 -126.972 63.594 -115.545 -126.614 62.3171 
-110.607 -129.649 68.0826 -111.662 -129.62 67.5641 -112.521 -129.294 66.8628 
-113.39 -128.696 66.0857 -114.339 -128.152 65.2214 -115.13 -127.673 64.0915 
-115.884 -127.108 62.8752 -109.855 -129.783 69.6199 -111.016 -129.897 69.1772 
-112.149 -130.014 68.4825 -113.042 -129.843 67.553 -113.919 -129.394 66.5992 
-114.736 -128.841 65.5538 -115.48 -128.173 64.4219 -116.297 -127.436 63.3703 
-109.757 -129.934 70.8305 -110.723 -130.115 70.4229 -111.874 -130.368 69.8052 
-112.85 -130.472 68.9075 -113.714 -130.266 67.9431 -114.542 -129.858 66.9289 
-115.28 -129.287 65.7944 -116.015 -128.511 64.7467 -116.806 -127.694 63.8172 
-110.053 -130.023 71.8985 -110.692 -130.435 71.4967 -111.058 -130.619 72.3687 
-111.656 -131.234 71.9263 -111.975 -131.221 72.6211 -111.637 -130.742 70.9691 
-112.397 -131.779 72.1555 -112.932 -131.246 72.6553 -112.394 -131.46 71.2655 
-112.627 -130.874 70.1482 -113.566 -131.712 72.1464 -114.378 -130.821 72.4668 
-113.226 -131.934 71.3711 -113.357 -131.342 70.3006 -113.581 -130.761 69.1813 
-115.387 -131.453 71.898 -116.042 -130.634 72.1821 -114.798 -132.134 71.2087 
-114.427 -131.89 70.1958 -114.408 -131.14 69.2515 -114.501 -130.527 68.2005 
-116.925 -131.31 71.5727 -117.351 -130.654 71.8682 -116.603 -132.091 70.8974 
-116.007 -132.31 69.8176 -115.444 -131.749 68.8875 -115.309 -130.964 68.1125 
-115.317 -130.181 67.0318 -117.852 -130.987 71.1488 -118.384 -130.41 71.4074 
-117.712 -131.689 70.5756 -117.442 -132.163 69.5133 -116.729 -131.999 68.3933 
-116.196 -131.345 67.6446 -116.104 -130.478 66.8922 -116.068 -129.495 65.8517 
-118.805 -130.468 70.5292 -119.441 -129.985 70.8111 -118.487 -131.036 70.0444 
-118.394 -131.549 69.2215 -117.986 -131.642 68.1537 -117.338 -131.216 67.2703 
-116.989 -130.434 66.644 -116.906 -129.476 65.8894 -116.836 -128.519 64.8945 
-120.002 -130.076 69.8708 -120.481 -129.659 70.2336 -119.56 -130.478 69.3209 
-119.306 -130.871 68.6469 -119.044 -131.033 67.8554 -118.569 -130.766 67.0549 
-118.091 -130.09 66.4282 -117.82 -129.196 65.8338 -117.675 -128.34 64.9831 
-117.58 -127.649 63.8957 -109.752 -129.429 72.0091 -110.386 -129.616 72.666 
-110.304 -128.712 72.5898 -110.87 -128.748 73.2553 -111.013 -127.935 72.6632 
-111.399 -130.08 73.0305 -111.686 -127.854 73.3873 -112.11 -127.522 72.145 
-112.018 -129.072 73.5687 -112.549 -130.457 73.1193 -112.943 -127.355 72.8686 
-113.387 -127.318 71.2655 -113.042 -128.143 73.6834 -113.512 -129.479 73.5236 
-113.872 -130.351 72.9581 -114.141 -127.122 71.8283 -114.338 -126.934 70.2586 
-114.214 -127.562 73.0543 -114.613 -128.666 73.5279 -115.017 -129.644 73.2502 
-115.418 -130.118 72.6841 -115.019 -126.91 70.5448 -115.107 -126.366 69.1383 
-115.134 -127.26 71.8322 -115.517 -127.911 72.7947 -116.009 -128.855 73.2286 
-116.49 -129.596 73.0004 -116.957 -130.141 72.427 -115.91 -126.512 69.2083 
-115.999 -125.676 67.9852 -115.947 -127.083 70.4396 -116.245 -127.383 71.5551 
-116.767 -127.817 72.5239 -117.387 -128.58 72.9897 -117.967 -129.43 72.6916 
-118.289 -130.069 72.0384 -116.835 -125.75 68.0027 -116.839 -124.863 66.9915 
-116.834 -126.592 69.1225 -116.991 -127.046 70.2239 -117.404 -127.159 71.3088 
-118.003 -127.469 72.2286 -118.684 -128.243 72.4863 -119.21 -129.122 72.0512 
-119.399 -129.701 71.4213 -117.552 -124.789 67.0241 -117.439 -124.042 66.1856 
-117.634 -125.637 67.9839 -117.744 -126.357 68.9806 -118.014 -126.727 69.955 
[...]
CELL_DATA 2000
SCALARS Distance double
LOOKUP_TABLE default
171.605 171.594 171.964 172.736 171.656 172.008 172.819 173.177 174.011 
171.803 172.122 172.953 173.297 174.15 174.506 175.369 172.037 172.325 
173.178 173.486 174.353 174.674 175.54 175.879 176.734 172.351 172.606 
173.479 173.762 174.653 174.936 175.822 176.105 176.986 177.275 178.137 
172.76 172.97 173.839 174.092 174.992 175.269 176.186 176.455 177.371 
177.617 178.508 178.739 179.588 173.234 173.414 174.267 174.483 175.365 
175.621 176.534 176.822 177.751 178.031 178.924 179.155 179.972 180.174 
180.912 173.688 173.874 174.707 174.92 175.789 176.019 176.901 177.161 
178.05 178.353 179.216 179.508 180.275 180.508 181.167 181.368 181.941 
174.097 174.286 175.087 175.323 176.18 176.433 177.298 177.536 178.37 
178.624 179.43 179.719 180.451 180.715 181.323 181.541 182.056 182.254 
182.709 170.885 169.71 170.464 170.814 168.48 169.247 169.612 170.424 
170.852 167.261 168.012 168.379 169.212 169.678 170.505 170.989 166.093 
166.814 167.174 167.988 168.468 169.325 169.837 170.674 171.199 165.039 
165.711 166.074 166.815 167.264 168.102 168.616 169.494 170.043 170.912 
171.494 164.073 164.72 165.082 165.764 166.168 166.926 167.418 168.27 
168.851 169.747 170.388 171.266 171.914 163.158 163.757 164.081 164.759 
165.147 165.874 166.366 167.152 167.763 168.61 169.302 170.184 170.9 
171.752 172.418 162.433 162.884 163.153 163.752 164.148 164.866 165.404 
166.177 166.813 167.612 168.306 169.149 169.883 170.752 171.469 172.283 
172.914 161.994 162.279 162.528 162.953 163.372 163.969 164.559 165.276 
165.936 166.699 167.372 168.18 168.894 169.754 170.496 171.343 172.033 
172.79 173.375 161.89 162.038 162.087 162.44 162.605 162.454 162.892 
162.829 163.337 163.66 163.292 163.768 163.518 164.031 163.912 164.537 
165.01 164.491 164.855 164.499 164.917 164.698 165.221 165.178 165.86 
166.527 165.886 166.134 165.624 165.959 165.609 166.065 165.897 166.525 
166.531 167.28 168.185 167.479 167.786 167.083 167.497 166.884 167.44 
166.971 167.656 167.378 168.163 168.058 168.864 169.857 169.203 169.632 
168.92 169.434 168.713 169.329 168.668 169.358 168.813 169.552 169.178 
169.956 169.746 170.518 171.393 170.846 171.288 170.727 171.183 170.602 
171.047 170.495 170.961 170.483 171.005 170.618 171.224 170.935 171.604 
171.397 172.065 172.741 172.274 172.631 172.191 172.509 172.061 172.285 
171.852 172.053 171.713 172.023 171.792 172.257 172.077 172.644 172.46 
173.045 172.857 173.41 174.158 173.858 174.417 175.236 173.475 174.104 
174.997 175.57 176.437 173.012 173.662 174.609 175.315 176.276 176.825 
177.697 172.655 173.179 174.104 174.885 175.96 176.646 177.585 178.087 
178.951 172.631 172.923 173.761 174.419 175.552 176.314 177.348 177.934 
178.815 179.33 180.183 172.906 173.051 173.797 174.215 175.285 175.964 
177.066 177.69 178.623 179.162 180.018 180.524 181.234 173.216 173.389 
174.095 174.358 175.287 175.796 176.859 177.45 178.444 178.993 179.907 
180.393 181.134 181.47 181.912 173.408 173.674 174.403 174.651 175.481 
175.855 176.807 177.303 178.27 178.82 179.773 180.312 181.14 181.478 
181.983 182.083 182.344 173.543 173.853 174.626 174.91 175.714 176.038 
176.906 177.302 178.175 178.647 179.521 180.096 180.946 181.451 182.061 
182.256 182.56 182.549 182.789 174.572 175.656 175.251 175.578 176.854 
176.407 176.766 176.342 176.709 178.106 177.651 178.028 177.59 177.987 
177.531 177.867 179.387 178.932 179.299 178.85 179.232 178.807 179.152 
178.668 178.933 180.661 180.244 180.597 180.108 180.41 179.983 180.312 
179.905 180.189 179.701 179.943 181.656 181.425 181.785 181.374 181.603 
181.128 181.395 181.005 181.321 180.911 181.16 180.68 180.898 182.171 
182.151 182.525 182.391 182.677 182.3 182.533 182.103 182.404 182.011 
182.272 181.831 181.998 181.545 181.705 182.48 182.477 182.865 182.934 
183.38 183.258 183.589 183.242 183.519 183.112 183.36 182.914 183.062 
182.588 182.695 182.265 182.397 182.939 182.835 183.259 183.292 183.857 
183.876 184.347 184.182 184.493 184.177 184.412 184.003 184.163 183.669 
183.763 183.264 183.362 182.925 183.039 183.397 184.47 183.852 183.818 
185.661 185.076 185.041 184.4 184.405 186.523 186.172 186.137 185.591 
185.475 184.93 184.853 187.11 186.895 186.95 186.544 186.399 185.877 
185.691 185.212 185.017 187.813 187.556 187.786 187.395 187.365 186.775 
186.563 186.002 185.785 185.279 184.99 188.546 188.332 188.621 188.333 
188.398 187.821 187.576 186.908 186.616 186.054 185.747 185.188 184.771 
188.943 188.87 189.02 188.987 189.035 188.736 188.433 187.851 187.401 
186.834 186.433 185.907 185.452 184.874 184.361 189.094 189.035 189.03 
189.09 189.094 189.073 188.824 188.484 187.972 187.472 186.953 186.481 
185.986 185.482 184.945 184.402 183.902 189.296 189.165 189.119 189.044 
189.011 189.001 188.852 188.695 188.292 187.909 187.366 186.911 186.375 
185.921 185.386 184.913 184.401 183.934 183.508 183.43 183.618 183.784 
184.369 183.58 183.845 184.44 184.797 185.483 183.583 183.763 184.347 
184.758 185.473 185.84 186.37 183.81 183.866 184.4 184.7 185.461 
185.822 186.411 186.591 186.959 183.944 184.092 184.549 184.802 185.528 
185.887 186.576 186.739 187.164 187.205 187.612 183.78 184.094 184.535 
184.841 185.43 185.864 186.55 186.903 187.432 187.53 187.935 187.977 
188.392 183.48 183.877 184.379 184.721 185.212 185.613 186.167 186.669 
187.232 187.642 188.108 188.303 188.66 188.708 188.935 183.109 183.561 
184.086 184.506 184.981 185.344 185.775 186.197 186.668 187.202 187.693 
188.189 188.572 188.847 189.046 189.087 189.154 182.64 183.119 183.584 
184.098 184.548 185.01 185.392 185.794 186.16 186.613 187.02 187.567 
187.949 188.459 188.705 189.017 189.126 189.223 189.293 173.891 174.852 
174.588 175.014 175.838 175.589 176.056 175.744 176.16 176.815 176.585 
177.11 176.829 177.303 176.946 177.368 177.864 177.601 178.155 177.894 
178.412 178.103 178.542 178.165 178.576 178.979 178.695 179.234 178.957 
179.486 179.202 179.657 179.307 179.707 179.353 179.826 179.998 179.769 
180.275 180.024 180.556 180.295 180.794 180.44 180.845 180.462 180.919 
180.637 181.181 180.839 180.683 181.154 180.976 181.502 181.334 181.886 
181.606 182.013 181.606 181.952 181.649 182.084 181.899 182.273 181.545 
181.441 181.894 181.764 182.253 182.17 182.706 182.59 182.966 182.669 
182.841 182.531 182.737 182.593 182.834 182.699 182.791 182.16 182.102 
182.572 182.468 182.924 182.839 183.297 183.247 183.579 183.415 183.498 
183.222 183.251 183.075 183.224 183.127 183.255 183.054 183.063 173.314 
172.701 173.437 174.278 172.003 172.821 173.707 174.426 175.249 171.15 
172.097 173.043 173.835 174.697 175.392 176.21 170.154 171.206 172.293 
173.184 174.138 174.86 175.746 176.401 177.269 169.253 170.233 171.444 
172.454 173.588 174.382 175.354 175.996 176.913 177.531 178.41 168.717 
169.453 170.605 171.616 172.879 173.842 174.938 175.656 176.573 177.188 
178.067 178.671 179.468 168.565 169.058 170.047 170.858 172.064 173.074 
174.26 175.161 176.132 176.825 177.671 178.297 179.108 179.676 180.362 
168.628 168.988 169.875 170.442 171.509 172.32 173.47 174.399 175.464 
176.295 177.202 177.885 178.702 179.3 180.026 180.521 181.103 168.774 
169.078 169.918 170.356 171.316 171.904 172.935 173.69 174.749 175.593 
176.595 177.373 178.251 178.897 179.644 180.176 180.788 181.22 181.721 
169.121 170.069 169.8 170.294 171.132 170.822 171.353 171.093 171.679 
172.286 171.928 172.442 172.177 172.784 172.546 173.214 173.5 173.115 
173.616 173.301 173.93 173.678 174.387 174.161 174.941 174.739 174.365 
174.922 174.558 175.225 174.912 175.667 175.394 176.197 175.969 176.779 
175.992 175.648 176.275 175.923 176.617 176.283 177.026 176.723 177.494 
177.24 178.011 177.777 178.471 177.221 176.924 177.572 177.266 177.944 
177.646 178.34 178.054 178.755 178.497 179.195 178.962 179.599 179.341 
179.867 178.409 178.148 178.81 178.531 179.185 178.904 179.563 179.297 
179.969 179.714 180.369 180.108 180.687 180.41 180.88 180.595 180.985 
179.575 179.331 180.008 179.749 180.398 180.114 180.742 180.473 181.117 
180.88 181.509 181.253 181.777 181.471 181.873 181.558 181.894 181.605 
181.908 180.437 181.833 181.069 180.885 183.141 182.453 182.323 181.519 
181.291 184.457 183.762 183.69 182.94 182.739 181.894 181.629 185.839 
185.106 184.998 184.278 184.096 183.308 183.056 182.222 181.98 187.011 
186.383 186.184 185.532 185.315 184.6 184.332 183.576 183.32 182.558 
182.324 187.825 187.325 187.078 186.564 186.33 185.733 185.433 184.747 
184.427 183.756 183.472 182.802 182.51 188.518 188.039 187.778 187.317 
187.095 186.622 186.353 185.762 185.41 184.762 184.421 183.803 183.481 
182.859 182.526 189.112 188.722 188.48 188.016 187.781 187.321 187.071 
186.576 186.257 185.682 185.337 184.725 184.401 183.775 183.448 182.822 
182.503 189.367 189.202 189.031 188.7 188.482 188.027 187.741 187.244 
186.906 186.414 186.074 185.573 185.256 184.696 184.371 183.748 183.411 
182.793 182.486 180.457 180.987 181.104 181.846 181.439 181.61 182.293 
182.413 183.087 181.579 181.923 182.586 182.785 183.465 183.648 184.397 
181.423 181.913 182.674 183.003 183.809 184.073 184.983 185.124 185.917 
181.293 181.789 182.717 183.113 184.093 184.461 185.533 185.791 186.695 
186.679 187.23 181.288 181.785 182.81 183.247 184.271 184.722 185.777 
186.22 187.126 187.343 187.906 187.808 188.089 181.208 181.774 182.77 
183.308 184.252 184.779 185.67 186.217 187.01 187.476 188.081 188.294 
188.672 188.566 188.781 180.987 181.585 182.501 183.119 183.995 184.589 
185.386 185.94 186.641 187.164 187.8 188.25 188.786 188.994 189.314 
189.207 189.333 180.729 181.293 182.148 182.757 183.605 184.224 185.029 
185.596 186.296 186.787 187.404 187.895 188.48 188.92 189.33 189.515 
189.627 189.553 189.497 179.575 178.276 179.308 180.073 176.849 177.89 
178.64 179.792 180.535 175.487 176.402 176.984 178.181 178.928 180.131 
180.691 174.242 175.051 175.476 176.494 177.11 178.348 178.96 180.102 
180.5 172.963 173.778 174.183 175.072 175.614 176.634 177.223 178.312 
178.806 179.853 180.28 171.723 172.485 172.9 173.783 174.361 175.303 
175.906 176.805 177.307 178.219 178.696 179.71 180.225 170.751 171.372 
171.751 172.517 173.062 174.023 174.664 175.604 176.119 176.922 177.341 
178.203 178.687 179.695 180.192 169.933 170.52 170.875 171.486 171.921 
172.731 173.322 174.294 174.872 175.757 176.188 176.968 177.376 178.233 
178.693 179.644 180.063 169.049 169.691 170.062 170.66 171.05 171.7 
172.208 173.02 173.619 174.499 175.038 175.842 176.283 177.037 177.451 
178.251 178.655 179.517 179.877 168.643 168.45 168.934 169.711 168.422 
168.831 169.657 170.053 170.794 168.489 168.878 169.752 170.123 170.96 
171.235 171.999 168.59 168.957 169.872 170.278 171.192 171.503 172.328 
172.549 173.357 168.971 169.167 170.085 170.423 171.365 171.728 172.604 
172.893 173.705 173.949 174.75 169.698 169.743 170.626 170.772 171.659 
171.914 172.782 173.11 173.96 174.268 175.069 175.307 176.036 170.412 
170.494 171.312 171.399 172.18 172.294 173.061 173.294 174.117 174.456 
175.274 175.58 176.304 176.522 177.183 170.924 171.073 171.817 171.973 
172.682 172.802 173.481 173.627 174.357 174.614 175.385 175.707 176.425 
176.718 177.379 177.627 178.299 171.376 171.501 172.194 172.362 173.055 
173.219 173.91 174.052 174.753 174.913 175.624 175.839 176.538 176.803 
177.495 177.78 178.488 178.759 179.476 171.886 172.991 172.499 172.683 
174.282 173.702 173.874 173.347 173.552 175.675 175.083 175.292 174.663 
174.855 174.272 174.466 177.044 176.495 176.736 176.124 176.31 175.67 
175.829 175.208 175.354 178.429 177.876 178.135 177.543 177.72 177.099 
177.232 176.603 176.706 176.077 176.188 179.874 179.317 179.628 178.998 
179.213 178.528 178.684 178.01 178.145 177.47 177.571 176.917 177.051 
181.195 180.744 181.102 180.542 180.82 180.12 180.309 179.559 179.746 
179.007 179.184 178.423 178.569 177.851 178.029 182.209 181.919 182.265 
181.899 182.193 181.674 181.86 181.196 181.345 180.646 180.84 180.117 
180.303 179.515 179.671 178.903 179.078 182.962 182.774 183.087 182.867 
183.151 182.843 183.042 182.578 182.69 182.121 182.251 181.669 181.851 
181.208 181.359 180.611 180.725 179.959 180.086 180.867 181.543 181.558 
182.274 182.169 182.238 182.974 182.995 183.717 182.612 182.778 183.54 
183.667 184.433 184.461 185.155 182.964 183.143 183.909 184.14 184.951 
185.117 185.843 185.852 186.426 183.351 183.496 184.23 184.465 185.258 
185.513 186.237 186.4 186.986 187.002 187.49 183.626 183.824 184.492 
184.753 185.489 185.76 186.433 186.655 187.239 187.407 187.949 188.016 
188.515 183.67 183.947 184.53 184.876 185.556 185.906 186.557 186.812 
187.371 187.575 188.107 188.313 188.811 188.946 189.321 183.587 183.886 
184.419 184.786 185.411 185.834 186.482 186.854 187.427 187.689 188.164 
188.378 188.763 188.991 189.263 189.458 189.58 183.454 183.766 184.287 
184.641 185.227 185.631 186.243 186.671 187.258 187.642 188.134 188.393 
188.707 188.863 189.017 189.19 189.259 189.454 189.445 161.793 162.182 
161.826 161.569 162.837 162.311 162.009 161.623 161.415 163.707 163.07 
162.755 162.22 162.045 161.627 161.591 164.715 164.03 163.745 163.106 
162.969 162.444 162.45 162.015 162.149 165.874 165.169 164.987 164.248 
164.119 163.478 163.491 162.987 163.114 162.71 162.983 167.105 166.439 
166.378 165.631 165.527 164.754 164.716 164.093 164.225 163.749 164.007 
163.645 164.053 168.329 167.705 167.696 167.035 166.964 166.203 166.111 
165.397 165.491 164.942 165.224 164.765 165.136 164.786 165.27 169.561 
168.946 168.962 168.336 168.304 167.593 167.494 166.773 166.808 166.24 
166.507 166.04 166.4 165.955 166.369 166.034 166.554 170.748 170.178 
170.229 169.628 169.662 168.964 168.918 168.159 168.167 167.537 167.765 
167.303 167.66 167.224 167.597 167.188 167.632 167.333 167.86 161.583 
161.371 161.419 161.329 161.209 161.218 161.23 161.293 161.391 161.347 
161.177 161.276 161.32 161.618 161.627 161.957 161.902 161.525 161.657 
161.579 162.059 162.054 162.52 162.415 162.824 162.808 162.287 162.439 
162.186 162.713 162.664 163.226 163.086 163.443 163.286 163.677 163.954 
163.369 163.562 163.152 163.615 163.429 163.968 163.814 164.175 163.943 
164.245 164.136 164.626 165.2 164.617 164.839 164.368 164.762 164.42 
164.856 164.591 164.962 164.7 165.046 164.822 165.284 165.197 165.79 
166.49 165.9 166.105 165.626 165.969 165.575 165.941 165.564 165.902 
165.565 165.955 165.698 166.181 165.991 166.53 166.415 166.964 167.799 
167.208 167.369 166.854 167.132 166.725 167.07 166.68 167.005 166.603 
166.956 166.646 167.1 166.893 167.381 167.209 167.681 167.551 168.03 
161.652 161.381 161.54 161.729 161.404 161.358 161.508 161.72 162.18 
161.938 161.621 161.764 161.696 162.164 162.435 163.228 162.832 162.404 
162.598 162.275 162.739 162.695 163.497 163.758 164.71 163.778 163.395 
163.659 163.291 163.694 163.464 164.133 164.209 165.139 165.378 166.321 
164.785 164.395 164.702 164.349 164.665 164.378 164.843 164.828 165.626 
165.861 166.823 167.043 167.956 165.911 165.477 165.772 165.387 165.658 
165.289 165.638 165.479 166.183 166.345 167.336 167.579 168.551 168.707 
169.59 167.028 166.6 166.851 166.457 166.728 166.316 166.669 166.361 
167.041 167.022 168.049 168.202 169.258 169.364 170.271 170.34 171.154 
168.086 167.672 167.908 167.515 167.811 167.419 167.832 167.494 168.179 
168.034 169.03 169.064 170.133 170.175 171.098 171.087 171.871 171.869 
172.575 179.019 177.837 178.202 177.727 176.662 177.016 176.538 176.883 
176.391 175.444 175.817 175.341 175.707 175.251 175.59 175.133 174.232 
174.594 174.1 174.475 174.02 174.43 174.011 174.375 173.921 173.043 
173.401 172.901 173.24 172.749 173.155 172.74 173.186 172.754 173.124 
172.63 171.812 172.184 171.668 172.027 171.505 171.889 171.452 171.897 
171.491 171.902 171.441 171.8 171.37 170.613 170.935 170.392 170.753 
170.222 170.615 170.16 170.613 170.219 170.651 170.221 170.6 170.201 
170.612 170.344 169.558 169.792 169.263 169.541 169.033 169.353 168.893 
169.307 168.925 169.383 168.987 169.393 168.985 169.414 169.124 169.642 
169.463 168.656 168.825 168.328 168.533 168.058 168.28 167.81 168.103 
167.703 168.111 167.766 168.184 167.813 168.21 167.874 168.359 168.131 
168.717 168.545 
POINT_DATA 1002
SCALARS Distance double
LOOKUP_TABLE default
172.324 171.287 171.206 172.364 171.213 173.523 172.45 171.307 173.646 
174.867 172.613 171.49 173.799 175.009 176.233 172.874 171.749 174.049 
175.216 176.399 177.574 173.2 172.107 174.367 175.547 176.706 177.857 
178.985 173.606 172.572 174.714 175.898 177.118 178.293 179.379 180.402 
174.068 173.064 175.132 176.254 177.454 178.686 179.796 180.744 181.593 
174.493 173.511 175.564 176.675 177.778 178.922 180.044 180.988 181.772 
182.462 174.858 173.926 175.916 177.064 178.158 179.176 180.195 181.116 
181.867 182.532 183.138 170.164 170.025 168.944 168.775 167.724 170.037 
167.539 166.522 168.825 170.174 166.382 165.376 167.602 168.979 170.362 
165.378 164.365 166.464 167.728 169.144 170.628 164.419 163.436 165.453 
166.589 167.941 169.472 171.066 163.419 162.621 164.408 165.582 166.93 
168.42 170.017 171.619 162.613 162.069 163.43 164.609 166.022 167.488 
169.013 170.622 172.169 162.156 161.759 162.818 163.871 165.199 166.588 
168.042 169.629 171.24 172.691 161.759 162.349 162.01 163.007 162.802 
163.324 164.073 164.11 164.228 164.543 165.297 165.632 165.201 165.327 
165.796 166.733 167.22 166.377 166.302 166.571 167.212 168.484 168.851 
168.141 167.975 168.044 168.356 168.924 170.276 170.446 170.138 170.025 
169.989 170.045 170.26 170.689 171.818 171.916 171.77 171.645 171.477 
171.421 171.556 171.861 172.266 173.092 173.217 172.989 172.774 172.441 
172.248 172.404 172.817 173.257 173.617 174.935 174.703 176.073 174.354 
175.936 177.304 173.819 175.657 177.239 178.553 173.317 175.182 177.046 
178.475 179.831 173.208 174.764 176.718 178.287 179.688 181.033 173.509 
174.68 176.417 178.071 179.516 180.855 181.819 173.891 174.891 176.296 
177.869 179.398 180.814 181.74 182.183 174.148 175.176 176.382 177.748 
179.197 180.728 181.885 182.33 182.524 174.323 175.41 176.56 177.78 
179.002 180.369 181.745 182.558 182.797 183.048 175.962 177.189 177.151 
178.465 178.434 178.382 179.782 179.656 179.611 179.467 181.123 180.891 
180.688 180.642 180.462 182.122 182.113 181.81 181.691 181.634 181.388 
182.516 182.942 182.98 182.813 182.712 182.475 182.136 182.736 183.346 
183.854 183.936 183.813 183.558 183.158 182.795 183.247 183.795 184.431 
184.759 184.786 184.641 184.293 183.842 183.451 183.898 184.414 185.099 
185.717 186.167 184.993 186.632 186.772 186.065 185.37 187.284 187.277 
186.938 186.198 185.508 188.113 188.054 187.968 187.192 186.304 185.545 
188.833 188.755 188.923 188.31 187.23 186.316 185.382 189.023 189.054 
189.208 188.979 188.016 186.96 186.027 184.949 189.029 189.201 189.042 
189.037 188.46 187.444 186.459 185.474 184.416 189.269 189.42 189.064 
188.93 188.593 187.825 186.834 185.835 184.853 183.938 183.345 184.111 
183.4 184.027 183.314 185.184 183.95 183.488 185.065 186.171 184.164 
183.785 185.088 186.232 186.833 184.331 183.721 185.156 186.344 187.155 
187.508 184.236 183.386 185.04 186.095 187.214 187.929 188.371 184.014 
183.044 184.891 185.707 186.701 187.786 188.612 189 183.629 182.657 
184.617 185.438 186.185 187.123 188.173 188.934 189.209 183.073 182.191 
184.052 184.979 185.764 186.533 187.406 188.272 188.911 189.26 174.135 
175.311 175.114 176.346 176.057 176.513 177.356 177.034 177.633 177.769 
178.416 178.147 178.697 178.913 178.953 179.528 179.265 179.764 180.003 
180.062 180.111 180.518 180.214 180.785 181.124 181.26 181.217 181.434 
181.321 180.986 181.629 182.097 182.439 182.345 182.3 182.523 182.018 
181.633 182.347 182.788 183.237 183.228 182.956 182.96 183.023 172.593 
173.589 171.922 172.955 171.133 174.58 172.205 170.115 173.973 175.543 
171.3 169.053 173.377 175.07 176.63 170.349 168.36 172.687 174.704 
176.293 177.822 169.652 168.14 171.817 174.137 175.976 177.454 178.929 
169.382 168.174 171.107 173.271 175.374 177.05 178.512 179.888 169.408 
168.302 170.837 172.585 174.556 176.463 178.096 179.503 180.691 169.526 
168.495 170.823 172.29 173.93 175.762 177.563 179.097 180.336 181.34 