# vtk DataFile Version 4.0
vtk output
ASCII
DATASET POLYDATA
POINTS 1002 float
-119.382 -113.861 50.2896 -119.338 -112.822 49.2549 -118.724 -113.127 49.6369 
-118.834 -114.08 50.9974 -118.212 -113.404 50.3104 -119.564 -114.53 52.1642 
-118.308 -114.245 51.9812 -117.766 -113.538 51.3033 -119.007 -114.727 53.1486 
-119.748 -115.238 54.4839 -117.708 -114.431 53.1518 -117.191 -113.735 52.4384 
-118.35 -115.072 54.1895 -119.096 -115.756 55.3937 -119.744 -116.656 56.3388 
-116.96 -114.921 54.2994 -116.389 -114.278 53.4998 -117.589 -115.709 55.1851 
-118.352 -116.577 56.1999 -119.046 -117.573 57.0537 -119.593 -118.673 57.6615 
-116.148 -115.751 55.2649 -115.561 -115.102 54.4049 -116.804 -116.62 56.0926 
-117.595 -117.591 56.9758 -118.355 -118.607 57.8091 -118.914 -119.678 58.4389 
-119.434 -120.728 58.9886 -115.452 -116.684 56.1026 -114.911 -116.048 55.2062 
-116.12 -117.553 56.97 -116.878 -118.549 57.8194 -117.654 -119.573 58.6467 
-118.259 -120.633 59.3286 -118.746 -121.686 59.8592 -119.319 -122.624 60.3392 
-114.878 -117.602 56.9649 -114.38 -117.019 56.0325 -115.555 -118.407 57.8922 
-116.269 -119.37 58.7693 -116.943 -120.426 59.5433 -117.57 -121.526 60.1975 
-118.103 -122.587 60.7352 -118.648 -123.508 61.1838 -119.269 -124.242 61.5811 
-114.313 -118.442 57.867 -113.853 -117.859 56.929 -114.972 -119.241 58.7807 
-115.705 -120.177 59.6741 -116.303 -121.227 60.44 -116.854 -122.36 61.0252 
-117.448 -123.418 61.5431 -118.024 -124.29 62.0217 -118.61 -124.965 62.433 
-119.211 -125.484 62.7907 -113.771 -119.146 58.7036 -113.339 -118.524 57.7956 
-114.363 -120.008 59.5422 -115.08 -120.992 60.373 -115.691 -122.016 61.1722 
-116.166 -123.097 61.8029 -116.711 -124.126 62.3176 -117.322 -124.96 62.827 
-117.895 -125.604 63.2794 -118.462 -126.101 63.6461 -119.031 -126.488 63.9563 
-118.919 -111.708 48.731 -118.242 -112.046 49.1056 -118.345 -110.567 48.0912 
-117.678 -110.814 48.6102 -117.607 -109.581 47.3423 -117.754 -112.339 49.814 
-117.043 -109.686 48.0713 -116.824 -108.623 46.7734 -117.237 -111.07 49.4258 
-117.316 -112.572 50.7507 -116.34 -108.659 47.612 -116.051 -107.481 46.4626 
-116.578 -109.933 48.9837 -116.673 -111.546 50.2157 -116.613 -113.031 51.6961 
-115.575 -107.59 47.3418 -115.327 -106.306 46.3392 -115.769 -108.958 48.5793 
-115.811 -110.639 49.7013 -115.799 -112.359 50.9544 -115.713 -113.777 52.6514 
-114.898 -106.571 47.3579 -114.739 -105.331 46.4941 -114.995 -108.009 48.3956 
-114.955 -109.749 49.3825 -114.961 -111.579 50.4736 -115.004 -113.216 51.9385 
-114.966 -114.666 53.602 -114.343 -105.698 47.6239 -114.221 -104.499 46.8589 
-114.385 -107.107 48.4917 -114.274 -108.844 49.2694 -114.276 -110.663 50.2414 
-114.4 -112.429 51.5489 -114.441 -114.166 52.9656 -114.403 -115.724 54.4494 
-113.776 -104.968 47.9283 -113.682 -103.798 47.2601 -113.815 -106.309 48.7176 
-113.67 -107.997 49.3101 -113.626 -109.799 50.0597 -113.772 -111.562 51.2632 
-113.849 -113.493 52.5368 -113.843 -115.378 53.7895 -113.844 -116.802 55.2954 
-113.209 -104.474 48.2752 -113.192 -103.382 47.7785 -113.234 -105.711 48.9753 
-113.083 -107.277 49.5157 -112.977 -109.05 50.0605 -113.095 -110.789 51.0442 
-113.171 -112.702 52.2369 -113.135 -114.809 53.3337 -113.176 -116.532 54.6279 
-113.264 -117.651 56.2301 -112.743 -103.935 48.8002 -112.725 -105.089 49.299 
-112.362 -104.772 50.1835 -112.262 -106.08 50.6218 -112.027 -105.919 51.7749 
-112.61 -106.515 49.884 -111.911 -107.418 52.3071 -111.737 -107.364 53.5214 
-112.131 -107.691 51.2243 -112.454 -108.262 50.4186 -111.876 -108.948 54.0821 
-111.726 -108.858 55.2622 -112.102 -109.113 52.9707 -112.277 -109.47 51.9148 
-112.557 -110.077 51.195 -112.436 -110.428 55.3283 -112.374 -110.173 56.3728 
-112.631 -110.602 54.3877 -112.727 -110.815 53.5043 -112.62 -111.289 52.713 
-112.684 -111.995 52.2619 -113.443 -111.857 55.967 -113.544 -111.567 56.6433 
-113.4 -112.064 55.2698 -113.357 -112.245 54.6431 -113.042 -112.66 54.1026 
-112.561 -113.422 53.6156 -112.56 -114.243 53.318 -114.235 -113.444 56.6777 
-114.516 -113.253 56.9276 -113.843 -113.601 56.349 -113.501 -113.767 55.9213 
-113.19 -114.142 55.5352 -112.64 -114.866 55.1605 -112.23 -115.722 54.7449 
-112.493 -116.317 54.5265 -114.46 -115.104 57.8674 -114.863 -114.949 57.9157 
-113.838 -115.238 57.8281 -113.19 -115.384 57.6516 -112.805 -115.682 57.3749 
-112.474 -116.268 57.0384 -112.081 -116.993 56.5756 -112.083 -117.51 56.1777 
-112.604 -117.685 56.0869 -114.375 -116.597 59.2547 -114.805 -116.399 59.3046 
-113.744 -116.789 59.2541 -113.002 -116.971 59.2301 -112.451 -117.195 59.1483 
-112.115 -117.609 58.9373 -111.81 -118.2 58.4752 -111.739 -118.635 57.9443 
-112.124 -118.718 57.6852 -112.748 -118.617 57.7056 -113.141 -119.587 59.1757 
-112.499 -119.773 59.1518 -113.104 -121.009 60.5659 -111.792 -120.006 59.203 
-112.37 -121.328 60.6341 -113.107 -122.64 62.1159 -111.366 -119.942 59.6046 
-111.51 -121.555 60.8009 -112.228 -122.979 62.2441 -112.746 -124.242 63.64 
-111.521 -119.45 60.2315 -111.089 -121.289 61.3425 -111.289 -123.006 62.4855 
-111.81 -124.509 63.6933 -112.02 -125.862 64.8543 -112.026 -118.953 60.5626 
-111.498 -120.737 61.9245 -111.031 -122.556 63.0911 -111.105 -124.335 64.0523 
-111.313 -126.03 65.0915 -111.433 -127.447 66.2981 -112.613 -118.694 60.5313 
-112.314 -120.426 62.0129 -111.65 -122.136 63.5822 -111.135 -123.864 64.79 
-111.066 -125.658 65.8684 -110.988 -127.38 67.1286 -110.957 -128.642 68.3199 
-113.29 -118.468 60.4727 -113.067 -120.248 61.8157 -112.542 -121.975 63.5691 
-111.764 -123.578 65.2429 -111.357 -125.161 66.6568 -111.079 -126.812 68.1219 
-110.611 -128.288 69.3881 -110.335 -129.283 70.2147 -113.946 -118.191 60.4967 
-113.697 -119.957 61.7044 -113.307 -121.753 63.3331 -112.559 -123.39 65.1891 
-111.967 -124.882 66.8374 -111.64 -126.351 68.4826 -111.051 -127.73 69.9741 
-110.286 -128.801 70.9447 -109.924 -129.497 71.5655 -114.451 -117.922 60.5568 
-114.215 -119.638 61.6665 -113.94 -121.437 63.073 -113.344 -123.086 64.8884 
-112.702 -124.584 66.602 -112.367 -126.058 68.2084 -111.995 -127.403 69.8107 
-111.233 -128.407 71.0372 -110.422 -129.05 71.8915 -110.098 -129.479 72.6467 
-113.689 -120.478 60.0688 -113.728 -122.084 61.5371 -114.341 -121.579 60.8911 
-113.561 -123.743 63.2171 -114.238 -123.278 62.4333 -114.967 -122.705 61.7291 
-112.918 -125.381 64.7315 -113.817 -124.925 64.1542 -114.66 -124.444 63.278 
-115.454 -123.797 62.5101 -112.236 -127.039 66.0353 -113.244 -126.495 65.7093 
-114.216 -126.069 64.9383 -115.089 -125.523 63.9966 -115.929 -124.832 63.1345 
-111.773 -128.499 67.6912 -112.839 -127.946 67.2218 -113.823 -127.516 66.5258 
-114.672 -127.128 65.5323 -115.561 -126.469 64.5719 -116.512 -125.696 63.6951 
-111.13 -129.489 69.5401 -112.322 -129.18 68.859 -113.384 -128.763 68.0943 
-114.234 -128.506 67.0554 -115.108 -128.029 65.9819 -116.118 -127.217 65.0828 
-117.116 -126.367 64.2033 -110.436 -129.927 71.1149 -111.61 -130.026 70.3954 
-112.818 -129.795 69.5755 -113.82 -129.543 68.5939 -114.793 -129.238 67.4488 
-115.785 -128.623 66.4042 -116.775 -127.768 65.5072 -117.71 -126.893 64.5928 
-110.261 -129.934 72.4918 -111.223 -130.318 71.8449 -112.474 -130.413 70.9461 
-113.615 -130.237 70.0428 -114.722 -129.947 69.0208 -115.764 -129.552 67.8489 
-116.631 -128.963 66.7629 -117.474 -128.167 65.8177 -118.328 -127.287 64.8951 
-110.654 -129.62 73.8477 -111.189 -130.09 73.5279 -111.766 -129.796 74.8909 
-112.682 -130.274 74.129 -113.335 -130.168 75.1371 -112.38 -130.497 72.5517 
-114.297 -130.712 74.0509 -115.131 -130.717 74.8765 -113.876 -130.687 72.9131 
-113.632 -130.614 71.5012 -115.722 -131.368 73.9421 -116.771 -131.171 74.8147 
-115.124 -131.219 73.029 -114.908 -130.859 71.9658 -114.795 -130.422 70.5854 
-117.132 -131.784 73.8787 -118.124 -131.399 74.5166 -116.265 -131.895 73.0019 
-115.879 -131.486 72.0945 -115.924 -130.736 70.9246 -115.932 -130.099 69.4024 
-118.795 -131.953 73.141 -119.549 -131.683 73.5888 -117.923 -132.132 72.3633 
-117.124 -132.014 71.5236 -116.827 -131.343 70.5989 -116.901 -130.448 69.3997 
-116.826 -129.722 68.0219 -120.568 -132.355 72.0994 -121.123 -132.121 72.6827 
-119.868 -132.254 71.2872 -118.946 -132.052 70.5093 -118.123 -131.657 69.8036 
-117.789 -130.901 68.969 -117.712 -130.013 67.9312 -117.574 -129.132 66.8354 
-121.995 -132.77 71.4487 -122.379 -132.302 72.0736 -121.414 -132.624 70.5904 
-120.592 -132.139 69.8096 -119.665 -131.642 69.2062 -118.99 -131.046 68.5564 
-118.693 -130.218 67.7261 -118.544 -129.256 66.7926 -118.414 -128.259 65.8362 
-122.858 -132.575 70.964 -123.102 -131.909 71.4174 -122.388 -132.662 70.2472 
-121.698 -132.254 69.5003 -120.903 -131.661 68.8863 -120.214 -131.009 68.2626 
-119.78 -130.217 67.4767 -119.537 -129.278 66.6115 -119.361 -128.287 65.7379 
-119.201 -127.34 64.8418 -110.889 -129.2 73.0917 -111.433 -129.307 74.411 
-112.08 -128.917 73.2756 -112.498 -128.926 74.4877 -113.061 -128.424 73.3448 
-112.472 -129.54 75.3904 -113.502 -128.28 74.3606 -113.827 -127.82 73.2294 
-113.532 -129.089 75.3197 -114.197 -129.955 75.5908 -114.619 -127.666 74.0999 
-114.94 -127.509 72.5027 -114.767 -128.37 75.0708 -115.466 -129.397 75.6708 
-116.301 -130.382 75.5126 -115.98 -127.455 73.1971 -116.219 -127.388 71.0844 
-116.048 -127.855 74.5492 -116.655 -128.717 75.3296 -117.496 -129.765 75.6177 
-117.94 -130.694 75.2919 -117.106 -127.346 71.5507 -117.085 -127.011 69.5315 
-117.209 -127.661 73.3097 -117.529 -128.267 74.3688 -118.202 -129.183 74.841 
-118.818 -130.152 74.8494 -119.121 -130.97 74.4512 -117.86 -126.966 69.7971 
-117.761 -126.33 68.2668 -118.118 -127.394 71.5654 -118.355 -127.82 72.9977 
-118.737 -128.534 73.6891 -119.405 -129.501 73.8222 -120.011 -130.411 73.7602 
-120.514 -131.273 73.4465 -118.609 -126.283 68.3974 -118.594 -125.466 67.2765 
-118.876 -126.904 69.8602 -119.211 -127.277 71.4698 -119.509 -127.704 72.6075 
-120.049 -128.524 72.9933 -120.786 -129.502 73.0568 -121.406 -130.427 73.0654 
-121.926 -131.422 72.773 -119.383 -125.314 67.3755 -119.39 -124.445 66.4747 
-119.566 -126.147 68.462 -119.928 -126.715 69.8542 -120.29 -127.026 71.2471 
[...]
CELL_DATA 2000
SCALARS Distance double
LOOKUP_TABLE default
170.754 170.715 171.083 171.833 170.762 171.096 171.853 172.222 173.039 
170.837 171.158 171.923 172.284 173.148 173.534 174.459 170.969 171.266 
172.078 172.414 173.354 173.727 174.741 175.087 176.087 171.212 171.475 
172.363 172.669 173.69 174.039 175.136 175.465 176.523 176.798 177.797 
171.599 171.814 172.762 173.047 174.111 174.448 175.575 175.914 176.999 
177.279 178.28 178.523 179.483 172.113 172.283 173.246 173.51 174.586 
174.901 176.011 176.348 177.433 177.744 178.754 179.01 179.95 180.18 
181.063 172.639 172.81 173.744 174.01 175.073 175.384 176.468 176.78 
177.836 178.152 179.164 179.454 180.384 180.624 181.465 181.674 182.426 
173.08 173.282 174.17 174.462 175.487 175.831 176.886 177.212 178.215 
178.528 179.488 179.808 180.706 180.992 181.784 182.017 182.709 182.909 
183.52 170.024 168.788 169.585 169.946 167.437 168.292 168.709 169.566 
170 166.087 166.939 167.378 168.293 168.804 169.654 170.095 164.751 
165.616 166.056 166.966 167.497 168.421 168.934 169.758 170.203 163.418 
164.288 164.746 165.649 166.163 167.1 167.65 168.56 169.08 169.899 
170.401 162.269 163.036 163.526 164.367 164.894 165.787 166.365 167.29 
167.901 168.78 169.376 170.178 170.773 161.375 162.03 162.525 163.255 
163.793 164.591 165.191 166.072 166.755 167.659 168.371 169.209 169.897 
170.659 171.315 160.609 161.209 161.688 162.349 162.86 163.574 164.146 
164.965 165.651 166.561 167.328 168.234 169.001 169.825 170.531 171.259 
171.886 160.012 160.505 160.983 161.566 162.065 162.698 163.239 163.973 
164.633 165.492 166.256 167.182 167.98 168.892 169.647 170.461 171.108 
171.806 172.358 159.975 160.447 160.386 160.902 161.262 160.986 161.391 
161.368 161.948 162.424 161.956 162.308 162.019 162.519 162.472 163.13 
163.895 163.3 163.706 163.183 163.676 163.302 163.922 163.798 164.566 
165.559 164.924 165.415 164.794 165.335 164.741 165.312 164.868 165.556 
165.379 166.21 167.328 166.682 167.207 166.575 167.109 166.49 167.008 
166.424 166.979 166.556 167.267 167.098 167.942 169.155 168.5 168.984 
168.336 168.768 168.172 168.616 168.07 168.552 168.044 168.621 168.267 
169.002 168.846 169.638 170.889 170.278 170.668 170.028 170.337 169.723 
170.072 169.56 170.018 169.555 170.068 169.641 170.229 169.944 170.617 
170.467 171.122 172.389 171.863 172.178 171.595 171.847 171.229 171.515 
170.972 171.384 170.942 171.42 171.008 171.489 171.136 171.661 171.427 
171.992 171.837 172.375 173.115 172.785 173.37 174.315 172.506 173.065 
174.049 174.714 175.84 172.348 172.839 173.785 174.435 175.561 176.3 
177.401 172.299 172.747 173.629 174.176 175.199 175.934 177.018 177.745 
178.677 172.319 172.756 173.682 174.108 175.053 175.598 176.625 177.311 
178.328 178.968 179.886 172.464 172.856 173.892 174.282 175.284 175.63 
176.616 177.066 178.126 178.702 179.759 180.304 181.237 172.755 173.086 
174.141 174.555 175.643 175.983 176.976 177.263 178.272 178.686 179.766 
180.265 181.222 181.649 182.349 173.056 173.38 174.367 174.796 175.88 
176.313 177.324 177.648 178.592 178.93 179.945 180.369 181.318 181.673 
182.335 182.585 183.009 173.263 173.614 174.54 174.969 176.003 176.484 
177.499 177.906 178.822 179.185 180.13 180.552 181.513 181.854 182.573 
182.699 183.127 183.188 183.53 173.568 174.836 174.344 174.745 176.407 
175.801 176.233 175.669 176.12 177.971 177.437 177.861 177.262 177.691 
177.113 177.535 179.233 178.871 179.314 178.837 179.237 178.69 179.076 
178.499 178.854 180.425 180.062 180.565 180.179 180.633 180.169 180.556 
180.011 180.352 179.773 180.095 181.727 181.333 181.85 181.445 181.942 
181.517 181.939 181.442 181.773 181.228 181.534 180.98 181.271 182.754 
182.544 183.013 182.713 183.153 182.788 183.184 182.761 183.081 182.591 
182.86 182.349 182.612 182.088 182.314 183.324 183.304 183.757 183.676 
184.092 183.871 184.227 183.907 184.228 183.826 184.096 183.622 183.854 
183.355 183.56 183.043 183.204 183.782 183.755 184.242 184.263 184.763 
184.674 185.083 184.859 185.214 184.903 185.214 184.809 185.045 184.563 
184.743 184.238 184.384 183.868 183.984 184.255 185.314 184.73 184.743 
186.567 185.907 185.884 185.305 185.304 187.869 187.175 187.112 186.481 
186.411 185.812 185.682 189.177 188.47 188.344 187.68 187.568 186.93 
186.759 186.109 185.865 190.272 189.7 189.529 188.881 188.703 188.055 
187.839 187.181 186.893 186.227 185.887 191.086 190.649 190.501 189.951 
189.704 189.103 188.787 188.171 187.804 187.184 186.779 186.147 185.71 
191.966 191.502 191.41 190.844 190.57 189.977 189.591 189.002 188.567 
187.985 187.536 186.949 186.476 185.868 185.382 192.82 192.457 192.374 
191.791 191.466 190.81 190.373 189.747 189.287 188.697 188.233 187.653 
187.171 186.581 186.076 185.485 184.992 193.109 193.076 192.936 192.598 
192.181 191.632 191.098 190.496 189.971 189.389 188.879 188.313 187.791 
187.229 186.692 186.13 185.602 185.055 184.563 184.287 184.792 184.746 
185.298 185.218 185.236 185.739 185.848 186.524 185.351 185.502 186.012 
186.231 186.957 187.141 187.878 185.467 185.594 186.154 186.421 187.249 
187.565 188.448 188.576 189.275 185.695 185.821 186.396 186.602 187.421 
187.801 188.749 189.079 189.83 189.897 190.372 185.647 185.984 186.538 
186.824 187.482 187.872 188.655 189.152 189.86 190.208 190.664 190.761 
191.097 185.229 185.732 186.291 186.759 187.313 187.75 188.314 188.83 
189.427 189.96 190.474 190.829 191.255 191.426 191.879 184.753 185.246 
185.808 186.35 186.915 187.409 187.904 188.372 188.885 189.424 189.99 
190.506 191.038 191.431 191.935 192.212 192.664 184.28 184.76 185.265 
185.82 186.377 186.929 187.43 187.91 188.369 188.876 189.397 189.972 
190.49 191.04 191.475 191.977 192.326 192.737 192.927 173.633 174.685 
174.411 174.968 175.914 175.585 176.219 175.875 176.481 177.279 176.921 
177.606 177.232 177.86 177.453 177.989 178.635 178.309 178.982 178.638 
179.248 178.844 179.346 178.898 179.323 179.853 179.592 180.236 179.954 
180.551 180.191 180.698 180.257 180.723 180.237 180.682 180.982 180.741 
181.4 181.157 181.795 181.473 182.021 181.607 182.136 181.692 182.214 
181.689 182.098 182.078 181.844 182.493 182.29 182.961 182.708 183.265 
182.902 183.385 183.032 183.527 183.152 183.499 182.97 183.104 183.041 
182.869 183.439 183.298 183.917 183.783 184.303 184.039 184.378 184.087 
184.411 184.202 184.46 184.132 184.144 183.645 183.543 183.772 183.697 
184.197 184.111 184.649 184.597 185.09 184.932 185.198 184.909 185.053 
184.844 185.015 184.84 184.891 184.524 184.408 183.926 183.852 172.986 
172.281 173.098 174.018 171.587 172.44 173.445 174.206 175.2 170.965 
171.837 172.915 173.669 174.685 175.455 176.527 170.377 171.28 172.417 
173.179 174.192 174.943 176.021 176.834 177.913 169.807 170.715 171.916 
172.715 173.74 174.453 175.486 176.302 177.407 178.204 179.188 169.288 
170.142 171.363 172.23 173.327 174.038 175.025 175.759 176.817 177.649 
178.698 179.441 180.347 168.895 169.615 170.749 171.643 172.806 173.623 
174.652 175.343 176.323 177.064 178.105 178.908 179.922 180.618 181.488 
168.744 169.265 170.266 171.03 172.156 173.038 174.14 174.936 175.923 
176.62 177.589 178.334 179.357 180.143 181.103 181.752 182.514 168.842 
169.201 170.104 170.647 171.665 172.411 173.488 174.335 175.373 176.165 
177.124 177.851 178.8 179.561 180.504 181.26 182.066 182.671 183.273 
169.232 170.259 169.968 170.48 171.367 171.064 171.602 171.311 171.952 
172.573 172.234 172.797 172.469 173.085 172.86 173.65 173.897 173.52 
174.102 173.718 174.327 174.023 174.784 174.637 175.513 175.233 174.881 
175.506 175.104 175.745 175.352 176.11 175.847 176.727 176.54 177.359 
176.534 176.213 176.901 176.546 177.261 176.86 177.644 177.286 178.149 
177.853 178.676 178.369 179.082 177.882 177.551 178.294 177.966 178.741 
178.39 179.194 178.847 179.66 179.319 180.064 179.717 180.39 180.062 
180.722 179.247 178.938 179.705 179.393 180.173 179.85 180.623 180.317 
181.066 180.755 181.405 181.055 181.62 181.302 181.884 181.631 182.22 
180.507 180.265 181.022 180.771 181.518 181.233 181.935 181.648 182.319 
182.043 182.64 182.314 182.812 182.468 182.958 182.692 183.209 182.989 
183.438 181.411 182.991 182.118 181.972 184.617 183.733 183.571 182.683 
182.482 186.223 185.348 185.168 184.275 184.046 183.141 182.88 187.786 
186.932 186.748 185.859 185.613 184.693 184.408 183.501 183.226 189.125 
188.39 188.169 187.381 187.123 186.243 185.933 185.018 184.702 183.817 
183.508 190.07 189.507 189.236 188.633 188.374 187.652 187.334 186.495 
186.148 185.27 184.909 184.031 183.662 190.868 190.342 190.121 189.578 
189.377 188.777 188.5 187.78 187.44 186.647 186.285 185.424 185.03 
184.145 183.785 191.801 191.248 191.12 190.519 190.356 189.757 189.502 
188.846 188.495 187.809 187.449 186.719 186.331 185.504 185.105 184.272 
183.961 192.663 192.226 192.079 191.526 191.271 190.702 190.356 189.755 
189.315 188.71 188.285 187.71 187.313 186.665 186.229 185.496 185.089 
184.387 184.083 181.38 181.885 182.076 182.979 182.435 182.654 183.625 
183.76 184.656 182.885 183.219 184.268 184.455 185.395 185.461 186.298 
183.105 183.596 184.703 185.041 186.034 186.201 187.096 187.126 187.907 
183.08 183.699 184.818 185.331 186.367 186.732 187.721 187.918 188.799 
188.757 189.371 182.884 183.569 184.669 185.301 186.338 186.892 187.937 
188.401 189.387 189.587 190.256 190.082 190.398 182.621 183.309 184.378 
185.054 186.056 186.709 187.712 188.385 189.367 189.904 190.605 190.757 
191.078 190.894 191.092 182.348 183.012 184.027 184.704 185.645 186.32 
187.23 187.969 188.859 189.583 190.255 190.74 191.101 191.288 191.542 
191.53 191.859 182.043 182.69 183.622 184.295 185.151 185.824 186.632 
187.365 188.165 188.92 189.568 190.178 190.582 191.02 191.357 191.693 
192.102 192.28 192.659 180.469 179.193 180.189 180.91 177.74 178.82 
179.51 180.605 181.361 176.094 177.211 177.824 179.044 179.753 180.976 
181.715 174.49 175.482 175.954 177.179 177.828 179.183 179.904 181.215 
181.893 173.107 173.939 174.272 175.295 175.842 177.15 177.879 179.279 
179.988 181.292 181.886 171.798 172.608 172.924 173.757 174.213 175.275 
175.978 177.274 178.042 179.355 179.994 181.221 181.731 170.5 171.313 
171.715 172.517 172.998 173.861 174.519 175.574 176.354 177.525 178.215 
179.371 179.913 181.048 181.513 169.36 170.098 170.567 171.37 171.939 
172.764 173.419 174.31 175.036 176.025 176.71 177.728 178.28 179.31 
179.785 180.854 181.297 168.428 169.076 169.557 170.31 170.917 171.742 
172.413 173.264 173.931 174.812 175.428 176.336 176.859 177.784 178.234 
179.205 179.642 180.665 181.068 168.09 168.045 168.441 169.26 168.2 
168.528 169.421 169.757 170.66 168.505 168.802 169.734 170.025 170.963 
171.264 172.191 168.756 169.099 170.012 170.35 171.26 171.583 172.492 
172.799 173.688 168.931 169.261 170.11 170.519 171.391 171.794 172.652 
173.027 173.887 174.24 175.099 169.258 169.462 170.276 170.595 171.478 
171.865 172.737 173.12 173.966 174.358 175.216 175.605 176.455 169.737 
169.882 170.709 170.899 171.802 172.062 172.972 173.26 174.124 174.447 
175.31 175.688 176.565 176.944 177.798 170.185 170.362 171.186 171.388 
172.257 172.481 173.349 173.581 174.415 174.671 175.514 175.83 176.715 
177.072 177.966 178.313 179.185 170.592 170.766 171.54 171.781 172.58 
172.854 173.633 173.904 174.666 174.945 175.747 176.061 176.928 177.266 
178.162 178.505 179.394 179.727 180.588 171.081 172.142 171.719 172.004 
173.348 172.84 173.106 172.692 173.027 174.766 174.15 174.394 173.858 
174.147 173.729 174.062 176.378 175.685 175.949 175.275 175.54 174.949 
175.259 174.791 175.123 178.09 177.382 177.7 176.96 177.269 176.524 
176.847 176.173 176.532 175.951 176.296 179.792 179.126 179.482 178.764 
179.105 178.35 178.691 177.933 178.291 177.564 177.921 177.235 177.553 
181.37 180.796 181.167 180.519 180.85 180.154 180.478 179.771 180.104 
179.383 179.705 178.97 179.264 178.535 178.806 182.718 182.274 182.648 
182.115 182.449 181.832 182.158 181.5 181.836 181.147 181.457 180.735 
181.01 180.274 180.534 179.795 180.04 183.807 183.488 183.86 183.464 
183.807 183.325 183.671 183.121 183.48 182.853 183.169 182.461 182.718 
181.989 182.238 181.518 181.764 181.025 181.239 182.142 182.685 182.849 
183.682 183.153 183.354 184.202 184.367 185.163 183.648 183.833 184.684 
184.852 185.676 185.822 186.619 184.128 184.349 185.205 185.354 186.18 
186.333 187.181 187.32 188.134 184.414 184.746 185.587 185.826 186.615 
186.82 187.654 187.861 188.666 188.8 189.479 184.515 184.898 185.692 
186.05 186.807 187.133 187.938 188.253 189.044 189.25 189.878 189.972 
190.465 184.566 184.928 185.674 186.055 186.804 187.198 187.999 188.412 
189.227 189.543 190.224 190.351 190.887 190.906 191.361 184.566 184.93 
185.632 186.015 186.742 187.15 187.915 188.37 189.152 189.595 190.31 
190.622 191.246 191.384 191.938 191.895 192.301 184.462 184.851 185.498 
185.916 186.582 187.026 187.698 188.179 188.837 189.355 189.978 190.49 
191.085 191.53 192.093 192.363 192.79 192.77 192.95 159.58 160.16 
159.624 159.301 160.922 160.307 159.96 159.489 159.384 161.813 161.121 
160.763 160.217 160.071 159.708 159.84 162.996 162.158 161.792 161.091 
160.904 160.43 160.506 160.277 160.656 164.419 163.533 163.247 162.345 
162.155 161.416 161.455 161.018 161.353 161.22 161.811 165.856 165.052 
164.939 164.02 163.943 162.98 163.037 162.25 162.562 162.102 162.662 
162.503 163.198 167.265 166.535 166.572 165.78 165.86 164.942 165.077 
164.133 164.423 163.638 164.128 163.612 164.248 163.991 164.68 168.645 
167.977 168.07 167.394 167.542 166.801 166.98 166.173 166.443 165.635 
166.021 165.299 165.787 165.253 165.824 165.508 166.11 169.912 169.331 
169.43 168.837 168.967 168.348 168.494 167.868 168.101 167.482 167.808 
167.154 167.508 166.864 167.259 166.753 167.211 166.884 167.367 159.294 
159.022 159.059 159.137 159.137 158.963 159.046 159.182 159.627 159.676 
159.299 159.366 159.287 159.759 159.963 160.629 160.642 160.1 160.197 
159.84 160.264 160.262 160.951 161.115 161.798 161.909 161.304 161.499 
160.934 161.3 160.986 161.607 161.574 162.271 162.331 162.982 163.278 
162.681 162.941 162.363 162.701 162.203 162.695 162.413 163.047 162.939 
163.59 163.573 164.227 164.688 164.079 164.33 163.788 164.111 163.601 
163.991 163.583 164.098 163.844 164.447 164.301 164.929 164.872 165.513 
166.069 165.475 165.692 165.155 165.463 164.96 165.311 164.852 165.278 
164.932 165.46 165.229 165.81 165.655 166.254 166.169 166.771 167.299 
166.775 166.957 166.468 166.747 166.279 166.61 166.146 166.521 166.112 
166.566 166.26 166.78 166.562 167.109 166.956 167.52 167.42 167.987 
159.553 159.435 159.616 160.098 159.911 159.764 160.198 160.351 160.975 
160.847 160.465 160.794 160.675 161.249 161.398 162.152 161.956 161.491 
161.765 161.451 161.969 161.887 162.619 162.736 163.604 163.121 162.628 
162.922 162.523 163.034 162.794 163.493 163.4 164.196 164.283 165.21 
164.356 163.841 164.145 163.718 164.19 163.904 164.531 164.359 165.045 
164.973 165.764 165.913 166.907 165.62 165.108 165.397 164.949 165.352 
165.021 165.56 165.356 165.989 165.849 166.564 166.551 167.468 167.677 
168.752 166.858 166.363 166.655 166.201 166.607 166.206 166.751 166.436 
167.133 166.888 167.688 167.504 168.42 168.398 169.443 169.589 170.602 
168.07 167.59 167.905 167.465 167.933 167.529 168.164 167.787 168.575 
168.235 169.129 168.827 169.759 169.537 170.492 170.42 171.355 171.392 
172.206 179.925 178.645 179.08 178.629 177.275 177.728 177.253 177.718 
177.203 175.931 176.34 175.838 176.298 175.786 176.225 175.645 174.63 
175.006 174.463 174.886 174.363 174.804 174.279 174.681 174.138 173.284 
173.665 173.076 173.498 172.939 173.381 172.853 173.31 172.825 173.25 
172.771 171.948 172.282 171.658 172.072 171.501 171.946 171.398 171.863 
171.363 171.868 171.402 171.88 171.407 170.754 170.996 170.352 170.68 
170.119 170.525 170.005 170.433 169.937 170.402 169.948 170.443 169.999 
170.484 170.063 169.686 169.877 169.235 169.468 168.897 169.219 168.714 
169.094 168.624 169.041 168.615 169.057 168.661 169.108 168.74 169.209 
168.908 168.703 168.865 168.25 168.43 167.852 168.087 167.562 167.867 
167.391 167.768 167.352 167.782 167.415 167.852 167.516 167.956 167.677 
168.16 167.964 
POINT_DATA 1002
SCALARS Distance double
LOOKUP_TABLE default
171.469 170.454 170.339 171.443 170.365 172.591 171.484 170.441 172.637 
173.894 171.554 170.52 172.738 174.077 175.412 171.728 170.663 172.957 
174.373 175.778 177.075 172.04 170.938 173.327 174.791 176.25 177.545 
178.776 172.47 171.393 173.78 175.231 176.707 178.046 179.253 180.424 
172.989 171.962 174.285 175.696 177.111 178.486 179.734 180.866 181.903 
173.484 172.477 174.762 176.176 177.537 178.864 180.146 181.276 182.256 
183.121 173.888 172.88 175.143 176.56 177.926 179.187 180.418 181.557 
182.522 183.352 184.09 169.28 169.138 167.948 167.793 166.573 169.199 
166.455 165.237 167.891 169.327 165.159 163.86 166.557 168.047 169.432 
163.847 162.55 165.236 166.701 168.205 169.608 162.712 161.547 164.021 
165.428 166.969 168.533 169.993 161.833 160.748 163.035 164.328 165.822 
167.479 169.106 170.595 161.051 160.032 162.184 163.365 164.749 166.386 
168.122 169.78 171.223 160.436 159.571 161.467 162.548 163.809 165.344 
167.042 168.78 170.385 171.721 159.919 160.806 160.62 161.537 161.633 
161.834 162.703 162.941 162.691 163.039 164.26 164.489 164.162 164.182 
164.551 166.025 166.164 165.963 165.883 165.875 166.248 167.86 167.961 
167.738 167.626 167.517 167.55 168.009 169.68 169.824 169.413 169.155 
169.072 169.073 169.248 169.756 171.333 171.514 170.997 170.608 170.462 
170.529 170.611 170.835 171.265 172.746 172.914 172.46 172.09 171.854 
171.845 171.894 171.967 172.186 172.529 173.94 173.645 175.364 173.368 
175.137 177.023 173.188 174.804 176.745 178.438 173.165 174.541 176.258 
178.055 179.543 173.263 174.625 175.998 177.623 179.308 180.812 173.454 
174.962 176.273 177.581 179.178 180.797 182.106 173.718 175.253 176.721 
177.94 179.302 180.825 182.05 182.897 173.965 175.421 176.971 178.288 
179.553 180.984 182.15 182.81 183.322 174.134 175.526 177.067 178.465 
179.718 181.125 182.434 183.14 183.433 183.836 175.206 176.836 176.661 
178.457 178.293 178.122 179.724 179.766 179.658 179.452 180.924 181.052 
181.087 180.926 180.683 182.268 182.362 182.417 182.319 182.08 181.844 
183.264 183.514 183.588 183.553 183.377 183.129 182.867 183.756 184.254 
184.514 184.584 184.551 184.363 184.074 183.743 184.191 184.783 185.256 
185.484 185.578 185.517 185.257 184.901 184.513 184.74 185.261 185.943 
186.521 187.241 185.876 187.768 188.602 187.052 186.309 189.044 189.89 
188.223 187.433 186.537 190.168 190.76 189.377 188.511 187.575 186.571 
191.025 191.478 190.315 189.424 188.43 187.412 186.358 192.01 192.416 
191.202 190.2 189.156 188.119 187.08 185.991 192.948 193.101 192.167 
191.033 189.89 188.82 187.764 186.673 185.566 193.181 193.048 192.682 
191.697 190.566 189.459 188.359 187.253 186.153 185.089 184.288 185.212 
184.879 185.619 185.159 186.389 185.731 185.165 186.689 187.795 185.889 
185.351 186.847 188.216 189.336 186.228 185.515 187.074 188.345 189.69 
190.468 186.218 185.214 187.175 188.2 189.424 190.468 191.058 185.77 
184.708 186.891 187.878 188.868 189.992 190.965 191.746 185.263 184.29 
186.395 187.464 188.375 189.416 190.566 191.586 192.478 184.73 183.823 
185.805 186.934 187.896 188.841 189.936 190.972 191.869 192.635 173.856 
175.248 174.955 176.557 176.233 176.855 177.977 177.632 178.288 178.442 
179.322 178.956 179.654 179.809 179.793 180.503 180.107 180.891 181.115 
181.175 181.207 181.618 181.225 182.083 182.416 182.537 182.7 182.739 
182.692 182.322 183.174 183.629 183.757 183.865 184.021 183.741 183.597 
183.207 184.031 184.551 184.738 184.648 184.725 184.638 184.058 172.193 
173.25 171.404 172.673 170.687 174.418 172.155 170.056 173.922 175.72 
171.633 169.447 173.466 175.194 177.154 171.068 168.909 173.051 174.707 
176.565 178.506 170.451 168.505 172.573 174.361 176.013 177.881 179.713 
169.89 168.292 171.907 173.939 175.66 177.304 179.137 180.922 169.616 
168.325 171.295 173.27 175.213 176.903 178.566 180.373 182.017 169.664 
168.539 171.032 172.671 174.526 176.385 178.089 179.748 181.393 182.792 