# vtk DataFile Version 4.0
vtk output
ASCII
DATASET POLYDATA
POINTS 1002 float
-121.163 -112.707 50.1968 -120.683 -111.518 49.4454 -120.17 -111.795 49.7135 
-120.633 -113.02 50.5958 -119.663 -112.159 50.0558 -121.508 -113.982 51.0892 
-120.118 -113.421 51.1092 -119.133 -112.661 50.4754 -120.977 -114.347 51.6992 
-121.676 -115.238 52.4047 -119.579 -113.939 51.7645 -118.579 -113.246 51.0842 
-120.515 -114.789 52.4476 -121.24 -115.629 53.2515 -121.983 -116.424 54.126 
-119.011 -114.473 52.6119 -118.089 -113.782 51.9135 -120.009 -115.324 53.3098 
-120.825 -116.12 54.1645 -121.586 -116.861 55.087 -122.439 -117.719 55.8007 
-118.538 -114.989 53.5838 -117.717 -114.358 52.7719 -119.457 -115.858 54.3094 
-120.297 -116.748 55.0903 -121.035 -117.521 55.9813 -121.835 -118.403 56.6369 
-122.521 -119.413 56.9856 -118.176 -115.729 54.5057 -117.405 -115.144 53.5929 
-118.964 -116.497 55.3672 -119.728 -117.433 56.0951 -120.424 -118.369 56.8181 
-121.128 -119.297 57.4192 -121.746 -120.333 57.7072 -122.196 -121.278 57.9182 
-117.788 -116.75 55.3035 -117.099 -116.077 54.4457 -118.457 -117.449 56.2477 
-119.129 -118.261 57.0447 -119.816 -119.25 57.6567 -120.524 -120.239 58.1889 
-121.12 -121.179 58.5758 -121.546 -122.066 58.8463 -121.998 -122.762 59.1616 
-117.364 -117.786 55.993 -116.8 -117.028 55.2449 -117.896 -118.525 56.8864 
-118.466 -119.252 57.7296 -119.116 -120.146 58.3841 -119.836 -121.132 58.9254 
-120.506 -121.985 59.4253 -121.002 -122.704 59.8867 -121.456 -123.31 60.3191 
-122.031 -123.782 60.6853 -117.004 -118.672 56.6129 -116.512 -117.96 55.8916 
-117.415 -119.416 57.4681 -117.86 -120.162 58.2888 -118.429 -121.001 58.9901 
-119.054 -121.936 59.6248 -119.667 -122.775 60.1979 -120.23 -123.44 60.7192 
-120.762 -123.951 61.2506 -121.348 -124.32 61.7314 -121.975 -124.616 62.0366 
-119.91 -110.606 48.6551 -119.345 -110.918 48.9313 -119.19 -109.824 47.6099 
-118.517 -110.148 47.9492 -118.45 -109.08 46.5958 -118.782 -111.37 49.2454 
-117.633 -109.406 47.0186 -117.676 -108.2 45.9045 -117.817 -110.672 48.291 
-118.199 -111.991 49.6342 -116.793 -108.614 46.3774 -116.972 -107.232 45.5197 
-116.753 -109.972 47.4564 -117.135 -111.342 48.7804 -117.66 -112.645 50.303 
-116.083 -107.824 46.0111 -116.241 -106.397 45.2587 -115.813 -109.256 46.9238 
-115.957 -110.648 48.1375 -116.578 -112.068 49.5665 -117.206 -113.281 51.1489 
-115.331 -107.076 45.8716 -115.452 -105.738 45.1781 -115.11 -108.497 46.7315 
-115.024 -109.913 47.8156 -115.389 -111.483 49.0051 -116.086 -112.911 50.3623 
-116.8 -114.006 51.9567 -114.636 -106.415 46.1255 -114.9 -105.179 45.5494 
-114.52 -107.683 46.9664 -114.523 -109.032 47.9719 -114.585 -110.718 48.8705 
-114.943 -112.459 49.8002 -115.68 -113.737 51.1954 -116.491 -114.801 52.8895 
-114.281 -105.965 46.888 -114.679 -104.773 46.4354 -114.12 -107.046 47.638 
-114.258 -108.164 48.5971 -114.285 -109.72 49.3651 -114.259 -111.596 49.86 
-114.705 -113.185 50.7808 -115.541 -114.392 52.3546 -116.299 -115.638 53.9592 
-114.151 -105.757 47.9797 -114.567 -104.617 47.5867 -113.911 -106.72 48.5713 
-114.017 -107.641 49.3863 -114.068 -108.926 50.1465 -113.896 -110.566 50.4942 
-114.086 -112.175 50.9001 -114.809 -113.633 52.0535 -115.565 -115.097 53.5954 
-116.11 -116.594 54.8748 -114.105 -105.39 49.0632 -113.686 -106.345 49.5199 
-113.365 -106.046 50.5842 -112.983 -106.767 50.967 -112.477 -106.413 51.9568 
-113.597 -107.214 50.0956 -112.191 -107.304 52.2542 -112.004 -106.92 53.2586 
-112.842 -107.943 51.447 -113.595 -108.417 50.8064 -111.953 -108.207 53.5217 
-112.336 -107.809 54.56 -111.909 -108.97 52.6643 -112.521 -109.555 51.9325 
-113.358 -109.895 51.2534 -112.589 -109.084 54.6 -113.173 -108.779 55.473 
-111.846 -109.784 53.7935 -111.764 -110.436 52.8898 -112.565 -110.74 52.0715 
-113.491 -111.242 51.4193 -113.733 -109.978 55.1757 -114.261 -109.945 55.6922 
-112.938 -110.367 54.654 -112.421 -110.884 53.8781 -112.784 -111.266 52.9803 
-113.642 -111.795 52.4126 -114.326 -112.713 52.1642 -115.018 -111.527 55.5126 
-115.55 -111.606 55.7125 -114.396 -111.652 55.3091 -113.905 -111.92 54.9439 
-113.904 -112.281 54.3101 -114.291 -112.898 53.7704 -114.725 -113.795 53.5906 
-115.119 -114.613 53.5926 -116.122 -113.559 56.1359 -116.651 -113.463 56.1778 
-115.546 -113.724 56.1002 -115.079 -113.938 56.0501 -114.858 -114.249 55.8356 
-114.758 -114.843 55.4529 -114.761 -115.677 55.1105 -115.039 -116.329 54.9423 
-115.549 -116.571 54.8938 -116.765 -115.406 57.0957 -117.216 -115.112 57.0953 
-116.216 -115.723 57.104 -115.699 -116.038 57.1481 -115.312 -116.379 57.1547 
-114.907 -116.895 56.983 -114.539 -117.625 56.5922 -114.621 -118.217 56.1645 
-115.213 -118.344 55.922 -115.93 -118.154 55.8709 -116.538 -119.287 56.9719 
-115.886 -119.606 56.9473 -116.476 -120.529 58.4373 -115.012 -119.871 57.0357 
-115.783 -120.875 58.4421 -116.092 -121.821 60.1161 -114.371 -119.725 57.396 
-114.89 -121.064 58.501 -115.373 -122.169 60.1233 -115.397 -123.364 61.5055 
-114.48 -119.146 57.9055 -114.391 -120.824 58.8371 -114.621 -122.251 60.2284 
-114.737 -123.669 61.6958 -114.881 -124.942 62.8123 -115.083 -118.533 58.2453 
-114.715 -120.33 59.3198 -114.377 -121.938 60.7004 -114.135 -123.56 62.2386 
-114.232 -125.042 63.4921 -114.583 -126.125 64.6243 -115.628 -118.083 58.319 
-115.39 -119.914 59.604 -114.841 -121.56 61.211 -114.014 -123.097 63.0143 
-113.576 -124.63 64.4381 -113.733 -125.968 65.4536 -113.989 -126.87 66.4699 
-116.12 -117.686 58.2608 -115.933 -119.547 59.5976 -115.516 -121.293 61.3128 
-114.544 -122.726 63.353 -113.529 -124.005 65.1031 -113.153 -125.385 66.1578 
-113.166 -126.585 66.8817 -113.171 -127.41 67.7048 -116.661 -117.268 58.2083 
-116.422 -119.107 59.4691 -116.09 -120.919 61.0828 -115.334 -122.447 63.0903 
-114.26 -123.604 65.0321 -113.513 -124.796 66.4028 -113.162 -126.053 67.1976 
-112.85 -127.054 67.8661 -112.596 -127.797 68.7036 -117.127 -116.845 58.1995 
-116.891 -118.627 59.3784 -116.612 -120.39 60.818 -116.082 -121.975 62.6517 
-115.249 -123.257 64.5357 -114.522 -124.448 66.0968 -114.044 -125.65 67.2585 
-113.494 -126.623 68.1421 -112.833 -127.325 68.9998 -112.389 -127.945 69.9252 
-116.962 -119.964 57.9468 -116.732 -121.262 59.6075 -117.282 -120.759 58.8832 
-116.149 -122.8 61.1556 -116.99 -122.26 60.4543 -117.754 -121.686 59.6322 
-115.519 -124.534 62.3576 -116.471 -124.006 61.8483 -117.533 -123.38 61.153 
-118.339 -122.674 60.3643 -115.225 -125.989 63.941 -115.991 -125.646 63.2759 
-117.078 -125.066 62.6846 -118.053 -124.318 61.9839 -118.829 -123.559 61.079 
-114.831 -126.932 66.0583 -115.602 -126.808 65.2702 -116.532 -126.443 64.3707 
-117.56 -125.801 63.5686 -118.42 -125.093 62.6193 -119.307 -124.314 61.5974 
-113.963 -127.612 67.7423 -114.924 -127.625 67.2812 -115.915 -127.465 66.2423 
-117.021 -127.05 65.1341 -118.049 -126.502 64.0578 -118.949 -125.836 62.9545 
-119.907 -124.909 62.0547 -113.052 -128.194 68.8474 -114.014 -128.366 68.6677 
-115.153 -128.312 67.8218 -116.402 -128.036 66.6568 -117.697 -127.61 65.5259 
-118.762 -127.095 64.3433 -119.672 -126.29 63.3182 -120.591 -125.234 62.5644 
-112.52 -128.543 70.0001 -113.294 -128.949 69.8307 -114.431 -129.014 69.1084 
-115.724 -128.784 67.9971 -117.179 -128.38 66.9123 -118.527 -127.915 65.7894 
-119.519 -127.299 64.6096 -120.39 -126.389 63.6927 -121.274 -125.392 62.9501 
-112.362 -128.305 71.3657 -112.764 -129.044 71.2608 -112.873 -128.56 72.5183 
-113.599 -129.296 72.1195 -114.181 -128.659 72.8366 -113.773 -129.425 70.6625 
-115.094 -129.241 72.2696 -116.191 -128.648 72.5701 -114.745 -129.499 71.2088 
-115.053 -129.321 69.5272 -117.043 -129.047 72.1399 -118.413 -128.624 72.4601 
-116.208 -129.249 71.3932 -116.118 -129.248 69.8693 -116.559 -128.94 68.2588 
-119.099 -128.936 72.0194 -120.397 -128.689 72.3816 -118.04 -128.966 71.2924 
-117.653 -129.042 69.8983 -117.817 -128.934 68.3225 -118.198 -128.489 67.0375 
-121.105 -129.067 71.3876 -122.044 -128.835 71.6738 -120.092 -128.905 70.6827 
-119.507 -128.922 69.4012 -119.39 -129.044 67.88 -119.412 -128.662 66.7101 
-119.469 -127.972 65.7175 -122.923 -129.228 70.1583 -123.384 -128.78 70.4618 
-122.183 -129.099 69.5191 -121.456 -128.939 68.4682 -121.026 -129.163 67.1339 
-120.702 -129.031 66.0282 -120.434 -128.18 65.2821 -120.366 -127.215 64.5471 
-124.29 -128.963 68.9756 -124.42 -128.332 69.3346 -123.91 -129.125 68.3891 
-123.231 -128.97 67.561 -122.567 -129.041 66.5077 -122 -129.107 65.4948 
-121.487 -128.455 64.7833 -121.256 -127.296 64.2608 -121.283 -126.239 63.6848 
-125.191 -128.289 68.1586 -125.25 -127.691 68.5153 -125.029 -128.677 67.6395 
-124.55 -128.751 66.9641 -123.897 -128.695 66.1274 -123.268 -128.626 65.2485 
-122.646 -128.215 64.5122 -122.223 -127.305 63.942 -122.158 -126.248 63.4202 
-122.16 -125.349 62.8089 -112.745 -127.508 70.7256 -112.769 -127.643 72.1983 
-113.589 -127.111 71.3174 -113.839 -127.053 72.5765 -114.795 -126.942 71.2831 
-113.543 -127.723 73.0826 -115.404 -126.78 72.3391 -116.188 -126.799 70.6608 
-114.961 -126.989 73.2812 -115.275 -127.777 73.1345 -116.97 -126.599 71.5536 
-117.506 -126.421 69.706 -116.657 -126.587 73.112 -116.845 -126.961 73.5038 
-117.599 -127.84 72.9361 -118.241 -126.292 70.2443 -118.663 -125.936 68.4787 
-118.034 -126.333 72.178 -118.259 -126.443 73.4342 -119.002 -127.045 73.4021 
-119.847 -127.951 72.8576 -119.47 -125.928 68.6551 -119.781 -125.399 67.1544 
-119.218 -126.058 70.4895 -119.34 -126.111 72.1895 -120.014 -126.516 72.9383 
-120.939 -127.248 72.8132 -121.591 -128.096 72.4147 -120.7 -125.377 67.2263 
-120.765 -124.601 66.0362 -120.503 -125.692 68.7511 -120.439 -125.736 70.388 
-120.822 -126.049 71.4909 -121.625 -126.664 71.8312 -122.372 -127.34 71.7871 
-122.87 -128.106 71.3781 -121.594 -124.472 66.1102 -121.436 -123.55 65.1733 
-121.593 -125.051 67.3215 -121.519 -125.2 68.7819 -121.652 -125.382 70.0124 
-122.188 -125.915 70.6005 -122.91 -126.521 70.7653 -123.472 -127.127 70.6813 
-123.918 -127.811 70.1799 -122.125 -123.38 65.2087 -121.882 -122.486 64.4314 
-122.276 -124.112 66.1496 -122.325 -124.471 67.3629 -122.437 -124.625 68.6251 
[...]
CELL_DATA 2000
SCALARS Distance double
LOOKUP_TABLE default
171.006 170.949 171.432 172.353 170.989 171.427 172.371 172.814 173.718 
171.131 171.527 172.508 172.914 173.869 174.231 175.161 171.352 171.713 
172.722 173.12 174.127 174.471 175.44 175.768 176.763 171.674 171.979 
172.993 173.374 174.423 174.778 175.772 176.09 177.08 177.424 178.397 
172.168 172.39 173.414 173.713 174.785 175.113 176.15 176.454 177.451 
177.758 178.723 179.017 179.871 172.805 172.977 174.004 174.22 175.265 
175.531 176.577 176.868 177.894 178.173 179.142 179.385 180.247 180.44 
181.193 173.471 173.636 174.62 174.816 175.785 176.018 176.997 177.29 
178.291 178.604 179.56 179.818 180.66 180.846 181.587 181.742 182.434 
174.099 174.26 175.17 175.365 176.255 176.479 177.381 177.666 178.605 
178.938 179.849 180.158 180.96 181.204 181.903 182.1 182.743 182.922 
183.519 170.108 168.757 169.615 170.03 167.435 168.264 168.661 169.569 
170.049 166.111 166.923 167.281 168.189 168.679 169.632 170.175 164.834 
165.6 165.915 166.784 167.259 168.246 168.838 169.815 170.409 163.672 
164.387 164.687 165.448 165.866 166.808 167.432 168.474 169.151 170.108 
170.746 162.606 163.284 163.614 164.301 164.683 165.487 166.079 167.082 
167.829 168.854 169.572 170.506 171.212 161.77 162.313 162.685 163.308 
163.747 164.435 165.009 165.85 166.589 167.565 168.349 169.33 170.097 
171.044 171.828 161.389 161.704 162.126 162.564 163.096 163.656 164.283 
164.948 165.639 166.44 167.205 168.138 168.961 169.938 170.785 171.727 
172.539 161.414 161.57 162.02 162.26 162.809 163.207 163.855 164.37 
165.005 165.609 166.262 167.057 167.856 168.827 169.736 170.715 171.597 
172.478 173.249 161.67 162.172 162.03 162.224 162.392 162.404 162.662 
162.623 162.969 162.623 162.571 162.934 163.013 163.497 163.491 163.979 
163.456 163.063 163.426 163.35 163.885 163.954 164.48 164.512 165.022 
164.823 164.208 164.446 164.058 164.439 164.343 164.82 164.89 165.43 
165.532 166.166 166.368 165.681 165.886 165.266 165.547 165.108 165.56 
165.369 166.044 166.036 166.881 166.911 167.806 168.217 167.391 167.753 
166.935 167.376 166.606 167.21 166.602 167.458 167.091 168.154 167.953 
169.036 168.859 169.818 170.345 169.478 169.985 169.086 169.69 168.797 
169.533 168.713 169.608 168.959 169.993 169.554 170.612 170.293 171.236 
170.936 171.736 172.298 171.605 172.108 171.354 171.919 171.154 171.807 
171.078 171.801 171.149 171.917 171.409 172.214 171.855 172.643 172.342 
173.049 172.743 173.375 174.299 174.028 174.646 175.58 173.664 174.34 
175.312 175.934 176.829 173.291 173.952 174.913 175.596 176.538 177.15 
177.977 173.092 173.66 174.601 175.193 176.137 176.8 177.722 178.287 
179.125 173.075 173.598 174.591 175.026 175.952 176.473 177.429 178.016 
178.949 179.492 180.365 173.103 173.648 174.732 175.152 176.119 176.485 
177.388 177.813 178.695 179.244 180.093 180.671 181.397 173.165 173.696 
174.806 175.298 176.335 176.737 177.624 177.91 178.647 179.008 179.729 
180.265 180.926 181.48 181.971 173.278 173.77 174.833 175.339 176.376 
176.881 177.808 178.149 178.843 179.055 179.678 179.991 180.64 181.039 
181.571 181.949 182.337 173.374 173.851 174.848 175.339 176.32 176.853 
177.788 178.239 178.991 179.254 179.897 180.108 180.802 181.021 181.651 
181.803 182.252 182.409 182.779 174.733 176.005 175.505 175.781 177.253 
176.783 177.06 176.559 176.839 178.405 178.001 178.333 177.863 178.184 
177.662 177.98 179.565 179.156 179.572 179.153 179.583 179.085 179.463 
178.88 179.221 180.845 180.413 180.863 180.432 180.924 180.494 180.921 
180.388 180.701 180.117 180.412 181.921 181.675 182.122 181.743 182.173 
181.785 182.189 181.754 182.041 181.521 181.748 181.223 181.462 182.478 
182.511 182.977 182.835 183.206 182.924 183.263 182.915 183.215 182.775 
183.011 182.503 182.719 182.204 182.4 182.765 182.883 183.397 183.458 
183.875 183.766 184.094 183.872 184.195 183.886 184.174 183.738 183.953 
183.441 183.616 183.091 183.236 183.123 183.18 183.731 183.829 184.334 
184.319 184.686 184.57 184.898 184.745 185.062 184.801 185.01 184.598 
184.713 184.242 184.344 183.863 183.968 183.53 184.43 184.031 184.174 
185.409 185.007 185.151 184.717 184.779 186.424 185.985 186.084 185.652 
185.627 185.187 185.108 187.58 187.011 187.002 186.514 186.422 185.967 
185.845 185.426 185.332 188.829 188.179 188.031 187.423 187.266 186.753 
186.634 186.181 186.097 185.666 185.549 189.914 189.359 189.131 188.452 
188.208 187.63 187.511 187.027 186.925 186.446 186.265 185.798 185.521 
190.601 190.294 190.118 189.508 189.196 188.574 188.4 187.915 187.791 
187.284 187.003 186.463 186.084 185.61 185.213 190.803 190.781 190.721 
190.365 190.061 189.503 189.213 188.734 188.539 188.082 187.746 187.175 
186.695 186.145 185.704 185.247 184.848 190.676 190.807 190.814 190.751 
190.522 190.19 189.824 189.408 189.069 188.68 188.28 187.804 187.266 
186.729 186.219 185.745 185.337 184.898 184.498 183.429 183.697 183.728 
184.228 184.191 184.055 184.416 184.557 185.161 184.801 184.621 184.925 
184.855 185.388 185.551 186.238 185.231 185.209 185.574 185.47 185.961 
185.948 186.641 186.768 187.523 185.317 185.495 185.898 186 186.478 
186.543 187.173 187.285 188.052 188.164 188.87 185.239 185.491 185.886 
186.115 186.553 186.814 187.37 187.665 188.33 188.605 189.261 189.415 
189.928 185.063 185.397 185.812 186.047 186.426 186.702 187.168 187.575 
188.139 188.599 189.139 189.525 189.947 190.197 190.489 184.632 185.123 
185.556 185.91 186.236 186.516 186.849 187.225 187.667 188.174 188.636 
189.141 189.497 189.917 190.155 190.477 190.611 183.984 184.559 184.982 
185.488 185.797 186.19 186.436 186.816 187.134 187.609 188.011 188.531 
188.895 189.356 189.617 189.995 190.156 190.45 190.512 173.737 174.737 
174.556 175.191 175.857 175.608 176.276 176.04 176.679 177.118 176.81 
177.477 177.192 177.83 177.552 178.129 178.358 178.073 178.7 178.412 
179.002 178.704 179.222 178.925 179.336 179.496 179.251 179.87 179.605 
180.194 179.879 180.406 180.047 180.485 180.072 180.37 180.611 180.376 
181.041 180.781 181.434 181.113 181.712 181.32 181.853 181.377 181.773 
181.179 181.4 181.691 181.5 182.191 181.968 182.639 182.365 182.969 
182.637 183.157 182.765 183.152 182.636 182.808 182.165 182.198 182.638 
182.531 183.207 183.059 183.67 183.474 183.986 183.755 184.156 183.889 
184.141 183.796 183.846 183.373 183.257 182.723 182.626 183.408 183.385 
184.033 183.962 184.501 184.357 184.76 184.586 184.889 184.691 184.855 
184.573 184.541 184.16 183.991 183.56 183.402 183.002 182.997 172.957 
172.157 173.029 173.99 171.537 172.323 173.326 174.12 175.116 171.052 
171.805 172.819 173.554 174.589 175.357 176.406 170.471 171.303 172.348 
173.112 174.17 174.912 175.989 176.715 177.712 169.78 170.655 171.765 
172.626 173.753 174.533 175.63 176.344 177.357 178 178.891 169.202 
169.988 171.138 172.04 173.26 174.112 175.254 175.992 177.011 177.662 
178.572 179.159 179.999 168.91 169.514 170.611 171.449 172.677 173.585 
174.751 175.568 176.592 177.296 178.218 178.843 179.698 180.268 181.071 
168.939 169.346 170.325 170.987 172.111 172.963 174.096 174.977 176.012 
176.81 177.753 178.456 179.33 179.946 180.743 181.298 182.025 169.172 
169.46 170.33 170.789 171.778 172.439 173.497 174.303 175.358 176.187 
177.18 177.948 178.861 179.539 180.352 180.939 181.652 182.183 182.819 
169.578 170.591 170.286 170.751 171.721 171.385 171.885 171.556 172.124 
172.954 172.587 173.126 172.761 173.346 173.038 173.751 174.252 173.869 
174.455 174.079 174.731 174.363 175.085 174.781 175.583 175.598 175.209 
175.837 175.465 176.172 175.813 176.559 176.2 176.961 176.648 177.417 
176.975 176.601 177.269 176.894 177.605 177.254 177.981 177.645 178.36 
178.035 178.742 178.436 179.112 178.317 177.987 178.685 178.342 179.046 
178.684 179.366 179.013 179.689 179.372 180.048 179.743 180.38 180.055 
180.617 179.579 179.289 179.972 179.699 180.391 180.081 180.726 180.372 
181.003 180.672 181.326 181.02 181.636 181.302 181.822 181.463 181.911 
180.751 180.487 181.119 180.894 181.553 181.324 181.945 181.658 182.242 
181.94 182.538 182.256 182.822 182.509 182.975 182.622 183.017 182.665 
183.043 181.573 182.933 182.141 181.951 184.365 183.556 183.382 182.568 
182.395 185.793 185.022 184.877 184.046 183.854 183.017 182.797 187.11 
186.41 186.297 185.534 185.348 184.499 184.248 183.383 183.115 188.327 
187.656 187.516 186.856 186.691 185.945 185.689 184.84 184.545 183.684 
183.409 189.377 188.785 188.549 187.951 187.731 187.131 186.857 186.16 
185.806 185.04 184.699 183.929 183.625 190.006 189.634 189.336 188.843 
188.515 188.001 187.652 187.107 186.697 186.092 185.678 185.051 184.693 
184.036 183.699 190.228 190.04 189.78 189.447 189.097 188.658 188.254 
187.762 187.331 186.81 186.405 185.878 185.545 184.987 184.679 184.048 
183.718 190.39 190.225 190.053 189.795 189.52 189.155 188.79 188.328 
187.913 187.407 187.03 186.548 186.273 185.797 185.567 185.007 184.731 
184.073 183.749 181.63 182.134 182.268 183.002 182.526 182.785 183.604 
183.687 184.427 182.772 183.167 184.121 184.299 185.087 185.131 185.84 
182.966 183.421 184.486 184.792 185.657 185.773 186.503 186.525 187.177 
183.131 183.6 184.649 185.08 185.985 186.257 187.038 187.167 187.888 
187.876 188.479 183.148 183.645 184.565 185.101 185.978 186.432 187.265 
187.6 188.418 188.576 189.258 189.172 189.613 182.966 183.481 184.288 
184.876 185.728 186.295 187.161 187.678 188.559 188.964 189.692 189.827 
190.227 190.099 190.235 182.668 183.173 183.937 184.536 185.408 186.012 
186.883 187.465 188.318 188.894 189.612 190.005 190.376 190.464 190.524 
190.424 190.383 182.33 182.817 183.549 184.163 185.047 185.692 186.541 
187.128 187.862 188.468 189.1 189.667 190.054 190.37 190.461 190.528 
190.508 190.462 190.472 180.829 179.615 180.589 181.257 178.185 179.244 
179.882 180.92 181.538 176.688 177.74 178.336 179.418 179.991 181.072 
181.665 175.156 176.196 176.759 177.846 178.411 179.473 180.045 181.157 
181.808 173.569 174.584 175.087 176.221 176.811 177.913 178.497 179.566 
180.23 181.36 182.05 172.102 173.008 173.454 174.518 175.112 176.271 
176.893 178.016 178.673 179.817 180.543 181.645 182.231 170.797 171.64 
172.104 173.012 173.606 174.642 175.304 176.395 177.06 178.214 178.944 
180.13 180.795 181.794 182.196 169.502 170.363 170.857 171.755 172.367 
173.309 174.008 174.967 175.654 176.655 177.361 178.496 179.217 180.33 
180.853 181.721 181.985 168.277 169.076 169.559 170.478 171.096 172.086 
172.82 173.799 174.538 175.434 176.103 177.029 177.696 178.748 179.353 
180.345 180.731 181.503 181.698 167.827 167.693 168.151 169.084 167.735 
168.12 169.05 169.556 170.649 167.751 168.183 169.131 169.612 170.757 
171.288 172.468 167.742 168.176 169.189 169.711 170.926 171.49 172.782 
173.228 174.318 168.014 168.279 169.342 169.818 171.127 171.712 173.089 
173.594 174.755 175.032 175.921 168.626 168.744 169.805 170.138 171.471 
171.984 173.359 173.879 175.026 175.396 176.287 176.534 177.383 169.328 
169.434 170.476 170.728 171.981 172.389 173.633 174.09 175.115 175.532 
176.383 176.767 177.627 177.995 178.914 170.014 170.136 171.159 171.393 
172.53 172.865 173.937 174.297 175.18 175.542 176.347 176.772 177.659 
178.129 179.055 179.472 180.297 170.7 170.82 171.792 172.009 173.027 
173.314 174.252 174.54 175.346 175.626 176.423 176.782 177.693 178.145 
179.083 179.523 180.324 180.681 181.31 171.38 172.733 172.186 172.478 
174.055 173.53 173.829 173.324 173.656 175.467 174.874 175.161 174.641 
174.955 174.475 174.785 177.095 176.406 176.708 176.056 176.379 175.797 
176.106 175.573 175.846 178.731 178.09 178.406 177.713 178.04 177.358 
177.71 177.039 177.361 176.702 176.998 180.145 179.626 179.926 179.347 
179.647 179.033 179.38 178.739 179.095 178.389 178.714 177.982 178.318 
181.437 180.958 181.272 180.76 181.076 180.542 180.878 180.33 180.655 
180.062 180.338 179.696 179.962 179.316 179.629 182.701 182.253 182.615 
182.114 182.477 181.952 182.324 181.784 182.107 181.525 181.748 181.153 
181.335 180.786 181.001 180.49 180.745 183.799 183.469 183.839 183.433 
183.779 183.325 183.673 183.198 183.526 182.975 183.207 182.561 182.725 
182.094 182.277 181.733 181.943 181.465 181.673 182.312 182.678 182.84 
183.589 183.104 183.295 184.191 184.323 185.167 183.584 183.78 184.718 
184.938 185.833 185.931 186.659 184.035 184.248 185.093 185.367 186.186 
186.432 187.129 187.258 187.874 184.295 184.572 185.274 185.581 186.272 
186.602 187.261 187.541 188.175 188.377 188.997 184.399 184.693 185.299 
185.602 186.215 186.577 187.249 187.603 188.281 188.572 189.194 189.416 
189.906 184.488 184.76 185.342 185.587 186.177 186.502 187.205 187.591 
188.321 188.657 189.282 189.527 189.968 190.126 190.365 184.516 184.82 
185.388 185.638 186.211 186.505 187.19 187.566 188.282 188.652 189.265 
189.559 190.007 190.171 190.418 190.455 190.53 184.415 184.762 185.284 
185.605 186.132 186.488 187.112 187.519 188.15 188.537 189.056 189.414 
189.844 190.142 190.456 190.567 190.697 190.624 190.611 160.993 161.013 
160.773 160.465 161.426 160.985 160.716 160.436 160.351 162.259 161.621 
161.351 160.886 160.786 160.53 160.599 163.361 162.627 162.374 161.736 
161.657 161.172 161.196 160.879 161 164.605 163.848 163.677 162.938 
162.91 162.268 162.355 161.769 161.906 161.454 161.775 165.938 165.199 
165.126 164.362 164.349 163.635 163.727 163.09 163.283 162.686 163.024 
162.565 163.149 167.257 166.571 166.554 165.848 165.832 165.097 165.1 
164.444 164.601 164.078 164.421 163.964 164.444 164.088 164.69 168.553 
167.882 167.867 167.225 167.217 166.53 166.486 165.792 165.868 165.334 
165.662 165.272 165.713 165.342 165.782 165.485 165.962 169.905 169.208 
169.197 168.528 168.537 167.869 167.852 167.157 167.202 166.608 166.883 
166.471 166.905 166.537 166.934 166.549 166.923 166.632 167.079 160.984 
160.375 160.674 160.862 160.271 160.266 160.396 160.693 161.143 160.61 
160.461 160.665 160.605 161.033 161.273 161.976 160.995 160.884 161.256 
161.186 161.677 161.584 162.195 162.346 163.085 161.674 161.348 161.758 
161.777 162.416 162.386 162.96 162.862 163.466 163.538 164.19 163.045 
162.36 162.703 162.427 163.105 163.075 163.742 163.656 164.209 164.116 
164.705 164.707 165.297 164.64 163.934 164.225 163.679 164.249 163.951 
164.621 164.441 165.024 164.877 165.421 165.341 165.903 165.857 166.372 
165.936 165.409 165.659 165.181 165.613 165.227 165.759 165.45 165.954 
165.706 166.164 166.025 166.507 166.464 166.959 166.913 167.38 167.061 
166.588 166.816 166.415 166.753 166.429 166.842 166.557 166.957 166.662 
167.005 166.755 167.12 167.011 167.467 167.457 167.957 167.926 168.418 
161.423 161.376 161.627 162.016 161.689 161.753 162.171 162.184 162.328 
162.46 162.304 162.727 162.531 162.646 162.429 162.547 163.424 163.169 
163.509 163.224 163.311 162.928 163.01 162.844 163.314 164.367 164.054 
164.262 163.973 164.021 163.644 163.722 163.47 163.925 163.935 164.692 
165.35 164.938 165.066 164.705 164.793 164.399 164.573 164.272 164.772 
164.676 165.434 165.441 166.259 166.369 165.907 166.015 165.587 165.783 
165.35 165.711 165.328 165.964 165.708 166.53 166.352 167.213 167.113 
168.049 167.39 166.92 167.048 166.605 166.883 166.489 166.992 166.646 
167.396 167.096 167.977 167.667 168.542 168.266 169.188 169.071 170.106 
168.466 167.983 168.169 167.704 168.037 167.659 168.22 167.946 168.721 
168.516 169.39 169.151 169.981 169.681 170.485 170.268 171.153 171.109 
172.041 180.278 179.04 179.475 179.05 177.726 178.158 177.673 178.13 
177.636 176.373 176.793 176.261 176.709 176.201 176.67 176.167 175.018 
175.419 174.858 175.28 174.753 175.226 174.743 175.214 174.695 173.679 
174.057 173.463 173.863 173.291 173.76 173.263 173.773 173.278 173.728 
173.174 172.354 172.695 172.036 172.426 171.793 172.258 171.703 172.239 
171.726 172.255 171.722 172.191 171.681 171.099 171.364 170.63 170.961 
170.283 170.725 170.155 170.668 170.143 170.666 170.139 170.667 170.171 
170.716 170.295 170.007 170.178 169.448 169.636 168.963 169.279 168.767 
169.201 168.767 169.197 168.731 169.151 168.687 169.179 168.77 169.341 
168.982 169.082 169.206 168.573 168.644 168.039 168.169 167.707 167.988 
167.652 167.997 167.646 167.95 167.546 167.864 167.483 167.897 167.569 
168.082 167.803 
POINT_DATA 1002
SCALARS Distance double
LOOKUP_TABLE default
171.926 170.597 170.495 171.876 170.478 173.26 171.931 170.561 173.309 
174.588 172.092 170.742 173.503 174.798 176.099 172.308 171.007 173.768 
175.115 176.41 177.782 172.623 171.395 174.05 175.455 176.749 178.083 
179.328 173.154 171.958 174.47 175.839 177.161 178.446 179.644 180.645 
173.823 172.639 175.04 176.289 177.608 178.915 180.068 181.034 181.905 
174.451 173.327 175.589 176.73 177.976 179.294 180.476 181.44 182.29 
183.11 175.006 173.967 176.057 177.122 178.295 179.548 180.708 181.701 
182.573 183.368 184.083 169.234 169.119 167.921 167.755 166.631 169.111 
166.386 165.32 167.705 169.225 165.098 164.086 166.264 167.811 169.48 
163.98 162.954 164.986 166.351 168.135 169.84 162.923 161.944 163.942 
165.126 166.764 168.592 170.287 162.074 161.295 163.062 164.242 165.663 
167.342 169.115 170.892 161.749 161.127 162.56 163.67 164.942 166.317 
167.958 169.811 171.654 161.841 161.281 162.476 163.395 164.503 165.574 
166.898 168.715 170.683 172.456 161.894 162.359 162.267 162.591 162.323 
163.039 162.803 162.748 163.414 164.044 163.641 163.982 163.838 164.409 
164.994 165.002 165.488 164.698 164.785 165.27 166.03 166.555 167.063 
166.102 165.843 166.055 166.809 167.807 168.555 169.034 168.15 167.876 
167.91 168.41 169.244 170.058 170.846 171.155 170.555 170.367 170.356 
170.562 171.013 171.584 172.072 172.818 172.926 172.663 172.543 172.516 
172.537 172.659 172.976 173.375 173.705 175.228 175.006 176.508 174.642 
176.291 177.695 174.241 175.858 177.469 178.773 174.085 175.482 177.076 
178.625 179.98 174.176 175.516 176.865 178.353 179.875 181.245 174.256 
175.768 177.08 178.229 179.512 180.899 182.051 174.295 175.873 177.369 
178.432 179.29 180.389 181.492 182.371 174.356 175.854 177.409 178.655 
179.451 180.297 181.238 181.985 182.658 174.382 175.81 177.301 178.662 
179.664 180.581 181.531 182.188 182.586 183.095 176.283 177.561 177.34 
178.752 178.692 178.526 179.948 180.021 180.043 179.823 181.315 181.332 
181.424 181.301 180.983 182.471 182.587 182.606 182.541 182.284 181.982 
183.015 183.452 183.585 183.603 183.505 183.247 182.932 183.267 183.912 
184.267 184.434 184.555 184.467 184.149 183.771 183.619 184.31 184.782 
185.013 185.252 185.385 185.184 184.809 184.455 183.88 184.597 184.815 
185.611 185.804 185.248 186.544 186.929 186.102 185.535 187.564 188.252 
186.901 186.27 185.737 188.726 189.514 187.808 187.096 186.544 186.014 
189.843 190.391 188.828 187.996 187.452 186.786 185.999 190.657 190.763 
189.862 188.908 188.308 187.621 186.607 185.65 190.931 190.721 190.584 
189.746 188.994 188.321 187.3 186.182 185.284 190.773 190.539 190.743 
190.243 189.489 188.729 187.794 186.707 185.771 184.958 183.315 183.993 
183.786 184.39 184.401 184.867 185.076 184.932 185.313 185.987 185.626 
185.142 186.026 186.549 187.394 185.722 185.092 186.355 187.058 187.918 
188.85 185.667 184.963 186.276 187.036 188.023 189.053 189.885 185.568 
184.663 186.207 186.802 187.672 188.727 189.641 190.319 185.143 184.092 
185.963 186.545 187.207 188.127 189.059 189.795 190.355 184.444 183.417 
185.363 186.068 186.701 187.498 188.411 189.219 189.839 190.278 173.906 
175.385 174.926 176.518 176.131 176.93 177.784 177.444 178.133 178.431 
178.995 178.639 179.325 179.555 179.688 180.122 179.732 180.499 180.764 
180.904 180.87 181.279 180.827 181.728 182.08 182.299 182.363 182.09 
182.398 181.853 182.902 183.292 183.539 183.639 183.459 182.877 183.346 
182.718 183.881 184.232 184.44 184.496 184.296 183.789 183.109 172.044 
173.143 171.288 172.541 170.781 174.299 172.092 170.286 173.827 175.648 
171.533 169.597 173.42 175.267 177.058 170.837 168.908 172.927 174.916 
176.712 178.306 170.219 168.48 172.359 174.496 176.354 177.972 179.443 
169.843 168.407 171.771 173.902 175.859 177.567 179.119 180.538 169.788 
168.623 171.347 173.217 175.172 177.009 178.688 180.186 181.508 169.969 