# vtk DataFile Version 4.0
vtk output
ASCII
DATASET POLYDATA
POINTS 1002 float
-120.724 -111.944 54.4418 -120.427 -111.027 53.5079 -119.837 -111.348 53.7669 
-120.123 -112.373 54.7703 -119.207 -111.732 54.1525 -120.972 -113.079 55.4694 
-119.521 -112.812 55.2638 -118.545 -112.152 54.6783 -120.436 -113.58 55.9029 
-121.284 -114.272 56.682 -118.887 -113.31 55.8901 -117.934 -112.701 55.2463 
-119.881 -114.094 56.526 -120.807 -114.835 57.292 -121.665 -115.534 58.137 
-118.265 -114 56.5189 -117.426 -113.428 55.8374 -119.248 -114.761 57.2076 
-120.223 -115.55 57.975 -121.111 -116.304 58.8081 -121.916 -117.144 59.5395 
-117.768 -114.803 57.2045 -117.013 -114.239 56.4936 -118.696 -115.557 57.9071 
-119.66 -116.368 58.6802 -120.495 -117.182 59.4818 -121.274 -118.018 60.1932 
-122.01 -118.82 60.7596 -117.45 -115.547 58.0249 -116.704 -115.016 57.1953 
-118.345 -116.253 58.8068 -119.315 -117.01 59.6114 -120.079 -117.856 60.3713 
-120.726 -118.737 61.0025 -121.433 -119.484 61.5639 -122.108 -120.089 62.0452 
-117.227 -116.218 58.9115 -116.477 -115.689 57.9818 -118.053 -116.871 59.8295 
-118.999 -117.5 60.7495 -119.749 -118.299 61.5203 -120.274 -119.292 62.0201 
-120.902 -120.095 62.4784 -121.595 -120.641 62.9871 -122.172 -121.167 63.3739 
-116.985 -116.852 59.8188 -116.264 -116.272 58.8823 -117.675 -117.558 60.7445 
-118.498 -118.156 61.6982 -119.239 -118.858 62.525 -119.691 -119.91 62.9725 
-120.219 -120.87 63.2963 -120.959 -121.393 63.807 -121.609 -121.787 64.2948 
-122.085 -122.287 64.5521 -116.696 -117.457 60.7014 -116.034 -116.844 59.7743 
-117.241 -118.254 61.5423 -117.9 -118.977 62.3659 -118.635 -119.657 63.1743 
-119.094 -120.619 63.702 -119.467 -121.66 64.0037 -120.14 -122.271 64.4843 
-120.896 -122.542 65.0886 -121.455 -122.857 65.4772 -121.893 -123.267 65.6223 
-119.694 -110.331 52.7813 -119.074 -110.681 53.0063 -118.919 -109.477 52.0923 
-118.232 -109.89 52.2718 -118.102 -108.43 51.5098 -118.358 -111.082 53.4092 
-117.308 -108.911 51.703 -117.186 -107.424 51.0243 -117.418 -110.348 52.678 
-117.633 -111.549 53.9425 -116.319 -108 51.2829 -116.25 -106.649 50.5043 
-116.402 -109.501 52.1246 -116.651 -110.894 53.2375 -117.068 -112.181 54.5192 
-115.434 -107.249 50.9321 -115.506 -105.873 50.0623 -115.408 -108.755 51.7437 
-115.617 -110.185 52.7082 -116.116 -111.632 53.8599 -116.63 -113.011 55.1397 
-114.846 -106.382 50.9274 -115.035 -105.005 50.1183 -114.68 -107.973 51.651 
-114.741 -109.471 52.4289 -115.13 -111.006 53.3961 -115.693 -112.627 54.4941 
-116.21 -113.96 55.7642 -114.483 -105.568 51.423 -114.69 -104.391 50.7131 
-114.273 -106.985 52.0647 -114.221 -108.528 52.6323 -114.398 -110.18 53.3092 
-114.79 -112.056 54.1171 -115.282 -113.734 55.1095 -115.85 -114.834 56.4309 
-114.109 -105.172 52.0521 -114.317 -104.157 51.4675 -113.913 -106.213 52.658 
-113.841 -107.508 53.1859 -113.919 -109.141 53.6625 -114.176 -111.111 54.1714 
-114.533 -113.148 54.8321 -114.964 -114.633 55.8478 -115.581 -115.504 57.2804 
-113.65 -105.033 52.58 -113.911 -104.069 52.1722 -113.421 -105.855 53.0526 
-113.315 -106.864 53.5765 -113.364 -108.305 54.0622 -113.656 -110.092 54.4617 
-114.093 -112.102 54.9221 -114.411 -113.976 55.6564 -114.755 -115.257 56.7879 
-115.361 -116.067 58.2498 -113.297 -104.559 53.0846 -112.934 -105.409 53.3561 
-112.65 -104.87 54.0309 -112.252 -105.803 54.2102 -112.258 -105.352 55.0488 
-112.692 -106.345 53.7291 -111.94 -106.668 55.3322 -112.388 -106.326 56.0998 
-112.03 -107.257 54.5677 -112.63 -107.738 54.2406 -112.247 -107.827 56.5911 
-112.991 -107.453 57.1174 -111.883 -108.509 55.7848 -112.172 -109.049 55.0598 
-112.935 -109.421 54.7166 -113.059 -108.824 57.6183 -113.77 -108.608 58.0503 
-112.493 -109.473 57.0647 -112.461 -110.153 56.2123 -113.003 -110.582 55.526 
-113.661 -111.171 55.1728 -114.084 -110.103 58.3936 -114.599 -110.217 58.8992 
-113.589 -110.401 57.9741 -113.407 -110.972 57.359 -113.65 -111.504 56.6469 
-114.015 -112.158 56.1519 -114.213 -113.103 55.8516 -115.119 -111.993 59.251 
-115.511 -112.145 59.6985 -114.734 -112.034 58.7997 -114.464 -112.314 58.334 
-114.385 -112.711 57.8414 -114.37 -113.297 57.3954 -114.303 -114.124 57.0625 
-114.366 -114.873 56.8498 -115.977 -113.905 60.2788 -116.361 -113.845 60.4893 
-115.595 -114.009 59.9502 -115.229 -114.168 59.5653 -114.893 -114.371 59.1867 
-114.554 -114.757 58.7858 -114.275 -115.371 58.3982 -114.283 -115.894 58.1791 
-114.7 -116.087 58.1603 -116.509 -115.382 61.3488 -116.93 -115.169 61.3493 
-116.051 -115.602 61.264 -115.582 -115.784 61.0956 -115.134 -115.91 60.8466 
-114.691 -116.148 60.4422 -114.335 -116.626 59.9003 -114.309 -117.057 59.5237 
-114.718 -117.13 59.505 -115.38 -116.97 59.6618 -116.205 -117.878 61.2113 
-115.615 -118.102 61.095 -116.227 -119.173 62.6309 -114.98 -118.371 60.9102 
-115.74 -119.521 62.5728 -116.114 -120.619 64.0493 -114.548 -118.301 61.0592 
-115.187 -119.837 62.5218 -115.632 -121.095 64.1502 -115.934 -122.101 65.6104 
-114.532 -117.808 61.69 -114.792 -119.662 62.9197 -115.094 -121.372 64.3756 
-115.287 -122.564 65.9654 -115.621 -123.52 67.4074 -114.831 -117.342 62.3392 
-114.773 -119.064 63.6726 -114.816 -121.054 64.9752 -114.703 -122.622 66.5133 
-114.777 -123.759 68.0298 -115.05 -124.82 69.2907 -115.258 -117.137 62.6217 
-115.041 -118.572 64.1683 -114.997 -120.43 65.593 -114.678 -122.189 67.1653 
-114.303 -123.536 68.7397 -114.26 -124.822 69.9886 -114.282 -125.928 71.0124 
-115.791 -116.986 62.6373 -115.48 -118.308 64.209 -115.412 -119.948 65.7786 
-115.184 -121.703 67.4697 -114.621 -123.107 69.2173 -114.192 -124.427 70.5811 
-113.886 -125.752 71.609 -113.508 -126.643 72.5906 -116.38 -116.761 62.5698 
-116.063 -118.087 64.0632 -115.906 -119.589 65.6461 -115.768 -121.301 67.3218 
-115.309 -122.775 69.1591 -114.784 -123.975 70.8026 -114.31 -125.225 72.0291 
-113.631 -126.281 73.1343 -112.954 -126.874 74.1772 -116.91 -116.498 62.4774 
-116.659 -117.839 63.9134 -116.447 -119.247 65.4689 -116.303 -120.842 67.0351 
-115.946 -122.39 68.7397 -115.457 -123.602 70.5222 -115.033 -124.687 72.0556 
-114.402 -125.714 73.3805 -113.508 -126.41 74.6625 -112.833 -126.802 75.6672 
-116.704 -118.689 62.1411 -116.595 -120.08 63.5467 -117.198 -119.612 62.9051 
-116.511 -121.53 65.0694 -117.183 -121.063 64.3525 -117.941 -120.451 63.6794 
-116.375 -123.033 66.8265 -117.123 -122.541 66.109 -117.936 -122.01 65.2396 
-118.58 -121.343 64.4001 -115.935 -124.526 68.6882 -116.723 -124.04 67.9929 
-117.578 -123.465 67.1391 -118.37 -122.877 66.0377 -118.909 -122.328 64.8907 
-115.121 -125.815 70.4912 -116.019 -125.426 69.7282 -116.881 -124.858 68.8642 
-117.873 -124.148 67.9105 -118.748 -123.548 66.6799 -119.435 -123.02 65.4198 
-114.076 -126.708 72.2046 -115.151 -126.467 71.4473 -116.247 -126.081 70.3817 
-117.331 -125.47 69.3895 -118.472 -124.668 68.4611 -119.438 -123.972 67.3013 
-120.212 -123.323 66.084 -113.118 -127.149 73.8409 -114.151 -127.142 73.156 
-115.591 -126.922 72.0723 -116.91 -126.556 70.8101 -118.108 -125.914 69.7518 
-119.221 -125.059 68.8304 -120.13 -124.256 67.7401 -120.856 -123.552 66.5479 
-112.668 -127.247 75.3357 -113.366 -127.562 74.613 -114.795 -127.518 73.6576 
-116.372 -127.168 72.4639 -117.728 -126.708 71.1196 -118.892 -126.087 69.9561 
-119.891 -125.27 68.9868 -120.705 -124.483 67.913 -121.362 -123.85 66.7211 
-112.987 -126.945 76.758 -113.098 -127.616 76.0253 -113.898 -127.199 77.1418 
-114.212 -128.052 76.0243 -115.304 -127.435 76.7605 -114.029 -128.016 74.9871 
-115.718 -128.102 75.6653 -116.948 -127.409 76.201 -115.177 -128.2 74.9599 
-115.579 -127.708 73.9925 -117.626 -127.676 75.4711 -119.019 -127.219 75.9687 
-116.783 -127.847 74.8168 -116.782 -127.496 74.0406 -117.258 -127.071 72.7402 
-119.914 -127.346 75.3029 -121.189 -127.13 75.6946 -118.86 -127.462 74.5601 
-118.5 -127.298 73.6776 -118.585 -126.917 72.5899 -118.716 -126.608 71.198 
-121.901 -127.375 74.6236 -122.685 -127.115 74.8184 -120.944 -127.457 73.9371 
-120.308 -127.485 72.8863 -120.137 -127.214 71.9122 -120.024 -126.674 70.9575 
-119.876 -126.051 69.9297 -123.314 -127.46 73.5065 -123.681 -127.008 73.6432 
-122.685 -127.561 73.0059 -121.879 -127.597 72.0013 -121.375 -127.531 71.0351 
-121.224 -126.963 70.4606 -121.03 -126.078 69.8113 -120.792 -125.248 68.8949 
-124.569 -127.361 72.5252 -124.778 -126.759 72.7919 -124.234 -127.551 72.1025 
-123.499 -127.446 71.3189 -122.616 -127.347 70.3845 -122.15 -126.98 69.8491 
-122.016 -126.127 69.4903 -121.794 -125.235 68.7268 -121.514 -124.534 67.6893 
-125.755 -127.026 71.9048 -125.937 -126.383 72.3006 -125.519 -127.345 71.4119 
-125.001 -127.239 70.7881 -124.129 -126.997 70.0014 -123.303 -126.709 69.3311 
-122.882 -126.08 68.9148 -122.66 -125.248 68.3293 -122.365 -124.581 67.382 
-122.073 -123.985 66.4075 -113.485 -126.455 76.3406 -113.895 -126.458 77.3782 
-114.536 -126.25 76.2199 -115.145 -126.061 76.9623 -115.786 -126.102 75.2454 
-115.01 -126.441 77.5691 -116.427 -125.665 75.7899 -117.061 -125.677 74.2252 
-116.206 -125.683 77.0009 -116.455 -126.475 76.9848 -117.63 -125.192 74.8509 
-118.164 -125.021 73.57 -117.299 -125.085 75.9953 -117.542 -125.576 76.5409 
-118.224 -126.594 76.3901 -118.779 -124.848 74.0633 -119.117 -124.399 72.6578 
-118.466 -124.831 75.2001 -118.618 -125.018 75.9255 -119.434 -125.858 76.2539 
-120.447 -126.71 76.1869 -119.907 -124.429 72.7887 -120.051 -123.681 71.3667 
-119.749 -124.728 74.165 -119.833 -124.792 75.2014 -120.497 -125.238 75.8777 
-121.539 -126.013 76.1048 -122.3 -126.66 75.6974 -120.863 -123.581 71.3968 
-120.843 -122.757 70.2489 -120.884 -124.144 72.7413 -120.985 -124.397 74.0213 
-121.384 -124.654 74.9771 -122.189 -125.166 75.4692 -122.949 -125.808 75.2936 
-123.338 -126.442 74.5504 -121.538 -122.551 70.3057 -121.409 -121.807 69.3864 
-121.692 -123.149 71.4045 -121.869 -123.588 72.6103 -122.113 -123.969 73.607 
-122.641 -124.392 74.2041 -123.378 -124.9 74.3492 -123.916 -125.502 74.0334 
-124.281 -126.162 73.4454 -122.075 -121.642 69.3502 -121.887 -120.953 68.5348 
-122.306 -122.236 70.2383 -122.575 -122.756 71.2318 -122.828 -123.273 72.1338 
[...]
CELL_DATA 2000
SCALARS Distance double
LOOKUP_TABLE default
171.638 171.562 171.989 172.804 171.542 171.963 172.831 173.245 174.126 
171.606 171.995 172.92 173.335 174.287 174.663 175.61 171.829 172.142 
173.102 173.491 174.51 174.89 175.9 176.242 177.243 172.23 172.463 
173.443 173.769 174.84 175.191 176.253 176.581 177.604 177.923 178.892 
172.747 172.94 173.938 174.207 175.306 175.613 176.703 176.992 178.011 
178.294 179.244 179.523 180.373 173.308 173.499 174.503 174.749 175.831 
176.119 177.19 177.467 178.456 178.711 179.628 179.876 180.715 180.933 
181.675 173.864 174.069 175.061 175.303 176.331 176.613 177.623 177.912 
178.853 179.12 179.997 180.248 181.071 181.289 182.029 182.197 182.85 
174.394 174.611 175.571 175.814 176.78 177.054 178.012 178.299 179.209 
179.474 180.318 180.573 181.372 181.618 182.347 182.54 183.169 183.311 
183.857 170.879 169.649 170.438 170.77 168.297 169.162 169.513 170.333 
170.704 166.858 167.76 168.135 169.024 169.419 170.279 170.728 165.471 
166.326 166.705 167.612 168.049 168.967 169.479 170.379 170.944 164.243 
165.015 165.401 166.236 166.696 167.602 168.183 169.142 169.802 170.704 
171.355 163.243 163.901 164.326 165.054 165.532 166.339 166.939 167.877 
168.618 169.584 170.321 171.19 171.871 162.593 163.078 163.529 164.117 
164.616 165.302 165.893 166.723 167.48 168.438 169.256 170.173 170.905 
171.735 172.42 162.278 162.614 163.028 163.457 163.914 164.484 165.041 
165.764 166.483 167.369 168.216 169.146 169.942 170.784 171.48 172.286 
172.969 162.101 162.37 162.695 163.017 163.362 163.829 164.308 164.95 
165.608 166.419 167.244 168.156 169.003 169.86 170.591 171.369 172.041 
172.835 173.513 162.123 162.202 162.311 162.614 162.372 162.352 162.646 
162.8 163.225 163.097 162.741 163.047 162.971 163.48 163.58 164.195 
164.414 163.803 164.126 163.726 164.267 164.097 164.791 164.789 165.56 
165.961 165.28 165.6 165.058 165.571 165.181 165.859 165.639 166.453 
166.377 167.25 167.725 166.928 167.268 166.62 167.138 166.631 167.288 
166.907 167.69 167.456 168.32 168.19 169.032 169.817 168.902 169.316 
168.479 169.04 168.346 169.016 168.465 169.196 168.802 169.573 169.324 
170.082 169.918 170.621 171.915 171.089 171.545 170.687 171.224 170.414 
171.008 170.302 170.913 170.356 170.983 170.594 171.24 170.976 171.624 
171.432 172.074 173.651 173.037 173.444 172.777 173.197 172.502 172.923 
172.238 172.659 172.038 172.498 171.999 172.543 172.172 172.789 172.503 
173.153 172.915 173.561 174.487 174.138 174.827 175.847 173.807 174.507 
175.62 176.271 177.29 173.563 174.211 175.373 176.082 177.215 177.772 
178.755 173.508 174.03 175.162 175.857 177.056 177.706 178.754 179.246 
180.186 173.671 174.06 175.109 175.689 176.87 177.543 178.624 179.186 
180.105 180.612 181.485 173.943 174.27 175.236 175.685 176.803 177.408 
178.516 179.06 179.977 180.46 181.301 181.818 182.585 174.211 174.536 
175.443 175.815 176.856 177.394 178.529 179.047 180.02 180.407 181.242 
181.654 182.437 182.852 183.448 174.429 174.776 175.66 176.002 176.967 
177.449 178.56 179.103 180.135 180.536 181.385 181.705 182.481 182.802 
183.439 183.671 184.073 174.587 174.959 175.837 176.191 177.104 177.538 
178.566 179.105 180.123 180.61 181.464 181.839 182.584 182.906 183.556 
183.769 184.221 184.294 184.589 175.004 176.338 175.834 176.184 177.715 
177.187 177.529 177.029 177.382 179.152 178.594 178.961 178.424 178.815 
178.273 178.629 180.629 180.086 180.5 179.933 180.368 179.787 180.159 
179.543 179.835 181.985 181.554 181.978 181.466 181.858 181.327 181.662 
181.074 181.315 180.692 180.909 183.054 182.786 183.182 182.803 183.1 
182.666 182.925 182.452 182.665 182.117 182.305 181.721 181.929 183.782 
183.654 184.013 183.808 184.089 183.76 184.003 183.602 183.847 183.384 
183.606 183.076 183.27 182.707 182.88 184.26 184.191 184.51 184.459 
184.803 184.638 184.943 184.638 184.912 184.523 184.763 184.309 184.484 
183.976 184.098 183.566 183.662 184.7 184.592 184.891 184.878 185.28 
185.256 185.63 185.482 185.757 185.493 185.697 185.356 185.496 185.078 
185.156 184.684 184.738 184.248 184.301 185.073 185.844 185.36 185.287 
186.75 186.243 186.164 185.691 185.697 187.562 187.125 187.03 186.576 
186.505 186.1 186.056 188.445 187.921 187.801 187.348 187.214 186.826 
186.708 186.344 186.193 189.582 188.928 188.763 188.16 188.021 187.528 
187.403 186.971 186.809 186.394 186.164 190.518 190.046 189.837 189.208 
189.007 188.424 188.296 187.768 187.602 187.075 186.818 186.321 185.995 
190.932 190.759 190.624 190.174 189.883 189.346 189.086 188.619 188.392 
187.903 187.576 187.018 186.608 186.081 185.661 191.167 191.097 191.141 
190.841 190.602 190.095 189.704 189.233 188.886 188.512 188.145 187.698 
187.222 186.689 186.19 185.688 185.237 191.454 191.4 191.517 191.328 
191.179 190.753 190.348 189.807 189.356 188.907 188.502 188.115 187.654 
187.207 186.683 186.199 185.702 185.242 184.797 185.195 185.65 185.566 
185.928 186.001 185.985 186.31 186.337 186.759 186.142 186.2 186.431 
186.557 186.922 187.096 187.525 186.193 186.269 186.423 186.527 186.84 
187.11 187.648 187.889 188.45 186.197 186.348 186.585 186.584 186.897 
187.049 187.702 188.032 188.844 189.021 189.67 185.996 186.333 186.736 
186.837 187.198 187.258 187.867 188.159 189.019 189.374 190.083 190.201 
190.585 185.535 186.026 186.483 186.856 187.239 187.481 187.919 188.246 
188.865 189.346 189.916 190.298 190.572 190.741 190.847 184.949 185.473 
185.889 186.408 186.782 187.241 187.578 188.016 188.394 188.917 189.316 
189.835 190.092 190.447 190.573 190.802 190.958 184.367 184.86 185.256 
185.761 186.148 186.65 187.017 187.486 187.824 188.295 188.649 189.148 
189.496 189.921 190.202 190.497 190.754 190.985 191.248 174.95 175.954 
175.711 176.226 177.055 176.775 177.338 177.031 177.555 178.239 177.933 
178.532 178.217 178.806 178.451 179.027 179.482 179.162 179.782 179.459 
180.081 179.743 180.336 179.975 180.531 180.684 180.41 181.041 180.733 
181.372 181.043 181.634 181.264 181.776 181.403 181.85 181.697 181.53 
182.145 181.931 182.564 182.314 182.915 182.565 183.049 182.63 183.041 
182.633 182.993 182.522 182.436 183.032 182.91 183.508 183.378 183.979 
183.768 184.255 183.887 184.249 183.822 184.133 183.711 183.952 183.243 
183.197 183.793 183.715 184.288 184.204 184.769 184.674 185.156 184.949 
185.271 184.94 185.153 184.773 184.908 184.509 184.565 183.872 183.862 
184.445 184.423 184.988 184.932 185.448 185.369 185.781 185.662 185.923 
185.74 185.882 185.627 185.687 185.348 185.328 184.943 184.894 174.277 
173.537 174.372 175.288 172.787 173.664 174.657 175.446 176.391 172.046 
172.959 174.02 174.84 175.839 176.601 177.571 171.333 172.25 173.361 
174.217 175.237 176.038 177.047 177.818 178.806 170.704 171.56 172.677 
173.561 174.602 175.422 176.436 177.259 178.295 179.07 180.02 170.212 
170.945 172.005 172.88 173.965 174.803 175.849 176.662 177.72 178.53 
179.526 180.241 181.073 169.932 170.493 171.456 172.235 173.321 174.176 
175.268 176.103 177.181 177.986 178.995 179.726 180.585 181.216 181.928 
169.888 170.287 171.157 171.765 172.778 173.555 174.624 175.482 176.558 
177.422 178.441 179.21 180.085 180.73 181.471 182.037 182.678 169.995 
170.298 171.081 171.541 172.453 173.082 174.068 174.833 175.859 176.726 
177.759 178.61 179.541 180.247 181.028 181.606 182.28 182.785 183.36 
170.317 171.162 170.927 171.388 172.098 171.831 172.331 172.123 172.728 
173.143 172.849 173.412 173.16 173.814 173.589 174.3 174.348 174.015 
174.687 174.377 175.107 174.795 175.528 175.258 176.052 175.764 175.371 
176.119 175.768 176.564 176.213 176.987 176.614 177.397 177.105 177.945 
177.261 176.871 177.588 177.229 177.999 177.684 178.475 178.129 178.898 
178.538 179.316 179.015 179.759 178.596 178.298 178.96 178.64 179.334 
179.051 179.798 179.537 180.282 179.989 180.698 180.384 181.038 180.715 
181.277 179.726 179.508 180.166 179.916 180.585 180.323 181.01 180.768 
181.449 181.225 181.873 181.638 182.226 181.939 182.436 182.097 182.522 
180.767 180.574 181.231 181.042 181.71 181.503 182.149 181.918 182.518 
182.291 182.864 182.67 183.219 183.008 183.475 183.19 183.563 183.234 
183.567 181.558 182.902 182.157 182.024 184.246 183.504 183.378 182.644 
182.52 185.578 184.842 184.711 183.989 183.87 183.134 182.97 186.846 
186.164 186.037 185.321 185.192 184.463 184.29 183.533 183.312 188.027 
187.405 187.338 186.653 186.55 185.806 185.647 184.861 184.643 183.851 
183.629 189.262 188.628 188.622 187.954 187.886 187.167 187.028 186.253 
186.048 185.224 184.983 184.18 183.963 190.423 189.867 189.807 189.196 
189.039 188.396 188.171 187.522 187.264 186.565 186.259 185.501 185.187 
184.452 184.175 191.122 190.785 190.575 190.153 189.83 189.327 188.931 
188.417 188.037 187.532 187.157 186.581 186.18 185.544 185.171 184.538 
184.211 191.332 191.154 190.839 190.598 190.217 189.871 189.43 188.992 
188.559 188.118 187.737 187.281 186.899 186.373 185.989 185.423 185.078 
184.5 184.184 181.546 182.002 182.167 182.924 182.415 182.66 183.49 
183.589 184.309 182.713 183.073 184.023 184.196 184.994 185.008 185.681 
182.958 183.383 184.447 184.727 185.623 185.719 186.43 186.379 186.958 
183.206 183.642 184.704 185.083 186.013 186.274 187.048 187.109 187.695 
187.594 188.105 183.388 183.83 184.769 185.206 186.086 186.515 187.378 
187.65 188.355 188.338 188.88 188.747 189.303 183.412 183.878 184.692 
185.14 185.964 186.473 187.417 187.893 188.766 188.955 189.583 189.525 
190.058 189.969 190.484 183.253 183.757 184.508 184.977 185.769 186.307 
187.258 187.858 188.765 189.197 189.816 190.012 190.457 190.56 190.977 
190.989 191.265 182.956 183.488 184.199 184.715 185.461 186.046 186.912 
187.585 188.38 188.959 189.438 189.863 190.162 190.559 190.892 191.206 
191.467 191.514 191.55 180.725 179.539 180.465 181.121 178.257 179.228 
179.862 180.829 181.466 176.839 177.882 178.496 179.504 180.074 181.068 
181.657 175.239 176.338 176.935 178.05 178.584 179.599 180.096 181.16 
181.79 173.686 174.67 175.194 176.36 176.929 178.038 178.512 179.554 
180.125 181.297 182.028 172.431 173.22 173.639 174.629 175.177 176.311 
176.864 177.956 178.519 179.645 180.373 181.585 182.32 171.337 172.068 
172.446 173.228 173.66 174.618 175.169 176.282 176.917 178.063 178.773 
179.958 180.715 181.866 182.468 170.239 170.979 171.375 172.111 172.486 
173.252 173.707 174.665 175.317 176.457 177.211 178.382 179.109 180.257 
180.885 181.944 182.384 169.229 169.903 170.315 171.046 171.481 172.185 
172.639 173.394 174.002 174.966 175.741 176.847 177.594 178.686 179.297 
180.348 180.829 181.806 182.143 168.848 168.665 169.127 169.92 168.578 
169.027 169.897 170.327 171.157 168.608 169.038 170.039 170.449 171.381 
171.657 172.437 168.822 169.175 170.26 170.694 171.759 172.035 172.899 
173.024 173.833 169.281 169.518 170.567 170.956 172.05 172.418 173.363 
173.568 174.424 174.565 175.509 169.875 170.061 171.045 171.314 172.31 
172.656 173.607 173.947 174.861 175.134 176.071 176.305 177.285 170.439 
170.642 171.589 171.806 172.711 172.945 173.84 174.156 175.108 175.474 
176.442 176.767 177.705 177.989 178.908 170.944 171.146 172.044 172.285 
173.155 173.364 174.213 174.454 175.382 175.72 176.706 177.062 177.995 
178.312 179.193 179.505 180.374 171.436 171.599 172.424 172.667 173.51 
173.758 174.586 174.832 175.7 176.009 176.938 177.297 178.207 178.548 
179.401 179.729 180.559 180.892 181.684 171.977 173.136 172.661 172.944 
174.434 173.886 174.158 173.691 174.015 175.902 175.264 175.527 174.968 
175.285 174.798 175.122 177.551 176.843 177.117 176.439 176.746 176.15 
176.488 175.947 176.279 179.21 178.548 178.855 178.132 178.43 177.722 
178.041 177.403 177.75 177.168 177.518 180.664 180.131 180.459 179.845 
180.158 179.465 179.773 179.058 179.382 178.713 179.058 178.446 178.776 
181.931 181.479 181.812 181.325 181.667 181.114 181.463 180.815 181.145 
180.428 180.744 180.044 180.356 179.701 179.985 183.087 182.69 183.021 
182.595 182.938 182.498 182.874 182.392 182.754 182.156 182.445 181.751 
182.004 181.31 181.565 180.896 181.142 184.084 183.775 184.097 183.74 
184.05 183.673 184.005 183.645 183.996 183.587 183.867 183.323 183.511 
182.886 183.066 182.439 182.644 182.017 182.225 182.993 183.409 183.549 
184.224 183.824 183.962 184.688 184.81 185.532 184.252 184.385 185.12 
185.285 186.095 186.22 187.016 184.579 184.776 185.474 185.685 186.454 
186.699 187.474 187.666 188.358 184.684 184.987 185.669 185.959 186.671 
186.955 187.608 187.881 188.436 188.72 189.221 184.678 185.007 185.691 
186.05 186.795 187.125 187.796 187.995 188.507 188.675 189.171 189.432 
189.948 184.714 185.012 185.676 186.027 186.765 187.173 187.92 188.213 
188.826 188.923 189.478 189.559 190.179 190.307 190.853 184.738 185.046 
185.672 186.004 186.663 187.073 187.755 188.195 188.822 189.161 189.73 
189.951 190.529 190.676 191.19 191.239 191.539 184.676 185.007 185.588 
185.944 186.543 186.929 187.516 187.933 188.458 188.908 189.402 189.885 
190.38 190.804 191.197 191.436 191.607 191.661 191.625 161.687 161.826 
161.504 161.052 162.154 161.723 161.329 160.981 160.805 162.857 162.254 
161.944 161.451 161.349 161.051 161.246 163.933 163.205 162.999 162.342 
162.296 161.797 161.95 161.698 162.011 165.211 164.445 164.356 163.638 
163.694 163.01 163.147 162.587 162.816 162.492 162.836 166.6 165.809 
165.764 165.078 165.228 164.563 164.755 164.024 164.215 163.567 163.897 
163.489 164.029 168.051 167.257 167.192 166.491 166.612 166.036 166.239 
165.623 165.782 165.105 165.354 164.794 165.275 164.918 165.578 169.455 
168.721 168.682 167.947 168.013 167.379 167.524 166.959 167.085 166.523 
166.691 166.198 166.546 166.182 166.691 166.444 167.009 170.742 170.107 
170.145 169.453 169.546 168.841 168.968 168.285 168.412 167.778 167.951 
167.426 167.73 167.342 167.76 167.472 167.928 167.712 168.169 161.501 
160.857 161.122 161.14 160.641 160.622 160.69 160.943 161.264 161.169 
160.81 160.928 160.828 161.272 161.455 162.083 161.984 161.593 161.773 
161.468 161.946 161.851 162.547 162.596 163.268 162.769 162.398 162.622 
162.387 162.874 162.737 163.4 163.305 163.93 163.844 164.404 163.935 
163.328 163.58 163.244 163.777 163.64 164.305 164.201 164.783 164.608 
165.086 164.967 165.527 165.517 164.763 165.019 164.443 164.965 164.635 
165.285 165.091 165.658 165.454 165.902 165.709 166.207 166.144 166.781 
166.979 166.353 166.569 165.989 166.39 165.942 166.443 166.116 166.575 
166.311 166.72 166.514 166.986 166.872 167.462 167.434 168.066 168.14 
167.653 167.828 167.37 167.654 167.254 167.599 167.236 167.567 167.234 
167.588 167.338 167.808 167.661 168.239 168.153 168.747 168.688 169.235 
161.786 161.491 161.758 161.987 161.621 161.651 161.955 162.023 162.258 
162.329 162.058 162.379 162.245 162.58 162.524 162.994 163.368 162.942 
163.206 162.913 163.294 163.095 163.613 163.567 164.282 164.471 164.013 
164.259 163.878 164.254 163.963 164.482 164.331 165.024 165.02 165.833 
165.658 165.165 165.482 165.034 165.427 165.028 165.513 165.258 165.927 
165.843 166.673 166.667 167.592 166.939 166.433 166.789 166.33 166.747 
166.292 166.747 166.367 166.997 166.812 167.674 167.62 168.605 168.584 
169.633 168.186 167.712 168.024 167.607 168.006 167.605 168.072 167.67 
168.284 167.992 168.846 168.714 169.72 169.666 170.693 170.681 171.692 
169.317 168.89 169.158 168.765 169.14 168.798 169.31 168.985 169.645 
169.347 170.179 169.97 170.92 170.802 171.756 171.701 172.605 172.607 
173.444 180.241 179.16 179.482 179.039 177.991 178.337 177.814 178.195 
177.724 176.592 177.024 176.415 176.86 176.31 176.793 176.282 175.067 
175.504 174.856 175.335 174.767 175.298 174.794 175.295 174.753 173.745 
174.071 173.499 173.847 173.344 173.786 173.377 173.854 173.411 173.809 
173.311 172.667 172.937 172.483 172.72 172.264 172.54 172.139 172.533 
172.15 172.551 172.107 172.469 172.056 171.66 171.936 171.493 171.771 
171.263 171.519 170.976 171.32 170.84 171.275 170.815 171.245 170.799 
171.247 170.891 170.707 170.938 170.427 170.707 170.118 170.396 169.746 
170.071 169.502 169.928 169.47 169.921 169.499 169.946 169.573 170.07 
169.775 169.855 170.009 169.449 169.636 169.019 169.221 168.587 168.833 
168.304 168.648 168.265 168.662 168.327 168.714 168.386 168.798 168.524 
169.004 168.795 
POINT_DATA 1002
SCALARS Distance double
LOOKUP_TABLE default
172.406 171.316 171.193 172.37 171.125 173.637 172.395 171.107 173.73 
175.014 172.485 171.227 173.883 175.249 176.568 172.715 171.547 174.108 
175.54 176.913 178.252 173.13 172.015 174.486 175.928 177.294 178.608 
179.821 173.678 172.551 175.007 176.429 177.756 178.985 180.142 181.158 
174.269 173.106 175.564 176.926 178.218 179.397 180.504 181.502 182.368 
174.836 173.653 176.08 177.352 178.596 179.748 180.848 181.863 182.725 
183.461 175.349 174.184 176.53 177.733 178.953 180.081 181.127 182.145 
183.035 183.75 184.362 170.13 169.993 168.825 168.668 167.4 169.882 
167.214 165.961 168.525 169.852 165.806 164.647 167.098 168.527 170.061 
164.595 163.49 165.806 167.185 168.84 170.506 163.622 162.619 164.764 
166.028 167.607 169.409 171.05 162.998 162.166 163.97 165.117 166.536 
168.298 170.063 171.605 162.681 161.991 163.409 164.368 165.64 167.275 
169.079 170.687 172.151 162.441 161.875 162.964 163.714 164.844 166.344 
168.117 169.816 171.272 172.703 162.055 162.438 162.117 162.504 162.497 
162.999 163.226 163.571 163.415 164.03 164.616 165.059 164.541 164.849 
165.497 166.167 166.658 166.019 166.156 166.574 167.291 167.961 168.558 
167.677 167.719 167.992 168.505 169.166 170.189 170.707 169.801 169.644 
169.685 169.912 170.306 170.777 172.374 172.665 172.073 171.801 171.581 
171.475 171.568 171.849 172.248 174.075 174.215 173.886 173.636 173.337 
173.063 172.961 173.104 173.415 173.797 175.482 175.203 176.859 174.904 
176.754 178.259 174.627 176.59 178.305 179.705 174.505 176.357 178.227 
179.734 181.125 174.618 176.21 178.05 179.602 180.984 182.352 174.861 
176.233 177.97 179.534 180.801 182.124 183.285 175.116 176.357 177.982 
179.641 180.891 182.04 183.151 183.911 175.331 176.537 178.012 179.689 
181.08 182.189 183.218 183.953 184.359 175.474 176.709 178.07 179.619 
181.066 182.252 183.314 184.139 184.575 184.838 176.675 178.031 177.884 
179.496 179.36 179.205 181.061 180.947 180.801 180.474 182.483 182.394 
182.238 181.952 181.523 183.53 183.538 183.372 183.171 182.879 182.517 
184.154 184.36 184.374 184.268 184.108 183.836 183.463 184.513 184.87 
185.185 185.276 185.197 184.987 184.633 184.203 184.907 185.256 185.72 
185.99 186.01 185.888 185.617 185.221 184.794 185.475 185.7 186.359 
186.674 187.221 186.12 187.484 187.988 186.936 186.464 188.296 189.056 
187.629 187.083 186.584 189.439 190.255 188.561 187.88 187.254 186.596 
190.45 190.853 189.629 188.839 188.177 187.38 186.482 190.978 190.967 
190.451 189.578 188.848 188.155 187.196 186.148 191.35 191.188 191.1 
190.262 189.279 188.535 187.746 186.726 185.699 191.666 191.51 191.54 
190.901 189.884 188.91 188.065 187.153 186.174 185.237 185.273 185.952 
185.727 186.278 186.003 186.701 186.326 186.103 186.695 187.373 186.383 
186.098 186.565 187.266 188.31 186.566 185.931 186.808 187.32 188.524 
189.702 186.506 185.554 187.142 187.648 188.635 189.9 190.651 186.023 
185.031 186.926 187.656 188.458 189.505 190.346 190.723 185.369 184.45 
186.279 187.145 187.939 188.791 189.657 190.277 190.721 184.765 183.887 
185.638 186.531 187.378 188.16 189.001 189.833 190.497 191.048 175.164 
176.498 176.203 177.63 177.338 177.889 178.835 178.548 179.135 179.397 
180.105 179.795 180.409 180.702 180.913 181.332 180.928 181.689 182.023 
182.183 182.236 182.334 181.834 182.776 183.234 183.495 183.475 183.416 
183.144 182.592 183.624 184.13 184.579 184.696 184.581 184.407 183.858 
183.282 184.382 184.863 185.318 185.574 185.547 185.337 184.986 173.453 
174.501 172.657 173.836 171.87 175.637 173.174 171.097 175.052 176.834 
172.482 170.422 174.429 176.233 178.078 171.777 169.912 173.774 175.606 
177.471 179.341 171.148 169.579 173.091 175.031 176.911 178.782 180.459 
170.753 169.467 172.468 174.406 176.368 178.267 179.94 181.36 170.644 
169.555 172.074 173.793 175.673 177.634 179.425 180.893 182.162 170.696 