# vtk DataFile Version 4.0
vtk output
ASCII
DATASET POLYDATA
POINTS 1002 float
-122.904 -110.412 48.0974 -122.427 -109.114 47.0503 -121.913 -109.437 47.455 
-122.344 -110.857 48.5722 -121.409 -109.923 47.9126 -123.17 -112.056 48.9801 
-121.778 -111.441 49.1256 -120.916 -110.573 48.4431 -122.569 -112.548 49.5723 
-123.267 -113.591 50.1519 -121.236 -112.048 49.8277 -120.392 -111.232 49.1635 
-121.976 -113.022 50.3797 -122.694 -113.981 51.0505 -123.422 -114.776 51.9957 
-120.684 -112.506 50.7883 -119.839 -111.716 50.1626 -121.407 -113.453 51.3814 
-122.128 -114.362 52.1567 -122.869 -115.199 53.1042 -123.581 -116.029 54.002 
-120.105 -112.958 51.8944 -119.293 -112.218 51.2205 -120.81 -113.972 52.4681 
-121.507 -114.978 53.2378 -122.231 -115.84 54.1918 -122.892 -116.739 55.0001 
-123.467 -117.669 55.5894 -119.459 -113.803 52.8083 -118.729 -113.051 52.0553 
-120.136 -114.802 53.4764 -120.769 -115.873 54.2337 -121.45 -116.78 55.1479 
-122.092 -117.607 55.9591 -122.646 -118.501 56.5176 -123.176 -119.313 56.996 
-118.727 -114.962 53.5492 -118.157 -114.081 52.8258 -119.372 -115.891 54.3466 
-119.971 -116.782 55.2598 -120.585 -117.628 56.1819 -121.23 -118.436 56.964 
-121.813 -119.251 57.537 -122.384 -120.008 58.0096 -122.98 -120.6 58.4855 
-118.003 -115.944 54.4521 -117.644 -115.006 53.7824 -118.553 -116.842 55.2474 
-119.176 -117.53 56.2811 -119.778 -118.179 57.31 -120.394 -118.998 58.0591 
-120.987 -119.897 58.5736 -121.568 -120.664 59.0321 -122.21 -121.213 59.51 
-122.852 -121.615 59.9451 -117.375 -116.616 55.4904 -117.181 -115.794 54.7808 
-117.766 -117.441 56.2442 -118.365 -118.116 57.1992 -119.003 -118.722 58.226 
-119.604 -119.52 58.992 -120.167 -120.508 59.4631 -120.708 -121.375 59.8885 
-121.314 -121.928 60.3944 -121.993 -122.252 60.8993 -122.633 -122.51 61.2761 
-121.549 -108.368 45.9547 -121.048 -108.718 46.283 -120.766 -107.848 44.6448 
-120.254 -108.168 44.9623 -120.13 -107.15 43.5868 -120.546 -109.174 46.773 
-119.518 -107.341 44.1633 -119.417 -105.999 43.1098 -119.632 -108.481 45.6667 
-119.984 -109.795 47.4413 -118.757 -106.163 43.9823 -118.557 -104.775 42.9038 
-118.749 -107.566 45.1208 -118.899 -109.008 46.5303 -119.37 -110.499 48.2897 
-117.908 -105.155 43.7637 -117.663 -103.931 42.599 -117.94 -106.597 44.8413 
-117.881 -108.177 45.8983 -118.197 -109.82 47.36 -118.808 -111.139 49.3228 
-116.898 -104.491 43.4217 -116.791 -103.303 42.4647 -117.011 -105.857 44.4496 
-116.963 -107.443 45.4165 -117.096 -109.207 46.5797 -117.683 -110.724 48.323 
-118.348 -111.814 50.3597 -115.998 -103.855 43.4817 -116.084 -102.615 42.8195 
-116.053 -105.19 44.3465 -116.083 -106.728 45.2877 -116.139 -108.567 46.2811 
-116.603 -110.343 47.5963 -117.376 -111.585 49.393 -117.948 -112.656 51.2715 
-115.525 -103.211 44.0357 -115.64 -101.97 43.5486 -115.503 -104.509 44.7672 
-115.539 -105.93 45.658 -115.524 -107.717 46.569 -115.718 -109.726 47.4888 
-116.389 -111.321 48.7294 -117.167 -112.407 50.4388 -117.586 -113.576 52.2387 
-115.282 -102.798 44.8549 -115.33 -101.593 44.4509 -115.244 -104.039 45.4784 
-115.29 -105.281 46.2516 -115.297 -106.809 47.0722 -115.238 -108.778 47.7965 
-115.513 -110.719 48.5577 -116.242 -112.128 49.7999 -116.938 -113.243 51.5477 
-117.225 -114.489 53.316 -114.965 -102.326 45.7435 -114.839 -103.604 46.2533 
-114.324 -103.431 47.3057 -113.98 -104.555 47.7812 -113.542 -104.427 48.8739 
-114.795 -104.775 46.8687 -113.209 -105.323 49.2902 -113.281 -105.11 50.4211 
-114.002 -105.592 48.2653 -114.926 -106.019 47.5478 -113.381 -106.191 50.87 
-113.79 -106.114 52.1054 -113.558 -106.501 49.7145 -114.35 -106.967 48.7921 
-114.954 -107.745 48.2109 -114.446 -107.641 52.2015 -114.858 -107.741 53.2504 
-114.164 -107.807 51.1053 -114.257 -108.203 50.1148 -114.573 -108.885 49.3289 
-114.943 -109.853 48.8103 -115.884 -109.24 52.6877 -116.408 -109.258 53.2168 
-115.49 -109.348 51.9709 -115.153 -109.646 51.3146 -114.836 -110.156 50.6959 
-114.829 -110.943 50.0888 -115.388 -111.714 49.7455 -117.26 -110.444 52.8845 
-117.907 -110.267 53.0023 -116.761 -110.661 52.5933 -116.385 -110.99 52.344 
-115.819 -111.416 52.2098 -115.264 -112.045 51.879 -115.396 -112.748 51.4534 
-116.16 -113.151 51.347 -118.04 -111.51 53.8062 -118.608 -111.194 53.7797 
-117.474 -111.87 53.752 -117.058 -112.292 53.6783 -116.564 -112.711 53.7804 
-115.838 -113.225 53.7832 -115.491 -113.907 53.4418 -115.935 -114.401 53.1667 
-116.673 -114.508 53.2041 -118.135 -112.765 55.3429 -118.563 -112.379 55.3068 
-117.622 -113.231 55.3452 -117.132 -113.744 55.2876 -116.645 -114.189 55.3494 
-115.976 -114.589 55.428 -115.406 -115.178 55.1562 -115.499 -115.78 54.7514 
-116.129 -115.98 54.6721 -116.748 -115.867 54.7909 -116.747 -117.039 56.1223 
-116.213 -117.318 56.0052 -116.259 -118.315 57.3478 -115.53 -117.539 55.8091 
-115.631 -118.81 57.1003 -115.91 -119.683 58.6406 -115.018 -117.248 56.0405 
-114.973 -119.017 57.0409 -115.236 -120.181 58.5885 -115.733 -121.054 60.348 
-115.189 -116.598 56.614 -114.724 -118.557 57.5955 -114.662 -120.115 58.9585 
-114.93 -121.277 60.681 -115.418 -122.28 62.3586 -115.891 -116.122 56.8589 
-115.201 -117.922 58.2127 -114.7 -119.464 59.7205 -114.395 -120.868 61.314 
-114.476 -122.231 62.8163 -114.735 -123.447 64.2191 -116.578 -115.74 56.7816 
-116.004 -117.54 58.2604 -115.4 -118.942 60.0782 -114.692 -120.251 61.9171 
-114.212 -121.74 63.3527 -114.027 -123.253 64.6561 -113.847 -124.483 65.8967 
-117.145 -115.194 56.8029 -116.701 -117.12 58.1118 -116.217 -118.663 59.8566 
-115.537 -119.993 61.9674 -114.887 -121.409 63.6739 -114.364 -122.866 65.0613 
-113.687 -124.113 66.4656 -113.008 -125.041 67.6294 -117.659 -114.603 56.8808 
-117.272 -116.548 58.1301 -116.887 -118.255 59.6223 -116.337 -119.773 61.6732 
-115.802 -121.291 63.5865 -115.319 -122.704 65.1476 -114.487 -123.772 66.7751 
-113.314 -124.515 68.3087 -112.45 -125.114 69.3486 -118.088 -114.095 56.8814 
-117.746 -115.998 58.168 -117.46 -117.749 59.5216 -117.01 -119.307 61.4193 
-116.536 -120.874 63.3635 -116.146 -122.411 64.938 -115.47 -123.557 66.5998 
-114.294 -124.175 68.4269 -113.062 -124.567 69.9058 -112.393 -125.018 70.776 
-116.96 -117.747 56.9821 -116.596 -118.964 58.4136 -117.428 -118.504 57.8818 
-116.415 -120.448 59.9335 -117.139 -119.904 59.397 -118.076 -119.337 58.8297 
-116.29 -121.928 61.8268 -116.921 -121.569 61.0321 -117.705 -121.106 60.2312 
-118.706 -120.297 59.638 -115.812 -123.251 63.8438 -116.639 -122.94 63.0673 
-117.286 -122.77 61.9202 -118.217 -122.273 60.9077 -119.278 -121.358 60.1868 
-114.801 -124.553 65.5493 -115.995 -124.193 65.003 -116.876 -123.897 63.9948 
-117.727 -123.708 62.6705 -118.795 -123.165 61.5179 -119.838 -122.278 60.6698 
-113.584 -125.484 67.103 -114.928 -125.448 66.4921 -116.276 -125.051 65.7503 
-117.335 -124.691 64.6525 -118.391 -124.322 63.3245 -119.468 -123.701 62.1686 
-120.453 -122.836 61.2603 -112.671 -125.728 68.7698 -113.873 -126.106 67.9519 
-115.461 -126.049 67.1456 -116.815 -125.721 66.2528 -118.009 -125.275 65.0797 
-119.168 -124.695 63.8459 -120.211 -123.959 62.8102 -121.162 -123.097 61.8758 
-112.385 -125.608 70.3602 -113.323 -126.11 69.5393 -114.845 -126.345 68.5956 
-116.281 -126.363 67.6375 -117.544 -126.179 66.4883 -118.826 -125.687 65.2321 
-119.986 -124.948 64.1915 -120.973 -124.111 63.3134 -121.876 -123.267 62.3467 
-112.766 -125.306 71.7587 -113.211 -125.858 71.2029 -113.99 -125.646 72.366 
-114.844 -126.036 71.6024 -115.877 -125.864 72.4921 -114.502 -126.17 70.2435 
-116.914 -126.108 71.4657 -118.059 -125.96 72.2987 -116.208 -126.161 70.4889 
-115.988 -126.369 69.1473 -118.925 -126.288 71.1412 -120.05 -126.259 72.0131 
-118.057 -126.291 70.2737 -117.47 -126.495 69.2274 -117.269 -126.618 67.861 
-120.609 -126.774 70.8049 -121.636 -126.779 71.4691 -119.716 -126.668 69.9834 
-119.088 -126.844 68.9467 -118.668 -126.994 67.6291 -118.597 -126.578 66.3507 
-122.282 -127.243 70.1571 -123.153 -126.995 70.5769 -121.344 -127.128 69.5509 
-120.64 -127.183 68.5891 -120.199 -127.324 67.244 -119.946 -126.928 66.0085 
-119.911 -125.962 65.1102 -124.102 -127.246 69.2939 -124.707 -126.682 69.673 
-123.267 -127.38 68.7713 -122.364 -127.38 68.0059 -121.676 -127.406 66.874 
-121.253 -127.045 65.7544 -121.041 -126.114 64.9878 -120.984 -125.021 64.2814 
-125.622 -126.852 68.5393 -125.999 -126.164 68.9218 -125.079 -127.263 67.9474 
-124.255 -127.391 67.2215 -123.336 -127.325 66.354 -122.614 -126.93 65.49 
-122.179 -126.09 64.8289 -121.99 -125.038 64.2172 -121.935 -124.07 63.3859 
-126.678 -126.386 67.8655 -126.966 -125.724 68.2172 -126.35 -126.875 67.255 
-125.792 -127.098 66.503 -124.979 -127.028 65.7476 -124.15 -126.629 65.0696 
-123.507 -125.903 64.483 -123.102 -124.996 63.8818 -122.903 -124.079 63.1336 
-122.787 -123.242 62.2344 -113.098 -124.621 71.4216 -113.732 -124.846 72.3678 
-114.353 -124.197 71.5732 -115.263 -124.167 72.4396 -115.885 -123.777 71.2461 
-115.138 -125.109 72.8997 -116.832 -123.476 72.0242 -117.374 -123.591 70.4754 
-116.65 -124.191 72.9253 -117.093 -125.277 73.0538 -118.139 -123.241 71.1403 
-118.722 -123.674 69.2571 -117.966 -123.397 72.416 -118.436 -124.387 73.1189 
-119.302 -125.486 72.9725 -119.433 -123.443 69.7754 -119.995 -123.626 67.8012 
-119.093 -123.251 71.3766 -119.534 -123.766 72.4655 -120.475 -124.819 72.98 
-121.213 -125.932 72.5657 -120.81 -123.48 68.1729 -121.135 -123.146 66.4475 
-120.39 -123.413 69.9278 -120.578 -123.562 71.2514 -121.421 -124.219 72.0773 
-122.195 -125.224 72.2748 -122.665 -126.282 71.6526 -121.944 -122.953 66.7099 
-122.015 -122.307 65.3103 -121.657 -123.163 68.3881 -121.676 -123.234 69.877 
-122.309 -123.606 70.7625 -123.041 -124.332 71.1699 -123.56 -125.264 71.1191 
-124.09 -126.132 70.5354 -122.694 -121.968 65.5247 -122.638 -121.265 64.3459 
-122.574 -122.349 67.009 -122.574 -122.478 68.5567 -123.07 -122.761 69.5435 
-123.793 -123.387 69.9086 -124.386 -124.181 70.066 -124.952 -124.973 70.0031 
-125.524 -125.655 69.5845 -123.215 -120.808 64.555 -123.103 -120.137 63.5374 
-123.226 -121.301 65.7941 -123.27 -121.568 67.2294 -123.661 -121.851 68.3543 
[...]
CELL_DATA 2000
SCALARS Distance double
LOOKUP_TABLE default
170.082 170.099 170.577 171.579 170.244 170.655 171.651 172.098 173.055 
170.476 170.843 171.807 172.204 173.153 173.557 174.474 170.699 171.066 
172 172.374 173.312 173.694 174.643 175.018 175.962 170.932 171.275 
172.219 172.579 173.551 173.911 174.903 175.253 176.235 176.568 177.498 
171.281 171.562 172.548 172.863 173.89 174.219 175.254 175.578 176.568 
176.874 177.793 178.083 178.919 171.752 171.988 172.993 173.273 174.297 
174.6 175.605 175.929 176.884 177.198 178.076 178.365 179.177 179.442 
180.189 172.258 172.47 173.421 173.709 174.664 174.973 175.883 176.212 
177.096 177.443 178.291 178.61 179.402 179.68 180.416 180.66 181.33 
172.736 172.92 173.747 174.037 174.892 175.232 176.07 176.412 177.243 
177.597 178.436 178.783 179.581 179.881 180.605 180.862 181.515 181.739 
182.315 169.124 167.771 168.64 169.12 166.533 167.329 167.753 168.675 
169.243 165.255 166.083 166.435 167.309 167.822 168.834 169.467 163.859 
164.749 165.103 165.961 166.387 167.374 167.992 169.073 169.715 162.512 
163.373 163.788 164.627 165.026 165.928 166.492 167.57 168.275 169.34 
169.981 161.32 162.098 162.519 163.347 163.764 164.603 165.129 166.116 
166.852 167.933 168.692 169.675 170.345 160.332 160.982 161.377 162.136 
162.593 163.393 163.943 164.84 165.593 166.617 167.471 168.464 169.238 
170.135 170.836 159.667 160.149 160.591 161.17 161.707 162.371 162.999 
163.772 164.547 165.471 166.366 167.341 168.201 169.103 169.872 170.708 
171.412 159.346 159.699 160.223 160.634 161.229 161.722 162.387 163 
163.752 164.527 165.374 166.289 167.163 168.099 168.927 169.798 170.562 
171.34 172.003 159.464 160.085 159.944 160.351 160.654 160.526 160.883 
160.85 161.316 161.22 160.997 161.296 161.31 161.825 161.865 162.442 
162.365 161.768 162.061 161.811 162.383 162.383 163.067 163.086 163.783 
164.294 163.367 163.716 163.006 163.569 163.195 163.911 163.783 164.553 
164.534 165.35 166.424 165.514 165.874 165.002 165.509 164.785 165.412 
164.911 165.642 165.412 166.264 166.221 167.119 168.247 167.525 167.845 
167.105 167.565 166.842 167.395 166.688 167.299 166.753 167.53 167.27 
168.189 168.08 168.952 169.74 169.173 169.5 168.894 169.334 168.745 
169.272 168.644 169.161 168.521 169.125 168.678 169.486 169.255 170.114 
169.92 170.659 171.048 170.58 170.963 170.448 170.886 170.375 170.865 
170.349 170.796 170.234 170.666 170.195 170.79 170.526 171.261 171.079 
171.758 171.532 172.096 172.852 172.577 173.105 173.818 172.151 172.788 
173.573 174.075 174.827 171.707 172.334 173.192 173.794 174.629 175.16 
176.05 171.574 172.021 172.893 173.438 174.328 174.918 175.826 176.428 
177.371 171.729 172.076 172.953 173.323 174.206 174.667 175.538 176.108 
176.991 177.652 178.516 171.848 172.266 173.185 173.525 174.407 174.718 
175.553 175.913 176.744 177.252 178.11 178.712 179.461 171.867 172.34 
173.298 173.726 174.639 174.981 175.85 176.112 176.976 177.249 178.144 
178.497 179.301 179.663 180.221 171.881 172.347 173.303 173.78 174.715 
175.146 176.061 176.423 177.356 177.645 178.587 178.813 179.638 179.774 
180.328 180.415 180.747 171.892 172.342 173.271 173.765 174.708 175.18 
176.107 176.557 177.498 177.933 178.87 179.234 180.037 180.215 180.735 
180.712 180.988 180.937 181.176 173.233 174.186 173.854 174.185 175.218 
174.833 175.192 174.875 175.294 176.518 176.019 176.422 175.98 176.436 
176.067 176.503 177.943 177.467 177.919 177.373 177.836 177.341 177.801 
177.333 177.73 179.154 178.862 179.356 178.889 179.306 178.799 179.226 
178.723 179.12 178.596 178.947 180.028 179.917 180.448 180.179 180.571 
180.165 180.527 180.095 180.466 179.994 180.324 179.801 180.088 180.592 
180.601 181.121 181.079 181.528 181.29 181.647 181.291 181.635 181.243 
181.561 181.115 181.374 180.871 181.088 180.95 180.989 181.453 181.576 
182.103 182.097 182.528 182.317 182.657 182.331 182.632 182.254 182.508 
182.075 182.277 181.794 181.964 181.333 181.297 181.729 181.846 182.416 
182.549 183.072 183.057 183.446 183.258 183.557 183.257 183.505 183.133 
183.333 182.909 183.067 182.605 182.732 181.752 182.766 182.167 182.18 
184.059 183.34 183.291 182.73 182.848 185.397 184.654 184.533 183.889 
183.891 183.411 183.502 186.723 185.959 185.775 185.093 185.015 184.457 
184.457 183.981 183.941 187.984 187.256 187.022 186.306 186.192 185.584 
185.546 184.977 184.885 184.324 184.129 189.013 188.447 188.225 187.527 
187.352 186.733 186.65 186.071 185.919 185.302 185.035 184.422 184.098 
189.72 189.38 189.27 188.681 188.467 187.837 187.648 187.08 186.843 
186.261 185.904 185.295 184.887 184.303 183.909 190.108 189.978 189.98 
189.613 189.431 188.875 188.59 187.995 187.652 187.068 186.642 186.059 
185.589 185.026 184.578 184.044 183.626 190.267 190.258 190.294 190.147 
189.998 189.65 189.319 188.815 188.372 187.804 187.307 186.728 186.217 
185.661 185.175 184.656 184.205 183.709 183.278 181.811 182.307 182.255 
182.795 182.847 182.786 183.328 183.389 184.079 183.324 183.262 183.735 
183.861 184.572 184.73 185.453 183.76 183.667 184 184.128 184.812 
185.131 185.984 186.149 186.858 184.143 184.078 184.332 184.347 184.931 
185.269 186.19 186.588 187.449 187.555 188.148 184.311 184.416 184.717 
184.698 185.158 185.376 186.178 186.656 187.523 187.919 188.543 188.666 
189.068 184.115 184.454 184.807 184.965 185.309 185.521 186.084 186.523 
187.215 187.737 188.309 188.718 189.11 189.337 189.623 183.59 184.088 
184.422 184.802 185.059 185.409 185.772 186.235 186.734 187.275 187.767 
188.278 188.691 189.113 189.439 189.721 189.949 182.895 183.438 183.746 
184.232 184.476 184.923 185.217 185.716 186.127 186.682 187.139 187.684 
188.127 188.623 189.016 189.41 189.697 189.954 190.122 172.191 173.219 
172.975 173.604 174.523 174.146 174.775 174.478 175.088 175.959 175.537 
176.133 175.747 176.343 175.981 176.529 177.334 176.953 177.529 177.13 
177.695 177.293 177.833 177.431 177.95 178.628 178.283 178.868 178.495 
179.052 178.651 179.169 178.753 179.259 178.859 179.343 179.844 179.543 
180.124 179.795 180.376 180.007 180.527 180.09 180.525 180.11 180.525 
180.158 180.488 180.911 180.692 181.267 181.001 181.598 181.302 181.855 
181.449 181.825 181.338 181.586 181.188 181.381 181.048 181.116 181.78 
181.674 182.275 182.087 182.672 182.449 182.974 182.676 183.001 182.556 
182.655 182.172 182.18 181.788 181.747 181.409 181.303 182.426 182.444 
183.065 183.004 183.555 183.411 183.828 183.614 183.824 183.51 183.511 
183.101 183.007 182.569 182.47 182.041 181.939 181.54 181.464 171.526 
170.895 171.614 172.522 170.326 171.055 172.024 172.772 173.846 169.658 
170.506 171.572 172.36 173.485 174.222 175.321 168.821 169.777 170.95 
171.896 173.085 173.886 174.988 175.687 176.705 168.045 168.925 170.142 
171.211 172.538 173.467 174.623 175.343 176.373 177.037 178.011 167.561 
168.238 169.378 170.401 171.847 172.916 174.246 175.025 176.104 176.733 
177.74 178.354 179.274 167.373 167.865 168.854 169.69 171.056 172.189 
173.649 174.638 175.818 176.506 177.484 178.089 179 179.569 180.359 
167.398 167.771 168.665 169.256 170.42 171.384 172.769 173.901 175.163 
176.092 177.068 177.772 178.601 179.224 179.976 180.54 181.199 167.552 
167.866 168.737 169.162 170.186 170.853 172.059 173.01 174.249 175.27 
176.321 177.189 178.023 178.731 179.444 180.066 180.703 181.271 181.835 
167.924 168.935 168.657 169.156 170.098 169.783 170.384 170.035 170.64 
171.462 171.075 171.761 171.385 172.054 171.657 172.41 173.003 172.552 
173.244 172.841 173.541 173.13 173.849 173.525 174.413 174.568 174.123 
174.778 174.35 175.03 174.625 175.327 174.961 175.748 175.524 176.411 
176.052 175.65 176.299 175.872 176.535 176.122 176.835 176.445 177.194 
176.863 177.637 177.409 178.153 177.458 177.095 177.759 177.365 178.036 
177.633 178.349 177.964 178.697 178.317 179.002 178.655 179.286 179.013 
179.596 178.788 178.468 179.136 178.791 179.451 179.09 179.759 179.42 
180.093 179.754 180.358 179.986 180.5 180.148 180.633 180.354 180.84 
180.014 179.748 180.405 180.114 180.737 180.419 181.007 180.707 181.291 
181.015 181.557 181.239 181.679 181.312 181.695 181.368 181.775 181.525 
181.952 180.883 182.317 181.506 181.296 183.689 182.926 182.707 181.888 
181.62 184.987 184.268 184.071 183.274 182.994 182.159 181.864 186.276 
185.58 185.439 184.65 184.398 183.539 183.237 182.395 182.122 187.522 
186.869 186.744 186.01 185.779 184.955 184.655 183.795 183.49 182.658 
182.369 188.626 188.048 187.862 187.212 186.919 186.219 185.879 185.139 
184.776 183.987 183.606 182.819 182.447 189.449 189.006 188.757 188.192 
187.807 187.184 186.755 186.15 185.721 185.087 184.628 183.935 183.485 
182.784 182.398 189.912 189.631 189.363 188.933 188.517 187.956 187.464 
186.885 186.402 185.843 185.367 184.785 184.337 183.73 183.361 182.731 
182.433 190.117 189.943 189.692 189.394 189.005 188.559 188.074 187.54 
187.047 186.488 186.025 185.463 185.065 184.521 184.225 183.673 183.436 
182.828 182.595 180.897 181.422 181.567 182.362 181.983 182.149 182.988 
183.058 183.775 182.449 182.726 183.652 183.749 184.496 184.453 185.086 
182.705 183.144 184.237 184.468 185.334 185.265 185.891 185.755 186.352 
182.843 183.372 184.634 185.059 186.116 186.16 186.818 186.618 187.146 
187.016 187.593 182.958 183.519 184.805 185.391 186.514 186.814 187.485 
187.446 187.891 187.791 188.303 188.235 188.742 182.936 183.545 184.676 
185.375 186.348 186.901 187.481 187.766 188.154 188.319 188.793 188.877 
189.359 189.291 189.619 182.715 183.338 184.249 184.978 185.756 186.426 
186.918 187.421 187.804 188.252 188.772 189.148 189.66 189.787 190.083 
189.982 190.094 182.391 182.966 183.704 184.365 185.033 185.695 186.217 
186.771 187.223 187.754 188.321 188.889 189.466 189.861 190.188 190.284 
190.368 190.279 190.271 180.034 178.828 179.784 180.503 177.484 178.504 
179.206 180.248 181.002 175.923 177.027 177.674 178.831 179.577 180.705 
181.411 174.221 175.334 175.894 177.129 177.854 179.144 179.876 181.015 
181.615 172.594 173.627 174.121 175.274 175.931 177.276 178.069 179.379 
180.043 181.139 181.701 171.077 172.064 172.566 173.589 174.167 175.356 
176.115 177.484 178.275 179.524 180.146 181.227 181.808 169.626 170.581 
171.108 172.106 172.671 173.708 174.38 175.597 176.419 177.728 178.487 
179.657 180.261 181.332 181.872 168.352 169.198 169.716 170.671 171.253 
172.256 172.918 174.004 174.809 176.006 176.846 178.018 178.707 179.781 
180.326 181.347 181.788 167.326 168.043 168.539 169.366 169.939 170.871 
171.554 172.598 173.429 174.554 175.43 176.525 177.263 178.272 178.837 
179.818 180.28 181.23 181.583 166.967 166.841 167.319 168.175 166.789 
167.257 168.178 168.619 169.556 166.953 167.334 168.351 168.728 169.748 
170.135 171.2 167.369 167.667 168.738 169.041 170.135 170.464 171.634 
171.983 173.168 167.787 168.122 169.162 169.48 170.546 170.897 172.093 
172.5 173.758 174.076 175.214 168.065 168.445 169.445 169.828 170.845 
171.245 172.389 172.885 174.128 174.593 175.716 176.019 176.972 168.403 
168.703 169.717 170.079 171.136 171.519 172.659 173.127 174.332 174.835 
175.931 176.347 177.272 177.595 178.45 168.972 169.149 170.183 170.452 
171.563 171.885 173.051 173.442 174.612 175.033 176.085 176.479 177.398 
177.775 178.646 178.998 179.848 169.7 169.81 170.821 171.018 172.093 
172.369 173.483 173.843 174.941 175.32 176.295 176.638 177.504 177.869 
178.734 179.135 179.996 180.357 181.142 170.448 171.949 171.313 171.575 
173.402 172.815 173.093 172.489 172.81 174.809 174.239 174.536 173.976 
174.327 173.764 174.161 176.298 175.69 176.008 175.423 175.791 175.255 
175.678 175.147 175.568 177.822 177.229 177.564 176.952 177.312 176.737 
177.136 176.614 177.011 176.496 176.843 179.233 178.721 179.071 178.508 
178.869 178.286 178.66 178.085 178.448 177.896 178.237 177.699 178.016 
180.499 180.066 180.436 179.954 180.336 179.815 180.206 179.634 179.998 
179.388 179.739 179.141 179.508 178.921 179.274 181.633 181.273 181.655 
181.251 181.644 181.211 181.618 181.135 181.51 180.946 181.279 180.684 
181.037 180.459 180.826 180.228 180.55 182.606 182.332 182.71 182.392 
182.771 182.426 182.815 182.44 182.808 182.361 182.671 182.154 182.441 
181.919 182.224 181.709 181.997 181.436 181.667 182.426 182.751 182.949 
183.652 183 183.239 183.963 184.179 184.899 183.247 183.502 184.297 
184.519 185.279 185.442 186.1 183.458 183.746 184.566 184.862 185.693 
185.888 186.59 186.639 187.21 183.553 183.893 184.647 185.031 185.832 
186.198 186.937 187.134 187.752 187.779 188.359 183.539 183.91 184.613 
185.009 185.73 186.168 186.876 187.278 187.927 188.204 188.809 188.937 
189.475 183.467 183.846 184.528 184.923 185.612 186.023 186.711 187.126 
187.797 188.197 188.83 189.165 189.689 189.87 190.188 183.358 183.736 
184.369 184.781 185.43 185.866 186.53 186.964 187.63 188.046 188.686 
189.07 189.6 189.884 190.199 190.321 190.405 183.206 183.58 184.148 
184.559 185.135 185.595 186.191 186.69 187.295 187.8 188.38 188.848 
189.344 189.712 190.035 190.238 190.349 190.394 190.348 158.885 159.283 
158.853 158.588 159.983 159.415 159.128 158.73 158.665 160.928 160.241 
159.906 159.36 159.156 158.858 158.913 162.093 161.288 160.965 160.27 
160.067 159.499 159.459 159.172 159.422 163.503 162.599 162.351 161.523 
161.465 160.705 160.784 160.107 160.372 159.974 160.506 164.982 164.12 
163.935 163.071 163.077 162.301 162.485 161.728 162.01 161.331 161.782 
161.354 162.003 166.286 165.563 165.42 164.654 164.634 163.922 164.063 
163.402 163.618 162.982 163.285 162.764 163.234 162.901 163.512 167.519 
166.83 166.749 166.063 166.088 165.425 165.578 164.928 165.125 164.476 
164.709 164.154 164.521 164.122 164.626 164.347 164.907 168.88 168.143 
168.125 167.42 167.522 166.875 167.119 166.483 166.772 166.064 166.326 
165.621 165.95 165.406 165.864 165.483 165.992 165.695 166.192 158.658 
158.323 158.362 158.336 158.522 158.324 158.286 158.26 158.511 158.967 
158.769 158.909 158.626 158.88 158.792 159.363 159.509 159.312 159.642 
159.436 159.782 159.509 160.006 159.948 160.689 160.482 160.038 160.383 
160.184 160.614 160.417 160.88 160.742 161.369 161.374 162.074 161.936 
161.263 161.554 161.118 161.576 161.27 161.768 161.574 162.178 162.111 
162.761 162.72 163.302 163.467 162.788 163.06 162.498 162.95 162.463 
162.972 162.581 163.188 162.977 163.649 163.5 164.076 163.919 164.435 
164.852 164.247 164.491 163.981 164.39 163.921 164.364 163.902 164.389 
164.065 164.665 164.46 165.034 164.798 165.276 165.069 165.578 166.103 
165.551 165.747 165.291 165.639 165.247 165.623 165.208 165.555 165.198 
165.634 165.426 165.934 165.746 166.194 165.958 166.393 166.218 166.73 
159.027 158.726 159.121 159.699 158.87 159.009 159.648 159.942 160.457 
159.642 159.43 160.049 160.127 160.727 160.762 161.182 160.871 160.41 
160.877 160.727 161.308 161.229 161.723 161.641 162.276 162.174 161.656 
161.945 161.627 162.073 161.904 162.421 162.318 163.029 163.068 164.084 
163.351 162.868 163.104 162.699 163.071 162.763 163.287 163.114 163.893 
163.909 164.963 165.098 166.217 164.47 164.003 164.282 163.866 164.274 
163.884 164.427 164.138 164.922 164.85 165.882 165.979 167.054 167.156 
168.086 165.624 165.151 165.454 165.052 165.474 165.112 165.633 165.338 
166.046 165.918 166.841 166.878 167.852 167.931 168.783 168.835 169.563 
166.797 166.333 166.619 166.214 166.594 166.256 166.731 166.47 167.107 
166.978 167.81 167.802 168.693 168.706 169.491 169.489 170.163 170.186 
170.83 179.487 178.243 178.676 178.266 176.881 177.346 176.897 177.384 
176.926 175.429 175.895 175.358 175.896 175.401 175.943 175.397 173.922 
174.381 173.763 174.274 173.722 174.311 173.787 174.331 173.743 172.344 
172.819 172.193 172.679 172.106 172.638 172.136 172.696 172.176 172.679 
172.124 170.79 171.222 170.611 171.108 170.554 171.067 170.563 171.1 
170.615 171.131 170.601 171.091 170.574 169.458 169.763 169.166 169.581 
169.045 169.521 168.997 169.527 169.04 169.591 169.093 169.587 169.062 
169.56 169.108 168.372 168.58 168.023 168.304 167.807 168.132 167.619 
168.007 167.531 168.034 167.615 168.123 167.668 168.114 167.669 168.165 
167.837 167.421 167.591 167.073 167.298 166.852 167.08 166.609 166.822 
166.355 166.675 166.313 166.75 166.407 166.818 166.426 166.831 166.5 
167.01 166.808 
POINT_DATA 1002
SCALARS Distance double
LOOKUP_TABLE default
171.075 169.611 169.562 171.095 169.643 172.57 171.228 169.863 172.631 
173.966 171.441 170.126 172.754 174.077 175.382 171.633 170.343 172.93 
174.256 175.601 176.909 171.853 170.603 173.178 174.552 175.907 177.201 
178.389 172.235 171.009 173.562 174.935 176.282 177.52 178.663 179.711 
172.724 171.529 174.026 175.309 176.577 177.798 178.916 179.956 180.904 
173.163 172.087 174.383 175.589 176.757 177.958 179.122 180.172 181.125 
181.965 173.515 172.61 174.569 175.73 176.896 178.082 179.272 180.353 
181.294 182.13 182.854 168.203 168.158 166.955 166.878 165.77 168.228 
165.605 164.392 166.826 168.416 164.252 162.934 165.456 166.884 168.68 
162.936 161.668 164.177 165.448 167.149 169.001 161.693 160.601 162.93 
164.188 165.756 167.655 169.426 160.654 159.745 161.788 163.065 164.581 
166.444 168.317 169.974 160.052 159.209 161.072 162.264 163.674 165.391 
167.266 169.023 170.624 159.84 158.994 160.783 161.835 163.066 164.521 
166.212 168.012 169.751 171.314 159.562 160.435 160.264 160.884 160.82 
161.335 161.293 161.552 161.715 162.429 162.462 163.084 162.431 163.009 
163.767 164.558 165.241 164.129 164.149 164.579 165.32 166.746 167.286 
166.32 166.08 166.009 166.341 167.134 168.543 168.913 168.249 168.128 
167.978 167.912 168.34 169.097 170.065 170.244 169.893 169.861 169.831 
169.678 169.789 170.334 170.917 171.438 171.468 171.393 171.379 171.362 
171.201 171.124 171.461 171.992 172.37 173.579 173.372 174.509 173.004 
174.348 175.629 172.542 174.036 175.509 177.017 172.403 173.742 175.214 
176.762 178.339 172.632 173.83 175.052 176.355 177.861 179.354 172.811 
174.12 175.278 176.337 177.546 178.928 180.107 172.837 174.252 175.551 
176.728 177.868 179.023 179.96 180.603 172.819 174.258 175.64 176.999 
178.346 179.552 180.344 180.687 180.955 172.776 174.223 175.648 177.039 
178.461 179.808 180.756 181.112 181.172 181.403 174.474 175.52 175.587 
176.911 176.839 176.888 178.479 178.373 178.301 178.218 179.774 179.822 
179.728 179.654 179.492 180.63 180.946 180.95 180.91 180.842 180.642 
181.073 181.666 181.978 182.018 181.983 181.865 181.621 181.295 181.995 
182.652 182.959 182.999 182.919 182.744 182.471 181.643 182.253 183.005 
183.564 183.82 183.857 183.741 183.518 183.216 182.213 182.649 183.438 
183.936 184.807 183.293 185.224 186.166 184.444 183.942 186.491 187.519 
185.615 184.991 184.443 187.763 188.674 186.815 186.15 185.503 184.714 
188.91 189.462 188.006 187.239 186.566 185.695 184.7 189.774 189.931 
189.132 188.271 187.44 186.527 185.492 184.471 190.233 190.164 189.939 
189.228 188.279 187.241 186.161 185.118 184.147 190.381 190.261 190.272 
189.789 188.944 187.898 186.786 185.706 184.706 183.766 181.819 182.735 
182.369 183.257 182.919 183.996 183.617 183.44 184.334 185.392 183.949 
183.897 184.437 185.67 186.896 184.394 184.147 184.657 185.702 187.202 
188.255 184.715 184.079 185.05 185.771 187.066 188.305 189.074 184.575 
183.695 185.136 185.747 186.738 187.846 188.779 189.481 183.996 183.081 
184.699 185.348 186.224 187.246 188.215 189.084 189.756 183.239 182.369 
184.007 184.726 185.58 186.579 187.596 188.573 189.394 189.945 172.336 
173.818 173.509 175.116 174.948 175.396 176.552 176.382 176.735 176.905 
177.932 177.693 178.111 178.246 178.357 179.23 178.967 179.448 179.604 
179.662 179.764 180.436 180.136 180.712 180.974 181.009 180.91 180.907 
181.51 181.091 181.861 182.226 182.37 182.102 181.755 181.489 182.424 
181.83 182.896 183.264 183.437 183.204 182.667 182.127 181.633 170.783 
171.731 170.176 171.263 169.541 173.085 170.718 168.717 172.739 174.638 
169.9 167.848 172.234 174.287 176.045 169.031 167.256 171.501 173.885 
175.703 177.378 168.427 167 170.677 173.367 175.493 177.123 178.723 
168.169 166.952 169.967 172.527 175.058 176.908 178.426 179.854 168.195 
167.049 169.632 171.662 174.122 176.314 177.986 179.397 180.68 168.355 