# vtk DataFile Version 4.0
vtk output
ASCII
DATASET POLYDATA
POINTS 1002 float
-119.306 -114.22 50.0773 -118.978 -113.327 48.9251 -118.508 -113.47 49.3929 
-118.802 -114.406 50.731 -117.98 -113.647 49.9792 -119.564 -115.109 51.5834 
-118.246 -114.684 51.4973 -117.491 -113.931 50.6874 -119.072 -115.365 52.4139 
-119.768 -116.322 53.2169 -117.754 -115.199 52.2294 -117.105 -114.42 51.4775 
-118.569 -115.853 53.1988 -119.352 -116.809 54.0479 -119.993 -118.134 54.6128 
-117.341 -116.036 52.8254 -116.654 -115.223 52.1449 -118.113 -116.742 53.7511 
-118.946 -117.606 54.7332 -119.621 -118.889 55.4165 -120.215 -120.217 55.9544 
-116.878 -117.036 53.4197 -116.082 -116.263 52.6821 -117.662 -117.867 54.3001 
-118.487 -118.732 55.3185 -119.16 -119.842 56.1829 -119.712 -121.126 56.8335 
-120.267 -122.212 57.5162 -116.434 -117.922 54.3217 -115.647 -117.267 53.4767 
-117.221 -118.797 55.2637 -117.971 -119.826 56.2116 -118.593 -120.876 57.052 
-119.039 -122.088 57.6999 -119.522 -123.273 58.3068 -120.01 -124.211 58.9219 
-116.152 -118.691 55.5667 -115.427 -118.132 54.6811 -116.912 -119.471 56.5611 
-117.541 -120.634 57.4529 -118.076 -121.808 58.1565 -118.459 -122.978 58.6978 
-118.77 -124.243 59.1461 -119.156 -125.332 59.5897 -119.544 -126.14 60.0088 
-115.932 -119.508 56.8291 -115.235 -118.939 55.96 -116.701 -120.204 57.7782 
-117.257 -121.345 58.6368 -117.679 -122.634 59.2863 -118.063 -123.823 59.8071 
-118.333 -125.029 60.2561 -118.549 -126.179 60.5949 -118.81 -127.08 60.8749 
-119.13 -127.726 61.1737 -115.653 -120.355 57.8483 -114.989 -119.704 57.0064 
-116.428 -121.072 58.734 -116.985 -122.14 59.5926 -117.321 -123.399 60.2972 
-117.652 -124.6 60.8722 -117.976 -125.739 61.4372 -118.207 -126.792 61.9027 
-118.379 -127.684 62.1636 -118.583 -128.403 62.3383 -118.893 -128.932 62.564 
-118.359 -112.368 48.2066 -117.862 -112.425 48.6754 -117.807 -111.161 47.5723 
-117.236 -111.178 48.0539 -117.281 -109.892 47.0112 -117.321 -112.579 49.2118 
-116.526 -110.077 47.4806 -116.586 -108.797 46.4356 -116.61 -111.43 48.5676 
-116.862 -112.885 49.9438 -115.656 -109.134 46.8528 -115.741 -107.787 45.8401 
-115.75 -110.518 47.9832 -116.046 -111.864 49.2954 -116.41 -113.429 50.827 
-114.825 -107.98 46.2719 -115.032 -106.679 45.4776 -114.899 -109.545 47.4205 
-115.105 -111.027 48.6924 -115.436 -112.492 50.159 -115.785 -114.352 51.5097 
-114.276 -106.767 46.1678 -114.603 -105.607 45.5756 -114.311 -108.244 47.2089 
-114.447 -110.011 48.3778 -114.584 -111.596 49.6599 -114.871 -113.366 50.9299 
-115.236 -115.491 52.0772 -114.06 -105.905 46.7137 -114.37 -104.712 46.092 
-114.042 -107.114 47.6894 -114.156 -108.823 48.7128 -114.172 -110.606 49.7402 
-114.334 -112.216 50.7899 -114.691 -114.277 51.7811 -115.032 -116.509 53.0164 
-113.995 -105.301 47.5735 -114.193 -103.988 46.8844 -113.969 -106.435 48.5256 
-114.018 -107.883 49.4387 -113.903 -109.698 50.2695 -113.93 -111.234 51.1271 
-114.369 -112.838 51.9392 -114.776 -115.112 52.8995 -114.959 -117.375 54.3085 
-113.799 -104.778 48.4212 -113.955 -103.514 47.8168 -113.801 -105.959 49.2207 
-113.826 -107.25 49.9843 -113.57 -108.968 50.6822 -113.318 -110.626 51.4585 
-113.718 -111.905 52.2313 -114.447 -113.617 52.9998 -114.761 -116.009 54.0881 
-114.781 -118.207 55.5373 -113.414 -104.04 49.0867 -113.299 -105.257 49.646 
-112.679 -104.738 50.2636 -112.624 -106.019 50.7009 -112.239 -105.719 51.4253 
-113.363 -106.552 50.2449 -112.192 -107.159 52.0097 -112.507 -107.018 52.7944 
-112.593 -107.507 51.2326 -113.167 -108.163 50.8446 -112.338 -108.43 53.5957 
-113.081 -108.366 54.2064 -112.009 -108.67 52.7314 -112.193 -109.303 51.9209 
-112.666 -110.06 51.5972 -112.986 -109.636 54.8691 -113.576 -109.593 55.4875 
-112.311 -109.783 54.2526 -111.939 -110.397 53.4208 -112.074 -111.171 52.7461 
-112.795 -111.582 52.4552 -113.963 -111.086 55.8534 -114.316 -111.052 56.5942 
-113.435 -111.112 55.2546 -112.931 -111.53 54.6687 -112.701 -112.254 54.0242 
-113.009 -112.707 53.5211 -113.784 -112.968 53.2383 -115.01 -113.003 56.804 
-115.358 -113.011 57.3035 -114.587 -112.964 56.248 -114.182 -113.099 55.7094 
-113.919 -113.54 55.1951 -113.868 -114.046 54.6967 -114.12 -114.476 54.3445 
-114.507 -115.105 54.1933 -115.793 -115.107 57.6175 -116.233 -115.153 57.7383 
-115.283 -115.077 57.4323 -114.814 -115.077 57.0825 -114.535 -115.21 56.6169 
-114.412 -115.596 56.1357 -114.364 -116.192 55.7318 -114.41 -116.893 55.5486 
-114.554 -117.618 55.5466 -116.186 -117.047 58.438 -116.66 -117.059 58.3964 
-115.618 -117.084 58.572 -115.039 -117.117 58.59 -114.608 -117.151 58.3493 
-114.396 -117.388 57.9388 -114.311 -117.961 57.502 -114.271 -118.661 57.1739 
-114.331 -119.233 57.0471 -114.575 -119.585 57.037 -115.123 -120.94 58.4256 
-114.642 -121.018 58.5554 -115.318 -122.337 59.9481 -114.34 -120.942 58.7745 
-114.832 -122.575 60.3082 -115.262 -123.988 61.6787 -114.172 -120.595 59.1277 
-114.383 -122.787 60.7812 -114.694 -124.331 62.2035 -114.76 -125.747 63.4202 
-114.1 -119.972 59.5333 -113.926 -122.643 61.1988 -113.973 -124.617 62.6559 
-114.087 -126.013 63.9086 -114.172 -127.286 65.0274 -114.24 -119.421 59.8883 
-113.711 -122.008 61.4651 -113.234 -124.345 62.8471 -113.235 -126.063 64.1367 
-113.558 -127.414 65.4674 -113.796 -128.632 66.6806 -114.662 -119.198 60.0922 
-114.001 -121.397 61.6617 -113.03 -123.532 62.9968 -112.514 -125.511 64.2207 
-112.822 -127.309 65.6604 -113.202 -128.828 67.1373 -113.286 -130.054 68.3022 
-115.257 -119.099 60.0157 -114.62 -121.14 61.7082 -113.528 -122.936 63.2421 
-112.498 -124.668 64.5341 -112.323 -126.694 65.9341 -112.562 -128.707 67.4825 
-112.54 -130.271 68.7806 -112.466 -131.375 69.6949 -115.873 -118.943 59.7558 
-115.275 -120.965 61.5153 -114.301 -122.766 63.2928 -113.147 -124.242 64.8363 
-112.487 -125.96 66.3148 -112.323 -128.053 67.869 -112.057 -129.936 69.2474 
-111.731 -131.3 70.256 -111.737 -132.227 70.9875 -116.422 -118.795 59.5771 
-115.87 -120.687 61.2691 -115.034 -122.584 63.0821 -113.996 -124.149 64.7433 
-113.153 -125.596 66.3341 -112.682 -127.352 67.9737 -112.223 -129.182 69.4999 
-111.655 -130.683 70.7062 -111.32 -131.8 71.6017 -111.417 -132.617 72.2621 
-115.873 -121.745 59.3354 -115.879 -123.436 60.9692 -116.508 -122.811 60.3019 
-115.464 -125.307 62.7519 -116.222 -124.734 62.0558 -116.863 -124.06 61.2175 
-114.82 -127.075 64.4101 -115.65 -126.607 63.7722 -116.463 -125.929 62.9787 
-117.122 -125.27 61.9405 -114.34 -128.546 66.0794 -115.092 -128.302 65.3423 
-115.943 -127.725 64.5859 -116.71 -127.077 63.6725 -117.426 -126.456 62.5899 
-113.911 -129.908 67.8823 -114.63 -129.758 67.1743 -115.446 -129.409 66.2783 
-116.216 -128.835 65.335 -117 -128.203 64.3648 -117.745 -127.513 63.2337 
-113.245 -131.288 69.4275 -114.078 -131.078 69.0035 -114.933 -130.812 68.2542 
-115.777 -130.371 67.2004 -116.597 -129.745 66.0962 -117.411 -129.032 64.9935 
-118.028 -128.339 63.6593 -112.51 -132.394 70.6915 -113.446 -132.258 70.3486 
-114.369 -131.979 69.8497 -115.325 -131.609 69.0098 -116.277 -131.071 67.8585 
-117.125 -130.389 66.628 -117.803 -129.698 65.3252 -118.251 -129.063 63.8324 
-112.006 -133.039 71.9525 -112.898 -133.146 71.481 -113.832 -132.99 70.9104 
-114.809 -132.689 70.2264 -115.864 -132.257 69.3121 -116.804 -131.677 68.1339 
-117.532 -131.025 66.818 -118.092 -130.367 65.4204 -118.515 -129.686 63.9503 
-111.654 -133.198 73.3382 -112.304 -133.708 72.8834 -112.13 -133.892 74.1829 
-112.768 -134.555 73.5423 -112.96 -134.737 74.6199 -113.201 -133.894 72.1201 
-113.523 -135.421 73.8627 -114.198 -135.364 74.7356 -113.632 -134.777 72.5178 
-114.182 -133.771 71.231 -114.692 -135.702 73.8688 -115.599 -135.35 74.5065 
-114.401 -135.398 72.6798 -114.735 -134.552 71.3839 -115.313 -133.425 70.3507 
-116.299 -135.384 73.4162 -117.132 -135.001 73.8297 -115.739 -135.378 72.4433 
-115.702 -134.945 71.3003 -115.996 -134.058 70.2954 -116.418 -132.896 69.3164 
-118.27 -135.165 72.6486 -118.897 -134.789 73.0372 -117.6 -135.2 71.7696 
-117.184 -134.986 70.7794 -117.019 -134.37 69.9173 -117.047 -133.39 69.0445 
-117.275 -132.239 67.9975 -120.099 -135.044 71.9785 -120.488 -134.503 72.4212 
-119.462 -135.131 71.0814 -118.826 -134.949 70.0989 -118.353 -134.433 69.2788 
-118.024 -133.555 68.501 -117.911 -132.567 67.608 -117.988 -131.507 66.5626 
-121.299 -134.534 71.3687 -121.532 -133.871 71.7709 -120.78 -134.713 70.5384 
-120.132 -134.558 69.585 -119.595 -134.17 68.7319 -119.209 -133.422 67.9296 
-118.929 -132.503 67.1172 -118.742 -131.631 66.2129 -118.607 -130.7 65.1261 
-122.007 -133.682 70.5586 -122.191 -133.045 70.8728 -121.601 -133.894 69.8803 
-121.073 -133.753 69.044 -120.605 -133.501 68.2228 -120.255 -133.042 67.4038 
-119.975 -132.258 66.6128 -119.703 -131.414 65.8302 -119.391 -130.645 64.8629 
-119.088 -129.829 63.6975 -111.416 -132.293 73.0827 -111.772 -132.835 74.1828 
-112.033 -131.822 73.5992 -112.511 -132.201 74.6605 -112.982 -131.324 73.702 
-112.484 -133.449 74.9072 -113.514 -131.398 74.7641 -113.841 -130.768 73.3671 
-113.448 -132.543 75.2798 -113.758 -134.12 75.1759 -114.397 -130.678 74.2783 
-114.69 -130.207 72.4354 -114.496 -131.525 75.2362 -114.92 -132.972 75.3572 
-115.303 -134.525 75.0796 -115.329 -130.24 72.969 -115.798 -129.704 71.0137 
-115.299 -130.885 74.3773 -115.78 -131.923 74.9479 -116.303 -133.269 74.8887 
-116.617 -134.434 74.4978 -116.507 -129.817 71.2721 -116.977 -129.027 69.6021 
-116.216 -130.474 72.7923 -116.435 -131.242 73.8177 -116.945 -132.149 74.1742 
-117.389 -133.199 73.963 -117.979 -134.158 73.5789 -117.687 -129.034 69.7397 
-117.975 -128.005 68.4331 -117.403 -129.806 71.1184 -117.422 -130.486 72.3817 
-117.77 -131.171 73.2047 -118.178 -131.973 73.2884 -118.715 -132.941 73.021 
-119.577 -133.867 72.8224 -118.694 -127.934 68.4358 -118.853 -126.828 67.3783 
-118.55 -128.845 69.615 -118.587 -129.526 70.9009 -118.881 -130.13 72.0366 
-119.229 -130.846 72.5386 -119.576 -131.704 72.44 -120.151 -132.583 72.3183 
-120.919 -133.36 72.2239 -119.599 -126.756 67.2729 -119.7 -125.736 66.352 
-119.526 -127.759 68.2678 -119.577 -128.559 69.4002 -119.837 -129.153 70.5555 
[...]
CELL_DATA 2000
SCALARS Distance double
LOOKUP_TABLE default
170.794 170.724 171.165 171.983 170.728 171.138 172.009 172.413 173.305 
170.923 171.243 172.167 172.522 173.503 173.881 174.928 171.318 171.571 
172.546 172.822 173.883 174.208 175.349 175.691 176.842 171.801 172.048 
173.086 173.332 174.449 174.724 175.905 176.204 177.383 177.679 178.789 
172.362 172.58 173.67 173.93 175.091 175.365 176.537 176.802 177.932 
178.213 179.292 179.572 180.557 173.086 173.224 174.325 174.554 175.742 
176.02 177.196 177.44 178.527 178.753 179.78 180.038 181.004 181.243 
182.085 173.904 174.008 175.088 175.267 176.441 176.687 177.867 178.099 
179.192 179.377 180.394 180.572 181.529 181.703 182.55 182.692 183.409 
174.654 174.797 175.842 176.03 177.159 177.391 178.528 178.757 179.83 
180.034 181.044 181.221 182.164 182.294 183.125 183.207 183.919 183.979 
184.611 169.988 168.663 169.507 169.871 167.278 168.127 168.483 169.384 
169.826 165.908 166.734 167.064 167.964 168.436 169.398 169.979 164.511 
165.349 165.678 166.568 167.025 167.993 168.611 169.635 170.326 163.094 
163.905 164.244 165.178 165.644 166.601 167.178 168.219 168.931 170.015 
170.76 161.925 162.56 162.897 163.77 164.33 165.27 165.869 166.82 
167.507 168.578 169.395 170.494 171.317 161.214 161.645 162.044 162.66 
163.328 164.125 164.861 165.665 166.367 167.258 168.093 169.159 170.112 
171.172 172.079 160.83 161.196 161.711 162.127 162.816 163.399 164.189 
164.854 165.577 166.285 167.048 167.964 168.926 170.008 171.026 172.037 
172.94 160.566 160.936 161.5 161.909 162.533 163.023 163.701 164.284 
164.933 165.561 166.208 166.987 167.826 168.849 169.869 170.964 171.939 
172.905 173.727 160.613 160.935 161.018 161.535 161.383 161.344 161.894 
162.002 162.591 162.391 161.979 162.43 162.383 162.99 163.09 163.71 
163.939 163.236 163.477 163.082 163.543 163.498 164.115 164.226 164.867 
165.586 164.845 164.986 164.321 164.645 164.263 164.833 164.73 165.427 
165.453 166.166 167.363 166.562 166.838 166.004 166.387 165.693 166.303 
165.825 166.59 166.295 167.131 166.977 167.859 169.477 168.58 169.023 
168.082 168.559 167.698 168.338 167.636 168.408 167.84 168.687 168.273 
169.215 168.955 169.943 171.666 170.815 171.269 170.373 170.82 169.946 
170.473 169.726 170.38 169.763 170.513 170.005 170.855 170.479 171.409 
171.133 172.036 173.584 172.871 173.256 172.505 172.894 172.103 172.519 
171.762 172.282 171.646 172.312 171.794 172.567 172.135 172.958 172.608 
173.415 173.119 173.844 174.853 174.535 175.247 176.356 174.214 174.983 
176.216 176.876 178.04 173.894 174.719 176.087 176.814 178.054 178.619 
179.689 173.606 174.417 175.815 176.66 177.942 178.609 179.65 180.165 
181.068 173.529 174.188 175.487 176.304 177.502 178.295 179.28 179.969 
180.861 181.445 182.322 173.747 174.237 175.443 176.034 177.073 177.725 
178.603 179.365 180.3 181.107 182.102 182.733 183.636 174.078 174.515 
175.685 176.123 177.095 177.454 178.225 178.722 179.657 180.472 181.618 
182.442 183.456 184.019 184.78 174.369 174.801 175.933 176.381 177.385 
177.662 178.427 178.632 179.479 180.007 181.161 181.958 183.067 183.742 
184.526 185.002 185.576 174.641 175.041 176.108 176.567 177.592 177.962 
178.794 178.982 179.755 180.047 181.051 181.638 182.726 183.359 184.194 
184.686 185.273 185.688 186.19 175.352 176.875 176.264 176.612 178.536 
177.891 178.295 177.627 177.987 180.14 179.566 179.985 179.359 179.741 
179.037 179.346 181.526 181.074 181.501 180.986 181.367 180.748 181.05 
180.353 180.607 182.82 182.401 182.865 182.417 182.823 182.288 182.609 
181.99 182.271 181.586 181.82 184.124 183.719 184.212 183.777 184.231 
183.724 184.081 183.501 183.808 183.197 183.467 182.775 182.941 185.241 
184.968 185.454 185.103 185.569 185.131 185.513 184.97 185.265 184.684 
184.94 184.334 184.501 183.801 183.854 186.044 185.931 186.416 186.214 
186.656 186.361 186.74 186.33 186.618 186.097 186.313 185.737 185.888 
185.259 185.309 184.605 184.588 186.663 186.628 187.138 187.04 187.473 
187.291 187.652 187.396 187.699 187.332 187.545 187.047 187.173 186.589 
186.644 185.994 185.983 185.281 185.244 187.176 188.201 187.688 187.685 
189.363 188.767 188.714 188.145 188.031 190.584 189.956 189.828 189.182 
188.986 188.403 188.206 191.535 191.056 190.841 190.241 189.963 189.354 
189.103 188.537 188.286 192.109 191.789 191.561 191.091 190.792 190.264 
189.973 189.42 189.118 188.549 188.176 192.708 192.368 192.25 191.762 
191.519 191.018 190.728 190.211 189.844 189.303 188.861 188.302 187.797 
193.364 193.091 193.043 192.543 192.292 191.756 191.427 190.901 190.462 
189.923 189.407 188.886 188.346 187.816 187.247 193.594 193.593 193.471 
193.195 192.798 192.396 191.917 191.484 190.948 190.453 189.866 189.36 
188.791 188.299 187.72 187.199 186.585 193.277 193.493 193.283 193.262 
192.755 192.567 191.973 191.725 191.14 190.797 190.183 189.748 189.14 
188.69 188.095 187.618 186.984 186.473 185.834 187.029 187.186 187.399 
188.059 187.412 187.587 188.229 188.487 189.225 187.525 187.761 188.345 
188.637 189.4 189.73 190.495 187.394 187.735 188.287 188.66 189.385 
189.832 190.637 190.97 191.537 187.162 187.522 188.054 188.478 189.132 
189.665 190.387 190.91 191.479 191.772 192.089 186.932 187.296 187.785 
188.184 188.749 189.274 189.872 190.452 190.945 191.448 191.825 192.174 
192.533 186.549 187.01 187.466 187.876 188.359 188.834 189.365 189.88 
190.336 190.822 191.218 191.718 192.175 192.641 193.09 185.971 186.516 
186.973 187.462 187.906 188.393 188.889 189.387 189.863 190.298 190.696 
191.131 191.556 192.1 192.552 193.076 193.351 185.357 185.891 186.352 
186.889 187.336 187.863 188.32 188.859 189.315 189.821 190.209 190.65 
190.98 191.451 191.777 192.334 192.582 193.075 193.103 175.154 176.409 
176.042 176.596 177.672 177.313 177.859 177.509 178.045 178.921 178.57 
179.107 178.755 179.25 178.891 179.269 180.186 179.827 180.351 179.982 
180.458 180.079 180.48 180.03 180.327 181.368 181.063 181.577 181.224 
181.72 181.324 181.802 181.338 181.776 181.216 181.648 182.36 182.146 
182.675 182.411 182.961 182.622 183.181 182.757 183.293 182.776 183.264 
182.696 183.188 183.248 183.08 183.662 183.472 184.085 183.838 184.444 
184.126 184.698 184.29 184.767 184.258 184.635 184.133 184.505 184.089 
183.965 184.594 184.46 185.104 184.92 185.503 185.275 185.808 185.55 
186.011 185.636 185.949 185.457 185.689 185.24 185.515 184.815 184.765 
185.385 185.339 185.957 185.857 186.369 186.2 186.628 186.464 186.871 
186.675 186.988 186.637 186.824 186.37 186.555 186.15 186.41 174.431 
173.614 174.634 175.723 172.553 173.778 175.042 175.967 177.011 171.458 
172.716 174.136 175.237 176.407 177.255 178.266 170.628 171.712 173.155 
174.32 175.612 176.598 177.72 178.541 179.554 170.125 170.978 172.309 
173.402 174.746 175.791 177.005 177.949 179.075 179.86 180.797 169.884 
170.52 171.71 172.646 173.98 174.987 176.244 177.217 178.411 179.325 
180.376 181.062 181.848 169.879 170.331 171.389 172.132 173.41 174.322 
175.597 176.511 177.714 178.64 179.774 180.594 181.502 182.068 182.749 
170.019 170.366 171.295 171.866 173.023 173.824 175.073 175.934 177.115 
177.98 179.115 179.982 180.999 181.698 182.476 182.961 183.584 170.182 
170.494 171.321 171.775 172.78 173.457 174.611 175.425 176.569 177.398 
178.484 179.335 180.375 181.173 182.05 182.653 183.318 183.764 184.32 
170.518 171.439 171.185 171.676 172.493 172.194 172.737 172.473 173.123 
173.698 173.348 173.955 173.643 174.351 174.095 174.905 175.077 174.673 
175.347 174.979 175.722 175.406 176.22 175.976 176.825 176.503 176.119 
176.817 176.449 177.209 176.849 177.644 177.331 178.162 177.901 178.731 
177.816 177.502 178.199 177.898 178.672 178.351 179.152 178.805 179.62 
179.29 180.117 179.819 180.613 179.1 178.795 179.523 179.241 180.04 
179.772 180.601 180.302 181.107 180.772 181.545 181.219 181.948 181.641 
182.28 180.431 180.134 180.91 180.605 181.411 181.129 181.943 181.683 
182.457 182.18 182.874 182.574 183.191 182.891 183.425 183.121 183.556 
181.677 181.462 182.249 181.994 182.768 182.49 183.232 182.967 183.662 
183.412 184.034 183.772 184.306 184.024 184.475 184.176 184.552 184.236 
184.555 182.579 184.192 183.323 183.208 185.857 184.951 184.802 183.929 
183.744 187.421 186.556 186.339 185.492 185.297 184.423 184.188 188.696 
187.99 187.764 186.978 186.772 185.939 185.699 184.822 184.562 189.642 
189.123 188.962 188.309 188.101 187.349 187.087 186.269 185.971 185.14 
184.862 190.402 189.993 189.897 189.386 189.179 188.546 188.246 187.537 
187.209 186.46 186.139 185.373 185.078 191.134 190.745 190.678 190.24 
190.067 189.517 189.218 188.579 188.247 187.585 187.265 186.568 186.238 
185.514 185.192 191.916 191.508 191.438 190.997 190.853 190.361 190.117 
189.524 189.21 188.573 188.256 187.611 187.275 186.598 186.234 185.553 
185.211 192.7 192.317 192.227 191.755 191.554 191.092 190.844 190.361 
190.056 189.498 189.145 188.541 188.171 187.55 187.171 186.531 186.158 
185.52 185.179 182.448 182.741 183.104 184.105 183.071 183.486 184.665 
184.921 185.915 183.406 183.889 185.227 185.588 186.743 186.814 187.62 
183.612 184.181 185.51 186.073 187.298 187.607 188.447 188.39 188.897 
183.585 184.221 185.384 186.103 187.252 187.885 188.754 189.008 189.482 
189.428 189.746 183.371 184.022 185.05 185.775 186.821 187.579 188.478 
189.021 189.583 189.79 190.128 190.138 190.443 183.083 183.716 184.698 
185.381 186.385 187.1 187.997 188.617 189.267 189.691 190.15 190.38 
190.764 190.818 191.166 182.77 183.384 184.321 185.002 185.969 186.669 
187.519 188.133 188.759 189.274 189.783 190.234 190.722 191.023 191.461 
191.55 191.926 182.422 183.019 183.869 184.557 185.445 186.176 186.97 
187.614 188.203 188.735 189.225 189.758 190.283 190.796 191.305 191.67 
192.106 192.274 192.646 181.483 180.072 181.074 181.676 178.569 179.593 
180.12 181.2 181.85 176.976 178.011 178.469 179.553 180.111 181.327 
182.064 175.423 176.399 176.826 177.861 178.343 179.508 180.181 181.52 
182.293 174.016 174.908 175.359 176.3 176.776 177.783 178.367 179.599 
180.36 181.715 182.397 172.701 173.549 174.019 174.936 175.476 176.376 
176.913 177.898 178.545 179.776 180.494 181.761 182.298 171.485 172.276 
172.741 173.635 174.218 175.143 175.715 176.587 177.125 178.099 178.721 
179.885 180.499 181.645 182.086 170.408 171.147 171.652 172.455 173.054 
173.923 174.529 175.397 175.929 176.785 177.306 178.267 178.844 179.911 
180.438 181.467 181.85 169.39 170.132 170.692 171.474 172.107 172.884 
173.48 174.255 174.781 175.586 176.085 176.948 177.468 178.402 178.922 
179.891 180.332 181.262 181.585 168.946 168.728 169.342 170.346 168.551 
169.197 170.356 170.891 171.87 168.5 169.084 170.292 170.917 171.99 
172.407 173.24 168.625 169.099 170.228 170.836 171.918 172.446 173.309 
173.686 174.451 168.816 169.239 170.277 170.792 171.819 172.337 173.247 
173.691 174.525 174.908 175.737 169.021 169.408 170.43 170.876 171.891 
172.319 173.267 173.677 174.601 175.005 175.922 176.27 177.138 169.36 
169.646 170.665 171.062 172.102 172.484 173.442 173.797 174.724 175.119 
176.06 176.459 177.364 177.694 178.544 169.889 170.06 171.013 171.333 
172.335 172.708 173.634 173.986 174.848 175.231 176.116 176.551 177.448 
177.862 178.722 179.074 179.893 170.507 170.613 171.459 171.689 172.586 
172.913 173.782 174.13 174.95 175.316 176.161 176.578 177.467 177.903 
178.778 179.183 180.006 180.363 181.125 171.112 172.298 171.798 172.04 
173.618 173.04 173.288 172.787 173.104 175.24 174.507 174.766 174.125 
174.421 173.901 174.251 177.132 176.294 176.568 175.773 176.067 175.355 
175.672 175.087 175.438 179.06 178.241 178.51 177.675 177.973 177.159 
177.472 176.697 177.02 176.346 176.703 180.833 180.119 180.391 179.602 
179.883 179.089 179.406 178.603 178.913 178.106 178.415 177.686 178.034 
182.345 181.78 182.087 181.413 181.706 180.966 181.281 180.516 180.82 
180.021 180.282 179.483 179.748 179.027 179.336 183.627 183.17 183.503 
182.986 183.316 182.711 183.036 182.347 182.632 181.87 182.087 181.298 
181.489 180.738 180.965 180.284 180.548 184.802 184.388 184.721 184.293 
184.632 184.172 184.498 183.968 184.235 183.589 183.762 183.022 183.149 
182.406 182.566 181.876 182.084 181.437 181.656 182.461 182.928 183.085 
183.896 183.418 183.571 184.424 184.592 185.453 183.995 184.103 184.95 
185.118 185.986 186.153 186.94 184.598 184.704 185.529 185.666 186.522 
186.674 187.445 187.543 188.163 185.048 185.239 186.035 186.219 187.086 
187.252 188.07 188.112 188.752 188.704 189.235 185.283 185.566 186.336 
186.614 187.472 187.759 188.637 188.783 189.474 189.402 189.93 189.811 
190.327 185.408 185.734 186.513 186.832 187.659 188.021 188.879 189.208 
189.912 190.033 190.526 190.496 190.959 190.908 191.374 185.498 185.847 
186.646 186.987 187.786 188.139 188.928 189.307 190 190.277 190.79 
190.919 191.377 191.448 191.932 191.908 192.277 185.56 185.922 186.707 
187.083 187.837 188.199 188.907 189.283 189.951 190.289 190.865 191.088 
191.612 191.772 192.321 192.411 192.865 192.755 192.956 160.048 160.347 
159.936 159.54 160.94 160.439 160.132 159.645 159.566 161.816 161.261 
161.143 160.515 160.4 159.939 160.174 162.966 162.321 162.285 161.661 
161.56 160.927 160.925 160.632 161.03 164.316 163.582 163.504 162.851 
162.794 162.126 162.076 161.506 161.705 161.521 162.086 165.719 164.965 
164.871 164.144 164.135 163.438 163.516 162.821 163.045 162.498 162.995 
162.768 163.5 167.096 166.362 166.304 165.567 165.601 164.896 165.072 
164.39 164.683 164.033 164.462 163.971 164.587 164.343 165.084 168.466 
167.747 167.711 167.002 167.066 166.403 166.615 165.989 166.297 165.673 
166.028 165.467 165.932 165.542 166.15 165.936 166.614 169.798 169.12 
169.105 168.414 168.499 167.86 168.096 167.515 167.849 167.257 167.61 
167.005 167.421 166.909 167.454 167.086 167.714 167.456 168.074 159.871 
159.399 159.618 159.869 159.456 159.394 159.763 160.019 160.683 160.201 
159.856 160.243 160.212 160.955 161.17 161.952 161.241 160.87 161.301 
161.019 161.629 161.596 162.329 162.47 163.121 162.306 161.951 162.428 
162.148 162.638 162.401 162.951 162.912 163.561 163.63 164.259 163.602 
163.089 163.507 163.201 163.677 163.394 163.859 163.653 164.257 164.205 
164.909 164.895 165.58 165.13 164.491 164.817 164.347 164.808 164.445 
164.946 164.643 165.225 165.046 165.729 165.644 166.324 166.274 166.927 
166.644 166.012 166.288 165.733 166.135 165.68 166.182 165.811 166.388 
166.105 166.726 166.528 167.138 167.018 167.612 167.571 168.174 168.045 
167.456 167.695 167.16 167.492 167.021 167.45 167.065 167.592 167.285 
167.858 167.582 168.13 167.884 168.417 168.265 168.827 168.776 169.345 
160.207 160.159 160.244 160.567 160.873 160.5 160.661 160.643 161.05 
162.059 161.468 161.492 161.059 161.377 161.385 162.13 163.213 162.669 
162.715 162.129 162.383 162.063 162.785 162.843 163.806 164.34 163.803 
163.977 163.433 163.756 163.291 163.892 163.705 164.549 164.591 165.465 
165.643 165.038 165.286 164.763 165.183 164.72 165.221 164.858 165.436 
165.312 166.049 166.159 167.081 167.011 166.421 166.664 166.134 166.531 
166.103 166.541 166.123 166.515 166.191 166.771 166.752 167.709 167.928 
169.107 168.288 167.769 168.003 167.488 167.799 167.371 167.761 167.359 
167.76 167.334 167.902 167.663 168.648 168.713 169.989 170.165 171.387 
169.459 169.005 169.252 168.769 169.049 168.594 168.977 168.572 169.083 
168.673 169.366 169.019 170.027 169.895 171.163 171.192 172.419 172.438 
173.431 181.018 179.789 180.161 179.624 178.495 178.887 178.365 178.73 
178.154 177.233 177.607 177.084 177.45 176.877 177.215 176.594 175.899 
176.316 175.77 176.164 175.578 175.925 175.305 175.636 175.041 174.462 
174.9 174.333 174.786 174.198 174.596 173.975 174.337 173.753 174.126 
173.614 173.122 173.482 172.935 173.347 172.795 173.193 172.59 172.974 
172.394 172.811 172.308 172.739 172.292 171.955 172.235 171.703 172.043 
171.532 171.872 171.302 171.621 171.034 171.424 170.923 171.391 170.958 
171.429 171.047 170.907 171.125 170.557 170.855 170.336 170.673 170.133 
170.421 169.834 170.128 169.6 170.006 169.581 170.065 169.695 170.205 
169.905 169.997 170.132 169.53 169.737 169.185 169.485 168.964 169.274 
168.717 168.989 168.436 168.753 168.293 168.714 168.341 168.837 168.523 
169.08 168.842 
POINT_DATA 1002
SCALARS Distance double
LOOKUP_TABLE default
171.593 170.443 170.346 171.559 170.269 172.801 171.588 170.33 172.881 
174.236 171.815 170.627 173.1 174.53 176.022 172.274 171.057 173.553 
174.998 176.524 177.983 172.815 171.533 174.173 175.626 177.095 178.534 
179.854 173.394 172.164 174.806 176.3 177.691 179.014 180.333 181.49 
174.119 172.979 175.468 176.959 178.336 179.559 180.772 181.913 182.856 
174.932 173.806 176.219 177.64 179.006 180.24 181.389 182.431 183.312 
184.062 175.656 174.503 176.943 178.318 179.63 180.859 182.039 183.068 
183.881 184.568 185.208 169.175 169.001 167.815 167.565 166.456 168.883 
166.182 165.089 167.445 168.984 164.777 163.668 166.078 167.554 169.297 
163.274 162.344 164.683 166.175 167.808 169.693 162.064 161.37 163.356 
164.956 166.48 168.237 170.259 161.506 160.771 162.565 164.068 165.563 
167.061 168.984 171.097 161.317 160.406 162.317 163.57 164.936 166.234 
167.851 169.947 172.037 161.091 160.207 162.098 163.188 164.352 165.515 
166.877 168.753 170.912 172.874 160.545 161.421 160.843 161.773 161.539 
162.491 162.632 163.006 162.89 163.595 164.075 164.738 163.73 164.017 
164.739 165.724 166.3 165.162 165.048 165.439 166.108 167.664 168.127 
167.127 166.873 166.992 167.341 167.947 169.95 170.356 169.455 169.096 
169.046 169.189 169.533 170.167 172.14 172.506 171.718 171.289 171.038 
171.058 171.296 171.741 172.327 173.969 174.279 173.662 173.308 172.966 
172.849 173.035 173.377 173.764 174.161 175.899 175.683 177.489 175.508 
177.46 179.174 175.28 177.478 179.228 180.671 174.944 177.23 179.125 
180.603 181.936 174.78 176.747 178.537 180.184 181.8 183.234 174.973 
176.583 177.898 179.38 181.34 183.171 184.508 175.269 176.822 177.889 
178.896 180.701 182.82 184.383 185.455 175.479 177.059 178.282 179.117 
180.43 182.359 184.029 185.171 186.106 175.68 177.172 178.552 179.554 
180.599 182.129 183.696 184.861 185.789 186.678 177.239 178.949 178.702 
180.581 180.431 180.095 181.977 181.951 181.724 181.337 183.294 183.329 
183.195 182.913 182.569 184.634 184.714 184.654 184.401 184.116 183.721 
185.766 185.968 186.03 185.861 185.541 185.169 184.618 186.574 186.913 
187.09 187.104 186.896 186.507 185.993 185.32 187.207 187.636 187.872 
187.996 187.999 187.744 187.271 186.673 185.96 187.645 188.214 188.745 
189.342 190.003 188.588 190.526 191.224 189.62 188.753 191.421 191.961 
190.579 189.694 188.865 191.988 192.381 191.278 190.523 189.705 188.788 
192.74 193.008 192.028 191.258 190.409 189.421 188.379 193.529 193.559 
192.867 191.989 191.04 189.943 188.863 187.801 193.696 193.532 193.194 
192.338 191.428 190.381 189.279 188.237 187.127 193.255 193.048 192.901 
192.173 191.412 190.585 189.587 188.558 187.493 186.336 186.766 187.789 
187.004 187.971 187.263 188.927 188.052 187.263 189.014 190.26 187.894 
187.029 188.918 190.225 191.429 187.648 186.817 188.623 189.856 191.082 
191.93 187.431 186.553 188.284 189.344 190.42 191.335 192.214 187.052 
186.047 187.921 188.878 189.879 190.714 191.61 192.707 186.454 185.417 
187.418 188.385 189.41 190.306 191.073 191.988 192.966 185.806 184.85 
186.801 187.792 188.788 189.751 190.574 191.296 192.052 192.732 175.508 
176.944 176.78 178.222 178.019 178.419 179.476 179.275 179.629 179.708 
180.738 180.551 180.848 180.905 180.835 181.906 181.653 182.094 182.226 
182.281 182.22 182.886 182.549 183.241 183.554 183.771 183.834 183.744 
183.81 183.391 184.295 184.726 185.06 185.27 185.202 184.963 184.698 
184.184 185.279 185.745 186.046 186.326 186.441 186.21 185.899 173.511 
174.887 172.448 174.002 171.213 176.24 172.937 170.228 175.474 177.512 
171.977 169.683 174.555 176.814 178.842 171.276 169.417 173.678 176.009 
178.197 180.193 170.869 169.366 172.988 175.278 177.449 179.592 181.347 
170.759 169.513 172.54 174.706 176.813 178.884 180.85 182.314 170.828 
169.718 172.299 174.231 176.287 178.249 180.217 181.937 183.183 170.937 