# vtk DataFile Version 4.0
vtk output
ASCII
DATASET POLYDATA
POINTS 1002 float
-120.355 -114.003 52.4154 -120.132 -113 51.3578 -119.648 -113.289 51.8734 
-119.891 -114.414 52.9632 -119.148 -113.76 52.363 -120.687 -115.167 53.7272 
-119.472 -115.04 53.5327 -118.68 -114.3 52.9477 -120.293 -115.763 54.3563 
-121.048 -116.742 55.0324 -119.042 -115.749 54.2576 -118.304 -114.782 53.8234 
-119.944 -116.554 55.0286 -120.672 -117.488 55.7346 -121.314 -118.566 56.2144 
-118.64 -116.437 55.1947 -118.115 -115.322 54.9006 -119.459 -117.403 55.7776 
-120.248 -118.257 56.4885 -120.832 -119.217 57.0545 -121.456 -120.053 57.7251 
-118.421 -117.133 56.2145 -118.018 -116.041 55.911 -118.955 -118.197 56.648 
-119.661 -119.033 57.3247 -120.281 -119.824 58.0374 -120.845 -120.64 58.7856 
-121.479 -121.296 59.7213 -118.251 -117.778 57.2867 -117.807 -116.815 56.851 
-118.639 -118.825 57.727 -119.145 -119.758 58.3701 -119.76 -120.546 59.1713 
-120.331 -121.363 59.9611 -120.871 -122.17 60.7651 -121.415 -122.842 61.5438 
-117.932 -118.351 58.4365 -117.472 -117.541 57.8352 -118.359 -119.282 58.9884 
-118.798 -120.305 59.619 -119.334 -121.28 60.3919 -119.94 -122.179 61.1572 
-120.464 -123.082 61.8245 -120.903 -123.89 62.4041 -121.326 -124.531 62.8801 
-117.518 -118.97 59.4819 -117.08 -118.246 58.7744 -117.993 -119.797 60.1333 
-118.483 -120.805 60.7873 -118.938 -121.929 61.5071 -119.444 -122.944 62.2107 
-119.988 -123.851 62.8216 -120.452 -124.695 63.3388 -120.841 -125.39 63.7451 
-121.202 -125.935 64.0509 -117.097 -119.65 60.252 -116.638 -118.925 59.5268 
-117.589 -120.467 60.9367 -118.118 -121.447 61.6342 -118.55 -122.598 62.3868 
-118.886 -123.684 63.0876 -119.284 -124.576 63.6696 -119.756 -125.373 64.1988 
-120.223 -126.06 64.6699 -120.637 -126.594 65.0123 -120.994 -127.031 65.2335 
-119.643 -112.077 50.8464 -119.113 -112.386 51.3741 -119.02 -111.062 50.3924 
-118.498 -111.355 50.9319 -118.265 -110.024 49.9344 -118.574 -112.843 51.8927 
-117.809 -110.294 50.5919 -117.615 -108.913 49.7654 -117.988 -111.798 51.5798 
-118.111 -113.29 52.5832 -117.204 -109.223 50.6085 -117.158 -107.771 49.9751 
-117.314 -110.824 51.4555 -117.547 -112.3 52.4069 -117.814 -113.711 53.5754 
-116.623 -108.239 50.7384 -116.534 -106.901 50.0593 -116.584 -109.934 51.4628 
-116.757 -111.532 52.277 -117.164 -112.875 53.3361 -117.627 -114.335 54.6474 
-115.807 -107.582 50.6823 -115.673 -106.449 50.0113 -115.776 -109.139 51.329 
-115.811 -110.834 52.0153 -116.145 -112.316 52.9579 -116.748 -113.68 54.2394 
-117.387 -115.219 55.5734 -114.996 -107.254 50.9406 -115.052 -106.212 50.4264 
-114.946 -108.559 51.3865 -114.963 -110.107 51.8214 -115.132 -111.734 52.5681 
-115.612 -113.26 53.7781 -116.396 -114.701 55.1315 -117.109 -116.16 56.4565 
-114.557 -107.025 51.7565 -114.798 -106.007 51.3322 -114.387 -108.167 52.0821 
-114.396 -109.456 52.2586 -114.514 -110.978 52.6368 -114.789 -112.698 53.572 
-115.415 -114.333 54.817 -116.234 -115.746 56.0642 -116.822 -117.038 57.3973 
-114.277 -106.779 52.6533 -114.548 -105.82 52.2775 -114.066 -107.851 52.9983 
-114.057 -108.986 53.167 -114.205 -110.23 53.3098 -114.448 -111.807 53.8333 
-114.874 -113.661 54.7789 -115.485 -115.356 55.8441 -116.057 -116.692 56.9985 
-116.421 -117.834 58.2909 -113.871 -106.244 53.2827 -113.638 -107.294 53.6163 
-112.96 -106.795 54.1838 -112.871 -108.068 54.4581 -112.277 -107.657 55.2281 
-113.604 -108.507 53.9316 -112.337 -109.191 55.5681 -112.279 -108.797 56.6063 
-113.027 -109.441 54.819 -113.785 -109.668 54.1469 -112.543 -110.283 56.9928 
-112.996 -109.866 57.9347 -112.705 -110.473 55.9536 -113.507 -110.454 55.1423 
-114.175 -110.882 54.4392 -113.772 -111.106 57.9474 -114.289 -110.822 58.5405 
-113.412 -111.322 57.064 -113.786 -111.277 56.1554 -114.453 -111.609 55.5069 
-114.732 -112.639 55.0623 -115.625 -112.126 58.1108 -115.93 -111.999 58.5274 
-115.151 -112.341 57.6494 -114.985 -112.45 57.0719 -115.202 -112.759 56.5308 
-115.251 -113.702 56.1696 -115.208 -114.779 55.9521 -117.085 -113.574 58.3842 
-117.284 -113.444 58.739 -116.671 -113.814 58.1734 -116.19 -114.093 58.0482 
-115.879 -114.457 57.8103 -115.532 -115.165 57.4459 -115.261 -116.032 57.1423 
-115.473 -116.553 57.0026 -117.565 -115.115 59.3711 -117.864 -114.945 59.5654 
-117.099 -115.347 59.2628 -116.48 -115.64 59.3201 -115.909 -116.012 59.3362 
-115.35 -116.56 59.0315 -114.899 -117.214 58.5547 -115.017 -117.664 58.2601 
-115.683 -117.811 58.2187 -117.443 -116.554 60.6762 -117.879 -116.398 60.6862 
-116.893 -116.719 60.6439 -116.251 -116.899 60.68 -115.683 -117.142 60.7364 
-115.197 -117.554 60.5276 -114.74 -118.118 60.0046 -114.653 -118.597 59.5439 
-115.173 -118.833 59.395 -115.963 -118.904 59.4496 -116.51 -120.091 60.6068 
-115.853 -120.105 60.5698 -116.506 -121.514 61.7867 -115.209 -120.036 60.5808 
-115.984 -121.678 61.9232 -116.462 -123.177 63.3931 -114.938 -119.767 60.8444 
-115.549 -121.776 62.1254 -115.909 -123.537 63.7633 -116.022 -124.816 65.2195 
-115.141 -119.261 61.4011 -115.416 -121.601 62.5715 -115.267 -123.757 64.1743 
-115.08 -125.095 65.5889 -115.217 -126.143 66.5354 -115.476 -118.757 61.8708 
-115.604 -121.145 63.1582 -114.916 -123.572 64.7791 -113.945 -125.037 66.0117 
-113.976 -126.07 66.7271 -114.606 -127.265 67.5061 -115.824 -118.461 61.9787 
-115.915 -120.691 63.4184 -115.215 -123.129 65.2541 -113.579 -124.645 66.5966 
-112.92 -125.654 67.064 -113.654 -127.025 67.7119 -114.527 -128.384 68.9338 
-116.33 -118.288 61.9396 -116.298 -120.334 63.2999 -115.933 -122.682 65.1366 
-114.416 -124.297 66.8428 -113.12 -125.216 67.5439 -113.295 -126.547 68.0539 
-114.124 -128.175 69.266 -114.646 -129.341 70.7288 -116.93 -118.134 61.9279 
-116.772 -120.002 63.1484 -116.642 -122.185 64.6882 -115.687 -124.036 66.4699 
-114.391 -125.108 67.6918 -113.951 -126.147 68.474 -114.252 -127.642 69.6307 
-114.514 -129.034 71.1182 -114.531 -129.944 72.3868 -117.485 -117.989 61.8749 
-117.273 -119.735 63.0459 -117.196 -121.673 64.3426 -116.668 -123.608 65.9256 
-115.699 -125.086 67.4123 -115.035 -126.096 68.6278 -114.839 -127.125 69.9519 
-114.691 -128.317 71.448 -114.44 -129.413 72.8177 -114.212 -130.268 73.8647 
-117.043 -120.997 61.368 -116.987 -122.602 62.725 -117.575 -122.028 62.1592 
-116.678 -124.328 64.5322 -117.341 -123.827 63.744 -118.033 -123.236 63.0541 
-116.037 -125.937 66.1659 -116.736 -125.591 65.5168 -117.588 -125.114 64.7362 
-118.327 -124.443 63.9125 -115.396 -127.323 67.2753 -116.039 -127.141 66.8311 
-116.916 -126.764 66.2483 -117.852 -126.201 65.4714 -118.585 -125.422 64.5476 
-115.092 -128.52 68.6714 -115.633 -128.46 68.1279 -116.41 -128.146 67.5281 
-117.383 -127.691 66.8666 -118.194 -127.097 65.9917 -118.955 -126.252 65.067 
-115.008 -129.5 70.539 -115.502 -129.535 69.9881 -116.196 -129.343 69.2594 
-117.069 -128.914 68.4762 -117.866 -128.498 67.5086 -118.6 -127.891 66.5005 
-119.447 -126.962 65.5948 -114.783 -130.218 72.2317 -115.293 -130.366 71.7747 
-116.033 -130.371 71.1332 -116.86 -130.002 70.3802 -117.607 -129.529 69.3053 
-118.309 -129.137 68.0466 -119.125 -128.435 66.9917 -119.977 -127.462 66.042 
-114.361 -130.73 73.6758 -114.825 -131.007 73.1602 -115.629 -131.18 72.4925 
-116.572 -131.012 71.8483 -117.394 -130.481 70.9729 -118.099 -130.012 69.6844 
-118.86 -129.536 68.4055 -119.692 -128.741 67.3649 -120.438 -127.825 66.325 
-113.95 -130.92 75.3347 -114.183 -131.44 74.8267 -113.967 -131.592 76.7248 
-114.321 -132.101 75.7516 -114.465 -132.079 77.3364 -114.853 -131.751 73.8848 
-115.019 -132.527 76.0048 -115.51 -132.331 76.79 -115.201 -132.339 74.356 
-115.933 -131.847 72.9376 -116.327 -132.716 75.6474 -116.996 -132.376 75.9279 
-116.099 -132.678 74.4592 -116.502 -132.336 73.0846 -117.066 -131.521 72.107 
-118.065 -132.691 75.193 -118.653 -132.222 75.3916 -117.598 -132.804 74.228 
-117.521 -132.676 72.9206 -117.774 -132.028 71.9469 -117.984 -130.955 71.0077 
-119.844 -132.56 74.5894 -120.164 -132.003 74.7257 -119.462 -132.776 73.6883 
-119.031 -132.811 72.4012 -118.795 -132.444 71.4897 -118.759 -131.484 70.7544 
-118.786 -130.413 69.6797 -121.246 -132.314 73.7539 -121.41 -131.667 73.8324 
-121.104 -132.658 72.9836 -120.696 -132.756 71.7427 -120.112 -132.519 70.8811 
-119.704 -131.764 70.3885 -119.57 -130.706 69.5962 -119.601 -129.692 68.481 
-122.269 -131.686 73.018 -122.53 -131.029 73.1311 -122.172 -132.178 72.4015 
-121.951 -132.432 71.3183 -121.427 -132.26 70.4342 -120.836 -131.606 69.9776 
-120.466 -130.696 69.3756 -120.351 -129.741 68.4005 -120.383 -128.779 67.3283 
-123.212 -130.751 72.4369 -123.622 -130.224 72.6416 -122.976 -131.221 71.8933 
-122.785 -131.607 71.017 -122.438 -131.633 70.186 -121.968 -131.128 69.6232 
-121.542 -130.367 69.0051 -121.243 -129.608 68.1019 -121.091 -128.804 67.0829 
-121.036 -127.919 66.1141 -114.08 -129.88 74.7532 -113.934 -130.547 76.4962 
-114.226 -129.307 75.3298 -114.298 -129.907 77 -114.802 -128.985 75.1533 
-114.198 -131.132 77.8643 -115.076 -129.422 76.4373 -115.82 -129.012 74.2363 
-114.751 -130.291 77.9203 -114.948 -131.457 77.8402 -116.252 -129.178 75.1483 
-117.021 -128.808 73.0996 -115.652 -129.565 76.9129 -115.677 -130.471 77.3186 
-116.221 -131.597 76.6276 -117.554 -128.704 73.7735 -118.109 -128.092 72.0381 
-116.975 -129.092 75.4781 -116.823 -129.708 76.3424 -117.218 -130.609 76.1424 
-117.859 -131.543 75.7 -118.662 -127.905 72.5019 -119.049 -127.183 70.9633 
-118.314 -128.454 74.0533 -118.269 -129.16 75.2214 -118.565 -129.881 75.6952 
-118.968 -130.534 75.5509 -119.454 -131.309 75.1941 -119.615 -127.022 71.2621 
-119.904 -126.165 69.9335 -119.358 -127.627 72.6712 -119.419 -128.36 73.8931 
-119.789 -129.194 74.829 -120.125 -129.723 75.2363 -120.385 -130.251 74.9482 
-120.809 -131.039 74.3688 -120.523 -126.012 70.137 -120.641 -124.996 69.0957 
-120.337 -126.777 71.3196 -120.311 -127.407 72.4398 -120.617 -128.193 73.416 
-120.997 -128.865 74.187 -121.276 -129.29 74.3751 -121.629 -129.89 73.9612 
-122.092 -130.615 73.4829 -121.303 -124.872 69.2006 -121.234 -123.873 68.3809 
-121.313 -125.81 70.1055 -121.291 -126.498 71.0534 -121.442 -127.124 71.9249 
[...]
CELL_DATA 2000
SCALARS Distance double
LOOKUP_TABLE default
172.117 172.195 172.531 173.369 172.402 172.706 173.612 173.938 174.926 
172.716 173.009 174.008 174.307 175.347 175.64 176.684 173.174 173.411 
174.456 174.76 175.821 176.11 177.113 177.393 178.349 173.82 173.972 
174.983 175.231 176.263 176.55 177.513 177.787 178.697 178.977 179.871 
174.509 174.649 175.602 175.784 176.763 176.994 177.97 178.201 179.157 
179.377 180.33 180.544 181.465 175.11 175.277 176.182 176.368 177.308 
177.521 178.517 178.734 179.759 179.95 180.968 181.128 182.092 182.216 
183.083 175.64 175.815 176.688 176.889 177.821 178.055 179.056 179.305 
180.33 180.567 181.561 181.772 182.696 182.857 183.677 183.778 184.491 
176.098 176.297 177.149 177.365 178.295 178.55 179.555 179.828 180.825 
181.078 181.997 182.243 183.087 183.329 184.091 184.277 184.939 185.051 
185.627 171.375 170.229 171.007 171.412 168.961 169.814 170.249 171.068 
171.547 167.681 168.532 169.018 169.881 170.382 171.229 171.79 166.568 
167.327 167.841 168.681 169.242 170.079 170.663 171.527 172.216 165.576 
166.288 166.773 167.567 168.136 168.971 169.579 170.433 171.131 172.049 
172.855 164.61 165.291 165.727 166.497 167.005 167.85 168.425 169.319 
169.993 170.951 171.754 172.739 173.564 163.92 164.417 164.845 165.474 
165.946 166.706 167.255 168.128 168.8 169.771 170.584 171.608 172.474 
173.445 174.223 163.689 163.964 164.404 164.788 165.265 165.794 166.355 
167.055 167.769 168.642 169.517 170.489 171.424 172.385 173.244 174.113 
174.824 163.657 163.864 164.268 164.534 164.994 165.341 165.879 166.364 
167.059 167.763 168.664 169.546 170.536 171.442 172.346 173.187 173.938 
174.707 175.324 163.7 163.817 163.951 164.312 164.056 164.11 164.602 
164.67 165.085 164.853 164.589 165.103 165.061 165.584 165.54 165.987 
166.249 165.685 166.075 165.757 166.251 166.12 166.654 166.566 167.152 
167.928 167.242 167.555 166.952 167.355 166.972 167.566 167.379 168.128 
167.989 168.797 169.778 169.032 169.456 168.665 169.133 168.426 169.085 
168.607 169.472 169.179 170.098 169.854 170.71 171.722 170.99 171.513 
170.726 171.277 170.475 171.122 170.438 171.2 170.712 171.518 171.196 
171.971 171.729 172.458 173.474 172.866 173.3 172.679 173.103 172.487 
172.932 172.367 172.837 172.353 172.832 172.485 173.02 172.827 173.437 
173.31 173.948 174.913 174.411 174.708 174.204 174.455 173.974 174.226 
173.8 174.08 173.682 173.971 173.606 173.968 173.73 174.248 174.149 
174.768 174.695 175.3 176.086 175.586 176.298 177.269 175.087 175.804 
176.911 177.664 178.815 174.811 175.411 176.619 177.401 178.714 179.375 
180.482 174.802 175.279 176.507 177.247 178.61 179.295 180.36 180.885 
181.665 174.888 175.321 176.521 177.231 178.554 179.195 180.075 180.555 
181.121 181.705 182.336 175.014 175.396 176.554 177.247 178.575 179.175 
179.954 180.214 180.552 180.978 181.583 182.358 183.277 175.244 175.55 
176.632 177.253 178.598 179.228 180.138 180.264 180.582 180.609 181.167 
181.715 182.818 183.605 184.719 175.527 175.812 176.807 177.32 178.584 
179.242 180.325 180.591 181.129 180.993 181.521 181.669 182.72 183.322 
184.529 185.14 186.027 175.764 176.081 177.024 177.465 178.596 179.202 
180.321 180.787 181.572 181.648 182.246 182.255 183.092 183.409 184.434 
184.954 185.806 186.268 186.846 176.593 177.82 177.355 177.713 179.334 
178.733 179.123 178.569 178.934 180.917 180.328 180.705 180.101 180.508 
179.896 180.263 182.129 181.784 182.147 181.657 182.054 181.509 181.88 
181.246 181.535 182.987 182.819 183.256 182.929 183.314 182.929 183.299 
182.796 183.057 182.431 182.639 184.037 183.769 184.333 183.989 184.42 
184.072 184.484 184.097 184.413 183.877 184.076 183.465 183.666 185.365 
185.011 185.608 185.198 185.689 185.255 185.701 185.278 185.661 185.184 
185.443 184.871 185.06 184.466 184.648 186.497 186.257 186.758 186.464 
186.95 186.585 187.021 186.571 186.912 186.425 186.684 186.179 186.368 
185.821 185.962 185.384 185.488 187.245 187.137 187.542 187.403 187.831 
187.672 188.092 187.807 188.092 187.648 187.821 187.344 187.498 187.028 
187.147 186.629 186.69 186.128 186.154 187.737 188.651 188.128 188.04 
189.593 189.054 188.893 188.402 188.332 190.352 189.922 189.735 189.244 
189.144 188.723 188.641 191.001 190.648 190.539 190.056 189.932 189.51 
189.413 188.964 188.701 191.717 191.391 191.39 190.892 190.774 190.296 
190.167 189.705 189.429 188.873 188.438 192.382 192.168 192.241 191.79 
191.659 191.14 190.957 190.461 190.171 189.601 189.158 188.551 188.089 
192.754 192.728 192.851 192.578 192.44 191.972 191.698 191.201 190.851 
190.317 189.846 189.258 188.746 188.184 187.713 192.804 192.904 192.999 
192.972 192.842 192.584 192.246 191.828 191.378 190.898 190.371 189.853 
189.285 188.766 188.225 187.733 187.229 192.711 192.801 192.784 192.882 
192.725 192.713 192.374 192.165 191.665 191.296 190.716 190.271 189.675 
189.208 188.635 188.171 187.632 187.181 186.669 187.626 187.668 187.983 
188.618 187.656 188.019 188.774 189.057 189.629 187.738 188.003 188.664 
189.072 189.672 189.945 190.338 187.895 188.077 188.526 188.848 189.328 
189.743 190.163 190.484 190.853 187.856 188.122 188.488 188.709 189.106 
189.402 189.854 190.2 190.673 191.003 191.479 187.526 187.916 188.3 
188.606 189.047 189.325 189.86 190.094 190.617 190.85 191.344 191.643 
192.095 187.05 187.503 187.884 188.291 188.731 189.181 189.756 190.157 
190.671 190.897 191.261 191.475 191.817 192.14 192.452 186.493 186.997 
187.4 187.834 188.217 188.707 189.195 189.794 190.276 190.753 191.027 
191.309 191.496 191.791 192.043 192.382 192.583 185.875 186.414 186.865 
187.346 187.733 188.169 188.558 189.094 189.522 190.106 190.424 190.869 
191.057 191.403 191.632 191.977 192.236 192.503 192.634 176.154 177.285 
176.962 177.516 178.601 178.236 178.864 178.467 179.107 179.963 179.623 
180.269 179.874 180.486 180.116 180.725 181.222 180.95 181.559 181.218 
181.754 181.416 181.934 181.612 181.994 182.346 182.126 182.681 182.387 
182.855 182.563 183.056 182.765 183.188 182.738 182.915 183.33 183.17 
183.703 183.435 183.874 183.588 184.088 183.848 184.348 183.979 184.289 
183.674 183.842 184.126 184.057 184.619 184.427 184.91 184.626 185.141 
184.889 185.403 185.103 185.433 184.988 185.191 184.659 184.935 184.764 
184.763 185.367 185.293 185.852 185.662 186.2 185.963 186.456 186.148 
186.443 186.028 186.184 185.791 186.028 185.702 186.055 185.344 185.361 
185.971 185.978 186.552 186.5 187.021 186.911 187.355 187.138 187.411 
187.025 187.17 186.744 186.966 186.642 186.982 186.719 187.048 175.517 
174.775 175.621 176.581 173.895 174.857 175.892 176.77 177.838 172.814 
173.939 175.088 176.08 177.21 178.09 179.193 171.519 172.767 174.072 
175.269 176.546 177.494 178.631 179.449 180.492 170.355 171.478 172.871 
174.217 175.713 176.845 178.081 178.918 179.961 180.717 181.667 169.724 
170.527 171.864 173.085 174.666 175.948 177.32 178.321 179.389 180.191 
181.144 181.864 182.704 169.567 170.122 171.335 172.276 173.757 174.927 
176.315 177.426 178.567 179.529 180.528 181.341 182.213 182.856 183.552 
169.591 170.03 171.115 171.866 173.224 174.175 175.497 176.466 177.626 
178.615 179.716 180.667 181.639 182.372 183.106 183.643 184.218 169.687 
170.037 170.987 171.626 172.875 173.722 175.011 175.835 176.967 177.788 
178.892 179.83 180.907 181.766 182.602 183.209 183.811 184.283 184.811 
170.026 170.986 170.72 171.331 172.085 171.8 172.511 172.308 173.213 
173.286 172.996 173.785 173.584 174.556 174.388 175.339 174.612 174.305 
175.139 174.909 175.881 175.728 176.676 176.455 177.26 176.026 175.726 
176.594 176.314 177.237 177.034 177.963 177.757 178.591 178.315 179.125 
177.477 177.18 178.08 177.794 178.7 178.423 179.322 179.064 179.932 
179.665 180.51 180.246 181.09 178.99 178.658 179.552 179.272 180.204 
179.918 180.823 180.504 181.354 181.04 181.848 181.585 182.343 182.112 
182.765 180.501 180.169 181.016 180.733 181.653 181.404 182.31 182.016 
182.814 182.472 183.17 182.86 183.497 183.243 183.792 183.545 183.984 
181.878 181.609 182.406 182.147 182.994 182.783 183.625 183.401 184.117 
183.825 184.403 184.091 184.613 184.329 184.816 184.533 184.951 184.648 
185.003 182.873 184.636 183.631 183.433 186.411 185.403 185.154 184.19 
184.01 187.875 187.034 186.722 185.849 185.631 184.756 184.582 188.954 
188.3 188.016 187.278 187.039 186.264 186.04 185.232 184.991 189.964 
189.346 189.183 188.506 188.334 187.604 187.377 186.587 186.302 185.513 
185.218 191.08 190.46 190.343 189.685 189.552 188.879 188.683 187.911 
187.615 186.795 186.484 185.695 185.402 192.008 191.536 191.338 190.766 
190.523 189.968 189.717 189.106 188.781 188.061 187.716 186.958 186.646 
185.879 185.577 192.473 192.226 191.961 191.545 191.184 190.734 190.395 
189.933 189.575 189.033 188.65 188.052 187.709 187.06 186.723 186.006 
185.663 192.61 192.491 192.247 191.964 191.607 191.242 190.922 190.524 
190.214 189.726 189.352 188.818 188.452 187.941 187.61 187.041 186.682 
186.02 185.663 182.801 183.196 183.575 184.653 183.5 184.04 185.356 
185.59 186.58 183.651 184.344 185.823 186.294 187.423 187.475 188.146 
183.612 184.389 185.804 186.545 187.701 188.107 188.792 188.779 189.161 
183.439 184.211 185.443 186.259 187.302 188.003 188.717 189.099 189.546 
189.621 190.032 183.222 183.948 185.086 185.81 186.776 187.453 188.218 
188.781 189.412 189.795 190.386 190.548 191.101 183.017 183.688 184.795 
185.467 186.461 187.047 187.895 188.39 189.175 189.635 190.408 190.777 
191.448 191.61 192.061 182.819 183.441 184.461 185.143 186.133 186.779 
187.683 188.214 189.046 189.512 190.307 190.744 191.418 191.752 192.192 
192.34 192.533 182.567 183.163 184.058 184.733 185.647 186.365 187.251 
187.925 188.739 189.33 190.058 190.569 191.148 191.56 191.932 192.231 
192.423 192.578 192.637 181.744 180.078 181.27 181.947 178.179 179.444 
180.025 181.336 182.045 176.223 177.477 178.043 179.325 179.95 181.358 
182.12 174.405 175.562 176.149 177.376 177.979 179.27 179.97 181.412 
182.166 172.788 173.811 174.36 175.541 176.134 177.345 177.944 179.278 
179.981 181.426 182.1 171.406 172.26 172.723 173.801 174.392 175.544 
176.095 177.284 177.866 179.229 179.908 181.334 181.948 170.273 170.972 
171.365 172.262 172.875 173.928 174.588 175.602 176.168 177.243 177.869 
179.172 179.877 181.227 181.831 169.285 169.913 170.264 171.016 171.612 
172.574 173.373 174.334 175.023 175.843 176.406 177.357 178.027 179.245 
179.965 181.201 181.764 168.345 168.952 169.286 169.97 170.497 171.387 
172.176 173.201 173.991 174.853 175.4 176.134 176.645 177.587 178.253 
179.413 180.066 181.181 181.639 167.924 167.712 168.16 168.914 167.751 
168.085 168.907 169.287 170.187 168.062 168.29 169.141 169.423 170.399 
170.782 171.882 168.597 168.754 169.639 169.799 170.75 171.068 172.187 
172.618 173.703 169.24 169.386 170.331 170.427 171.355 171.518 172.542 
172.893 173.93 174.31 175.145 169.848 170.009 170.933 171.109 172.037 
172.186 173.131 173.323 174.264 174.521 175.371 175.617 176.382 170.44 
170.554 171.367 171.585 172.456 172.731 173.645 173.895 174.782 174.959 
175.794 175.95 176.804 176.991 177.92 171.097 171.136 171.886 172.004 
172.812 173.046 173.932 174.256 175.158 175.435 176.272 176.455 177.297 
177.491 178.429 178.671 179.657 171.765 171.791 172.538 172.593 173.398 
173.499 174.362 174.561 175.472 175.745 176.623 176.874 177.698 177.938 
178.796 179.093 179.999 180.32 181.187 172.36 173.637 173.043 173.196 
175.191 174.472 174.666 173.984 174.132 176.932 176.153 176.361 175.593 
175.764 174.985 175.115 178.62 177.913 178.13 177.356 177.533 176.709 
176.823 176.009 176.166 180.164 179.541 179.805 179.1 179.293 178.498 
178.621 177.769 177.872 177.083 177.267 181.711 181.082 181.387 180.732 
180.979 180.244 180.415 179.587 179.689 178.826 178.933 178.163 178.343 
183.275 182.654 182.956 182.317 182.598 181.913 182.142 181.379 181.524 
180.663 180.741 179.874 179.998 179.238 179.45 184.677 184.156 184.451 
183.872 184.149 183.513 183.749 183.062 183.244 182.469 182.567 181.7 
181.78 180.946 181.126 180.391 180.642 185.821 185.431 185.737 185.278 
185.558 185.008 185.227 184.604 184.779 184.106 184.238 183.474 183.559 
182.732 182.853 182.081 182.289 181.586 181.81 182.652 183.175 183.313 
184.123 183.766 183.879 184.748 184.853 185.701 184.447 184.534 185.415 
185.516 186.395 186.476 187.308 185.073 185.196 186.049 186.18 187.043 
187.156 187.996 188.066 188.825 185.592 185.752 186.578 186.75 187.581 
187.742 188.546 188.686 189.446 189.514 190.157 186.043 186.233 187.045 
187.229 188.031 188.211 188.971 189.145 189.846 190.007 190.619 190.701 
191.18 186.346 186.612 187.388 187.631 188.387 188.603 189.323 189.511 
190.17 190.33 190.889 191.016 191.454 191.537 191.877 186.46 186.789 
187.5 187.833 188.526 188.837 189.516 189.786 190.441 190.637 191.206 
191.298 191.729 191.759 192.08 192.115 192.362 186.473 186.805 187.452 
187.817 188.46 188.836 189.478 189.848 190.49 190.813 191.408 191.605 
192.07 192.103 192.418 192.365 192.574 192.535 192.655 163.275 163.244 
163.036 162.573 163.462 163.06 162.565 162.286 161.847 164.171 163.52 
163.027 162.474 162.046 161.698 161.505 165.155 164.431 163.976 163.223 
162.805 162.18 162.004 161.676 161.865 166.161 165.461 165.069 164.308 
163.912 163.162 162.957 162.422 162.584 162.354 162.828 167.305 166.545 
166.231 165.455 165.125 164.343 164.128 163.491 163.578 163.204 163.591 
163.445 163.983 168.64 167.836 167.614 166.768 166.547 165.679 165.526 
164.756 164.82 164.278 164.583 164.269 164.711 164.57 165.07 169.967 
169.233 169.093 168.279 168.168 167.281 167.229 166.341 166.429 165.678 
165.944 165.391 165.766 165.399 165.838 165.649 166.147 171.155 170.525 
170.441 169.745 169.705 168.943 168.973 168.146 168.252 167.423 167.623 
166.895 167.177 166.6 166.946 166.551 166.982 166.767 167.261 163.148 
162.486 162.822 162.798 161.765 162.116 162.185 162.531 162.659 161.44 
161.551 161.706 161.99 162.267 162.59 162.945 161.839 161.585 161.813 
161.823 162.27 162.431 162.953 163.145 163.631 162.844 162.343 162.583 
162.306 162.823 162.776 163.433 163.45 164.044 164.034 164.537 164.034 
163.511 163.738 163.311 163.762 163.55 164.18 164.109 164.719 164.637 
165.154 165.065 165.594 165.125 164.675 164.906 164.491 164.865 164.563 
165.071 164.898 165.414 165.305 165.777 165.709 166.215 166.19 166.759 
166.177 165.735 165.949 165.57 165.893 165.602 166.029 165.8 166.228 
166.015 166.423 166.294 166.785 166.774 167.343 167.353 167.903 167.278 
166.813 167 166.58 166.841 166.533 166.918 166.704 167.131 166.885 
167.273 167.024 167.485 167.375 167.959 167.938 168.508 168.462 168.952 
163.389 163.026 163.29 163.467 162.942 163.042 163.223 163.384 163.679 
163.265 163.194 163.482 163.412 163.754 163.861 164.502 163.844 163.677 
164.05 163.926 164.356 164.255 164.896 165.037 165.952 164.597 164.306 
164.638 164.548 165.052 164.984 165.601 165.615 166.451 166.648 167.631 
165.63 165.16 165.42 165.188 165.707 165.661 166.331 166.34 167.13 
167.227 168.167 168.374 169.417 166.841 166.308 166.532 166.114 166.55 
166.374 167.054 167.057 167.9 167.964 168.916 169.023 170.071 170.259 
171.352 167.982 167.515 167.719 167.27 167.584 167.282 167.831 167.778 
168.608 168.727 169.731 169.857 170.911 171.019 172.073 172.218 173.196 
169.014 168.604 168.831 168.414 168.711 168.331 168.79 168.592 169.354 
169.423 170.465 170.655 171.756 171.887 172.902 172.98 173.891 173.962 
174.741 181.204 179.808 180.241 179.59 178.235 178.72 178.043 178.481 
177.704 176.662 177.087 176.378 176.849 176.107 176.524 175.745 175.214 
175.554 174.861 175.26 174.633 175.007 174.334 174.655 173.976 173.862 
174.165 173.519 173.875 173.375 173.733 173.22 173.446 172.822 173.031 
172.437 172.617 172.887 172.266 172.595 172.105 172.53 172.086 172.419 
171.816 171.993 171.343 171.579 171.076 171.493 171.735 171.126 171.386 
170.815 171.205 170.707 171.163 170.568 170.888 170.187 170.465 169.907 
170.282 169.913 170.46 170.681 170.089 170.291 169.655 169.918 169.343 
169.742 169.197 169.567 168.934 169.233 168.666 169.061 168.695 169.171 
168.903 169.557 169.724 169.165 169.309 168.672 168.817 168.214 168.477 
167.998 168.319 167.84 168.085 167.59 167.872 167.507 167.935 167.69 
168.181 167.956 
POINT_DATA 1002
SCALARS Distance double
LOOKUP_TABLE default
172.867 171.738 171.746 172.982 171.858 174.259 173.281 172.07 174.574 
175.947 173.679 172.401 175.067 176.403 177.704 174.156 172.967 175.537 
176.863 178.076 179.268 174.795 173.699 176.003 177.252 178.426 179.592 
180.76 175.456 174.375 176.559 177.731 178.931 180.118 181.285 182.356 
176.002 174.956 177.092 178.278 179.545 180.806 181.984 183.012 183.884 
176.489 175.478 177.577 178.798 180.097 181.352 182.529 183.579 184.442 
185.151 176.927 175.893 178.033 179.278 180.594 181.789 182.853 183.882 
184.814 185.564 186.168 170.643 170.634 169.412 169.4 168.073 170.716 
168.126 166.846 169.531 170.901 167.012 165.848 168.389 169.808 171.281 
166.007 164.874 167.304 168.72 170.211 171.902 164.994 163.964 166.184 
167.53 169.027 170.742 172.619 164.296 163.502 165.248 166.409 167.83 
169.547 171.464 173.342 164.096 163.473 164.823 165.728 166.93 168.551 
170.457 172.351 174.042 164.026 163.476 164.686 165.475 166.438 167.811 
169.633 171.518 173.17 174.603 163.601 164.228 163.624 164.482 164.065 
165.098 165.223 165.276 165.606 166.051 166.56 166.914 166.444 166.704 
167.21 168.253 168.619 167.853 167.77 168.225 168.95 170.226 170.491 
169.891 169.657 169.827 170.365 170.982 172.253 172.423 172.061 171.879 
171.831 171.947 172.245 172.689 173.923 174.078 173.726 173.526 173.398 
173.289 173.269 173.551 174.075 175.237 175.428 174.969 174.675 174.482 
174.365 174.265 174.374 174.824 175.408 176.96 176.527 178.324 176.065 
178.144 179.983 175.796 177.999 180.003 181.466 175.779 177.95 179.889 
181.193 182.342 175.822 177.968 179.755 180.591 181.584 183.087 175.889 
177.954 179.814 180.306 180.762 182.405 184.34 176.091 177.921 179.926 
180.683 180.762 181.979 184.07 185.75 176.379 177.953 179.885 181.173 
181.537 182.267 183.917 185.604 186.73 176.631 178.065 179.774 181.31 
182.241 182.965 184.046 185.344 186.474 187.335 178.18 179.698 179.495 
181.307 181.114 180.92 182.583 182.557 182.498 182.227 183.536 183.652 
183.736 183.669 183.281 184.686 184.781 184.83 184.89 184.684 184.267 
186.01 186.132 186.158 186.118 185.981 185.667 185.252 187.014 187.254 
187.468 187.441 187.182 186.893 186.549 186.09 187.671 187.945 188.297 
188.513 188.325 187.962 187.645 187.252 186.733 188.209 188.508 189.241 
189.416 190.123 188.759 190.232 190.705 189.562 189.116 191.011 191.293 
190.381 189.858 189.267 191.874 191.99 191.291 190.655 189.993 189.03 
192.645 192.515 192.211 191.481 190.741 189.783 188.666 193.029 192.721 
192.884 192.232 191.386 190.43 189.328 188.247 192.966 192.728 193.008 
192.641 191.869 190.881 189.805 188.726 187.705 192.712 192.695 192.677 
192.495 191.989 191.142 190.128 189.095 188.087 187.107 187.338 188.408 
187.262 188.391 187.321 189.525 188.302 187.599 189.303 190.189 188.338 
187.756 188.943 189.741 190.564 188.278 187.539 188.855 189.526 190.302 
191.158 187.936 187.107 188.691 189.6 190.459 191.095 191.784 187.47 
186.578 188.252 189.256 190.416 191.142 191.549 192.124 186.948 185.957 
187.786 188.618 189.714 190.704 191.238 191.706 192.304 186.341 185.329 
187.309 188.109 188.953 189.904 190.668 191.269 191.926 192.481 176.406 
177.854 177.6 179.259 178.948 179.484 180.667 180.279 180.885 181.095 
181.907 181.485 182.109 182.276 182.438 182.991 182.566 183.153 183.31 
183.589 183.541 183.956 183.472 184.167 184.309 184.651 184.811 184.518 
184.746 184.165 185.161 185.407 185.712 185.852 185.641 185.418 185.382 
184.749 185.977 186.422 186.776 186.886 186.597 186.319 186.351 174.721 
175.742 173.864 174.967 172.856 176.972 173.994 171.595 176.306 178.357 
172.716 170.25 175.51 177.824 179.717 171.472 169.345 174.428 177.203 
179.219 180.952 170.766 169.064 173.357 176.216 178.545 180.406 182.078 
170.537 169.103 172.706 175.211 177.52 179.639 181.543 183.022 170.452 
169.22 172.357 174.611 176.67 178.69 180.823 182.556 183.745 170.439 