# vtk DataFile Version 4.0
vtk output
ASCII
DATASET POLYDATA
POINTS 1002 float
-119.701 -112.472 49.958 -119.482 -111.814 48.6632 -118.916 -111.903 49.0753 
-119.126 -112.633 50.4691 -118.353 -112.004 49.6115 -119.838 -113.359 51.2967 
-118.546 -112.873 51.0658 -117.837 -112.171 50.3166 -119.269 -113.707 51.8265 
-119.82 -114.665 52.5187 -118.014 -113.215 51.8459 -117.342 -112.512 51.0896 
-118.685 -114.162 52.4815 -119.233 -115.217 53.1008 -119.719 -116.114 53.8862 
-117.525 -113.72 52.6654 -116.846 -113.043 51.8142 -118.124 -114.655 53.3652 
-118.638 -115.744 53.9531 -119.083 -116.693 54.7245 -119.608 -117.363 55.6932 
-117.022 -114.356 53.4247 -116.378 -113.601 52.6497 -117.562 -115.264 54.2356 
-118.062 -116.197 55.0326 -118.476 -117.171 55.8228 -118.917 -117.99 56.7164 
-119.402 -118.669 57.5673 -116.468 -115.003 54.3236 -115.92 -114.192 53.6225 
-116.924 -115.993 55.0798 -117.431 -116.81 56.0432 -117.87 -117.675 56.9635 
-118.24 -118.696 57.7275 -118.664 -119.552 58.448 -119.059 -120.298 59.0572 
-115.879 -115.757 55.2729 -115.429 -115.038 54.4664 -116.226 -116.722 56.0641 
-116.683 -117.594 57.014 -117.155 -118.417 57.9581 -117.487 -119.52 58.632 
-117.862 -120.564 59.2176 -118.296 -121.308 59.8101 -118.656 -121.984 60.2808 
-115.294 -116.725 56.0196 -114.928 -116.104 55.1529 -115.558 -117.491 56.9559 
-115.916 -118.364 57.9388 -116.369 -119.277 58.8275 -116.68 -120.394 59.4405 
-116.976 -121.507 59.9626 -117.433 -122.265 60.5739 -117.877 -122.839 61.0978 
-118.226 -123.432 61.4266 -114.733 -117.721 56.6482 -114.449 -117.091 55.8666 
-114.955 -118.337 57.6154 -115.232 -119.101 58.6526 -115.631 -120.062 59.5516 
-115.95 -121.183 60.183 -116.172 -122.255 60.7172 -116.548 -123.02 61.3517 
-117.037 -123.553 61.9405 -117.44 -124.075 62.2973 -117.778 -124.58 62.4835 
-118.9 -111.124 47.7334 -118.323 -111.165 48.1642 -118.273 -110.166 47.0127 
-117.741 -110.165 47.5255 -117.552 -109.062 46.5144 -117.805 -111.227 48.8001 
-117.035 -109.094 47.0299 -116.82 -107.941 46.0207 -117.228 -110.256 48.2184 
-117.253 -111.432 49.5462 -116.24 -108.071 46.4631 -116.279 -106.669 45.5728 
-116.418 -109.273 47.6499 -116.496 -110.594 48.8657 -116.587 -111.913 50.2121 
-115.588 -106.961 46.1295 -115.825 -105.379 45.4662 -115.562 -108.345 47.0815 
-115.61 -109.672 48.2587 -115.655 -111.235 49.4281 -115.966 -112.543 50.9374 
-115.071 -105.886 46.2672 -115.284 -104.519 45.6581 -114.905 -107.384 46.8999 
-114.915 -108.708 47.886 -114.923 -110.278 48.977 -115.069 -111.917 50.2444 
-115.523 -113.099 51.9308 -114.585 -105.093 46.5762 -114.767 -104.06 45.9769 
-114.317 -106.462 47.0699 -114.257 -107.827 47.7749 -114.409 -109.21 48.8024 
-114.517 -110.864 49.9197 -114.731 -112.429 51.2944 -115.139 -113.724 52.9352 
-114.099 -104.491 46.9429 -114.287 -103.619 46.5035 -113.746 -105.658 47.3411 
-113.469 -107.064 47.7724 -113.627 -108.419 48.595 -114 -109.741 49.7255 
-114.227 -111.278 50.9239 -114.442 -112.972 52.2965 -114.74 -114.623 53.7838 
-113.541 -103.935 47.5191 -113.733 -103.11 47.2869 -113.249 -104.96 47.7811 
-112.872 -106.316 48.0055 -112.782 -107.828 48.5022 -113.197 -109.054 49.5063 
-113.738 -110.157 50.7287 -114.046 -111.743 51.9724 -114.219 -113.758 53.3104 
-114.376 -115.642 54.6527 -112.962 -103.152 48.3124 -112.805 -104.108 48.4513 
-112.325 -103.429 49.38 -112.399 -104.526 49.4768 -112.148 -104.054 50.4862 
-112.625 -105.327 48.6 -112.457 -105.387 50.79 -112.29 -105.17 51.9096 
-112.465 -106.013 49.7876 -112.4 -106.971 48.8847 -112.526 -106.733 52.6516 
-112.421 -106.577 53.8316 -112.531 -107.124 51.6061 -112.362 -107.855 50.4864 
-112.5 -108.563 49.6488 -112.562 -108.006 54.6552 -112.694 -107.684 55.6947 
-112.51 -108.352 53.677 -112.509 -108.788 52.6053 -112.664 -109.237 51.4749 
-113.141 -109.587 50.8299 -113.157 -108.951 55.9791 -113.443 -108.655 56.7538 
-112.945 -109.332 55.158 -112.985 -109.657 54.2993 -113.265 -109.962 53.321 
-113.58 -110.269 52.5131 -113.822 -110.821 52.1012 -114.277 -110.307 56.6103 
-114.544 -110.212 57.1105 -114.018 -110.569 56.0304 -113.951 -110.856 55.3962 
-114.142 -111.184 54.6967 -114.301 -111.582 54.0996 -114.212 -112.128 53.7222 
-114.085 -112.941 53.4452 -115.235 -112.272 57.2049 -115.515 -112.201 57.4461 
-114.933 -112.457 56.9227 -114.722 -112.702 56.5721 -114.671 -113.023 56.101 
-114.621 -113.458 55.6293 -114.389 -113.971 55.3474 -114.102 -114.605 55.1118 
-114.069 -115.261 54.8117 -115.648 -114.12 58.1011 -116.012 -113.92 58.1469 
-115.236 -114.382 58.0317 -114.864 -114.677 57.9242 -114.573 -114.969 57.7045 
-114.285 -115.288 57.318 -113.96 -115.66 56.9379 -113.713 -116.124 56.6708 
-113.712 -116.66 56.3643 -114 -117.041 56.0311 -114.076 -118.345 57.1308 
-113.53 -118.259 57.3973 -113.554 -119.56 58.5916 -113.097 -117.838 57.7418 
-112.92 -119.425 58.8533 -113.011 -120.91 60.2307 -112.996 -117.337 58.0953 
-112.468 -118.96 59.1557 -112.406 -120.794 60.4504 -112.573 -122.296 61.8886 
-113.308 -117.019 58.5449 -112.505 -118.496 59.6224 -112.115 -120.323 60.807 
-112.064 -122.154 62.1738 -112.251 -123.447 63.5117 -113.834 -116.853 58.9756 
-113.048 -118.341 60.1556 -112.34 -119.887 61.4076 -111.827 -121.628 62.748 
-111.814 -123.213 64.0631 -112.003 -124.585 65.3973 -114.322 -116.626 59.1697 
-113.721 -118.307 60.3984 -112.96 -119.784 61.8421 -111.953 -121.157 63.4426 
-111.515 -122.623 64.8372 -111.685 -124.303 66.1732 -111.664 -125.93 67.4704 
-114.771 -116.244 59.2259 -114.254 -118.019 60.4218 -113.655 -119.698 61.8663 
-112.503 -120.987 63.7366 -111.537 -122.108 65.4358 -111.498 -123.704 66.8135 
-111.52 -125.563 68.1123 -111.005 -127.061 69.0929 -115.273 -115.817 59.2633 
-114.725 -117.513 60.4857 -114.25 -119.335 61.7895 -113.348 -120.851 63.582 
-112.146 -121.864 65.5236 -111.649 -123.158 67.0895 -111.59 -124.952 68.4314 
-111.027 -126.535 69.5259 -110.126 -127.606 70.1348 -115.776 -115.446 59.2442 
-115.224 -117.02 60.5323 -114.749 -118.848 61.7663 -114.157 -120.587 63.2805 
-113.144 -121.735 65.18 -112.301 -122.8 66.9573 -111.939 -124.362 68.4564 
-111.362 -125.915 69.7494 -110.331 -126.963 70.6264 -109.431 -127.717 71.0353 
-114.294 -119.043 58.0264 -113.787 -120.436 59.6731 -114.535 -119.758 59.1149 
-113.3 -121.928 61.4546 -114.113 -121.338 60.8112 -114.893 -120.702 60.1464 
-112.866 -123.257 63.1231 -113.666 -122.864 62.5788 -114.502 -122.421 61.7799 
-115.262 -121.864 60.938 -112.474 -124.505 64.8363 -113.189 -124.167 64.3035 
-114.022 -123.843 63.601 -114.807 -123.476 62.6306 -115.497 -122.932 61.6048 
-112.004 -126.027 66.866 -112.685 -125.657 66.1492 -113.524 -125.138 65.4304 
-114.316 -124.711 64.5417 -115.059 -124.269 63.4167 -115.793 -123.702 62.3044 
-111.212 -127.464 68.6796 -111.946 -127.349 67.9774 -112.946 -126.752 67.1369 
-113.814 -126.085 66.2335 -114.595 -125.553 65.1547 -115.428 -124.983 63.9861 
-116.259 -124.295 62.9125 -110.172 -128.254 69.8048 -110.885 -128.577 69.2814 
-112.061 -128.314 68.5362 -113.157 -127.655 67.6278 -114.043 -127.013 66.5809 
-114.956 -126.396 65.4196 -115.885 -125.646 64.2953 -116.713 -124.84 63.269 
-109.352 -128.48 70.6507 -109.925 -129.131 70.2013 -111.062 -129.308 69.6192 
-112.314 -128.931 68.8149 -113.396 -128.309 67.8445 -114.427 -127.653 66.7588 
-115.449 -126.895 65.6024 -116.336 -126.068 64.484 -117.092 -125.299 63.4448 
-109.061 -128.223 71.8352 -109.338 -129.149 71.385 -109.527 -128.923 72.7123 
-110.148 -129.856 72.2839 -110.632 -129.558 73.2078 -110.244 -129.775 70.8747 
-111.409 -130.242 72.7233 -111.913 -129.72 72.974 -111.201 -130.241 71.6108 
-111.497 -129.796 70.1148 -112.735 -130.121 72.4409 -113.376 -129.46 72.55 
-112.49 -130.361 71.8095 -112.436 -130.072 70.4862 -112.764 -129.33 69.091 
-114.262 -129.683 72.0142 -115.254 -129.118 72.3767 -113.854 -130.119 71.4513 
-113.74 -130.156 70.4097 -113.757 -129.55 69.2053 -114.011 -128.631 68.0109 
-116.16 -129.257 71.5804 -117.227 -128.902 71.994 -115.433 -129.601 70.945 
-115.173 -129.918 70.0092 -115.111 -129.626 69.0105 -115.116 -128.691 68.0583 
-115.223 -127.772 66.8673 -118.022 -129.039 70.8724 -118.765 -128.721 71.1982 
-117.264 -129.144 70.3313 -116.755 -129.332 69.5348 -116.526 -129.354 68.631 
-116.397 -128.646 67.8389 -116.268 -127.648 66.8695 -116.223 -126.876 65.6199 
-119.457 -128.774 70.0812 -119.902 -128.324 70.3813 -118.906 -128.862 69.6636 
-118.327 -128.758 69.0836 -117.891 -128.702 68.3123 -117.618 -128.353 67.5115 
-117.368 -127.541 66.6545 -117.124 -126.762 65.5438 -117.021 -126.105 64.3845 
-120.596 -128.217 69.4292 -120.943 -127.72 69.7585 -120.176 -128.442 69.0491 
-119.62 -128.304 68.61 -119.072 -128.025 68.0157 -118.699 -127.754 67.239 
-118.426 -127.29 66.3496 -118.131 -126.662 65.3269 -117.872 -126.073 64.228 
-117.758 -125.417 63.2602 -109.545 -127.232 71.8801 -109.394 -127.65 72.8489 
-110.142 -126.722 72.5366 -110.307 -127.017 73.3946 -111.246 -126.278 72.4263 
-110.119 -128.275 73.5105 -111.72 -126.529 73.0229 -112.647 -125.954 71.5243 
-111.257 -127.44 73.6974 -111.359 -128.733 73.4534 -113.273 -126.289 72.0144 
-113.979 -125.546 70.5021 -112.789 -126.799 73.2793 -112.635 -127.653 73.4502 
-112.817 -128.733 72.9739 -114.641 -125.883 70.919 -115.143 -124.72 69.7421 
-114.283 -126.476 72.3831 -114.193 -126.87 73.2355 -114.312 -127.63 73.161 
-114.678 -128.549 72.7951 -115.915 -124.911 69.9247 -116.275 -123.585 69.0337 
-115.584 -125.911 71.1292 -115.546 -126.396 72.3309 -115.818 -126.884 72.9282 
-116.277 -127.676 72.9671 -116.774 -128.444 72.6622 -117.16 -123.701 69.0064 
-117.323 -122.578 68.164 -116.881 -124.837 69.9224 -116.748 -125.641 70.9917 
-116.973 -126.25 71.8746 -117.483 -126.967 72.3621 -118.043 -127.717 72.4285 
-118.449 -128.326 72.0012 -118.156 -122.7 68.0649 -118.137 -121.83 67.1335 
-118.055 -123.686 68.9399 -117.945 -124.57 69.8642 -118.051 -125.317 70.7136 
-118.397 -126.088 71.3224 -118.869 -126.841 71.6401 -119.295 -127.474 71.5698 
-119.604 -127.987 71.0867 -118.84 -121.899 67.0348 -118.748 -121.161 66.0622 
-118.891 -122.729 67.9576 -118.919 -123.564 68.8464 -119.053 -124.315 69.6631 
[...]
CELL_DATA 2000
SCALARS Distance double
LOOKUP_TABLE default
169.969 169.791 170.239 170.988 169.697 170.112 170.915 171.342 172.152 
169.752 170.106 170.955 171.349 172.227 172.602 173.443 169.949 170.257 
171.139 171.483 172.398 172.747 173.627 173.948 174.775 170.232 170.52 
171.423 171.733 172.648 172.969 173.862 174.171 175.022 175.306 176.118 
170.574 170.839 171.746 172.042 172.954 173.25 174.145 174.436 175.32 
175.598 176.453 176.689 177.489 171.005 171.215 172.106 172.372 173.285 
173.571 174.474 174.751 175.65 175.928 176.819 177.066 177.893 178.08 
178.826 171.538 171.685 172.529 172.741 173.621 173.9 174.807 175.094 
175.989 176.268 177.146 177.419 178.242 178.469 179.195 179.366 180.011 
172.098 172.219 172.994 173.158 173.968 174.22 175.103 175.411 176.305 
176.596 177.438 177.71 178.491 178.751 179.451 179.669 180.277 180.448 
180.979 169.276 168.092 168.816 169.061 166.798 167.592 167.884 168.628 
168.944 165.435 166.276 166.622 167.435 167.793 168.557 168.957 164.067 
164.907 165.256 166.13 166.508 167.357 167.767 168.602 169.089 162.8 
163.574 163.912 164.753 165.127 166.008 166.435 167.344 167.856 168.766 
169.337 161.767 162.411 162.764 163.491 163.882 164.677 165.136 166.013 
166.579 167.513 168.146 169.06 169.69 161.025 161.518 161.844 162.447 
162.824 163.532 164.001 164.81 165.393 166.285 166.948 167.875 168.566 
169.466 170.14 160.467 160.861 161.097 161.587 161.87 162.504 162.92 
163.709 164.263 165.137 165.764 166.683 167.375 168.331 169.079 169.988 
170.706 159.951 160.3 160.469 160.872 161.085 161.593 161.957 162.651 
163.197 164.02 164.642 165.511 166.192 167.137 167.932 168.919 169.748 
170.626 171.337 159.716 159.621 159.828 160.232 159.947 159.904 160.304 
160.426 160.876 160.914 160.546 160.971 160.773 161.245 161.227 161.8 
162.383 161.809 162.256 161.786 162.27 161.927 162.481 162.371 163.075 
163.937 163.358 163.748 163.22 163.66 163.18 163.661 163.303 163.898 
163.779 164.523 165.434 164.858 165.215 164.683 165.101 164.607 165.093 
164.627 165.187 164.815 165.493 165.32 166.12 167.181 166.466 166.931 
166.256 166.787 166.164 166.79 166.214 166.914 166.352 167.086 166.599 
167.402 167.096 167.965 169.211 168.424 168.982 168.204 168.825 168.083 
168.778 168.107 168.857 168.239 168.981 168.389 169.124 168.624 169.407 
169.052 169.85 171.068 170.426 170.908 170.25 170.778 170.129 170.692 
170.08 170.638 170.085 170.605 170.119 170.626 170.223 170.786 170.47 
171.094 170.828 171.437 172.249 171.933 172.478 173.234 171.581 172.104 
172.834 173.419 174.229 171.377 171.768 172.417 172.96 173.79 174.474 
175.405 171.434 171.698 172.323 172.65 173.447 174.045 175.038 175.713 
176.648 171.627 171.902 172.639 172.795 173.564 173.89 174.824 175.374 
176.357 176.956 177.887 171.765 172.142 173.009 173.23 174.033 174.211 
175.003 175.29 176.15 176.667 177.666 178.287 179.299 171.839 172.265 
173.161 173.528 174.385 174.67 175.407 175.564 176.223 176.523 177.423 
178.049 179.131 179.76 180.622 171.931 172.334 173.197 173.598 174.473 
174.893 175.707 175.938 176.548 176.678 177.406 177.852 178.888 179.542 
180.439 180.891 181.338 172.042 172.423 173.248 173.619 174.47 174.922 
175.818 176.183 176.894 177.029 177.664 177.912 178.805 179.336 180.246 
180.695 181.184 181.375 181.522 172.63 173.647 173.274 173.517 174.738 
174.342 174.658 174.207 174.494 175.971 175.55 175.95 175.454 175.807 
175.299 175.655 177.182 176.813 177.256 176.813 177.219 176.709 177.09 
176.545 176.887 178.415 178.018 178.475 178.08 178.515 178.097 178.485 
177.989 178.299 177.742 178.002 179.848 179.365 179.845 179.352 179.788 
179.346 179.736 179.293 179.589 179.09 179.315 178.783 179 181.071 
180.758 181.207 180.778 181.173 180.677 181.02 180.522 180.809 180.318 
180.549 180.045 180.248 179.735 179.926 181.6 181.602 181.955 181.874 
182.226 181.955 182.231 181.793 182.013 181.527 181.739 181.253 181.444 
180.944 181.101 180.596 180.729 181.682 181.798 182.123 182.278 182.68 
182.71 183.023 182.816 183.002 182.637 182.793 182.381 182.529 182.079 
182.184 181.706 181.784 181.311 181.39 181.833 182.602 182.195 182.369 
183.849 183.258 183.361 182.879 183.034 184.943 184.532 184.597 184.017 
183.994 183.494 183.453 185.585 185.394 185.508 185.121 185 184.453 
184.236 183.736 183.492 186.198 185.926 186.034 185.807 185.759 185.339 
185.078 184.522 184.2 183.67 183.336 187.023 186.595 186.56 186.271 
186.258 185.973 185.81 185.335 184.986 184.406 184.01 183.47 183.076 
187.756 187.385 187.239 186.841 186.725 186.431 186.312 185.976 185.668 
185.153 184.676 184.113 183.632 183.136 182.694 188.124 187.953 187.824 
187.48 187.258 186.901 186.682 186.388 186.096 185.714 185.234 184.712 
184.157 183.641 183.151 182.7 182.269 188.214 188.177 188.098 187.916 
187.663 187.35 186.993 186.683 186.309 186.017 185.571 185.172 184.633 
184.141 183.626 183.153 182.714 182.28 181.875 181.741 181.915 181.956 
182.455 182.217 182.218 182.702 182.899 183.636 182.538 182.555 182.993 
183.139 183.754 184.055 184.678 182.809 182.899 183.352 183.429 183.928 
184.107 184.624 184.894 185.35 182.864 183.125 183.643 183.779 184.26 
184.333 184.817 184.93 185.465 185.616 186.123 182.632 183.049 183.588 
183.92 184.406 184.61 185.09 185.226 185.802 185.93 186.557 186.6 
187.102 182.288 182.735 183.257 183.692 184.167 184.549 185.011 185.348 
185.884 186.204 186.79 187.016 187.491 187.534 187.825 181.93 182.37 
182.871 183.31 183.779 184.201 184.656 185.085 185.574 186.037 186.538 
186.972 187.365 187.658 187.877 188 188.102 181.506 181.966 182.43 
182.894 183.347 183.793 184.237 184.679 185.13 185.597 186.037 186.515 
186.879 187.296 187.535 187.823 187.951 188.106 188.165 172.387 173.251 
173.078 173.559 174.153 173.955 174.508 174.284 174.824 175.243 174.969 
175.622 175.359 176 175.689 176.23 176.501 176.188 176.866 176.575 
177.223 176.912 177.414 177.042 177.342 177.695 177.444 178.061 177.797 
178.347 178.065 178.498 178.158 178.447 178.002 178.19 178.68 178.512 
179.059 178.86 179.332 179.085 179.495 179.191 179.57 179.166 179.519 
178.988 179.356 179.522 179.383 179.884 179.728 180.191 179.994 180.43 
180.179 180.612 180.308 180.731 180.346 180.725 180.266 180.625 180.296 
180.17 180.652 180.505 180.974 180.816 181.276 181.088 181.501 181.277 
181.611 181.369 181.598 181.338 181.467 181.213 181.322 180.991 180.904 
181.384 181.257 181.721 181.585 182.049 181.899 182.297 182.088 182.338 
182.086 182.195 181.949 181.954 181.732 181.692 181.536 181.544 171.692 
170.846 171.764 172.632 169.923 170.942 171.967 172.739 173.555 168.965 
170.044 171.227 172.132 173.093 173.745 174.616 168.012 169.056 170.314 
171.406 172.566 173.348 174.291 174.908 175.848 167.335 168.129 169.306 
170.447 171.755 172.782 173.857 174.584 175.506 176.153 177.058 167.172 
167.629 168.638 169.521 170.812 171.905 173.11 174.035 175.006 175.75 
176.637 177.298 178.104 167.322 167.622 168.512 169.071 170.217 171.076 
172.286 173.228 174.296 175.148 176.092 176.837 177.694 178.301 179.016 
167.475 167.779 168.613 169.047 170.056 170.668 171.765 172.525 173.605 
174.433 175.455 176.261 177.194 177.883 178.67 179.198 179.83 167.59 
167.888 168.679 169.101 170.031 170.552 171.541 172.141 173.142 173.844 
174.861 175.643 176.626 177.37 178.217 178.828 179.508 179.982 180.535 
167.903 168.824 168.544 169.022 169.957 169.596 170.114 169.82 170.407 
171.216 170.828 171.367 171.014 171.609 171.296 171.908 172.495 172.119 
172.673 172.309 172.89 172.544 173.148 172.825 173.457 173.789 173.413 
173.985 173.62 174.208 173.842 174.448 174.1 174.751 174.431 175.133 
175.103 174.734 175.343 174.971 175.595 175.197 175.824 175.44 176.112 
175.771 176.485 176.167 176.877 176.371 176.04 176.674 176.347 177.005 
176.626 177.265 176.862 177.525 177.158 177.846 177.514 178.173 177.854 
178.449 177.572 177.273 177.889 177.621 178.267 177.978 178.603 178.27 
178.891 178.55 179.174 178.837 179.415 179.084 179.594 179.279 179.727 
178.713 178.44 179.024 178.772 179.378 179.141 179.74 179.491 180.077 
179.811 180.375 180.079 180.576 180.249 180.674 180.351 180.732 180.422 
180.757 179.517 180.883 180.082 179.862 182.293 181.498 181.279 180.444 
180.213 183.582 182.889 182.716 181.901 181.659 180.805 180.57 184.742 
184.12 184.024 183.313 183.117 182.278 182.014 181.159 180.915 186.006 
185.322 185.234 184.557 184.389 183.661 183.39 182.582 182.281 181.469 
181.195 187.266 186.625 186.444 185.737 185.475 184.805 184.509 183.822 
183.483 182.75 182.409 181.665 181.342 188.015 187.654 187.379 186.81 
186.419 185.792 185.431 184.818 184.478 183.83 183.468 182.781 182.42 
181.725 181.384 188.186 188.064 187.796 187.471 187.074 186.592 186.195 
185.661 185.309 184.738 184.379 183.758 183.386 182.736 182.379 181.722 
181.393 188.183 188.114 187.941 187.744 187.465 187.12 186.773 186.331 
185.959 185.471 185.082 184.561 184.168 183.614 183.238 182.653 182.298 
181.695 181.368 179.555 179.975 180.16 180.923 180.322 180.59 181.458 
181.606 182.36 180.668 180.987 182.006 182.209 183.05 183.054 183.679 
180.983 181.371 182.514 182.83 183.793 183.81 184.426 184.291 184.815 
181.107 181.591 182.696 183.231 184.24 184.486 185.097 185.02 185.486 
185.417 186.027 181.023 181.548 182.476 183.14 184.038 184.604 185.201 
185.45 185.871 185.985 186.561 186.672 187.291 180.796 181.341 182.135 
182.745 183.478 184.107 184.683 185.213 185.699 186.11 186.676 187.012 
187.587 187.756 188.09 180.41 181.014 181.775 182.351 182.996 183.512 
184.052 184.593 185.192 185.768 186.436 186.931 187.501 187.82 188.132 
188.234 188.28 179.936 180.553 181.304 181.922 182.556 183.053 183.564 
184.046 184.667 185.272 186.027 186.613 187.224 187.615 187.935 188.132 
188.221 188.267 188.242 178.784 177.694 178.557 179.143 176.411 177.366 
177.93 178.845 179.408 174.904 175.938 176.484 177.521 178.092 179.065 
179.66 173.35 174.346 174.832 175.935 176.527 177.647 178.28 179.319 
179.94 171.949 172.843 173.267 174.259 174.773 175.938 176.609 177.831 
178.516 179.586 180.145 170.668 171.511 171.953 172.816 173.25 174.214 
174.793 176.023 176.793 178.064 178.731 179.742 180.18 169.498 170.27 
170.751 171.592 172.094 172.889 173.398 174.337 175.066 176.292 177.106 
178.275 178.816 179.71 180.008 168.556 169.191 169.653 170.441 171.034 
171.845 172.444 173.202 173.859 174.783 175.588 176.686 177.354 178.316 
178.651 179.448 179.633 167.837 168.366 168.786 169.438 170.012 170.819 
171.511 172.324 173.007 173.784 174.469 175.349 175.995 176.903 177.309 
178.095 178.284 179.025 179.185 167.596 167.582 167.904 168.565 167.674 
167.969 168.703 168.976 169.771 167.962 168.2 169.034 169.241 170.121 
170.376 171.309 168.392 168.624 169.56 169.732 170.68 170.861 171.835 
172.026 172.911 168.734 169.049 170.016 170.295 171.256 171.469 172.376 
172.561 173.401 173.559 174.34 168.911 169.273 170.175 170.604 171.526 
171.899 172.694 172.958 173.646 173.904 174.617 174.895 175.669 169.102 
169.391 170.208 170.63 171.503 171.97 172.73 173.081 173.684 173.984 
174.616 174.991 175.718 176.119 176.85 169.434 169.621 170.381 170.679 
171.507 171.908 172.701 173.057 173.72 173.996 174.649 174.968 175.7 
176.075 176.789 177.164 177.813 169.847 169.988 170.706 170.912 171.687 
171.984 172.783 173.099 173.841 174.106 174.826 175.093 175.862 176.149 
176.89 177.155 177.813 178.095 178.728 170.313 171.332 170.928 171.18 
172.476 172.011 172.281 171.854 172.155 173.744 173.227 173.506 173.025 
173.337 172.895 173.226 175.07 174.544 174.836 174.315 174.623 174.126 
174.441 173.982 174.281 176.402 175.885 176.197 175.674 175.972 175.442 
175.739 175.234 175.544 175.05 175.33 177.746 177.23 177.556 177.039 
177.349 176.804 177.094 176.559 176.89 176.38 176.716 176.16 176.426 
179.069 178.579 178.914 178.407 178.739 178.197 178.507 177.949 178.285 
177.762 178.124 177.588 177.863 177.256 177.434 180.261 179.858 180.203 
179.749 180.087 179.584 179.905 179.37 179.696 179.17 179.505 178.983 
179.25 178.667 178.813 178.186 178.3 181.229 180.948 181.295 180.954 
181.283 180.87 181.175 180.713 181.013 180.531 180.818 180.318 180.553 
180.008 180.164 179.552 179.663 179.036 179.181 179.935 180.402 180.529 
181.281 180.855 180.982 181.674 181.846 182.502 181.254 181.399 182.056 
182.203 182.848 182.975 183.539 181.579 181.78 182.495 182.626 183.337 
183.412 184.109 184.109 184.756 181.787 182.066 182.835 183.063 183.835 
183.978 184.749 184.805 185.555 185.506 186.172 181.909 182.22 182.957 
183.292 184.022 184.337 185.022 185.292 185.946 186.153 186.747 186.814 
187.28 181.968 182.289 182.951 183.307 183.952 184.331 184.907 185.283 
185.799 186.193 186.69 187.036 187.441 187.617 187.881 181.919 182.263 
182.85 183.217 183.799 184.178 184.723 185.073 185.553 185.902 186.377 
186.771 187.224 187.548 187.852 188.009 188.153 181.788 182.13 182.651 
183.026 183.563 183.968 184.524 184.9 185.409 185.712 186.167 186.483 
186.935 187.282 187.654 187.901 188.091 188.186 188.229 159.774 160.212 
159.868 159.664 160.695 160.277 159.977 159.708 159.555 161.429 160.85 
160.537 160.083 159.883 159.625 159.63 162.51 161.783 161.535 160.869 
160.718 160.187 160.232 159.934 160.272 163.816 163.034 162.868 162.097 
162.007 161.295 161.369 160.837 161.193 160.926 161.559 165.218 164.439 
164.361 163.572 163.561 162.766 162.85 162.164 162.465 162.025 162.572 
162.374 163.053 166.644 165.905 165.927 165.163 165.276 164.463 164.626 
163.808 164.082 163.425 163.89 163.478 164.075 163.85 164.467 167.996 
167.342 167.425 166.75 166.938 166.228 166.483 165.694 165.987 165.193 
165.58 164.934 165.443 164.996 165.559 165.255 165.798 169.202 168.647 
168.738 168.17 168.348 167.791 168.066 167.468 167.775 167.083 167.385 
166.676 167.021 166.434 166.848 166.42 166.858 166.539 166.956 159.462 
159.474 159.367 159.239 159.51 159.473 159.526 159.4 159.565 159.628 
159.577 159.806 159.793 160.121 160.019 160.417 160.242 159.901 160.176 
160.132 160.608 160.611 161.084 160.991 161.423 161.554 160.891 161.135 
160.761 161.268 161.159 161.732 161.653 162.117 161.979 162.411 163.078 
162.393 162.633 162.038 162.47 162.074 162.633 162.399 162.93 162.726 
163.193 163.015 163.534 164.437 163.843 164.061 163.535 163.889 163.418 
163.85 163.46 163.928 163.631 164.112 163.876 164.377 164.212 164.768 
165.695 165.121 165.279 164.812 165.114 164.717 165.071 164.674 165.028 
164.671 165.075 164.812 165.274 165.074 165.552 165.411 165.905 166.832 
166.313 166.417 165.957 166.21 165.834 166.173 165.807 166.13 165.747 
166.075 165.76 166.159 165.935 166.363 166.18 166.598 166.464 166.897 
159.414 159.135 159.214 159.31 159.422 159.153 159.196 159.273 159.629 
160.279 159.739 159.72 159.446 159.766 159.871 160.557 161.317 160.747 
160.725 160.238 160.476 160.278 160.912 161.086 162.016 162.352 161.814 
161.869 161.35 161.572 161.186 161.719 161.643 162.501 162.7 163.646 
163.532 162.955 163.128 162.581 162.877 162.388 162.869 162.587 163.322 
163.313 164.186 164.32 165.187 164.803 164.246 164.48 163.94 164.269 
163.753 164.181 163.784 164.393 164.212 164.993 164.975 165.844 165.922 
166.884 165.95 165.491 165.715 165.261 165.532 165.08 165.4 165.016 
165.5 165.273 165.986 165.886 166.767 166.742 167.749 167.813 168.896 
166.955 166.566 166.789 166.396 166.626 166.216 166.462 166.097 166.513 
166.299 167.005 166.918 167.835 167.783 168.793 168.783 169.817 169.866 
170.823 178.273 177.113 177.541 177.189 175.887 176.33 175.958 176.389 
175.939 174.605 175.058 174.659 175.116 174.655 175.047 174.485 173.272 
173.718 173.269 173.757 173.278 173.719 173.158 173.531 172.954 171.95 
172.351 171.833 172.305 171.803 172.289 171.759 172.187 171.637 172.031 
171.534 170.672 171.031 170.476 170.877 170.366 170.821 170.358 170.809 
170.346 170.745 170.275 170.669 170.242 169.447 169.774 169.239 169.582 
169.087 169.47 169.054 169.487 169.119 169.527 169.126 169.475 169.06 
169.433 169.088 168.359 168.621 168.137 168.428 167.967 168.282 167.868 
168.257 167.915 168.344 167.996 168.371 167.98 168.321 167.98 168.374 
168.149 167.476 167.651 167.207 167.431 167.005 167.25 166.831 167.134 
166.777 167.169 166.851 167.249 166.895 167.252 166.907 167.294 167.058 
167.519 167.397 
POINT_DATA 1002
SCALARS Distance double
LOOKUP_TABLE default
170.68 169.724 169.505 170.535 169.334 171.751 170.468 169.293 171.744 
172.963 170.56 169.406 171.839 173.101 174.268 170.808 169.635 172.052 
173.306 174.479 175.584 171.121 169.942 172.344 173.554 174.732 175.861 
176.914 171.457 170.326 172.665 173.859 175.027 176.206 177.298 178.261 
171.866 170.826 172.999 174.197 175.372 176.556 177.701 178.686 179.536 
172.366 171.425 173.361 174.51 175.719 176.883 178.006 179.024 179.88 
180.621 172.871 172.003 173.751 174.795 176.009 177.191 178.246 179.227 
180.107 180.846 181.473 168.601 168.346 167.331 167.102 165.964 168.207 
165.765 164.579 167 168.175 164.379 163.244 165.627 166.9 168.229 
163.102 162.057 164.258 165.501 166.906 168.436 162.077 161.171 163.117 
164.276 165.635 167.199 168.805 161.308 160.598 162.151 163.207 164.523 
166.024 167.626 169.271 160.681 160.125 161.305 162.157 163.4 164.867 
166.403 168.099 169.87 160.097 159.633 160.633 161.32 162.399 163.795 
165.266 166.911 168.791 170.587 159.421 159.969 159.477 160.268 160.1 
160.679 161.273 161.371 161.376 161.685 162.787 162.997 162.713 162.728 
163.034 164.296 164.523 164.166 164.107 164.153 164.511 165.759 166.022 
165.591 165.549 165.625 165.785 166.186 167.617 167.905 167.419 167.353 
167.47 167.648 167.829 168.197 169.753 169.976 169.577 169.48 169.502 
169.603 169.697 169.854 170.176 171.551 171.678 171.425 171.337 171.264 
171.157 171.065 171.126 171.386 171.726 173.02 172.692 173.993 172.237 
173.577 175.121 171.949 173.07 174.729 176.368 172.089 172.936 174.343 
176.048 177.531 172.468 173.365 174.397 175.738 177.292 178.842 172.702 
173.863 174.877 175.742 176.978 178.733 180.328 172.761 174.024 175.274 
176.08 176.857 178.44 180.225 181.32 172.821 174.014 175.386 176.47 
177.104 178.262 179.965 181.132 181.565 172.902 174.027 175.373 176.701 
177.52 178.374 179.784 180.993 181.43 181.573 173.933 175.106 174.941 
176.427 176.322 176.164 177.65 177.695 177.647 177.465 178.877 178.901 
178.954 178.861 178.575 180.381 180.283 180.187 180.072 179.841 179.533 
181.571 181.677 181.566 181.313 181.047 180.766 180.449 181.92 182.378 
182.629 182.505 182.225 181.95 181.621 181.237 181.911 182.539 183.126 
183.318 183.187 182.972 182.67 182.264 181.855 182.019 182.658 183.132 
183.987 184.43 183.441 185.182 185.218 184.625 183.918 185.785 185.756 
185.56 184.82 183.975 186.243 186.6 186.081 185.642 184.778 183.852 
186.949 187.524 186.496 186.203 185.591 184.594 183.59 187.689 188.06 
187.085 186.6 186.14 185.281 184.16 183.151 188.114 188.201 187.672 
187.023 186.428 185.726 184.701 183.615 182.69 188.218 188.225 187.964 
187.357 186.603 185.901 185.091 184.111 183.157 182.299 181.634 182.218 
181.897 182.543 182.215 183.349 182.912 182.494 183.528 184.388 183.299 
182.641 183.85 184.411 185.079 183.442 182.513 184.193 184.741 185.305 
186.017 183.197 182.191 184.129 184.9 185.634 186.473 187.187 182.822 
181.856 183.756 184.623 185.515 186.508 187.393 187.897 182.437 181.499 
183.358 184.229 185.121 186.091 187.018 187.688 188.048 181.964 181.059 
182.891 183.796 184.69 185.584 186.44 187.183 187.736 188.072 172.585 
173.752 173.421 174.699 174.346 175.078 175.869 175.522 176.306 176.622 
177.178 176.808 177.555 177.814 177.811 178.349 177.933 178.662 178.832 
178.856 178.682 179.258 178.855 179.575 179.769 179.893 179.968 179.915 
180.04 179.676 180.359 180.646 180.881 181.068 181.162 181.104 180.799 
180.419 181.121 181.447 181.741 181.886 181.884 181.754 181.548 170.815 
171.894 169.829 171.104 168.839 172.906 170.191 167.868 172.388 173.989 
169.112 167.058 171.642 173.672 175.22 168.217 166.73 170.59 173.036 
174.867 176.438 167.942 166.845 169.758 172.09 174.207 175.95 177.529 
168.081 167.042 169.515 171.382 173.391 175.294 177.037 178.522 168.214 
167.17 169.545 171.109 172.807 174.619 176.456 178.094 179.4 168.281 
167.321 169.544 171.004 172.511 174.109 175.859 177.566 178.996 180.132 