# vtk DataFile Version 4.0
vtk output
ASCII
DATASET POLYDATA
POINTS 1002 float
-119.308 -112.162 50.9128 -119.269 -111.082 50.1209 -118.732 -111.171 50.4468 
-118.776 -112.399 51.3385 -118.297 -111.29 50.9954 -119.367 -113.484 51.9053 
-118.373 -112.683 51.9937 -117.941 -111.538 51.7295 -118.851 -113.817 52.5034 
-119.489 -114.816 53.1423 -118.01 -113.077 52.7883 -117.521 -111.954 52.4973 
-118.436 -114.14 53.3264 -118.963 -115.141 54.014 -119.524 -115.972 54.7254 
-117.563 -113.547 53.6496 -116.994 -112.483 53.2434 -118.027 -114.52 54.2517 
-118.485 -115.473 55.0599 -118.938 -116.46 55.8084 -119.333 -117.258 56.6219 
-117.087 -114.032 54.636 -116.494 -113.103 54.0321 -117.583 -114.974 55.3151 
-118.007 -115.917 56.1644 -118.335 -117.093 56.9153 -118.642 -118.171 57.614 
-118.982 -118.924 58.4703 -116.623 -114.618 55.6815 -116.071 -113.797 54.9099 
-117.075 -115.594 56.4648 -117.468 -116.581 57.2967 -117.686 -117.847 57.996 
-117.851 -119.184 58.5396 -118.163 -120.076 59.244 -118.542 -120.648 60.0537 
-116.113 -115.382 56.6692 -115.669 -114.53 55.8694 -116.431 -116.479 57.4666 
-116.748 -117.55 58.261 -116.945 -118.762 58.9326 -117.011 -120.131 59.4488 
-117.258 -121.124 60.0504 -117.679 -121.67 60.8235 -118.068 -122.114 61.5257 
-115.586 -116.271 57.6118 -115.269 -115.347 56.8592 -115.759 -117.476 58.3428 
-115.938 -118.616 59.0872 -116.125 -119.712 59.7402 -116.202 -120.981 60.2774 
-116.383 -122.022 60.8872 -116.821 -122.573 61.6357 -117.3 -122.97 62.3497 
-117.69 -123.404 62.8897 -115.059 -117.21 58.5306 -114.85 -116.299 57.8231 
-115.171 -118.374 59.2199 -115.268 -119.478 59.971 -115.413 -120.422 60.679 
-115.516 -121.542 61.2175 -115.636 -122.698 61.7449 -115.983 -123.411 62.4156 
-116.508 -123.807 63.0943 -117.016 -124.217 63.6239 -117.452 -124.624 64.012 
-118.779 -110.092 49.6069 -118.246 -110.081 50.0044 -118.106 -108.84 49.1634 
-117.578 -108.859 49.588 -117.329 -107.385 48.7196 -117.802 -110.144 50.6385 
-116.792 -107.604 49.1173 -116.543 -106.065 48.211 -117.08 -109.067 50.1764 
-117.373 -110.403 51.3817 -115.95 -106.393 48.7197 -115.727 -104.984 47.7759 
-116.2 -108.088 49.6236 -116.537 -109.479 50.7998 -116.834 -110.877 52.0738 
-115.149 -105.23 48.5725 -115.066 -103.964 47.6823 -115.278 -107.012 49.2956 
-115.594 -108.648 50.2122 -115.946 -110.035 51.4428 -116.228 -111.581 52.71 
-114.572 -104.305 48.663 -114.686 -103.054 48.0135 -114.442 -105.982 49.1979 
-114.681 -107.645 49.9278 -115.108 -109.144 50.995 -115.384 -110.844 52.1309 
-115.705 -112.477 53.4016 -114.064 -103.646 48.9564 -114.201 -102.342 48.5917 
-113.754 -105.295 49.2061 -113.78 -106.806 49.7546 -114.309 -108.094 50.807 
-114.702 -109.847 51.8358 -114.912 -111.858 52.8386 -115.305 -113.343 54.2472 
-113.382 -103.025 49.4116 -113.409 -101.808 49.2166 -113.168 -104.657 49.4857 
-112.988 -106.23 49.7643 -113.374 -107.374 50.6669 -114.004 -108.75 51.7108 
-114.311 -110.817 52.5059 -114.578 -112.753 53.6196 -115 -114.097 55.2416 
-112.708 -102.531 49.9604 -112.673 -101.541 49.8567 -112.711 -103.913 50.0636 
-112.532 -105.5 50.2395 -112.583 -106.884 50.836 -113.132 -108.09 51.7104 
-113.709 -109.688 52.3822 -114.06 -111.685 53.1686 -114.414 -113.477 54.5812 
-114.745 -114.923 56.3126 -112.258 -102.131 50.6509 -112.367 -103.152 50.8034 
-112.108 -103.085 51.8064 -112.168 -104.031 52.0908 -111.794 -104.203 53.3415 
-112.387 -104.465 51.0606 -111.886 -105.061 53.6296 -111.498 -105.206 54.8654 
-112.214 -105.232 52.505 -112.259 -106.05 51.4858 -112.069 -105.99 54.9489 
-112.019 -106.012 56.0367 -112.306 -106.203 53.951 -112.29 -106.87 52.9606 
-112.44 -107.608 52.1077 -113.093 -106.883 55.8216 -113.247 -106.902 56.7509 
-113.057 -107.139 55.0029 -112.84 -107.721 54.1798 -112.677 -108.419 53.3054 
-113.047 -109.001 52.6258 -114.24 -108.24 56.3629 -114.41 -108.29 57.0412 
-114.104 -108.361 55.7119 -113.804 -108.645 55.0688 -113.403 -109.085 54.3926 
-113.34 -109.751 53.6658 -113.656 -110.678 53.197 -114.976 -110.151 56.9846 
-115.254 -110.162 57.3338 -114.78 -110.227 56.5232 -114.554 -110.326 55.9896 
-114.202 -110.41 55.5797 -113.935 -110.813 55.1532 -113.926 -111.732 54.6633 
-114.099 -112.768 54.4506 -115.348 -112.146 58.0359 -115.733 -112.081 58.1133 
-115.039 -112.291 57.8133 -114.792 -112.525 57.395 -114.508 -112.681 57.093 
-114.24 -112.905 56.9767 -114.122 -113.532 56.7177 -114.169 -114.32 56.3838 
-114.378 -114.795 56.26 -115.375 -113.873 59.3815 -115.777 -113.706 59.3292 
-114.997 -114.087 59.3702 -114.644 -114.426 59.172 -114.259 -114.791 58.9324 
-113.903 -115.141 58.848 -113.742 -115.674 58.7445 -113.807 -116.287 58.4541 
-114.045 -116.574 58.1458 -114.418 -116.48 57.9517 -114.406 -117.897 59.2414 
-113.841 -118.174 59.5294 -113.707 -119.441 60.6845 -113.304 -118.301 59.8332 
-112.996 -119.601 60.9989 -113.012 -120.674 62.1485 -112.923 -117.929 60.1543 
-112.349 -119.481 61.2226 -112.332 -120.723 62.4187 -112.581 -121.865 63.6918 
-112.836 -117.2 60.4484 -111.919 -118.841 61.4807 -111.737 -120.504 62.5522 
-112.005 -122.041 64.0592 -112.23 -123.18 65.3626 -113.158 -116.617 60.6685 
-111.922 -118.042 61.9273 -111.355 -119.84 62.864 -111.39 -121.986 64.2842 
-111.502 -123.432 65.8439 -111.601 -124.299 66.8865 -113.742 -116.257 60.8245 
-112.439 -117.632 62.3299 -111.464 -119.117 63.4489 -111.057 -121.363 64.6738 
-110.776 -123.355 66.1219 -110.648 -124.383 67.2337 -110.855 -125.135 68.0329 
-114.304 -115.92 60.8894 -113.174 -117.507 62.3951 -112.037 -118.819 63.7669 
-111.301 -120.555 65.0964 -110.674 -122.64 66.4414 -110.06 -124.111 67.5217 
-109.923 -125.033 68.3177 -110.296 -125.891 69.1318 -114.778 -115.589 60.8365 
-113.848 -117.289 62.2442 -112.764 -118.732 63.6384 -111.881 -120.11 65.1191 
-111.175 -121.813 66.6048 -110.331 -123.429 67.8712 -109.608 -124.615 68.8121 
-109.495 -125.643 69.6217 -109.914 -126.563 70.3928 -115.225 -115.281 60.741 
-114.438 -116.915 62.1044 -113.51 -118.483 63.4157 -112.589 -119.886 64.8623 
-111.825 -121.342 66.4271 -111.045 -122.808 67.96 -110.1 -124.001 69.2689 
-109.38 -125.067 70.2519 -109.295 -126.134 70.9849 -109.739 -127.026 71.5081 
-114.522 -118.91 59.9598 -113.862 -120.369 61.51 -114.642 -119.98 60.7727 
-113.265 -121.604 63.0734 -114.088 -121.272 62.4563 -114.803 -120.864 61.6649 
-112.814 -122.972 64.6285 -113.533 -122.664 63.9801 -114.333 -122.185 63.3818 
-114.958 -121.834 62.3812 -112.316 -124.312 66.2789 -112.976 -124.261 65.4824 
-113.798 -123.837 64.8521 -114.528 -123.362 64.0553 -115.061 -123.101 62.8671 
-111.691 -125.304 67.8184 -112.388 -125.477 67.2474 -113.221 -125.33 66.4706 
-114.081 -124.911 65.6254 -114.687 -124.579 64.5454 -115.273 -124.148 63.3885 
-111.146 -126.107 69.0826 -111.855 -126.251 68.8811 -112.664 -126.224 68.3005 
-113.648 -125.991 67.408 -114.37 -125.765 66.2901 -114.953 -125.437 65.0676 
-115.722 -124.731 63.9895 -110.734 -126.869 70.2372 -111.448 -127.017 70.0346 
-112.172 -127.038 69.6295 -113.198 -126.884 68.98 -114.124 -126.67 68.0707 
-114.724 -126.459 66.8544 -115.448 -125.992 65.5568 -116.317 -125.167 64.486 
-110.452 -127.486 71.283 -111.149 -127.813 70.9061 -111.771 -128.068 70.375 
-112.677 -128.091 69.8096 -113.779 -127.761 69.2605 -114.582 -127.328 68.4586 
-115.26 -126.944 67.2197 -116.118 -126.398 65.8902 -116.912 -125.573 64.8404 
-110.261 -127.686 72.1945 -110.913 -128.297 71.8725 -111.104 -128.327 72.756 
-111.611 -129.202 72.4364 -112.066 -128.956 73.5258 -111.481 -128.916 71.2616 
-112.53 -129.835 73.2557 -113.009 -129.366 74.2295 -112.095 -129.978 71.785 
-112.154 -129.356 70.5057 -113.682 -129.769 73.7412 -114.143 -129.273 74.2207 
-113.195 -130.181 72.564 -112.941 -130.144 70.9099 -113.262 -129.142 69.8921 
-115.036 -129.293 73.4544 -115.514 -128.727 73.8829 -114.757 -129.68 72.8168 
-114.38 -129.927 71.4241 -114.219 -129.45 70.1294 -114.404 -128.355 69.4015 
-116.383 -128.885 73.2013 -116.814 -128.16 73.8706 -116.299 -129.422 72.5275 
-116.142 -129.708 71.5329 -115.674 -129.351 70.369 -115.338 -128.473 69.4882 
-115.263 -127.645 68.5386 -117.636 -128.512 73.2844 -117.978 -127.809 73.7836 
-117.484 -129.232 72.4387 -117.46 -129.738 71.4591 -117.096 -129.501 70.4804 
-116.529 -128.599 69.5474 -116.232 -127.759 68.482 -116.153 -127.143 67.182 
-118.833 -128.003 73.0437 -119.137 -127.437 73.2226 -118.492 -128.615 72.3593 
-118.276 -129.162 71.3721 -118.005 -129.195 70.4255 -117.54 -128.55 69.5132 
-117.207 -127.744 68.4026 -117.111 -127.134 67.1039 -117.027 -126.477 65.8678 
-119.873 -127.322 72.3473 -120.223 -126.828 72.49 -119.429 -127.769 71.8513 
-119.024 -128.14 71.0149 -118.698 -128.236 70.1013 -118.328 -127.917 69.2189 
-118.009 -127.378 68.2013 -117.885 -126.86 67.0244 -117.795 -126.301 65.8738 
-117.621 -125.543 64.8777 -109.587 -126.74 72.0966 -110.407 -127.32 72.6508 
-110.101 -126.178 72.3761 -111.168 -126.681 72.8537 -111.182 -125.615 72.2938 
-111.501 -127.799 73.335 -112.201 -126.122 72.8013 -112.265 -125.394 71.8742 
-112.183 -127.013 73.7751 -112.444 -128.247 74.3227 -113.075 -125.922 72.3084 
-113.147 -125.306 71.1678 -112.983 -126.397 73.7164 -112.985 -127.256 74.875 
-113.441 -128.535 74.9008 -113.993 -125.653 71.4914 -114.166 -124.778 70.3979 
-113.971 -126.201 72.8108 -113.995 -126.468 74.5079 -114.367 -127.216 75.3404 
-114.957 -128.243 74.7715 -115.138 -124.874 70.7536 -115.323 -123.911 69.6215 
-115.164 -125.901 71.7304 -115.327 -126.228 73.1992 -115.727 -126.08 74.8633 
-116.214 -126.594 75.2902 -116.493 -127.527 74.5933 -116.18 -123.997 69.9168 
-116.297 -123.193 68.6801 -116.204 -125.133 70.921 -116.354 -125.978 71.9731 
-116.689 -125.705 73.5672 -117.112 -125.356 74.8524 -117.334 -126.051 74.9062 
-117.527 -127.119 74.3257 -116.974 -123.348 68.7883 -117.033 -122.551 67.7061 
-116.991 -124.273 69.8642 -117.04 -125.266 70.9091 -117.162 -125.498 72.2035 
-117.402 -125.031 73.5292 -117.631 -125.165 74.115 -117.926 -126.118 73.9479 
-118.49 -127.008 73.6043 -117.654 -122.637 67.7267 -117.654 -121.679 66.9444 
-117.716 -123.487 68.5796 -117.784 -124.333 69.5749 -117.824 -124.884 70.7935 
[...]
CELL_DATA 2000
SCALARS Distance double
LOOKUP_TABLE default
169.766 169.643 170.059 170.856 169.703 170.044 170.876 171.272 172.148 
169.904 170.209 171.055 171.381 172.263 172.634 173.49 170.139 170.455 
171.316 171.612 172.483 172.808 173.693 174.004 174.829 170.419 170.719 
171.619 171.9 172.788 173.076 173.997 174.289 175.195 175.424 176.267 
170.81 171.063 172.003 172.259 173.194 173.443 174.393 174.659 175.609 
175.852 176.734 176.919 177.719 171.298 171.511 172.463 172.703 173.663 
173.899 174.846 175.091 176.02 176.272 177.14 177.358 178.133 178.308 
179.001 171.857 172.032 172.979 173.197 174.148 174.374 175.283 175.52 
176.396 176.652 177.484 177.72 178.478 178.672 179.36 179.514 180.144 
172.478 172.611 173.529 173.722 174.636 174.843 175.694 175.907 176.717 
176.969 177.768 178.027 178.775 178.989 179.675 179.851 180.495 180.634 
181.235 169.065 167.82 168.597 168.883 166.347 167.27 167.627 168.462 
168.881 164.788 165.768 166.217 167.153 167.619 168.512 169.03 163.306 
164.251 164.745 165.732 166.246 167.198 167.726 168.666 169.224 162.003 
162.834 163.315 164.281 164.835 165.814 166.362 167.323 167.907 168.868 
169.483 161.043 161.673 162.109 162.921 163.469 164.417 165.012 165.979 
166.606 167.573 168.256 169.204 169.888 160.352 160.865 161.245 161.86 
162.325 163.122 163.713 164.655 165.335 166.32 167.061 168.031 168.786 
169.695 170.404 159.661 160.179 160.522 161.075 161.463 162.098 162.61 
163.428 164.104 165.069 165.842 166.85 167.649 168.615 169.386 170.265 
170.984 159.053 159.489 159.862 160.376 160.795 161.329 161.816 162.462 
163.102 163.926 164.688 165.638 166.449 167.452 168.284 169.251 170.059 
170.913 171.653 159.001 159.544 159.371 159.796 160.447 160.082 160.364 
160.251 160.735 161.422 161.018 161.245 160.956 161.348 161.241 161.787 
162.553 162.048 162.346 161.947 162.358 162.049 162.575 162.42 163.089 
164.054 163.386 163.749 163.215 163.68 163.223 163.72 163.381 163.983 
163.846 164.62 165.818 165.077 165.47 164.811 165.27 164.674 165.109 
164.611 165.113 164.824 165.53 165.464 166.342 167.695 166.939 167.384 
166.656 167.138 166.411 166.865 166.158 166.67 166.122 166.851 166.548 
167.469 167.33 168.268 169.574 168.856 169.325 168.609 169.132 168.389 
168.928 168.13 168.735 167.981 168.776 168.192 169.155 168.734 169.689 
169.361 170.186 171.229 170.644 171.062 170.461 170.935 170.321 170.825 
170.174 170.719 170.077 170.757 170.209 171.031 170.56 171.381 170.93 
171.642 171.225 171.838 172.755 172.647 173.147 173.969 172.472 173.026 
173.808 174.251 174.942 172.141 172.761 173.485 173.977 174.62 175.141 
175.885 171.801 172.363 172.998 173.5 174.112 174.739 175.586 176.211 
177.105 171.704 172.106 172.686 173.015 173.581 174.176 175.115 175.899 
176.918 177.498 178.278 171.812 172.146 172.781 172.918 173.449 173.781 
174.683 175.423 176.503 177.214 177.975 178.457 178.989 171.925 172.298 
173.04 173.188 173.746 173.869 174.624 175.105 176.11 176.769 177.547 
178.042 178.53 178.993 179.51 172.015 172.405 173.199 173.46 174.083 
174.22 174.861 175.141 175.988 176.476 177.278 177.691 178.226 178.57 
179.077 179.553 180.171 172.12 172.487 173.271 173.593 174.268 174.497 
175.126 175.353 176.086 176.442 177.236 177.584 178.202 178.431 178.92 
179.222 179.791 180.264 180.878 173.125 174.332 173.88 174.152 175.361 
175.033 175.367 174.939 175.23 176.362 176.037 176.439 176.097 176.43 
175.992 176.248 177.556 177.139 177.558 177.182 177.578 177.167 177.473 
176.991 177.247 178.703 178.375 178.794 178.393 178.825 178.385 178.764 
178.262 178.565 178.032 178.301 179.489 179.382 179.861 179.6 180.046 
179.671 180.069 179.602 179.922 179.389 179.648 179.094 179.309 180.104 
180.088 180.657 180.537 181.009 180.779 181.178 180.842 181.16 180.707 
180.944 180.419 180.607 180.052 180.203 180.785 180.761 181.371 181.283 
181.777 181.624 182.057 181.842 182.218 181.872 182.136 181.661 181.851 
181.323 181.48 180.916 181.032 181.463 181.463 182.068 182 182.505 
182.37 182.84 182.681 183.131 182.883 183.206 182.805 182.999 182.52 
182.682 182.171 182.299 181.725 181.788 182.028 183.124 182.606 182.647 
184.379 183.778 183.796 183.183 183.11 185.634 185.08 185.096 184.413 
184.31 183.62 183.485 186.498 186.175 186.183 185.658 185.51 184.845 
184.646 183.976 183.781 186.941 186.789 186.824 186.54 186.418 185.913 
185.642 185.039 184.733 184.144 183.817 187.338 187.177 187.321 187.12 
187.195 186.777 186.578 185.948 185.566 184.954 184.555 184.007 183.591 
187.811 187.649 187.846 187.68 187.874 187.591 187.515 186.92 186.497 
185.773 185.289 184.682 184.263 183.719 183.29 188.15 188.088 188.193 
188.113 188.15 188.077 187.924 187.644 187.146 186.594 185.958 185.377 
184.864 184.357 183.914 183.391 182.913 188.211 188.253 188.214 188.217 
188.03 188.043 187.717 187.67 187.129 186.886 186.198 185.823 185.207 
184.829 184.319 183.912 183.392 182.916 182.366 181.788 181.783 182.14 
182.899 181.904 182.187 182.969 183.324 184.15 182.171 182.372 183.091 
183.405 184.217 184.608 185.391 182.422 182.629 183.247 183.508 184.203 
184.598 185.351 185.753 186.318 182.503 182.786 183.374 183.628 184.231 
184.544 185.23 185.641 186.252 186.527 186.858 182.407 182.764 183.398 
183.724 184.352 184.605 185.21 185.522 186.111 186.429 186.836 186.99 
187.234 182.193 182.591 183.217 183.666 184.326 184.686 185.197 185.47 
185.863 186.194 186.526 186.85 187.113 187.344 187.609 181.89 182.31 
182.849 183.357 183.95 184.469 184.917 185.286 185.495 185.801 185.949 
186.345 186.566 187.009 187.294 187.663 187.927 181.481 181.936 182.4 
182.892 183.384 183.933 184.364 184.828 185.061 185.359 185.475 185.759 
185.967 186.378 186.724 187.195 187.54 187.902 188.083 172.457 173.312 
173.121 173.568 174.237 173.997 174.452 174.213 174.592 175.311 175.003 
175.495 175.184 175.596 175.242 175.548 176.447 176.125 176.627 176.305 
176.763 176.365 176.718 176.254 176.566 177.511 177.226 177.693 177.414 
177.886 177.556 177.95 177.509 177.831 177.351 177.666 178.499 178.253 
178.723 178.448 178.914 178.63 179.037 178.686 178.983 178.568 178.791 
178.369 178.556 179.417 179.231 179.744 179.482 179.947 179.654 180.05 
179.716 179.983 179.6 179.756 179.362 179.475 179.092 179.226 180.235 
180.119 180.637 180.449 180.887 180.647 181.021 180.717 180.988 180.589 
180.745 180.294 180.411 179.986 180.155 179.778 180.041 180.944 180.875 
181.366 181.244 181.65 181.482 181.84 181.619 181.925 181.599 181.813 
181.358 181.51 181.013 181.206 180.773 181.067 180.712 181.076 171.82 
171.055 171.9 172.727 170.192 171.137 172.107 172.852 173.676 169.408 
170.34 171.448 172.269 173.223 173.885 174.754 168.86 169.689 170.859 
171.686 172.745 173.461 174.417 175.048 175.927 168.543 169.263 170.405 
171.171 172.224 172.972 173.955 174.683 175.62 176.232 177.036 168.367 
168.997 170.048 170.735 171.694 172.417 173.353 174.142 175.101 175.85 
176.707 177.282 178.003 168.242 168.801 169.721 170.338 171.198 171.867 
172.762 173.525 174.496 175.282 176.186 176.863 177.62 178.184 178.867 
168.127 168.62 169.436 169.979 170.779 171.381 172.271 172.983 173.985 
174.735 175.679 176.344 177.128 177.727 178.437 179.012 179.679 168.06 
168.479 169.256 169.721 170.511 171.027 171.905 172.547 173.552 174.279 
175.255 175.905 176.709 177.267 177.98 178.55 179.255 179.808 180.433 
168.322 169.206 168.991 169.508 170.253 169.965 170.477 170.235 170.774 
171.383 171.058 171.57 171.279 171.832 171.57 172.185 172.576 172.217 
172.713 172.392 172.955 172.687 173.346 173.106 173.832 173.823 173.463 
173.999 173.608 174.196 173.865 174.562 174.312 175.064 174.823 175.519 
175.078 174.76 175.409 175.008 175.666 175.245 175.968 175.616 176.367 
176.065 176.726 176.421 176.96 176.343 176.055 176.774 176.448 177.145 
176.766 177.462 177.086 177.781 177.414 178.028 177.642 178.148 177.771 
178.233 177.569 177.32 178.026 177.768 178.437 178.142 178.757 178.457 
179.05 178.749 179.297 178.942 179.42 179.011 179.459 179.057 179.509 
178.638 178.462 179.133 178.945 179.586 179.336 179.888 179.605 180.109 
179.854 180.353 180.096 180.561 180.24 180.658 180.286 180.68 180.305 
180.676 179.391 180.743 180.012 179.93 182.118 181.399 181.305 180.566 
180.411 183.275 182.673 182.549 181.9 181.715 180.965 180.692 184.331 
183.72 183.578 183.008 182.838 182.193 181.915 181.164 180.865 185.673 
184.907 184.766 184.049 183.919 183.278 183.103 182.385 182.117 181.348 
181.091 186.993 186.335 186.171 185.369 185.185 184.453 184.322 183.614 
183.411 182.633 182.356 181.584 181.31 187.683 187.368 187.114 186.576 
186.221 185.632 185.353 184.775 184.514 183.858 183.527 182.803 182.458 
181.737 181.406 187.882 187.732 187.405 187.102 186.612 186.268 185.831 
185.504 185.158 184.746 184.381 183.818 183.42 182.784 182.413 181.756 
181.402 188.029 187.863 187.555 187.248 186.759 186.427 185.98 185.727 
185.43 185.189 184.935 184.54 184.201 183.645 183.258 182.662 182.295 
181.692 181.341 179.332 179.772 179.93 180.719 180.378 180.529 181.405 
181.436 182.178 180.868 181.2 182.182 182.236 182.944 182.856 183.397 
180.837 181.45 182.423 182.823 183.473 183.54 183.987 183.933 184.421 
180.412 181.051 181.821 182.581 183.203 183.695 184.126 184.351 184.874 
184.998 185.674 180.076 180.469 180.994 181.708 182.383 183.119 183.733 
184.249 184.875 185.275 186.018 186.293 186.951 179.864 180.124 180.537 
181.014 181.771 182.427 183.293 183.864 184.626 185.121 185.845 186.341 
186.973 187.307 187.665 179.543 179.867 180.32 180.73 181.528 182.092 
183.047 183.592 184.385 184.848 185.463 185.965 186.505 187.016 187.417 
187.731 187.9 179.143 179.536 180.096 180.555 181.359 181.922 182.797 
183.358 184.055 184.537 185.04 185.504 185.946 186.445 186.867 187.327 
187.649 187.908 188.055 178.553 177.421 178.283 178.905 176.14 177.064 
177.63 178.608 179.324 174.754 175.688 176.166 177.184 177.778 178.94 
179.663 173.381 174.265 174.669 175.635 176.135 177.259 177.909 179.15 
179.742 172.117 172.945 173.355 174.195 174.649 175.622 176.242 177.403 
178.12 179.217 179.673 170.912 171.748 172.235 173.013 173.466 174.261 
174.811 175.819 176.597 177.736 178.483 179.323 179.668 169.677 170.54 
171.06 171.918 172.416 173.185 173.672 174.502 175.172 176.258 177.101 
178.186 178.782 179.424 179.572 168.508 169.302 169.785 170.68 171.217 
172.096 172.631 173.439 174.017 174.918 175.634 176.729 177.401 178.369 
178.654 179.216 179.183 167.545 168.214 168.675 169.452 169.994 170.864 
171.474 172.363 172.991 173.837 174.444 175.338 175.908 176.873 177.251 
178.064 178.142 178.699 178.665 167.202 167.107 167.556 168.36 167.088 
167.574 168.479 168.817 169.673 167.177 167.685 168.738 169.047 169.934 
170.223 171.154 167.415 167.894 169.028 169.364 170.283 170.544 171.473 
171.793 172.742 167.776 168.187 169.288 169.649 170.56 170.857 171.752 
172.106 173.052 173.367 174.223 168.238 168.547 169.574 169.902 170.811 
171.108 171.977 172.325 173.22 173.594 174.422 174.737 175.526 168.769 
168.986 169.923 170.201 171.11 171.392 172.264 172.553 173.387 173.707 
174.47 174.811 175.529 175.929 176.688 169.265 169.451 170.28 170.535 
171.398 171.696 172.545 172.832 173.603 173.87 174.564 174.844 175.503 
175.846 176.511 176.953 177.594 169.675 169.854 170.609 170.85 171.658 
171.952 172.753 173.049 173.767 174.034 174.686 174.949 175.591 175.865 
176.497 176.8 177.394 177.746 178.259 170.129 171.216 170.782 171.083 
172.496 171.981 172.282 171.818 172.151 173.796 173.29 173.57 173.077 
173.365 172.904 173.212 175.071 174.553 174.818 174.342 174.601 174.117 
174.351 173.907 174.166 176.476 175.875 176.148 175.61 175.909 175.377 
175.618 175.077 175.299 174.832 175.084 177.938 177.347 177.645 177.046 
177.376 176.777 177.054 176.428 176.648 176.06 176.297 175.787 176.031 
179.227 178.753 179.065 178.548 178.865 178.292 178.539 177.9 178.074 
177.448 177.638 177.075 177.281 176.747 176.939 180.358 179.953 180.264 
179.85 180.163 179.696 179.926 179.342 179.465 178.836 178.975 178.403 
178.582 178.024 178.168 177.617 177.768 181.447 181.06 181.365 180.974 
181.286 180.89 181.153 180.656 180.795 180.189 180.303 179.718 179.903 
179.34 179.494 178.881 178.966 178.404 178.543 179.101 179.626 179.622 
180.223 180.234 180.28 180.976 180.924 181.601 180.645 180.821 181.52 
181.63 182.287 182.31 182.943 181.017 181.175 181.849 182.018 182.621 
182.78 183.353 183.492 184.043 181.503 181.611 182.312 182.392 183.048 
183.108 183.734 183.82 184.42 184.504 185.018 181.859 182.069 182.789 
182.924 183.636 183.681 184.382 184.375 185.036 184.995 185.553 185.492 
185.955 181.993 182.303 183.01 183.286 183.961 184.177 184.821 184.981 
185.584 185.646 186.152 186.099 186.522 186.439 186.851 182.08 182.396 
183.104 183.408 184.053 184.33 184.917 185.192 185.754 185.986 186.481 
186.584 186.994 186.984 187.357 187.307 187.646 182.149 182.477 183.17 
183.481 184.11 184.378 184.965 185.227 185.844 186.095 186.693 186.846 
187.329 187.373 187.747 187.741 188.021 187.975 188.126 158.784 159.346 
158.905 158.764 159.966 159.478 159.156 158.883 158.847 160.644 160.079 
159.665 159.23 158.978 158.869 158.961 161.655 160.926 160.631 159.934 
159.703 159.184 159.222 159.108 159.525 162.97 162.151 162.009 161.219 
161.19 160.371 160.476 159.847 160.267 160.06 160.78 164.454 163.581 
163.449 162.696 162.742 162.026 162.144 161.412 161.669 161.153 161.714 
161.548 162.304 166.101 165.188 165.07 164.204 164.21 163.5 163.59 
162.948 163.069 162.52 162.847 162.556 163.164 163.078 163.776 167.696 
166.9 166.886 165.969 165.999 165.105 165.234 164.429 164.626 163.908 
164.234 163.721 164.284 164.018 164.706 164.55 165.188 169.006 168.414 
168.494 167.762 167.851 167.004 167.174 166.297 166.59 165.725 166.139 
165.365 165.925 165.356 166.011 165.627 166.237 165.953 166.469 158.558 
158.605 158.52 158.65 158.887 158.764 158.908 158.88 159.314 159.191 
159.139 159.403 159.296 159.669 159.716 160.293 159.767 159.581 159.977 
159.852 160.238 160.163 160.681 160.763 161.375 160.918 160.44 160.843 
160.567 161.02 160.816 161.31 161.25 161.866 161.909 162.515 162.388 
161.77 162.073 161.624 162.058 161.73 162.209 161.993 162.553 162.487 
163.099 163.085 163.654 163.831 163.217 163.446 162.92 163.27 162.857 
163.287 162.968 163.449 163.252 163.789 163.703 164.256 164.221 164.782 
165.173 164.591 164.792 164.261 164.569 164.103 164.49 164.087 164.52 
164.202 164.682 164.468 164.982 164.855 165.395 165.356 165.943 166.391 
165.861 166.033 165.547 165.832 165.385 165.741 165.311 165.7 165.311 
165.749 165.438 165.921 165.68 166.185 166.026 166.567 166.523 167.108 
158.709 158.839 158.861 159.326 159.513 159.268 159.686 159.722 160.306 
160.457 160.08 160.375 160.226 160.702 160.746 161.292 161.465 161.018 
161.197 160.932 161.322 161.241 161.78 161.787 162.422 162.532 162.016 
162.134 161.762 162.165 161.991 162.649 162.519 163.238 163.134 163.933 
163.668 163.116 163.217 162.751 163.145 162.931 163.67 163.562 164.353 
164.158 164.897 164.777 165.638 164.868 164.322 164.486 163.933 164.271 
163.948 164.598 164.535 165.29 165.216 165.878 165.754 166.495 166.5 
167.435 166.11 165.61 165.914 165.336 165.706 165.193 165.737 165.465 
166.149 166.037 166.712 166.627 167.359 167.351 168.26 168.338 169.317 
167.304 166.888 167.292 166.818 167.275 166.74 167.273 166.782 167.422 
167.06 167.777 167.541 168.342 168.245 169.164 169.186 170.132 170.184 
171.026 178.115 176.998 177.369 176.944 175.726 176.132 175.676 176.117 
175.669 174.475 174.834 174.356 174.792 174.377 174.813 174.349 173.29 
173.623 173.139 173.513 173.097 173.525 173.102 173.49 173.01 172.071 
172.426 171.914 172.294 171.811 172.24 171.769 172.204 171.707 172.125 
171.667 170.849 171.179 170.623 171.003 170.455 170.882 170.345 170.803 
170.275 170.743 170.258 170.764 170.376 169.699 169.97 169.395 169.718 
169.169 169.526 168.994 169.386 168.894 169.325 168.88 169.345 168.956 
169.482 169.154 168.646 168.851 168.266 168.539 168.005 168.312 167.805 
168.13 167.673 168.045 167.654 168.059 167.698 168.13 167.801 168.299 
168.028 167.751 167.861 167.262 167.462 166.926 167.197 166.697 166.999 
166.535 166.884 166.487 166.886 166.528 166.936 166.596 167.029 166.752 
167.253 167.065 
POINT_DATA 1002
SCALARS Distance double
LOOKUP_TABLE default
170.484 169.518 169.297 170.397 169.236 171.688 170.502 169.372 171.732 
173.024 170.754 169.59 171.913 173.147 174.301 171.024 169.807 172.172 
173.369 174.567 175.624 171.331 170.122 172.507 173.691 174.936 176.087 
177.097 171.739 170.574 172.945 174.137 175.356 176.541 177.58 178.485 
172.225 171.099 173.431 174.621 175.787 176.925 177.96 178.866 179.659 
172.777 171.699 173.942 175.076 176.158 177.25 178.282 179.196 180.021 
180.755 173.364 172.377 174.454 175.518 176.493 177.506 178.553 179.495 
180.338 181.129 181.822 168.38 168.116 166.965 166.731 165.347 168.036 
165.227 163.792 166.693 168.131 163.735 162.392 165.277 166.771 168.28 
162.377 161.242 163.835 165.396 166.921 168.522 161.402 160.488 162.553 
164.021 165.622 167.278 168.972 160.709 159.863 161.629 162.795 164.325 
166.063 167.846 169.543 159.97 159.153 160.892 161.873 163.165 164.824 
166.644 168.46 170.158 159.349 158.661 160.27 161.227 162.351 163.792 
165.449 167.257 169.138 170.887 158.994 159.772 159.869 160.61 160.869 
160.713 161.581 161.82 161.55 161.787 162.746 163.094 162.715 162.814 
163.127 164.318 164.752 164.185 164.143 164.204 164.621 166.163 166.541 
165.93 165.696 165.488 165.647 166.324 168.115 168.429 167.877 167.61 
167.29 167.234 167.675 168.411 170.027 170.27 169.838 169.685 169.496 
169.425 169.676 170.122 170.539 171.64 171.781 171.525 171.447 171.352 
171.321 171.536 171.892 172.138 172.256 173.637 173.553 174.723 173.394 
174.481 175.626 173.005 174.062 175.32 176.714 172.557 173.44 174.839 
176.603 178.001 172.451 173.057 174.253 176.259 177.896 178.941 172.645 
173.256 174.04 175.764 177.494 178.54 179.489 172.812 173.67 174.319 
175.519 177.056 178.098 178.955 180.088 172.885 173.908 174.679 175.591 
176.861 177.925 178.661 179.617 180.809 172.943 173.992 174.911 175.794 
176.88 177.973 178.712 179.392 180.367 181.46 174.643 175.74 175.725 
176.75 176.832 176.738 177.958 177.969 177.938 177.747 179.17 179.257 
179.254 179.106 178.849 180.04 180.378 180.508 180.45 180.216 179.884 
180.738 181.196 181.457 181.575 181.461 181.161 180.781 181.459 181.918 
182.22 182.498 182.584 182.366 182.03 181.634 182.122 182.625 182.975 
183.328 183.569 183.467 183.169 182.852 182.416 182.503 183.194 183.677 
184.465 184.996 183.731 185.78 186.128 185.045 184.156 186.62 186.747 
186.152 185.337 184.448 187.004 187.077 186.852 186.257 185.337 184.418 
187.454 187.487 187.509 187.229 186.254 185.11 184.139 188.008 187.939 
188.079 188.038 187.28 185.959 184.801 183.852 188.318 188.197 188.257 
188.119 187.617 186.544 185.373 184.421 183.474 188.247 188.192 188.079 
187.758 187.276 186.498 185.555 184.695 183.844 182.862 181.402 182.517 
181.432 182.614 181.666 183.779 182.837 182.011 183.825 185.051 183.04 
182.218 183.866 184.919 186.084 183.104 182.192 183.98 184.851 185.922 
186.756 183.001 182.031 184.092 184.989 185.798 186.618 187.143 182.743 
181.807 183.909 184.981 185.629 186.169 186.795 187.404 182.384 181.482 
183.423 184.521 185.253 185.608 186.073 186.831 187.649 181.946 181.016 
182.873 183.858 184.716 185.22 185.599 186.233 187.109 187.864 172.652 
173.775 173.515 174.709 174.493 174.878 175.811 175.633 175.971 175.945 
176.937 176.777 177.138 177.186 177.029 177.972 177.791 178.175 178.351 
178.319 178.151 179.002 178.708 179.202 179.37 179.396 179.24 178.989 
179.988 179.561 180.248 180.397 180.389 180.172 179.862 179.579 180.811 
180.336 181.117 181.302 181.369 181.212 180.854 180.521 180.368 171.031 
172.022 170.116 171.278 169.185 173.027 170.559 168.483 172.51 174.141 
170.029 168.07 171.992 173.74 175.377 169.693 167.867 171.494 173.19 
174.942 176.548 169.433 167.801 171.019 172.571 174.303 176.066 177.514 
169.169 167.757 170.563 172.012 173.708 175.486 177.015 178.336 168.936 
167.69 170.205 171.57 173.234 175.021 176.539 177.837 179.143 168.813 