# vtk DataFile Version 4.0
vtk output
ASCII
DATASET POLYDATA
POINTS 1002 float
-118.546 -113.411 53.8286 -118.337 -112.475 52.6797 -117.842 -112.739 53.084 
-118.064 -113.675 54.4526 -117.334 -113.068 53.6526 -118.729 -114.29 55.3209 
-117.546 -114.01 55.1803 -116.71 -113.479 54.3147 -118.262 -114.52 56.0889 
-118.888 -115.147 56.9446 -116.895 -114.444 55.9022 -116.02 -113.933 55.0662 
-117.714 -114.927 56.8211 -118.392 -115.501 57.7417 -119.064 -116.27 58.4894 
-116.262 -114.996 56.6026 -115.493 -114.503 55.8145 -117.081 -115.551 57.4516 
-117.821 -116.113 58.4744 -118.571 -116.799 59.3942 -119.324 -117.589 60.0901 
-115.818 -115.76 57.243 -115.116 -115.281 56.4167 -116.566 -116.335 58.0822 
-117.277 -116.86 59.1784 -118.054 -117.4 60.3216 -118.904 -118.113 61.1078 
-119.573 -118.928 61.6494 -115.417 -116.597 57.9038 -114.715 -116.107 56.998 
-116.161 -117.154 58.8421 -116.854 -117.617 59.963 -117.568 -118.025 61.2095 
-118.403 -118.669 62.0571 -119.138 -119.573 62.4923 -119.621 -120.482 62.8523 
-115.013 -117.264 58.7361 -114.348 -116.825 57.7475 -115.716 -117.804 59.7893 
-116.416 -118.312 60.8572 -117.098 -118.787 61.9944 -117.831 -119.464 62.8448 
-118.537 -120.423 63.2054 -119.076 -121.391 63.4878 -119.517 -122.152 63.8392 
-114.736 -117.848 59.6466 -114.122 -117.497 58.6183 -115.318 -118.377 60.7469 
-115.923 -118.983 61.739 -116.586 -119.636 62.6671 -117.256 -120.463 63.4721 
-117.872 -121.448 63.8935 -118.407 -122.376 64.1233 -118.906 -123.054 64.4847 
-119.426 -123.517 64.8315 -114.543 -118.486 60.4718 -113.962 -118.164 59.4862 
-115.019 -119.067 61.5111 -115.471 -119.794 62.4389 -116.05 -120.526 63.2494 
-116.698 -121.371 64.0235 -117.253 -122.329 64.6034 -117.725 -123.186 64.8998 
-118.213 -123.8 65.1768 -118.76 -124.185 65.5372 -119.327 -124.472 65.7792 
-117.777 -111.771 51.8338 -117.255 -112.021 52.1759 -117.167 -111.235 50.8327 
-116.579 -111.42 51.1556 -116.453 -110.76 49.8104 -116.659 -112.349 52.6846 
-115.775 -110.817 50.3093 -115.644 -109.904 49.2186 -115.895 -111.639 51.7373 
-115.937 -112.807 53.3462 -114.998 -109.885 49.9829 -114.957 -108.597 49.1439 
-115.093 -110.891 51.1357 -115.157 -112.09 52.4936 -115.266 -113.386 54.1501 
-114.443 -108.773 49.9109 -114.482 -107.473 49.1598 -114.427 -109.987 50.8876 
-114.406 -111.293 51.9664 -114.527 -112.793 53.2993 -114.804 -114.104 54.9294 
-113.859 -107.972 49.7533 -113.934 -106.858 49.0878 -113.829 -109.124 50.6465 
-113.716 -110.414 51.6093 -113.719 -112.03 52.6663 -114.024 -113.623 54.0797 
-114.396 -114.944 55.5915 -112.987 -107.459 49.6365 -113.15 -106.383 49.0671 
-112.975 -108.507 50.4548 -112.956 -109.676 51.3349 -112.889 -111.199 52.2104 
-113.107 -112.907 53.4185 -113.555 -114.471 54.887 -113.955 -115.789 56.2918 
-112.129 -106.93 49.6934 -112.368 -105.807 49.2417 -112.036 -107.992 50.4497 
-112.088 -109.136 51.2932 -112.109 -110.539 52.0212 -112.269 -112.095 52.9674 
-112.708 -113.705 54.3379 -113.177 -115.307 55.7564 -113.62 -116.611 57.1257 
-111.638 -106.387 49.9996 -111.85 -105.302 49.7336 -111.474 -107.447 50.6001 
-111.434 -108.616 51.4155 -111.464 -110.008 52.1371 -111.644 -111.38 52.8545 
-112.086 -112.735 53.9611 -112.567 -114.419 55.3343 -112.96 -116.176 56.67 
-113.428 -117.42 58.0392 -111.502 -105.664 50.6588 -111.357 -106.678 50.9398 
-111.327 -106.125 51.9584 -111.222 -107.09 52.3223 -111.111 -106.669 53.6273 
-111.205 -107.818 51.595 -110.996 -107.901 54.2244 -110.945 -107.633 55.5322 
-110.992 -108.505 53.0493 -111.074 -109.297 52.4118 -110.863 -109.242 56.3101 
-111.047 -109.045 57.348 -110.792 -109.619 54.978 -110.881 -110.154 53.8251 
-111.179 -110.752 53.132 -111.128 -110.511 57.9494 -111.416 -110.299 58.7317 
-110.962 -110.809 56.8319 -111.06 -111.036 55.5704 -111.366 -111.29 54.5655 
-111.703 -111.884 54.0233 -111.918 -111.428 58.8951 -112.202 -111.33 59.4968 
-111.71 -111.742 58.0925 -111.697 -111.985 57.1715 -111.92 -112.028 56.2857 
-112.139 -112.45 55.5935 -112.284 -113.433 55.2851 -113.11 -112.636 59.4321 
-113.389 -112.637 59.8405 -112.866 -112.886 58.9003 -112.599 -113.253 58.4 
-112.467 -113.415 57.9301 -112.475 -113.738 57.3638 -112.484 -114.631 56.8584 
-112.602 -115.619 56.6472 -114.114 -114.265 60.0765 -114.404 -114.17 60.3048 
-113.864 -114.511 59.7438 -113.45 -114.866 59.494 -112.927 -115.109 59.3515 
-112.576 -115.431 59.0553 -112.468 -116.188 58.5655 -112.578 -117.038 58.1771 
-112.929 -117.444 58.0283 -114.521 -115.76 61.1048 -114.871 -115.54 61.1864 
-114.236 -116.07 60.9231 -113.854 -116.391 60.7779 -113.268 -116.566 60.7388 
-112.699 -116.794 60.6028 -112.426 -117.426 60.2336 -112.507 -118.189 59.8302 
-112.887 -118.539 59.5826 -113.433 -118.43 59.4844 -114.109 -119.031 60.9545 
-113.516 -119.307 61.0594 -114.028 -120.165 62.4823 -112.906 -119.463 61.2407 
-113.408 -120.425 62.7435 -113.752 -121.597 64.1156 -112.512 -119.143 61.5318 
-112.825 -120.609 63.0401 -113.147 -121.943 64.5164 -113.444 -123.057 65.9024 
-112.49 -118.392 61.9478 -112.492 -120.248 63.4398 -112.585 -122.111 64.9339 
-112.757 -123.483 66.3225 -112.985 -124.34 67.6275 -112.854 -117.865 62.2778 
-112.542 -119.472 63.9102 -112.295 -121.555 65.4459 -112.108 -123.39 66.7952 
-112.11 -124.633 68.0332 -112.256 -125.489 69.1911 -113.407 -117.748 62.3581 
-112.928 -119.041 64.148 -112.474 -120.771 65.8183 -111.91 -122.601 67.2716 
-111.493 -124.181 68.5517 -111.405 -125.518 69.7107 -111.519 -126.484 70.7531 
-113.885 -117.568 62.3651 -113.443 -118.916 64.0936 -113.035 -120.456 65.7846 
-112.344 -122.017 67.3853 -111.565 -123.404 68.9352 -111.136 -124.903 70.2899 
-110.969 -126.303 71.3723 -110.873 -127.258 72.235 -114.277 -117.215 62.4192 
-113.956 -118.644 63.9774 -113.722 -120.258 65.5314 -113.145 -121.855 67.1278 
-112.196 -123.051 68.8857 -111.516 -124.227 70.5807 -111.139 -125.658 71.8802 
-110.677 -126.917 72.7887 -110.224 -127.819 73.4243 -114.702 -116.894 62.4318 
-114.469 -118.294 63.8667 -114.363 -119.887 65.2769 -113.971 -121.56 66.7866 
-113.02 -122.858 68.5633 -112.151 -123.833 70.4234 -111.727 -124.974 71.9842 
-111.213 -126.236 73.0887 -110.397 -127.302 73.8381 -109.765 -128.153 74.3087 
-114.593 -119.646 61.9486 -114.38 -121.151 63.4455 -114.957 -120.57 62.8959 
-114.082 -122.626 65.2049 -114.742 -122.214 64.4159 -115.423 -121.444 63.7651 
-113.761 -123.853 67.1185 -114.48 -123.521 66.301 -115.28 -123.014 65.382 
-116.064 -122.21 64.6208 -113.18 -125.086 68.7916 -114.02 -124.716 68.1117 
-114.892 -124.35 67.1765 -115.836 -123.737 66.2466 -116.64 -123.053 65.3918 
-112.396 -126.312 70.3306 -113.317 -126.018 69.6555 -114.21 -125.73 68.7225 
-115.243 -125.167 67.7891 -116.27 -124.447 66.8708 -117.083 -123.845 65.8634 
-111.58 -127.318 71.8579 -112.553 -127.13 71.2115 -113.503 -126.876 70.2539 
-114.556 -126.422 69.2405 -115.724 -125.693 68.2741 -116.752 -124.994 67.2122 
-117.561 -124.434 66.1179 -110.685 -128.137 73.1187 -111.69 -128.115 72.5641 
-112.819 -127.775 71.737 -113.987 -127.246 70.7915 -115.253 -126.646 69.7896 
-116.402 -126.027 68.6295 -117.339 -125.421 67.4276 -118.127 -124.829 66.3917 
-109.942 -128.728 74.0409 -110.854 -129.01 73.5017 -112.118 -128.778 72.7606 
-113.448 -128.088 72.0011 -114.834 -127.366 71.2175 -116.082 -126.85 70.1553 
-117.06 -126.34 68.8476 -117.933 -125.719 67.6331 -118.728 -125.086 66.6406 
-109.704 -128.719 74.9048 -110.247 -129.389 74.4345 -110.636 -129.028 75.2964 
-111.577 -129.576 74.62 -112.462 -128.934 75.4461 -111.474 -129.625 73.6416 
-113.498 -129.223 74.656 -114.384 -128.768 75.3551 -112.879 -129.651 73.6682 
-112.91 -129.172 72.82 -115.28 -129.004 74.4661 -116.073 -128.858 75.0682 
-114.584 -129.315 73.6474 -114.234 -129.219 72.8326 -114.411 -128.312 72.171 
-116.951 -129.214 74.1073 -117.68 -128.873 74.7061 -116.28 -129.336 73.4286 
-115.793 -129.227 72.7361 -115.666 -128.534 72.1575 -115.837 -127.597 71.3875 
-118.513 -129.249 73.8164 -118.978 -128.516 74.3061 -118.015 -129.616 73.1602 
-117.477 -129.416 72.4992 -117.057 -128.657 71.9566 -116.873 -127.755 71.2905 
-116.913 -127.037 70.175 -119.646 -128.812 73.4931 -119.961 -128.018 73.7942 
-119.389 -129.472 72.9461 -118.98 -129.478 72.2968 -118.453 -128.656 71.7393 
-118.005 -127.632 71.0982 -117.795 -126.951 70.0515 -117.833 -126.394 68.775 
-120.608 -128.198 72.9485 -121.013 -127.584 73.2025 -120.319 -128.822 72.4906 
-119.976 -129.062 71.9314 -119.53 -128.504 71.4266 -119.12 -127.519 70.8186 
-118.851 -126.797 69.8053 -118.769 -126.314 68.5648 -118.781 -125.741 67.4975 
-121.708 -127.644 72.2905 -122.131 -127.184 72.606 -121.3 -128.077 71.7739 
-120.868 -128.33 71.2078 -120.42 -128.073 70.7434 -120.073 -127.407 70.212 
-119.865 -126.829 69.2906 -119.751 -126.414 68.1016 -119.681 -125.866 67.0963 
-119.553 -125.167 66.3945 -110.095 -127.74 74.7931 -110.308 -128.13 75.42 
-111.098 -127.094 75.0298 -111.636 -127.295 75.5898 -112.354 -126.289 74.9691 
-111.567 -128.298 75.7644 -113.094 -126.274 75.4583 -113.415 -125.428 74.7018 
-112.982 -127.397 75.7787 -113.439 -128.326 75.8135 -114.28 -125.266 75.1791 
-114.39 -124.715 74.1451 -114.41 -126.269 75.5463 -114.663 -127.515 75.7808 
-115.267 -128.423 75.7262 -115.408 -124.632 74.5196 -115.548 -124.238 73.0657 
-115.663 -125.234 75.2033 -115.992 -126.308 75.5246 -116.422 -127.55 75.8174 
-117.038 -128.411 75.5269 -116.61 -124.303 73.2073 -116.729 -123.789 71.6542 
-116.778 -124.668 74.4281 -117.145 -125.258 75.0129 -117.603 -126.272 75.4527 
-118.136 -127.324 75.6031 -118.581 -128.044 75.082 -117.681 -123.853 71.6168 
-117.682 -123.131 70.4251 -117.753 -124.273 73.0576 -117.966 -124.622 74.1093 
-118.37 -125.297 74.6537 -118.945 -126.189 75.0152 -119.42 -126.963 74.9485 
-119.682 -127.557 74.4192 -118.495 -123.086 70.3389 -118.383 -122.245 69.5584 
-118.593 -123.662 71.5314 -118.691 -124.016 72.8389 -118.912 -124.549 73.6587 
-119.41 -125.303 74.0902 -120.042 -125.993 74.3235 -120.482 -126.606 74.1692 
-120.739 -127.173 73.7313 -119.085 -122.102 69.4874 -118.903 -121.28 68.8656 
-119.282 -122.791 70.3466 -119.444 -123.255 71.5093 -119.608 -123.74 72.5143 
[...]
CELL_DATA 2000
SCALARS Distance double
LOOKUP_TABLE default
170.907 170.92 171.291 172.067 170.986 171.352 172.139 172.484 173.261 
171.054 171.428 172.242 172.588 173.384 173.711 174.538 171.222 171.533 
172.388 172.723 173.581 173.896 174.785 175.1 176.03 171.606 171.818 
172.713 172.971 173.896 174.17 175.116 175.416 176.395 176.694 177.642 
172.09 172.284 173.201 173.417 174.364 174.583 175.534 175.792 176.771 
177.074 178.044 178.314 179.197 172.564 172.766 173.678 173.919 174.855 
175.083 176.013 176.243 177.201 177.47 178.447 178.717 179.636 179.846 
180.659 173.099 173.255 174.155 174.376 175.303 175.542 176.474 176.716 
177.684 177.939 178.924 179.163 180.088 180.291 181.109 181.267 181.976 
173.707 173.823 174.702 174.878 175.797 176.002 176.934 177.168 178.139 
178.413 179.39 179.646 180.527 180.73 181.484 181.66 182.31 182.468 
183.03 170.167 169.054 169.767 170.137 167.934 168.633 168.949 169.739 
170.157 166.729 167.47 167.728 168.508 168.892 169.75 170.204 165.428 
166.219 166.501 167.269 167.631 168.473 168.967 169.84 170.378 164.243 
164.972 165.329 166.067 166.444 167.238 167.754 168.64 169.264 170.128 
170.76 163.296 163.914 164.274 164.961 165.328 166.073 166.547 167.433 
168.086 169.03 169.724 170.589 171.241 162.415 162.995 163.272 163.933 
164.262 164.97 165.376 166.208 166.813 167.805 168.548 169.523 170.23 
171.083 171.73 161.532 162.075 162.312 162.929 163.262 163.934 164.349 
165.082 165.635 166.534 167.277 168.3 169.104 170.059 170.798 171.616 
172.295 160.863 161.279 161.571 162.061 162.451 163.035 163.526 164.168 
164.731 165.464 166.154 167.069 167.909 168.922 169.786 170.708 171.491 
172.259 172.949 160.779 161.167 161.091 161.468 161.819 161.59 161.894 
161.849 162.343 162.786 162.378 162.69 162.437 162.899 162.85 163.45 
164.208 163.593 163.933 163.439 163.867 163.581 164.13 164.048 164.687 
165.791 165.157 165.467 164.858 165.216 164.719 165.173 164.87 165.461 
165.359 166.093 167.287 166.689 166.997 166.411 166.774 166.188 166.61 
166.092 166.648 166.32 167.081 166.955 167.857 168.961 168.258 168.679 
168.017 168.514 167.857 168.377 167.715 168.299 167.75 168.519 168.178 
169.107 168.91 169.828 170.824 170.098 170.605 169.888 170.464 169.751 
170.311 169.592 170.148 169.516 170.208 169.76 170.616 170.303 171.165 
170.886 171.628 172.49 171.911 172.367 171.787 172.284 171.677 172.12 
171.466 171.862 171.262 171.775 171.353 172.049 171.76 172.498 172.217 
172.865 172.555 173.107 173.95 173.759 174.292 175.16 173.469 174.082 
174.988 175.533 176.463 173.069 173.751 174.743 175.368 176.371 176.921 
177.907 172.759 173.358 174.388 175.092 176.189 176.843 177.881 178.395 
179.29 172.806 173.19 174.152 174.752 175.849 176.582 177.627 178.272 
179.133 179.636 180.351 173.09 173.38 174.268 174.656 175.66 176.254 
177.245 177.886 178.706 179.309 180.02 180.558 181.209 173.276 173.639 
174.51 174.848 175.793 176.217 177.166 177.601 178.402 178.867 179.618 
180.169 180.912 181.414 182.035 173.333 173.745 174.622 175.023 175.974 
176.406 177.378 177.715 178.516 178.768 179.508 179.893 180.704 181.172 
181.869 182.23 182.701 173.408 173.796 174.676 175.09 176.051 176.534 
177.536 177.95 178.767 178.997 179.658 179.918 180.661 181.062 181.789 
182.129 182.617 182.828 183.134 174.317 175.572 175.071 175.341 176.919 
176.401 176.741 176.182 176.462 178.344 177.813 178.2 177.645 177.973 
177.35 177.617 179.683 179.224 179.597 179.103 179.466 178.891 179.197 
178.547 178.836 180.771 180.449 180.811 180.417 180.774 180.318 180.647 
180.102 180.402 179.786 180.066 181.673 181.443 181.842 181.531 181.884 
181.521 181.84 181.422 181.698 181.223 181.466 180.926 181.13 182.456 
182.299 182.718 182.49 182.837 182.541 182.837 182.499 182.75 182.367 
182.575 182.15 182.33 181.852 182.002 183.028 182.978 183.384 183.279 
183.62 183.406 183.672 183.4 183.65 183.339 183.558 183.178 183.352 
182.931 183.087 182.637 182.768 183.401 183.422 183.834 183.846 184.234 
184.114 184.39 184.163 184.415 184.174 184.436 184.131 184.322 183.924 
184.055 183.64 183.765 183.344 183.448 183.705 184.48 184.104 184.212 
185.483 185.012 185.096 184.672 184.682 186.491 186.014 186.027 185.58 
185.517 185.043 184.871 187.442 186.947 186.887 186.444 186.353 185.873 
185.681 185.153 184.923 188.398 187.903 187.839 187.318 187.249 186.727 
186.576 186.01 185.782 185.223 184.977 189.113 188.826 188.863 188.371 
188.318 187.717 187.533 186.914 186.617 186.05 185.716 185.201 184.851 
189.373 189.351 189.477 189.277 189.232 188.765 188.457 187.827 187.353 
186.762 186.288 185.809 185.386 184.943 184.545 189.444 189.469 189.558 
189.589 189.516 189.359 188.977 188.542 187.942 187.383 186.803 186.3 
185.847 185.413 185.034 184.609 184.244 189.591 189.538 189.527 189.523 
189.388 189.35 188.983 188.767 188.199 187.809 187.236 186.789 186.338 
185.9 185.536 185.104 184.751 184.316 183.941 183.607 183.779 183.86 
184.333 184.02 184.092 184.562 184.722 185.34 184.109 184.293 184.782 
184.978 185.607 185.81 186.429 184.035 184.299 184.806 185.105 185.749 
186.056 186.746 186.917 187.474 183.991 184.242 184.763 185.064 185.697 
186.083 186.822 187.178 187.833 187.958 188.42 183.946 184.236 184.769 
185.046 185.613 185.964 186.632 187.104 187.786 188.16 188.62 188.756 
189.021 183.724 184.119 184.625 184.986 185.461 185.812 186.315 186.785 
187.37 187.899 188.366 188.714 188.933 189.104 189.219 183.305 183.774 
184.228 184.684 185.093 185.509 185.894 186.35 186.803 187.353 187.816 
188.3 188.606 188.891 189.057 189.214 189.343 182.761 183.258 183.672 
184.171 184.561 185.026 185.387 185.839 186.224 186.733 187.163 187.697 
188.084 188.509 188.792 189.055 189.268 189.399 189.554 173.76 174.757 
174.519 175.048 175.821 175.589 176.203 175.9 176.489 176.889 176.68 
177.354 177.109 177.742 177.424 177.989 178.01 177.76 178.399 178.203 
178.807 178.59 179.09 178.807 179.172 179.196 178.911 179.503 179.242 
179.802 179.564 180.02 179.763 180.105 179.797 180.054 180.243 180.046 
180.622 180.365 180.91 180.609 181.069 180.72 181.097 180.739 181.099 
180.722 181.07 181.039 180.957 181.504 181.367 181.866 181.667 182.093 
181.796 182.151 181.801 182.163 181.818 182.19 181.818 182.138 181.694 
181.659 182.184 182.112 182.561 182.453 182.816 182.655 182.946 182.738 
183.019 182.794 183.067 182.807 183.007 182.709 182.849 182.278 182.272 
182.801 182.747 183.2 183.087 183.437 183.274 183.538 183.37 183.616 
183.473 183.702 183.521 183.654 183.4 183.453 183.2 183.274 173.097 
172.326 173.183 174.083 171.478 172.415 173.388 174.199 175.105 170.624 
171.625 172.723 173.55 174.515 175.26 176.185 169.739 170.817 172.088 
172.994 174.073 174.768 175.742 176.414 177.369 168.891 169.93 171.296 
172.377 173.611 174.402 175.401 176.047 177.011 177.661 178.587 168.379 
169.157 170.443 171.543 172.883 173.871 174.931 175.67 176.572 177.266 
178.162 178.833 179.64 168.299 168.79 169.882 170.757 172.053 173.079 
174.234 175.098 176.016 176.75 177.603 178.321 179.132 179.781 180.467 
168.398 168.759 169.662 170.295 171.416 172.299 173.457 174.365 175.379 
176.165 177.054 177.758 178.583 179.24 179.972 180.55 181.157 168.497 
168.814 169.6 170.088 171.044 171.739 172.799 173.634 174.686 175.522 
176.49 177.235 178.094 178.738 179.485 180.062 180.703 181.22 181.763 
168.784 169.674 169.418 169.917 170.797 170.453 170.985 170.704 171.343 
172.067 171.696 172.273 171.905 172.54 172.259 173.019 173.393 173.027 
173.659 173.275 173.909 173.541 174.257 174.016 174.848 174.76 174.383 
175.011 174.653 175.277 174.917 175.585 175.292 176.076 175.873 176.678 
176.095 175.738 176.31 175.96 176.54 176.214 176.846 176.576 177.308 
177.1 177.863 177.645 178.316 177.282 176.995 177.553 177.225 177.79 
177.454 178.077 177.794 178.497 178.279 178.992 178.783 179.41 179.16 
179.685 178.332 178.102 178.689 178.427 179.034 178.725 179.36 179.048 
179.717 179.449 180.104 179.865 180.442 180.196 180.688 180.427 180.869 
179.349 179.125 179.717 179.511 180.139 179.924 180.554 180.299 180.9 
180.63 181.195 180.938 181.453 181.197 181.654 181.392 181.807 181.544 
181.922 180.136 181.449 180.679 180.484 182.773 181.998 181.808 181.064 
180.924 184.169 183.37 183.217 182.43 182.299 181.537 181.382 185.573 
184.824 184.708 183.9 183.737 182.923 182.726 181.947 181.72 186.719 
186.134 186.029 185.352 185.159 184.352 184.065 183.253 182.975 182.221 
181.966 187.677 187.152 187.046 186.508 186.336 185.665 185.358 184.565 
184.235 183.457 183.183 182.446 182.19 188.648 188.12 188.003 187.453 
187.277 186.697 186.421 185.752 185.416 184.691 184.383 183.653 183.37 
182.644 182.364 189.378 189.017 188.86 188.373 188.124 187.578 187.262 
186.685 186.332 185.732 185.386 184.762 184.435 183.773 183.455 182.772 
182.477 189.619 189.494 189.298 189.025 188.732 188.319 187.953 187.444 
187.041 186.506 186.12 185.599 185.251 184.712 184.381 183.787 183.467 
182.84 182.547 180.182 180.701 180.849 181.573 181.067 181.382 182.218 
182.261 182.912 181.168 181.641 182.578 182.84 183.573 183.602 184.261 
181.154 181.632 182.574 183.047 183.952 184.216 184.998 185.014 185.67 
181.17 181.594 182.518 183.021 184.122 184.581 185.639 185.792 186.536 
186.398 186.886 181.17 181.622 182.639 183.112 184.35 184.859 186.124 
186.445 187.335 187.272 187.738 187.489 187.847 181.123 181.639 182.775 
183.323 184.58 185.133 186.32 186.802 187.664 187.875 188.327 188.253 
188.556 188.399 188.757 181.06 181.603 182.728 183.384 184.534 185.181 
186.115 186.701 187.356 187.838 188.259 188.537 188.836 188.929 189.223 
189.208 189.459 180.963 181.499 182.497 183.184 184.175 184.869 185.608 
186.207 186.706 187.269 187.7 188.209 188.598 188.947 189.245 189.429 
189.611 189.657 189.701 179.378 178.171 179.091 179.747 176.899 177.771 
178.275 179.331 179.97 175.665 176.486 176.847 177.763 178.289 179.439 
180.063 174.34 175.244 175.631 176.412 176.825 177.785 178.443 179.571 
180.198 172.85 173.847 174.343 175.223 175.646 176.466 177.048 178.065 
178.793 179.8 180.331 171.401 172.332 172.822 173.836 174.336 175.265 
175.776 176.738 177.383 178.421 178.999 179.903 180.29 170.155 170.947 
171.358 172.301 172.819 173.84 174.375 175.383 175.944 176.983 177.545 
178.522 178.941 179.805 180.169 169.097 169.79 170.183 170.958 171.452 
172.368 172.95 173.936 174.523 175.524 176.099 177.082 177.587 178.468 
178.875 179.712 180.123 168.199 168.823 169.245 169.912 170.397 171.161 
171.744 172.616 173.241 174.162 174.77 175.707 176.28 177.177 177.668 
178.484 178.903 179.706 180.107 167.884 167.794 168.203 168.94 167.791 
168.17 168.974 169.335 170.124 167.971 168.267 169.112 169.44 170.29 
170.613 171.468 168.306 168.532 169.333 169.618 170.463 170.807 171.701 
172.039 172.939 168.669 168.868 169.596 169.835 170.626 170.97 171.888 
172.276 173.228 173.554 174.464 169.065 169.221 169.935 170.111 170.892 
171.168 172.122 172.498 173.527 173.869 174.831 175.1 175.979 169.548 
169.659 170.401 170.521 171.326 171.522 172.49 172.814 173.877 174.215 
175.203 175.478 176.359 176.591 177.383 170.082 170.18 170.942 171.051 
171.851 172.006 172.908 173.196 174.2 174.557 175.518 175.826 176.681 
176.939 177.719 177.93 178.634 170.631 170.722 171.481 171.602 172.378 
172.517 173.325 173.561 174.456 174.807 175.724 176.078 176.917 177.211 
177.977 178.225 178.938 179.135 179.806 171.192 172.348 171.856 172.054 
173.544 173.049 173.266 172.762 172.965 174.835 174.292 174.549 174.018 
174.247 173.697 173.918 176.318 175.685 175.974 175.381 175.665 175.062 
175.322 174.728 175.03 177.904 177.243 177.521 176.884 177.196 176.57 
176.88 176.235 176.548 175.937 176.28 179.44 178.818 179.082 178.446 
178.737 178.125 178.45 177.832 178.149 177.51 177.81 177.191 177.474 
180.89 180.32 180.605 179.99 180.28 179.664 179.984 179.383 179.703 
179.088 179.363 178.724 178.956 178.325 178.533 182.204 181.725 182.034 
181.484 181.789 181.201 181.525 180.924 181.252 180.632 180.918 180.265 
180.49 179.82 180.003 179.347 179.504 183.272 182.937 183.255 182.831 
183.127 182.636 182.935 182.412 182.727 182.168 182.464 181.834 182.07 
181.38 181.564 180.858 181.005 180.307 180.411 181.16 181.83 181.879 
182.681 182.422 182.54 183.361 183.453 184.26 182.945 183.112 183.913 
184.044 184.766 184.89 185.545 183.326 183.57 184.36 184.534 185.222 
185.322 185.914 186.012 186.573 183.536 183.838 184.585 184.861 185.564 
185.75 186.397 186.46 187.055 187.071 187.635 183.704 183.99 184.684 
184.977 185.643 185.954 186.63 186.887 187.526 187.631 188.178 188.166 
188.621 183.867 184.145 184.821 185.074 185.688 185.965 186.562 186.918 
187.508 187.86 188.358 188.571 188.94 189.002 189.277 183.928 184.244 
184.864 185.164 185.719 185.99 186.492 186.787 187.287 187.652 188.131 
188.484 188.852 189.095 189.337 189.457 189.608 183.855 184.193 184.714 
185.07 185.538 185.888 186.324 186.657 187.118 187.453 187.961 188.273 
188.727 188.952 189.245 189.387 189.534 189.634 189.681 160.545 161.279 
160.707 160.421 162.158 161.565 161.268 160.696 160.508 162.961 162.403 
162.082 161.54 161.246 160.785 160.702 163.885 163.222 162.916 162.335 
162.064 161.516 161.332 160.979 161.131 165.155 164.341 164.112 163.352 
163.21 162.504 162.419 161.795 161.926 161.616 162.131 166.548 165.765 
165.607 164.768 164.686 163.889 163.906 163.142 163.285 162.694 163.138 
162.886 163.582 167.778 167.133 167.031 166.288 166.208 165.445 165.469 
164.726 164.849 164.172 164.474 164.031 164.57 164.373 164.971 168.883 
168.305 168.26 167.631 167.603 166.922 166.972 166.282 166.418 165.728 
165.945 165.368 165.743 165.388 165.882 165.662 166.13 169.991 169.421 
169.42 168.837 168.867 168.262 168.35 167.741 167.904 167.272 167.475 
166.838 167.108 166.591 166.978 166.624 167.061 166.787 167.201 160.219 
159.987 159.947 159.908 160.129 159.884 159.797 159.862 160.221 160.538 
160.243 160.257 160.057 160.427 160.527 161.18 161.141 160.824 161.011 
160.74 161.108 160.997 161.597 161.681 162.331 162.18 161.673 161.926 
161.58 161.921 161.721 162.189 162.176 162.748 162.819 163.381 163.606 
162.958 163.179 162.653 162.945 162.56 162.931 162.759 163.273 163.274 
163.858 163.893 164.484 164.933 164.358 164.508 163.976 164.23 163.724 
164.052 163.643 164.107 163.909 164.511 164.459 165.082 165.071 165.674 
166.025 165.518 165.594 165.159 165.377 164.979 165.29 164.867 165.241 
164.89 165.388 165.207 165.783 165.71 166.27 166.245 166.775 167.077 
166.558 166.617 166.161 166.357 166.008 166.321 166 166.326 165.99 
166.351 166.1 166.557 166.421 166.918 166.84 167.322 167.283 167.754 
160.417 160.232 160.469 160.908 160.558 160.523 160.974 161.122 161.611 
161.4 161.084 161.407 161.332 161.763 161.894 162.511 162.445 162.016 
162.188 161.895 162.205 162.148 162.748 162.981 163.87 163.476 163.029 
163.181 162.769 163.025 162.752 163.296 163.349 164.251 164.541 165.513 
164.585 164.091 164.296 163.834 164.123 163.726 164.207 164.05 164.857 
165.007 165.977 166.194 167.071 165.769 165.268 165.476 164.998 165.271 
164.858 165.267 165.013 165.681 165.682 166.59 166.735 167.681 167.801 
168.719 166.871 166.435 166.625 166.166 166.381 165.963 166.316 166.032 
166.646 166.549 167.425 167.465 168.464 168.536 169.532 169.595 170.564 
167.86 167.484 167.705 167.281 167.514 167.073 167.447 167.107 167.773 
167.595 168.522 168.449 169.472 169.447 170.452 170.465 171.401 171.436 
172.275 178.874 177.843 178.161 177.744 176.782 177.113 176.681 176.995 
176.55 175.56 175.96 175.47 175.861 175.375 175.75 175.278 174.17 
174.612 174.076 174.535 173.995 174.444 173.905 174.363 173.846 172.772 
173.171 172.616 173.079 172.556 173.013 172.471 172.914 172.377 172.851 
172.348 171.467 171.806 171.224 171.635 171.109 171.568 171.058 171.504 
170.998 171.429 170.958 171.403 170.973 170.243 170.543 169.946 170.288 
169.712 170.123 169.585 170.062 169.568 170.058 169.592 170.062 169.637 
170.104 169.739 169.163 169.388 168.82 169.078 168.508 168.799 168.255 
168.631 168.164 168.624 168.194 168.672 168.244 168.738 168.367 168.901 
168.624 168.315 168.438 167.917 168.073 167.556 167.733 167.23 167.461 
167.039 167.367 167.014 167.381 167.015 167.398 167.053 167.527 167.288 
167.851 167.7 
POINT_DATA 1002
SCALARS Distance double
LOOKUP_TABLE default
171.664 170.551 170.508 171.703 170.553 172.837 171.801 170.607 172.916 
174.031 171.879 170.679 173.05 174.189 175.397 172.046 170.944 173.243 
174.452 175.717 176.978 172.467 171.407 173.628 174.819 176.083 177.39 
178.561 172.979 171.885 174.16 175.307 176.479 177.753 178.992 180.04 
173.438 172.373 174.621 175.788 176.949 178.18 179.41 180.509 181.431 
173.958 172.97 175.073 176.22 177.416 178.692 179.903 180.956 181.864 
182.636 174.545 173.61 175.607 176.716 177.871 179.134 180.346 181.335 
182.163 182.905 183.551 169.444 169.352 168.368 168.181 167.257 169.316 
166.974 165.958 168.032 169.331 165.726 164.601 166.804 168.059 169.514 
164.59 163.54 165.674 166.855 168.351 169.93 163.613 162.736 164.621 
165.692 167.097 168.813 170.432 162.638 161.874 163.569 164.6 165.839 
167.507 169.326 170.935 161.716 161.008 162.584 163.637 164.812 166.258 
168.07 169.92 171.543 161.115 160.47 161.886 162.886 164.059 165.324 
166.882 168.779 170.663 172.268 160.753 161.406 161.346 162.023 162.095 
162.259 163.022 163.249 163.033 163.409 164.515 164.865 164.269 164.305 
164.68 166.094 166.418 165.797 165.588 165.629 166.075 167.554 167.89 
167.346 167.183 167.061 167.258 167.912 169.332 169.661 169.151 169.045 
168.905 168.934 169.37 170.043 171.301 171.51 171.184 171.06 170.829 
170.713 170.984 171.5 171.955 172.923 173.037 172.879 172.792 172.512 
172.247 172.368 172.799 173.199 173.445 174.798 174.637 176.048 174.413 
175.919 177.427 174.043 175.777 177.423 178.877 173.666 175.461 177.334 
178.891 180.107 173.662 175.136 176.958 178.597 179.916 181.034 173.97 
175.177 176.674 178.11 179.419 180.729 181.868 174.161 175.404 176.804 
178.026 179.076 180.363 181.649 182.59 174.199 175.509 177.014 178.323 
179.208 180.245 181.506 182.455 183.061 174.267 175.566 177.081 178.518 
179.468 180.306 181.437 182.428 182.971 183.373 175.874 177.285 177.068 
178.732 178.587 178.268 180.069 179.994 179.822 179.505 181.177 181.192 
181.142 180.982 180.722 182.123 182.23 182.234 182.148 181.969 181.713 
182.912 183.123 183.163 183.119 182.99 182.772 182.51 183.436 183.807 
183.935 183.922 183.914 183.776 183.514 183.239 183.771 184.297 184.603 
184.637 184.69 184.709 184.485 184.169 183.889 183.971 184.571 184.898 
185.568 185.986 185.151 186.494 186.998 186.024 185.378 187.353 187.978 
186.819 186.221 185.447 188.382 188.836 187.787 187.144 186.367 185.535 
189.262 189.246 188.948 188.223 187.236 186.251 185.364 189.549 189.328 
189.625 189.125 188.024 186.803 185.814 184.984 189.532 189.474 189.596 
189.33 188.48 187.324 186.285 185.447 184.676 189.609 189.692 189.444 
189.127 188.495 187.626 186.762 185.972 185.193 184.386 183.479 184.131 
183.73 184.42 183.913 185.14 184.552 183.866 185.38 186.307 184.482 
183.76 185.389 186.485 187.45 184.487 183.73 185.325 186.382 187.604 
188.451 184.495 183.618 185.33 186.188 187.33 188.429 188.984 184.25 
183.31 185.137 185.919 186.84 187.942 188.732 189.086 183.767 182.839 
184.67 185.475 186.292 187.279 188.231 188.858 189.229 183.171 182.274 
184.08 184.937 185.751 186.631 187.583 188.44 189.081 189.498 173.978 
175.316 174.98 176.474 176.012 176.823 177.558 177.102 178.035 178.373 
178.623 178.308 179.022 179.37 179.536 179.805 179.48 180.085 180.307 
180.392 180.394 180.857 180.397 181.21 181.44 181.466 181.438 181.47 
181.62 181.104 182.04 182.355 182.488 182.504 182.551 182.552 182.256 
181.724 182.678 182.971 183.129 183.227 183.331 183.323 183.152 172.28 
173.294 171.406 172.547 170.483 174.328 171.847 169.545 173.778 175.444 
171.061 168.612 173.359 175.086 176.702 170.117 167.944 172.712 174.763 
176.358 177.975 169.411 167.784 171.801 174.139 175.893 177.468 179.046 
169.177 167.938 171.06 173.299 175.266 176.893 178.451 179.903 169.163 
168.096 170.648 172.541 174.533 176.339 177.932 179.37 180.646 169.186 
168.21 170.454 172.03 173.829 175.697 177.436 178.916 180.173 181.294 