# vtk DataFile Version 4.0
vtk output
ASCII
DATASET POLYDATA
POINTS 1002 float
-121.635 -115.445 53.4295 -121.523 -114.324 52.6654 -121.061 -114.491 53.0245 
-121.145 -115.681 53.8291 -120.617 -114.715 53.4513 -121.702 -116.654 54.3215 
-120.696 -115.986 54.3221 -120.158 -115.042 53.9532 -121.169 -117.022 54.8041 
-121.663 -117.947 55.4657 -120.267 -116.394 55.0039 -119.707 -115.483 54.6156 
-120.74 -117.459 55.4664 -121.148 -118.489 56.0922 -121.556 -119.498 56.7532 
-119.846 -116.93 55.8693 -119.321 -116.035 55.4124 -120.338 -117.982 56.3399 
-120.766 -119.094 56.8826 -121.084 -120.231 57.4123 -121.399 -121.404 57.8441 
-119.442 -117.615 56.7025 -118.941 -116.741 56.155 -119.859 -118.648 57.2253 
-120.323 -119.752 57.7478 -120.665 -120.941 58.195 -120.897 -122.169 58.5283 
-121.188 -123.226 58.9073 -118.988 -118.418 57.4251 -118.474 -117.607 56.8348 
-119.325 -119.452 57.9714 -119.723 -120.522 58.5173 -120.152 -121.599 59.0495 
-120.426 -122.736 59.4695 -120.678 -123.8 59.8229 -120.989 -124.617 60.2467 
-118.42 -119.26 58.168 -117.947 -118.545 57.5926 -118.752 -120.262 58.7024 
-119.073 -121.336 59.2318 -119.528 -122.307 59.834 -119.936 -123.241 60.4603 
-120.233 -124.17 60.9654 -120.514 -125.064 61.3057 -120.777 -125.833 61.5657 
-117.808 -120.049 58.9141 -117.414 -119.42 58.373 -118.157 -120.975 59.442 
-118.464 -122.023 59.9784 -118.87 -122.965 60.5715 -119.323 -123.848 61.2245 
-119.699 -124.674 61.8639 -120.007 -125.466 62.3199 -120.26 -126.299 62.5254 
-120.479 -127.046 62.6099 -117.256 -120.696 59.5469 -116.894 -120.118 59.0276 
-117.613 -121.561 60.0782 -117.934 -122.565 60.6615 -118.289 -123.451 61.3095 
-118.665 -124.347 61.9174 -118.996 -125.299 62.4545 -119.306 -126.096 62.9469 
-119.603 -126.796 63.2955 -119.863 -127.508 63.454 -120.125 -128.099 63.5304 
-121.123 -113.322 52.1643 -120.636 -113.517 52.5442 -120.71 -112.268 51.7688 
-120.119 -112.51 52.1488 -120.208 -111.121 51.5358 -120.101 -113.803 52.9869 
-119.436 -111.382 51.8847 -119.581 -109.967 51.3551 -119.393 -112.891 52.5372 
-119.53 -114.203 53.4729 -118.641 -110.252 51.6792 -118.899 -109.009 51.2134 
-118.57 -111.856 52.1888 -118.75 -113.36 52.9846 -119.052 -114.672 54.1318 
-117.926 -109.324 51.6361 -118.257 -108.228 51.3518 -117.85 -110.781 52.0685 
-118.049 -112.372 52.7183 -118.324 -113.827 53.7028 -118.644 -115.253 54.9198 
-117.424 -108.606 51.9913 -117.726 -107.557 51.8618 -117.312 -109.833 52.3247 
-117.51 -111.303 52.8466 -117.717 -112.849 53.5561 -117.883 -114.435 54.492 
-118.192 -116.068 55.623 -117.115 -108.098 52.7126 -117.326 -107.079 52.6204 
-116.883 -109.108 52.9225 -116.891 -110.354 53.2455 -117.078 -111.839 53.6638 
-117.244 -113.455 54.2659 -117.474 -115.283 55.1673 -117.771 -117.077 56.3476 
-116.843 -107.744 53.5976 -116.96 -106.769 53.5173 -116.553 -108.61 53.6928 
-116.245 -109.665 53.7654 -116.226 -111.041 53.8784 -116.557 -112.465 54.2224 
-117.002 -114.168 54.9382 -117.304 -116.27 56.0007 -117.407 -118.127 57.2286 
-116.465 -107.433 54.4828 -116.543 -106.535 54.434 -116.267 -108.232 54.5126 
-115.872 -109.189 54.4485 -115.567 -110.521 54.3443 -115.812 -111.796 54.4518 
-116.539 -113.056 54.9855 -117.093 -115.017 55.902 -117.136 -117.339 57.0014 
-116.961 -119.072 58.0846 -115.997 -106.923 55.3334 -115.925 -107.755 55.3524 
-115.461 -107.497 56.2295 -115.446 -108.417 56.2979 -115.078 -108.498 57.3112 
-115.742 -108.671 55.3404 -115.025 -109.629 57.5696 -114.761 -109.763 58.6875 
-115.337 -109.639 56.4483 -115.388 -110.009 55.2586 -114.703 -110.855 58.9179 
-114.747 -110.831 59.8864 -115.033 -110.84 57.8497 -115.257 -111.067 56.523 
-115.362 -111.406 55.2139 -115.236 -111.731 59.5129 -115.722 -111.782 60.1733 
-115.231 -111.726 58.6999 -115.559 -111.902 57.6895 -115.806 -112.147 56.473 
-116.096 -112.439 55.4772 -116.889 -112.823 59.1875 -117.463 -113.034 59.5683 
-116.504 -112.756 58.6077 -116.494 -112.906 57.9963 -116.607 -113.152 57.3489 
-116.718 -113.442 56.6964 -116.914 -114.061 56.1915 -118.409 -114.409 58.7968 
-118.831 -114.568 58.9586 -117.982 -114.428 58.4857 -117.654 -114.633 58.1613 
-117.318 -114.919 57.9228 -116.956 -115.262 57.689 -116.843 -115.827 57.4235 
-116.969 -116.626 57.175 -118.89 -116.082 59.0502 -119.308 -116.13 59.0644 
-118.445 -116.24 59.0164 -118.016 -116.523 58.9889 -117.46 -116.769 58.9934 
-116.696 -117.089 58.8754 -116.156 -117.666 58.5914 -116.19 -118.359 58.3246 
-116.553 -118.868 58.1676 -118.701 -117.574 59.8899 -119.206 -117.601 59.8334 
-118.131 -117.733 59.9865 -117.591 -117.98 60.1135 -117.028 -118.079 60.2736 
-116.27 -118.178 60.2538 -115.54 -118.662 59.8773 -115.354 -119.404 59.4053 
-115.75 -119.947 59.1441 -116.344 -120.136 59.0651 -116.646 -120.996 59.9237 
-116.041 -120.947 59.9812 -116.528 -122.003 60.9632 -115.404 -120.708 60.1039 
-115.984 -121.957 61.0981 -116.355 -123.322 62.2665 -115.056 -120.087 60.4825 
-115.421 -121.785 61.2484 -115.832 -123.441 62.4522 -115.949 -124.761 63.6514 
-115.316 -119.349 61.0473 -115.142 -121.231 61.6168 -115.29 -123.424 62.6026 
-115.377 -124.952 63.8595 -115.506 -126.099 64.9432 -115.974 -119.092 61.3614 
-115.394 -120.621 62.1067 -115.077 -122.934 63.0045 -114.841 -124.904 64.137 
-114.948 -126.221 65.2762 -115.194 -127.496 66.3702 -116.62 -119.232 61.3091 
-115.963 -120.53 62.3447 -115.424 -122.397 63.4905 -114.762 -124.41 64.6861 
-114.466 -126.082 65.7079 -114.657 -127.582 66.8265 -114.782 -128.903 67.979 
-117.237 -119.217 61.1815 -116.562 -120.672 62.3448 -116.025 -122.291 63.6568 
-115.249 -123.99 65.0964 -114.507 -125.647 66.23 -114.239 -127.34 67.2428 
-114.216 -128.859 68.3896 -114.087 -129.955 69.3398 -117.913 -119.052 61.0783 
-117.184 -120.607 62.3029 -116.584 -122.255 63.5846 -115.868 -123.856 65.0637 
-115.043 -125.32 66.4589 -114.385 -126.841 67.6456 -113.939 -128.386 68.7746 
-113.566 -129.659 69.7078 -113.245 -130.618 70.3028 -118.555 -119.005 60.9667 
-117.824 -120.485 62.2171 -117.138 -122.052 63.4723 -116.424 -123.636 64.8599 
-115.672 -125.091 66.3357 -114.958 -126.441 67.7732 -114.26 -127.778 69.118 
-113.554 -129.036 70.1551 -112.932 -130.139 70.7799 -112.511 -131.094 71.1879 
-117.055 -121.808 60.5202 -116.87 -123.098 61.7216 -117.396 -122.877 61.1731 
-116.529 -124.523 63.1558 -117.15 -124.243 62.5485 -117.741 -123.838 61.9522 
-116.048 -125.979 64.5107 -116.747 -125.723 64.0045 -117.487 -125.196 63.4548 
-118.084 -124.711 62.7143 -115.604 -127.486 65.8327 -116.185 -127.369 65.2555 
-117.028 -126.85 64.831 -117.746 -126.237 64.1727 -118.326 -125.816 63.2216 
-115.149 -128.947 67.4561 -115.545 -128.927 66.6253 -116.33 -128.566 66.0144 
-117.232 -127.931 65.4948 -117.879 -127.434 64.551 -118.54 -126.88 63.5818 
-114.511 -130.118 69.0355 -114.905 -130.147 68.2688 -115.571 -129.945 67.3948 
-116.573 -129.411 66.7707 -117.425 -128.87 65.941 -118.078 -128.361 64.8268 
-118.835 -127.617 63.9503 -113.672 -130.985 70.107 -114.227 -131.15 69.6348 
-114.927 -131.08 68.8635 -115.903 -130.668 68.1123 -116.918 -130.097 67.3126 
-117.692 -129.584 66.2149 -118.396 -128.97 65.116 -119.169 -128.216 64.2468 
-112.793 -131.649 70.9529 -113.42 -132.013 70.5976 -114.27 -132.107 70.0161 
-115.276 -131.827 69.3016 -116.331 -131.274 68.4966 -117.243 -130.719 67.464 
-118.012 -130.148 66.3387 -118.776 -129.452 65.3459 -119.514 -128.745 64.4302 
-112.011 -131.919 72.1728 -112.392 -132.513 71.8113 -111.801 -132.577 73.4344 
-112.33 -133.065 72.7646 -112.176 -132.872 74.3091 -113.263 -132.855 71.1869 
-112.903 -133.232 73.189 -113.322 -133.028 74.129 -113.449 -133.268 71.6547 
-114.437 -132.798 70.3754 -114.236 -133.399 72.8731 -115.034 -133.184 73.3034 
-114.234 -133.397 71.7036 -114.882 -133.084 70.4704 -115.661 -132.345 69.4835 
-116.037 -133.533 72.2339 -116.815 -133.148 72.4608 -115.683 -133.617 71.3763 
-115.817 -133.305 70.2369 -116.219 -132.7 69.2568 -116.738 -131.799 68.4035 
-117.835 -133.398 71.3847 -118.353 -133 71.5554 -117.457 -133.674 70.7035 
-117.228 -133.589 69.6678 -117.133 -133.118 68.7017 -117.293 -132.31 67.9527 
-117.665 -131.242 67.2302 -119.412 -133.222 70.422 -119.729 -132.876 70.6603 
-119.15 -133.478 69.8026 -118.793 -133.572 68.8609 -118.347 -133.367 67.977 
-118.133 -132.69 67.3913 -118.292 -131.615 66.9121 -118.564 -130.48 66.2294 
-120.809 -133.066 69.6813 -121.077 -132.639 70.0293 -120.607 -133.29 69.0922 
-120.252 -133.317 68.2502 -119.666 -133.193 67.4173 -119.191 -132.694 66.9129 
-119.137 -131.692 66.6178 -119.3 -130.574 66.107 -119.418 -129.633 65.2848 
-122.023 -132.732 69.1689 -122.284 -132.242 69.5852 -121.813 -133.013 68.6298 
-121.498 -132.991 67.9399 -120.946 -132.786 67.1769 -120.358 -132.377 66.6081 
-120.093 -131.545 66.3016 -120.121 -130.49 65.8911 -120.146 -129.62 65.1333 
-120.112 -128.902 64.2521 -112.309 -130.9 71.9933 -111.933 -131.704 73.2436 
-112.679 -130.64 72.6753 -112.558 -131.339 73.8397 -113.551 -130.364 72.7115 
-112.01 -132.266 74.5137 -113.682 -130.842 73.5016 -114.645 -130.006 72.1134 
-112.956 -131.817 74.561 -112.832 -132.564 74.8405 -114.939 -130.288 72.6189 
-115.761 -129.611 71.3057 -114.273 -131.189 73.6555 -114.099 -132.133 74.2125 
-114.412 -132.758 74.0375 -116.174 -129.898 71.5778 -116.877 -129.257 70.3091 
-115.66 -130.5 72.6202 -115.568 -131.373 73.2996 -115.851 -132.222 73.4223 
-116.269 -132.774 73.0733 -117.426 -129.572 70.3106 -118.014 -128.724 69.1404 
-117.054 -130.021 71.5147 -117.053 -130.499 72.5833 -117.277 -131.318 73.0637 
-117.544 -132.135 72.8038 -117.846 -132.667 72.2419 -118.667 -128.873 69.1484 
-119.085 -127.819 68.2134 -118.405 -129.557 70.2322 -118.438 -129.897 71.4629 
-118.568 -130.428 72.4306 -118.652 -131.317 72.5215 -118.806 -132.115 71.9528 
-119.151 -132.581 71.3143 -119.734 -127.767 68.4339 -119.962 -126.74 67.6534 
-119.59 -128.71 69.2451 -119.61 -129.331 70.127 -119.671 -129.784 71.0618 
-119.663 -130.464 71.6089 -119.752 -131.326 71.4666 -120.055 -131.975 71.0178 
-120.52 -132.353 70.5665 -120.552 -126.624 67.9211 -120.656 -125.767 67.1814 
-120.52 -127.578 68.6186 -120.558 -128.448 69.2086 -120.608 -129.082 69.789 
[...]
CELL_DATA 2000
SCALARS Distance double
LOOKUP_TABLE default
174.274 174.209 174.601 175.354 174.232 174.585 175.357 175.733 176.518 
174.374 174.68 175.501 175.824 176.662 176.98 177.818 174.667 174.918 
175.793 176.07 176.977 177.246 178.143 178.397 179.287 175.081 175.297 
176.189 176.434 177.367 177.633 178.562 178.803 179.694 179.924 180.777 
175.544 175.749 176.632 176.856 177.762 178.027 178.948 179.216 180.093 
180.33 181.151 181.369 182.126 176.019 176.204 177.061 177.284 178.152 
178.405 179.293 179.57 180.441 180.695 181.502 181.721 182.468 182.655 
183.328 176.478 176.643 177.436 177.669 178.499 178.758 179.599 179.88 
180.722 181.005 181.803 182.045 182.771 182.975 183.637 183.804 184.392 
176.851 177.024 177.738 177.987 178.776 179.055 179.851 180.136 180.922 
181.227 181.995 182.287 182.988 183.23 183.853 184.057 184.619 184.788 
185.282 173.566 172.482 173.172 173.489 171.35 172.071 172.386 173.114 
173.48 170.119 170.874 171.169 171.962 172.33 173.121 173.566 168.876 
169.58 169.838 170.673 171.057 171.922 172.397 173.25 173.807 167.821 
168.379 168.605 169.359 169.789 170.653 171.183 172.063 172.655 173.546 
174.19 167.066 167.469 167.694 168.271 168.729 169.492 170.066 170.893 
171.492 172.374 173.04 173.964 174.651 166.627 166.912 167.159 167.539 
167.924 168.536 169.059 169.825 170.383 171.223 171.873 172.808 173.565 
174.483 175.191 166.408 166.643 166.905 167.136 167.384 167.792 168.161 
168.815 169.303 170.104 170.733 171.662 172.482 173.45 174.289 175.111 
175.775 166.244 166.482 166.741 166.929 167.107 167.331 167.588 168.011 
168.45 169.088 169.719 170.562 171.425 172.416 173.37 174.276 175.051 
175.728 176.259 166.25 166.442 166.468 166.721 166.927 166.742 166.96 
166.913 167.111 167.842 167.436 167.644 167.353 167.568 167.374 167.627 
168.916 168.451 168.65 168.249 168.496 168.108 168.362 168.077 168.476 
170.122 169.546 169.712 169.281 169.562 169.178 169.484 169.057 169.433 
169.138 169.743 171.745 170.955 171.162 170.495 170.861 170.358 170.827 
170.336 170.825 170.348 170.988 170.677 171.515 173.556 172.764 173.063 
172.251 172.703 171.981 172.561 171.91 172.497 171.902 172.552 172.114 
172.925 172.637 173.501 175.094 174.485 174.77 174.141 174.538 173.912 
174.366 173.738 174.145 173.554 173.979 173.57 174.16 173.952 174.649 
174.485 175.13 176.321 175.828 176.021 175.572 175.82 175.415 175.649 
175.225 175.348 174.897 174.995 174.668 174.951 174.852 175.338 175.343 
175.859 175.81 176.262 176.83 176.418 176.938 177.613 175.896 176.459 
177.186 177.82 178.686 175.469 175.928 176.691 177.385 178.366 179.034 
179.959 175.445 175.635 176.328 176.925 177.977 178.724 179.739 180.307 
181.138 175.808 175.806 176.377 176.709 177.695 178.367 179.434 180.06 
180.943 181.453 182.297 176.205 176.241 176.796 176.934 177.807 178.238 
179.267 179.792 180.705 181.23 182.129 182.687 183.597 176.457 176.609 
177.241 177.392 178.224 178.502 179.457 179.792 180.667 181.055 181.927 
182.477 183.392 183.956 184.696 176.689 176.876 177.574 177.786 178.605 
178.892 179.782 180.07 180.885 181.147 181.928 182.32 183.145 183.668 
184.372 184.836 185.286 177.001 177.176 177.895 178.105 178.884 179.172 
179.991 180.314 181.092 181.375 182.101 182.393 183.121 183.482 184.13 
184.497 184.95 185.274 185.582 177.21 178.089 177.793 178.149 179.208 
178.817 179.227 178.855 179.233 180.436 180.032 180.445 180.03 180.413 
179.987 180.327 181.592 181.238 181.669 181.28 181.672 181.22 181.546 
181.078 181.389 182.792 182.402 182.874 182.494 182.939 182.507 182.856 
182.348 182.643 182.152 182.453 184.091 183.676 184.11 183.698 184.121 
183.741 184.118 183.666 183.948 183.432 183.681 183.192 183.435 185.129 
184.882 185.231 184.875 185.186 184.844 185.187 184.842 185.133 184.691 
184.89 184.396 184.572 184.1 184.276 185.666 185.649 185.992 185.822 
186.11 185.831 186.138 185.837 186.142 185.783 185.991 185.541 185.672 
185.198 185.329 184.879 185.018 185.929 186.001 186.4 186.408 186.78 
186.652 186.983 186.747 187.036 186.731 186.942 186.561 186.685 186.246 
186.342 185.899 186.005 185.574 185.67 186.223 186.949 186.611 186.715 
187.721 187.357 187.426 187.122 187.178 188.427 188.062 188.066 187.794 
187.851 187.539 187.471 189.203 188.774 188.731 188.388 188.407 188.141 
188.102 187.744 187.544 190.032 189.623 189.61 189.149 189.115 188.715 
188.652 188.303 188.129 187.728 187.431 190.673 190.409 190.442 190.054 
189.992 189.514 189.366 188.902 188.695 188.271 187.986 187.548 187.184 
191.151 190.97 191.029 190.766 190.695 190.31 190.092 189.625 189.33 
188.863 188.54 188.087 187.724 187.258 186.856 191.61 191.446 191.534 
191.299 191.234 190.895 190.651 190.235 189.883 189.445 189.06 188.622 
188.225 187.779 187.368 186.91 186.504 191.986 191.877 191.949 191.772 
191.692 191.389 191.118 190.72 190.332 189.912 189.49 189.077 188.643 
188.23 187.793 187.377 186.951 186.535 186.133 186.083 186.274 186.375 
186.852 186.608 186.666 187.152 187.238 187.699 186.852 186.964 187.423 
187.554 188.026 188.084 188.472 186.96 187.103 187.501 187.708 188.184 
188.371 188.812 188.854 189.239 187.048 187.18 187.531 187.708 188.174 
188.442 188.97 189.153 189.592 189.635 190.01 187.067 187.258 187.621 
187.763 188.209 188.443 189.019 189.278 189.793 189.925 190.284 190.326 
190.613 186.9 187.21 187.616 187.837 188.265 188.496 189.019 189.307 
189.816 190.044 190.401 190.51 190.757 190.818 191.059 186.568 186.959 
187.394 187.742 188.164 188.467 188.887 189.207 189.61 189.931 190.261 
190.504 190.758 190.902 191.142 191.237 191.494 186.171 186.575 187 
187.428 187.851 188.24 188.606 188.95 189.264 189.604 189.91 190.246 
190.562 190.831 191.133 191.299 191.571 191.671 191.897 177.434 178.44 
178.076 178.361 179.446 179.108 179.419 179.037 179.35 180.439 180.118 
180.481 180.12 180.456 180.069 180.421 181.513 181.162 181.592 181.232 
181.629 181.214 181.571 181.166 181.512 182.642 182.284 182.728 182.387 
182.827 182.43 182.807 182.363 182.709 182.263 182.569 183.687 183.383 
183.782 183.485 183.893 183.576 183.948 183.576 183.914 183.49 183.791 
183.315 183.576 184.546 184.335 184.715 184.467 184.844 184.568 184.923 
184.62 184.95 184.616 184.892 184.49 184.684 184.244 184.438 185.21 
185.093 185.492 185.326 185.719 185.486 185.838 185.552 185.855 185.556 
185.806 185.476 185.625 185.233 185.312 184.956 185.102 185.747 185.691 
186.107 186.025 186.427 186.287 186.618 186.401 186.64 186.38 186.568 
186.294 186.434 186.095 186.157 185.766 185.826 185.517 185.674 177.014 
176.608 177.227 178.012 176.081 176.8 177.67 178.263 179.029 175.457 
176.262 177.24 177.929 178.795 179.302 180.04 174.734 175.612 176.682 
177.506 178.521 179.12 179.956 180.368 181.118 173.986 174.858 175.964 
176.91 178.045 178.833 179.795 180.318 181.116 181.504 182.256 173.457 
174.177 175.281 176.196 177.375 178.279 179.316 180.045 180.901 181.449 
182.21 182.63 183.32 173.301 173.812 174.888 175.637 176.815 177.638 
178.687 179.462 180.36 181.07 181.886 182.479 183.193 183.614 184.193 
173.397 173.775 174.768 175.369 176.506 177.202 178.247 178.909 179.816 
180.492 181.365 182.05 182.846 183.397 184.014 184.389 184.859 173.564 
173.88 174.757 175.268 176.314 176.951 177.984 178.585 179.488 180.058 
180.924 181.555 182.402 183.009 183.701 184.156 184.658 184.987 185.394 
173.912 174.851 174.58 175.109 175.957 175.619 176.19 175.951 176.644 
177.224 176.829 177.417 177.116 177.824 177.592 178.294 178.57 178.173 
178.772 178.41 179.078 178.793 179.461 179.195 179.788 179.869 179.531 
180.133 179.771 180.369 180.037 180.64 180.348 180.933 180.639 181.204 
181.043 180.777 181.376 181.071 181.635 181.295 181.849 181.525 182.1 
181.8 182.382 182.08 182.647 182.091 181.881 182.481 182.243 182.824 
182.521 183.081 182.748 183.316 182.991 183.55 183.241 183.751 183.458 
183.907 183.018 182.866 183.483 183.309 183.921 183.674 184.245 183.954 
184.502 184.196 184.697 184.375 184.793 184.479 184.825 184.546 184.843 
183.827 183.736 184.389 184.288 184.937 184.744 185.299 185.046 185.539 
185.285 185.723 185.44 185.782 185.457 185.724 185.406 185.644 185.361 
185.583 184.455 185.829 185.109 185.135 187.477 186.643 186.617 185.828 
185.731 188.909 188.2 188.012 187.264 187.034 186.29 186.05 189.742 
189.28 188.977 188.419 188.101 187.464 187.161 186.491 186.232 190.33 
189.918 189.694 189.214 188.983 188.428 188.174 187.543 187.274 186.634 
186.378 191.083 190.634 190.547 190.019 189.886 189.33 189.138 188.536 
188.26 187.629 187.318 186.707 186.394 191.752 191.439 191.357 190.914 
190.702 190.202 189.91 189.401 189.062 188.523 188.156 187.582 187.214 
186.637 186.292 192.036 191.911 191.745 191.504 191.168 190.808 190.372 
189.973 189.556 189.154 188.786 188.327 187.966 187.427 187.06 186.503 
186.172 192.026 191.981 191.753 191.641 191.293 191.061 190.632 190.301 
189.895 189.548 189.223 188.863 188.56 188.122 187.779 187.257 186.901 
186.375 186.068 184.357 184.676 184.82 185.636 185.099 185.169 185.952 
186.276 187.303 185.402 185.53 186.227 186.579 187.647 188.047 188.931 
185.408 185.682 186.299 186.717 187.73 188.308 189.283 189.507 189.946 
185.222 185.601 186.224 186.648 187.56 188.223 189.239 189.721 190.286 
190.288 190.495 184.983 185.434 186.13 186.542 187.377 187.97 188.95 
189.556 190.262 190.511 190.838 190.82 191.105 184.684 185.198 185.933 
186.415 187.197 187.746 188.622 189.231 189.978 190.403 190.848 191.035 
191.347 191.435 191.726 184.362 184.877 185.6 186.143 186.89 187.463 
188.235 188.844 189.532 190.056 190.533 190.899 191.237 191.497 191.776 
191.917 192.067 184.097 184.559 185.257 185.784 186.511 187.075 187.792 
188.379 189.007 189.55 190.009 190.468 190.816 191.218 191.528 191.826 
192.025 192.125 192.138 183.719 182.967 183.593 184.087 181.972 182.785 
183.368 184.044 184.562 180.629 181.58 182.152 183.127 183.714 184.474 
184.883 179.28 180.168 180.633 181.665 182.22 183.293 183.754 184.585 
184.83 177.955 178.855 179.322 180.213 180.688 181.662 182.108 183.128 
183.451 184.323 184.523 176.458 177.438 177.952 178.937 179.433 180.293 
180.678 181.519 181.854 182.766 183.068 183.952 184.201 175.107 175.936 
176.389 177.425 177.934 178.957 179.35 180.21 180.511 181.313 181.64 
182.483 182.817 183.651 183.919 174.154 174.769 175.157 175.949 176.403 
177.353 177.775 178.749 179.107 180.009 180.362 181.191 181.553 182.335 
182.654 183.403 183.653 173.325 173.912 174.288 174.919 175.341 176.034 
176.453 177.244 177.667 178.556 178.999 179.903 180.323 181.143 181.492 
182.219 182.503 183.188 183.434 172.9 172.556 173.138 173.94 172.267 
172.837 173.756 174.277 175.047 172.147 172.606 173.553 174.134 175.035 
175.428 176.141 172.234 172.558 173.468 174.005 175.031 175.481 176.287 
176.555 177.291 172.483 172.726 173.613 174.031 175.092 175.555 176.47 
176.753 177.492 177.762 178.581 172.814 173.041 173.924 174.254 175.24 
175.66 176.562 176.909 177.645 177.945 178.715 179.081 179.918 173.175 
173.398 174.251 174.55 175.426 175.786 176.592 176.947 177.666 178.017 
178.777 179.174 180 180.378 181.131 173.589 173.771 174.579 174.836 
175.64 175.93 176.677 176.978 177.711 178.044 178.852 179.233 180.091 
180.46 181.239 181.531 182.175 174.066 174.198 174.964 175.163 175.935 
176.154 176.889 177.121 177.879 178.168 179.018 179.368 180.256 180.597 
181.396 181.669 182.331 182.545 183.12 174.586 175.679 175.239 175.484 
176.831 176.371 176.629 176.182 176.433 178.097 177.572 177.847 177.363 
177.623 177.14 177.376 179.544 178.934 179.222 178.66 178.959 178.406 
178.676 178.13 178.401 181.03 180.434 180.727 180.124 180.436 179.833 
180.142 179.539 179.857 179.265 179.593 182.364 181.86 182.154 181.617 
181.931 181.353 181.661 181.053 181.367 180.774 181.106 180.517 180.829 
183.542 183.106 183.393 182.946 183.274 182.797 183.123 182.565 182.846 
182.255 182.531 181.974 182.243 181.686 181.912 184.598 184.223 184.498 
184.104 184.426 184.043 184.392 183.95 184.231 183.685 183.899 183.336 
183.549 183.012 183.201 182.657 182.804 185.495 185.207 185.477 185.143 
185.432 185.108 185.432 185.099 185.377 184.951 185.141 184.634 184.803 
184.28 184.451 183.908 184.038 183.478 183.58 184.187 184.691 184.737 
185.345 185.142 185.251 185.912 185.959 186.599 185.489 185.657 186.353 
186.499 187.178 187.23 187.86 185.778 185.957 186.626 186.854 187.556 
187.734 188.363 188.436 188.996 185.992 186.204 186.824 187.067 187.751 
188.011 188.648 188.821 189.342 189.444 189.913 186.06 186.342 186.955 
187.226 187.882 188.163 188.81 189.033 189.577 189.712 190.186 190.285 
190.729 186.051 186.355 186.968 187.286 187.919 188.244 188.877 189.16 
189.74 189.933 190.46 190.578 191.064 191.116 191.513 186.054 186.34 
186.917 187.241 187.83 188.19 188.775 189.136 189.693 190.013 190.544 
190.797 191.28 191.429 191.792 191.824 192.038 186.026 186.315 186.837 
187.154 187.683 188.035 188.559 188.938 189.437 189.831 190.303 190.697 
191.124 191.454 191.75 191.94 192.059 192.126 192.126 165.921 166.061 
165.811 165.567 166.369 166.038 165.81 165.589 165.64 166.951 166.539 
166.419 166.021 166.044 165.884 166.201 167.759 167.292 167.236 166.774 
166.744 166.412 166.591 166.541 166.968 168.755 168.197 168.1 167.606 
167.511 167.111 167.169 166.982 167.312 167.348 167.868 169.933 169.274 
169.145 168.53 168.456 167.932 168.037 167.674 168.014 167.84 168.341 
168.333 168.897 171.154 170.492 170.398 169.711 169.718 169.079 169.301 
168.783 169.198 168.792 169.26 168.985 169.468 169.388 169.921 172.309 
171.702 171.671 171.03 171.094 170.47 170.695 170.166 170.53 170.08 
170.448 170.034 170.382 170.091 170.537 170.446 171.005 173.427 172.861 
172.891 172.309 172.412 171.838 172.018 171.499 171.737 171.298 171.551 
171.151 171.423 171.068 171.453 171.213 171.745 171.628 172.2 165.769 
165.52 165.613 165.696 165.704 165.606 165.832 165.829 166.144 166.324 
166.071 166.369 166.228 166.616 166.534 166.95 167.124 166.82 167.103 
166.905 167.282 167.134 167.498 167.396 167.791 168.039 167.676 167.94 
167.67 168.022 167.831 168.181 167.995 168.324 168.222 168.655 169.056 
168.663 168.941 168.58 168.94 168.651 169.05 168.77 169.114 168.854 
169.235 169.138 169.653 170.074 169.7 169.998 169.631 169.985 169.654 
170.063 169.748 170.111 169.758 170.077 169.814 170.246 170.181 170.719 
171.141 170.736 171.043 170.679 171.009 170.681 171.04 170.753 171.097 
170.77 171.045 170.706 171.033 170.836 171.309 171.257 171.777 172.265 
171.83 172.102 171.72 172.019 171.671 171.982 171.679 172 171.706 
172.001 171.667 171.971 171.676 172.086 171.915 172.41 172.324 172.82 
165.968 165.832 165.948 166.205 166.187 166.009 166.238 166.318 166.74 
166.95 166.577 166.753 166.592 167.017 167.085 167.678 167.818 167.423 
167.569 167.272 167.607 167.513 168.051 168.148 168.777 168.73 168.324 
168.492 168.133 168.385 168.157 168.58 168.569 169.196 169.307 170.022 
169.753 169.312 169.518 169.103 169.363 169.004 169.392 169.196 169.829 
169.84 170.678 170.749 171.638 170.811 170.373 170.57 170.155 170.436 
170.059 170.493 170.184 170.84 170.68 171.559 171.547 172.506 172.528 
173.427 171.845 171.416 171.587 171.179 171.438 171.11 171.568 171.328 
172.003 171.823 172.658 172.554 173.462 173.427 174.288 174.266 175.005 
172.883 172.454 172.653 172.215 172.485 172.116 172.577 172.357 173.047 
172.932 173.747 173.653 174.485 174.398 175.19 175.114 175.814 175.726 
176.307 183.384 182.553 182.828 182.536 181.587 181.896 181.518 181.883 
181.501 180.482 180.815 180.351 180.745 180.308 180.699 180.219 179.266 
179.612 179.06 179.467 178.987 179.434 178.975 179.37 178.892 177.988 
178.345 177.763 178.133 177.608 178.055 177.603 178.075 177.601 178.024 
177.513 176.7 177.067 176.533 176.872 176.342 176.709 176.237 176.684 
176.233 176.678 176.156 176.569 176.031 175.459 175.807 175.309 175.667 
175.159 175.496 174.997 175.373 174.926 175.339 174.888 175.26 174.786 
175.144 174.742 174.353 174.624 174.109 174.446 173.948 174.303 173.815 
174.173 173.725 174.103 173.701 174.074 173.689 174.03 173.686 174.04 
173.79 173.437 173.607 173.077 173.308 172.812 173.116 172.683 173.028 
172.649 172.988 172.635 172.971 172.639 172.986 172.676 173.036 172.76 
173.16 172.937 
POINT_DATA 1002
SCALARS Distance double
LOOKUP_TABLE default
175.004 173.961 173.859 174.943 173.829 176.117 174.986 173.882 176.143 
177.297 175.174 174.068 176.345 177.502 178.657 175.514 174.42 176.694 
177.895 179.036 180.17 175.96 174.866 177.097 178.313 179.482 180.568 
181.597 176.422 175.346 177.516 178.676 179.859 180.943 181.944 182.841 
176.848 175.866 177.917 179.026 180.18 181.287 182.279 183.183 183.964 
177.218 176.355 178.247 179.336 180.438 181.552 182.573 183.466 184.267 
184.947 177.501 176.699 178.498 179.585 180.636 181.696 182.741 183.653 
184.442 185.151 185.751 172.879 172.782 171.786 171.646 170.621 172.733 
170.356 169.381 171.509 172.75 169.006 168.242 170.156 171.509 172.935 
167.892 167.33 168.918 170.296 171.746 173.287 167.187 166.683 168.007 
169.264 170.64 172.093 173.743 166.868 166.333 167.425 168.342 169.573 
170.939 172.591 174.363 166.731 166.163 167.118 167.612 168.533 169.804 
171.459 173.399 175.107 166.554 166.018 166.94 167.265 167.89 168.929 
170.425 172.392 174.324 175.726 166.181 166.671 166.477 167.082 167.224 
167.131 168.007 168.299 167.848 167.73 169.05 169.402 168.896 168.75 
168.612 170.187 170.778 169.899 169.892 169.813 169.876 171.902 172.559 
171.401 171.285 171.306 171.356 171.732 173.835 174.279 173.454 173.258 
173.141 173.046 173.258 173.793 175.343 175.661 175.136 175.026 174.819 
174.483 174.416 174.815 175.346 176.484 176.821 176.241 176.089 175.837 
175.396 175.113 175.333 175.872 176.363 177.431 177.022 178.389 176.486 
178.051 179.622 175.967 177.621 179.431 180.827 175.831 177.19 179.124 
180.668 181.922 176.196 177.109 178.792 180.392 181.773 183.201 176.695 
177.5 178.819 180.198 181.529 183.09 184.505 177.047 177.985 179.192 
180.366 181.443 182.814 184.276 185.312 177.347 178.332 179.503 180.657 
181.639 182.708 183.919 184.925 185.623 177.702 178.64 179.685 180.789 
181.834 182.837 183.824 184.652 185.278 185.848 178.449 179.615 179.619 
180.862 180.86 180.762 182.029 182.12 182.041 181.839 183.258 183.337 
183.363 183.169 182.924 184.572 184.504 184.526 184.471 184.208 183.914 
185.573 185.553 185.506 185.534 185.399 185.069 184.736 186.065 186.343 
186.437 186.475 186.42 186.158 185.792 185.463 186.318 186.818 187.181 
187.334 187.302 187.109 186.793 186.446 186.111 186.505 187.013 187.332 
187.731 188.104 187.538 188.353 188.825 188.118 187.902 189.147 189.642 
188.699 188.408 187.999 190.085 190.376 189.606 189.045 188.507 187.886 
190.771 190.877 190.478 189.898 189.159 188.424 187.652 191.267 191.312 
191.056 190.56 189.824 189.01 188.19 187.332 191.761 191.761 191.578 
191.073 190.326 189.504 188.67 187.818 186.957 192.111 192.089 191.979 
191.521 190.763 189.91 189.059 188.205 187.359 186.54 185.899 186.723 
186.204 187.074 186.552 187.661 187.271 186.738 187.929 188.488 187.307 
186.841 187.929 188.698 189.254 187.397 186.912 187.895 188.704 189.512 
190.016 187.471 186.823 188.001 188.736 189.622 190.25 190.591 187.339 
186.542 188.043 188.757 189.568 190.264 190.694 190.991 187 186.166 
187.846 188.607 189.302 189.966 190.558 191.026 191.411 186.563 185.785 
187.441 188.27 188.945 189.548 190.22 190.912 191.464 191.843 177.784 
178.746 178.797 179.786 179.759 179.732 180.813 180.749 180.847 180.795 
181.927 181.866 182.041 182.006 181.919 183.064 183.001 183.198 183.249 
183.171 183.042 184.089 183.976 184.199 184.287 184.313 184.264 184.071 
184.944 184.723 185.117 185.222 185.266 185.276 185.141 184.843 185.617 
185.293 185.92 186.125 186.172 186.131 186.017 185.72 185.378 176.441 
177.461 175.926 177.018 175.302 178.538 176.469 174.604 178.237 179.616 
175.766 173.835 177.816 179.514 180.744 174.978 173.149 177.152 179.173 
180.703 181.907 174.406 172.819 176.462 178.516 180.265 181.741 182.988 
174.213 172.872 176.046 177.94 179.61 181.208 182.714 183.883 174.241 
173.08 175.852 177.624 179.182 180.661 182.231 183.598 184.565 174.319 