# vtk DataFile Version 4.0
vtk output
ASCII
DATASET POLYDATA
POINTS 1002 float
-119.853 -115.137 53.4461 -119.609 -114.113 52.7018 -119.051 -114.311 52.9854 
-119.342 -115.448 53.7725 -118.562 -114.568 53.3989 -120.153 -116.309 54.3406 
-118.865 -115.809 54.2695 -118.182 -114.802 54.0142 -119.68 -116.682 54.7858 
-120.468 -117.592 55.3675 -118.443 -116.147 54.9637 -117.803 -115.093 54.7037 
-119.172 -117.078 55.4189 -119.95 -117.926 56.0144 -120.613 -118.798 56.5556 
-118.008 -116.542 55.6803 -117.355 -115.573 55.3475 -118.696 -117.493 56.1761 
-119.363 -118.375 56.7558 -119.98 -119.241 57.3145 -120.493 -120.061 57.8674 
-117.574 -117.039 56.4331 -116.952 -116.109 56.0693 -118.212 -118.007 56.9487 
-118.821 -118.939 57.5469 -119.342 -119.884 58.098 -119.827 -120.768 58.6518 
-120.302 -121.527 59.2735 -117.239 -117.538 57.3548 -116.673 -116.591 56.9176 
-117.71 -118.609 57.8205 -118.228 -119.59 58.3892 -118.761 -120.534 58.9865 
-119.234 -121.433 59.5885 -119.685 -122.22 60.2032 -120.177 -122.867 60.818 
-116.964 -118.076 58.3191 -116.418 -117.172 57.7694 -117.289 -119.207 58.7874 
-117.616 -120.243 59.3038 -118.113 -121.158 59.9224 -118.656 -121.995 60.6158 
-119.096 -122.743 61.2887 -119.516 -123.428 61.8524 -120.01 -123.971 62.3615 
-116.605 -118.72 59.1884 -116.075 -117.912 58.5606 -116.935 -119.769 59.7264 
-117.182 -120.775 60.2701 -117.551 -121.698 60.8972 -118.043 -122.591 61.5834 
-118.474 -123.368 62.2599 -118.82 -124.062 62.8151 -119.237 -124.675 63.249 
-119.749 -125.113 63.6546 -116.138 -119.383 59.9475 -115.652 -118.667 59.2544 
-116.534 -120.298 60.5882 -116.867 -121.214 61.2269 -117.203 -122.108 61.9264 
-117.553 -123.091 62.5988 -117.868 -124.04 63.1592 -118.137 -124.834 63.6151 
-118.463 -125.497 63.993 -118.93 -125.985 64.3377 -119.463 -126.293 64.6555 
-118.995 -113.115 52.2457 -118.41 -113.304 52.5821 -118.36 -111.956 51.8676 
-117.802 -112.163 52.2674 -117.788 -110.746 51.5503 -117.962 -113.487 53.0922 
-117.215 -110.99 52.007 -117.227 -109.54 51.306 -117.339 -112.354 52.8025 
-117.605 -113.654 53.765 -116.588 -109.835 51.8442 -116.593 -108.438 51.1284 
-116.608 -111.298 52.5321 -116.893 -112.59 53.4678 -117.176 -114.04 54.452 
-115.933 -108.808 51.7765 -115.901 -107.603 51.0451 -115.859 -110.274 52.4209 
-116.034 -111.65 53.2242 -116.384 -113.126 54.1907 -116.655 -114.715 55.0954 
-115.185 -108.025 51.7673 -115.151 -106.938 51.1631 -115.172 -109.339 52.4162 
-115.274 -110.683 53.1623 -115.542 -112.203 54.013 -115.809 -113.947 54.832 
-116.182 -115.402 55.7631 -114.316 -107.426 51.8666 -114.43 -106.319 51.4821 
-114.346 -108.624 52.4095 -114.577 -109.823 53.1504 -114.864 -111.185 53.9581 
-115.012 -113.031 54.6236 -115.262 -114.809 55.3705 -115.839 -116.044 56.4877 
-113.589 -106.975 52.1368 -113.926 -105.889 51.926 -113.441 -108.061 52.5069 
-113.697 -109.187 53.1382 -114.161 -110.373 53.9321 -114.387 -111.995 54.5697 
-114.473 -114.009 55.1198 -114.897 -115.652 56.0215 -115.575 -116.8 57.2886 
-113.176 -106.679 52.6135 -113.65 -105.721 52.5044 -112.808 -107.556 52.8432 
-112.86 -108.604 53.2871 -113.314 -109.842 53.9489 -113.723 -111.231 54.6104 
-113.895 -113.008 55.1501 -114.179 -114.951 55.8393 -114.74 -116.493 56.8828 
-115.304 -117.631 58.101 -113.083 -106.193 53.3345 -112.563 -106.902 53.4429 
-112.41 -106.325 54.4135 -112.165 -107.019 54.5054 -112.071 -106.562 55.542 
-112.352 -107.772 53.6866 -112.248 -107.882 55.6846 -112.434 -107.812 56.5543 
-112.274 -108.428 54.7486 -112.581 -109.198 54.1344 -112.536 -109.674 57.0454 
-112.976 -109.676 57.6416 -112.385 -109.952 56.0886 -112.495 -110.414 55.1839 
-112.991 -110.798 54.7368 -112.654 -111.115 58.5357 -113.248 -110.915 58.8717 
-112.403 -111.399 57.7342 -112.513 -111.731 56.5798 -112.841 -111.962 55.749 
-113.352 -112.317 55.3673 -113.151 -111.914 59.607 -113.846 -111.798 59.8108 
-112.762 -112.09 59.1031 -112.928 -112.402 58.052 -113.262 -112.767 57.013 
-113.505 -113.317 56.4306 -113.772 -114.155 56.075 -114.369 -113.198 60.0243 
-114.996 -113.291 60.2318 -113.85 -113.13 59.7211 -113.865 -113.242 59.0355 
-114.169 -113.605 58.1586 -114.232 -114.299 57.5675 -114.151 -115.274 57.2429 
-114.29 -116.113 56.9895 -115.527 -115.099 60.2956 -115.997 -115.209 60.5139 
-114.994 -115.03 60.0701 -114.734 -115.064 59.7142 -114.776 -115.253 59.1703 
-114.704 -115.739 58.6396 -114.46 -116.543 58.3017 -114.417 -117.299 58.1262 
-114.74 -117.64 58.0635 -116.024 -116.859 60.8982 -116.417 -116.878 61.0686 
-115.55 -116.959 60.7326 -115.134 -117.149 60.5885 -114.855 -117.306 60.3708 
-114.571 -117.507 59.9642 -114.269 -117.946 59.4586 -114.21 -118.475 59.1253 
-114.514 -118.761 59.077 -115.052 -118.759 59.1744 -115.488 -119.787 60.3574 
-114.879 -119.882 60.2533 -115.336 -121.034 61.6078 -114.299 -119.928 60.1591 
-114.796 -121.233 61.585 -115.17 -122.566 63.089 -113.924 -119.744 60.4127 
-114.259 -121.374 61.71 -114.679 -122.945 63.3253 -114.731 -124.218 64.8161 
-113.986 -119.412 61.06 -113.917 -121.225 62.2609 -114.15 -123.108 63.717 
-114.134 -124.55 65.3131 -114.086 -125.443 66.6605 -114.434 -119.238 61.6154 
-114.099 -120.958 62.9504 -113.848 -122.823 64.2596 -113.471 -124.462 65.7218 
-113.35 -125.497 67.1448 -113.565 -126.327 68.2954 -114.934 -119.136 61.7739 
-114.691 -120.865 63.2401 -114.154 -122.475 64.6471 -113.172 -123.942 66.0667 
-112.622 -125.114 67.4397 -112.794 -126.249 68.5992 -113.019 -127.394 69.5582 
-115.352 -118.827 61.7707 -115.206 -120.68 63.1984 -114.816 -122.335 64.7291 
-113.618 -123.576 66.3217 -112.464 -124.554 67.8112 -112.239 -125.769 68.9677 
-112.344 -127.225 69.9064 -112.265 -128.4 70.7579 -115.767 -118.45 61.8358 
-115.53 -120.215 63.1737 -115.31 -122.049 64.7025 -114.428 -123.449 66.3997 
-113.099 -124.329 68.1032 -112.365 -125.308 69.4503 -112.146 -126.655 70.4625 
-111.861 -127.953 71.3773 -111.633 -128.86 72.1794 -116.199 -118.253 61.9454 
-115.871 -119.766 63.2097 -115.632 -121.544 64.6732 -115.09 -123.153 66.3126 
-114.039 -124.233 68.0631 -113.104 -125.146 69.6042 -112.569 -126.225 70.8304 
-112.056 -127.281 71.9382 -111.566 -128.15 72.9444 -111.416 -128.887 73.6768 
-115.944 -120.621 61.1931 -115.75 -121.999 62.6126 -116.384 -121.554 61.9987 
-115.375 -123.655 64.1675 -116.142 -123.053 63.5623 -116.806 -122.496 62.8429 
-114.757 -125.198 65.8915 -115.577 -124.795 65.1346 -116.472 -124.149 64.5119 
-117.123 -123.535 63.6644 -114.231 -126.267 67.736 -114.926 -126.19 66.8294 
-115.78 -125.836 66.0436 -116.641 -125.2 65.2937 -117.313 -124.627 64.2431 
-113.729 -127.31 69.3259 -114.436 -127.179 68.6235 -115.159 -127.058 67.6265 
-115.974 -126.65 66.72 -116.791 -126.127 65.7184 -117.501 -125.589 64.5816 
-112.912 -128.458 70.5537 -113.767 -128.196 70.1376 -114.635 -128.018 69.2642 
-115.478 -127.797 68.1851 -116.328 -127.365 67.1189 -117.113 -126.937 65.9616 
-117.805 -126.364 64.863 -112.084 -129.221 71.7937 -112.93 -129.112 71.3483 
-113.963 -128.892 70.6679 -114.996 -128.768 69.6687 -115.974 -128.438 68.5607 
-116.848 -127.958 67.414 -117.588 -127.53 66.2159 -118.265 -126.901 65.1639 
-111.695 -129.51 73.2106 -112.374 -129.722 72.5668 -113.335 -129.598 71.8312 
-114.43 -129.484 70.9348 -115.548 -129.293 69.8813 -116.566 -128.807 68.7786 
-117.41 -128.297 67.6099 -118.137 -127.859 66.4298 -118.822 -127.204 65.4349 
-111.642 -129.363 74.8284 -112.068 -130.047 74.1549 -112.164 -130.01 75.6663 
-112.647 -130.605 74.7976 -112.941 -130.427 76.0494 -112.813 -130.219 73.2069 
-113.514 -130.73 75.0641 -114.276 -130.328 76.0016 -113.433 -130.583 73.573 
-113.823 -130.061 72.1588 -115.026 -130.481 74.9352 -116.076 -130.198 75.5562 
-114.498 -130.561 73.6193 -114.611 -130.326 72.2086 -115.051 -129.891 71.0282 
-116.861 -130.457 74.3423 -117.685 -130.344 74.7146 -116.158 -130.466 73.2941 
-115.919 -130.433 71.9621 -116.032 -130.134 70.8259 -116.286 -129.537 69.8527 
-118.524 -130.583 73.3657 -119.074 -130.359 73.6523 -117.94 -130.545 72.5575 
-117.546 -130.557 71.4404 -117.351 -130.402 70.3795 -117.263 -129.766 69.5221 
-117.308 -128.961 68.6623 -120.116 -130.432 72.3779 -120.56 -130.06 72.717 
-119.611 -130.508 71.647 -119.126 -130.52 70.7419 -118.729 -130.491 69.8476 
-118.394 -130.041 69.0216 -118.194 -129.211 68.2603 -118.152 -128.465 67.4171 
-121.574 -130.021 71.6518 -121.948 -129.634 72.0704 -121.145 -130.222 70.9138 
-120.608 -130.255 70.1063 -120.043 -130.18 69.3777 -119.552 -129.946 68.5844 
-119.197 -129.407 67.7535 -119.015 -128.673 67.0139 -118.923 -127.948 66.2615 
-122.647 -129.53 71.0974 -122.982 -129.199 71.5671 -122.321 -129.778 70.3723 
-121.871 -129.897 69.6129 -121.268 -129.77 68.9841 -120.686 -129.51 68.2724 
-120.243 -129.237 67.3618 -119.943 -128.764 66.5588 -119.757 -128.011 65.9668 
-119.613 -127.147 65.3617 -111.548 -128.319 74.6579 -111.855 -128.808 75.8082 
-112.056 -127.786 75.1707 -112.474 -128.154 76.1582 -112.914 -127.436 75.0814 
-112.51 -129.422 76.4488 -113.526 -127.526 75.927 -113.998 -127.193 74.5123 
-113.381 -128.547 76.5151 -113.666 -129.701 76.5017 -114.772 -127.034 75.2608 
-115.098 -127.009 73.4256 -114.678 -127.656 76.1383 -114.905 -128.772 76.2592 
-115.43 -129.675 76.1207 -115.915 -126.823 73.9499 -116.167 -126.809 71.9279 
-115.93 -127.03 75.3856 -116.183 -127.96 75.721 -116.627 -129 75.6538 
-117.144 -129.79 75.4188 -117.051 -126.745 72.1448 -117.331 -126.368 70.5261 
-116.99 -126.783 73.894 -117.153 -127.343 74.8171 -117.467 -128.31 74.9587 
-117.883 -129.141 74.8232 -118.411 -129.863 74.4167 -118.297 -126.385 70.5266 
-118.516 -125.618 69.4739 -118.146 -126.641 71.9698 -118.118 -126.898 73.2737 
-118.24 -127.562 73.9382 -118.526 -128.267 74.0322 -119.045 -128.94 73.7793 
-119.78 -129.636 73.3396 -119.4 -125.585 69.4238 -119.48 -124.697 68.6344 
-119.319 -126.183 70.4095 -119.258 -126.485 71.5702 -119.294 -126.883 72.5649 
-119.495 -127.403 73.0704 -119.938 -127.931 73.0628 -120.629 -128.613 72.827 
-121.368 -129.283 72.542 -120.162 -124.538 68.6611 -120.151 -123.75 67.8852 
-120.198 -125.311 69.43 -120.257 -125.877 70.2836 -120.377 -126.296 71.2034 
[...]
CELL_DATA 2000
SCALARS Distance double
LOOKUP_TABLE default
172.81 172.727 173.152 173.982 172.765 173.146 174.01 174.421 175.315 
172.895 173.249 174.123 174.503 175.4 175.801 176.666 173.084 173.416 
174.305 174.658 175.549 175.911 176.774 177.127 177.92 173.356 173.648 
174.552 174.877 175.792 176.111 176.994 177.295 178.137 178.408 179.202 
173.734 173.983 174.898 175.176 176.103 176.394 177.302 177.583 178.456 
178.708 179.537 179.76 180.546 174.202 174.42 175.346 175.576 176.479 
176.728 177.621 177.903 178.784 179.055 179.881 180.111 180.874 181.086 
181.793 174.706 174.912 175.825 176.04 176.911 177.12 177.973 178.224 
179.102 179.379 180.219 180.45 181.201 181.395 182.084 182.271 182.907 
175.169 175.382 176.247 176.483 177.331 177.544 178.378 178.599 179.467 
179.72 180.576 180.799 181.56 181.731 182.411 182.57 183.205 183.356 
183.934 172.047 170.794 171.583 171.92 169.507 170.314 170.683 171.501 
171.926 168.244 169.046 169.422 170.252 170.688 171.544 172.029 167.011 
167.799 168.164 168.986 169.413 170.286 170.791 171.679 172.213 165.876 
166.601 166.963 167.739 168.152 169.004 169.528 170.442 171.028 171.911 
172.491 164.877 165.526 165.876 166.588 166.99 167.777 168.295 169.193 
169.818 170.739 171.365 172.234 172.851 163.984 164.557 164.867 165.537 
165.934 166.675 167.171 168.004 168.617 169.533 170.192 171.103 171.754 
172.633 173.298 163.317 163.732 163.99 164.551 164.927 165.639 166.141 
166.932 167.517 168.369 169.03 169.937 170.645 171.551 172.273 173.141 
173.839 163.007 163.224 163.426 163.775 164.086 164.676 165.191 165.944 
166.556 167.339 167.992 168.831 169.578 170.486 171.292 172.173 172.934 
173.732 174.386 163.028 163.078 163.135 163.314 163.222 163.175 163.396 
163.479 163.901 164.127 163.664 164.027 163.806 164.335 164.348 165.048 
165.855 165.078 165.481 164.893 165.447 165.11 165.791 165.716 166.472 
167.493 166.852 167.112 166.518 166.913 166.431 166.938 166.636 167.269 
167.181 167.917 168.813 168.25 168.427 167.93 168.219 167.797 168.208 
167.834 168.389 168.128 168.858 168.736 169.558 170.483 169.698 169.98 
169.273 169.657 169.1 169.638 169.169 169.825 169.42 170.2 169.9 
170.76 170.54 171.366 172.498 171.637 172.001 171.129 171.585 170.821 
171.432 170.806 171.5 170.987 171.721 171.339 172.113 171.833 172.585 
172.337 173.024 174.269 173.589 173.903 173.175 173.577 172.859 173.369 
172.705 173.242 172.662 173.185 172.757 173.318 173.055 173.653 173.462 
174.047 173.856 174.42 175.199 174.829 175.418 176.27 174.45 175.041 
175.948 176.588 177.587 174.162 174.696 175.659 176.32 177.453 178.08 
179.125 174.13 174.545 175.534 176.114 177.312 177.991 179.115 179.622 
180.468 174.34 174.705 175.728 176.142 177.263 177.855 178.911 179.493 
180.287 180.754 181.409 174.56 174.994 176.094 176.464 177.495 177.881 
178.738 179.179 179.834 180.36 180.986 181.566 182.236 174.698 175.171 
176.283 176.771 177.818 178.172 178.93 179.111 179.62 179.903 180.49 
181.046 181.786 182.395 183.057 174.878 175.271 176.28 176.819 177.881 
178.392 179.237 179.422 179.928 179.945 180.472 180.734 181.487 181.982 
182.717 183.182 183.709 175.154 175.45 176.334 176.772 177.772 178.343 
179.288 179.672 180.31 180.381 180.893 180.966 181.638 181.897 182.608 
182.933 183.482 183.793 184.221 175.664 176.775 176.387 176.757 178.085 
177.591 177.98 177.533 177.871 179.534 178.987 179.361 178.848 179.214 
178.685 178.979 180.817 180.38 180.729 180.257 180.644 180.114 180.446 
179.84 180.108 181.842 181.536 181.904 181.533 181.913 181.495 181.832 
181.312 181.569 180.97 181.187 182.764 182.527 182.944 182.626 182.987 
182.645 182.956 182.561 182.802 182.33 182.518 181.973 182.123 183.54 
183.405 183.817 183.592 183.934 183.647 183.951 183.603 183.856 183.45 
183.665 183.205 183.373 182.837 182.953 184.102 184.058 184.433 184.326 
184.655 184.488 184.813 184.563 184.85 184.491 184.72 184.3 184.494 
184.028 184.17 183.632 183.724 184.597 184.562 184.961 184.876 185.221 
185.107 185.446 185.319 185.638 185.419 185.642 185.303 185.454 185.066 
185.197 184.767 184.862 184.358 184.416 185.064 186.062 185.526 185.458 
187.061 186.546 186.398 185.846 185.694 187.839 187.417 187.223 186.72 
186.486 186.012 185.878 188.583 188.122 187.906 187.429 187.185 186.744 
186.586 186.192 186.079 189.4 188.917 188.699 188.148 187.934 187.447 
187.305 186.884 186.748 186.337 186.12 190.049 189.704 189.524 189.002 
188.794 188.277 188.139 187.653 187.472 186.987 186.714 186.258 185.932 
190.496 190.273 190.164 189.76 189.54 189.097 188.91 188.47 188.229 
187.717 187.36 186.841 186.473 186.02 185.673 190.856 190.69 190.624 
190.321 190.102 189.725 189.462 189.09 188.784 188.364 187.96 187.467 
187.043 186.567 186.193 185.751 185.37 191.079 190.976 190.877 190.692 
190.477 190.189 189.878 189.527 189.152 188.781 188.366 187.966 187.537 
187.106 186.695 186.257 185.841 185.396 184.946 184.952 185.072 185.306 
185.955 185.223 185.422 186.062 186.36 186.982 185.429 185.562 186.104 
186.404 187.044 187.324 187.826 185.609 185.739 186.202 186.433 187.04 
187.351 187.969 188.163 188.638 185.642 185.843 186.28 186.507 187.067 
187.37 188.007 188.297 188.873 189.02 189.447 185.571 185.82 186.241 
186.499 186.987 187.328 187.877 188.254 188.753 189.082 189.482 189.7 
189.998 185.459 185.742 186.159 186.407 186.81 187.133 187.574 187.978 
188.368 188.766 189.082 189.469 189.782 190.093 190.367 185.22 185.583 
185.997 186.289 186.647 186.919 187.291 187.625 188 188.34 188.666 
189.009 189.372 189.758 190.165 190.463 190.758 184.792 185.23 185.619 
186.024 186.379 186.71 187.06 187.369 187.757 188.056 188.44 188.71 
189.115 189.433 189.91 190.255 190.672 190.877 191.079 175.61 176.688 
176.332 176.761 177.859 177.482 177.954 177.589 178.162 179.041 178.703 
179.222 178.849 179.394 179.072 179.628 180.186 179.889 180.415 180.086 
180.556 180.236 180.663 180.376 180.675 181.295 181.018 181.513 181.208 
181.615 181.292 181.642 181.332 181.624 181.253 181.4 182.282 182.057 
182.501 182.234 182.617 182.303 182.654 182.315 182.659 182.278 182.548 
182.04 182.204 183.091 182.93 183.328 183.125 183.497 183.256 183.626 
183.337 183.688 183.349 183.628 183.208 183.376 182.879 183.023 183.772 
183.661 184.06 183.888 184.253 184.065 184.429 184.23 184.552 184.299 
184.513 184.181 184.278 183.892 183.954 183.581 183.715 184.35 184.303 
184.735 184.603 184.964 184.786 185.109 184.939 185.223 185.035 185.219 
184.95 185.029 184.688 184.749 184.399 184.523 184.211 184.406 175.035 
174.331 175.219 176.15 173.389 174.485 175.622 176.398 177.314 172.445 
173.584 174.923 175.864 176.909 177.582 178.465 171.696 172.726 174.133 
175.19 176.387 177.164 178.094 178.722 179.595 171.19 172.025 173.34 
174.418 175.725 176.636 177.657 178.337 179.232 179.862 180.731 170.947 
171.555 172.721 173.67 175.021 175.998 177.143 177.891 178.815 179.476 
180.368 180.993 181.782 170.918 171.357 172.382 173.137 174.443 175.378 
176.617 177.406 178.369 179.031 179.905 180.581 181.413 181.99 182.651 
171.011 171.352 172.25 172.84 173.997 174.845 176.056 176.893 177.881 
178.569 179.409 180.083 180.913 181.567 182.286 182.793 183.344 171.194 
171.466 172.274 172.716 173.701 174.391 175.475 176.291 177.274 178.027 
178.874 179.568 180.389 181.059 181.81 182.384 182.979 183.431 183.907 
171.574 172.592 172.247 172.675 173.771 173.376 173.825 173.468 174.051 
174.992 174.615 175.084 174.689 175.23 174.949 175.682 176.184 175.836 
176.344 175.969 176.495 176.152 176.799 176.611 177.386 177.41 177.044 
177.58 177.229 177.806 177.447 178.085 177.781 178.511 178.304 179.039 
178.685 178.311 178.851 178.487 179.098 178.768 179.463 179.139 179.877 
179.554 180.276 179.968 180.624 179.912 179.59 180.149 179.784 180.38 
180.057 180.761 180.496 181.245 180.95 181.619 181.268 181.836 181.499 
182.016 181.045 180.788 181.389 181.072 181.66 181.332 181.979 181.73 
182.432 182.212 182.822 182.524 182.975 182.638 183.025 182.739 183.129 
182.088 181.886 182.504 182.264 182.857 182.569 183.149 182.886 183.487 
183.283 183.832 183.592 183.986 183.668 183.967 183.661 183.974 183.727 
184.052 182.845 184.16 183.432 183.294 185.526 184.776 184.635 183.881 
183.684 186.847 186.12 185.956 185.221 185.02 184.238 183.99 188.022 
187.36 187.174 186.496 186.285 185.545 185.287 184.514 184.275 189.069 
188.453 188.253 187.635 187.424 186.752 186.479 185.755 185.477 184.77 
184.531 190.033 189.463 189.239 188.646 188.422 187.818 187.55 186.884 
186.571 185.889 185.579 184.928 184.624 190.769 190.35 190.095 189.555 
189.262 188.724 188.434 187.865 187.535 186.907 186.552 185.906 185.548 
184.917 184.578 191.115 190.908 190.63 190.236 189.833 189.4 189.016 
188.589 188.218 187.733 187.348 186.795 186.425 185.823 185.478 184.863 
184.565 191.157 191.089 190.805 190.554 190.075 189.748 189.265 188.966 
188.546 188.224 187.82 187.429 187.057 186.605 186.277 185.751 185.448 
184.876 184.61 182.804 183.121 183.362 184.131 183.318 183.682 184.571 
184.779 185.558 183.382 183.857 184.925 185.276 186.215 186.289 186.983 
183.438 183.928 185.102 185.625 186.75 186.989 187.778 187.698 188.223 
183.504 183.992 185.098 185.717 186.867 187.376 188.247 188.411 188.962 
188.855 189.271 183.449 183.978 184.948 185.58 186.561 187.228 188.061 
188.571 189.18 189.408 189.86 189.83 190.199 183.299 183.82 184.689 
185.289 186.118 186.759 187.499 188.134 188.784 189.32 189.85 190.162 
190.544 190.611 190.865 183.173 183.628 184.397 184.938 185.694 186.274 
186.986 187.57 188.243 188.821 189.409 189.902 190.312 190.642 190.879 
191.035 191.146 183.019 183.45 184.103 184.596 185.271 185.828 186.527 
187.105 187.791 188.344 188.942 189.429 189.852 190.242 190.488 190.795 
190.933 191.128 191.165 182.018 180.847 181.735 182.281 179.501 180.469 
181.006 181.929 182.406 178.023 179.008 179.524 180.553 181.046 181.976 
182.414 176.57 177.462 177.891 178.967 179.537 180.587 181.104 182.002 
182.481 175.252 176.034 176.356 177.321 177.893 179.034 179.697 180.718 
181.245 182.111 182.58 174.006 174.763 175.087 175.898 176.408 177.438 
178.13 179.249 179.841 180.817 181.238 182.135 182.53 172.812 173.569 
173.977 174.739 175.247 176.105 176.735 177.728 178.326 179.321 179.763 
180.705 181.096 182.024 182.423 171.724 172.449 172.914 173.685 174.232 
175.033 175.627 176.47 177.038 177.899 178.385 179.255 179.72 180.62 
181.104 181.979 182.401 170.732 171.419 171.881 172.651 173.208 174.019 
174.604 175.412 175.96 176.742 177.238 178.02 178.517 179.348 179.872 
180.728 181.202 181.999 182.341 170.309 170.052 170.604 171.489 169.901 
170.422 171.406 171.921 172.87 169.977 170.394 171.439 171.93 172.965 
173.391 174.314 170.247 170.584 171.634 172.071 173.137 173.541 174.488 
174.836 175.675 170.582 170.887 171.899 172.309 173.348 173.738 174.662 
175.008 175.851 176.169 176.95 171.007 171.244 172.213 172.563 173.56 
173.934 174.839 175.177 176.018 176.346 177.178 177.464 178.25 171.559 
171.724 172.639 172.89 173.835 174.154 175.075 175.386 176.242 176.537 
177.377 177.69 178.53 178.804 179.595 172.126 172.274 173.106 173.305 
174.164 174.442 175.362 175.675 176.568 176.824 177.619 177.877 178.661 
179.001 179.804 180.125 180.875 172.63 172.776 173.534 173.715 174.496 
174.746 175.621 175.959 176.873 177.169 177.945 178.139 178.805 179.069 
179.788 180.184 180.936 181.306 181.974 173.155 174.305 173.819 174.052 
175.638 175.067 175.288 174.759 175.022 176.994 176.452 176.693 176.1 
176.366 175.817 176.166 178.214 177.749 178.013 177.5 177.77 177.229 
177.567 177.053 177.422 179.455 178.955 179.231 178.754 179.048 178.577 
178.896 178.427 178.732 178.242 178.468 180.806 180.273 180.576 180.033 
180.365 179.856 180.206 179.716 180.002 179.487 179.661 179.133 179.275 
182.062 181.615 181.935 181.428 181.761 181.24 181.603 181.077 181.392 
180.806 181.002 180.373 180.535 179.966 180.215 183.158 182.79 183.107 
182.699 183.001 182.57 182.889 182.443 182.75 182.224 182.446 181.809 
181.984 181.34 181.588 181.033 181.358 184.164 183.837 184.155 183.792 
184.089 183.705 184.001 183.617 183.908 183.488 183.721 183.205 183.374 
182.79 182.979 182.422 182.674 182.165 182.412 183.071 183.393 183.544 
184.145 183.713 183.874 184.535 184.655 185.289 184.078 184.227 184.916 
185.062 185.77 185.876 186.557 184.411 184.598 185.305 185.473 186.223 
186.374 187.125 187.202 187.857 184.621 184.89 185.639 185.866 186.626 
186.814 187.565 187.725 188.399 188.455 188.986 184.723 185.051 185.83 
186.148 186.899 187.15 187.834 188.06 188.689 188.867 189.368 189.432 
189.811 184.788 185.126 185.876 186.252 186.957 187.287 187.883 188.18 
188.733 189.016 189.503 189.676 190.027 190.098 190.385 184.822 185.159 
185.839 186.217 186.848 187.212 187.733 188.075 188.557 188.919 189.401 
189.702 190.081 190.233 190.503 190.584 190.825 184.794 185.134 185.731 
186.099 186.646 187.016 187.495 187.847 188.289 188.658 189.106 189.486 
189.883 190.177 190.459 190.633 190.836 190.946 191.091 162.729 163.026 
162.656 162.319 163.689 163.147 162.839 162.381 162.235 164.547 163.932 
163.627 163.076 162.915 162.532 162.695 165.531 164.85 164.546 163.938 
163.752 163.28 163.334 163.133 163.525 166.706 165.95 165.733 165.009 
164.917 164.268 164.334 163.873 164.176 164.029 164.556 167.981 167.231 
167.118 166.377 166.435 165.699 165.883 165.167 165.456 164.926 165.379 
165.156 165.741 169.279 168.555 168.485 167.799 167.893 167.271 167.493 
166.841 167.076 166.407 166.7 166.202 166.657 166.419 167.005 170.627 
169.918 169.895 169.186 169.247 168.641 168.812 168.287 168.471 167.912 
168.077 167.534 167.817 167.438 167.91 167.715 168.294 171.935 171.302 
171.346 170.648 170.712 170.02 170.15 169.548 169.743 169.191 169.391 
168.835 169.084 168.609 169.009 168.688 169.211 169.012 169.558 162.624 
162.119 162.351 162.44 161.992 161.938 162.031 162.301 162.64 162.59 
162.184 162.279 162.18 162.645 162.835 163.435 163.617 163.12 163.307 
162.873 163.308 163.179 163.865 163.931 164.582 164.68 164.245 164.522 
164.081 164.445 164.106 164.652 164.54 165.168 165.144 165.69 165.795 
165.334 165.614 165.237 165.59 165.239 165.672 165.425 165.964 165.819 
166.363 166.258 166.799 167.042 166.509 166.781 166.346 166.731 166.351 
166.803 166.475 167.001 166.738 167.296 167.066 167.617 167.455 168.05 
168.334 167.791 168.069 167.591 167.994 167.569 168.045 167.658 168.172 
167.842 168.373 168.089 168.607 168.364 168.895 168.742 169.313 169.562 
169.056 169.306 168.862 169.232 168.843 169.286 168.913 169.36 169.006 
169.442 169.139 169.575 169.327 169.781 169.592 170.083 169.957 170.466 
162.852 162.742 162.881 163.001 162.89 162.853 162.965 162.973 163.097 
163.537 163.187 163.234 163.048 163.231 163.27 163.858 164.584 164.035 
164.038 163.586 163.833 163.663 164.377 164.533 165.579 165.692 165.148 
165.21 164.648 164.933 164.569 165.283 165.262 166.263 166.424 167.341 
166.835 166.297 166.481 165.939 166.263 165.818 166.385 166.214 166.983 
167.053 167.83 167.957 168.674 168.104 167.545 167.807 167.281 167.636 
167.16 167.59 167.26 167.782 167.676 168.317 168.401 169.195 169.34 
170.265 169.368 168.852 169.108 168.622 168.951 168.491 168.862 168.438 
168.878 168.552 169.162 169.034 169.922 170 171.096 171.216 172.294 
170.511 170.057 170.286 169.853 170.144 169.728 170.092 169.687 170.177 
169.792 170.476 170.173 171.112 170.99 172.128 172.157 173.264 173.281 
174.164 181.578 180.51 180.841 180.393 179.384 179.726 179.238 179.575 
179.062 178.184 178.562 178.066 178.402 177.88 178.203 177.657 176.915 
177.316 176.831 177.205 176.69 177.03 176.518 176.823 176.295 175.666 
176.031 175.526 175.927 175.412 175.802 175.283 175.66 175.155 175.487 
174.979 174.453 174.779 174.212 174.594 174.054 174.471 173.935 174.356 
173.83 174.253 173.742 174.137 173.653 173.244 173.548 172.933 173.271 
172.699 173.099 172.582 173.001 172.504 172.913 172.426 172.833 172.365 
172.79 172.388 172.106 172.363 171.772 172.038 171.48 171.803 171.329 
171.707 171.288 171.667 171.246 171.596 171.165 171.527 171.136 171.571 
171.271 171.129 171.316 170.779 170.978 170.471 170.707 170.265 170.564 
170.177 170.523 170.142 170.487 170.077 170.405 170.003 170.372 170.046 
170.509 170.276 
POINT_DATA 1002
SCALARS Distance double
LOOKUP_TABLE default
173.579 172.51 172.342 173.534 172.304 174.834 173.602 172.39 174.896 
176.217 173.757 172.541 175.013 176.291 177.491 173.952 172.76 175.208 
176.43 177.602 178.672 174.233 173.077 175.474 176.698 177.858 178.954 
179.983 174.641 173.487 175.825 177.014 178.198 179.315 180.347 181.312 
175.135 173.985 176.265 177.35 178.501 179.655 180.676 181.604 182.467 
175.62 174.516 176.724 177.748 178.825 179.984 181.022 181.908 182.744 
183.513 176.014 174.978 177.109 178.164 179.227 180.353 181.395 182.267 
183.06 183.814 184.477 171.292 171.115 169.978 169.85 168.694 171.085 
168.596 167.444 169.822 171.159 167.358 166.233 168.542 169.878 171.338 
166.214 165.184 167.32 168.595 170.112 171.637 165.183 164.267 166.234 
167.419 168.873 170.471 171.99 164.223 163.464 165.196 166.374 167.723 
169.257 170.85 172.424 163.513 162.976 164.236 165.351 166.701 168.131 
169.705 171.381 173.017 163.187 162.86 163.58 164.444 165.781 167.189 
168.66 170.373 172.123 173.665 163.041 163.179 163.018 163.332 163.318 
163.682 164.345 164.72 164.407 164.919 166.173 166.675 165.93 166.008 
166.449 167.713 168.095 167.456 167.358 167.453 167.906 168.944 169.403 
168.625 168.579 168.691 169.025 169.645 170.747 171.299 170.251 170.097 
170.24 170.544 171.033 171.604 172.867 173.328 172.39 172.117 172.084 
172.18 172.443 172.865 173.287 174.574 174.906 174.27 174.074 173.92 
173.729 173.654 173.86 174.236 174.62 176.001 175.634 177.178 175.256 
176.956 178.63 174.975 176.75 178.658 180.093 175.013 176.621 178.571 
180.122 181.196 175.379 176.798 178.377 179.792 180.951 182.084 175.69 
177.218 178.473 179.373 180.343 181.667 182.959 175.753 177.41 178.829 
179.496 179.998 181.132 182.56 183.653 175.794 177.297 178.941 179.949 
180.348 181.075 182.258 183.336 184.141 175.984 177.229 178.795 180.135 
180.855 181.48 182.362 183.207 183.907 184.618 177.149 178.45 178.345 
179.885 179.752 179.55 181.169 181.139 181.046 180.747 182.249 182.298 
182.307 182.149 181.816 183.251 183.335 183.333 183.233 183.03 182.712 
184.01 184.193 184.277 184.247 184.092 183.877 183.535 184.514 184.779 
184.997 185.17 185.137 184.934 184.676 184.302 185.034 185.338 185.549 
185.795 185.953 185.841 185.592 185.326 184.961 185.543 186.005 186.641 
186.995 187.549 186.199 187.708 188.264 186.969 186.293 188.399 189.09 
187.616 186.976 186.493 189.269 189.845 188.437 187.756 187.188 186.568 
190.004 190.303 189.306 188.647 188.022 187.211 186.368 190.517 190.672 
189.978 189.344 188.745 187.923 186.949 186.105 190.885 191.017 190.475 
189.86 189.185 188.427 187.533 186.649 185.826 191.029 191.195 190.721 
190.237 189.539 188.734 187.94 187.14 186.297 185.403 184.696 185.682 
184.841 185.746 185.083 186.759 185.859 185.349 186.708 187.667 186.015 
185.468 186.735 187.682 188.563 186.054 185.411 186.775 187.696 188.648 
189.411 186.003 185.305 186.673 187.517 188.422 189.19 189.849 185.926 
185.152 186.553 187.213 187.997 188.688 189.37 190.132 185.675 184.837 
186.394 186.998 187.669 188.341 188.973 189.779 190.59 185.18 184.361 
186.005 186.741 187.444 188.161 188.823 189.554 190.401 191.027 175.942 
177.074 177.052 178.324 178.205 178.466 179.584 179.338 179.762 179.959 
180.749 180.477 180.918 180.995 181.041 181.834 181.581 181.963 181.971 
181.967 181.87 182.763 182.508 182.912 182.983 183.013 183.002 182.775 
183.524 183.245 183.705 183.88 184.02 184.036 183.851 183.505 184.22 
183.855 184.442 184.617 184.796 184.847 184.661 184.325 184.036 174.26 
175.458 173.277 174.722 172.172 176.688 173.864 171.305 176.186 177.856 
173.015 170.773 175.525 177.453 178.975 172.29 170.508 174.718 176.934 
178.586 180.139 171.87 170.465 174.005 176.344 178.156 179.707 181.263 
171.739 170.552 173.539 175.788 177.721 179.235 180.778 182.203 171.767 
170.716 173.244 175.211 177.172 178.754 180.241 181.723 182.936 171.916 