# vtk DataFile Version 4.0
vtk output
ASCII
DATASET POLYDATA
POINTS 1002 float
-125.664 -114.56 54.1688 -125.324 -113.828 53.1473 -124.753 -113.813 53.6942 
-125.028 -114.665 54.8423 -124.09 -113.878 54.3258 -125.952 -115.164 55.7007 
-124.235 -114.953 55.5624 -123.345 -114.166 54.9622 -125.24 -115.533 56.4303 
-126.203 -116.096 57.4912 -123.453 -115.473 56.2349 -122.673 -114.597 55.7098 
-124.414 -116.143 57.1316 -125.495 -116.783 58.1294 -126.4 -117.405 59.1736 
-122.872 -115.994 57.0467 -122.08 -115.043 56.6259 -123.739 -116.801 57.8521 
-124.765 -117.49 58.84 -125.785 -118.156 59.7746 -126.569 -118.623 60.8338 
-122.386 -116.392 58.166 -121.521 -115.546 57.6378 -123.295 -117.228 58.8849 
-124.191 -117.958 59.8458 -125.119 -118.702 60.718 -126.005 -119.438 61.5013 
-126.726 -120.01 62.4253 -121.964 -116.737 59.5324 -121.158 -116.046 58.7826 
-122.894 -117.498 60.2933 -123.749 -118.315 61.1431 -124.461 -119.169 61.9809 
-125.215 -120.208 62.5088 -126.012 -121.224 62.9722 -126.707 -121.947 63.6064 
-121.739 -117.063 60.9646 -121.028 -116.432 60.0523 -122.51 -117.799 61.8113 
-123.256 -118.84 62.4443 -123.848 -119.951 63.0788 -124.382 -121.105 63.57 
-125.055 -122.354 63.7551 -125.785 -123.33 64.0122 -126.462 -123.843 64.4981 
-121.579 -117.484 62.2241 -120.903 -116.829 61.2539 -122.182 -118.255 63.1057 
-122.67 -119.497 63.5634 -123.125 -120.961 63.8446 -123.622 -122.197 64.2856 
-124.206 -123.299 64.6248 -124.859 -124.298 64.7642 -125.521 -124.928 65.0191 
-126.208 -125.19 65.4334 -121.258 -118.11 63.1786 -120.636 -117.378 62.2581 
-121.796 -118.95 63.9982 -122.096 -120.223 64.4158 -122.31 -121.832 64.5244 
-122.743 -123.192 64.8185 -123.407 -124.122 65.3465 -124.091 -124.907 65.717 
-124.712 -125.569 65.9083 -125.356 -125.968 66.1404 -126.081 -126.155 66.4283 
-124.526 -112.842 52.6181 -123.912 -112.764 53.1414 -123.58 -111.92 51.7831 
-122.872 -111.83 52.2838 -122.551 -111.4 50.5986 -123.25 -112.827 53.7463 
-121.759 -111.189 51.3111 -121.551 -110.662 49.8797 -122.268 -111.83 53.0858 
-122.583 -113.119 54.5058 -120.874 -110.228 50.9088 -120.689 -109.145 50.0121 
-121.376 -110.928 52.5378 -121.775 -112.031 54.1832 -121.941 -113.532 55.4444 
-120.257 -108.871 50.9983 -119.924 -107.638 50.2256 -120.791 -109.844 52.3215 
-121.1 -110.958 53.9338 -121.171 -112.426 55.2461 -121.268 -114.051 56.3457 
-119.54 -107.837 51.048 -119.153 -106.712 50.2022 -120.168 -108.842 52.3005 
-120.468 -109.963 53.8178 -120.427 -111.362 55.0928 -120.463 -112.987 56.1085 
-120.713 -114.679 57.2509 -118.706 -107.129 51.1914 -118.512 -105.932 50.4135 
-119.221 -108.193 52.4266 -119.528 -109.31 53.8928 -119.534 -110.575 55.1284 
-119.643 -111.966 56.1135 -119.973 -113.58 57.131 -120.443 -115.212 58.4019 
-118.148 -106.431 51.6755 -118.16 -105.161 51.0195 -118.38 -107.646 52.7889 
-118.488 -108.909 54.0731 -118.437 -110.226 55.1524 -118.628 -111.41 56.1369 
-119.133 -112.6 57.2283 -119.72 -114.094 58.3555 -120.321 -115.625 59.6616 
-117.899 -105.861 52.4167 -117.974 -104.641 51.8468 -117.944 -107.133 53.3568 
-117.811 -108.504 54.325 -117.504 -110.008 55.0287 -117.493 -111.328 55.7924 
-118.015 -112.261 56.9627 -118.796 -113.261 58.2358 -119.545 -114.656 59.4252 
-120.164 -116.128 60.7717 -117.671 -105.119 53.1431 -117.644 -106.425 53.9215 
-117.224 -105.811 54.732 -117.007 -107.164 55.4253 -116.574 -106.585 56.2226 
-117.452 -107.824 54.7054 -116.084 -107.88 56.6094 -116.054 -107.333 57.363 
-116.504 -108.671 55.7026 -116.936 -109.459 55.0762 -115.533 -108.572 57.7803 
-116.023 -108.101 58.5238 -115.528 -109.49 56.7886 -115.866 -110.524 55.7461 
-116.512 -111.178 55.4167 -115.796 -109.412 59.1737 -116.552 -109.067 59.8407 
-115.316 -110.261 58.3823 -115.187 -111.405 57.2395 -115.648 -112.241 56.342 
-116.746 -112.395 56.4276 -116.781 -110.6 60.3158 -117.576 -110.445 60.8741 
-116.118 -111.13 59.7841 -115.551 -112.049 59.0313 -115.467 -112.959 58.0039 
-116.305 -113.316 57.5174 -117.643 -113.196 57.8631 -118.024 -112.229 61.2071 
-118.728 -112.178 61.6868 -117.396 -112.392 60.7647 -116.745 -112.853 60.3224 
-116.258 -113.593 59.6092 -116.57 -114.18 58.9034 -117.628 -114.297 58.8541 
-118.728 -114.31 59.2413 -118.936 -113.996 62.4042 -119.521 -113.89 62.752 
-118.384 -114.035 62.0694 -117.841 -114.178 61.7477 -117.305 -114.644 61.2719 
-117.265 -115.27 60.6448 -117.955 -115.624 60.306 -118.843 -115.685 60.4499 
-119.561 -115.812 60.6972 -119.365 -115.511 63.9218 -119.888 -115.319 64.0975 
-118.848 -115.622 63.7752 -118.39 -115.753 63.6046 -117.931 -116.113 63.2713 
-117.732 -116.673 62.7658 -118.149 -117.089 62.3414 -118.885 -117.2 62.2081 
-119.508 -117.206 62.2491 -120.058 -117.279 62.2724 -120.593 -118.632 63.7067 
-119.979 -118.686 63.874 -120.447 -120.216 65.0384 -119.445 -118.717 64.0751 
-119.89 -120.311 65.4628 -120.277 -122.036 66.432 -118.823 -118.787 64.2305 
-119.367 -120.413 65.8534 -119.744 -122.18 67.1029 -119.703 -123.905 68.1763 
-118.165 -118.715 64.4488 -118.689 -120.574 66.0495 -119.049 -122.369 67.5263 
-118.854 -124.133 68.8053 -118.352 -125.57 69.7108 -117.983 -118.27 64.8681 
-118.146 -120.475 66.2948 -118.187 -122.462 67.7406 -117.763 -124.228 69.0775 
-117.139 -125.728 69.9476 -116.928 -126.898 70.5569 -118.308 -117.65 65.2994 
-118.206 -119.886 66.7638 -117.774 -122.13 68.1717 -116.844 -123.998 69.433 
-116.03 -125.508 70.1764 -115.854 -126.863 70.8515 -116.149 -127.996 71.7847 
-118.737 -117.214 65.4789 -118.635 -119.15 67.0992 -118.128 -121.419 68.6821 
-116.846 -123.485 70.076 -115.607 -125.028 70.8 -115.23 -126.398 71.5144 
-115.391 -127.758 72.8271 -115.635 -128.789 73.9921 -119.216 -116.976 65.4704 
-119.118 -118.642 67.0643 -118.807 -120.713 68.7404 -117.7 -122.877 70.4147 
-116.242 -124.568 71.444 -115.427 -125.852 72.2376 -115.178 -127.12 73.7872 
-115.054 -128.273 75.4245 -115.172 -129.004 76.0356 -119.772 -116.755 65.4726 
-119.669 -118.322 66.8933 -119.496 -120.195 68.3975 -118.75 -122.265 70.1082 
-117.454 -124.087 71.5114 -116.39 -125.426 72.4943 -115.739 -126.494 74.0153 
-115.162 -127.461 75.9837 -114.859 -128.234 77.1202 -115.18 -128.712 77.0411 
-121.153 -119.595 64.4856 -120.886 -121.513 65.6049 -121.517 -120.839 65.0138 
-120.45 -123.499 67.1138 -121.049 -122.997 66.097 -121.597 -122.427 65.262 
-119.509 -125.234 69.0223 -120.448 -124.867 67.8768 -121.079 -124.457 66.624 
-121.802 -123.926 65.5536 -118.212 -126.655 70.3615 -119.609 -126.32 69.7399 
-120.654 -126.013 68.5663 -121.463 -125.574 67.2175 -122.452 -124.917 66.1278 
-117.227 -127.887 71.3183 -118.708 -127.525 70.9428 -120.153 -127.232 70.1942 
-121.194 -126.922 68.961 -122.202 -126.336 67.7216 -123.276 -125.592 66.6902 
-116.523 -128.908 72.9352 -117.86 -128.61 72.1076 -119.466 -128.242 71.4082 
-120.794 -128.013 70.3516 -121.825 -127.65 69.0901 -122.954 -126.956 68.0165 
-123.988 -126.202 66.9892 -115.925 -129.379 74.7862 -117.109 -129.359 73.5251 
-118.705 -129.106 72.5925 -120.315 -128.885 71.6274 -121.504 -128.696 70.3624 
-122.56 -128.243 69.1683 -123.719 -127.474 68.1773 -124.68 -126.678 67.1537 
-115.823 -129.218 75.9659 -116.856 -129.483 74.6934 -118.284 -129.564 73.642 
-119.976 -129.566 72.7425 -121.421 -129.508 71.6251 -122.468 -129.262 70.3531 
-123.533 -128.666 69.2474 -124.634 -127.815 68.2794 -125.479 -126.955 67.3144 
-116.233 -128.626 76.873 -117.097 -129.091 75.8463 -117.934 -128.718 76.8726 
-118.862 -129.155 76.0415 -119.596 -129.19 77.1421 -118.278 -129.436 74.7753 
-120.52 -129.607 76.2398 -121.223 -129.813 76.9153 -120.061 -129.536 75.0444 
-119.828 -129.766 73.8108 -122.336 -130.21 75.9587 -123.282 -130.187 76.5602 
-121.783 -129.827 75.1432 -121.575 -129.949 73.9457 -121.479 -130.018 72.7666 
-124.476 -130.46 75.9172 -125.159 -130.06 76.7969 -123.711 -130.081 75.1036 
-123.235 -129.983 73.992 -123.01 -130.241 72.6849 -122.736 -129.999 71.4912 
-126.19 -130.003 76.0366 -126.445 -129.41 76.6666 -125.729 -129.97 75.1485 
-125.081 -129.862 73.9756 -124.541 -130.092 72.5605 -124.152 -130.102 71.2801 
-123.777 -129.546 70.2088 -127.573 -129.05 75.5004 -127.988 -128.505 75.8289 
-127.332 -129.367 74.7597 -126.959 -129.596 73.6393 -126.325 -129.776 72.3119 
-125.72 -129.748 71.0651 -125.285 -129.387 70.0245 -124.914 -128.701 69.1193 
-129.261 -128.151 74.8413 -129.98 -127.707 75.3037 -128.762 -128.545 74.0837 
-128.483 -129.063 73.0425 -128.033 -129.368 71.9402 -127.344 -129.193 70.9296 
-126.772 -128.826 69.9514 -126.346 -128.382 69.0044 -125.898 -127.725 68.14 
-130.977 -127.559 74.6058 -131.655 -127.128 75.2737 -130.257 -127.854 73.7232 
-129.765 -128.306 72.6908 -129.342 -128.686 71.71 -128.701 -128.548 70.8864 
-128.025 -128.141 70.0174 -127.548 -127.828 69.0094 -127.102 -127.421 68.0495 
-126.569 -126.803 67.215 -115.433 -127.994 77.599 -116.82 -128.026 77.4672 
-116.359 -127.292 77.5658 -117.838 -127.505 77.6602 -117.742 -126.915 76.9793 
-118.591 -128.421 77.6273 -119.05 -127.232 77.1407 -119.117 -126.905 75.8501 
-119.468 -128.024 77.7431 -120.245 -128.992 77.65 -120.301 -127.175 75.8107 
-120.438 -126.767 74.4819 -120.605 -127.639 76.8277 -121.307 -128.31 77.3408 
-122.224 -129.247 77.2024 -121.745 -126.837 74.4091 -121.962 -126.084 73.4118 
-121.957 -127.305 75.4131 -122.649 -127.614 76.3744 -123.51 -128.09 77.1888 
-124.326 -129.134 77.305 -123.339 -126.01 73.4484 -123.472 -125.18 72.5389 
-123.41 -126.556 74.4497 -123.881 -126.96 75.4931 -124.563 -127.254 76.7341 
-125.117 -127.825 77.6384 -125.685 -128.828 77.4892 -124.67 -125.128 72.4801 
-124.616 -124.382 71.5022 -124.757 -125.511 73.6887 -124.984 -125.873 74.8868 
-125.406 -126.493 75.9113 -125.809 -127.034 76.8072 -126.272 -127.611 77.0863 
-127.053 -128.261 76.5938 -125.606 -124.284 71.3873 -125.463 -123.501 70.5092 
-125.811 -124.683 72.571 -126.043 -124.831 73.9303 -126.391 -125.413 74.8811 
-126.835 -126.255 75.3821 -127.362 -126.72 75.7355 -128.173 -127.065 75.8452 
-129.171 -127.481 75.6762 -126.327 -123.225 70.5691 -126.181 -122.389 69.8579 
-126.604 -123.882 71.4611 -126.948 -124.175 72.6241 -127.372 -124.539 73.6371 
[...]
CELL_DATA 2000
SCALARS Distance double
LOOKUP_TABLE default
176.704 176.486 176.985 177.76 176.314 176.801 177.642 178.102 178.958 
176.284 176.707 177.608 178.056 179.012 179.455 180.418 176.421 176.789 
177.738 178.135 179.15 179.581 180.615 181.009 181.946 176.662 177.006 
178.001 178.366 179.396 179.785 180.824 181.224 182.221 182.549 183.457 
177.032 177.319 178.347 178.686 179.742 180.087 181.117 181.465 182.483 
182.838 183.84 184.131 185.071 177.559 177.779 178.806 179.086 180.163 
180.48 181.544 181.835 182.86 183.16 184.189 184.514 185.494 185.76 
186.606 178.148 178.354 179.359 179.59 180.627 180.92 181.981 182.288 
183.315 183.596 184.588 184.881 185.826 186.114 186.929 187.155 187.821 
178.692 178.923 179.902 180.133 181.1 181.364 182.34 182.664 183.638 
183.982 184.916 185.24 186.109 186.401 187.163 187.403 188.041 188.233 
188.791 175.913 174.481 175.353 175.644 172.977 173.841 174.155 175.086 
175.441 171.547 172.344 172.618 173.564 173.999 174.945 175.394 170.113 
170.931 171.21 172.099 172.575 173.529 174.062 174.983 175.504 168.689 
169.534 169.938 170.796 171.312 172.202 172.756 173.663 174.208 175.129 
175.703 167.442 168.242 168.765 169.616 170.187 171.025 171.553 172.395 
172.913 173.82 174.416 175.378 176.05 166.432 167.143 167.7 168.522 
169.125 169.939 170.458 171.233 171.715 172.554 173.146 174.102 174.829 
175.815 176.577 165.72 166.284 166.86 167.565 168.192 168.931 169.471 
170.183 170.666 171.422 171.994 172.879 173.602 174.596 175.399 176.393 
177.169 165.365 165.766 166.376 166.907 167.548 168.13 168.67 169.273 
169.749 170.43 170.97 171.777 172.447 173.386 174.17 175.189 176.003 
176.989 177.738 165.462 166.059 165.98 166.493 166.619 166.583 167.06 
167.049 167.574 167.035 167.002 167.373 167.468 167.904 168.021 168.537 
167.646 167.395 167.671 167.682 168.106 168.233 168.746 168.932 169.542 
168.816 168.239 168.526 168.209 168.682 168.568 169.145 169.195 169.878 
170.039 170.785 170.556 169.732 170.069 169.44 169.939 169.497 170.076 
169.838 170.539 170.529 171.357 171.453 172.307 172.668 171.727 172.092 
171.258 171.737 171.047 171.593 171.064 171.744 171.458 172.332 172.242 
173.199 173.168 174.091 174.795 173.918 174.285 173.399 173.843 173.014 
173.542 172.811 173.493 172.954 173.859 173.523 174.538 174.303 175.278 
175.096 175.989 176.622 175.921 176.266 175.506 175.907 175.129 175.621 
174.862 175.503 174.862 175.711 175.244 176.209 175.838 176.755 176.429 
177.259 177.001 177.763 178.745 178.349 179.073 180.129 177.975 178.739 
179.885 180.55 181.659 177.554 178.403 179.649 180.366 181.56 182.187 
183.271 177.114 177.993 179.322 180.129 181.369 182.082 183.157 183.72 
184.499 176.874 177.637 178.99 179.796 181.03 181.797 182.783 183.431 
184.076 184.582 185.017 176.906 177.519 178.83 179.538 180.751 181.438 
182.332 182.912 183.443 183.96 184.378 184.93 185.471 177.085 177.591 
178.812 179.439 180.646 181.251 182.171 182.567 183.09 183.387 183.857 
184.331 185.049 185.638 186.437 177.341 177.759 178.877 179.423 180.608 
181.204 182.241 182.604 183.258 183.348 183.862 184.074 184.846 185.348 
186.25 186.75 187.414 177.622 177.997 179.036 179.497 180.622 181.186 
182.283 182.742 183.553 183.705 184.267 184.334 184.998 185.299 186.104 
186.554 187.189 187.548 187.892 179.3 180.66 180.16 180.532 182.159 
181.582 181.953 181.402 181.741 183.719 183.135 183.476 182.87 183.188 
182.608 182.945 184.912 184.58 184.919 184.399 184.689 184.084 184.391 
183.831 184.2 185.505 185.483 185.922 185.691 186.054 185.574 185.872 
185.294 185.637 185.103 185.475 186.049 185.995 186.558 186.508 187.028 
186.807 187.184 186.731 187.034 186.519 186.854 186.344 186.653 186.946 
186.725 187.261 187.148 187.709 187.639 188.116 187.883 188.198 187.803 
188.076 187.642 187.914 187.435 187.653 187.758 187.605 187.977 187.854 
188.307 188.275 188.79 188.702 189.105 188.835 189.119 188.755 189.014 
188.606 188.817 188.343 188.492 188.155 188.157 188.431 188.406 188.784 
188.809 189.351 189.366 189.905 189.733 190.117 189.773 190.064 189.669 
189.915 189.471 189.636 189.132 189.24 188.398 189.156 188.715 188.746 
190.416 189.704 189.659 189.142 189.205 191.821 191.067 190.964 190.267 
190.315 189.77 189.891 193.215 192.465 192.353 191.606 191.606 191.011 
191.124 190.549 190.549 194.586 193.914 193.791 192.982 192.867 192.238 
192.276 191.758 191.706 191.072 190.811 195.381 195.095 194.984 194.353 
194.1 193.424 193.281 192.762 192.645 192.107 191.809 191.147 190.744 
195.541 195.508 195.445 195.205 194.976 194.502 194.23 193.685 193.436 
192.914 192.606 192.039 191.627 190.995 190.56 195.849 195.642 195.597 
195.432 195.323 195.106 194.907 194.505 194.166 193.641 193.24 192.726 
192.31 191.779 191.317 190.731 190.252 196.506 196.145 196.038 195.699 
195.574 195.364 195.228 194.988 194.659 194.238 193.733 193.26 192.772 
192.336 191.871 191.384 190.871 190.325 189.817 188.263 188.32 188.5 
189.077 188.586 188.711 189.432 189.617 190.407 188.959 189.071 189.78 
190.016 190.846 191.052 191.814 189.228 189.394 189.999 190.273 191.011 
191.347 192.123 192.383 193.141 189.375 189.578 190.14 190.396 191.063 
191.405 192.165 192.547 193.362 193.694 194.442 189.457 189.692 190.24 
190.486 191.11 191.432 192.15 192.543 193.282 193.72 194.385 194.774 
195.203 189.387 189.713 190.21 190.503 191.013 191.375 191.981 192.434 
193.037 193.493 193.984 194.439 194.812 195.188 195.397 189.084 189.512 
189.973 190.346 190.765 191.14 191.628 192.107 192.656 193.133 193.583 
193.978 194.371 194.751 195.169 195.439 195.791 188.621 189.093 189.546 
189.999 190.425 190.82 191.267 191.7 192.244 192.721 193.254 193.639 
194.102 194.44 194.968 195.318 195.883 196.086 196.506 178.088 179.291 
178.961 179.534 180.624 180.261 180.9 180.504 181.131 181.978 181.637 
182.295 181.922 182.549 182.154 182.741 183.231 182.948 183.576 183.265 
183.829 183.487 183.967 183.617 183.969 184.402 184.147 184.767 184.479 
184.99 184.652 185.045 184.703 184.997 184.613 184.759 185.537 185.291 
185.896 185.627 186.12 185.772 186.135 185.746 186.042 185.634 185.863 
185.372 185.545 186.583 186.369 186.905 186.678 187.127 186.838 187.182 
186.827 187.103 186.706 186.922 186.488 186.681 186.229 186.488 187.451 
187.308 187.791 187.602 188.007 187.759 188.073 187.785 188.036 187.708 
187.865 187.477 187.557 187.196 187.33 187.074 187.325 188.125 188.063 
188.549 188.42 188.83 188.606 188.907 188.622 188.855 188.557 188.727 
188.364 188.43 188.011 188.055 187.735 187.875 187.721 187.928 177.381 
176.567 177.499 178.537 175.676 176.654 177.778 178.728 179.847 174.906 
175.801 176.986 177.985 179.221 180.133 181.252 174.428 175.128 176.263 
177.226 178.547 179.543 180.762 181.56 182.569 174.289 174.77 175.753 
176.546 177.83 178.867 180.183 181.083 182.155 182.844 183.759 174.356 
174.722 175.599 176.149 177.313 178.201 179.558 180.503 181.687 182.44 
183.418 184.049 184.938 174.459 174.812 175.678 176.099 177.164 177.829 
179.118 179.958 181.2 181.985 183.052 183.732 184.681 185.256 186.07 
174.592 174.928 175.794 176.19 177.179 177.733 178.878 179.597 180.754 
181.517 182.583 183.332 184.314 184.982 185.82 186.333 186.99 174.801 
175.097 175.939 176.299 177.216 177.7 178.718 179.341 180.38 181.074 
182.064 182.81 183.764 184.518 185.367 186.001 186.665 187.141 187.664 
175.207 176.252 175.926 176.361 177.444 177.06 177.528 177.156 177.651 
178.713 178.319 178.831 178.425 178.952 178.55 179.133 179.96 179.585 
180.152 179.792 180.398 179.964 180.543 180.115 180.738 181.276 180.848 
181.435 181.113 181.814 181.457 182.085 181.604 182.163 181.725 182.357 
182.739 182.251 182.804 182.416 183.094 182.813 183.481 183.109 183.637 
183.172 183.713 183.336 183.997 184.148 183.721 184.231 183.802 184.359 
184.039 184.641 184.365 184.886 184.531 184.998 184.645 185.205 184.932 
185.549 185.372 185.037 185.529 185.15 185.635 185.273 185.789 185.478 
185.987 185.672 186.138 185.821 186.309 186.046 186.573 186.348 186.83 
186.498 186.2 186.694 186.359 186.839 186.493 186.991 186.648 187.147 
186.797 187.278 186.935 187.417 187.109 187.59 187.317 187.753 187.492 
187.85 187.299 188.612 187.809 187.503 190.013 189.159 188.851 187.998 
187.67 191.563 190.632 190.347 189.42 189.092 188.195 187.861 193.087 
192.191 191.848 190.936 190.571 189.653 189.275 188.381 188.01 194.184 
193.498 193.057 192.303 191.859 191.038 190.597 189.751 189.339 188.492 
188.112 194.976 194.38 193.971 193.334 192.929 192.208 191.782 190.991 
190.598 189.792 189.432 188.599 188.247 195.876 195.234 194.907 194.24 
193.926 193.253 192.909 192.16 191.785 191.015 190.67 189.894 189.54 
188.726 188.376 196.648 196.157 195.77 195.163 194.748 194.179 193.792 
193.196 192.756 192.094 191.651 190.998 190.597 189.916 189.518 188.792 
188.441 196.807 196.639 196.136 195.758 195.155 194.751 194.227 193.836 
193.328 192.842 192.292 191.762 191.281 190.769 190.36 189.791 189.403 
188.78 188.45 187.362 187.738 187.966 188.706 187.834 188.256 189.131 
189.353 190.112 187.791 188.274 189.296 189.731 190.714 190.873 191.706 
187.933 188.313 189.45 189.951 191.214 191.543 192.633 192.637 193.39 
188.29 188.604 189.784 190.25 191.644 192.107 193.399 193.596 194.46 
194.25 194.632 188.608 188.983 190.118 190.605 191.869 192.442 193.653 
194.148 195.022 195.137 195.518 195.224 195.371 188.69 189.166 190.165 
190.741 191.756 192.396 193.32 194.004 194.747 195.271 195.698 195.831 
196.049 195.884 196.131 188.499 189.037 189.843 190.494 191.303 191.988 
192.689 193.38 193.972 194.654 195.125 195.645 195.995 196.266 196.582 
196.612 196.849 188.129 188.663 189.303 189.945 190.623 191.329 191.966 
192.641 193.186 193.826 194.308 194.925 195.355 195.905 196.271 196.677 
196.899 197.04 197.007 186.585 185.519 186.346 186.895 184.511 185.281 
185.774 186.561 186.983 183.429 184.276 184.789 185.518 185.936 186.614 
186.983 181.953 183.015 183.59 184.517 185.046 185.735 186.142 186.712 
187.14 180.234 181.35 181.915 183.092 183.739 184.765 185.294 185.981 
186.354 186.943 187.422 178.652 179.652 180.171 181.317 181.951 183.196 
183.799 184.871 185.264 186.059 186.393 187.166 187.659 177.25 178.159 
178.657 179.668 180.236 181.373 181.918 183.101 183.527 184.619 184.977 
185.956 186.382 187.311 187.785 176.008 176.83 177.31 178.227 178.765 
179.762 180.266 181.285 181.705 182.765 183.206 184.327 184.847 185.923 
186.425 187.357 187.726 174.979 175.698 176.169 176.96 177.479 178.367 
178.907 179.809 180.286 181.162 181.635 182.62 183.198 184.304 184.886 
185.93 186.353 187.217 187.457 174.626 174.543 174.995 175.819 174.472 
174.947 175.801 176.221 177.091 174.439 174.913 175.84 176.252 177.156 
177.574 178.503 174.626 175 175.999 176.365 177.332 177.711 178.667 
179.04 179.921 175.083 175.36 176.381 176.647 177.618 177.938 178.906 
179.257 180.155 180.447 181.284 175.554 175.867 176.883 177.12 178.024 
178.257 179.141 179.47 180.355 180.689 181.554 181.857 182.787 175.882 
176.249 177.244 177.564 178.428 178.651 179.423 179.68 180.475 180.821 
181.67 182.069 183.007 183.421 184.413 176.197 176.511 177.432 177.798 
178.635 178.945 179.679 179.934 180.642 180.927 181.7 182.097 182.995 
183.504 184.476 184.97 185.865 176.594 176.812 177.616 177.923 178.701 
179.048 179.787 180.108 180.809 181.089 181.803 182.129 182.956 183.424 
184.361 184.903 185.795 186.263 186.991 177.097 178.116 177.735 178.036 
179.306 178.806 179.088 178.7 179.058 180.745 180.13 180.401 179.859 
180.185 179.773 180.155 182.22 181.61 181.864 181.269 181.557 181.016 
181.344 180.896 181.229 183.705 183.069 183.331 182.734 183.038 182.455 
182.762 182.193 182.494 181.979 182.273 185.337 184.645 184.956 184.277 
184.654 184.011 184.399 183.733 184.078 183.409 183.744 183.124 183.48 
186.884 186.304 186.653 185.997 186.395 185.731 186.161 185.472 185.865 
185.137 185.505 184.781 185.161 184.481 184.894 188.098 187.71 188.076 
187.599 187.977 187.429 187.803 187.198 187.532 186.888 187.197 186.541 
186.856 186.2 186.53 185.905 186.264 189.074 188.793 189.183 188.855 
189.246 188.845 189.195 188.701 188.975 188.41 188.633 188.064 188.281 
187.728 187.947 187.404 187.638 187.123 187.383 188.085 188.346 188.532 
189.216 188.658 188.823 189.519 189.726 190.49 189.026 189.185 189.923 
190.092 190.882 191.073 191.842 189.427 189.603 190.411 190.572 191.393 
191.534 192.299 192.416 193.085 189.791 190.02 190.846 191.061 191.864 
192.035 192.748 192.871 193.492 193.59 194.173 189.99 190.312 191.077 
191.382 192.086 192.354 192.972 193.195 193.761 193.936 194.493 194.632 
195.198 189.99 190.384 191.083 191.454 192.064 192.392 192.949 193.261 
193.823 194.099 194.652 194.871 195.418 195.606 196.129 189.875 190.291 
190.959 191.357 191.941 192.277 192.823 193.167 193.765 194.108 194.664 
194.932 195.381 195.649 196.072 196.365 196.729 189.716 190.127 190.773 
191.19 191.775 192.129 192.661 193.018 193.604 194.006 194.557 194.872 
195.213 195.454 195.68 196.03 196.264 196.67 196.806 164.895 165.25 
164.826 164.484 165.97 165.352 164.954 164.511 164.247 167.009 166.249 
165.879 165.203 164.932 164.419 164.397 168.38 167.501 167.245 166.384 
166.255 165.479 165.579 165.009 165.503 170.009 169.121 169.041 168.045 
168.038 167.109 167.342 166.587 167.11 166.596 167.4 171.543 170.823 
170.897 170.002 170.025 169.057 169.219 168.432 168.862 168.294 168.9 
168.52 169.231 172.921 172.286 172.414 171.745 171.82 170.993 171.046 
170.239 170.489 169.899 170.37 169.939 170.505 170.178 170.801 174.376 
173.682 173.812 173.18 173.36 172.667 172.802 172.006 172.191 171.481 
171.881 171.361 171.924 171.5 172.105 171.733 172.345 175.832 175.167 
175.314 174.654 174.908 174.246 174.524 173.773 174.018 173.232 173.564 
172.922 173.425 172.947 173.52 173.102 173.649 173.265 173.79 164.699 
164.322 164.467 164.499 164.113 164.214 164.378 164.518 164.801 164.246 
164.134 164.446 164.589 165.098 165.171 165.736 165.327 164.682 165.039 
164.915 165.627 165.668 166.392 166.388 167.112 167.266 166.285 166.601 
166 166.716 166.466 167.262 167.146 167.87 167.839 168.549 169.156 
168.309 168.579 167.851 168.402 167.868 168.533 168.176 168.834 168.643 
169.305 169.243 169.904 170.703 170.005 170.218 169.638 170.03 169.521 
169.983 169.529 170.038 169.7 170.291 170.087 170.729 170.61 171.261 
172.192 171.482 171.627 171.062 171.357 170.905 171.266 170.853 171.262 
170.901 171.402 171.13 171.712 171.515 172.132 171.997 172.632 173.634 
172.956 173.056 172.437 172.669 172.155 172.491 172.055 172.466 172.086 
172.559 172.236 172.752 172.5 173.051 172.879 173.462 173.35 173.945 
165.036 164.75 165.054 165.559 164.916 164.883 165.266 165.639 166.175 
165.761 165.31 165.563 165.553 166.081 166.332 166.809 167.144 166.446 
166.619 166.188 166.657 166.561 167.125 167.122 167.599 168.611 167.933 
168.068 167.453 167.773 167.409 167.932 167.744 168.3 168.159 168.782 
169.955 169.355 169.504 168.895 169.104 168.598 168.986 168.683 169.251 
169.055 169.739 169.607 170.466 171.303 170.703 170.925 170.325 170.6 
169.989 170.346 169.85 170.399 170.103 170.848 170.681 171.581 171.498 
172.529 172.693 172.1 172.378 171.803 172.176 171.574 171.988 171.372 
171.877 171.4 172.098 171.842 172.728 172.634 173.634 173.612 174.628 
174.018 173.484 173.762 173.248 173.608 173.112 173.506 172.985 173.402 
172.909 173.455 173.12 173.872 173.736 174.645 174.637 175.582 175.595 
176.462 186.077 184.949 185.355 185.036 183.705 184.17 183.832 184.292 
184.005 182.279 182.817 182.422 182.972 182.633 183.207 182.866 180.818 
181.332 180.896 181.447 181.016 181.652 181.249 181.89 181.391 179.493 
179.923 179.484 179.943 179.457 179.978 179.504 180.137 179.66 180.272 
179.718 178.199 178.605 178.119 178.568 178.068 178.498 177.96 178.444 
177.945 178.526 178.047 178.626 178.142 176.889 177.25 176.662 177.126 
176.588 177.081 176.519 176.969 176.394 176.886 176.382 176.962 176.52 
177.121 176.721 175.704 175.957 175.315 175.66 175.075 175.54 174.99 
175.476 174.891 175.359 174.799 175.33 174.873 175.484 175.118 175.755 
175.461 174.687 174.857 174.226 174.431 173.838 174.138 173.602 173.99 
173.463 173.878 173.354 173.807 173.355 173.889 173.541 174.158 173.905 
174.572 174.4 
POINT_DATA 1002
SCALARS Distance double
LOOKUP_TABLE default
177.465 176.447 176.2 177.291 175.969 178.525 177.146 175.83 178.492 
179.862 177.149 175.875 178.533 180.015 181.38 177.344 176.045 178.724 
180.197 181.636 182.826 177.63 176.315 179.032 180.436 181.843 183.188 
184.361 178.016 176.768 179.4 180.799 182.121 183.489 184.849 186.007 
178.557 177.355 179.848 181.248 182.591 183.874 185.209 186.429 187.387 
179.155 177.937 180.37 181.668 183.031 184.33 185.564 186.708 187.653 
188.427 179.679 178.462 180.877 182.059 183.299 184.59 185.831 186.934 
187.851 188.622 189.327 175.093 174.767 173.584 173.176 172.173 174.526 
171.688 170.781 172.993 174.481 170.326 169.234 171.619 173.115 174.594 
169.046 167.791 170.446 171.875 173.282 174.751 167.892 166.646 169.359 
170.758 172.031 173.43 175.07 166.894 165.758 168.316 169.705 170.914 
172.204 173.808 175.61 166.203 165.204 167.488 168.778 169.936 171.152 
172.628 174.373 176.217 165.896 164.999 167.034 168.127 169.109 170.206 
171.554 173.161 174.978 176.815 165.496 166.553 166.132 167.068 166.663 
167.564 167.28 167.165 167.776 168.378 167.743 168.033 167.996 168.553 
169.313 168.945 169.473 168.893 169.163 169.725 170.599 170.779 171.418 
170.486 170.44 170.63 171.266 172.209 172.987 173.601 172.511 172.217 
172.126 172.48 173.253 174.136 175.168 175.618 174.703 174.317 174.094 
174.26 174.838 175.524 176.176 176.98 177.27 176.653 176.371 176.181 
176.237 176.639 177.155 177.59 178.014 179.762 179.447 181.18 179.185 
181.027 182.774 178.875 180.892 182.765 184.282 178.471 180.626 182.594 
184.12 185.104 178.209 180.295 182.177 183.587 184.531 185.423 178.172 
180.116 181.849 182.981 183.77 184.84 186.154 178.235 180.034 181.795 
182.881 183.417 184.388 185.925 187.237 178.394 180.005 181.79 183.147 
183.753 184.42 185.735 187.097 187.913 178.621 180.096 181.769 183.297 
184.221 184.833 185.747 186.836 187.638 188.126 181.042 182.529 182.29 
184.107 183.797 183.481 185.36 185.298 184.98 184.717 185.993 186.421 
186.451 186.191 186.007 186.573 187.115 187.552 187.555 187.363 187.197 
187.453 187.762 188.255 188.547 188.498 188.372 188.176 188.131 188.352 
188.813 189.309 189.465 189.398 189.274 189.006 188.429 188.738 189.266 
189.979 190.43 190.459 190.339 190.135 189.772 188.643 189.076 189.752 
190.289 191.209 189.617 191.706 192.552 190.901 190.431 193.14 193.958 
192.217 191.705 191.242 194.646 195.159 193.592 192.797 192.332 191.548 
195.485 195.502 194.825 193.889 193.163 192.445 191.438 195.543 195.582 
195.312 194.797 194.01 193.14 192.238 191.211 195.806 196.167 195.449 
195.215 194.714 193.778 192.806 191.891 190.852 196.465 196.891 195.847 
195.432 195.041 194.227 193.199 192.315 191.411 190.355 188.021 188.839 
188.101 189.196 188.464 190.264 189.556 188.861 190.59 191.685 189.77 
189.06 190.676 191.771 192.917 189.909 189.161 190.748 191.772 192.959 
194.214 190.013 189.203 190.805 191.781 192.901 193.99 194.954 189.927 
189.034 190.696 191.544 192.623 193.589 194.375 195.112 189.577 188.645 
190.418 191.186 192.159 193.191 193.975 194.772 195.631 189.061 188.159 
190.003 190.859 191.759 192.819 193.759 194.58 195.559 196.465 178.377 
179.888 179.613 181.284 180.979 181.533 182.651 182.309 182.954 183.166 
183.887 183.5 184.195 184.347 184.397 185.059 184.65 185.361 185.422 
185.374 185.227 186.167 185.799 186.466 186.54 186.451 186.307 186.06 
187.145 186.808 187.406 187.515 187.499 187.364 187.101 186.888 187.973 
187.576 188.259 188.361 188.349 188.267 187.972 187.604 187.504 176.501 
177.625 175.578 176.762 174.691 178.952 175.955 174.078 178.244 180.471 
175.355 173.855 177.483 179.916 181.903 175.104 173.91 176.806 179.204 
181.434 183.132 175.154 174.007 176.541 178.599 180.874 182.758 184.369 
175.278 174.093 176.602 178.354 180.403 182.327 184.074 185.606 175.415 
174.269 176.69 178.246 180.036 181.825 183.6 185.271 186.589 175.608 