# vtk DataFile Version 4.0
vtk output
ASCII
DATASET POLYDATA
POINTS 1002 float
-119.918 -112.553 51.4949 -119.902 -111.676 50.4376 -119.439 -112.148 50.4732 
-119.469 -113.046 51.6769 -118.898 -112.608 50.7454 -119.986 -113.447 52.836 
-118.916 -113.462 52.1182 -118.213 -113.037 51.1858 -119.551 -113.982 53.1996 
-120.129 -114.559 54.3243 -118.229 -113.905 52.6468 -117.496 -113.504 51.6558 
-118.96 -114.503 53.7096 -119.641 -115.28 54.7707 -120.255 -116.099 55.6922 
-117.576 -114.509 53.2334 -116.96 -114.07 52.224 -118.27 -115.142 54.2896 
-118.966 -116.01 55.3137 -119.625 -116.966 56.1842 -120.22 -117.79 57.0026 
-117.013 -115.218 54.0642 -116.482 -114.685 53.0459 -117.626 -115.902 55.0995 
-118.287 -116.733 56.095 -118.89 -117.698 56.923 -119.479 -118.584 57.6912 
-120.043 -119.296 58.5347 -116.37 -115.918 55.0919 -115.898 -115.317 54.0623 
-116.942 -116.672 56.0851 -117.629 -117.467 57.0556 -118.232 -118.376 57.8911 
-118.748 -119.281 58.6363 -119.302 -120.056 59.4279 -119.849 -120.73 60.1954 
-115.731 -116.674 56.0471 -115.38 -116.076 55.0645 -116.199 -117.461 56.9589 
-116.857 -118.277 57.8557 -117.502 -119.19 58.7179 -118.022 -120.124 59.533 
-118.548 -120.897 60.3497 -119.1 -121.577 61.0847 -119.604 -122.178 61.6617 
-115.245 -117.553 56.7865 -114.98 -116.993 55.8916 -115.591 -118.312 57.6603 
-116.121 -119.136 58.5278 -116.689 -120.067 59.3998 -117.179 -121.071 60.2645 
-117.703 -121.85 61.1376 -118.271 -122.432 61.9042 -118.777 -123.012 62.4455 
-119.225 -123.505 62.838 -114.797 -118.43 57.3638 -114.538 -117.907 56.524 
-115.107 -119.126 58.2891 -115.557 -119.918 59.2656 -116.023 -120.796 60.2317 
-116.392 -121.796 61.1174 -116.831 -122.646 61.9519 -117.409 -123.182 62.7153 
-117.945 -123.664 63.2623 -118.377 -124.201 63.5907 -118.807 -124.626 63.8443 
-119.578 -111.043 49.4793 -119.031 -111.517 49.5463 -119.117 -110.381 48.4841 
-118.477 -110.847 48.5698 -118.477 -109.715 47.445 -118.366 -112.05 49.8012 
-117.819 -110.06 47.6574 -117.789 -108.875 46.6187 -117.724 -111.387 48.8119 
-117.547 -112.585 50.1694 -117.19 -109.005 47.1168 -117.18 -107.765 46.1781 
-117.061 -110.468 48.0518 -116.828 -112.002 49.1562 -116.81 -113.156 50.5972 
-116.476 -107.856 46.8139 -116.466 -106.619 45.899 -116.374 -109.332 47.6798 
-116.105 -111.175 48.4806 -116.053 -112.792 49.5944 -116.31 -113.803 51.1836 
-115.542 -106.977 46.4429 -115.622 -105.758 45.6878 -115.518 -108.329 47.316 
-115.376 -110.174 48.1387 -115.273 -112.219 48.9447 -115.491 -113.627 50.1856 
-115.803 -114.44 52.0256 -114.741 -106.429 46.2868 -114.971 -105.223 45.8112 
-114.675 -107.639 46.9716 -114.697 -109.189 47.9041 -114.655 -111.224 48.7152 
-114.71 -113.091 49.5591 -114.985 -114.259 51.0432 -115.274 -115.088 53.1049 
-114.287 -105.99 46.637 -114.529 -104.813 46.3574 -114.136 -107.12 47.1002 
-114.172 -108.369 47.9729 -114.237 -110.018 48.8549 -114.238 -111.917 49.4863 
-114.347 -113.589 50.4847 -114.631 -114.846 52.2563 -114.896 -115.908 54.2626 
-113.883 -105.534 47.2559 -114.027 -104.414 47.0759 -113.74 -106.648 47.6187 
-113.712 -107.771 48.3932 -113.793 -109.076 49.2603 -113.892 -110.634 49.7983 
-114.01 -112.375 50.4348 -114.193 -114.119 51.7996 -114.402 -115.635 53.6271 
-114.53 -116.865 55.2639 -113.317 -104.771 47.835 -113.217 -105.957 48.0739 
-112.579 -105.401 48.5879 -112.491 -106.678 49.0508 -112.052 -106.32 49.7041 
-113.14 -107.163 48.7281 -111.984 -107.616 50.3149 -111.818 -107.212 51.316 
-112.445 -107.98 49.8654 -113.149 -108.411 49.6243 -111.839 -108.467 51.8516 
-111.798 -108.013 52.9877 -112.026 -108.873 50.974 -112.566 -109.251 50.5284 
-113.327 -109.749 50.1978 -112.089 -109.395 53.3994 -112.209 -109.113 54.3081 
-112.163 -109.692 52.3405 -112.51 -110.068 51.4647 -113.124 -110.552 50.9691 
-113.685 -111.294 50.6788 -112.861 -110.764 54.7227 -113.202 -110.629 55.3618 
-112.811 -110.87 53.9247 -113.072 -111.056 53.0194 -113.47 -111.508 52.3127 
-113.789 -112.251 52.0051 -113.984 -113.215 51.8737 -113.857 -112.444 55.9068 
-114.259 -112.318 56.3821 -113.637 -112.586 55.3995 -113.695 -112.652 54.8246 
-113.825 -112.868 54.2112 -113.825 -113.509 53.8224 -113.837 -114.448 53.6987 
-114.041 -115.252 53.6289 -114.464 -114.112 57.1445 -114.822 -113.971 57.4707 
-114.158 -114.39 56.7905 -113.952 -114.579 56.4449 -113.731 -114.631 56.0084 
-113.396 -114.952 55.5458 -113.207 -115.747 55.2895 -113.45 -116.561 55.2137 
-113.991 -116.924 55.1965 -114.576 -115.615 58.43 -114.927 -115.459 58.6085 
-114.236 -115.933 58.1939 -113.886 -116.243 57.9593 -113.438 -116.324 57.6361 
-112.889 -116.403 57.1206 -112.519 -116.904 56.6221 -112.659 -117.656 56.3824 
-113.259 -118.118 56.3487 -113.97 -118.127 56.4072 -114.171 -119.031 57.6551 
-113.533 -119.218 57.6053 -113.856 -120.104 59.244 -112.838 -119.187 57.6165 
-113.301 -120.292 59.4018 -113.649 -121.25 61.3279 -112.32 -118.743 57.7931 
-112.764 -120.34 59.5802 -113.104 -121.556 61.6269 -113.317 -122.675 63.1919 
-112.256 -118.103 58.277 -112.333 -119.984 59.8906 -112.517 -121.712 61.8159 
-112.575 -123.033 63.398 -112.839 -124.248 64.4817 -112.682 -117.772 58.9105 
-112.277 -119.392 60.3996 -112.08 -121.327 62.0627 -111.899 -123.057 63.5446 
-112.073 -124.423 64.7438 -112.444 -125.636 65.9085 -113.294 -117.729 59.3197 
-112.702 -119.063 60.8177 -112.17 -120.661 62.3893 -111.694 -122.484 63.8656 
-111.639 -124.154 65.1931 -111.876 -125.618 66.5262 -111.936 -126.806 67.8253 
-113.814 -117.558 59.4917 -113.312 -118.975 60.9418 -112.725 -120.304 62.5422 
-112.058 -121.799 64.2136 -111.71 -123.46 65.793 -111.698 -125.163 67.2871 
-111.531 -126.686 68.6583 -111.233 -127.786 69.7033 -114.233 -117.224 59.6306 
-113.856 -118.796 60.96 -113.375 -120.193 62.5046 -112.666 -121.461 64.3312 
-112.063 -122.826 66.172 -111.815 -124.433 67.826 -111.543 -126.085 69.3124 
-111.085 -127.44 70.484 -110.817 -128.39 71.1889 -114.633 -116.941 59.7532 
-114.334 -118.502 60.9996 -113.976 -120.006 62.4216 -113.322 -121.282 64.224 
-112.552 -122.439 66.1919 -112.09 -123.794 67.9161 -111.812 -125.317 69.4452 
-111.396 -126.663 70.8393 -110.996 -127.706 71.8417 -110.918 -128.551 72.3418 
-114.501 -119.656 58.7176 -114.271 -120.847 60.6136 -114.946 -120.443 59.9174 
-114.042 -122.217 62.6458 -114.771 -121.795 61.9362 -115.435 -121.323 61.1157 
-113.648 -123.899 64.1423 -114.413 -123.42 63.6484 -115.121 -122.826 63.0295 
-115.75 -122.296 62.1399 -113.184 -125.509 65.4908 -113.907 -125.177 64.9704 
-114.593 -124.522 64.4548 -115.324 -123.781 63.8761 -116.065 -123.226 62.9725 
-112.615 -126.748 67.311 -113.415 -126.532 66.6651 -114.131 -126.074 65.9111 
-114.917 -125.289 65.29 -115.809 -124.488 64.6472 -116.64 -123.845 63.7191 
-111.787 -127.803 69.1928 -112.755 -127.539 68.5819 -113.741 -127.191 67.7692 
-114.638 -126.631 66.9072 -115.62 -125.792 66.1824 -116.537 -124.963 65.3548 
-117.265 -124.301 64.2982 -111.125 -128.686 70.6845 -112.008 -128.533 70.0836 
-113.177 -128.178 69.3684 -114.267 -127.744 68.5267 -115.338 -127.059 67.7102 
-116.381 -126.193 66.8684 -117.151 -125.446 65.7963 -117.742 -124.846 64.6127 
-111.054 -129.184 71.8748 -111.668 -129.368 71.2462 -112.679 -129.156 70.5233 
-113.782 -128.774 69.7148 -114.898 -128.198 68.9223 -116.079 -127.387 68.1508 
-117.044 -126.595 67.1786 -117.651 -125.975 65.9638 -118.178 -125.369 64.7822 
-111.334 -129.032 73.0936 -111.687 -129.746 72.5318 -111.973 -129.542 73.7063 
-112.537 -130.137 73.1037 -112.815 -129.84 74.1359 -112.423 -129.91 71.7906 
-113.555 -130.091 73.4552 -114.05 -129.62 74.299 -113.381 -130.15 72.2474 
-113.405 -129.682 70.8769 -114.907 -129.685 73.4496 -115.614 -129.153 74.125 
-114.582 -130.022 72.4501 -114.42 -129.933 71.1221 -114.506 -129.235 69.9138 
-116.599 -129.445 73.1797 -117.249 -129.003 73.6934 -116.137 -129.836 72.3375 
-115.812 -129.97 71.1758 -115.654 -129.475 70.0052 -115.79 -128.479 69.0818 
-118.441 -129.511 72.8479 -118.862 -129.004 73.231 -117.991 -129.826 72.0704 
-117.487 -129.923 71.0265 -117.099 -129.518 69.9765 -116.991 -128.617 69.0851 
-117.023 -127.593 68.2107 -120.056 -129.345 72.5326 -120.303 -128.596 72.8588 
-119.766 -129.747 71.7668 -119.229 -129.74 70.7709 -118.566 -129.306 69.8411 
-118.176 -128.555 68.9945 -118.008 -127.723 68.0828 -117.814 -126.884 67.0432 
-121.195 -128.668 72.1662 -121.435 -127.835 72.4668 -120.98 -129.243 71.4109 
-120.602 -129.308 70.4576 -119.913 -128.865 69.6316 -119.257 -128.231 68.8476 
-118.898 -127.633 67.8952 -118.619 -127.009 66.8154 -118.331 -126.247 65.7455 
-122.044 -127.832 71.6312 -122.326 -127.15 71.894 -121.738 -128.393 70.9341 
-121.424 -128.588 70.0459 -120.944 -128.303 69.2937 -120.322 -127.801 68.5764 
-119.829 -127.358 67.6315 -119.494 -126.883 66.5607 -119.174 -126.231 65.5544 
-118.917 -125.45 64.6481 -111.239 -127.881 73.1082 -111.587 -128.269 73.9362 
-111.7 -127.09 73.5756 -111.954 -127.346 74.4592 -112.363 -126.539 73.5626 
-112.184 -128.787 74.5196 -112.721 -126.574 74.4427 -113.358 -126.177 73.0731 
-112.769 -127.746 75.0105 -113.331 -129.072 74.8731 -113.882 -125.935 73.8792 
-114.442 -125.646 72.3277 -113.85 -126.722 74.8883 -114.421 -127.955 75.2609 
-115.015 -128.816 74.9334 -114.926 -125.244 73.0523 -115.32 -124.948 71.4102 
-114.862 -125.86 74.1582 -115.487 -126.894 74.8646 -116.197 -127.821 75.0829 
-116.637 -128.466 74.5353 -115.801 -124.603 71.9765 -116.135 -124.324 70.1588 
-115.574 -125.068 73.2296 -115.993 -126.004 73.8897 -116.834 -126.916 74.4082 
-117.482 -127.642 74.4111 -118.055 -128.375 73.8305 -116.791 -124.107 70.4586 
-116.997 -123.657 68.733 -116.513 -124.431 72.0235 -116.594 -125.119 72.8791 
-117.229 -125.979 73.4055 -118.008 -126.667 73.7681 -118.733 -127.376 73.602 
-119.518 -128.093 73.2056 -117.733 -123.477 68.8438 -117.75 -122.736 67.5545 
-117.646 -123.955 70.3585 -117.667 -124.419 71.5977 -118.056 -125.026 72.3859 
-118.694 -125.59 72.9447 -119.394 -126.149 73.1237 -120.157 -126.81 72.934 
-120.886 -127.412 72.7345 -118.413 -122.527 67.6036 -118.34 -121.679 66.697 
-118.51 -123.289 68.7153 -118.644 -123.868 69.9434 -118.964 -124.332 71.0205 
[...]
CELL_DATA 2000
SCALARS Distance double
LOOKUP_TABLE default
170.738 170.76 171.059 171.704 170.75 171.09 171.788 172.104 172.856 
170.708 171.071 171.82 172.196 173.033 173.377 174.261 170.799 171.094 
171.902 172.265 173.173 173.565 174.518 174.87 175.79 171.087 171.315 
172.169 172.46 173.413 173.762 174.747 175.11 176.049 176.377 177.239 
171.432 171.661 172.527 172.806 173.762 174.078 175.064 175.383 176.328 
176.631 177.52 177.801 178.635 171.835 172.024 172.88 173.153 174.087 
174.416 175.39 175.721 176.674 176.961 177.866 178.122 178.985 179.218 
180.009 172.371 172.482 173.312 173.521 174.43 174.723 175.685 176.022 
176.988 177.308 178.221 178.491 179.331 179.569 180.332 180.539 181.199 
172.916 173.02 173.791 173.971 174.846 175.097 176.038 176.334 177.284 
177.601 178.503 178.802 179.608 179.867 180.572 180.799 181.416 181.608 
182.14 170.133 169.157 169.809 170.115 168.047 168.769 169.085 169.779 
170.084 166.821 167.595 167.914 168.682 169.003 169.71 170.013 165.546 
166.334 166.646 167.452 167.792 168.574 168.928 169.659 170.058 164.233 
165.035 165.328 166.152 166.505 167.339 167.768 168.575 169.055 169.807 
170.319 162.94 163.702 163.984 164.809 165.186 166.059 166.563 167.439 
168.009 168.818 169.37 170.119 170.657 161.956 162.53 162.838 163.531 
163.957 164.787 165.36 166.263 166.897 167.767 168.364 169.158 169.73 
170.481 171.068 161.389 161.782 162.121 162.603 163.056 163.716 164.32 
165.133 165.786 166.647 167.279 168.126 168.771 169.581 170.261 170.998 
171.654 160.979 161.339 161.674 162.063 162.487 162.998 163.559 164.219 
164.835 165.588 166.216 167.047 167.76 168.638 169.43 170.244 170.99 
171.664 172.277 160.829 160.87 161.071 161.556 161.187 161.214 161.742 
161.883 162.425 161.903 161.709 162.179 162.185 162.774 162.873 163.496 
162.874 162.548 162.925 162.751 163.266 163.283 163.909 164.023 164.701 
164.126 163.637 164.02 163.635 164.1 163.906 164.527 164.512 165.235 
165.309 166.071 165.896 165.159 165.641 164.991 165.539 165.034 165.729 
165.416 166.245 166.079 166.958 166.876 167.735 168.014 167.175 167.709 
166.91 167.527 166.805 167.506 166.935 167.734 167.357 168.24 168.007 
168.904 168.713 169.531 169.989 169.263 169.744 169.029 169.584 168.879 
169.421 168.769 169.294 168.829 169.451 169.239 169.99 169.887 170.638 
170.472 171.117 171.585 171.019 171.406 170.858 171.296 170.736 171.104 
170.493 170.742 170.195 170.507 170.229 170.769 170.743 171.407 171.405 
172.002 171.881 172.366 173.037 172.684 173.233 173.971 172.132 172.812 
173.653 174.264 175.172 171.53 172.229 173.219 173.964 175.016 175.614 
176.6 171.271 171.754 172.781 173.548 174.727 175.451 176.471 177.022 
177.921 171.542 171.759 172.675 173.215 174.347 175.093 176.133 176.786 
177.664 178.247 179.121 171.988 172.177 172.998 173.279 174.229 174.758 
175.749 176.379 177.311 177.942 178.889 179.485 180.384 172.232 172.557 
173.387 173.639 174.474 174.782 175.67 176.109 177.063 177.635 178.67 
179.293 180.283 180.779 181.547 172.329 172.718 173.593 173.938 174.788 
175.072 175.899 176.19 177.064 177.499 178.496 179.095 180.105 180.671 
181.476 181.857 182.431 172.461 172.819 173.706 174.092 174.986 175.337 
176.171 176.449 177.23 177.555 178.409 178.915 179.845 180.435 181.246 
181.721 182.311 182.64 183.105 173.391 174.404 174.02 174.316 175.644 
175.169 175.558 175.088 175.438 177.069 176.556 176.991 176.468 176.884 
176.325 176.674 178.434 178.005 178.462 177.96 178.374 177.821 178.169 
177.581 177.895 179.693 179.332 179.828 179.386 179.766 179.254 179.557 
179.024 179.311 178.769 179.06 180.895 180.567 181.067 180.689 181.067 
180.585 180.861 180.344 180.616 180.116 180.393 179.878 180.128 181.926 
181.668 182.1 181.826 182.217 181.836 182.143 181.65 181.929 181.413 
181.689 181.169 181.396 180.868 181.055 182.755 182.559 182.938 182.737 
183.129 182.883 183.235 182.875 183.169 182.716 182.976 182.465 182.663 
182.114 182.257 181.724 181.858 183.464 183.323 183.729 183.54 183.942 
183.733 184.104 183.851 184.154 183.831 184.079 183.677 183.864 183.362 
183.472 182.916 182.998 182.472 182.561 183.965 184.928 184.421 184.327 
185.885 185.427 185.353 184.759 184.564 186.638 186.296 186.236 185.75 
185.533 184.94 184.689 187.225 186.935 186.895 186.537 186.376 185.858 
185.578 185.003 184.72 187.915 187.559 187.591 187.217 187.176 186.692 
186.476 185.88 185.571 184.986 184.668 188.789 188.414 188.546 188.079 
188.098 187.568 187.397 186.788 186.46 185.839 185.47 184.884 184.482 
189.485 189.302 189.472 189.092 189.047 188.519 188.242 187.649 187.228 
186.649 186.196 185.638 185.167 184.597 184.089 189.708 189.764 189.87 
189.763 189.61 189.274 188.84 188.336 187.762 187.248 186.699 186.227 
185.704 185.202 184.654 184.111 183.576 189.617 189.75 189.747 189.811 
189.578 189.484 189.004 188.695 188.065 187.636 187.034 186.611 186.08 
185.646 185.107 184.618 184.071 183.572 183.083 183.861 183.829 184.14 
184.75 183.739 184.029 184.643 185.053 185.688 183.776 183.943 184.495 
184.904 185.633 186.007 186.545 183.852 183.991 184.457 184.794 185.564 
185.993 186.682 186.86 187.243 183.711 183.96 184.337 184.695 185.372 
185.904 186.66 187.008 187.482 187.539 187.876 183.382 183.712 184.029 
184.405 184.908 185.518 186.197 186.807 187.328 187.654 187.998 188.164 
188.578 183.006 183.379 183.722 184.043 184.442 184.932 185.504 186.159 
186.711 187.27 187.663 188.066 188.435 188.781 189.176 182.523 182.988 
183.398 183.758 184.158 184.523 185.027 185.519 186.074 186.611 187.067 
187.561 187.936 188.408 188.759 189.18 189.433 181.898 182.433 182.863 
183.361 183.781 184.218 184.666 185.112 185.598 186.069 186.508 186.97 
187.336 187.809 188.141 188.619 188.893 189.285 189.427 172.851 173.877 
173.602 174.099 174.942 174.677 175.223 174.92 175.421 176.007 175.771 
176.368 176.085 176.604 176.243 176.642 177.086 176.861 177.48 177.223 
177.737 177.401 177.778 177.38 177.69 178.161 177.949 178.556 178.312 
178.814 178.495 178.887 178.506 178.864 178.446 178.84 179.159 178.983 
179.57 179.356 179.881 179.583 180.066 179.69 180.163 179.718 180.188 
179.728 180.227 180.04 179.913 180.499 180.333 180.909 180.672 181.263 
180.955 181.536 181.121 181.608 181.121 181.545 181.111 181.539 180.788 
180.726 181.32 181.22 181.813 181.668 182.265 182.096 182.654 182.402 
182.797 182.419 182.673 182.285 182.547 182.234 182.531 181.4 181.408 
181.995 181.97 182.514 182.457 182.952 182.903 183.333 183.252 183.521 
183.318 183.435 183.168 183.305 183.071 183.305 183.077 183.322 172.246 
171.578 172.391 173.271 170.696 171.694 172.695 173.459 174.329 169.627 
170.765 171.962 172.893 173.871 174.543 175.392 168.624 169.705 171.041 
172.159 173.361 174.143 175.048 175.626 176.467 167.963 168.812 170.101 
171.248 172.63 173.625 174.686 175.327 176.156 176.716 177.549 167.638 
168.273 169.406 170.385 171.737 172.835 174.031 174.886 175.789 176.417 
177.232 177.803 178.591 167.442 167.969 168.96 169.762 170.966 171.961 
173.144 174.116 175.132 175.95 176.843 177.497 178.299 178.823 179.518 
167.331 167.755 168.643 169.321 170.416 171.259 172.36 173.25 174.29 
175.199 176.21 177.035 177.923 178.533 179.23 179.691 180.276 167.4 
167.692 168.51 169.037 170.072 170.774 171.832 172.576 173.569 174.393 
175.423 176.329 177.322 178.09 178.849 179.379 179.938 180.374 180.879 
167.747 168.782 168.416 168.887 169.991 169.599 170.115 169.769 170.426 
171.171 170.831 171.374 171.051 171.674 171.395 172.1 172.388 172.015 
172.567 172.267 172.877 172.607 173.258 173.03 173.755 173.751 173.313 
173.86 173.487 174.104 173.793 174.467 174.202 174.961 174.742 175.586 
175.06 174.68 175.206 174.824 175.412 175.065 175.749 175.462 176.258 
176.022 176.886 176.668 177.497 176.196 175.894 176.408 176.099 176.654 
176.348 176.996 176.744 177.513 177.314 178.119 177.926 178.649 178.438 
179.022 177.291 176.997 177.536 177.249 177.827 177.541 178.181 177.942 
178.672 178.496 179.229 179.051 179.662 179.453 179.929 179.709 180.095 
178.371 178.099 178.658 178.39 178.999 178.724 179.372 179.114 179.804 
179.601 180.277 180.081 180.634 180.393 180.815 180.56 180.927 180.682 
181.03 179.117 180.364 179.645 179.459 181.673 180.941 180.812 180.049 
179.859 183.046 182.29 182.186 181.44 181.311 180.493 180.281 184.422 
183.689 183.584 182.836 182.733 181.953 181.783 180.93 180.71 185.715 
185.051 184.98 184.245 184.113 183.348 183.162 182.377 182.147 181.334 
181.104 186.943 186.318 186.263 185.588 185.426 184.684 184.435 183.677 
183.404 182.658 182.377 181.636 181.361 188.04 187.479 187.341 186.75 
186.543 185.893 185.614 184.897 184.591 183.856 183.555 182.822 182.508 
181.789 181.483 188.823 188.4 188.162 187.664 187.382 186.852 186.557 
185.968 185.655 184.995 184.676 183.972 183.647 182.917 182.585 181.871 
181.569 189.288 188.998 188.745 188.333 188.003 187.55 187.215 186.752 
186.411 185.902 185.53 184.963 184.586 183.975 183.618 182.959 182.623 
181.948 181.652 179.169 179.612 179.729 180.395 180.036 180.188 180.927 
181.018 181.719 180.451 180.628 181.47 181.617 182.431 182.441 183.151 
180.826 181.034 181.936 182.196 183.157 183.244 184.011 183.908 184.535 
181.062 181.349 182.266 182.645 183.717 183.969 184.809 184.764 185.332 
185.206 185.757 181.116 181.501 182.437 182.914 184.024 184.447 185.349 
185.459 186.019 185.938 186.452 186.398 186.981 181.07 181.51 182.436 
182.978 184.027 184.595 185.487 185.818 186.396 186.488 187.008 187.054 
187.663 187.643 188.166 180.98 181.444 182.294 182.846 183.742 184.38 
185.173 185.711 186.276 186.63 187.134 187.419 188 188.198 188.703 
188.692 188.989 180.799 181.297 182.05 182.584 183.314 183.92 184.592 
185.207 185.76 186.292 186.777 187.265 187.775 188.225 188.678 188.959 
189.235 189.276 189.4 178.465 177.469 178.28 178.868 176.323 177.2 
177.793 178.65 179.242 175.126 175.999 176.588 177.506 178.161 179.041 
179.658 174.005 174.818 175.377 176.275 176.963 177.931 178.667 179.514 
180.1 172.911 173.698 174.182 175.048 175.644 176.661 177.41 178.448 
179.11 179.915 180.354 171.741 172.529 172.923 173.789 174.265 175.254 
175.854 176.994 177.63 178.71 179.169 180.009 180.331 170.542 171.301 
171.667 172.501 172.98 173.879 174.396 175.382 175.906 177.016 177.505 
178.58 178.963 179.875 180.221 169.412 170.127 170.533 171.315 171.869 
172.701 173.276 174.072 174.54 175.388 175.841 176.849 177.331 178.371 
178.812 179.749 180.136 168.435 169.086 169.544 170.277 170.866 171.677 
172.293 173.059 173.526 174.211 174.588 175.37 175.83 176.783 177.293 
178.283 178.725 179.641 179.988 168.102 168.116 168.462 169.252 168.244 
168.565 169.388 169.73 170.61 168.332 168.7 169.515 169.882 170.748 
171.135 172.006 168.371 168.757 169.581 169.97 170.78 171.191 172.01 
172.438 173.192 168.537 168.829 169.683 170.048 170.876 171.218 171.996 
172.377 173.143 173.53 174.24 168.924 169.077 169.878 170.192 171.045 
171.363 172.145 172.436 173.209 173.534 174.335 174.654 175.461 169.437 
169.504 170.184 170.404 171.178 171.505 172.282 172.604 173.37 173.684 
174.5 174.825 175.689 176.006 176.884 169.959 169.998 170.596 170.714 
171.376 171.62 172.36 172.695 173.487 173.84 174.655 175.002 175.845 
176.207 177.077 177.437 178.289 170.462 170.493 171.057 171.12 171.719 
171.857 172.556 172.815 173.638 173.975 174.836 175.164 175.993 176.328 
177.16 177.547 178.391 178.773 179.556 170.931 171.89 171.437 171.532 
173.047 172.48 172.571 172.077 172.201 174.476 173.783 173.888 173.242 
173.39 172.843 173.06 176.045 175.341 175.486 174.726 174.9 174.21 
174.478 173.875 174.193 177.53 176.922 177.144 176.412 176.61 175.858 
176.134 175.444 175.766 175.119 175.424 178.929 178.385 178.693 178.06 
178.328 177.611 177.887 177.163 177.457 176.751 177.006 176.327 176.568 
180.281 179.784 180.132 179.584 179.934 179.311 179.643 178.938 179.231 
178.475 178.713 177.95 178.163 177.459 177.717 181.455 181.068 181.406 
180.966 181.325 180.84 181.198 180.625 180.92 180.232 180.452 179.689 
179.886 179.123 179.36 178.658 178.945 182.392 182.117 182.448 182.124 
182.459 182.099 182.426 182.009 182.265 181.749 181.915 181.306 181.448 
180.791 180.971 180.304 180.529 179.872 180.101 180.881 181.342 181.464 
182.135 181.749 181.894 182.566 182.685 183.331 182.152 182.273 182.914 
183.063 183.711 183.861 184.517 182.574 182.67 183.301 183.424 184.115 
184.253 184.943 185.057 185.686 182.939 183.082 183.742 183.865 184.612 
184.739 185.486 185.551 186.193 186.214 186.773 183.123 183.381 184.076 
184.293 185.05 185.246 185.991 186.104 186.71 186.734 187.257 187.275 
187.789 183.137 183.476 184.167 184.509 185.226 185.55 186.229 186.473 
187.026 187.149 187.605 187.688 188.158 188.241 188.68 183.074 183.429 
184.08 184.479 185.141 185.545 186.161 186.52 187.066 187.327 187.815 
187.969 188.431 188.538 188.96 189.02 189.292 182.974 183.326 183.934 
184.334 184.959 185.368 185.949 186.338 186.891 187.26 187.831 188.124 
188.666 188.819 189.25 189.284 189.548 189.497 189.563 160.607 161.005 
160.583 160.154 161.608 161.051 160.621 160.147 159.841 162.646 161.888 
161.529 160.82 160.527 160.021 160.035 163.97 163.144 162.886 162.029 
161.826 161.033 161.043 160.551 160.967 165.308 164.534 164.365 163.543 
163.437 162.577 162.597 161.856 162.181 161.784 162.466 166.618 165.893 
165.805 165.052 165.013 164.221 164.248 163.484 163.699 163.137 163.642 
163.367 164.037 167.866 167.211 167.168 166.487 166.468 165.747 165.756 
165.049 165.192 164.606 164.963 164.561 165.063 164.814 165.317 168.982 
168.413 168.375 167.785 167.752 167.116 167.091 166.451 166.552 166 
166.298 165.848 166.255 165.873 166.284 165.977 166.374 169.965 169.465 
169.429 168.907 168.875 168.311 168.292 167.708 167.799 167.283 167.563 
167.13 167.513 167.088 167.45 167.028 167.373 167.025 167.409 160.241 
159.838 159.901 159.686 159.627 159.618 159.575 159.581 159.692 159.919 
159.692 159.87 159.762 160.087 160.011 160.467 160.907 160.374 160.675 
160.398 160.898 160.694 161.199 161.047 161.546 162.44 161.698 161.978 
161.487 161.981 161.668 162.143 161.877 162.267 162.087 162.501 163.999 
163.303 163.49 162.906 163.263 162.827 163.199 162.827 163.125 162.83 
163.184 163.035 163.539 165.214 164.673 164.749 164.262 164.477 164.061 
164.347 163.92 164.165 163.742 164.047 163.784 164.27 164.175 164.761 
166.235 165.734 165.751 165.307 165.431 165.088 165.344 165.019 165.288 
164.862 165.118 164.727 165.124 164.93 165.45 165.377 165.873 167.297 
166.774 166.832 166.311 166.42 165.986 166.224 165.926 166.26 165.948 
166.24 165.837 166.14 165.817 166.233 166.06 166.506 166.393 166.794 
160.373 159.799 160.146 160.401 159.774 159.776 160.053 160.332 160.774 
160.5 160.127 160.386 160.311 160.784 160.968 161.576 161.532 161.067 
161.267 160.96 161.337 161.236 161.752 161.907 162.56 162.485 162.058 
162.226 161.902 162.191 161.934 162.286 162.205 162.76 162.961 163.764 
163.565 163.045 163.24 162.85 163.179 162.845 163.2 162.897 163.4 
163.344 164.203 164.423 165.521 164.817 164.256 164.476 163.98 164.349 
163.94 164.394 163.988 164.539 164.254 165.123 165.129 166.309 166.482 
167.696 165.918 165.477 165.688 165.246 165.579 165.178 165.625 165.25 
165.814 165.508 166.326 166.226 167.35 167.428 168.624 168.719 169.764 
166.817 166.462 166.683 166.35 166.684 166.354 166.781 166.453 167 
166.736 167.511 167.407 168.441 168.485 169.601 169.662 170.641 170.647 
171.438 177.968 176.878 177.283 176.968 175.768 176.157 175.805 176.211 
175.835 174.608 175.015 174.607 175.009 174.592 175.012 174.627 173.286 
173.763 173.337 173.774 173.314 173.73 173.317 173.795 173.482 171.914 
172.375 171.972 172.457 172.028 172.448 172.009 172.462 172.144 172.686 
172.422 170.669 171.04 170.611 171.083 170.698 171.159 170.729 171.159 
170.786 171.317 171.061 171.624 171.325 169.485 169.822 169.326 169.745 
169.333 169.815 169.402 169.855 169.41 169.91 169.566 170.185 169.906 
170.483 170.139 168.329 168.639 168.132 168.482 168.035 168.468 168.08 
168.532 168.101 168.527 168.089 168.628 168.302 168.96 168.672 169.273 
168.962 167.363 167.579 167.124 167.366 166.922 167.241 166.875 167.281 
166.948 167.317 166.921 167.268 166.905 167.4 167.154 167.767 167.555 
168.149 167.949 
POINT_DATA 1002
SCALARS Distance double
LOOKUP_TABLE default
171.338 170.442 170.437 171.403 170.443 172.374 171.427 170.382 172.536 
173.66 171.407 170.339 172.63 173.938 175.187 171.541 170.52 172.761 
174.131 175.488 176.698 171.888 170.856 173.084 174.4 175.714 176.949 
178.076 172.246 171.201 173.452 174.757 176.04 177.234 178.383 179.452 
172.631 171.68 173.767 175.046 176.372 177.615 178.755 179.824 180.755 
173.14 172.296 174.168 175.36 176.653 177.944 179.109 180.135 181.042 
181.802 173.627 172.827 174.608 175.766 176.991 178.211 179.36 180.361 
181.225 181.983 182.638 169.523 169.469 168.481 168.361 167.302 169.429 
167.125 166.038 168.26 169.323 165.841 164.762 166.975 168.144 169.32 
164.504 163.435 165.643 166.901 168.263 169.584 163.168 162.22 164.284 
165.636 167.157 168.611 169.92 162.204 161.447 163.144 164.447 166.002 
167.535 168.947 170.329 161.698 161.024 162.464 163.562 164.955 166.406 
167.898 169.472 170.989 161.297 160.62 162.029 162.973 164.146 165.407 
166.84 168.548 170.275 171.71 160.574 161.346 160.692 161.606 161.266 
162.276 162.258 162.191 162.677 163.373 163.2 163.236 163.322 163.803 
164.553 164.477 164.668 164.386 164.596 165.183 165.97 166.335 166.686 
166.112 166.122 166.47 167.086 167.822 168.507 168.851 168.287 168.183 
168.216 168.521 169.12 169.776 170.432 170.687 170.296 170.171 169.915 
169.757 170.085 170.773 171.371 171.941 172.13 171.849 171.748 171.399 
170.92 170.852 171.377 172.074 172.565 173.721 173.416 174.779 172.947 
174.602 176.141 172.366 174.349 176.105 177.559 172.049 173.934 175.905 
177.409 178.801 172.315 173.668 175.448 177.052 178.537 180.031 172.823 
173.862 175.164 176.642 178.242 179.892 181.236 173.106 174.239 175.328 
176.526 178.026 179.748 181.216 182.196 173.202 174.476 175.655 176.722 
177.95 179.518 181.054 182.164 182.936 173.317 174.602 175.885 176.978 
177.999 179.283 180.739 181.951 182.822 183.558 174.715 176.02 175.944 
177.514 177.445 177.269 178.948 178.928 178.755 178.488 180.252 180.288 
180.085 179.836 179.614 181.423 181.531 181.387 181.116 180.902 180.666 
182.352 182.531 182.596 182.45 182.226 181.942 181.582 183.134 183.332 
183.529 183.585 183.477 183.23 182.821 182.37 183.899 184.154 184.342 
184.444 184.436 184.328 184.037 183.561 183.066 184.439 184.928 185.419 
185.935 186.302 185.198 186.655 186.961 186.121 185.284 187.194 187.525 
186.84 186.171 185.283 187.962 188.261 187.621 187.071 186.191 185.243 
189.022 189.087 188.66 188.019 187.106 186.088 185.084 189.8 189.573 
189.601 188.886 187.827 186.756 185.747 184.673 189.923 189.63 189.891 
189.341 188.299 187.163 186.181 185.188 184.103 189.701 189.524 189.622 
189.224 188.449 187.45 186.492 185.57 184.564 183.549 183.588 184.395 
183.506 184.189 183.524 185.346 184.119 183.69 185.179 186.376 184.167 
183.703 185.088 186.427 187.248 184.016 183.418 184.832 186.201 187.355 
187.847 183.706 183.027 184.37 185.524 186.868 187.763 188.389 183.41 
182.585 184.056 184.904 186.088 187.181 188.049 188.872 182.976 182.01 
183.813 184.612 185.57 186.569 187.456 188.309 189.099 182.316 181.37 
183.3 184.234 185.158 186.071 186.89 187.665 188.452 189.131 173.11 
174.382 174.143 175.512 175.176 175.78 176.629 176.22 176.969 177.068 
177.738 177.306 178.078 178.172 178.102 178.808 178.374 179.129 179.244 
179.253 179.242 179.773 179.336 180.138 180.383 180.579 180.662 180.665 
180.636 180.152 181.094 181.502 181.909 182.126 182.04 181.933 181.394 
180.822 181.936 182.415 182.882 183.175 183.096 182.888 182.824 171.501 
172.566 170.669 171.849 169.571 173.672 170.877 168.435 173.161 174.786 
169.806 167.631 172.441 174.486 175.878 169.001 167.26 171.499 173.953 
175.624 176.97 168.56 167.095 170.659 173.057 175.087 176.662 178.069 
168.252 166.979 170.071 172.171 174.208 176.107 177.764 179.069 168.037 
166.979 169.643 171.538 173.376 175.289 177.237 178.771 179.856 168.06 