# vtk DataFile Version 4.0
vtk output
ASCII
DATASET POLYDATA
POINTS 1002 float
-120.651 -113.159 51.2064 -120.619 -112.117 50.5318 -120.48 -112.619 50.4289 
-120.313 -113.794 51.2041 -119.791 -112.847 50.6743 -120.283 -113.837 52.3944 
-119.463 -113.818 51.6855 -118.756 -112.706 51.0667 -119.739 -114.358 52.617 
-119.956 -114.103 54.1557 -118.57 -113.323 52.4554 -117.961 -112.457 51.6602 
-119.001 -114.252 53.3344 -119.382 -114.531 54.6006 -119.997 -114.652 56.0731 
-117.957 -113.027 53.4552 -117.359 -112.453 52.6417 -118.406 -113.972 54.3013 
-118.794 -114.821 55.314 -119.289 -115.412 56.4942 -119.835 -116.295 57.4359 
-117.198 -113.296 54.5635 -116.539 -112.741 53.6734 -117.727 -114.166 55.3606 
-118.134 -115.275 56.1746 -118.504 -116.268 57.0693 -118.827 -117.345 57.7876 
-119.108 -118.507 58.2549 -116.211 -113.875 55.4551 -115.647 -113.17 54.482 
-116.71 -114.809 56.3109 -117.133 -115.955 57.0963 -117.56 -117.043 57.9141 
-117.876 -118.132 58.5164 -118.088 -119.283 58.9086 -118.402 -120.207 59.3522 
-115.34 -114.604 56.1867 -114.927 -113.696 55.3071 -115.734 -115.709 57.0031 
-116.05 -116.821 57.8341 -116.452 -117.771 58.7772 -116.924 -118.721 59.5069 
-117.255 -119.781 59.9229 -117.57 -120.725 60.3636 -118.035 -121.43 60.888 
-114.547 -115.494 56.9195 -114.281 -114.395 56.1777 -114.903 -116.777 57.5657 
-115.216 -117.896 58.3212 -115.477 -118.652 59.3475 -115.894 -119.401 60.286 
-116.374 -120.389 60.8431 -116.766 -121.33 61.3067 -117.202 -122.06 61.822 
-117.723 -122.676 62.2095 -113.724 -116.476 57.5281 -113.629 -115.273 56.8743 
-114.014 -117.79 58.0686 -114.446 -118.9 58.7478 -114.745 -119.566 59.7789 
-114.99 -120.146 60.8472 -115.401 -121.071 61.53 -115.863 -122.072 61.9993 
-116.295 -122.809 62.4982 -116.787 -123.389 62.8839 -117.319 -123.92 63.0593 
-120.202 -111.073 49.9466 -119.798 -111.359 49.9721 -119.47 -109.8 49.2461 
-118.778 -110.098 49.2549 -118.776 -108.74 48.1366 -118.912 -111.621 50.1219 
-117.978 -109.002 48.303 -118.347 -107.7 47.219 -117.904 -110.543 49.3243 
-117.956 -111.791 50.2901 -117.528 -107.668 47.8649 -117.968 -106.323 47.1765 
-117.185 -109.298 48.6965 -117.183 -110.811 49.6273 -117.313 -111.804 50.904 
-117.006 -106.283 47.9797 -117.338 -105.009 47.4562 -116.598 -107.815 48.5921 
-116.5 -109.383 49.4374 -116.643 -110.721 50.5599 -116.666 -111.827 51.9902 
-116.208 -105.27 48.0141 -116.521 -104.1 47.5983 -115.856 -106.699 48.593 
-115.741 -108.135 49.4444 -115.927 -109.397 50.5638 -115.965 -110.768 51.6884 
-115.8 -112.097 52.9406 -115.422 -104.427 48.2023 -115.828 -103.402 48.1081 
-115.083 -105.81 48.6413 -114.939 -107.342 49.4092 -115.102 -108.599 50.4821 
-115.212 -109.844 51.554 -115.09 -111.299 52.4956 -114.994 -112.553 53.742 
-114.896 -103.724 48.9286 -115.373 -102.864 49.0827 -114.516 -104.907 49.1395 
-114.279 -106.425 49.6803 -114.242 -107.927 50.4255 -114.258 -109.288 51.3028 
-114.2 -110.692 52.1712 -114.252 -111.969 53.2117 -114.368 -113.072 54.6653 
-114.524 -103.352 49.8812 -115.003 -102.568 50.0551 -114.128 -104.328 49.973 
-113.826 -105.559 50.3304 -113.565 -106.994 50.7305 -113.305 -108.547 51.1702 
-113.117 -110.111 51.8084 -113.24 -111.442 52.7296 -113.622 -112.514 54.0376 
-113.819 -113.717 55.5678 -114.223 -102.914 50.8373 -113.78 -103.826 50.8545 
-113.264 -103.287 51.8849 -112.966 -104.326 52.0303 -112.372 -103.634 53.1922 
-113.474 -104.891 51.0969 -112.269 -104.934 53.3079 -111.842 -104.519 54.463 
-112.776 -105.535 52.2376 -113.149 -106.104 51.366 -111.673 -106.152 54.6618 
-111.548 -106.155 55.7706 -112.05 -106.443 53.4866 -112.36 -106.879 52.3695 
-112.669 -107.598 51.5113 -111.215 -107.616 56.1776 -111.485 -107.528 57.2439 
-111.379 -107.681 55.0149 -111.695 -107.934 53.7534 -111.846 -108.507 52.5193 
-112.225 -109.36 51.8079 -111.653 -108.529 57.3568 -112.25 -108.238 58.1572 
-111.445 -108.702 56.3564 -111.676 -108.925 55.2907 -111.764 -109.421 54.0803 
-111.725 -110.175 52.9611 -112.236 -110.931 52.5441 -113.22 -109.44 57.6696 
-113.805 -109.221 58.0993 -112.74 -109.641 56.9424 -112.653 -109.869 56.1724 
-112.579 -110.265 55.4946 -112.188 -110.86 54.6279 -112.117 -111.549 53.8953 
-112.754 -112.131 53.7829 -114.717 -110.98 57.7375 -115.127 -110.823 57.9409 
-114.219 -111.119 57.3093 -113.867 -111.303 56.7474 -113.543 -111.586 56.4427 
-112.923 -111.948 56.2066 -112.418 -112.44 55.6886 -112.595 -113.005 55.2929 
-113.216 -113.443 55.3401 -115.19 -112.625 58.4527 -115.563 -112.429 58.5442 
-114.696 -112.774 58.2933 -114.221 -112.968 57.9672 -113.775 -113.263 57.721 
-113.128 -113.545 57.7092 -112.468 -113.867 57.5362 -112.336 -114.367 57.0681 
-112.71 -114.862 56.7505 -113.188 -115.143 56.762 -112.946 -117.066 57.8215 
-112.538 -116.981 57.8968 -112.304 -118.801 58.7836 -112.151 -116.591 58.2509 
-111.942 -118.609 59.1642 -111.916 -120.051 60.1956 -111.894 -115.919 58.8862 
-111.628 -117.942 59.8558 -111.543 -119.731 60.7462 -111.504 -121.23 62.0529 
-112.124 -115.368 59.3733 -111.486 -117.07 60.6017 -111.28 -118.95 61.416 
-111.062 -120.996 62.5093 -110.746 -122.718 63.8742 -112.733 -115.023 59.5426 
-111.763 -116.517 61.1074 -111.329 -118.226 62.0098 -110.936 -120.449 63.0504 
-110.388 -122.522 64.4218 -109.907 -123.948 65.6099 -113.289 -114.62 59.7142 
-112.254 -116.128 61.4715 -111.753 -117.899 62.4784 -111.297 -120.087 63.5668 
-110.536 -122.101 65.1759 -109.766 -123.529 66.5424 -109.296 -124.697 67.4219 
-113.819 -114.249 59.9088 -112.762 -115.649 61.736 -112.275 -117.561 62.8301 
-111.934 -119.911 63.8636 -111.144 -121.8 65.6978 -110.112 -122.997 67.4496 
-109.267 -124.11 68.4233 -108.86 -125.443 69.0809 -114.445 -114.042 59.9455 
-113.403 -115.298 61.7703 -112.83 -117.094 62.9937 -112.513 -119.52 63.949 
-111.816 -121.489 65.7245 -110.77 -122.577 67.799 -109.711 -123.562 69.0652 
-108.937 -124.86 69.7795 -108.615 -126.191 70.516 -115.031 -113.859 59.9111 
-114.13 -115.114 61.6665 -113.495 -116.743 62.9922 -113.063 -118.984 63.9678 
-112.339 -120.954 65.5683 -111.375 -122.09 67.6841 -110.418 -123.096 69.1918 
-109.547 -124.413 70.0624 -108.942 -125.662 70.9788 -108.703 -126.578 71.9526 
-113.028 -118.361 58.3947 -112.533 -119.838 59.5763 -113.469 -119.474 59.1123 
-112.186 -120.97 61.4716 -113.07 -120.61 60.8494 -113.991 -120.214 60.2432 
-111.482 -122.46 63.5092 -112.486 -121.903 63.0653 -113.478 -121.351 62.3604 
-114.26 -120.806 61.5223 -110.435 -124.059 65.09 -111.41 -123.731 64.7462 
-112.626 -123.089 64.281 -113.677 -122.379 63.4194 -114.524 -121.74 62.366 
-109.635 -125.168 66.6627 -110.354 -125.276 66.0005 -111.509 -124.96 65.4959 
-112.863 -124.273 64.9194 -114.014 -123.525 63.94 -114.963 -122.85 62.8352 
-109.176 -126.115 68.4851 -109.811 -126.399 67.7091 -110.716 -126.216 66.8791 
-111.955 -125.689 66.2186 -113.316 -124.987 65.4825 -114.468 -124.331 64.3803 
-115.425 -123.653 63.294 -108.816 -126.991 70.2019 -109.457 -127.44 69.6569 
-110.337 -127.208 68.8326 -111.353 -126.578 67.9048 -112.562 -125.943 67.0611 
-113.834 -125.386 66.0242 -114.951 -124.86 64.7399 -115.918 -124.212 63.6514 
-108.649 -127.363 71.7342 -109.068 -128.057 71.2712 -109.927 -128.078 70.6182 
-110.982 -127.429 69.7045 -112.063 -126.732 68.6564 -113.23 -126.245 67.5647 
-114.442 -125.812 66.2495 -115.542 -125.332 64.8547 -116.496 -124.712 63.7827 
-108.953 -126.912 73.4216 -108.899 -127.813 72.8219 -109.516 -127.038 74.41 
-109.568 -128.189 73.2903 -110.499 -127.497 74.3404 -109.393 -128.502 72.0433 
-110.916 -128.794 73.1308 -111.82 -128.086 73.6302 -110.286 -128.908 72.272 
-110.48 -128.349 71.1985 -112.557 -129.071 72.8496 -113.065 -128.025 73.0562 
-111.913 -129.41 72.1495 -111.592 -128.744 71.2002 -111.751 -127.668 70.0738 
-113.764 -128.481 72.4011 -114.27 -127.383 72.4061 -113.5 -129.409 71.8487 
-113.092 -129.181 70.8225 -112.852 -128.124 69.8378 -112.923 -127.089 68.8201 
-115.001 -127.535 71.3413 -116.066 -126.885 71.3144 -114.638 -128.588 71.1423 
-114.395 -129.013 70.2994 -114.075 -128.336 69.3658 -113.987 -127.384 68.5749 
-114.152 -126.595 67.5205 -117.074 -126.991 70.1333 -118.391 -126.851 70.3838 
-116.221 -127.547 70.1078 -115.795 -128.19 69.626 -115.442 -128.036 68.8335 
-115.255 -127.268 68.1956 -115.302 -126.643 67.2806 -115.417 -126.087 66.0054 
-119.486 -127.043 69.5535 -120.467 -127.088 70.1212 -118.5 -127.039 69.3195 
-117.776 -127.408 68.9102 -117.241 -127.638 68.1199 -116.866 -127.171 67.5083 
-116.683 -126.515 66.8689 -116.581 -126.099 65.7301 -116.509 -125.565 64.5713 
-121.34 -127.286 69.4966 -121.875 -127.181 70.1848 -120.609 -127.125 68.9603 
-119.844 -127.139 68.3768 -119.158 -127.419 67.4458 -118.615 -127.337 66.6136 
-118.204 -126.689 66.1343 -117.839 -126.063 65.4054 -117.547 -125.583 64.3796 
-117.39 -124.88 63.5862 -109.237 -126.286 72.8285 -109.643 -126.272 74.6139 
-110.07 -126.079 73.1956 -110.414 -125.77 74.9185 -110.973 -125.818 72.561 
-110.304 -126.173 75.5029 -111.1 -125.391 73.7823 -111.917 -125.495 71.3197 
-110.891 -125.413 75.4424 -111.236 -126.578 74.8646 -112.017 -125.25 72.1051 
-112.912 -125.21 70.4791 -111.494 -124.881 74.1012 -111.767 -125.635 74.4731 
-112.416 -127.071 73.6651 -113.282 -125.168 71.0283 -113.951 -124.522 70.0973 
-112.715 -124.78 72.5853 -112.774 -124.965 73.4866 -113.33 -126.154 73.3101 
-113.852 -127.054 72.935 -114.722 -124.467 70.237 -115.193 -123.216 69.4449 
-114.359 -124.714 71.4206 -114.442 -124.687 72.4405 -114.978 -125.519 72.7425 
-115.493 -126.466 72.7086 -115.767 -126.78 72.2791 -116.257 -123.27 69.1827 
-116.565 -121.967 68.4765 -115.997 -124.128 70.1651 -116.066 -124.4 71.2385 
-116.589 -124.97 71.8614 -117.253 -125.894 72.1909 -117.732 -126.427 72.195 
-118.039 -126.646 71.4448 -117.644 -122.228 68.1875 -117.708 -121.126 67.6557 
-117.503 -123.252 68.8927 -117.456 -123.864 69.8701 -117.735 -124.385 70.6894 
-118.276 -125.123 71.2392 -118.911 -125.75 71.7087 -119.537 -126.217 71.6685 
-120.056 -126.709 70.949 -118.651 -121.347 67.5396 -118.508 -120.367 67.0769 
-118.698 -122.337 68.0305 -118.688 -123.117 68.7566 -118.822 -123.737 69.5609 
[...]
CELL_DATA 2000
SCALARS Distance double
LOOKUP_TABLE default
171.624 171.664 171.984 172.398 171.203 171.815 172.326 172.59 172.873 
170.556 171.203 171.827 172.339 172.773 173.044 173.527 170.235 170.685 
171.39 171.885 172.561 172.938 173.59 173.908 174.7 170.181 170.544 
171.289 171.685 172.506 172.888 173.71 174.036 174.866 175.211 176.044 
170.141 170.529 171.305 171.701 172.545 172.954 173.829 174.203 175.033 
175.37 176.148 176.477 177.192 170.207 170.551 171.406 171.772 172.649 
173.026 173.898 174.292 175.128 175.495 176.262 176.579 177.297 177.581 
178.272 170.458 170.741 171.67 171.99 172.933 173.226 174.088 174.383 
175.202 175.553 176.356 176.698 177.453 177.736 178.453 178.704 179.387 
170.797 171.055 171.966 172.297 173.244 173.559 174.4 174.636 175.379 
175.65 176.428 176.783 177.575 177.904 178.624 178.89 179.542 179.787 
180.376 170.943 169.57 170.532 170.893 167.975 168.959 169.309 170.281 
170.441 166.547 167.361 167.663 168.627 168.906 169.747 169.863 165.309 
165.996 166.21 167.063 167.4 168.279 168.574 169.316 169.56 164.107 
164.76 164.895 165.658 165.942 166.832 167.2 168.063 168.403 169.158 
169.47 162.927 163.545 163.668 164.364 164.611 165.427 165.81 166.694 
167.099 167.945 168.297 169.067 169.39 161.943 162.422 162.551 163.179 
163.466 164.202 164.628 165.419 165.883 166.678 167.101 167.873 168.258 
169.006 169.413 161.354 161.61 161.724 162.186 162.495 163.147 163.589 
164.334 164.793 165.55 165.975 166.73 167.152 167.908 168.365 169.123 
169.634 161.108 161.213 161.322 161.577 161.861 162.318 162.71 163.33 
163.72 164.439 164.803 165.582 165.974 166.789 167.259 168.079 168.622 
169.419 169.986 161.027 160.99 161.089 161.279 161.004 161.123 161.432 
161.488 161.816 161.328 161.28 161.678 161.711 162.066 162.115 162.552 
162.244 161.871 162.226 162.081 162.421 162.374 162.72 162.85 163.398 
163.513 162.964 163.172 162.806 163.099 162.859 163.159 163.068 163.522 
163.722 164.408 164.831 164.235 164.38 163.867 164.157 163.756 164.121 
163.765 164.181 164.029 164.656 164.835 165.622 166.405 165.685 165.961 
165.252 165.635 165.053 165.554 165.024 165.492 165.005 165.535 165.339 
166.092 166.197 167.018 168.27 167.508 167.925 167.098 167.546 166.792 
167.343 166.686 167.208 166.544 167.011 166.489 167.129 166.929 167.752 
167.737 168.52 169.962 169.363 169.733 169.056 169.406 168.723 169.142 
168.515 168.953 168.302 168.692 168.063 168.568 168.154 168.878 168.676 
169.447 169.306 169.975 170.782 170.374 171.041 171.901 169.913 170.639 
171.59 172.185 173.011 169.59 170.213 171.182 171.834 172.703 173.285 
174.124 169.635 170.029 170.888 171.417 172.265 172.899 173.786 174.43 
175.317 169.886 170.18 170.939 171.252 172.034 172.518 173.459 174.093 
175.083 175.664 176.479 170.082 170.39 171.128 171.383 172.163 172.501 
173.503 173.978 175.077 175.548 176.44 176.789 177.439 170.302 170.561 
171.272 171.531 172.338 172.714 173.784 174.237 175.385 175.751 176.649 
176.866 177.475 177.697 178.277 170.596 170.815 171.491 171.689 172.473 
172.861 173.942 174.49 175.633 176.077 176.927 177.134 177.667 177.791 
178.279 178.543 179.164 170.829 171.094 171.78 171.957 172.709 173.026 
174.04 174.568 175.646 176.164 176.969 177.29 177.805 177.975 178.437 
178.617 179.194 179.477 180.113 171.285 172.377 172.018 172.443 173.465 
173.115 173.557 173.243 173.712 174.629 174.243 174.693 174.356 174.831 
174.501 174.874 175.861 175.478 175.959 175.559 176.025 175.633 176.01 
175.581 175.85 176.925 176.654 177.131 176.819 177.296 176.901 177.304 
176.806 177.118 176.593 176.9 177.807 177.605 178.053 177.85 178.33 
178.087 178.536 178.148 178.499 177.969 178.281 177.738 178.058 178.733 
178.521 179.058 178.792 179.284 179.024 179.476 179.231 179.611 179.268 
179.554 179.098 179.351 178.855 179.092 179.69 179.524 180.183 179.928 
180.461 180.082 180.462 180.115 180.453 180.194 180.49 180.193 180.418 
180.032 180.226 179.782 179.966 180.548 180.438 181.062 180.972 181.502 
181.246 181.556 181.152 181.37 181.018 181.285 181.016 181.277 180.977 
181.183 180.819 181 180.592 180.756 181.166 182.061 181.608 181.613 
182.91 182.462 182.463 182.067 182.046 183.896 183.424 183.436 182.921 
182.866 182.386 182.153 184.721 184.475 184.606 184.038 183.91 183.253 
182.976 182.355 181.977 184.946 185.044 185.294 185.102 184.974 184.351 
183.947 183.229 182.815 182.183 181.842 184.976 185.007 185.196 185.386 
185.368 185.15 184.704 184.125 183.611 183.018 182.644 182.1 181.804 
185.607 185.177 185.207 185.195 185.292 185.277 185.026 184.673 184.187 
183.704 183.311 182.844 182.529 182.034 181.714 186.878 186.141 186.074 
185.571 185.661 185.395 185.383 185.03 184.76 184.27 183.941 183.464 
183.176 182.708 182.391 181.892 181.543 188.111 187.493 187.389 186.707 
186.66 186.118 186.114 185.646 185.529 184.996 184.744 184.179 183.88 
183.354 183.029 182.534 182.176 181.684 181.306 181.179 181.652 181.652 
182.094 181.937 182.051 182.432 182.475 182.89 181.828 182.066 182.346 
182.599 182.941 183.19 183.681 181.745 181.85 181.993 182.25 182.534 
182.973 183.419 183.878 184.339 181.886 181.913 182.049 182.023 182.297 
182.55 183.108 183.538 184.083 184.423 184.707 181.814 182.061 182.359 
182.319 182.634 182.636 183.29 183.509 184.306 184.448 184.957 184.875 
185.083 181.503 181.898 182.364 182.578 182.972 183.068 183.648 183.869 
184.694 184.913 185.621 185.523 185.931 185.574 185.897 181.286 181.645 
182.184 182.508 182.982 183.233 183.724 184.044 184.672 185.102 185.746 
186.047 186.533 186.517 186.912 186.651 187.098 181.117 181.481 182.009 
182.354 182.847 183.151 183.625 183.948 184.457 184.862 185.372 185.827 
186.29 186.696 187.136 187.369 187.804 187.795 188.194 171.178 172.125 
171.833 172.17 173.271 172.877 173.274 172.86 173.221 174.539 174.128 
174.613 174.154 174.64 174.121 174.624 175.743 175.408 175.944 175.56 
176.068 175.607 176.067 175.602 176.097 176.856 176.571 177.104 176.812 
177.267 176.906 177.225 176.846 177.148 176.862 177.218 177.933 177.653 
178.149 177.886 178.329 178.003 178.301 177.883 178.112 177.755 178.04 
177.789 178.054 178.919 178.666 179.095 178.859 179.326 179.06 179.475 
179.043 179.363 178.85 179.195 178.743 179.084 178.647 178.859 179.777 
179.558 179.933 179.724 180.184 180.023 180.529 180.247 180.634 180.182 
180.529 180.055 180.429 179.91 180.176 179.562 179.717 180.562 180.364 
180.724 180.513 180.932 180.813 181.299 181.176 181.516 181.256 181.458 
181.184 181.449 181.168 181.42 180.946 181.067 180.451 180.563 170.549 
169.766 170.645 171.565 169.004 169.907 171.019 171.799 172.753 168.379 
169.202 170.384 171.299 172.429 173.102 174.032 167.873 168.566 169.676 
170.671 171.958 172.801 173.833 174.39 175.232 167.622 168.094 169.112 
169.999 171.388 172.352 173.561 174.199 175.07 175.546 176.343 167.746 
168.001 168.938 169.578 170.951 171.872 173.235 173.96 174.924 175.396 
176.189 176.66 177.454 168.042 168.232 169.056 169.508 170.697 171.499 
172.839 173.653 174.709 175.254 176.043 176.506 177.295 177.772 178.505 
168.336 168.53 169.283 169.62 170.591 171.216 172.384 173.204 174.308 
174.999 175.847 176.346 177.093 177.579 178.325 178.774 179.407 168.678 
168.845 169.608 169.853 170.724 171.125 172.122 172.755 173.83 174.562 
175.53 176.124 176.903 177.372 178.083 178.548 179.224 179.633 180.202 
169.163 170.351 169.866 170.144 171.641 171.146 171.457 170.94 171.275 
172.95 172.467 172.836 172.321 172.667 172.138 172.583 174.328 173.82 
174.223 173.721 174.109 173.57 174.001 173.543 174.157 175.727 175.23 
175.636 175.137 175.541 175.015 175.451 174.977 175.545 175.183 175.825 
177.063 176.596 176.994 176.531 176.926 176.436 176.851 176.392 176.914 
176.541 177.107 176.752 177.236 178.346 177.897 178.255 177.818 178.206 
177.777 178.206 177.771 178.267 177.869 178.387 177.998 178.436 178.03 
178.406 179.474 179.12 179.45 179.035 179.416 179.024 179.506 179.118 
179.638 179.223 179.71 179.272 179.683 179.236 179.594 179.171 179.523 
180.296 180.12 180.502 180.188 180.595 180.24 180.743 180.403 180.928 
180.553 180.984 180.557 180.896 180.46 180.772 180.353 180.661 180.254 
180.524 180.788 181.875 181.275 181.165 183.319 182.544 182.439 181.661 
181.405 184.821 184.012 183.812 183.013 182.75 181.92 181.613 186.052 
185.332 184.981 184.27 183.943 183.221 182.888 182.111 181.767 186.954 
186.365 185.974 185.311 184.957 184.3 183.938 183.249 182.845 182.141 
181.734 187.589 187.14 186.807 186.231 185.904 185.293 184.945 184.247 
183.799 183.086 182.638 181.99 181.579 188.124 187.733 187.393 186.916 
186.525 186.089 185.727 185.194 184.723 184.026 183.523 182.848 182.445 
181.825 181.454 188.575 188.252 187.864 187.396 186.875 186.481 186.031 
185.714 185.25 184.793 184.256 183.683 183.226 182.663 182.297 181.707 
181.333 188.606 188.517 188.114 187.783 187.24 186.8 186.29 185.916 
185.461 185.113 184.619 184.219 183.734 183.313 182.9 182.447 182.049 
181.525 181.122 180.652 180.627 180.938 181.675 180.711 180.924 181.733 
182.172 183.147 181.006 181.046 181.784 182.259 183.421 183.871 184.85 
181.474 181.328 181.9 182.316 183.545 184.176 185.399 185.624 186.314 
182.142 181.805 182.206 182.445 183.62 184.303 185.65 186.116 186.936 
186.91 187.237 182.747 182.434 182.646 182.754 183.75 184.375 185.654 
186.246 187.048 187.274 187.582 187.571 187.738 182.747 182.747 182.773 
182.985 183.682 184.338 185.388 186.078 186.748 187.126 187.365 187.595 
187.807 187.96 188.203 182.135 182.403 182.391 182.761 183.219 183.929 
184.728 185.531 186.107 186.634 186.858 187.21 187.469 187.835 188.223 
188.437 188.682 181.434 181.737 181.834 182.221 182.622 183.249 183.899 
184.667 185.22 185.856 186.172 186.646 186.967 187.437 187.881 188.3 
188.619 188.786 188.768 180.113 179.339 179.864 180.092 178.514 179.128 
179.519 179.958 180.28 177.679 178.364 178.969 179.508 180.04 180.372 
180.764 176.901 177.616 178.275 178.943 179.6 180.158 180.739 181.013 
181.401 176.031 176.855 177.485 178.189 178.734 179.477 180.127 180.83 
181.473 181.768 182.179 174.902 175.885 176.583 177.358 177.804 178.475 
178.965 179.874 180.67 181.564 182.274 182.593 182.869 173.66 174.672 
175.449 176.378 176.913 177.563 177.906 178.636 179.251 180.377 181.215 
182.219 182.657 182.989 182.867 172.548 173.449 174.189 175.178 175.808 
176.614 176.981 177.622 177.979 178.878 179.487 180.7 181.221 182.175 
182.167 182.527 182.14 171.583 172.375 173.012 173.926 174.536 175.429 
175.872 176.618 176.934 177.655 178.03 178.963 179.397 180.442 180.649 
181.42 181.261 181.621 181.314 171.227 171.053 171.644 172.637 170.775 
171.456 172.494 173.083 174.07 170.442 171.16 172.238 172.89 173.882 
174.472 175.381 170.179 170.837 171.944 172.627 173.686 174.288 175.246 
175.749 176.557 170.092 170.626 171.699 172.359 173.488 174.133 175.189 
175.701 176.577 176.93 177.682 170.113 170.563 171.537 172.14 173.229 
173.919 175.019 175.645 176.586 177.006 177.751 178.074 178.855 170.173 
170.537 171.383 171.934 172.902 173.595 174.624 175.359 176.333 176.933 
177.719 178.117 178.793 179.209 179.957 170.455 170.609 171.3 171.71 
172.551 173.192 174.144 174.884 175.844 176.558 177.425 177.986 178.683 
179.093 179.68 180.129 180.661 171.074 170.997 171.506 171.655 172.341 
172.827 173.74 174.416 175.378 176.066 176.952 177.597 178.353 178.879 
179.446 179.838 180.243 180.618 180.91 171.646 172.368 171.976 171.913 
172.948 172.635 172.678 172.348 172.627 173.797 173.39 173.674 173.275 
173.721 173.403 174.03 175.086 174.566 175.017 174.533 175.106 174.693 
175.347 175.002 175.675 176.422 175.976 176.407 175.969 176.475 176.096 
176.641 176.305 176.855 176.57 177.16 177.532 177.194 177.562 177.221 
177.609 177.301 177.709 177.428 177.848 177.611 178.105 177.939 178.488 
178.601 178.25 178.625 178.275 178.659 178.333 178.736 178.419 178.807 
178.516 178.937 178.763 179.246 179.138 179.571 179.714 179.36 179.754 
179.37 179.763 179.402 179.824 179.483 179.881 179.521 179.874 179.581 
179.953 179.793 180.146 180.032 180.313 180.698 180.436 180.818 180.49 
180.836 180.493 180.841 180.534 180.876 180.564 180.855 180.525 180.791 
180.512 180.764 180.558 180.767 180.636 180.858 181.148 181.122 181.281 
181.665 181.262 181.41 181.912 182.007 182.578 181.375 181.593 182.186 
182.357 182.979 183.104 183.797 181.426 181.68 182.261 182.549 183.175 
183.434 184.064 184.301 184.955 181.457 181.716 182.277 182.568 183.208 
183.527 184.187 184.465 185.099 185.352 185.932 181.481 181.755 182.376 
182.639 183.347 183.625 184.382 184.625 185.359 185.555 186.234 186.359 
186.918 181.5 181.797 182.457 182.762 183.508 183.831 184.618 184.892 
185.622 185.847 186.527 186.719 187.333 187.409 187.9 181.455 181.791 
182.393 182.761 183.41 183.851 184.526 184.97 185.554 185.933 186.409 
186.78 187.217 187.579 187.971 188.217 188.516 181.284 181.659 182.173 
182.57 183.068 183.539 184.026 184.572 184.991 185.529 185.815 186.315 
186.498 187.028 187.188 187.768 187.922 188.425 188.51 161.102 161.353 
161.206 161.226 161.885 161.55 161.539 161.362 161.407 162.806 162.242 
162.131 161.764 161.794 161.614 161.784 164.006 163.323 163.188 162.561 
162.563 162.164 162.393 162.194 162.58 165.262 164.613 164.599 163.857 
163.901 163.234 163.494 163.054 163.508 163.234 163.774 166.482 165.884 
166 165.365 165.509 164.787 165.014 164.388 164.795 164.356 164.896 
164.588 165.226 167.817 167.137 167.267 166.728 166.952 166.369 166.583 
165.949 166.248 165.719 166.2 165.816 166.451 166.169 166.912 169.297 
168.527 168.567 167.986 168.214 167.72 167.986 167.433 167.727 167.177 
167.636 167.189 167.837 167.484 168.229 167.941 168.693 170.605 169.92 
169.848 169.265 169.435 168.965 169.279 168.795 169.158 168.644 169.131 
168.673 169.326 168.937 169.668 169.313 170.016 169.685 170.305 161.01 
161.097 160.985 160.887 161.263 161.089 160.961 160.87 160.933 161.691 
161.377 161.303 161.061 161.154 161.117 161.542 162.506 162.026 162.102 
161.692 161.905 161.609 162.069 162.038 162.721 163.649 163.034 163.18 
162.726 163.086 162.675 163.134 162.825 163.404 163.331 163.961 165.1 
164.338 164.458 163.914 164.296 163.921 164.382 164.006 164.415 164.122 
164.575 164.487 164.993 166.839 165.969 166.114 165.365 165.704 165.179 
165.641 165.219 165.608 165.179 165.512 165.2 165.618 165.498 165.983 
168.615 167.789 167.969 167.163 167.472 166.762 167.179 166.584 167.01 
166.455 166.831 166.315 166.706 166.32 166.773 166.556 167.032 170.161 
169.463 169.592 168.924 169.165 168.518 168.83 168.201 168.54 167.944 
168.303 167.744 168.123 167.6 167.998 167.557 167.979 167.671 168.111 
160.952 160.822 160.862 160.838 160.943 160.815 160.744 160.727 160.761 
161.643 161.228 161.192 160.836 160.807 160.748 161.04 162.814 162.234 
162.244 161.618 161.58 161.125 161.401 161.375 162.035 164.002 163.466 
163.469 162.827 162.805 162.184 162.423 162.095 162.734 162.7 163.458 
165.044 164.579 164.612 164.037 164.068 163.477 163.733 163.3 163.845 
163.605 164.26 164.146 164.798 166.034 165.6 165.714 165.191 165.293 
164.745 165.028 164.607 165.095 164.764 165.276 165.01 165.568 165.47 
166.222 167.022 166.597 166.748 166.3 166.428 165.945 166.148 165.781 
166.166 165.901 166.332 166.037 166.507 166.305 167.021 167.038 167.983 
168.035 167.585 167.719 167.308 167.437 167.005 167.124 166.751 166.995 
166.778 167.185 167.004 167.504 167.303 167.98 167.901 168.785 168.849 
169.735 179.928 179.156 179.433 179.093 178.024 178.479 178.126 178.463 
178.095 176.72 177.232 176.896 177.335 176.948 177.371 177.105 175.386 
175.913 175.62 176.09 175.744 176.161 175.855 176.375 176.235 173.974 
174.535 174.25 174.809 174.481 174.946 174.568 175.059 174.773 175.429 
175.27 172.568 173.084 172.748 173.353 173.006 173.575 173.147 173.674 
173.256 173.864 173.548 174.299 174.077 171.267 171.711 171.34 171.862 
171.513 172.052 171.661 172.185 171.801 172.344 172.016 172.612 172.347 
173.06 172.875 170.004 170.424 170.043 170.516 170.18 170.655 170.312 
170.778 170.469 170.967 170.721 171.227 170.997 171.521 171.327 171.968 
171.853 168.822 169.177 168.773 169.219 168.865 169.353 169.008 169.492 
169.165 169.676 169.41 169.957 169.716 170.25 170.011 170.565 170.387 
171.035 170.938 
POINT_DATA 1002
SCALARS Distance double
LOOKUP_TABLE default
172.159 171.258 171.458 172.339 171.199 172.701 171.909 170.504 172.735 
173.189 171.199 169.969 172.376 173.214 174.182 170.891 169.851 172.085 
173.228 174.332 175.59 170.897 169.8 172.085 173.355 174.552 175.718 
176.833 170.895 169.734 172.128 173.43 174.709 175.845 176.887 177.862 
171.03 169.862 172.299 173.527 174.744 175.938 177.009 178 178.958 
171.337 170.18 172.648 173.859 174.885 175.982 177.153 178.203 179.158 
180.048 171.654 170.564 172.913 174.176 175.171 176.088 177.218 178.359 
179.313 180.159 180.924 170.115 170.026 168.571 168.281 167.075 169.621 
166.73 165.838 167.98 169.118 165.422 164.67 166.481 167.742 168.864 
164.193 163.46 165.074 166.276 167.586 168.762 162.986 162.339 163.829 
164.934 166.223 167.491 168.641 161.944 161.55 162.725 163.847 165.105 
166.324 167.49 168.647 161.339 161.176 161.893 162.872 164.052 165.225 
166.381 167.589 168.864 161.128 161.023 161.502 162.194 163.068 164.042 
165.145 166.401 167.788 169.218 160.934 161.21 160.83 161.334 160.855 
161.756 161.657 161.478 162.049 162.399 162.484 162.775 162.542 162.678 
163.089 163.639 164.131 163.399 163.362 163.443 164.04 164.936 165.427 
164.567 164.509 164.496 164.608 165.324 166.695 167.096 166.254 166.085 
166.069 165.914 166.088 166.868 168.736 168.98 168.345 168.04 167.906 
167.651 167.469 167.835 168.558 170.377 170.53 170.089 169.788 169.602 
169.355 169.075 169.165 169.639 170.148 171.64 171.341 172.728 170.944 
172.492 173.817 170.538 172.072 173.549 175.013 170.484 171.648 173.081 
174.734 176.213 170.711 171.631 172.83 174.471 176.052 177.178 170.867 
171.817 173.048 174.638 176.129 177.146 177.999 171.037 171.921 173.282 
175.03 176.495 177.332 177.953 178.885 171.328 172.118 173.385 175.164 
176.714 177.583 178.092 178.796 179.815 171.585 172.435 173.58 175.16 
176.621 177.582 178.255 178.966 179.824 180.702 172.766 173.855 174.053 
175.063 175.165 175.28 176.365 176.456 176.46 176.298 177.391 177.644 
177.795 177.665 177.398 178.251 178.522 178.831 178.99 178.85 178.602 
179.318 179.609 179.724 179.877 179.971 179.848 179.608 180.372 180.862 
180.918 180.749 180.739 180.767 180.645 180.431 181.131 181.686 181.961 
181.795 181.573 181.548 181.523 181.385 181.189 181.67 182.025 182.492 
182.873 183.37 182.494 184.036 184.287 183.401 182.708 185.106 184.772 
184.68 183.654 182.569 185.257 184.814 185.524 184.724 183.469 182.411 
184.957 185.164 185.381 185.206 184.189 183.18 182.347 185.418 186.248 
185.255 185.25 184.629 183.747 183.01 182.237 186.763 187.629 186.047 
185.689 185.219 184.439 183.642 182.882 182.059 188.09 188.617 187.316 
186.623 186.038 185.338 184.462 183.542 182.666 181.808 181.167 182.122 
181.672 182.364 181.785 182.814 182.057 181.65 182.622 183.392 181.851 
181.74 182.077 182.908 183.962 182.153 181.768 182.149 182.67 183.751 
184.539 182.266 181.413 182.664 183.096 184.112 185.061 185.278 182.023 
181.079 182.811 183.45 184.404 185.572 186.235 186.288 181.838 180.946 
182.697 183.446 184.284 185.333 186.337 187.033 187.421 181.661 180.747 
182.532 183.316 184.117 184.972 185.815 186.722 187.656 188.338 171.424 
172.497 172.461 173.678 173.679 173.653 175.031 174.912 175.137 175.135 
176.287 176.036 176.518 176.556 176.517 177.395 177.142 177.638 177.654 
177.477 177.46 178.426 178.237 178.633 178.729 178.531 178.338 178.33 
179.339 179.186 179.526 179.827 179.876 179.685 179.566 179.359 180.153 
179.997 180.313 180.721 181.042 180.988 180.917 180.808 180.365 169.697 
170.817 168.788 170.118 168.111 172.125 169.38 167.651 171.658 173.51 
168.673 167.297 170.979 173.242 174.754 168.313 167.259 170.35 172.838 
174.609 175.855 168.431 167.55 170.073 172.432 174.438 175.731 176.988 
168.717 167.863 170.024 171.996 174.094 175.6 176.805 178.097 169.012 
168.135 170.121 171.631 173.528 175.308 176.639 177.84 179.042 169.388 