# vtk DataFile Version 4.0
vtk output
ASCII
DATASET POLYDATA
POINTS 1002 float
-120.417 -114.741 53.8232 -120.279 -113.983 52.7983 -119.739 -114.104 53.2534 
-119.904 -114.887 54.3911 -119.111 -114.367 53.6562 -120.558 -115.758 55.0232 
-119.289 -115.296 54.9052 -118.413 -114.805 54.0948 -120.069 -116.124 55.6789 
-120.634 -117.231 56.3298 -118.561 -116.029 55.414 -117.751 -115.369 54.6942 
-119.463 -116.754 56.2859 -120.118 -117.775 57.0346 -120.632 -118.742 57.8179 
-117.877 -116.829 56.0627 -117.227 -115.962 55.4636 -118.708 -117.599 56.8744 
-119.497 -118.425 57.7336 -120.071 -119.291 58.6467 -120.626 -120.071 59.635 
-117.434 -117.395 56.9786 -116.83 -116.495 56.4153 -118.022 -118.346 57.6498 
-118.724 -119.188 58.4965 -119.405 -120.02 59.4762 -120.002 -120.859 60.5036 
-120.53 -121.709 61.3954 -117.145 -117.846 58.1176 -116.465 -117.051 57.4812 
-117.632 -118.882 58.7407 -118.089 -119.904 59.5134 -118.652 -120.876 60.424 
-119.249 -121.882 61.3026 -119.786 -122.821 62.0532 -120.228 -123.624 62.6585 
-116.745 -118.516 59.1678 -116.068 -117.805 58.4153 -117.293 -119.482 59.9103 
-117.71 -120.563 60.705 -118.144 -121.606 61.5569 -118.582 -122.706 62.2827 
-118.998 -123.779 62.8203 -119.427 -124.592 63.325 -119.875 -125.164 63.8361 
-116.208 -119.403 59.934 -115.631 -118.717 59.1463 -116.761 -120.263 60.8306 
-117.234 -121.284 61.7524 -117.729 -122.269 62.6306 -118.165 -123.246 63.3718 
-118.438 -124.291 63.9013 -118.708 -125.193 64.3489 -119.11 -125.787 64.8587 
-119.588 -126.18 65.3581 -115.683 -120.252 60.5869 -115.189 -119.56 59.845 
-116.195 -121.042 61.5336 -116.616 -122.009 62.5504 -117.072 -122.986 63.4669 
-117.583 -123.862 64.2649 -117.936 -124.719 64.9647 -118.142 -125.565 65.543 
-118.414 -126.252 66.0554 -118.812 -126.695 66.5445 -119.258 -126.98 66.945 
-119.809 -113.185 52.1537 -119.168 -113.458 52.5319 -119.304 -112.188 51.5573 
-118.544 -112.564 51.9634 -118.738 -111.136 51.1139 -118.437 -113.786 52.9395 
-117.837 -111.527 51.6065 -118.052 -110.262 50.8237 -117.729 -112.849 52.5522 
-117.728 -114.06 53.5348 -117.035 -110.694 51.2935 -117.248 -109.424 50.6819 
-116.884 -111.893 52.2431 -116.971 -113.087 53.2508 -117.102 -114.473 54.2393 
-116.192 -109.873 51.1232 -116.398 -108.376 50.7863 -115.955 -111.301 51.7449 
-115.99 -112.495 52.7237 -116.245 -113.754 53.7591 -116.514 -115.172 54.9492 
-115.393 -108.818 51.3514 -115.626 -107.396 51.1124 -115.158 -110.554 51.5903 
-115.08 -112.143 52.1531 -115.254 -113.454 53.0787 -115.567 -114.697 54.2869 
-115.991 -115.891 55.8407 -114.787 -107.999 51.85 -115.048 -106.827 51.5735 
-114.565 -109.54 52.0787 -114.479 -111.309 52.3427 -114.541 -112.893 52.8795 
-114.737 -114.167 53.7962 -115.117 -115.326 55.2029 -115.628 -116.53 56.8895 
-114.394 -107.707 52.4402 -114.614 -106.575 52.1817 -114.105 -108.915 52.7578 
-113.945 -110.373 53.046 -113.965 -111.951 53.3868 -114.118 -113.277 53.9118 
-114.47 -114.43 54.8735 -114.96 -115.778 56.327 -115.368 -117.3 57.8525 
-114.027 -107.623 53.1167 -114.194 -106.436 52.9013 -113.662 -108.704 53.3815 
-113.32 -109.855 53.636 -113.216 -111.235 53.9294 -113.359 -112.522 54.308 
-113.795 -113.522 54.9289 -114.43 -114.74 56.0234 -114.892 -116.447 57.4168 
-115.069 -118.188 58.7165 -113.624 -107.095 53.8211 -113.258 -108.245 54.0341 
-112.819 -107.681 54.8294 -112.321 -108.737 54.9388 -112.106 -108.385 55.8778 
-112.75 -109.31 54.159 -111.863 -109.467 56.0195 -111.951 -109.56 57.1652 
-111.98 -109.882 54.9668 -112.448 -110.595 54.3095 -111.972 -110.601 57.6405 
-112.05 -110.805 58.8371 -111.93 -110.67 56.2974 -111.976 -111.357 55.1969 
-112.494 -112.026 54.6425 -111.957 -111.627 59.5192 -112.115 -111.595 60.4714 
-112.114 -111.633 58.2326 -112.166 -112.074 56.8015 -112.301 -112.7 55.732 
-112.957 -113.065 55.2067 -112.348 -112.488 60.7708 -112.944 -112.4 61.3579 
-112.293 -112.651 59.857 -112.569 -112.907 58.6345 -112.778 -113.278 57.4096 
-113.162 -113.618 56.5659 -113.835 -114.039 56.1617 -114.079 -113.679 61.0638 
-114.833 -113.65 61.3582 -113.504 -113.902 60.5682 -113.434 -114.127 59.8154 
-113.639 -114.25 58.9613 -113.858 -114.478 58.2319 -114.173 -114.991 57.7513 
-114.554 -115.73 57.492 -116.193 -115.115 60.976 -116.7 -115.009 61.0945 
-115.487 -115.328 60.8419 -114.928 -115.539 60.5548 -114.71 -115.619 60.1138 
-114.631 -115.77 59.6708 -114.532 -116.298 59.3393 -114.533 -117.099 59.0664 
-114.722 -117.8 58.8274 -117.317 -116.427 61.2324 -117.659 -116.206 61.2492 
-116.735 -116.64 61.3413 -116.038 -116.801 61.4478 -115.478 -116.906 61.3568 
-115.113 -117.1 61.0424 -114.766 -117.599 60.7295 -114.45 -118.365 60.5116 
-114.408 -119.075 60.2616 -114.705 -119.472 59.9912 -115.062 -120.72 61.1211 
-114.535 -120.634 61.3939 -115.033 -121.932 62.7283 -114.259 -120.25 61.6866 
-114.511 -121.862 63.0302 -114.814 -123.453 64.4603 -114.383 -119.587 61.9195 
-114.212 -121.526 63.2586 -114.215 -123.45 64.6835 -114.036 -125.098 66.0165 
-114.712 -118.883 62.2736 -114.187 -120.969 63.5818 -113.793 -123.111 64.9143 
-113.331 -125.032 66.2158 -113.058 -126.358 67.4713 -115.08 -118.385 62.7309 
-114.327 -120.397 64.1553 -113.635 -122.588 65.4185 -112.917 -124.509 66.6092 
-112.449 -126.118 67.7948 -112.474 -127.418 69.0387 -115.62 -118.135 62.8725 
-114.741 -119.951 64.5415 -113.902 -122.15 65.951 -112.97 -123.946 67.1888 
-112.227 -125.426 68.3589 -112.037 -127.09 69.5046 -112.086 -128.668 70.6435 
-116.33 -118.006 62.6099 -115.42 -119.641 64.3833 -114.621 -121.767 66.0061 
-113.634 -123.666 67.4429 -112.529 -124.921 68.8581 -111.955 -126.365 70.1135 
-111.756 -128.23 71.2103 -111.561 -129.777 72.181 -117.007 -117.845 62.279 
-116.113 -119.417 63.9947 -115.366 -121.34 65.7272 -114.545 -123.362 67.2719 
-113.309 -124.807 68.9039 -112.32 -125.923 70.4818 -111.814 -127.463 71.7516 
-111.393 -129.178 72.7966 -111.083 -130.44 73.6482 -117.538 -117.602 62.0944 
-116.75 -119.211 63.6845 -115.956 -120.975 65.4553 -115.234 -122.858 67.0389 
-114.144 -124.558 68.6814 -113.008 -125.806 70.4327 -112.277 -126.968 71.9356 
-111.685 -128.379 73.1424 -111.14 -129.763 74.183 -110.901 -130.811 74.978 
-115.604 -121.533 62.047 -115.468 -123.004 63.8183 -116.014 -122.518 63.1365 
-114.909 -124.681 65.5667 -115.629 -124.163 64.8701 -116.286 -123.617 64.137 
-113.959 -126.115 67.146 -114.895 -125.733 66.5285 -115.71 -125.309 65.7228 
-116.655 -124.64 64.9784 -113.199 -127.274 68.771 -114.121 -126.976 68.2417 
-114.982 -126.78 67.4119 -115.942 -126.322 66.5862 -117.081 -125.482 65.8384 
-112.662 -128.671 70.406 -113.495 -128.334 70.0125 -114.349 -128.059 69.2842 
-115.203 -127.708 68.4102 -116.308 -127.019 67.5861 -117.418 -126.195 66.6759 
-111.986 -130.044 71.8753 -112.748 -129.877 71.5094 -113.692 -129.517 70.9748 
-114.625 -128.969 70.231 -115.633 -128.263 69.3461 -116.765 -127.548 68.3902 
-117.734 -126.861 67.3071 -111.339 -130.889 73.2746 -111.968 -130.987 72.7529 
-112.918 -130.852 72.2088 -114.031 -130.363 71.6559 -115.131 -129.541 70.8976 
-116.192 -128.785 69.8823 -117.213 -128.128 68.8356 -118.098 -127.396 67.7651 
-111.035 -131.374 74.6571 -111.501 -131.659 74.0127 -112.284 -131.756 73.2483 
-113.371 -131.588 72.6111 -114.594 -130.962 72.0335 -115.701 -130.135 71.1789 
-116.675 -129.387 70.1075 -117.62 -128.583 69.1223 -118.512 -127.711 68.13 
-111.036 -131.536 76.0731 -111.28 -132.154 75.5409 -111.417 -132.234 76.8632 
-111.678 -133 76.0952 -111.883 -132.635 77.0721 -111.812 -132.492 74.6163 
-112.337 -133.454 76.2527 -112.745 -132.645 76.7932 -112.306 -133.338 74.9488 
-112.696 -132.565 73.583 -113.77 -133.387 76.1836 -114.355 -132.648 76.4522 
-113.348 -133.678 75.0271 -113.4 -133.206 73.6554 -113.942 -132.245 72.7861 
-115.711 -133.282 75.9354 -116.23 -132.728 76.1561 -115.111 -133.602 74.9194 
-114.679 -133.371 73.5462 -114.794 -132.65 72.7107 -115.25 -131.505 72.1107 
-117.395 -133.186 75.3595 -117.866 -132.549 75.6799 -116.89 -133.538 74.5253 
-116.334 -133.341 73.3446 -116.073 -132.699 72.5351 -116.137 -131.774 72.0161 
-116.353 -130.603 71.174 -118.863 -132.817 74.6461 -119.345 -132.166 75.0794 
-118.385 -133.242 73.9296 -117.876 -133.21 73.017 -117.548 -132.658 72.2776 
-117.393 -131.757 71.7947 -117.279 -130.698 71.1002 -117.35 -129.614 70.1215 
-120.258 -132.286 74.099 -120.663 -131.771 74.5404 -119.804 -132.553 73.4616 
-119.271 -132.612 72.7033 -118.859 -132.4 71.9413 -118.659 -131.714 71.3575 
-118.447 -130.63 70.8094 -118.28 -129.518 70.055 -118.345 -128.556 69.142 
-121.349 -131.713 73.6123 -121.662 -131.274 74.001 -120.983 -131.799 73.072 
-120.483 -131.725 72.4348 -119.949 -131.7 71.6513 -119.606 -131.442 70.8685 
-119.402 -130.604 70.2748 -119.228 -129.46 69.71 -119.182 -128.453 68.9642 
-119.242 -127.656 68.021 -111.078 -130.458 75.7061 -111.331 -131.097 76.9398 
-111.627 -129.977 76.0786 -112.041 -130.384 77.4773 -112.503 -129.613 75.9668 
-111.823 -131.451 77.7034 -113.074 -129.886 77.4395 -113.527 -129.424 75.3066 
-112.65 -130.401 78.2636 -112.381 -131.475 77.5585 -114.177 -129.707 76.4643 
-114.57 -129.04 74.2586 -113.738 -129.858 78.1526 -113.295 -130.451 77.8307 
-113.397 -131.628 76.8154 -115.269 -129.299 74.8559 -115.65 -128.222 73.2711 
-114.886 -129.652 76.857 -114.536 -129.99 77.5796 -114.522 -130.998 76.8186 
-115.164 -132.054 76.2954 -116.41 -128.463 73.5313 -116.76 -127.203 72.4857 
-116.103 -129.162 75.0265 -115.957 -129.438 76.4306 -116.09 -130.277 76.6769 
-116.493 -131.424 76.2733 -117.122 -132.116 76.0705 -117.523 -127.416 72.6391 
-117.835 -126.223 71.6102 -117.299 -128.389 73.7031 -117.302 -128.703 75.0069 
-117.612 -129.12 76.0063 -118.026 -130.186 76.1845 -118.388 -131.143 75.9785 
-118.803 -131.706 75.6727 -118.557 -126.293 71.7002 -118.84 -125.336 70.5682 
-118.334 -127.358 72.7507 -118.332 -127.999 73.8465 -118.628 -128.24 74.9663 
-119.047 -128.842 75.6122 -119.427 -129.812 75.6251 -119.804 -130.628 75.4137 
-120.228 -131.279 75.0925 -119.54 -125.249 70.6218 -119.735 -124.522 69.5755 
-119.306 -126.137 71.6928 -119.199 -127.023 72.7092 -119.344 -127.606 73.72 
[...]
CELL_DATA 2000
SCALARS Distance double
LOOKUP_TABLE default
173.167 173.043 173.442 174.174 172.984 173.372 174.188 174.591 175.475 
173.053 173.408 174.306 174.697 175.657 176.032 176.964 173.277 173.587 
174.528 174.893 175.882 176.255 177.208 177.542 178.447 173.629 173.899 
174.843 175.162 176.139 176.495 177.473 177.812 178.77 179.071 180.015 
174.079 174.317 175.281 175.537 176.52 176.804 177.815 178.127 179.158 
179.46 180.46 180.713 181.625 174.599 174.814 175.809 176.04 177.06 
177.286 178.324 178.57 179.619 179.894 180.894 181.156 182.035 182.25 
183.001 175.14 175.342 176.317 176.57 177.59 177.851 178.882 179.13 
180.138 180.382 181.321 181.558 182.385 182.6 183.315 183.5 184.13 
175.653 175.85 176.767 177.032 178.007 178.312 179.297 179.606 180.555 
180.839 181.709 181.947 182.722 182.923 183.615 183.792 184.414 184.566 
185.115 172.517 171.429 172.119 172.371 170.234 170.982 171.272 171.97 
172.254 169.025 169.755 170.042 170.81 171.113 171.858 172.233 167.866 
168.553 168.783 169.542 169.854 170.656 171.046 171.877 172.387 166.678 
167.381 167.6 168.315 168.617 169.397 169.818 170.665 171.201 172.092 
172.711 165.515 166.185 166.455 167.168 167.517 168.251 168.705 169.492 
170.048 170.91 171.548 172.458 173.139 164.682 165.169 165.491 166.107 
166.546 167.244 167.754 168.481 169.024 169.804 170.414 171.297 171.999 
172.93 173.657 164.289 164.602 164.962 165.362 165.814 166.381 166.913 
167.587 168.107 168.817 169.354 170.171 170.852 171.796 172.582 173.51 
174.251 164.116 164.388 164.758 165.019 165.37 165.764 166.197 166.778 
167.256 167.91 168.386 169.12 169.742 170.657 171.478 172.459 173.287 
174.151 174.843 164.176 164.398 164.475 164.786 164.554 164.581 164.847 
164.975 165.298 165.208 164.861 165.059 165.019 165.387 165.539 166.043 
166.521 165.863 166.004 165.547 165.898 165.778 166.332 166.446 167.077 
167.83 167.249 167.375 166.788 167.061 166.628 167.098 166.923 167.522 
167.564 168.218 169.101 168.494 168.694 168.156 168.471 167.964 168.382 
167.949 168.488 168.236 168.923 168.863 169.653 170.936 170.062 170.423 
169.66 170.149 169.498 170.045 169.436 170.024 169.508 170.236 169.902 
170.784 170.595 171.505 173.082 172.205 172.659 171.749 172.288 171.45 
172.043 171.289 171.901 171.244 171.94 171.447 172.275 171.945 172.815 
172.564 173.365 174.826 174.229 174.624 173.931 174.324 173.59 173.998 
173.288 173.732 173.098 173.623 173.12 173.757 173.404 174.106 173.846 
174.523 174.293 174.906 175.749 175.415 176.027 176.971 175.057 175.689 
176.664 177.333 178.393 174.76 175.358 176.342 177.015 178.086 178.796 
179.79 174.637 175.138 176.106 176.712 177.741 178.443 179.412 180.052 
180.817 174.734 175.116 176.051 176.541 177.524 178.118 179.023 179.616 
180.379 180.94 181.664 174.997 175.29 176.187 176.568 177.55 178.017 
178.907 179.32 180.039 180.506 181.281 181.877 182.752 175.308 175.575 
176.419 176.739 177.716 178.147 179.108 179.402 180.108 180.334 181.048 
181.529 182.443 183.071 183.941 175.558 175.85 176.641 176.945 177.855 
178.305 179.31 179.681 180.456 180.59 181.218 181.452 182.261 182.772 
183.657 184.198 184.895 175.698 176.035 176.813 177.128 177.976 178.399 
179.353 179.813 180.649 180.921 181.556 181.72 182.393 182.701 183.484 
183.929 184.645 185.07 185.641 176.205 177.48 176.993 177.358 178.95 
178.399 178.79 178.236 178.62 180.324 179.886 180.269 179.724 180.075 
179.526 179.898 181.31 181.079 181.466 181.095 181.426 180.952 181.291 
180.787 181.135 182.206 181.977 182.434 182.155 182.553 182.196 182.557 
182.127 182.471 181.983 182.273 183.36 183.027 183.571 183.206 183.688 
183.314 183.727 183.328 183.681 183.254 183.547 183.054 183.264 184.495 
184.232 184.757 184.428 184.905 184.529 184.935 184.507 184.826 184.4 
184.686 184.26 184.491 183.987 184.137 185.345 185.202 185.64 185.458 
185.876 185.653 186.044 185.702 185.991 185.544 185.781 185.35 185.585 
185.151 185.321 184.811 184.91 186.058 185.938 186.353 186.198 186.585 
186.445 186.848 186.67 187.011 186.675 186.902 186.456 186.639 186.2 
186.357 185.911 186.003 185.512 185.565 186.627 187.662 187.09 186.936 
188.569 188.132 187.97 187.346 187.149 189.173 188.952 188.916 188.371 
188.139 187.542 187.381 189.841 189.602 189.726 189.262 189.073 188.495 
188.285 187.766 187.575 190.801 190.465 190.634 190.135 189.968 189.37 
189.12 188.612 188.39 187.871 187.534 191.625 191.392 191.499 191.077 
190.88 190.27 189.948 189.396 189.124 188.626 188.275 187.701 187.253 
192.112 191.984 192.022 191.771 191.574 191.105 190.749 190.202 189.856 
189.33 188.934 188.376 187.891 187.341 186.884 192.459 192.339 192.315 
192.127 191.916 191.615 191.267 190.87 190.478 190.01 189.545 188.994 
188.447 187.901 187.39 186.923 186.487 192.634 192.583 192.47 192.321 
192.029 191.813 191.421 191.177 190.749 190.448 189.942 189.508 188.907 
188.397 187.827 187.365 186.895 186.483 186.052 186.563 186.734 186.978 
187.614 186.906 187.148 187.749 187.971 188.455 187.139 187.358 187.882 
188.03 188.36 188.563 188.898 187.244 187.564 188.092 188.192 188.419 
188.439 188.672 188.929 189.443 187.046 187.508 188.059 188.323 188.611 
188.608 188.844 188.888 189.424 189.722 190.455 186.716 187.195 187.732 
188.133 188.515 188.729 189.091 189.209 189.757 189.926 190.608 190.839 
191.418 186.38 186.838 187.377 187.791 188.222 188.545 188.975 189.307 
189.867 190.198 190.771 191.011 191.468 191.643 191.98 185.996 186.451 
186.957 187.425 187.882 188.265 188.672 189.06 189.532 190.008 190.489 
190.921 191.287 191.594 191.888 192.099 192.352 185.599 186.013 186.433 
186.923 187.351 187.842 188.234 188.682 189.054 189.517 189.885 190.381 
190.708 191.182 191.475 191.875 192.14 192.406 192.563 176 176.956 
176.707 177.183 178.205 177.829 178.363 177.967 178.445 179.558 179.176 
179.708 179.273 179.734 179.301 179.786 180.751 180.442 180.92 180.569 
180.96 180.561 180.942 180.6 181.002 181.856 181.54 181.989 181.678 
182.076 181.709 182.064 181.697 182.065 181.711 181.994 182.947 182.63 
183.067 182.743 183.179 182.823 183.232 182.84 183.237 182.828 183.166 
182.685 182.92 183.87 183.646 184.049 183.789 184.198 183.913 184.322 
183.997 184.383 184.014 184.343 183.904 184.158 183.654 183.911 184.579 
184.446 184.836 184.663 185.056 184.852 185.259 185.015 185.412 185.104 
185.434 185.041 185.29 184.846 185.082 184.65 184.94 185.167 185.083 
185.498 185.383 185.811 185.656 186.102 185.91 186.374 186.12 186.527 
186.149 186.442 185.975 186.221 185.772 186.042 185.642 185.918 175.352 
174.519 175.379 176.277 173.542 174.525 175.535 176.427 177.483 172.409 
173.505 174.638 175.686 176.876 177.782 178.886 171.28 172.323 173.512 
174.731 176.077 177.176 178.417 179.223 180.204 170.602 171.314 172.386 
173.541 174.947 176.265 177.674 178.729 179.857 180.526 181.389 170.527 
170.903 171.79 172.562 173.824 175.053 176.531 177.835 179.147 180.115 
181.117 181.722 182.507 170.68 170.978 171.783 172.219 173.263 174.096 
175.449 176.654 178.06 179.25 180.417 181.315 182.201 182.787 183.453 
170.762 171.116 171.919 172.288 173.192 173.73 174.875 175.76 177.092 
178.187 179.433 180.472 181.485 182.316 183.084 183.635 184.185 170.802 
171.167 171.966 172.365 173.201 173.659 174.637 175.314 176.495 177.388 
178.58 179.529 180.581 181.498 182.39 183.145 183.823 184.313 184.791 
171.098 172.028 171.779 172.282 173.124 172.789 173.267 173.009 173.528 
174.32 173.926 174.373 174.049 174.604 174.341 174.991 175.588 175.156 
175.631 175.241 175.864 175.55 176.318 176.022 176.849 176.931 176.491 
177.041 176.613 177.303 176.944 177.757 177.445 178.285 177.986 178.824 
178.262 177.876 178.486 178.09 178.8 178.441 179.212 178.887 179.653 
179.362 180.133 179.893 180.702 179.529 179.205 179.852 179.519 180.226 
179.903 180.643 180.311 181.041 180.709 181.463 181.178 181.975 181.738 
182.509 180.78 180.487 181.178 180.867 181.581 181.274 182.018 181.71 
182.474 182.138 182.916 182.574 183.349 183.035 183.733 183.445 184.003 
181.993 181.753 182.481 182.199 182.905 182.599 183.305 183.031 183.783 
183.535 184.29 184.008 184.68 184.362 184.902 184.588 184.995 184.698 
184.997 182.877 184.439 183.595 183.439 186 185.177 185.021 184.128 
183.876 187.463 186.677 186.485 185.652 185.391 184.508 184.244 188.795 
188.059 187.831 187.043 186.794 185.975 185.76 184.911 184.724 189.894 
189.286 189.071 188.352 188.126 187.356 187.17 186.392 186.243 185.424 
185.239 190.709 190.249 190.062 189.491 189.272 188.625 188.397 187.711 
187.475 186.785 186.541 185.814 185.536 191.403 191.002 190.821 190.34 
190.083 189.584 189.306 188.764 188.43 187.827 187.454 186.857 186.514 
185.919 185.603 192.05 191.696 191.513 191.04 190.726 190.25 189.932 
189.486 189.161 188.646 188.259 187.67 187.28 186.72 186.393 185.87 
185.576 192.489 192.261 192.07 191.675 191.345 190.87 190.526 190.064 
189.75 189.293 188.964 188.445 188.087 187.512 187.168 186.609 186.302 
185.792 185.509 182.812 183.19 183.441 184.35 183.636 183.862 184.801 
185.037 185.949 184.117 184.371 185.35 185.553 186.521 186.681 187.518 
184.407 184.811 185.835 186.119 187.114 187.313 188.219 188.264 188.946 
184.378 184.928 185.929 186.432 187.43 187.828 188.768 188.96 189.67 
189.611 190.069 184.193 184.758 185.683 186.304 187.279 187.904 188.876 
189.343 190.089 190.225 190.652 190.555 190.841 183.987 184.525 185.405 
185.999 186.931 187.591 188.552 189.212 190.013 190.424 190.871 190.964 
191.216 191.19 191.46 183.72 184.271 185.127 185.723 186.606 187.221 
188.086 188.757 189.537 190.133 190.638 190.966 191.227 191.385 191.655 
191.756 192.054 183.392 183.942 184.745 185.379 186.205 186.838 187.598 
188.232 188.924 189.558 190.096 190.58 190.894 191.213 191.474 191.758 
192.069 192.263 192.487 181.911 180.688 181.618 182.268 179.394 180.349 
180.976 181.966 182.66 177.99 178.958 179.486 180.55 181.192 182.313 
183.034 176.508 177.464 177.872 178.926 179.45 180.652 181.328 182.589 
183.268 174.986 175.936 176.328 177.307 177.755 178.844 179.449 180.732 
181.455 182.731 183.32 173.532 174.432 174.897 175.843 176.329 177.262 
177.787 178.885 179.593 180.881 181.605 182.768 183.261 172.293 173.074 
173.559 174.482 175.033 175.934 176.406 177.327 177.903 179.071 179.834 
181.08 181.723 182.741 183.135 171.245 171.923 172.328 173.183 173.717 
174.643 175.125 175.987 176.447 177.443 178.124 179.347 180.098 181.228 
181.737 182.625 182.926 170.296 170.906 171.23 171.974 172.439 173.327 
173.848 174.72 175.195 176.06 176.646 177.714 178.475 179.636 180.282 
181.252 181.632 182.416 182.661 169.902 169.756 170.122 170.84 169.939 
170.124 170.823 171.174 172.028 170.375 170.461 171.141 171.318 172.151 
172.51 173.443 170.801 170.932 171.619 171.743 172.525 172.757 173.65 
173.977 174.858 171.119 171.314 172.018 172.192 172.931 173.141 173.973 
174.251 175.147 175.427 176.351 171.473 171.654 172.418 172.586 173.333 
173.504 174.29 174.549 175.46 175.78 176.792 177.082 178.139 171.961 
172.097 172.928 173.067 173.866 173.964 174.736 174.891 175.781 176.09 
177.138 177.519 178.593 178.922 179.904 172.51 172.628 173.429 173.593 
174.389 174.523 175.285 175.4 176.228 176.454 177.441 177.816 178.854 
179.25 180.166 180.491 181.249 173.005 173.125 173.831 174.017 174.749 
174.958 175.699 175.893 176.672 176.893 177.769 178.092 179.034 179.422 
180.288 180.637 181.356 181.644 182.272 173.471 174.483 174.055 174.294 
175.769 175.194 175.418 174.946 175.215 177.257 176.618 176.845 176.219 
176.468 175.936 176.212 178.761 178.149 178.446 177.78 178.04 177.354 
177.61 177.001 177.267 180.32 179.689 180.051 179.419 179.741 179.027 
179.262 178.531 178.772 178.118 178.399 181.893 181.287 181.641 181.035 
181.391 180.728 180.977 180.225 180.414 179.692 179.946 179.307 179.619 
183.26 182.778 183.111 182.581 182.92 182.335 182.61 181.914 182.094 
181.347 181.541 180.862 181.123 180.519 180.801 184.387 184.016 184.359 
183.936 184.267 183.781 184.073 183.486 183.697 183.001 183.165 182.453 
182.644 181.993 182.204 181.616 181.823 185.346 185.053 185.39 185.066 
185.386 185.01 185.3 184.848 185.087 184.523 184.693 184.032 184.174 
183.498 183.652 183.009 183.168 182.57 182.732 183.438 183.929 184.038 
184.795 184.439 184.557 185.338 185.467 186.244 184.974 185.085 185.862 
185.996 186.777 186.897 187.618 185.477 185.616 186.39 186.524 187.305 
187.424 188.163 188.238 188.91 185.807 186.026 186.752 186.976 187.732 
187.927 188.651 188.768 189.402 189.469 190.021 185.96 186.228 186.864 
187.168 187.841 188.18 188.852 189.127 189.697 189.855 190.316 190.416 
190.805 186.017 186.301 186.885 187.18 187.788 188.145 188.784 189.151 
189.719 189.99 190.445 190.613 191.013 191.105 191.455 185.996 186.303 
186.869 187.167 187.763 188.09 188.744 189.081 189.698 189.97 190.484 
190.689 191.153 191.31 191.741 191.795 192.125 185.923 186.238 186.778 
187.102 187.68 188.044 188.7 189.074 189.715 190.002 190.531 190.741 
191.204 191.411 191.844 192.019 192.352 192.405 192.573 163.655 163.943 
163.581 163.249 164.447 164.021 163.872 163.462 163.436 165.285 164.705 
164.581 164.174 164.23 163.902 164.076 166.447 165.724 165.475 164.912 
164.834 164.559 164.678 164.524 164.722 167.699 166.983 166.751 165.966 
165.725 165.156 165.141 164.939 165.126 165.064 165.304 168.867 168.228 
168.145 167.384 167.234 166.36 166.279 165.63 165.825 165.524 165.86 
165.702 166.045 170.032 169.396 169.356 168.744 168.762 168.012 168.024 
167.165 167.321 166.63 166.99 166.521 166.92 166.603 167.024 171.249 
170.6 170.544 169.936 169.985 169.422 169.542 168.893 169.05 168.337 
168.588 167.932 168.245 167.703 168.054 167.693 168.146 172.404 171.826 
171.811 171.177 171.209 170.625 170.752 170.232 170.417 169.884 170.073 
169.49 169.662 169.073 169.265 168.788 169.094 168.813 169.255 163.401 
162.903 162.98 162.873 163.035 162.715 162.574 162.654 162.866 163.747 
163.171 162.996 162.718 163.012 163.08 163.613 164.559 164.031 163.896 
163.436 163.694 163.548 164.124 164.122 164.693 165.266 164.863 164.852 
164.413 164.614 164.355 164.835 164.75 165.289 165.234 165.747 166.015 
165.634 165.768 165.389 165.626 165.29 165.672 165.476 165.976 165.874 
166.404 166.331 166.885 166.962 166.511 166.726 166.365 166.697 166.337 
166.704 166.375 166.832 166.629 167.188 167.064 167.619 167.512 168.031 
168.104 167.589 167.822 167.412 167.786 167.432 167.835 167.468 167.885 
167.578 168.077 167.889 168.403 168.256 168.697 168.58 169.015 169.264 
168.78 169.009 168.566 168.902 168.532 168.929 168.586 168.99 168.656 
169.07 168.798 169.213 169.006 169.382 169.219 169.595 169.509 169.964 
163.731 163.226 163.663 164.031 163.144 163.285 163.674 163.982 164.323 
163.723 163.467 163.747 163.813 164.28 164.481 165.06 164.695 164.234 
164.38 164.149 164.594 164.659 165.392 165.591 166.397 165.779 165.269 
165.425 164.998 165.364 165.191 165.876 166.012 166.853 167.039 167.744 
166.943 166.422 166.666 166.18 166.533 166.144 166.673 166.579 167.34 
167.479 168.254 168.334 169.026 168.076 167.615 167.876 167.449 167.795 
167.365 167.756 167.454 168.061 168.041 168.88 168.954 169.842 169.834 
170.782 169.091 168.7 168.959 168.596 168.91 168.536 168.84 168.49 
168.947 168.819 169.614 169.695 170.69 170.764 171.784 171.811 172.841 
170.096 169.717 170.017 169.651 169.96 169.582 169.851 169.484 169.859 
169.671 170.38 170.451 171.436 171.595 172.604 172.721 173.653 173.747 
174.585 181.409 180.213 180.602 180.174 178.986 179.378 178.939 179.346 
178.906 177.735 178.136 177.667 178.079 177.63 178.05 177.571 176.43 
176.849 176.344 176.761 176.275 176.733 176.269 176.688 176.151 175.121 
175.523 174.991 175.393 174.863 175.328 174.86 175.345 174.834 175.222 
174.629 173.843 174.212 173.654 174.031 173.479 173.909 173.434 173.92 
173.453 173.883 173.328 173.686 173.144 172.593 172.918 172.326 172.693 
172.153 172.563 172.108 172.549 172.12 172.538 172.06 172.421 171.935 
172.299 171.907 171.471 171.7 171.116 171.417 170.929 171.299 170.898 
171.297 170.905 171.287 170.857 171.212 170.782 171.145 170.778 171.176 
170.884 170.572 170.696 170.175 170.365 169.948 170.211 169.851 170.168 
169.803 170.14 169.742 170.077 169.668 170.018 169.649 170.047 169.743 
170.182 169.933 
POINT_DATA 1002
SCALARS Distance double
LOOKUP_TABLE default
173.823 172.917 172.762 173.742 172.627 174.96 173.751 172.575 175.073 
176.395 173.901 172.686 175.27 176.63 177.871 174.177 172.97 175.51 
176.869 178.128 179.345 174.553 173.365 175.801 177.11 178.443 179.743 
180.962 175.035 173.841 176.259 177.505 178.834 180.2 181.44 182.477 
175.568 174.392 176.828 178.098 179.375 180.652 181.834 182.837 183.692 
176.069 174.962 177.316 178.63 179.921 181.122 182.192 183.135 183.976 
184.727 176.522 175.478 177.714 178.995 180.272 181.476 182.533 183.445 
184.27 185 185.623 171.874 171.724 170.692 170.534 169.478 171.561 
169.257 168.344 170.339 171.44 168.061 167.195 169.034 170.192 171.508 
166.888 165.953 167.853 168.967 170.298 171.799 165.716 164.879 166.766 
167.936 169.214 170.634 172.214 164.917 164.251 165.843 167.033 168.295 
169.566 171.045 172.74 164.641 163.978 165.331 166.271 167.438 168.591 
169.906 171.607 173.402 164.549 163.826 165.089 165.693 166.629 167.704 
168.864 170.459 172.369 174.091 164.156 164.724 164.317 164.706 164.643 
165.116 165.237 165.747 165.238 165.81 166.609 167.211 166.17 166.29 
166.901 167.931 168.352 167.59 167.429 167.579 168.088 169.202 169.748 
168.95 168.876 168.843 169.043 169.639 171.238 171.823 170.83 170.669 
170.591 170.639 171.028 171.689 173.558 173.868 173.183 172.853 172.609 
172.504 172.678 173.123 173.639 175.261 175.349 175.054 174.736 174.405 
174.185 174.182 174.416 174.783 175.153 176.619 176.313 177.983 175.976 
177.706 179.494 175.688 177.367 179.192 180.692 175.55 177.087 178.775 
180.278 181.486 175.617 176.995 178.5 179.803 181.063 182.446 175.853 
177.099 178.566 179.664 180.658 182.127 183.688 176.139 177.272 178.783 
179.982 180.686 181.807 183.401 184.738 176.361 177.432 178.869 180.285 
181.109 181.867 183.114 184.46 185.49 176.486 177.599 178.903 180.293 
181.375 182.191 183.125 184.216 185.264 186.17 177.842 179.376 179.156 
180.793 180.644 180.431 181.758 181.855 181.786 181.663 182.691 182.858 
182.953 182.939 182.816 183.95 184.075 184.136 184.098 184.012 183.819 
185.062 185.264 185.382 185.292 185.095 184.957 184.702 185.81 186.051 
186.316 186.437 186.251 186.002 185.8 185.465 186.516 186.736 186.971 
187.259 187.34 187.119 186.801 186.473 186.075 187.197 187.56 188.23 
188.61 188.869 187.743 189.38 189.273 188.761 187.915 190.155 190.097 
189.649 188.813 188.129 191.146 191.163 190.608 189.653 188.898 188.147 
191.872 191.846 191.484 190.555 189.64 188.839 187.842 192.239 192.257 
191.962 191.28 190.416 189.515 188.451 187.383 192.526 192.597 192.184 
191.607 190.919 190.104 189.021 187.873 186.917 192.631 192.677 192.255 
191.651 191.007 190.325 189.402 188.301 187.31 186.461 186.322 187.418 
186.465 187.564 186.691 188.267 187.822 186.911 188.262 188.555 187.965 
186.863 188.494 188.503 188.963 187.703 186.576 188.515 188.829 189.204 
190.109 187.311 186.264 188.188 188.848 189.601 190.471 191.248 186.944 
185.937 187.879 188.606 189.478 190.528 191.321 191.84 186.474 185.58 
187.456 188.314 189.101 190.023 190.92 191.624 192.205 185.988 185.234 
186.841 187.759 188.634 189.43 190.204 191.004 191.799 192.419 176.167 
177.471 177.234 178.787 178.601 178.839 180.147 179.934 180.2 180.169 
181.252 181.074 181.368 181.321 181.345 182.301 182.199 182.423 182.445 
182.435 182.422 183.394 183.255 183.514 183.609 183.649 183.634 183.447 
184.295 184.067 184.466 184.624 184.74 184.765 184.635 184.395 184.982 
184.693 185.237 185.472 185.688 185.813 185.727 185.511 185.343 174.54 
175.432 173.587 174.558 172.486 176.617 173.476 171.268 175.883 178.131 
172.229 170.343 174.836 177.515 179.61 171.37 170.094 173.562 176.446 
179.067 180.901 171.247 170.243 172.756 175.156 177.996 180.383 182.071 
171.447 170.353 172.655 174.38 176.814 179.376 181.495 183.041 171.549 
170.385 172.764 174.157 176.09 178.376 180.55 182.416 183.8 171.568 
170.455 172.783 174.057 175.698 177.701 179.666 181.532 183.225 184.45 