# vtk DataFile Version 4.0
vtk output
ASCII
DATASET POLYDATA
POINTS 1002 float
-119.351 -109.691 49.1138 -119.078 -108.955 47.929 -118.505 -109.229 48.14 
-118.816 -110.062 49.461 -117.895 -109.534 48.539 -119.596 -110.526 50.5783 
-118.182 -110.442 49.9818 -117.206 -109.863 49.1214 -119.05 -110.933 51.0791 
-119.749 -111.459 52.2817 -117.51 -110.818 50.6571 -116.497 -110.295 49.7434 
-118.438 -111.339 51.7485 -119.212 -111.908 52.9635 -119.895 -112.567 54.1781 
-116.923 -111.275 51.4205 -115.892 -110.845 50.4177 -117.862 -111.773 52.5883 
-118.647 -112.417 53.8166 -119.372 -113.135 55.0303 -119.975 -113.904 56.0197 
-116.445 -111.789 52.3926 -115.483 -111.319 51.3888 -117.349 -112.286 53.5954 
-118.057 -112.998 54.8109 -118.721 -113.805 55.9494 -119.334 -114.591 56.8944 
-119.767 -115.416 57.5581 -116.044 -112.24 53.6507 -115.271 -111.697 52.6194 
-116.828 -112.82 54.7964 -117.43 -113.609 55.9 -117.961 -114.517 56.8859 
-118.531 -115.365 57.7187 -118.991 -116.183 58.3963 -119.371 -117.002 58.9832 
-115.663 -112.74 54.8942 -115.084 -112.247 53.7689 -116.28 -113.344 56.0287 
-116.805 -114.202 56.9965 -117.22 -115.212 57.8163 -117.73 -116.149 58.5594 
-118.238 -117.009 59.2238 -118.624 -117.84 59.8278 -119.054 -118.541 60.4132 
-115.2 -113.407 55.8545 -114.738 -112.987 54.6855 -115.702 -113.95 57.0306 
-116.214 -114.783 57.9747 -116.588 -115.862 58.6946 -116.989 -116.905 59.3916 
-117.534 -117.802 60.1139 -117.985 -118.643 60.7181 -118.342 -119.391 61.1911 
-118.793 -119.925 61.6234 -114.668 -114.078 56.6021 -114.266 -113.644 55.452 
-115.112 -114.612 57.7817 -115.636 -115.387 58.7775 -116.055 -116.439 59.5282 
-116.343 -117.567 60.1816 -116.763 -118.53 60.9114 -117.275 -119.332 61.599 
-117.663 -120.064 62.0408 -118.018 -120.674 62.314 -118.478 -121.09 62.5807 
-118.445 -108.38 47.0302 -117.79 -108.552 47.289 -117.826 -107.634 46.3109 
-117.141 -107.695 46.6912 -117.237 -106.651 45.7679 -117.131 -108.758 47.7896 
-116.46 -106.722 46.1983 -116.507 -105.514 45.2243 -116.434 -107.845 47.2729 
-116.379 -109.089 48.4132 -115.622 -105.707 45.6375 -115.7 -104.392 44.7195 
-115.681 -106.92 46.7836 -115.633 -108.206 47.8993 -115.59 -109.638 49.002 
-114.928 -104.664 45.2993 -115.134 -103.36 44.5766 -114.906 -105.972 46.3034 
-114.946 -107.293 47.5039 -114.841 -108.793 48.5716 -114.957 -110.238 49.7332 
-114.451 -103.66 45.3546 -114.666 -102.428 44.7248 -114.271 -104.978 46.0646 
-114.297 -106.392 47.1786 -114.247 -107.888 48.393 -114.22 -109.369 49.4563 
-114.63 -110.661 50.795 -113.774 -102.786 45.3839 -113.951 -101.599 44.7997 
-113.554 -104.048 45.9371 -113.55 -105.531 46.8498 -113.607 -107.121 48.1414 
-113.569 -108.562 49.3482 -113.856 -109.881 50.5005 -114.528 -111.141 51.9821 
-112.956 -102.038 45.2848 -113.145 -100.875 44.8879 -112.769 -103.256 45.7828 
-112.768 -104.687 46.5835 -112.906 -106.374 47.7785 -112.919 -107.953 49.1017 
-113.064 -109.306 50.3354 -113.674 -110.646 51.5984 -114.375 -111.935 53.0616 
-112.426 -101.437 45.4861 -112.609 -100.326 45.3231 -112.324 -102.629 45.9217 
-112.36 -103.91 46.7121 -112.505 -105.47 47.7682 -112.528 -107.189 48.9647 
-112.501 -108.784 50.2526 -112.843 -110.261 51.5119 -113.513 -111.644 52.6986 
-114.044 -112.785 53.9881 -112.304 -100.705 46.2182 -112.25 -101.915 46.5061 
-112.281 -101.478 47.6607 -112.354 -102.651 48.3097 -112.178 -102.424 49.4795 
-112.351 -103.126 47.2781 -112.221 -103.505 50.2875 -111.952 -103.334 51.1173 
-112.547 -103.779 49.3363 -112.514 -104.442 48.3289 -111.872 -104.496 51.8644 
-111.937 -104.327 52.5855 -112.29 -104.65 51.2166 -112.606 -105.105 50.3179 
-112.534 -106.105 49.3742 -111.743 -105.589 53.4503 -112.052 -105.347 54.3266 
-111.843 -105.799 52.7241 -112.283 -106.11 52.0792 -112.501 -106.921 51.2849 
-112.395 -108.017 50.5666 -111.985 -106.59 55.1263 -112.283 -106.279 55.9293 
-111.904 -106.986 54.2161 -112.168 -107.385 53.5364 -112.532 -108.058 53.0639 
-112.536 -109.069 52.4939 -112.475 -109.899 51.8923 -112.693 -107.732 56.2393 
-113.018 -107.467 56.7267 -112.589 -108.192 55.4615 -112.715 -108.673 54.7005 
-112.992 -109.245 54.2869 -113.014 -110.114 53.9832 -112.798 -111.021 53.4968 
-112.925 -111.528 52.9803 -113.713 -109.277 56.8368 -114.086 -109.053 57.0209 
-113.51 -109.675 56.3986 -113.468 -110.069 55.8042 -113.546 -110.416 55.3292 
-113.485 -110.971 54.9569 -113.162 -111.77 54.5534 -113.024 -112.45 54.1841 
-113.4 -112.763 53.9775 -114.529 -110.944 57.5097 -114.887 -110.678 57.4965 
-114.209 -111.307 57.3773 -113.912 -111.594 57.1316 -113.666 -111.723 56.8513 
-113.432 -111.944 56.3942 -113.12 -112.447 55.7647 -112.927 -113.036 55.3143 
-113.136 -113.461 55.1961 -113.673 -113.651 55.2781 -114.027 -114.441 56.9635 
-113.446 -114.394 56.8583 -113.894 -115.398 58.7117 -112.88 -114.255 56.8032 
-113.324 -115.467 58.8085 -113.831 -116.761 60.4799 -112.531 -113.999 57.0587 
-112.631 -115.585 58.9277 -113.234 -117.021 60.7344 -113.504 -118.423 62.1162 
-112.559 -113.573 57.8015 -112.047 -115.484 59.368 -112.468 -117.22 60.9282 
-112.894 -118.66 62.445 -112.768 -120.052 63.8247 -112.92 -113.227 58.5093 
-111.984 -115.015 60.0971 -111.903 -116.936 61.3078 -112.283 -118.586 62.6883 
-112.166 -120.09 64.303 -111.818 -121.452 65.5713 -113.498 -113.174 58.6612 
-112.558 -114.684 60.3895 -112.007 -116.347 61.7302 -112.027 -118.053 63.0792 
-111.777 -119.732 64.7526 -111.145 -121.297 66.1351 -110.829 -122.453 66.9514 
-114.127 -113.11 58.5721 -113.455 -114.69 60.1177 -112.731 -116.114 61.6878 
-112.329 -117.536 63.428 -111.848 -119.132 65.3013 -110.943 -120.81 66.6806 
-110.155 -122.13 67.4271 -109.973 -122.975 68.0764 -114.63 -112.79 58.56 
-114.248 -114.56 59.9041 -113.622 -116.103 61.3887 -112.99 -117.359 63.343 
-112.318 -118.642 65.5991 -111.367 -120.227 67.1888 -110.276 -121.669 67.8851 
-109.584 -122.582 68.4686 -109.467 -123.204 69.3732 -115.007 -112.373 58.5108 
-114.771 -114.133 59.8737 -114.328 -115.836 61.2706 -113.718 -117.2 63.0258 
-112.957 -118.289 65.3294 -112.082 -119.649 67.2842 -111.062 -121.189 68.2304 
-110.101 -122.26 68.7978 -109.524 -122.844 69.7026 -109.376 -123.339 70.8126 
-114.456 -115.066 58.2104 -114.354 -116.34 59.8921 -114.966 -115.883 59.334 
-114.116 -117.981 61.5421 -114.79 -117.475 60.9418 -115.473 -116.932 60.2795 
-113.469 -119.741 63.2392 -114.305 -119.248 62.638 -115.129 -118.675 61.9387 
-115.775 -118.126 61.0483 -112.609 -121.32 65.0025 -113.549 -120.895 64.3766 
-114.523 -120.366 63.6661 -115.32 -119.841 62.7161 -116.019 -119.243 61.7394 
-111.749 -122.545 66.5284 -112.778 -122.258 65.9641 -113.805 -121.816 65.2643 
-114.741 -121.393 64.3185 -115.572 -120.844 63.301 -116.448 -120.11 62.4409 
-110.861 -123.307 67.8366 -111.961 -123.287 67.3992 -113.024 -122.989 66.7478 
-114.081 -122.679 65.8366 -115.076 -122.249 64.7798 -116.008 -121.557 63.8389 
-116.913 -120.794 62.9667 -110.08 -123.676 69.2819 -111.105 -123.936 68.9084 
-112.215 -123.834 68.2471 -113.38 -123.612 67.347 -114.584 -123.343 66.2795 
-115.627 -122.803 65.2196 -116.508 -122.086 64.2207 -117.314 -121.397 63.2267 
-109.642 -123.837 70.8264 -110.467 -124.241 70.4364 -111.607 -124.297 69.6812 
-112.848 -124.141 68.723 -114.144 -124.02 67.6583 -115.332 -123.759 66.5731 
-116.257 -123.209 65.5156 -117.028 -122.559 64.4367 -117.776 -121.88 63.4103 
-109.555 -123.719 72.259 -109.995 -124.215 71.9576 -110.085 -123.966 73.1893 
-110.976 -124.324 72.368 -111.278 -123.979 73.4014 -111.124 -124.45 71.1079 
-112.742 -124.362 72.28 -113.244 -124.03 73.1638 -112.549 -124.459 71.2172 
-112.548 -124.384 70.0215 -114.748 -124.773 72.1041 -115.409 -124.359 72.6524 
-114.312 -124.812 71.2911 -113.97 -124.597 70.1169 -113.888 -124.366 68.8775 
-116.223 -125.241 71.6902 -116.981 -124.644 71.9852 -115.636 -125.548 71.3248 
-115.135 -125.336 70.2506 -114.941 -124.889 68.8429 -115.099 -124.401 67.6863 
-117.222 -125.209 70.9646 -117.992 -124.635 71.2865 -116.653 -125.855 70.7904 
-116.085 -126.05 70.0079 -115.752 -125.633 68.6117 -115.902 -124.924 67.4775 
-116.154 -124.11 66.5727 -118.341 -124.954 70.1508 -119.06 -124.526 70.4925 
-117.939 -125.645 69.8862 -117.513 -126.186 69.2521 -116.97 -126.043 68.0838 
-116.785 -125.334 67.0973 -116.939 -124.444 66.4055 -117.021 -123.507 65.4963 
-119.698 -124.801 69.3624 -120.348 -124.408 69.6511 -119.395 -125.397 69.0704 
-119.18 -125.996 68.5151 -118.648 -126.04 67.5524 -118.078 -125.435 66.6893 
-117.88 -124.586 66.1335 -117.867 -123.702 65.3912 -117.813 -122.792 64.3672 
-120.98 -124.588 68.645 -121.557 -124.161 68.9285 -120.658 -125.091 68.3718 
-120.488 -125.608 67.9361 -120.074 -125.735 67.1667 -119.418 -125.283 66.3392 
-118.945 -124.542 65.7407 -118.772 -123.729 65.119 -118.692 -122.849 64.2615 
-118.588 -121.952 63.3605 -109.735 -123.136 71.4821 -110.007 -123.405 72.9591 
-110.601 -122.904 71.7985 -111.02 -123.04 73.0608 -111.721 -122.559 71.5413 
-110.621 -123.558 73.8691 -112.327 -122.727 72.3428 -112.911 -122.222 70.7346 
-111.782 -123.178 73.8029 -111.935 -123.535 74.0916 -113.653 -122.633 71.0432 
-114.093 -122.058 69.6587 -113.263 -123.031 72.7291 -113.228 -123.213 73.9367 
-114.112 -123.56 73.7493 -114.861 -122.56 69.7123 -115.144 -121.777 68.5826 
-114.693 -123.017 71.1356 -114.765 -123.132 72.6681 -115.457 -123.23 73.5302 
-116.458 -123.835 73.0737 -115.947 -122.03 68.5993 -116.118 -121.032 67.5779 
-115.947 -122.679 69.7818 -116.117 -122.954 71.0463 -116.739 -123.047 72.3124 
-117.649 -123.456 72.9251 -118.071 -124.143 72.3707 -117.015 -121.046 67.5722 
-117.181 -120.031 66.5873 -117.069 -121.875 68.6957 -117.228 -122.385 69.8067 
-117.643 -122.668 70.8303 -118.438 -123.068 71.8284 -119.066 -123.716 72.1859 
-119.125 -124.244 71.5402 -118.066 -119.993 66.5439 -118.232 -119.114 65.5809 
-118.089 -120.889 67.5723 -118.203 -121.585 68.6995 -118.4 -122.024 69.6204 
-118.891 -122.425 70.3645 -119.604 -123.031 71.0233 -120.105 -123.695 71.1283 
-120.26 -124.14 70.5156 -118.962 -119.047 65.5626 -119.054 -118.312 64.6119 
-118.985 -119.905 66.4472 -119.087 -120.705 67.4564 -119.229 -121.268 68.4493 
[...]
CELL_DATA 2000
SCALARS Distance double
LOOKUP_TABLE default
167.649 167.544 167.974 168.747 167.458 167.91 168.732 169.138 169.939 
167.409 167.855 168.723 169.148 170.005 170.389 171.255 167.489 167.88 
168.804 169.201 170.134 170.513 171.458 171.816 172.746 167.747 168.071 
169.046 169.387 170.375 170.725 171.718 172.072 173.03 173.346 174.205 
168.155 168.42 169.411 169.713 170.706 171.027 172.006 172.348 173.288 
173.616 174.465 174.738 175.504 168.672 168.875 169.829 170.1 171.063 
171.368 172.31 172.628 173.546 173.864 174.733 175.005 175.806 176.031 
176.791 169.201 169.377 170.245 170.493 171.405 171.704 172.623 172.925 
173.83 174.133 175.033 175.315 176.167 176.386 177.159 177.339 178.042 
169.618 169.819 170.601 170.851 171.711 172.016 172.926 173.233 174.128 
174.423 175.305 175.613 176.468 176.74 177.492 177.693 178.336 178.506 
179.074 166.954 165.827 166.504 166.768 164.656 165.339 165.559 166.31 
166.634 163.369 164.126 164.336 165.085 165.374 166.171 166.549 161.952 
162.771 163.025 163.834 164.123 164.915 165.276 166.113 166.582 160.683 
161.401 161.702 162.507 162.869 163.678 164.063 164.87 165.339 166.214 
166.797 159.693 160.288 160.571 161.266 161.67 162.468 162.933 163.719 
164.197 165.009 165.592 166.505 167.191 158.71 159.322 159.52 160.174 
160.508 161.309 161.82 162.646 163.165 163.929 164.487 165.338 166.055 
166.995 167.756 157.668 158.273 158.441 159.076 159.364 160.142 160.674 
161.551 162.155 162.943 163.517 164.297 165.009 165.916 166.752 167.652 
168.392 156.892 157.336 157.616 158.116 158.516 159.129 159.739 160.507 
161.231 162.002 162.685 163.412 164.149 164.966 165.829 166.708 167.516 
168.3 168.909 156.784 157.339 157.152 157.54 158.365 157.974 158.306 
158.059 158.534 159.396 159.053 159.415 159.058 159.483 159.207 159.798 
160.376 160.02 160.392 160.13 160.567 160.277 160.781 160.58 161.245 
161.557 161.064 161.375 161.058 161.525 161.295 161.843 161.619 162.23 
162.058 162.728 162.885 162.336 162.645 162.177 162.673 162.338 163.023 
162.758 163.506 163.203 163.915 163.612 164.307 164.366 163.761 164.192 
163.625 164.197 163.713 164.461 164.107 164.945 164.61 165.368 164.977 
165.66 165.293 165.999 166.133 165.442 165.996 165.351 165.986 165.399 
166.087 165.632 166.338 166.005 166.628 166.327 166.868 166.593 167.166 
166.939 167.577 167.962 167.318 167.876 167.245 167.829 167.215 167.749 
167.208 167.677 167.261 167.662 167.361 167.733 167.54 167.98 167.881 
168.411 168.334 168.882 169.569 169.098 169.708 170.528 168.636 169.224 
170.115 170.809 171.834 168.363 168.828 169.735 170.435 171.581 172.285 
173.371 168.346 168.677 169.524 170.118 171.271 172.032 173.191 173.825 
174.774 168.512 168.783 169.568 169.978 170.995 171.693 172.833 173.569 
174.555 175.126 175.909 168.76 169.055 169.871 170.114 170.987 171.458 
172.503 173.181 174.199 174.838 175.632 176.133 176.719 168.966 169.363 
170.287 170.5 171.338 171.583 172.533 172.984 174.008 174.548 175.385 
175.832 176.373 176.759 177.145 169.045 169.551 170.564 170.903 171.782 
172.004 172.88 173.165 174.117 174.511 175.379 175.715 176.287 176.498 
176.849 177.111 177.464 169.062 169.586 170.61 171.082 172.002 172.363 
173.201 173.497 174.316 174.653 175.461 175.794 176.437 176.594 176.999 
177.043 177.391 177.552 177.987 170.031 171.052 170.694 171.065 172.379 
171.879 172.294 171.838 172.234 173.872 173.331 173.754 173.216 173.638 
173.113 173.499 175.236 174.788 175.208 174.714 175.136 174.598 174.971 
174.398 174.719 176.367 176.046 176.47 176.08 176.497 176.048 176.409 
175.871 176.169 175.59 175.881 177.179 177.051 177.485 177.225 177.622 
177.286 177.646 177.219 177.509 176.998 177.27 176.733 177.011 177.612 
177.686 178.168 178.094 178.489 178.277 178.632 178.337 178.647 178.246 
178.497 178.034 178.274 177.788 177.997 177.922 178.034 178.594 178.653 
179.105 179.015 179.379 179.207 179.558 179.293 179.574 179.18 179.383 
178.94 179.114 178.656 178.795 178.386 178.407 178.987 179.06 179.567 
179.553 179.936 179.852 180.222 180.1 180.449 180.188 180.42 180.01 
180.161 179.709 179.841 179.385 179.495 178.901 179.812 179.378 179.443 
180.653 180.253 180.299 179.922 179.973 181.666 181.163 181.243 180.778 
180.808 180.378 180.356 182.988 182.388 182.54 181.899 181.925 181.299 
181.255 180.741 180.692 184.109 183.687 183.831 183.284 183.253 182.536 
182.373 181.718 181.604 181.092 180.971 184.646 184.462 184.513 184.303 
184.242 183.739 183.439 182.79 182.511 181.979 181.777 181.282 180.992 
184.945 184.769 184.807 184.734 184.8 184.517 184.288 183.713 183.338 
182.784 182.495 182.02 181.696 181.164 180.744 185.347 185.103 185.192 
185.072 185.281 185.082 185.033 184.523 184.16 183.549 183.176 182.675 
182.331 181.827 181.399 180.847 180.397 185.748 185.544 185.605 185.497 
185.672 185.576 185.565 185.222 184.85 184.298 183.806 183.295 182.871 
182.409 181.97 181.464 180.988 180.472 180.027 178.846 179.24 179.275 
179.764 179.66 179.691 180.122 180.16 180.608 179.944 180.047 180.502 
180.546 180.984 181.009 181.556 180.163 180.296 180.814 180.916 181.425 
181.449 182.007 182.09 182.801 180.321 180.515 181.047 181.212 181.769 
181.879 182.486 182.591 183.287 183.413 184.023 180.227 180.571 181.096 
181.376 181.9 182.127 182.717 182.966 183.678 183.895 184.496 184.497 
184.768 179.906 180.336 180.867 181.282 181.787 182.124 182.616 182.982 
183.6 184.049 184.674 184.905 185.214 185.075 185.13 179.559 179.967 
180.475 180.945 181.46 181.888 182.323 182.713 183.149 183.67 184.194 
184.751 185.156 185.389 185.525 185.405 185.465 179.218 179.605 180.05 
180.512 181.003 181.483 181.922 182.335 182.684 183.107 183.474 184.04 
184.457 185.017 185.329 185.605 185.75 185.73 185.818 169.435 170.474 
170.281 170.932 171.599 171.343 171.998 171.78 172.377 172.905 172.563 
173.226 172.917 173.521 173.199 173.663 174.243 173.912 174.535 174.191 
174.724 174.361 174.784 174.407 174.765 175.398 175.139 175.684 175.412 
175.869 175.525 175.877 175.498 175.842 175.487 175.846 176.425 176.169 
176.649 176.423 176.887 176.606 176.984 176.599 176.943 176.565 176.921 
176.558 176.816 177.391 177.137 177.57 177.337 177.817 177.593 178.035 
177.708 178.052 177.672 177.977 177.605 177.8 177.374 177.4 178.191 
178.017 178.408 178.215 178.66 178.495 178.935 178.7 179.003 178.682 
178.894 178.568 178.713 178.316 178.316 177.825 177.773 178.791 178.705 
179.085 178.962 179.375 179.265 179.686 179.522 179.812 179.528 179.684 
179.371 179.497 179.164 179.225 178.772 178.758 178.248 178.302 168.645 
167.92 168.77 169.752 167.342 168.123 169.135 169.914 170.892 166.877 
167.58 168.565 169.338 170.351 171.125 172.175 166.506 167.123 168.063 
168.8 169.838 170.614 171.702 172.488 173.55 166.249 166.782 167.711 
168.374 169.437 170.163 171.266 172.027 173.12 173.857 174.81 166.081 
166.552 167.457 168.083 169.154 169.844 170.928 171.624 172.681 173.416 
174.434 175.09 175.935 165.992 166.395 167.22 167.811 168.829 169.546 
170.608 171.299 172.296 172.983 173.983 174.698 175.643 176.223 176.968 
166.008 166.336 167.087 167.567 168.486 169.158 170.193 170.926 171.933 
172.612 173.572 174.256 175.202 175.874 176.691 177.205 177.803 166.115 
166.395 167.12 167.483 168.312 168.835 169.799 170.486 171.52 172.234 
173.213 173.872 174.767 175.414 176.219 176.825 177.471 177.936 178.41 
166.436 167.358 167.069 167.472 168.426 168.073 168.489 168.178 168.654 
169.618 169.211 169.646 169.277 169.786 169.473 170.096 170.907 170.476 
170.95 170.529 171.079 170.705 171.365 171.067 171.805 172.221 171.81 
172.334 171.906 172.473 172.068 172.72 172.391 173.116 172.827 173.521 
173.501 173.129 173.683 173.298 173.868 173.471 174.066 173.72 174.367 
174.092 174.736 174.453 175.041 174.71 174.383 174.937 174.609 175.195 
174.838 175.42 175.044 175.624 175.293 175.874 175.592 176.146 175.877 
176.409 175.826 175.547 176.099 175.817 176.413 176.119 176.726 176.383 
176.957 176.574 177.112 176.743 177.252 176.936 177.424 177.165 177.622 
176.868 176.632 177.207 176.953 177.548 177.29 177.885 177.614 178.175 
177.861 178.358 177.992 178.43 178.059 178.464 178.145 178.525 178.261 
178.585 177.627 179.011 178.221 178.037 180.492 179.681 179.496 178.641 
178.406 181.885 181.131 180.925 180.101 179.816 178.976 178.712 183.079 
182.398 182.155 181.436 181.131 180.335 180.02 179.238 178.97 184.096 
183.468 183.207 182.575 182.322 181.597 181.277 180.496 180.187 179.444 
179.145 184.967 184.408 184.128 183.555 183.33 182.729 182.442 181.715 
181.349 180.602 180.257 179.543 179.194 185.639 185.217 184.91 184.379 
184.05 183.573 183.261 182.73 182.336 181.682 181.264 180.586 180.211 
179.532 179.173 186.001 185.786 185.523 185.07 184.64 184.151 183.74 
183.326 182.948 182.488 182.08 181.51 181.105 180.483 180.108 179.477 
179.148 185.995 185.99 185.833 185.581 185.223 184.735 184.282 183.776 
183.385 182.971 182.637 182.206 181.84 181.31 180.912 180.333 179.962 
179.408 179.108 177.632 178.054 178.212 178.997 178.521 178.669 179.477 
179.646 180.471 179.035 179.194 180.032 180.166 181.043 181.178 181.953 
179.476 179.738 180.663 180.798 181.734 181.844 182.727 182.7 183.313 
179.659 180.098 181.092 181.395 182.362 182.566 183.492 183.543 184.221 
184.018 184.412 179.529 180.103 181.049 181.6 182.511 182.97 183.812 
184.13 184.766 184.807 185.167 184.975 185.218 179.201 179.806 180.649 
181.318 182.145 182.788 183.526 184.091 184.658 185.016 185.33 185.44 
185.621 185.591 185.762 178.811 179.39 180.165 180.819 181.596 182.253 
182.963 183.593 184.193 184.693 185.066 185.346 185.527 185.692 185.829 
185.93 186.023 178.411 178.963 179.689 180.312 181.045 181.675 182.36 
182.991 183.643 184.215 184.717 185.068 185.323 185.502 185.639 185.801 
185.89 186.011 185.994 176.874 175.835 176.651 177.25 174.709 175.549 
176.133 177.018 177.674 173.568 174.39 174.906 175.809 176.429 177.409 
178.097 172.396 173.235 173.686 174.534 175.027 176.018 176.649 177.748 
178.424 171.067 171.982 172.425 173.289 173.696 174.586 175.109 176.18 
176.849 177.994 178.607 169.69 170.586 171.045 171.969 172.422 173.285 
173.778 174.711 175.369 176.435 177.111 178.139 178.616 168.479 169.27 
169.743 170.622 171.164 172.04 172.594 173.469 174.111 175.077 175.773 
176.741 177.269 178.117 178.425 167.424 168.148 168.625 169.429 170.001 
170.857 171.457 172.319 172.924 173.841 174.47 175.435 175.965 176.831 
177.15 177.896 178.093 166.482 167.152 167.621 168.37 168.91 169.737 
170.322 171.187 171.752 172.627 173.153 174.078 174.559 175.48 175.828 
176.632 176.838 177.554 177.721 166.161 166.171 166.521 167.311 166.285 
166.596 167.357 167.722 168.572 166.318 166.694 167.417 167.769 168.594 
169.032 169.955 166.208 166.649 167.385 167.777 168.574 169.038 169.98 
170.459 171.391 166.228 166.568 167.336 167.712 168.526 168.995 169.946 
170.467 171.427 171.873 172.76 166.543 166.734 167.48 167.743 168.56 
168.967 169.922 170.432 171.406 171.881 172.78 173.213 174.087 166.916 
167.09 167.774 167.974 168.73 169.053 169.961 170.422 171.388 171.861 
172.763 173.206 174.066 174.514 175.333 167.196 167.394 168.047 168.253 
168.96 169.237 170.069 170.469 171.388 171.844 172.74 173.185 174.025 
174.463 175.252 175.674 176.376 167.509 167.666 168.332 168.516 169.225 
169.463 170.257 170.586 171.452 171.854 172.725 173.153 173.981 174.408 
175.177 175.583 176.282 176.652 177.281 167.967 169.038 168.583 168.792 
170.238 169.729 169.944 169.462 169.712 171.57 171.004 171.267 170.716 
170.99 170.468 170.776 173.038 172.424 172.701 172.11 172.407 171.837 
172.146 171.607 171.955 174.476 173.91 174.168 173.573 173.85 173.275 
173.578 173.019 173.344 172.819 173.186 175.794 175.299 175.594 175.029 
175.305 174.721 175.026 174.459 174.788 174.232 174.575 174.055 174.421 
177.089 176.619 176.985 176.454 176.78 176.195 176.519 175.935 176.282 
175.703 176.04 175.47 175.797 175.269 175.599 178.321 177.915 178.299 
177.838 178.186 177.658 177.98 177.425 177.755 177.196 177.517 176.94 
177.232 176.66 176.939 176.406 176.683 179.344 179.054 179.417 179.068 
179.4 178.979 179.279 178.807 179.097 178.6 178.877 178.354 178.61 
178.066 178.313 177.759 177.997 177.455 177.682 178.4 178.773 178.948 
179.686 179.091 179.312 180.072 180.27 181.007 179.365 179.599 180.345 
180.597 181.362 181.573 182.297 179.642 179.874 180.623 180.86 181.656 
181.905 182.719 182.899 183.614 179.877 180.145 180.92 181.167 181.958 
182.21 183.034 183.293 184.049 184.19 184.721 180.024 180.333 181.092 
181.411 182.155 182.455 183.169 183.495 184.176 184.47 184.967 185.076 
185.327 180.098 180.422 181.122 181.483 182.17 182.523 183.151 183.497 
184.105 184.458 184.976 185.191 185.474 185.501 185.633 180.077 180.426 
181.068 181.439 182.073 182.443 183.04 183.396 184.004 184.368 184.957 
185.213 185.586 185.633 185.771 185.745 185.84 179.951 180.321 180.912 
181.31 181.892 182.284 182.825 183.212 183.77 184.207 184.795 185.182 
185.579 185.728 185.81 185.807 185.776 185.836 185.869 156.637 157.401 
156.814 156.617 158.4 157.695 157.321 156.83 156.814 159.394 158.713 
158.334 157.646 157.466 157.123 157.407 160.469 159.776 159.609 158.849 
158.792 158.097 158.334 157.987 158.581 161.805 161.041 161.046 160.307 
160.462 159.708 160.007 159.329 159.839 159.438 160.161 163.269 162.525 
162.543 161.828 161.97 161.343 161.612 161.03 161.409 160.896 161.423 
161.089 161.747 164.61 163.981 164.029 163.335 163.393 162.743 162.903 
162.4 162.724 162.315 162.753 162.374 162.875 162.582 163.119 165.795 
165.262 165.39 164.785 164.883 164.184 164.305 163.675 163.997 163.55 
164.057 163.669 164.177 163.761 164.212 163.863 164.314 166.888 166.406 
166.558 166.074 166.235 165.648 165.782 165.139 165.394 164.883 165.357 
164.978 165.498 165.084 165.496 165.039 165.403 165.027 165.434 156.342 
156.371 156.273 156.355 156.787 156.559 156.73 156.625 157.072 157.531 
157.221 157.565 157.303 157.743 157.617 158.241 158.619 158.149 158.53 
158.256 158.703 158.452 158.94 158.854 159.493 160.086 159.4 159.649 
159.248 159.653 159.381 159.808 159.618 160.155 160.116 160.78 161.675 
160.942 161.096 160.488 160.802 160.367 160.795 160.506 161.04 160.879 
161.511 161.451 162.115 163.046 162.437 162.582 161.975 162.221 161.657 
162.032 161.604 162.126 161.85 162.442 162.263 162.845 162.757 163.328 
164.207 163.684 163.83 163.337 163.566 163.058 163.35 162.888 163.302 
162.968 163.468 163.218 163.696 163.502 163.964 163.877 164.37 165.322 
164.809 164.958 164.502 164.742 164.298 164.561 164.121 164.431 164.073 
164.467 164.196 164.604 164.354 164.744 164.547 164.98 164.889 165.371 
156.483 156.527 156.586 157.074 157.213 156.937 157.37 157.448 158.105 
158.36 157.876 158.212 157.982 158.496 158.541 159.144 159.608 159.088 
159.359 158.967 159.353 159.113 159.596 159.583 160.189 160.867 160.318 
160.543 160.104 160.449 160.091 160.536 160.281 160.855 160.777 161.456 
162.186 161.609 161.817 161.301 161.646 161.234 161.719 161.38 161.94 
161.67 162.266 162.13 162.78 163.419 162.919 163.154 162.629 162.968 
162.5 162.987 162.618 163.182 162.844 163.376 163.069 163.623 163.47 
164.18 164.478 164.077 164.338 163.915 164.237 163.815 164.232 163.871 
164.382 164.062 164.588 164.24 164.777 164.466 165.141 165.008 165.884 
165.466 165.092 165.354 165 165.31 164.969 165.337 165.021 165.463 
165.184 165.694 165.418 165.983 165.689 166.344 166.107 166.903 166.813 
167.706 176.416 175.385 175.739 175.382 174.257 174.652 174.272 174.647 
174.26 173.016 173.444 173.025 173.458 173.05 173.477 173.104 171.729 
172.153 171.698 172.142 171.709 172.183 171.793 172.285 171.909 170.449 
170.861 170.404 170.818 170.371 170.818 170.413 170.913 170.525 171.029 
170.6 169.179 169.578 169.118 169.533 169.067 169.491 169.056 169.531 
169.14 169.635 169.225 169.686 169.257 167.969 168.315 167.825 168.229 
167.741 168.165 167.683 168.15 167.73 168.246 167.859 168.344 167.944 
168.395 168.037 166.885 167.144 166.626 166.961 166.481 166.856 166.381 
166.783 166.345 166.825 166.455 166.974 166.613 167.098 166.742 167.229 
166.948 165.976 166.136 165.622 165.853 165.408 165.7 165.286 165.59 
165.179 165.531 165.176 165.621 165.315 165.789 165.479 165.947 165.666 
166.179 165.985 
POINT_DATA 1002
SCALARS Distance double
LOOKUP_TABLE default
168.378 167.369 167.202 168.344 167.087 169.521 168.301 166.989 169.553 
170.745 168.279 166.962 169.593 170.872 172.152 168.403 167.106 169.734 
171.078 172.429 173.661 168.709 167.431 170.031 171.367 172.714 173.953 
175.006 169.125 167.916 170.405 171.689 172.968 174.186 175.26 176.251 
169.592 168.513 170.776 172.015 173.233 174.443 175.575 176.588 177.538 
170.032 169.063 171.116 172.326 173.533 174.729 175.933 176.998 177.895 
178.698 170.366 169.431 171.411 172.611 173.844 175.01 176.181 177.292 
178.19 178.927 179.6 166.294 166.016 165.171 164.832 163.966 165.829 
163.581 162.562 164.597 165.699 162.173 161.124 163.325 164.451 165.682 
160.911 160.016 162.026 163.259 164.48 165.856 159.939 159.125 160.865 
162.123 163.421 164.692 166.231 158.904 158.104 159.72 160.943 162.399 
163.678 165.095 166.843 157.813 157.09 158.608 159.767 161.315 162.755 
164.121 165.814 167.602 157.108 156.481 157.929 159.013 160.441 161.941 
163.365 164.965 166.71 168.237 156.765 157.586 157.671 158.67 158.759 
158.665 159.735 159.699 159.845 159.945 160.632 160.8 160.814 161.047 
161.358 161.765 162.111 161.733 162.031 162.459 162.882 163.137 163.411 
163.036 163.254 163.79 164.276 164.594 164.737 164.953 164.704 164.851 
165.279 165.768 166.066 166.324 166.638 166.808 166.613 166.643 166.767 
166.969 167.149 167.39 167.786 168.508 168.572 168.485 168.391 168.216 
168.052 167.968 168.084 168.469 168.982 170.3 169.848 171.44 169.361 
171.144 172.921 169.043 170.809 172.795 174.401 169.028 170.51 172.499 
174.284 175.643 169.278 170.408 172.075 173.928 175.459 176.633 169.679 
170.664 171.895 173.544 175.133 176.314 177.215 170.025 171.163 172.194 
173.515 174.974 176.059 176.754 177.47 170.146 171.526 172.662 173.792 
175.053 176.12 176.687 177.11 177.816 170.108 171.58 172.905 174.043 
175.124 176.216 176.981 177.334 177.731 178.417 171.421 172.779 172.686 
174.298 174.189 174.045 175.67 175.661 175.564 175.308 176.833 176.914 
176.924 176.747 176.457 177.693 177.934 178.026 177.993 177.794 177.565 
178.156 178.66 178.878 178.997 178.955 178.748 178.512 178.482 179.147 
179.513 179.75 179.931 179.842 179.564 179.271 178.927 179.556 180.002 
180.297 180.625 180.796 180.627 180.296 179.961 179.362 179.849 180.227 
180.686 181.049 180.364 181.76 182.196 181.29 180.774 183.214 183.561 
182.652 181.839 181.158 184.291 184.48 183.99 183.121 182.161 181.496 
184.619 184.844 184.631 184.11 183.092 182.283 181.557 184.848 185.149 
184.958 184.817 183.944 182.982 182.223 181.312 185.317 185.581 185.414 
185.476 184.814 183.726 182.823 181.95 180.937 185.736 185.931 185.764 
185.842 185.382 184.357 183.338 182.456 181.508 180.521 178.762 179.703 
179.259 180.115 179.612 180.551 180.419 179.806 180.976 181.429 180.668 
180.019 181.359 181.945 182.651 180.862 180.084 181.615 182.339 183.181 
184.034 180.772 179.829 181.657 182.435 183.385 184.475 184.983 180.413 
179.479 181.422 182.285 183.131 184.291 185.261 185.401 180.014 179.189 
181.003 181.961 182.727 183.592 184.704 185.507 185.67 179.618 178.851 
180.521 181.488 182.322 183.007 183.828 184.844 185.641 185.945 169.627 
171.113 170.685 172.236 171.882 172.652 173.578 173.263 173.869 174.047 
174.901 174.572 175.133 175.174 175.138 175.95 175.679 176.207 176.275 
176.189 176.206 176.884 176.717 177.119 177.343 177.342 177.306 177.257 
177.816 177.647 178.016 178.324 178.445 178.374 178.257 177.889 178.593 
178.339 178.821 179.15 179.336 179.233 179.079 178.806 178.255 167.739 
168.947 167.077 168.347 166.604 170.113 167.793 166.234 169.557 171.386 
167.345 165.94 169.054 170.904 172.821 167.063 165.749 168.727 170.534 
172.362 174.184 166.847 165.651 168.462 170.275 171.978 173.709 175.413 
166.69 165.637 168.123 169.903 171.647 173.268 174.976 176.543 166.683 
165.704 167.889 169.448 171.23 172.925 174.528 176.106 177.428 166.8 