# vtk DataFile Version 4.0
vtk output
ASCII
DATASET POLYDATA
POINTS 1002 float
-119.358 -114.44 50.375 -119.057 -113.41 49.3122 -118.645 -113.477 49.8475 
-119.017 -114.585 50.9756 -118.293 -113.637 50.4489 -119.673 -115.507 51.5652 
-118.665 -114.864 51.608 -117.923 -113.951 51.0641 -119.34 -115.821 52.208 
-119.954 -116.816 52.8355 -118.194 -115.311 52.2893 -117.486 -114.367 51.8322 
-118.908 -116.346 52.8711 -119.5 -117.429 53.4747 -120.177 -118.511 54.1263 
-117.688 -115.9 53.0896 -117.103 -114.91 52.7235 -118.362 -117.065 53.5622 
-118.954 -118.24 54.1148 -119.578 -119.328 54.7597 -120.363 -120.213 55.5156 
-117.349 -116.629 53.9452 -116.781 -115.679 53.5174 -117.924 -117.814 54.3891 
-118.467 -119.062 54.8713 -119.009 -120.147 55.4816 -119.744 -120.987 56.2673 
-120.511 -121.634 57.0765 -117.062 -117.467 54.8006 -116.38 -116.62 54.2374 
-117.683 -118.472 55.4071 -118.184 -119.653 55.9515 -118.617 -120.809 56.4993 
-119.208 -121.695 57.2203 -119.918 -122.385 58.0076 -120.516 -123.041 58.6587 
-116.654 -118.314 55.6622 -115.966 -117.531 55.0223 -117.363 -119.142 56.4328 
-117.925 -120.136 57.1471 -118.281 -121.35 57.7104 -118.716 -122.43 58.3111 
-119.329 -123.205 59.0142 -119.866 -123.898 59.617 -120.298 -124.57 60.0554 
-116.269 -119.056 56.5074 -115.693 -118.285 55.853 -116.885 -119.898 57.2958 
-117.468 -120.827 58.0728 -117.822 -122.019 58.6844 -118.101 -123.272 59.2243 
-118.621 -124.183 59.8496 -119.18 -124.852 60.4542 -119.562 -125.496 60.8918 
-119.934 -126.043 61.2033 -116.061 -119.673 57.3431 -115.55 -118.916 56.676 
-116.491 -120.62 58.0895 -116.937 -121.659 58.8212 -117.304 -122.832 59.4363 
-117.499 -124.097 59.9711 -117.831 -125.109 60.5518 -118.391 -125.79 61.155 
-118.85 -126.38 61.639 -119.168 -126.916 61.9625 -119.554 -127.299 62.1834 
-118.472 -112.405 48.5851 -118.026 -112.432 49.1989 -117.88 -111.379 47.9445 
-117.47 -111.378 48.6443 -117.324 -110.303 47.5216 -117.677 -112.63 49.8466 
-116.902 -110.342 48.2293 -116.682 -109.173 47.2114 -117.096 -111.619 49.3423 
-117.297 -113.019 50.5336 -116.138 -109.368 47.8791 -115.879 -108.196 46.874 
-116.364 -110.633 48.9363 -116.605 -112.092 50.0933 -116.873 -113.5 51.4258 
-115.325 -108.517 47.6665 -115.08 -107.341 46.7302 -115.536 -109.744 48.6657 
-115.75 -111.174 49.7313 -116.103 -112.676 51.0133 -116.483 -114.112 52.3551 
-114.695 -107.684 47.7498 -114.515 -106.424 46.9416 -114.899 -109.008 48.6686 
-115.025 -110.37 49.5919 -115.25 -111.847 50.6513 -115.651 -113.374 51.9053 
-116.047 -114.97 53.1139 -114.222 -106.945 48.0479 -114.256 -105.718 47.3874 
-114.286 -108.365 48.8564 -114.39 -109.761 49.6766 -114.522 -111.105 50.5033 
-114.809 -112.609 51.5144 -115.203 -114.295 52.6934 -115.588 -116.002 53.8598 
-113.85 -106.514 48.5119 -114.15 -105.45 48.0605 -113.585 -107.812 49.088 
-113.532 -109.232 49.7544 -113.673 -110.539 50.4645 -114.004 -111.889 51.2818 
-114.455 -113.559 52.3386 -114.865 -115.38 53.5311 -115.259 -116.989 54.7003 
-113.532 -106.298 49.2238 -113.964 -105.399 48.985 -113.053 -107.351 49.4958 
-112.781 -108.673 49.9004 -112.788 -110.067 50.4998 -113.122 -111.345 51.2289 
-113.745 -112.793 52.1315 -114.297 -114.616 53.2493 -114.652 -116.421 54.4246 
-115.052 -117.827 55.5566 -113.322 -105.848 50.1735 -112.841 -106.701 50.2394 
-112.638 -106.237 51.3567 -112.493 -107.18 51.3981 -112.441 -106.936 52.6485 
-112.515 -107.854 50.3745 -112.559 -108.23 53.0442 -112.595 -108.162 54.2487 
-112.461 -108.713 51.7668 -112.358 -109.428 50.8396 -112.484 -109.626 54.9494 
-112.623 -109.404 55.837 -112.48 -110.083 53.7702 -112.338 -110.591 52.4848 
-112.45 -110.967 51.556 -112.594 -110.61 56.2239 -112.942 -110.334 56.8558 
-112.54 -111.209 55.3772 -112.597 -111.76 54.2961 -112.7 -112.005 53.1225 
-113.098 -112.278 52.3402 -113.694 -111.617 56.6497 -114.117 -111.602 57.1567 
-113.474 -112.034 55.9675 -113.48 -112.595 55.2825 -113.572 -112.931 54.5092 
-113.663 -113.298 53.736 -113.901 -113.95 53.3079 -115.245 -113.49 56.768 
-115.637 -113.592 57.06 -114.934 -113.604 56.2855 -114.72 -113.908 55.8285 
-114.59 -114.21 55.4627 -114.348 -114.622 55.0427 -114.138 -115.321 54.6486 
-114.262 -116.012 54.4589 -116.285 -115.733 57.1143 -116.708 -115.694 57.1976 
-115.836 -115.791 56.966 -115.37 -115.892 56.7729 -114.987 -116.066 56.5754 
-114.562 -116.407 56.3299 -114.119 -116.968 56.0224 -114.084 -117.493 55.7705 
-114.512 -117.746 55.6336 -116.715 -117.485 57.9717 -117.175 -117.326 57.9536 
-116.139 -117.59 58.038 -115.48 -117.627 58.0843 -114.911 -117.709 58.0091 
-114.449 -117.998 57.7782 -114.022 -118.484 57.465 -113.932 -118.888 57.1782 
-114.387 -118.995 56.9681 -115.041 -118.933 56.8106 -115.803 -120.005 58.0062 
-115.294 -120.073 58.2449 -115.956 -121.388 59.5694 -114.58 -120.188 58.4626 
-115.459 -121.477 59.867 -115.745 -123.098 61.1245 -114.105 -120.07 58.6962 
-114.785 -121.516 60.076 -115.179 -123.223 61.3733 -115.173 -124.868 62.524 
-114.186 -119.604 59.0187 -114.421 -121.264 60.3245 -114.568 -123.209 61.6062 
-114.563 -125.022 62.8584 -114.663 -126.328 64.2251 -114.571 -119.109 59.3794 
-114.595 -120.761 60.712 -114.382 -122.939 62.0098 -114.038 -124.999 63.3224 
-114.122 -126.414 64.8781 -114.335 -127.435 66.4623 -115.076 -118.901 59.5818 
-115.018 -120.359 61.0651 -114.721 -122.507 62.4932 -113.959 -124.707 63.9244 
-113.589 -126.277 65.4717 -113.717 -127.42 67.1055 -113.781 -128.453 68.3558 
-115.75 -118.897 59.5469 -115.528 -120.219 61.1673 -115.235 -122.127 62.724 
-114.373 -124.213 64.3702 -113.457 -125.831 66.0091 -113.072 -127.134 67.4672 
-112.979 -128.362 68.6185 -112.917 -129.458 69.3743 -116.459 -118.862 59.4005 
-116.138 -120.176 61.0655 -115.763 -121.864 62.639 -114.987 -123.73 64.3595 
-113.909 -125.279 66.2583 -113.034 -126.623 67.8229 -112.526 -127.958 68.8582 
-112.244 -129.19 69.5955 -112.122 -130.254 70.192 -117.034 -118.724 59.2684 
-116.751 -120.083 60.8782 -116.35 -121.649 62.4051 -115.652 -123.336 64.0186 
-114.668 -124.837 65.9928 -113.69 -126.203 67.8718 -112.92 -127.518 69.1425 
-112.344 -128.669 69.9932 -111.9 -129.711 70.7306 -111.646 -130.723 71.3294 
-116.207 -121.008 58.8044 -116.145 -122.683 60.4459 -116.466 -122.238 59.5833 
-115.759 -124.489 62.0321 -116.285 -124.048 61.2607 -116.79 -123.51 60.2776 
-115.208 -126.1 63.5851 -115.907 -125.723 62.9541 -116.584 -125.277 62.0541 
-117.051 -124.767 60.9106 -114.745 -127.411 65.5793 -115.346 -127.216 64.6634 
-116.207 -126.786 63.9181 -116.843 -126.32 62.8608 -117.252 -125.833 61.5514 
-114.281 -128.534 67.7576 -114.746 -128.534 66.6332 -115.573 -128.243 65.6537 
-116.513 -127.655 64.831 -117.13 -127.12 63.5698 -117.686 -126.586 62.1644 
-113.593 -129.611 69.2039 -114.193 -129.616 68.4781 -114.918 -129.478 67.3957 
-115.941 -128.999 66.4662 -116.881 -128.349 65.4426 -117.553 -127.819 64.0175 
-118.192 -127.226 62.6367 -112.754 -130.616 70.0432 -113.588 -130.619 69.7084 
-114.41 -130.426 68.9503 -115.346 -130.098 67.9178 -116.392 -129.576 66.8655 
-117.262 -129.02 65.65 -117.926 -128.495 64.2298 -118.547 -127.808 62.9409 
-112.023 -131.364 71.0013 -112.901 -131.566 70.6311 -113.919 -131.357 70.0931 
-114.868 -131.02 69.1771 -115.855 -130.632 68.0163 -116.835 -130.13 66.8727 
-117.629 -129.579 65.6604 -118.281 -128.971 64.3281 -118.914 -128.206 63.1206 
-111.491 -131.523 72.3545 -112.079 -132.184 71.7866 -111.849 -132.173 72.9259 
-112.753 -132.69 72.1788 -113.103 -132.411 72.8735 -113.207 -132.277 71.1526 
-114.082 -132.805 72.1854 -114.871 -132.338 72.6725 -113.951 -132.727 71.3634 
-114.351 -131.998 70.326 -115.551 -132.801 72.0458 -116.391 -132.266 72.3593 
-114.978 -132.959 71.3199 -114.978 -132.571 70.2449 -115.365 -131.66 69.1076 
-117.04 -132.703 71.4847 -117.714 -132.085 71.5183 -116.274 -132.986 70.971 
-115.878 -132.9 69.9374 -116.036 -132.243 68.8024 -116.433 -131.186 67.8134 
-118.692 -132.329 70.5734 -119.022 -131.669 70.5867 -118.108 -132.704 70.1914 
-117.42 -132.77 69.3349 -117.131 -132.39 68.3798 -117.246 -131.513 67.5427 
-117.442 -130.508 66.673 -120.026 -131.817 69.8609 -120.114 -131.147 69.9776 
-119.89 -132.289 69.4299 -119.368 -132.388 68.6196 -118.723 -132.088 67.8059 
-118.391 -131.427 67.1501 -118.299 -130.593 66.389 -118.255 -129.789 65.4057 
-120.994 -131.192 69.1745 -121.162 -130.516 69.2809 -120.988 -131.786 68.8056 
-120.783 -131.979 68.0697 -120.232 -131.68 67.2567 -119.664 -131.137 66.5912 
-119.332 -130.502 65.8839 -119.129 -129.795 64.9995 -118.971 -129.04 64.0392 
-122.069 -130.364 68.2278 -122.345 -129.76 68.3194 -121.897 -130.987 67.9828 
-121.682 -131.323 67.4357 -121.291 -131.16 66.7008 -120.788 -130.756 65.9853 
-120.356 -130.341 65.2588 -120.069 -129.766 64.4647 -119.852 -128.993 63.6687 
-119.665 -128.159 62.9061 -111.724 -130.294 72.3103 -111.656 -130.994 73.322 
-112.418 -129.721 72.9366 -112.536 -130.23 73.6529 -113.413 -129.153 72.8557 
-112.325 -131.554 73.5224 -113.805 -129.321 73.4077 -114.4 -128.492 72.4685 
-113.581 -130.643 73.5587 -114.019 -131.688 73.2019 -115.077 -128.305 73.1055 
-115.424 -127.827 71.9528 -115.126 -129.554 73.3964 -115.416 -130.741 73.3408 
-115.876 -131.555 73.0028 -116.239 -127.543 72.4404 -116.559 -127.445 70.8041 
-116.427 -128.473 73.0907 -116.739 -129.786 73.2678 -116.921 -130.647 73.1732 
-117.19 -131.412 72.4498 -117.358 -127.221 70.9931 -117.718 -127.117 69.1507 
-117.42 -127.665 72.1702 -117.718 -128.885 72.6205 -117.866 -129.864 72.7945 
-118.002 -130.469 72.3093 -118.384 -131.158 71.3358 -118.494 -126.906 69.2614 
-118.805 -126.404 67.6658 -118.375 -127.131 70.7325 -118.518 -127.935 71.5101 
-118.745 -129.008 71.8422 -118.973 -129.644 71.7923 -119.254 -130.188 71.1842 
-119.614 -130.771 70.4912 -119.559 -126.207 67.733 -119.722 -125.332 66.5292 
-119.396 -126.635 69.1572 -119.354 -127.081 70.2494 -119.551 -127.918 70.7596 
-119.939 -128.689 70.9603 -120.318 -129.245 70.8675 -120.554 -129.819 70.4505 
-120.775 -130.276 69.8968 -120.414 -125.149 66.488 -120.411 -124.175 65.6133 
-120.354 -125.908 67.6276 -120.256 -126.408 68.8024 -120.328 -126.97 69.5659 
[...]
CELL_DATA 2000
SCALARS Distance double
LOOKUP_TABLE default
171.033 171.029 171.444 172.297 171.131 171.513 172.41 172.778 173.671 
171.305 171.662 172.598 172.964 173.91 174.249 175.23 171.595 171.888 
172.861 173.215 174.225 174.554 175.563 175.9 176.926 172.073 172.283 
173.287 173.573 174.638 174.937 175.97 176.267 177.283 177.604 178.571 
172.66 172.849 173.873 174.101 175.174 175.426 176.474 176.72 177.724 
177.99 178.962 179.222 180.109 173.24 173.446 174.463 174.7 175.74 
175.987 177.012 177.248 178.243 178.474 179.441 179.663 180.564 180.75 
181.548 173.804 174.003 174.983 175.236 176.241 176.508 177.501 177.759 
178.732 178.98 179.93 180.16 181.045 181.226 182.003 182.139 182.815 
174.385 174.557 175.501 175.728 176.715 176.974 177.964 178.224 179.181 
179.431 180.342 180.592 181.442 181.665 182.413 182.57 183.206 183.315 
183.869 170.208 168.922 169.743 170.153 167.68 168.47 168.881 169.744 
170.237 166.45 167.253 167.663 168.501 169.007 169.881 170.417 165.167 
166.003 166.415 167.272 167.769 168.666 169.236 170.114 170.708 163.952 
164.751 165.182 166.009 166.496 167.399 167.995 168.935 169.581 170.477 
171.153 162.933 163.648 164.157 164.892 165.417 166.194 166.789 167.686 
168.369 169.324 170.035 170.968 171.699 162.209 162.774 163.33 163.999 
164.573 165.257 165.814 166.569 167.209 168.11 168.852 169.821 170.595 
171.539 172.294 161.886 162.226 162.693 163.232 163.743 164.415 164.915 
165.63 166.175 166.998 167.716 168.667 169.506 170.465 171.291 172.176 
172.923 161.856 162.024 162.326 162.655 163.02 163.57 164.026 164.699 
165.224 165.984 166.672 167.58 168.457 169.432 170.336 171.236 172.042 
172.844 173.554 161.962 162.11 162.111 162.307 162.548 162.336 162.559 
162.53 162.914 163.686 163.143 163.443 163.071 163.476 163.349 163.912 
165.111 164.533 164.876 164.329 164.739 164.259 164.734 164.515 165.153 
166.337 165.866 166.193 165.782 166.207 165.713 166.12 165.622 166.153 
165.905 166.663 167.818 167.154 167.549 167.059 167.592 167.153 167.672 
167.133 167.655 167.174 167.897 167.635 168.521 169.935 169.019 169.546 
168.74 169.386 168.727 169.405 168.788 169.407 168.812 169.487 169.053 
169.871 169.601 170.441 172.19 171.327 171.848 170.984 171.545 170.753 
171.345 170.654 171.231 170.6 171.174 170.655 171.321 170.97 171.705 
171.445 172.146 174.039 173.394 173.782 173.099 173.45 172.761 173.1 
172.475 172.856 172.302 172.732 172.235 172.75 172.355 172.975 172.676 
173.325 173.055 173.66 174.582 174.307 174.959 176.019 173.989 174.672 
175.79 176.484 177.592 173.744 174.363 175.468 176.212 177.36 178.046 
179.062 173.669 174.166 175.204 175.887 177.032 177.761 178.835 179.45 
180.385 173.76 174.143 175.13 175.694 176.836 177.491 178.611 179.226 
180.251 180.795 181.73 174.023 174.303 175.269 175.714 176.873 177.433 
178.571 179.095 180.104 180.645 181.589 182.131 182.953 174.412 174.646 
175.587 175.931 177.055 177.554 178.678 179.138 180.051 180.493 181.296 
181.85 182.592 183.153 183.742 174.772 175.051 175.972 176.275 177.301 
177.739 178.791 179.233 180.093 180.451 181.145 181.548 182.199 182.689 
183.262 183.755 184.219 175.015 175.36 176.275 176.608 177.554 177.944 
178.898 179.307 180.148 180.492 181.213 181.507 182.175 182.464 183.069 
183.376 183.893 184.243 184.7 175.031 176.491 175.881 176.18 178.079 
177.444 177.75 177.095 177.404 179.551 179.023 179.371 178.733 179.042 
178.367 178.668 180.854 180.408 180.81 180.301 180.66 180.039 180.329 
179.633 179.886 182.174 181.708 182.108 181.655 182.063 181.577 181.902 
181.275 181.489 180.796 181.002 183.407 183.028 183.389 182.934 183.308 
182.889 183.255 182.754 182.986 182.348 182.509 181.857 182.047 184.231 
184.095 184.465 184.137 184.443 184.069 184.405 184.011 184.284 183.761 
183.923 183.311 183.454 182.844 182.987 184.711 184.735 185.184 185.049 
185.374 185.096 185.377 185.06 185.324 184.943 185.127 184.631 184.744 
184.18 184.266 183.684 183.746 185.146 185.181 185.7 185.678 186.093 
185.924 186.212 185.943 186.173 185.871 186.062 185.699 185.815 185.357 
185.407 184.88 184.896 184.345 184.359 185.593 186.482 186.08 186.152 
187.381 186.984 187.053 186.623 186.585 188.285 187.88 187.931 187.501 
187.427 186.94 186.737 189.127 188.763 188.758 188.332 188.215 187.739 
187.496 186.98 186.685 189.711 189.502 189.471 189.091 188.917 188.467 
188.205 187.709 187.387 186.879 186.557 190.034 189.975 190.034 189.739 
189.568 189.126 188.846 188.374 188.043 187.55 187.183 186.697 186.318 
190.199 190.247 190.429 190.275 190.192 189.779 189.476 188.985 188.613 
188.142 187.731 187.264 186.824 186.363 185.911 190.201 190.33 190.518 
190.569 190.55 190.327 189.999 189.562 189.095 188.638 188.173 187.738 
187.264 186.817 186.329 185.882 185.395 190.083 190.225 190.332 190.497 
190.466 190.468 190.14 189.894 189.37 189.008 188.494 188.116 187.64 
187.225 186.733 186.284 185.784 185.341 184.856 185.45 185.614 185.773 
186.317 185.801 185.936 186.421 186.642 187.203 185.872 186.05 186.52 
186.755 187.332 187.559 188.142 185.849 186.049 186.561 186.853 187.498 
187.742 188.345 188.519 189.025 185.821 186.007 186.508 186.862 187.562 
187.907 188.496 188.691 189.094 189.255 189.565 185.758 185.962 186.366 
186.726 187.36 187.843 188.419 188.727 189.021 189.192 189.378 189.59 
189.795 185.558 185.849 186.188 186.501 186.971 187.471 188.01 188.475 
188.804 189.041 189.2 189.366 189.543 189.76 189.95 185.144 185.569 
185.928 186.256 186.6 187.003 187.431 187.939 188.339 188.738 189 
189.224 189.429 189.581 189.762 189.914 190.034 184.538 185.064 185.461 
185.9 186.225 186.597 186.921 187.354 187.723 188.201 188.537 188.936 
189.194 189.462 189.642 189.79 189.882 189.974 190 175.414 176.466 
176.208 176.724 177.594 177.324 177.907 177.565 178.062 178.796 178.51 
179.123 178.79 179.299 178.914 179.359 180.015 179.72 180.284 179.974 
180.451 180.109 180.524 180.159 180.539 181.112 180.862 181.347 181.064 
181.515 181.212 181.672 181.325 181.752 181.33 181.66 182.009 181.838 
182.323 182.083 182.574 182.29 182.835 182.52 183.061 182.639 183.021 
182.463 182.685 182.759 182.658 183.208 183.045 183.609 183.379 183.937 
183.678 184.209 183.907 184.295 183.831 183.994 183.405 183.5 183.432 
183.389 183.981 183.903 184.472 184.342 184.813 184.639 185.001 184.83 
185.103 184.87 184.998 184.584 184.596 184.1 184.186 184.03 184.043 
184.63 184.612 185.113 185.053 185.405 185.296 185.508 185.386 185.541 
185.429 185.56 185.361 185.424 185.072 185.126 184.736 184.9 174.731 
173.978 174.843 175.784 173.176 174.11 175.109 175.918 176.87 172.263 
173.307 174.377 175.246 176.223 177.038 178.049 171.219 172.343 173.524 
174.515 175.569 176.409 177.463 178.289 179.33 170.25 171.293 172.554 
173.663 174.87 175.785 176.88 177.718 178.811 179.598 180.532 169.582 
170.41 171.636 172.736 174.072 175.098 176.255 177.121 178.188 179.04 
180.032 180.738 181.489 169.27 169.867 170.976 171.917 173.259 174.314 
175.534 176.449 177.487 178.358 179.358 180.179 181.02 181.623 182.245 
169.236 169.663 170.668 171.384 172.635 173.569 174.8 175.711 176.762 
177.623 178.619 179.481 180.396 181.113 181.807 182.335 182.893 169.363 
169.701 170.636 171.175 172.303 173.046 174.201 175.021 176.064 176.894 
177.883 178.747 179.696 180.482 181.246 181.854 182.435 182.945 183.47 
169.736 170.825 170.501 171.063 172.092 171.717 172.321 171.991 172.691 
173.42 173.037 173.616 173.274 173.928 173.675 174.442 174.738 174.37 
174.931 174.56 175.151 174.862 175.565 175.398 176.201 176.048 175.696 
176.311 175.915 176.523 176.13 176.821 176.545 177.364 177.186 178.038 
177.329 177.005 177.666 177.325 178.012 177.606 178.331 177.939 178.754 
178.455 179.307 179.068 179.862 178.556 178.259 178.917 178.65 179.376 
179.079 179.832 179.49 180.255 179.911 180.652 180.347 181.021 180.775 
181.373 179.746 179.469 180.149 179.896 180.633 180.382 181.115 180.862 
181.566 181.301 181.928 181.623 182.153 181.856 182.337 182.1 182.553 
180.883 180.648 181.359 181.137 181.89 181.64 182.333 182.06 182.68 
182.439 183.003 182.757 183.23 182.931 183.346 183.048 183.466 183.208 
183.615 181.714 183.184 182.371 182.252 184.706 183.864 183.768 182.968 
182.828 186.286 185.369 185.208 184.449 184.323 183.502 183.257 187.806 
186.921 186.64 185.844 185.684 184.922 184.665 183.822 183.518 188.849 
188.268 187.946 187.202 186.949 186.226 185.969 185.171 184.844 184.036 
183.761 189.311 189.058 188.815 188.284 187.951 187.36 187.073 186.405 
186.087 185.324 185.006 184.251 183.966 189.551 189.43 189.315 188.953 
188.638 188.167 187.856 187.353 187.054 186.455 186.133 185.447 185.126 
184.399 184.078 189.759 189.683 189.662 189.414 189.204 188.789 188.501 
188.038 187.744 187.262 186.959 186.429 186.126 185.509 185.194 184.489 
184.174 189.911 189.86 189.856 189.733 189.611 189.33 189.092 188.678 
188.379 187.909 187.588 187.12 186.823 186.359 186.085 185.536 185.236 
184.579 184.277 181.694 182.097 182.339 183.171 182.296 182.743 183.756 
183.943 184.798 182.181 182.827 184.105 184.588 185.711 185.733 186.559 
182.147 182.663 184.025 184.822 186.255 186.659 187.634 187.511 188.123 
182.549 182.787 183.996 184.719 186.215 186.952 187.978 188.255 188.707 
188.699 188.963 182.904 183.213 184.293 184.839 186.202 186.852 187.781 
188.168 188.427 188.689 188.773 189.056 189.195 182.735 183.308 184.359 
185.034 186.287 186.906 187.77 187.993 188.17 188.217 188.241 188.537 
188.768 189.144 189.382 182.353 182.977 183.97 184.779 185.91 186.741 
187.61 188.02 188.299 188.227 188.282 188.25 188.553 188.775 189.181 
189.412 189.657 182.084 182.626 183.512 184.232 185.174 186.042 186.848 
187.585 188.035 188.341 188.525 188.538 188.803 188.848 189.242 189.353 
189.664 189.738 189.891 180.871 179.722 180.599 181.182 178.438 179.36 
179.841 180.785 181.254 176.982 177.979 178.43 179.37 179.792 180.732 
181.129 175.399 176.468 176.981 177.946 178.449 179.356 179.901 180.734 
181.271 173.75 174.865 175.442 176.489 177.058 178.053 178.762 179.703 
180.457 181.192 181.832 172.1 173.191 173.771 174.906 175.495 176.6 
177.294 178.461 179.29 180.347 181.002 181.753 182.162 170.596 171.556 
172.085 173.209 173.838 174.988 175.663 176.864 177.627 178.886 179.547 
180.608 180.938 181.742 181.911 169.334 170.133 170.595 171.587 172.223 
173.35 174.081 175.244 175.999 177.18 177.862 178.97 179.408 180.316 
180.526 181.318 181.52 168.272 168.961 169.38 170.214 170.795 171.811 
172.535 173.678 174.456 175.613 176.331 177.398 177.952 178.854 179.215 
179.98 180.252 181 181.292 167.842 167.67 168.132 168.982 167.732 
168.088 168.974 169.406 170.385 167.995 168.261 169.138 169.497 170.497 
170.954 172.088 168.316 168.554 169.417 169.735 170.731 171.135 172.289 
172.785 174.01 168.635 168.853 169.724 170.049 171.084 171.448 172.592 
173.029 174.266 174.751 175.914 169.04 169.194 170.073 170.385 171.484 
171.859 173.012 173.382 174.555 175.001 176.151 176.58 177.55 169.569 
169.673 170.539 170.785 171.868 172.256 173.403 173.784 174.86 175.26 
176.31 176.755 177.702 178.069 178.832 170.157 170.254 171.102 171.283 
172.267 172.607 173.678 174.086 175.088 175.48 176.396 176.826 177.699 
178.13 178.898 179.233 179.888 170.751 170.851 171.665 171.819 172.697 
172.963 173.931 174.305 175.274 175.648 176.505 176.86 177.634 178.043 
178.796 179.219 179.93 180.265 180.92 171.355 172.587 172.056 172.267 
173.947 173.344 173.567 173.021 173.297 175.535 174.83 175.095 174.436 
174.751 174.159 174.526 177.248 176.528 176.824 176.097 176.432 175.746 
176.112 175.484 175.858 178.862 178.217 178.49 177.817 178.115 177.458 
177.78 177.121 177.403 176.768 177.041 180.369 179.772 180.048 179.411 
179.695 179.072 179.385 178.751 178.982 178.293 178.449 177.832 178.07 
181.794 181.254 181.578 180.968 181.3 180.664 181.035 180.379 180.677 
179.915 180.065 179.288 179.465 178.864 179.181 183.044 182.613 182.954 
182.459 182.794 182.246 182.606 182.032 182.379 181.68 181.896 181.043 
181.21 180.409 180.684 180.057 180.382 184.077 183.752 184.076 183.709 
184 183.58 183.846 183.42 183.703 183.236 183.477 182.835 183 
182.228 182.424 181.681 181.928 181.256 181.459 182.211 182.796 182.875 
183.634 183.332 183.457 184.226 184.324 185.143 183.832 183.967 184.683 
184.817 185.541 185.769 186.606 184.197 184.387 185.063 185.224 185.902 
186.084 186.828 187.122 187.815 184.369 184.622 185.309 185.56 186.294 
186.474 187.192 187.363 188.035 188.193 188.597 184.513 184.754 185.46 
185.762 186.554 186.834 187.547 187.724 188.314 188.454 188.913 188.899 
189.09 184.675 184.923 185.619 185.915 186.674 187.01 187.685 187.94 
188.441 188.638 189.062 189.197 189.497 189.403 189.51 184.733 185.042 
185.697 186.027 186.7 187.051 187.658 187.956 188.441 188.671 189.113 
189.306 189.691 189.746 189.939 189.797 189.84 184.692 185.025 185.631 
185.996 186.597 186.972 187.523 187.859 188.354 188.639 189.141 189.385 
189.86 189.972 190.25 190.162 190.213 190.033 190.011 161.514 161.432 
161.228 160.759 161.705 161.269 160.816 160.511 160.178 162.461 161.798 
161.417 160.871 160.642 160.254 160.276 163.526 162.75 162.397 161.727 
161.555 161.015 161.046 160.695 160.999 164.784 163.943 163.586 162.816 
162.627 162.035 162.065 161.615 161.834 161.57 162.019 166.157 165.328 
165.084 164.184 164.046 163.258 163.343 162.741 162.993 162.535 162.913 
162.662 163.212 167.475 166.755 166.692 165.85 165.857 164.952 165.108 
164.287 164.593 163.901 164.274 163.744 164.207 163.927 164.525 168.746 
168.089 168.113 167.437 167.518 166.78 166.926 166.159 166.4 165.655 
165.954 165.265 165.615 165.087 165.554 165.272 165.855 170.032 169.391 
169.416 168.795 168.852 168.25 168.336 167.75 167.895 167.312 167.516 
166.903 167.144 166.545 166.868 166.405 166.852 166.584 167.112 161.475 
160.719 161.149 161.24 160.089 160.382 160.568 160.996 161.288 160.172 
160.061 160.305 160.52 161.026 161.365 161.981 160.961 160.553 160.833 
160.696 161.294 161.409 162.171 162.403 163.156 162.05 161.563 161.864 
161.542 162.087 161.976 162.678 162.758 163.489 163.655 164.306 163.263 
162.744 163.05 162.658 163.121 162.872 163.443 163.36 163.996 164.044 
164.672 164.767 165.349 164.57 164.023 164.325 163.87 164.28 163.923 
164.418 164.187 164.775 164.668 165.299 165.254 165.859 165.858 166.431 
165.89 165.353 165.641 165.16 165.528 165.102 165.538 165.211 165.754 
165.551 166.17 166.026 166.621 166.499 167.046 166.979 167.506 167.13 
166.638 166.907 166.447 166.784 166.345 166.729 166.347 166.818 166.552 
167.11 166.932 167.482 167.316 167.811 167.664 168.148 168.057 168.558 
161.769 161.583 161.785 161.978 161.639 161.69 161.962 162.047 162.392 
162.274 162.01 162.332 162.232 162.692 162.766 163.465 163.366 162.906 
163.18 162.869 163.353 163.275 163.994 164.11 164.908 164.473 164.032 
164.228 163.836 164.199 164.026 164.655 164.7 165.427 165.519 166.193 
165.502 165.088 165.296 164.878 165.156 164.869 165.375 165.333 166.029 
166.078 166.797 166.82 167.628 166.555 166.135 166.395 165.97 166.281 
165.885 166.357 166.133 166.858 166.796 167.665 167.617 168.566 168.554 
169.661 167.596 167.193 167.453 167.075 167.415 167.046 167.531 167.237 
167.983 167.828 168.813 168.712 169.787 169.689 170.806 170.79 171.927 
168.639 168.228 168.487 168.116 168.471 168.149 168.664 168.414 169.171 
169.034 170.038 169.973 171.075 170.99 172.047 171.962 172.958 172.939 
173.847 180.371 179.249 179.638 179.261 178.055 178.47 178.075 178.476 
178.015 176.768 177.196 176.719 177.183 176.659 177.09 176.516 175.441 
175.835 175.266 175.722 175.122 175.596 174.956 175.445 174.842 174.138 
174.488 173.88 174.263 173.648 174.051 173.405 173.837 173.209 173.725 
173.166 172.808 173.158 172.521 172.894 172.279 172.649 172.034 172.386 
171.773 172.164 171.601 172.086 171.579 171.456 171.79 171.121 171.503 
170.875 171.278 170.665 171.05 170.445 170.815 170.249 170.644 170.142 
170.592 170.152 170.227 170.483 169.842 170.147 169.556 169.902 169.32 
169.68 169.091 169.471 168.92 169.328 168.841 169.261 168.838 169.28 
168.924 169.218 169.385 168.815 169.016 168.496 168.731 168.213 168.456 
167.904 168.18 167.651 168.011 167.56 167.982 167.59 168.025 167.679 
168.136 167.857 
POINT_DATA 1002
SCALARS Distance double
LOOKUP_TABLE default
171.86 170.663 170.577 171.897 170.615 173.134 172.028 170.751 173.306 
174.576 172.208 170.958 173.56 174.868 176.249 172.5 171.33 173.88 
175.237 176.587 177.944 173.022 171.87 174.342 175.696 176.981 178.285 
179.488 173.658 172.455 174.941 176.244 177.487 178.708 179.897 180.946 
174.229 173.039 175.505 176.779 178.017 179.231 180.389 181.409 182.293 
174.745 173.632 175.977 177.244 178.485 179.698 180.865 181.885 182.719 
183.438 175.296 174.23 176.466 177.705 178.947 180.116 181.218 182.248 
183.111 183.793 184.379 169.385 169.27 168.115 168.029 166.899 169.347 
166.832 165.621 168.13 169.545 165.559 164.323 166.855 168.325 169.84 
164.372 163.162 165.616 167.021 168.642 170.263 163.411 162.228 164.69 
165.949 167.399 169.068 170.774 162.685 161.716 163.898 165.134 166.363 
167.867 169.622 171.39 162.281 161.665 163.118 164.218 165.395 166.768 
168.515 170.384 172.1 162.131 161.777 162.57 163.376 164.488 165.79 
167.458 169.401 171.225 172.802 161.982 162.225 162.129 162.658 162.86 
162.798 163.915 164.287 163.76 163.875 165.403 165.647 165.317 165.148 
165.184 166.551 166.816 166.629 166.68 166.537 166.742 168.098 168.543 
167.999 168.15 168.185 168.244 168.706 170.418 170.846 170.126 170.035 
170.03 170.008 170.211 170.7 172.72 173.005 172.41 172.103 171.9 
171.767 171.753 172.004 172.415 174.46 174.654 174.17 173.774 173.429 
173.244 173.19 173.312 173.614 173.949 175.569 175.361 177.129 175.045 
176.966 178.685 174.734 176.627 178.491 180.015 174.577 176.304 178.17 
179.85 181.295 174.613 176.205 178.005 179.664 181.246 182.656 174.87 
176.327 178.094 179.624 181.03 182.496 183.713 175.298 176.599 178.245 
179.704 180.833 182.031 183.254 184.263 175.691 176.932 178.377 179.759 
180.825 181.784 182.785 183.749 184.646 175.933 177.206 178.529 179.793 
180.902 181.919 182.828 183.597 184.336 185.122 176.779 178.429 178.045 
179.958 179.73 179.356 181.256 181.22 181.036 180.599 182.578 182.494 
182.479 182.196 181.677 183.858 183.737 183.7 183.593 183.175 182.681 
184.719 184.822 184.777 184.744 184.52 184.081 183.606 185.226 185.609 
185.694 185.663 185.57 185.297 184.858 184.338 185.673 186.203 186.471 
186.474 186.386 186.233 185.919 185.446 184.908 185.986 186.584 186.878 
187.493 187.774 187.084 188.374 188.711 187.929 187.269 189.207 189.466 
188.696 188.022 187.2 189.837 189.835 189.373 188.688 187.908 187.056 
190.258 190.012 190.015 189.323 188.533 187.691 186.804 190.475 190.113 
190.559 190.008 189.106 188.206 187.3 186.37 190.406 190.089 190.677 
190.418 189.576 188.608 187.711 186.786 185.833 190.183 189.982 190.412 
190.312 189.693 188.845 188.033 187.18 186.237 185.285 185.246 186.09 
185.508 186.214 185.685 186.96 186.255 185.68 187.094 187.946 186.215 
185.654 187.217 188.191 188.904 186.154 185.659 187.157 188.317 188.983 
189.399 186.079 185.543 186.869 188.058 188.885 189.199 189.542 185.932 
185.203 186.559 187.489 188.486 189.044 189.363 189.73 185.576 184.656 
186.283 186.964 187.846 188.689 189.272 189.656 189.904 184.965 183.996 
185.847 186.549 187.255 188.072 188.853 189.461 189.813 189.934 175.658 
177.036 176.709 178.232 177.844 178.457 179.455 179.093 179.686 179.761 
180.616 180.339 180.786 180.887 180.932 181.638 181.366 181.797 181.972 
182.167 182.165 182.518 182.149 182.823 183.111 183.431 183.593 183.312 
183.312 182.821 183.802 184.209 184.499 184.702 184.594 184.079 184.038 
183.441 184.601 185.022 185.216 185.294 185.319 185.084 184.628 173.884 
174.99 173.062 174.282 172.187 176.06 173.454 171.152 175.4 177.215 
172.426 170.085 174.695 176.617 178.562 171.372 169.294 173.869 176.049 
177.981 179.896 170.568 168.886 172.971 175.379 177.34 179.247 180.957 
170.147 168.778 172.215 174.595 176.633 178.492 180.338 181.769 170.066 
168.864 171.792 173.899 175.908 177.749 179.619 181.236 182.42 170.174 
169.053 171.669 173.449 175.259 177.028 178.876 180.595 181.911 182.976 