# vtk DataFile Version 4.0
vtk output
ASCII
DATASET POLYDATA
POINTS 1002 float
-120.006 -115.865 49.8394 -119.9 -114.489 49.2016 -119.331 -114.818 49.4318 
-119.419 -116.243 50.2244 -118.738 -115.202 49.7935 -120.065 -117.266 50.8423 
-118.836 -116.619 50.8091 -118.23 -115.516 50.4344 -119.509 -117.671 51.4273 
-120.157 -118.628 52.231 -118.342 -116.994 51.6173 -117.796 -115.888 51.227 
-118.944 -118.114 52.1811 -119.598 -119.09 52.9743 -120.157 -119.913 53.8893 
-117.885 -117.539 52.5 -117.31 -116.523 52.0197 -118.387 -118.622 53.1041 
-118.957 -119.613 53.8741 -119.474 -120.49 54.7724 -119.954 -121.268 55.7266 
-117.379 -118.204 53.4788 -116.758 -117.317 52.8835 -117.859 -119.151 54.2026 
-118.314 -120.097 55.028 -118.752 -121.08 55.8436 -119.176 -122.04 56.6509 
-119.724 -122.883 57.4394 -116.811 -118.796 54.5919 -116.211 -118.046 53.8237 
-117.335 -119.613 55.4507 -117.75 -120.53 56.3211 -118.126 -121.633 57.0578 
-118.483 -122.79 57.6502 -118.953 -123.757 58.2526 -119.537 -124.523 58.8461 
-116.158 -119.397 55.6448 -115.654 -118.715 54.7872 -116.699 -120.17 56.5996 
-117.13 -121.099 57.4496 -117.475 -122.295 58.0892 -117.808 -123.563 58.5792 
-118.208 -124.542 59.0964 -118.715 -125.24 59.6922 -119.201 -125.835 60.2348 
-115.439 -120.113 56.5418 -115.051 -119.391 55.7701 -115.926 -120.959 57.4591 
-116.36 -121.911 58.2845 -116.677 -123.062 58.8679 -116.964 -124.316 59.3587 
-117.335 -125.262 59.9504 -117.818 -125.843 60.6326 -118.3 -126.35 61.2479 
-118.685 -126.862 61.7066 -114.771 -120.817 57.3266 -114.445 -120.037 56.6704 
-115.176 -121.755 58.1309 -115.565 -122.746 58.9459 -115.879 -123.758 59.5959 
-116.124 -124.84 60.1667 -116.405 -125.773 60.8447 -116.84 -126.374 61.5931 
-117.355 -126.842 62.24 -117.793 -127.341 62.7 -118.151 -127.788 63.0189 
-119.297 -113.249 48.7561 -118.688 -113.602 48.9576 -118.498 -111.979 48.1077 
-117.881 -112.317 48.4362 -117.669 -110.825 47.4075 -118.111 -114.016 49.3687 
-117.02 -111.131 47.9627 -116.916 -109.824 46.9398 -117.294 -112.823 48.957 
-117.602 -114.407 50.0305 -116.175 -110.115 47.5697 -116.129 -108.87 46.6016 
-116.334 -111.763 48.5176 -116.695 -113.426 49.5533 -117.08 -114.904 50.7705 
-115.364 -109.185 47.2519 -115.321 -107.945 46.342 -115.419 -110.789 48.1414 
-115.673 -112.542 49.0713 -116.104 -114.07 50.2576 -116.51 -115.655 51.5582 
-114.694 -108.353 47.2765 -114.745 -107.176 46.5377 -114.671 -109.844 48.0958 
-114.814 -111.625 48.9005 -115.144 -113.245 49.9112 -115.594 -114.837 51.1272 
-115.994 -116.559 52.4045 -114.222 -107.703 47.7364 -114.424 -106.607 47.2337 
-114.068 -109.034 48.4233 -114.112 -110.77 49.1201 -114.303 -112.438 49.8914 
-114.69 -113.984 50.8442 -115.223 -115.748 51.967 -115.577 -117.422 53.2941 
-113.817 -107.236 48.3541 -114.124 -106.204 48.0706 -113.531 -108.428 48.8531 
-113.476 -110.089 49.4439 -113.523 -111.816 50.0403 -113.739 -113.241 50.71 
-114.363 -114.846 51.6168 -114.982 -116.677 52.8685 -115.152 -118.201 54.34 
-113.375 -106.938 49.0079 -113.728 -105.967 48.8747 -113.031 -108.029 49.3293 
-112.913 -109.559 49.8081 -112.871 -111.33 50.3118 -112.873 -112.742 50.7837 
-113.393 -114.044 51.4307 -114.273 -115.768 52.5358 -114.715 -117.537 54.0092 
-114.616 -118.914 55.4617 -113.028 -106.507 49.7975 -112.647 -107.563 49.9842 
-112.349 -107.318 51.0296 -112.14 -108.548 51.3374 -111.974 -108.421 52.5412 
-112.456 -108.92 50.3669 -111.835 -109.75 52.9215 -111.75 -109.646 54.0795 
-112.027 -110.11 51.8059 -112.376 -110.7 50.8654 -111.499 -110.939 54.4517 
-111.48 -110.891 55.7024 -111.603 -111.285 53.357 -111.822 -111.832 52.2655 
-112.233 -112.336 51.2862 -111.549 -112.078 55.9171 -111.64 -112.083 57.3021 
-111.606 -112.327 54.6649 -111.706 -112.814 53.6454 -111.99 -113.231 52.5541 
-112.567 -113.574 51.7044 -112.499 -113.164 56.9033 -112.668 -113.143 57.9764 
-112.598 -113.364 55.6394 -112.649 -113.823 54.6934 -112.708 -114.248 53.8413 
-113.005 -114.603 53.0093 -113.585 -115.117 52.5746 -113.88 -114.313 57.0162 
-114.106 -114.3 57.5593 -113.96 -114.541 56.1839 -113.984 -115.01 55.5081 
-113.798 -115.447 54.9823 -113.672 -115.835 54.4212 -113.848 -116.388 54.0808 
-114.262 -117.028 54.0222 -114.912 -115.724 57.0321 -115.202 -115.786 57.2195 
-114.8 -115.961 56.659 -114.627 -116.425 56.3662 -114.188 -116.748 56.1715 
-113.668 -116.984 55.8115 -113.466 -117.506 55.5002 -113.7 -118.19 55.5038 
-114.152 -118.675 55.5549 -115.36 -117.297 57.7631 -115.688 -117.412 57.7293 
-115.056 -117.494 57.635 -114.64 -117.942 57.5128 -113.997 -118.177 57.5053 
-113.234 -118.153 57.3079 -112.734 -118.445 56.8694 -112.794 -119.127 56.664 
-113.288 -119.694 56.7537 -113.893 -119.947 56.7839 -114.089 -121.163 57.8262 
-113.47 -121.11 57.8717 -113.9 -122.419 59.1093 -112.777 -120.903 57.8106 
-113.321 -122.523 59.194 -113.615 -123.75 60.8084 -112.286 -120.332 57.9404 
-112.649 -122.507 59.3028 -112.983 -124.092 61.0661 -112.834 -125.1 62.703 
-112.384 -119.719 58.4655 -112.251 -122.007 59.7328 -112.257 -124.187 61.3536 
-111.963 -125.389 63.0181 -111.652 -126.322 64.141 -113.043 -119.618 58.9012 
-112.459 -121.397 60.3025 -111.946 -123.587 61.8383 -111.172 -125.213 63.3435 
-110.634 -126.222 64.4305 -110.516 -127.381 65.1554 -113.864 -119.678 58.9562 
-113.068 -121.221 60.4976 -112.271 -122.876 62.1977 -111.137 -124.481 63.8486 
-110.089 -125.771 64.8911 -109.661 -127.081 65.5772 -109.75 -128.418 66.3807 
-114.568 -119.346 59.0095 -113.754 -121.094 60.4951 -112.857 -122.625 62.1502 
-111.779 -123.97 64.1041 -110.576 -125.244 65.4843 -109.67 -126.701 66.119 
-109.366 -128.19 66.8766 -109.578 -129.297 67.9128 -115.095 -118.952 59.1203 
-114.415 -120.721 60.5903 -113.504 -122.463 61.9867 -112.515 -123.923 63.8218 
-111.523 -125.086 65.5947 -110.593 -126.412 66.4786 -109.953 -127.926 67.1323 
-109.79 -129.088 68.2271 -109.947 -129.773 69.3893 -115.499 -118.892 59.0315 
-114.985 -120.442 60.5488 -114.214 -122.152 61.8404 -113.272 -123.826 63.341 
-112.348 -125.105 65.1272 -111.581 -126.251 66.3492 -111.011 -127.633 67.0638 
-110.699 -128.841 68.1116 -110.573 -129.508 69.4881 -110.454 -129.924 70.6487 
-114.472 -122.126 58.6094 -114.172 -123.428 60.1533 -114.798 -123.204 59.4996 
-113.575 -124.753 62.0105 -114.298 -124.548 61.1545 -115.093 -124.242 60.3363 
-112.563 -126.245 63.649 -113.476 -126.044 62.878 -114.502 -125.644 62.0197 
-115.38 -125.213 61.0923 -111.431 -127.652 64.7745 -112.351 -127.685 64.2138 
-113.564 -127.242 63.5972 -114.773 -126.576 62.8711 -115.623 -126.129 61.8891 
-110.545 -128.74 65.965 -111.376 -128.896 65.4369 -112.446 -128.668 64.9168 
-113.852 -128.055 64.3815 -115.054 -127.405 63.6433 -115.955 -126.887 62.6617 
-110.112 -129.585 67.5673 -110.931 -129.68 67.0113 -111.841 -129.524 66.4511 
-113.005 -129.216 65.8169 -114.315 -128.796 65.0089 -115.465 -128.206 64.1558 
-116.455 -127.505 63.2575 -110.098 -130.137 69.2244 -110.8 -130.354 68.7007 
-111.765 -130.246 68.1325 -112.722 -129.997 67.5133 -113.718 -129.829 66.5396 
-114.843 -129.524 65.4203 -115.976 -128.87 64.5128 -116.963 -128.061 63.673 
-110.236 -130.391 70.6515 -110.601 -130.865 70.2122 -111.537 -131.02 69.5942 
-112.592 -130.808 69.0211 -113.429 -130.564 68.2186 -114.282 -130.379 67.0152 
-115.376 -129.981 65.8144 -116.487 -129.292 64.8649 -117.395 -128.505 63.9836 
-110.438 -130.33 71.9499 -110.242 -131.047 71.7793 -110.2 -131.03 73.2051 
-110.293 -131.867 72.8577 -110.466 -131.739 74.1598 -110.808 -131.611 71.1526 
-111.103 -132.38 73.5686 -111.662 -131.897 74.3112 -111.252 -132.276 71.9872 
-111.998 -131.68 70.3622 -112.608 -132.338 73.5613 -113.242 -131.619 73.7371 
-112.377 -132.607 72.4518 -112.64 -132.231 70.842 -113.122 -131.396 69.5628 
-114.201 -132.165 73.2109 -114.938 -131.606 73.2481 -113.845 -132.677 72.501 
-113.724 -132.68 70.9669 -113.781 -131.978 69.6699 -113.969 -131.076 68.5279 
-116.066 -132.302 72.8681 -116.947 -131.989 73.0027 -115.446 -132.636 72.305 
-115.082 -132.871 70.886 -114.868 -132.486 69.4962 -114.812 -131.533 68.5309 
-114.995 -130.689 67.2644 -118.144 -132.631 72.2396 -118.802 -132.24 72.5289 
-117.436 -132.703 71.6987 -116.761 -132.693 70.5742 -116.272 -132.526 69.2803 
-116.052 -131.82 68.3807 -116.051 -130.87 67.3932 -116.22 -130.097 66.0604 
-119.697 -132.689 71.3828 -120.047 -132.025 71.8399 -119.291 -132.881 70.7761 
-118.658 -132.6 69.9766 -117.891 -132.209 69.0398 -117.388 -131.704 68.2212 
-117.243 -130.917 67.3647 -117.23 -130.098 66.1995 -117.273 -129.347 64.9863 
-120.626 -132.246 70.6792 -120.932 -131.496 71.1993 -120.433 -132.722 70.0168 
-120.128 -132.609 69.3705 -119.465 -132.05 68.7228 -118.718 -131.427 68.0119 
-118.342 -130.762 67.1823 -118.244 -130.011 66.1472 -118.153 -129.287 65.0019 
-118.098 -128.567 63.9494 -111.087 -129.718 71.1651 -110.848 -130.013 72.7018 
-111.746 -129.495 71.6007 -111.366 -129.568 73.2849 -112.391 -129.245 71.8324 
-110.557 -130.573 74.0576 -112.201 -129.101 73.4077 -113.331 -129.083 71.4163 
-111.324 -129.803 74.589 -111.133 -131.023 74.8093 -113.589 -128.946 72.661 
-114.518 -129.002 70.3636 -112.741 -129.146 74.5319 -112.417 -130.01 75.1977 
-112.63 -130.965 74.592 -115.029 -128.906 71.3986 -115.469 -128.599 69.4016 
-114.566 -128.981 73.5905 -114.274 -129.376 75.113 -114.181 -130.09 75.0146 
-114.361 -130.86 73.9114 -115.986 -128.395 70.3122 -116.155 -127.749 68.7018 
-115.947 -128.739 72.1861 -115.973 -129.095 74.0454 -115.942 -129.65 74.9647 
-115.95 -130.373 74.4231 -116.271 -131.203 73.502 -116.721 -127.549 69.2854 
-116.901 -126.843 67.8058 -116.739 -128.061 70.8579 -116.907 -128.559 72.4002 
-117.107 -129.193 73.6558 -117.332 -129.945 74.1079 -117.695 -130.76 73.7299 
-118.216 -131.561 73.1532 -117.558 -126.77 68.078 -117.753 -126.071 66.7131 
-117.489 -127.353 69.5454 -117.527 -127.919 70.8703 -117.7 -128.559 71.8732 
-118.079 -129.267 72.6086 -118.642 -130.018 72.9831 -119.223 -130.761 72.9304 
-119.69 -131.446 72.5391 -118.434 -126.039 66.9128 -118.567 -125.322 65.7404 
-118.373 -126.714 68.2154 -118.34 -127.391 69.4903 -118.384 -128.041 70.4348 
[...]
CELL_DATA 2000
SCALARS Distance double
LOOKUP_TABLE default
172.282 172.215 172.658 173.505 172.222 172.635 173.52 173.947 174.843 
172.35 172.709 173.623 174.021 174.96 175.354 176.247 172.63 172.929 
173.862 174.198 175.15 175.515 176.429 176.767 177.616 173.017 173.281 
174.216 174.498 175.427 175.743 176.659 176.98 177.863 178.161 179.034 
173.418 173.679 174.589 174.862 175.764 176.047 176.965 177.262 178.184 
178.465 179.371 179.643 180.519 173.786 174.04 174.919 175.208 176.101 
176.385 177.304 177.602 178.545 178.832 179.731 179.99 180.819 181.077 
181.82 174.138 174.369 175.223 175.518 176.417 176.711 177.609 177.919 
178.823 179.152 180.003 180.295 181.044 181.309 181.979 182.232 182.819 
174.473 174.694 175.514 175.813 176.702 177.011 177.875 178.179 179.006 
179.341 180.123 180.456 181.151 181.446 182.069 182.337 182.907 183.136 
183.634 171.437 169.994 170.938 171.34 168.436 169.43 169.91 170.876 
171.338 166.98 167.893 168.394 169.417 169.969 170.924 171.45 165.661 
166.492 166.934 167.922 168.508 169.531 170.121 171.084 171.686 164.399 
165.189 165.592 166.506 167.071 168.085 168.714 169.727 170.38 171.376 
172.056 163.364 164.015 164.449 165.235 165.806 166.729 167.384 168.355 
169.052 170.064 170.811 171.807 172.508 162.739 163.188 163.619 164.228 
164.806 165.597 166.265 167.129 167.819 168.771 169.555 170.584 171.381 
172.309 172.966 162.395 162.712 163.061 163.52 164.042 164.719 165.371 
166.126 166.751 167.58 168.307 169.33 170.206 171.229 172.011 172.82 
173.408 162.153 162.398 162.668 163.015 163.463 164.03 164.668 165.332 
165.922 166.586 167.196 168.088 168.961 170.056 170.988 171.92 172.616 
173.296 173.806 162.137 162.4 162.347 162.633 163.103 162.802 163.11 
162.995 163.477 164.167 163.721 164.028 163.718 164.2 164.074 164.698 
165.298 164.822 165.074 164.726 165.117 164.9 165.39 165.313 165.874 
166.597 165.994 166.228 165.784 166.162 165.843 166.281 166.045 166.545 
166.451 167.109 168.179 167.463 167.775 167.143 167.643 167.106 167.694 
167.187 167.811 167.405 168.188 167.986 168.946 169.821 169.138 169.536 
168.888 169.477 168.863 169.525 168.892 169.542 168.968 169.728 169.354 
170.286 170.08 171.026 171.431 170.787 171.212 170.643 171.21 170.691 
171.235 170.682 171.089 170.581 171.029 170.749 171.404 171.314 172.056 
171.973 172.631 173.026 172.4 172.796 172.251 172.742 172.268 172.683 
172.167 172.355 171.828 171.971 171.678 172.067 172.072 172.668 172.741 
173.321 173.294 173.788 174.443 173.981 174.608 175.431 173.339 174.072 
174.997 175.73 176.696 172.723 173.399 174.437 175.302 176.446 177.108 
178 172.605 172.969 174.001 174.793 176.061 176.85 177.799 178.288 
178.887 173.057 173.165 174.075 174.548 175.729 176.451 177.385 177.945 
178.444 178.896 179.318 173.536 173.723 174.552 174.796 175.755 176.217 
177.065 177.512 177.997 178.369 178.764 179.261 179.832 173.712 174.092 
174.95 175.222 176.045 176.335 177.117 177.385 177.974 178.138 178.63 
178.884 179.547 179.999 180.791 173.792 174.218 175.139 175.491 176.312 
176.594 177.368 177.601 178.301 178.404 179.015 179.076 179.778 179.995 
180.841 181.185 181.987 173.988 174.359 175.298 175.652 176.498 176.806 
177.592 177.871 178.608 178.804 179.455 179.561 180.229 180.384 181.176 
181.415 182.204 182.433 183.067 174.891 175.961 175.586 175.99 177.194 
176.757 177.174 176.781 177.196 178.386 177.991 178.359 177.978 178.383 
177.993 178.362 179.285 179.072 179.446 179.128 179.531 179.166 179.543 
179.129 179.468 179.857 179.834 180.305 180.13 180.564 180.283 180.677 
180.302 180.636 180.216 180.536 180.449 180.417 180.982 180.894 181.357 
181.202 181.619 181.375 181.729 181.366 181.663 181.253 181.534 181.355 
181.179 181.792 181.627 182.133 181.951 182.404 182.226 182.652 182.399 
182.744 182.371 182.644 182.218 182.457 182.42 182.182 182.773 182.559 
183.117 182.856 183.354 183.084 183.549 183.295 183.698 183.401 183.705 
183.322 183.547 183.108 183.291 183.355 183.153 183.645 183.503 184.045 
183.873 184.38 184.122 184.544 184.241 184.589 184.3 184.591 184.294 
184.517 184.153 184.306 183.882 183.996 183.91 184.749 184.277 184.212 
185.717 185.2 185.191 184.677 184.651 186.727 186.26 186.258 185.707 
185.682 185.14 185.041 187.481 187.212 187.278 186.792 186.712 186.153 
186.015 185.444 185.205 188.163 187.907 188.114 187.756 187.727 187.171 
186.955 186.357 186.068 185.487 185.173 189.268 188.779 189 188.592 
188.639 188.133 187.919 187.296 186.947 186.316 185.968 185.406 185.113 
190.533 190.03 190.13 189.589 189.533 188.991 188.758 188.191 187.836 
187.215 186.825 186.209 185.868 185.334 185.034 191.261 191.056 191.087 
190.663 190.481 189.892 189.545 188.952 188.565 188.016 187.611 187.041 
186.624 186.067 185.684 185.185 184.82 191.373 191.412 191.428 191.308 
191.133 190.731 190.327 189.73 189.234 188.662 188.198 187.696 187.236 
186.734 186.269 185.777 185.344 184.886 184.486 183.988 184.372 184.351 
184.747 184.686 184.668 185.004 185.103 185.623 184.961 184.921 185.198 
185.298 185.793 186.018 186.579 185.297 185.242 185.544 185.541 186.032 
186.183 186.713 186.884 187.3 185.493 185.6 186.02 186.018 186.578 
186.595 187.166 187.133 187.549 187.546 187.984 185.279 185.649 186.131 
186.393 186.972 187.159 187.773 187.764 188.242 188.06 188.543 188.469 
189.138 184.81 185.284 185.746 186.222 186.716 187.202 187.735 188.119 
188.6 188.732 189.184 189.176 189.748 189.784 190.417 184.37 184.804 
185.258 185.725 186.176 186.69 187.132 187.69 188.12 188.647 189.065 
189.47 189.896 190.182 190.599 190.799 191.119 184.008 184.404 184.863 
185.283 185.763 186.188 186.643 187.073 187.492 187.982 188.406 188.964 
189.386 189.913 190.267 190.667 190.903 191.155 191.259 174.475 175.627 
175.287 175.741 176.725 176.411 176.842 176.511 176.914 177.808 177.493 
177.951 177.614 178.035 177.666 178.036 178.957 178.615 179.111 178.761 
179.216 178.827 179.197 178.774 179.067 180.112 179.781 180.274 179.946 
180.409 180.029 180.367 179.923 180.162 179.728 179.919 181.17 180.884 
181.353 181.074 181.565 181.228 181.611 181.13 181.379 180.854 181.089 
180.588 180.79 182.095 181.868 182.334 182.104 182.64 182.379 182.892 
182.461 182.836 182.235 182.55 181.928 182.24 181.603 181.832 182.877 
182.721 183.187 183.026 183.567 183.41 183.972 183.715 184.15 183.703 
183.998 183.445 183.696 183.111 183.311 182.669 182.803 183.53 183.431 
183.876 183.787 184.288 184.228 184.745 184.645 185.023 184.785 184.951 
184.611 184.677 184.314 184.363 183.945 183.972 183.471 183.507 173.833 
173.219 174.044 175.024 172.555 173.417 174.461 175.244 176.161 172.007 
172.782 173.825 174.642 175.627 176.363 177.242 171.721 172.363 173.344 
174.029 174.989 175.769 176.742 177.479 178.387 171.497 172.162 173.129 
173.668 174.527 175.161 176.142 176.943 177.992 178.699 179.601 171.057 
171.844 172.864 173.483 174.33 174.834 175.748 176.422 177.537 178.306 
179.352 179.939 180.736 170.545 171.294 172.307 173.091 174.035 174.654 
175.573 176.164 177.234 177.932 179.031 179.681 180.566 181.033 181.694 
170.255 170.808 171.727 172.478 173.483 174.256 175.262 175.96 176.986 
177.668 178.699 179.362 180.26 180.814 181.515 181.928 182.486 170.219 
170.605 171.44 172.008 173 173.725 174.794 175.558 176.598 177.328 
178.291 178.978 179.838 180.457 181.186 181.69 182.286 182.668 183.159 
170.515 171.482 171.206 171.745 172.677 172.324 172.905 172.602 173.289 
173.979 173.615 174.254 173.898 174.6 174.294 175.074 175.355 174.973 
175.656 175.302 176.022 175.676 176.41 176.114 176.874 176.809 176.409 
177.095 176.724 177.436 177.087 177.773 177.441 178.118 177.846 178.533 
178.231 177.87 178.543 178.168 178.849 178.488 179.152 178.786 179.415 
179.078 179.71 179.436 180.054 179.569 179.255 179.933 179.581 180.246 
179.888 180.561 180.186 180.828 180.424 181.026 180.649 181.222 180.901 
181.414 180.847 180.57 181.26 180.937 181.596 181.257 181.925 181.586 
182.232 181.849 182.414 181.995 182.484 182.088 182.519 182.166 182.534 
182.003 181.797 182.477 182.217 182.853 182.556 183.172 182.88 183.466 
183.157 183.65 183.289 183.678 183.292 183.618 183.242 183.525 183.17 
183.413 182.82 184.247 183.467 183.332 185.767 184.936 184.774 183.95 
183.732 187.171 186.414 186.188 185.379 185.123 184.3 184.038 188.22 
187.634 187.381 186.692 186.386 185.626 185.321 184.555 184.275 189.127 
188.562 188.358 187.762 187.486 186.8 186.459 185.74 185.407 184.708 
184.391 190.111 189.518 189.307 188.712 188.472 187.842 187.524 186.828 
186.46 185.758 185.398 184.729 184.377 190.828 190.415 190.109 189.595 
189.246 188.719 188.358 187.794 187.407 186.77 186.367 185.696 185.303 
184.653 184.28 191.095 190.895 190.581 190.208 189.766 189.319 188.848 
188.414 187.972 187.53 187.097 186.571 186.125 185.528 185.1 184.504 
184.125 191.212 191.074 190.868 190.575 190.209 189.774 189.304 188.825 
188.35 187.93 187.497 187.107 186.671 186.216 185.762 185.244 184.824 
184.303 183.945 182.736 183.066 183.321 184.184 183.486 183.732 184.69 
184.887 185.781 183.962 184.247 185.305 185.502 186.48 186.563 187.305 
184.294 184.72 185.842 186.141 187.157 187.299 188.05 187.973 188.425 
184.373 184.93 186.033 186.52 187.536 187.874 188.657 188.692 189.167 
188.977 189.336 184.302 184.891 185.907 186.492 187.457 188.015 188.867 
189.172 189.754 189.715 190.129 189.94 190.325 184.125 184.731 185.647 
186.234 187.09 187.728 188.567 189.148 189.806 190.107 190.532 190.593 
190.904 190.825 191.024 183.771 184.424 185.257 185.875 186.619 187.248 
187.968 188.649 189.26 189.836 190.209 190.603 190.809 191.049 191.153 
191.207 191.211 183.281 183.942 184.712 185.374 186.065 186.693 187.312 
187.958 188.482 189.103 189.438 189.968 190.158 190.605 190.742 191.049 
191.125 191.232 191.254 181.868 180.559 181.532 182.145 179.107 180.144 
180.766 181.794 182.469 177.572 178.621 179.176 180.283 180.922 182.079 
182.81 176.009 177.039 177.511 178.598 179.133 180.349 181.024 182.327 
183.054 174.451 175.452 175.916 176.944 177.43 178.532 179.126 180.402 
181.122 182.471 183.154 172.966 173.907 174.383 175.391 175.936 176.947 
177.533 178.61 179.286 180.523 181.256 182.539 183.168 171.612 172.479 
172.946 173.909 174.492 175.511 176.15 177.16 177.815 178.863 179.554 
180.71 181.387 182.562 183.09 170.373 171.189 171.673 172.563 173.158 
174.124 174.791 175.797 176.476 177.482 178.145 179.168 179.804 180.866 
181.415 182.464 182.846 169.228 169.996 170.497 171.357 171.986 172.897 
173.59 174.518 175.208 176.159 176.829 177.809 178.44 179.412 179.947 
180.888 181.287 182.197 182.461 168.754 168.499 169.075 170.05 168.379 
168.908 169.992 170.558 171.633 168.449 168.884 170.04 170.618 171.843 
172.292 173.338 168.771 169.074 170.246 170.776 172.105 172.594 173.725 
174.021 174.962 169.352 169.543 170.704 171.104 172.427 172.898 174.064 
174.403 175.352 175.616 176.531 170.057 170.222 171.359 171.651 172.872 
173.248 174.349 174.694 175.641 175.959 176.888 177.197 178.125 170.739 
170.922 171.996 172.268 173.364 173.677 174.667 174.964 175.865 176.197 
177.128 177.501 178.431 178.747 179.597 171.384 171.549 172.521 172.785 
173.78 174.086 175.015 175.284 176.136 176.422 177.3 177.674 178.565 
178.95 179.758 180.089 180.838 172.009 172.135 173.001 173.222 174.138 
174.432 175.35 175.627 176.478 176.718 177.53 177.826 178.64 179.005 
179.773 180.142 180.856 181.222 181.935 172.618 173.84 173.329 173.586 
175.18 174.62 174.901 174.379 174.71 176.565 176.009 176.315 175.768 
176.117 175.582 175.929 177.915 177.384 177.698 177.185 177.544 177.023 
177.358 176.799 177.071 179.342 178.768 179.093 178.554 178.91 178.412 
178.749 178.215 178.466 177.881 178.1 180.835 180.267 180.604 180.004 
180.34 179.784 180.13 179.592 179.875 179.283 179.497 178.899 179.144 
182.13 181.703 182.043 181.512 181.817 181.244 181.575 181.018 181.362 
180.757 181.025 180.358 180.582 179.967 180.231 183.112 182.835 183.18 
182.815 183.124 182.656 182.975 182.467 182.84 182.292 182.635 181.972 
182.213 181.49 181.704 181.061 181.317 183.9 183.696 184.045 183.806 
184.152 183.835 184.178 183.786 184.155 183.717 184.087 183.553 183.827 
183.15 183.334 182.612 182.812 182.162 182.413 183.243 183.669 183.848 
184.656 184.184 184.318 185.102 185.26 186.008 184.648 184.821 185.552 
185.698 186.4 186.551 187.227 184.882 185.169 185.855 186.064 186.691 
186.881 187.492 187.688 188.295 184.921 185.278 185.942 186.231 186.81 
187.059 187.615 187.857 188.394 188.635 189.157 184.874 185.248 185.889 
186.225 186.791 187.085 187.661 187.941 188.53 188.74 189.26 189.435 
189.906 184.757 185.137 185.737 186.115 186.677 187.016 187.613 187.964 
188.663 188.949 189.592 189.692 190.173 190.211 190.6 184.591 184.958 
185.517 185.916 186.48 186.863 187.439 187.85 188.526 188.988 189.702 
190.02 190.554 190.607 190.929 190.884 191.101 184.421 184.763 185.285 
185.673 186.223 186.633 187.18 187.604 188.162 188.673 189.281 189.848 
190.398 190.785 191.116 191.207 191.344 191.283 191.328 161.837 162.001 
161.688 161.202 162.285 161.863 161.327 160.979 160.586 162.931 162.3 
161.808 161.256 160.921 160.599 160.635 164.072 163.256 162.882 162.065 
161.818 161.227 161.326 161.057 161.492 165.419 164.62 164.416 163.494 
163.328 162.469 162.551 161.999 162.378 162.14 162.731 166.728 165.998 
165.924 165.14 165.101 164.211 164.275 163.473 163.75 163.207 163.682 
163.444 164.086 168.158 167.362 167.322 166.614 166.672 165.943 166.046 
165.268 165.459 164.743 165.071 164.553 165.043 164.813 165.437 169.748 
168.906 168.875 168.086 168.15 167.443 167.551 166.882 167.01 166.364 
166.552 165.974 166.285 165.871 166.341 166.137 166.709 171.254 170.509 
170.513 169.721 169.783 169 169.091 168.35 168.445 167.774 167.909 
167.332 167.569 167.098 167.473 167.13 167.627 167.41 167.961 161.655 
161.052 161.355 161.375 160.517 160.759 160.952 161.264 161.563 160.613 
160.507 160.834 161.036 161.604 161.819 162.374 161.485 161.028 161.342 
161.253 161.948 162.096 162.83 162.892 163.481 162.781 162.183 162.476 
162.091 162.712 162.656 163.425 163.45 164.057 164.026 164.569 164.186 
163.595 163.94 163.418 163.952 163.629 164.303 164.154 164.756 164.634 
165.15 165.117 165.73 165.524 165.001 165.344 164.874 165.333 164.932 
165.469 165.162 165.689 165.432 165.917 165.757 166.33 166.336 167.012 
166.754 166.269 166.542 166.139 166.493 166.157 166.565 166.278 166.71 
166.427 166.847 166.593 167.079 166.974 167.583 167.615 168.247 167.967 
167.462 167.691 167.256 167.547 167.186 167.531 167.246 167.645 167.395 
167.809 167.543 167.974 167.763 168.282 168.206 168.792 168.801 169.362 
161.876 161.658 161.859 162.173 161.799 161.783 162.139 162.328 162.855 
162.478 162.159 162.466 162.462 163.042 163.246 163.939 163.531 163.046 
163.306 163.046 163.611 163.611 164.335 164.459 165.162 164.677 164.183 
164.486 164.094 164.625 164.403 165.083 165.015 165.742 165.765 166.504 
165.889 165.385 165.721 165.315 165.81 165.512 166.098 165.891 166.551 
166.471 167.23 167.241 168.05 167.181 166.665 166.98 166.539 166.991 
166.668 167.221 166.949 167.55 167.36 168.077 168.027 168.837 168.85 
169.661 168.414 167.951 168.267 167.812 168.272 167.891 168.513 168.165 
168.833 168.49 169.191 168.968 169.764 169.683 170.513 170.478 171.283 
169.517 169.122 169.474 169.082 169.6 169.245 169.954 169.602 170.359 
169.937 170.634 170.231 170.962 170.717 171.535 171.411 172.234 172.14 
172.915 181.415 180.223 180.584 180.065 178.924 179.302 178.738 179.14 
178.598 177.575 177.955 177.339 177.744 177.173 177.624 177.084 176.146 
176.552 175.89 176.297 175.666 176.137 175.584 176.081 175.538 174.698 
175.089 174.421 174.816 174.153 174.597 174.021 174.538 174.022 174.525 
173.995 173.341 173.678 173.026 173.378 172.732 173.113 172.53 172.995 
172.501 173.011 172.531 173.012 172.527 172.063 172.363 171.708 172.035 
171.405 171.75 171.155 171.555 171.029 171.511 171.034 171.545 171.076 
171.578 171.15 170.906 171.134 170.479 170.754 170.134 170.459 169.877 
170.229 169.674 170.075 169.566 170.042 169.578 170.101 169.68 170.227 
169.874 169.982 170.098 169.468 169.622 169.021 169.258 168.73 169.025 
168.535 168.833 168.357 168.689 168.261 168.674 168.304 168.787 168.465 
169.005 168.736 
POINT_DATA 1002
SCALARS Distance double
LOOKUP_TABLE default
173.098 171.929 171.82 173.057 171.771 174.362 173.08 171.818 174.425 
175.744 173.232 172.004 174.561 175.897 177.104 173.553 172.336 174.804 
176.09 177.304 178.445 173.958 172.76 175.142 176.341 177.553 178.739 
179.924 174.322 173.176 175.493 176.665 177.897 179.109 180.271 181.368 
174.627 173.559 175.814 177.003 178.251 179.494 180.594 181.597 182.498 
174.927 173.932 176.12 177.323 178.508 179.717 180.803 181.74 182.604 
183.358 175.226 174.266 176.395 177.596 178.71 179.803 180.855 181.8 
182.671 183.451 184.097 170.564 170.433 168.987 168.874 167.451 170.427 
167.357 166.135 168.952 170.529 165.988 164.862 167.459 169.114 170.722 
164.72 163.617 166.073 167.683 169.347 171.073 163.712 162.765 164.917 
166.433 168.038 169.774 171.59 163.09 162.367 164.06 165.446 166.919 
168.504 170.391 172.166 162.683 162.139 163.416 164.654 166.016 167.321 
169.097 171.133 172.737 162.375 161.947 162.95 164.026 165.33 166.423 
167.847 169.941 171.892 173.223 162.092 162.578 162.535 163.298 163.481 
163.459 164.388 164.636 164.404 164.742 165.447 165.816 165.393 165.561 
165.872 166.724 167.255 166.516 166.581 166.706 167.06 168.411 168.873 
168.191 168.225 168.277 168.453 169.052 170.135 170.458 170.065 170.175 
170.176 170.175 170.559 171.25 171.77 172.067 171.732 171.833 171.697 
171.397 171.518 172.14 172.784 173.365 173.648 173.254 173.242 172.977 
172.396 172.125 172.564 173.304 173.881 175.184 174.762 176.352 174.152 
176.08 177.662 173.485 175.677 177.586 178.759 173.302 175.222 177.293 
178.526 179.382 173.804 175.127 176.847 178.025 178.787 179.79 174.396 
175.462 176.685 177.672 178.301 179.21 180.501 174.646 175.815 176.866 
177.809 178.448 179.146 180.29 181.585 174.76 176.018 177.109 178.136 
178.963 179.639 180.553 181.681 182.696 174.955 176.183 177.298 178.376 
179.319 180.085 180.965 182.012 182.922 183.585 176.352 177.573 177.6 
178.744 178.767 178.786 179.72 179.88 179.952 179.895 180.405 180.796 
181.022 181.064 180.955 181.059 181.485 181.795 182.045 182.085 181.955 
181.982 182.339 182.577 182.845 183.072 183.079 182.904 182.982 183.36 
183.655 183.834 183.973 184.055 183.986 183.755 183.785 184.17 184.607 
184.881 184.922 184.877 184.845 184.723 184.443 184.363 184.685 185.204 
185.713 186.237 185.179 186.832 187.115 186.233 185.639 187.693 187.639 
187.315 186.594 185.817 188.392 188.463 188.263 187.609 186.665 185.724 
189.486 189.859 189.127 188.535 187.619 186.561 185.623 190.749 190.995 
190.16 189.319 188.426 187.469 186.448 185.538 191.43 191.362 191.086 
190.205 189.116 188.157 187.211 186.219 185.298 191.446 191.316 191.41 
190.907 189.872 188.718 187.725 186.777 185.817 184.92 184.018 184.678 
184.426 184.906 184.731 185.431 185.131 185.029 185.562 186.387 185.572 
185.298 185.934 186.603 187.152 185.939 185.246 186.556 187.252 187.648 
187.854 185.767 184.828 186.693 187.675 188.398 188.685 189.094 185.261 
184.345 186.213 187.246 188.289 189.118 189.753 190.403 184.81 183.96 
185.706 186.613 187.539 188.539 189.545 190.394 191.005 184.445 183.623 
185.339 186.248 187.071 187.871 188.812 189.805 190.605 191.101 174.824 
176.088 175.973 177.176 177.032 177.266 178.277 178.121 178.404 178.441 
179.454 179.302 179.608 179.643 179.513 180.593 180.447 180.783 180.845 
180.621 180.357 181.619 181.45 181.854 182.063 181.93 181.589 181.323 
182.543 182.3 182.846 183.226 183.392 183.189 182.875 182.523 183.327 
183.011 183.696 184.164 184.53 184.534 184.278 183.939 183.476 173.03 
174.281 172.35 173.622 171.696 175.484 173.033 171.295 174.823 176.58 
172.767 171.107 174.236 175.912 177.745 172.618 170.77 174.005 175.341 
177.181 179.058 172.146 170.258 173.832 175.157 176.752 178.687 180.316 
171.478 169.902 173.298 174.978 176.589 178.366 180.048 181.339 171.046 
169.818 172.658 174.495 176.316 178.056 179.679 181.06 182.151 170.953 