# vtk DataFile Version 4.0
vtk output
ASCII
DATASET POLYDATA
POINTS 1002 float
-116.799 -99.726 51.3926 -116.861 -99.331 51.0622 -117.432 -99.4814 51.3201 
-117.373 -99.9757 51.6342 -118.073 -99.6059 51.656 -116.668 -100.295 51.6565 
-118.014 -100.079 52.0073 -118.671 -99.7754 51.9363 -117.261 -100.474 52.0008 
-116.499 -100.608 52.2996 -118.556 -100.089 52.4575 -119.173 -100.126 52.1209 
-117.902 -100.368 52.5911 -117.11 -100.584 52.8564 -116.354 -100.587 53.3455 
-119.042 -100.246 52.966 -119.765 -100.473 52.4761 -118.424 -100.292 53.2795 
-117.759 -100.495 53.5301 -116.949 -100.653 53.8671 -116.207 -100.842 54.1505 
-119.703 -100.553 53.4906 -120.452 -100.562 53.1162 -118.963 -100.655 53.7741 
-118.334 -100.831 54.0028 -117.633 -100.98 54.2523 -116.796 -101.222 54.408 
-116.021 -101.517 54.5181 -120.417 -100.879 53.9404 -120.993 -100.595 53.8215 
-119.681 -101.258 53.9472 -118.932 -101.547 54.0713 -118.263 -101.584 54.4045 
-117.529 -101.642 54.6652 -116.648 -101.872 54.7866 -115.849 -102.017 55.0081 
-120.947 -101.221 54.3321 -121.387 -100.822 54.3453 -120.364 -101.678 54.1537 
-119.595 -102.026 54.1539 -118.797 -102.017 54.5682 -118.124 -101.866 55.0542 
-117.376 -101.94 55.3245 -116.491 -102.101 55.5574 -115.742 -102.111 55.8849 
-121.376 -101.552 54.6179 -121.814 -101.16 54.5808 -120.843 -101.853 54.5916 
-120.164 -102.07 54.7265 -119.323 -102.102 55.1912 -118.55 -101.945 55.7181 
-117.901 -101.88 56.037 -117.151 -101.989 56.2862 -116.344 -102.065 56.5947 
-115.695 -102.041 56.8897 -121.853 -101.813 54.7907 -122.303 -101.458 54.6736 
-121.248 -101.939 55.0145 -120.566 -101.968 55.4502 -119.81 -102.078 56.0607 
-119.024 -102.147 56.5421 -118.325 -102.069 56.7417 -117.656 -101.999 56.9226 
-116.932 -101.999 57.2496 -116.244 -101.996 57.5804 -115.682 -101.977 57.8039 
-117.278 -99.2149 50.6336 -117.93 -99.2721 50.9805 -117.777 -99.1029 50.0829 
-118.471 -99.1423 50.5189 -118.3 -98.8784 49.7508 -118.621 -99.3547 51.3944 
-119.051 -99.019 50.1649 -118.894 -98.5806 49.6246 -119.192 -99.2882 50.9674 
-119.23 -99.7345 51.5761 -119.768 -98.8364 49.8379 -119.641 -98.2459 49.3444 
-119.828 -99.2601 50.5363 -119.823 -99.8173 51.1436 -119.809 -100.366 51.6336 
-120.451 -98.5054 49.5647 -120.243 -97.7993 49.1258 -120.501 -99.072 50.213 
-120.425 -99.6991 50.8885 -120.423 -100.397 51.361 -120.482 -100.652 52.0513 
-120.69 -97.9889 49.7205 -120.45 -97.236 49.339 -120.864 -98.6612 50.2687 
-120.932 -99.326 50.9063 -120.959 -100.027 51.4205 -121.045 -100.453 51.9384 
-121.076 -100.468 52.8602 -120.665 -97.3708 50.1394 -120.562 -96.6333 49.6823 
-120.856 -98.0834 50.6796 -121.219 -98.8275 51.1541 -121.506 -99.555 51.5534 
-121.585 -100.033 51.9948 -121.556 -100.186 52.7404 -121.48 -100.344 53.7007 
-120.786 -96.7989 50.4148 -120.778 -96.099 49.8998 -120.918 -97.472 50.9982 
-121.43 -98.2232 51.3889 -122.041 -99.0654 51.5946 -122.26 -99.6722 51.94 
-122.12 -99.9054 52.6391 -121.946 -100.068 53.5482 -121.862 -100.501 54.2641 
-120.97 -96.3956 50.642 -120.927 -95.732 50.1683 -121.144 -96.9981 51.1606 
-121.685 -97.6205 51.4985 -122.408 -98.4398 51.6119 -122.803 -99.2313 51.8442 
-122.723 -99.6574 52.502 -122.478 -99.8483 53.4021 -122.337 -100.176 54.1306 
-122.318 -100.782 54.5031 -120.976 -95.932 50.8988 -121.202 -96.5672 51.3312 
-121.101 -96.1602 51.6772 -121.66 -96.6826 51.9071 -121.543 -96.2147 52.1625 
-121.757 -97.0738 51.6263 -122.294 -96.6165 52.2904 -122.148 -96.1161 52.5121 
-122.408 -97.1014 52.0163 -122.489 -97.6979 51.7378 -122.838 -96.4758 52.8143 
-122.549 -96.0692 53.188 -122.824 -97.0477 52.5724 -122.84 -97.7433 52.2381 
-122.955 -98.5461 51.9244 -123.095 -96.4615 53.6551 -122.714 -96.1159 54.1601 
-123.124 -97.013 53.3928 -122.954 -97.7288 53.1582 -122.995 -98.5474 52.7975 
-123.041 -99.2491 52.5332 -123.099 -96.5937 54.6359 -122.849 -96.1631 55.187 
-123.308 -97.1155 54.2678 -123.362 -97.7125 54.0971 -123.326 -98.483 53.8755 
-123.233 -99.2152 53.5996 -122.947 -99.6435 53.4379 -123.072 -96.7713 55.6919 
-123.001 -96.2422 56.2053 -123.221 -97.3376 55.1582 -123.575 -97.7914 54.8326 
-123.873 -98.4195 54.6461 -123.781 -99.2181 54.4493 -123.346 -99.7596 54.2699 
-122.825 -100 54.1633 -123.102 -96.9815 56.6966 -123.021 -96.4734 57.0413 
-123.083 -97.5757 56.1215 -123.28 -97.9931 55.5609 -123.71 -98.4522 55.2103 
-123.925 -99.2205 55.0141 -123.677 -99.947 54.8414 -123.225 -100.337 54.6577 
-122.776 -100.569 54.5295 -123.008 -97.2895 57.3942 -122.798 -96.8805 57.5288 
-123.019 -97.8121 56.9841 -122.994 -98.2508 56.3884 -123.136 -98.6481 55.864 
-123.372 -99.2692 55.5807 -123.449 -100.043 55.4516 -123.344 -100.644 55.2617 
-123.142 -101.023 54.9709 -122.793 -101.289 54.7453 -122.547 -101.928 55.0101 
-123.05 -101.784 55.3334 -122.649 -102.168 55.8504 -123.22 -101.417 55.8125 
-123.073 -102.018 56.4478 -122.463 -102.113 56.9736 -123.116 -100.836 56.1401 
-123.034 -101.499 56.9529 -122.688 -101.85 57.5215 -121.984 -101.878 57.8065 
-122.982 -100.131 56.2378 -122.843 -100.8 57.1321 -122.557 -101.2 57.778 
-122.005 -101.47 58.0752 -121.476 -101.742 58.4356 -122.915 -99.4566 56.4215 
-122.9 -100.222 57.3337 -122.676 -100.598 58.0793 -121.993 -100.823 58.3335 
-121.488 -101.311 58.6673 -121.168 -101.889 59.3657 -122.893 -98.9198 56.8506 
-123.023 -99.7209 57.7401 -123.098 -100.272 58.7067 -122.463 -100.432 59.0416 
-121.623 -100.761 59.1353 -121.246 -101.499 59.6955 -120.852 -102.16 60.3809 
-122.88 -98.464 57.3403 -122.886 -99.1797 58.0201 -123.101 -99.8627 59.0463 
-122.9 -100.237 59.6839 -122.026 -100.458 59.736 -121.268 -100.982 60.011 
-120.836 -101.72 60.6269 -120.272 -102.282 61.0281 -122.79 -98.0148 57.6708 
-122.549 -98.7041 58.0542 -122.551 -99.3199 58.7949 -122.636 -99.804 59.5791 
-122.197 -100.152 59.9116 -121.341 -100.563 60.118 -120.649 -101.141 60.6218 
-120.119 -101.733 61.1302 -119.567 -102.224 61.4079 -122.559 -97.6041 57.7778 
-122.2 -98.3322 58.0036 -121.966 -98.9004 58.4309 -122 -99.2875 59.0947 
-121.925 -99.614 59.6946 -121.362 -100.03 60.1041 -120.584 -100.559 60.5413 
-119.931 -101.103 61.0294 -119.402 -101.617 61.4278 -118.99 -102.131 61.785 
-121.926 -102.06 55.2999 -121.824 -102.058 56.2557 -121.094 -101.944 55.8464 
-121.532 -101.97 57.2321 -120.825 -101.979 56.791 -120.276 -102.035 56.5751 
-121.144 -101.9 58.0287 -120.516 -102.096 57.4833 -119.985 -102.397 57.2596 
-119.538 -102.412 57.1123 -120.789 -101.948 59.0392 -120.167 -101.993 58.4162 
-119.672 -102.424 57.7716 -119.307 -102.764 57.4889 -118.815 -102.516 57.2606 
-120.433 -102.208 60.1345 -119.753 -101.926 59.716 -119.226 -101.914 59.0078 
-118.942 -102.288 58.2505 -118.564 -102.459 57.7663 -118.066 -102.24 57.409 
-119.941 -102.516 60.8166 -119.313 -102.304 60.5768 -118.737 -101.928 60.2993 
-118.417 -101.8 59.75 -118.133 -101.898 59.0124 -117.728 -101.997 58.3738 
-117.308 -102.005 57.8379 -119.383 -102.662 61.2686 -118.945 -102.814 61.0313 
-118.396 -102.656 60.9023 -117.955 -102.341 60.7956 -117.63 -102.015 60.4234 
-117.315 -101.849 59.7651 -116.971 -101.878 59.0208 -116.609 -101.947 58.299 
-118.931 -102.681 61.8456 -118.726 -103.096 61.7242 -118.288 -103.272 61.4899 
-117.724 -103.183 61.2937 -117.233 -102.816 61.134 -116.9 -102.335 60.8111 
-116.634 -102.038 60.1915 -116.336 -101.958 59.3889 -116.004 -101.955 58.5746 
-118.586 -102.472 62.4274 -118.608 -103.069 62.6618 -118.341 -102.847 63.2269 
-118.355 -103.36 63.5272 -117.989 -102.969 63.6965 -118.395 -103.461 62.576 
-117.711 -103.323 63.8539 -117.218 -102.707 63.7399 -117.905 -103.577 63.2812 
-117.786 -103.577 62.1198 -116.524 -103.093 63.8453 -116.168 -102.311 63.8313 
-116.889 -103.514 63.4579 -117.005 -103.563 62.5053 -117.032 -103.406 61.6125 
-115.357 -102.842 63.9291 -115.35 -101.949 63.8554 -115.583 -103.531 63.5462 
-115.927 -103.628 62.658 -116.207 -103.37 61.7879 -116.511 -102.967 61.2955 
-114.759 -102.375 63.6711 -114.824 -101.491 63.4268 -114.699 -103.259 63.583 
-114.933 -103.714 62.8439 -115.361 -103.483 61.9488 -115.792 -102.987 61.3755 
-116.224 -102.484 60.9118 -114.411 -101.663 63.0286 -114.187 -100.942 62.9875 
-114.411 -102.42 63.1187 -114.423 -103.106 62.7783 -114.699 -103.319 62.0377 
-115.106 -102.98 61.4086 -115.529 -102.517 60.8839 -115.958 -102.161 60.2138 
-113.839 -101.016 62.627 -113.407 -100.505 62.8969 -114.131 -101.551 62.5037 
-114.171 -102.119 62.3757 -114.278 -102.572 61.92 -114.575 -102.612 61.3346 
-114.905 -102.35 60.7899 -115.265 -102.119 60.1177 -115.654 -101.995 59.3376 
-113.189 -100.608 62.4691 -112.814 -100.256 62.7882 -113.592 -101.045 62.1502 
-113.723 -101.537 61.9999 -113.768 -101.985 61.7345 -114.041 -102.162 61.2103 
-114.394 -102.05 60.6302 -114.679 -101.937 59.9811 -115 -101.933 59.2124 
-115.355 -101.952 58.4665 -118.745 -101.702 61.9099 -118.338 -102.04 62.5704 
-118.638 -101.23 62.0246 -118.187 -101.486 62.6633 -118.627 -100.731 62.1508 
-118.02 -102.323 63.2122 -118.115 -100.842 62.7456 -118.475 -100.21 62.0821 
-117.781 -101.577 63.173 -117.575 -102.261 63.4716 -117.927 -100.191 62.5659 
-118.152 -99.6852 61.7653 -117.642 -100.765 63.112 -117.29 -101.375 63.3711 
-116.83 -101.879 63.5828 -117.621 -99.6261 62.1062 -117.897 -99.1818 61.4153 
-117.381 -100.081 62.7193 -117.067 -100.556 63.2099 -116.586 -101.031 63.5825 
-115.987 -101.466 63.7939 -117.389 -99.1059 61.6487 -117.745 -98.651 61.0998 
-117.02 -99.5535 62.1528 -116.687 -99.9286 62.7028 -116.289 -100.273 63.354 
-115.804 -100.63 63.7137 -115.295 -101.047 63.6481 -117.249 -98.4607 61.3231 
-117.571 -98.0255 60.8418 -116.784 -98.9623 61.7586 -116.31 -99.4002 62.1523 
-115.895 -99.6625 62.754 -115.474 -99.857 63.3131 -115.027 -100.144 63.4054 
-114.56 -100.561 63.2149 -117.105 -97.7146 61.1133 -117.39 -97.3725 60.7002 
-116.657 -98.1981 61.5017 -116.116 -98.7588 61.7725 -115.627 -99.1492 62.1255 
-115.169 -99.3152 62.62 -114.699 -99.4714 62.9324 -114.181 -99.7823 63.0294 
-113.684 -100.185 63.0477 -116.932 -97.0826 60.9166 -117.243 -96.8399 60.5581 
-116.502 -97.4719 61.2316 -115.983 -98.0329 61.4343 -115.484 -98.5628 61.6386 
[...]
CELL_DATA 2000
SCALARS Distance double
LOOKUP_TABLE default
160.948 161.574 161.263 161.282 162.213 161.909 161.927 161.611 161.602 
162.815 162.513 162.519 162.237 162.214 161.896 161.847 163.482 163.11 
163.087 162.797 162.804 162.503 162.471 162.134 162.114 164.264 163.843 
163.826 163.442 163.503 163.155 163.213 162.83 162.846 162.466 162.496 
165.018 164.661 164.706 164.292 164.372 163.968 164.059 163.652 163.699 
163.275 163.283 162.884 162.89 165.669 165.402 165.505 165.166 165.225 
164.845 164.856 164.474 164.454 164.086 164.05 163.671 163.619 163.238 
163.197 166.266 166.041 166.145 165.876 165.903 165.591 165.541 165.186 
165.092 164.742 164.664 164.34 164.273 163.93 163.856 163.503 163.455 
166.838 166.627 166.695 166.438 166.418 166.152 166.112 165.813 165.758 
165.392 165.322 164.943 164.878 164.532 164.465 164.132 164.068 163.744 
163.711 160.879 160.993 161.116 161.496 161.138 161.256 161.648 161.765 
162.148 161.336 161.439 161.865 161.956 162.371 162.446 162.813 161.6 
161.695 162.154 162.221 162.672 162.731 163.169 163.177 163.551 161.796 
161.96 162.425 162.524 162.967 163.048 163.508 163.571 163.995 163.968 
164.32 161.763 162.04 162.482 162.703 163.123 163.288 163.717 163.856 
164.269 164.345 164.675 164.678 164.978 161.578 161.884 162.29 162.61 
163.055 163.347 163.816 164.021 164.436 164.545 164.86 164.915 165.186 
165.247 165.553 161.435 161.684 162.074 162.374 162.862 163.223 163.805 
164.107 164.613 164.737 165.071 165.086 165.346 165.39 165.692 165.793 
166.133 161.387 161.588 161.987 162.224 162.722 163.059 163.683 164.068 
164.654 164.898 165.278 165.328 165.571 165.573 165.84 165.913 166.25 
166.369 166.712 161.506 161.954 161.86 162.139 162.48 162.377 162.714 
162.571 162.916 163.004 162.93 163.303 163.19 163.577 163.447 163.876 
163.498 163.446 163.802 163.733 164.084 164.042 164.452 164.418 164.81 
163.967 163.923 164.272 164.203 164.514 164.464 164.825 164.856 165.235 
165.223 165.448 164.412 164.363 164.717 164.669 165.028 164.94 165.33 
165.265 165.674 165.613 165.886 165.732 165.806 164.88 164.797 165.114 
165.083 165.455 165.447 165.883 165.853 166.291 166.177 166.477 166.248 
166.364 166.076 166.107 165.353 165.27 165.54 165.466 165.741 165.762 
166.106 166.235 166.622 166.707 166.981 166.865 166.973 166.701 166.751 
166.445 166.515 165.693 165.692 165.945 165.875 166.061 166.001 166.195 
166.28 166.555 166.768 167.044 167.171 167.338 167.255 167.353 167.12 
167.215 166.915 166.994 167.335 167.612 167.653 167.916 167.693 167.858 
168.202 168.219 168.324 167.52 167.778 168.06 168.32 168.469 168.456 
168.318 167.128 167.438 167.628 167.993 168.114 168.33 168.203 168.204 
167.995 166.692 166.989 167.258 167.587 167.813 167.975 167.911 167.923 
167.79 167.861 167.894 166.426 166.648 167.043 167.356 167.822 167.95 
168.082 167.881 167.782 167.679 167.793 167.937 168.157 166.323 166.494 
166.835 167.163 167.651 167.996 168.294 168.251 168.149 167.881 167.817 
167.832 168.012 168.193 168.277 166.181 166.373 166.555 166.847 167.102 
167.579 167.822 168.191 168.132 168.132 167.872 167.826 167.737 167.908 
167.919 168.107 168.002 165.884 166.119 166.195 166.439 166.5 166.871 
166.974 167.448 167.46 167.774 167.574 167.671 167.44 167.552 167.433 
167.628 167.525 167.71 167.603 167.217 167.696 167.316 167.005 168.009 
167.684 167.263 166.964 166.634 168.032 167.855 167.413 167.148 166.807 
166.593 166.337 167.87 167.792 167.447 167.246 166.965 166.793 166.61 
166.368 166.088 167.898 167.739 167.475 167.26 166.986 166.892 166.741 
166.631 166.377 166.076 165.676 168.157 167.941 167.653 167.345 166.963 
166.818 166.567 166.584 166.328 166.231 165.82 165.566 165.147 168.248 
168.164 167.852 167.557 167.118 166.832 166.495 166.374 166.113 166.05 
165.717 165.585 165.204 165.019 164.684 168.031 168.108 167.902 167.73 
167.405 167.088 166.802 166.494 166.266 166.005 165.757 165.533 165.256 
165.059 164.777 164.586 164.303 167.758 167.895 167.912 167.843 167.737 
167.471 167.292 166.94 166.728 166.362 166.116 165.772 165.516 165.224 
164.972 164.722 164.458 164.231 163.962 167.702 167.976 167.91 167.983 
168.203 168.238 168.295 168.105 167.928 167.861 168.231 168.283 168.311 
168.049 167.855 167.485 166.999 167.565 167.618 167.966 167.683 167.737 
167.294 167.235 166.83 166.117 166.62 166.699 167.13 166.953 167.158 
166.763 166.844 166.458 166.503 166.155 165.322 165.785 165.869 166.28 
166.225 166.467 166.206 166.298 165.976 166.056 165.77 165.825 165.529 
164.43 164.942 164.998 165.462 165.422 165.774 165.593 165.783 165.492 
165.594 165.303 165.399 165.126 165.201 164.936 163.519 164.004 164.055 
164.536 164.492 164.914 164.764 165.091 164.844 165.055 164.749 164.894 
164.596 164.732 164.466 164.595 164.368 162.784 163.155 163.213 163.628 
163.629 164.011 163.92 164.251 164.085 164.35 164.11 164.297 164.016 
164.169 163.914 164.075 163.864 164.027 163.849 167.468 167.105 167.393 
167.693 166.776 167.024 167.246 167.628 167.875 166.404 166.665 166.763 
167.098 167.212 167.608 167.566 165.838 166.183 166.227 166.547 166.539 
166.87 166.761 167.061 166.79 165.172 165.523 165.539 165.898 165.851 
166.171 166.037 166.296 166.065 166.259 165.965 164.571 164.861 164.82 
165.147 165.062 165.407 165.27 165.58 165.364 165.591 165.302 165.483 
165.172 163.991 164.263 164.179 164.447 164.314 164.603 164.437 164.759 
164.538 164.834 164.521 164.763 164.396 164.625 164.264 163.395 163.655 
163.554 163.807 163.655 163.895 163.706 163.959 163.734 163.991 163.696 
163.93 163.579 163.803 163.454 163.686 163.368 162.857 163.066 162.94 
163.169 163.007 163.24 163.053 163.28 163.064 163.265 163.003 163.177 
162.895 163.063 162.802 162.97 162.737 162.903 162.684 165.685 165.396 
165.697 165.972 165.106 165.396 165.684 165.959 166.243 164.867 165.136 
165.447 165.705 165.999 166.262 166.621 164.607 164.896 165.211 165.492 
165.803 166.051 166.355 166.663 167.027 164.274 164.6 164.892 165.214 
165.505 165.812 166.084 166.378 166.639 166.98 167.213 163.87 164.225 
164.505 164.846 165.089 165.426 165.668 166.018 166.26 166.586 166.779 
167.064 167.194 163.458 163.798 164.082 164.434 164.675 164.989 165.203 
165.545 165.811 166.175 166.415 166.692 166.834 167.051 167.178 163.138 
163.415 163.7 164.027 164.312 164.607 164.847 165.129 165.411 165.751 
166.066 166.365 166.565 166.757 166.871 167.076 167.228 162.908 163.142 
163.421 163.702 164.013 164.296 164.583 164.838 165.137 165.429 165.778 
166.075 166.357 166.548 166.707 166.838 166.99 167.175 167.365 165.392 
164.8 165.114 165.106 164.109 164.48 164.498 164.81 164.811 163.353 
163.757 163.816 164.186 164.231 164.544 164.569 162.671 163.031 163.112 
163.494 163.566 163.933 163.971 164.296 164.303 162.084 162.42 162.485 
162.819 162.846 163.212 163.222 163.615 163.613 163.977 163.954 161.374 
161.786 161.825 162.188 162.156 162.48 162.423 162.799 162.792 163.213 
163.215 163.592 163.556 160.555 160.979 161.003 161.437 161.423 161.778 
161.717 162.037 162.031 162.409 162.47 162.854 162.882 163.207 163.18 
159.854 160.188 160.208 160.6 160.631 161.02 161.026 161.368 161.381 
161.723 161.794 162.162 162.241 162.576 162.602 162.882 162.883 159.29 
159.567 159.588 159.896 159.933 160.277 160.313 160.674 160.705 161.071 
161.113 161.493 161.554 161.934 161.984 162.318 162.342 162.627 162.649 
158.985 158.616 158.968 159.294 158.25 158.606 158.956 159.292 159.622 
157.933 158.266 158.614 158.949 159.282 159.619 159.965 157.628 157.959 
158.3 158.622 158.941 159.267 159.608 159.97 160.349 157.325 157.632 
157.958 158.294 158.619 158.944 159.286 159.624 160.011 160.374 160.772 
157.15 157.367 157.671 157.954 158.308 158.637 159.03 159.354 159.756 
160.075 160.484 160.819 161.221 157.097 157.275 157.596 157.775 158.135 
158.384 158.811 159.128 159.568 159.871 160.276 160.571 160.976 161.291 
161.674 157 157.228 157.594 157.783 158.141 158.313 158.687 158.935 
159.349 159.664 160.065 160.374 160.757 161.065 161.452 161.747 162.08 
156.874 157.104 157.477 157.738 158.113 158.327 158.657 158.845 159.176 
159.432 159.801 160.12 160.498 160.827 161.204 161.522 161.875 162.139 
162.422 156.964 157.334 157.248 157.531 157.82 157.659 157.915 157.874 
158.195 158.34 158.175 158.404 158.305 158.606 158.537 158.786 158.766 
158.649 158.864 158.785 159.057 158.977 159.215 159.093 159.295 159.305 
159.09 159.298 159.19 159.467 159.413 159.683 159.565 159.784 159.636 
159.887 160.218 159.831 160.052 159.734 160.014 159.854 160.201 160.084 
160.381 160.199 160.458 160.294 160.587 161.199 160.856 161.085 160.668 
160.901 160.564 160.907 160.703 161.072 160.868 161.156 160.929 161.199 
161.021 161.31 161.868 161.694 161.896 161.63 161.804 161.492 161.743 
161.494 161.83 161.612 161.91 161.659 161.901 161.669 161.92 161.738 
161.985 162.332 162.212 162.397 162.255 162.428 162.243 162.45 162.262 
162.533 162.35 162.619 162.397 162.615 162.371 162.576 162.357 162.559 
162.369 162.542 156.736 156.669 156.842 157.158 156.619 156.83 157.174 
157.328 157.666 156.424 156.707 157.08 157.338 157.685 157.859 158.179 
156.309 156.497 156.878 157.179 157.585 157.835 158.155 158.325 158.604 
156.499 156.54 156.945 157.096 157.57 157.759 158.153 158.299 158.619 
158.754 159.131 156.787 156.829 157.27 157.346 157.843 157.917 158.362 
158.409 158.791 158.854 159.295 159.437 159.998 157.047 157.096 157.523 
157.656 158.132 158.244 158.68 158.725 159.124 159.142 159.585 159.675 
160.221 160.402 160.965 157.4 157.368 157.733 157.839 158.278 158.439 
158.863 158.993 159.4 159.486 159.919 160 160.482 160.613 161.102 
161.273 161.681 157.827 157.742 158.035 158.058 158.451 158.565 158.99 
159.128 159.551 159.694 160.143 160.283 160.746 160.864 161.3 161.407 
161.785 161.889 162.197 156.464 155.984 156.239 156.337 155.576 155.763 
155.831 156.149 156.27 155.313 155.426 155.483 155.7 155.828 156.08 
156.146 155.059 155.195 155.298 155.473 155.646 155.784 155.896 156.006 
156.095 154.797 154.913 155.041 155.29 155.515 155.697 155.847 155.908 
155.997 156.074 156.247 154.786 154.732 154.82 155.011 155.25 155.505 
155.689 155.85 155.944 156.031 156.139 156.279 156.489 155.009 154.862 
154.919 154.93 155.145 155.274 155.484 155.645 155.816 155.955 156.118 
156.215 156.403 156.538 156.787 155.171 155.101 155.17 155.136 155.299 
155.297 155.456 155.514 155.72 155.861 156.14 156.257 156.529 156.577 
156.842 156.917 157.21 155.246 155.239 155.353 155.355 155.466 155.444 
155.49 155.504 155.626 155.783 156.08 156.295 156.632 156.749 157.025 
157.07 157.336 157.4 157.675 155.372 155.827 155.548 155.536 156.379 
156.035 155.869 155.649 155.577 156.879 156.525 156.21 155.898 155.653 
155.551 155.486 157.393 157.021 156.741 156.284 155.982 155.662 155.585 
155.511 155.636 157.954 157.584 157.436 156.965 156.788 156.262 156.218 
155.861 156.057 155.907 156.194 158.532 158.161 158.037 157.682 157.617 
157.195 157.173 156.722 156.814 156.506 156.738 156.575 156.799 159.152 
158.752 158.595 158.25 158.187 157.908 157.899 157.586 157.555 157.235 
157.269 157.08 157.219 157.1 157.21 159.78 159.393 159.258 158.86 
158.79 158.461 158.464 158.181 158.159 157.846 157.798 157.541 157.597 
157.464 157.597 157.463 157.543 160.349 160.015 159.93 159.56 159.511 
159.14 159.14 158.794 158.803 158.452 158.437 158.096 158.131 157.889 
158.021 157.863 157.996 157.812 157.879 160.623 160.947 160.603 160.244 
161.263 160.937 160.589 160.241 159.878 161.519 161.228 160.893 160.58 
160.238 159.884 159.518 161.801 161.494 161.178 160.868 160.533 160.216 
159.864 159.52 159.15 162.176 161.834 161.541 161.191 160.861 160.513 
160.175 159.843 159.499 159.15 158.787 162.556 162.229 161.939 161.592 
161.272 160.89 160.556 160.19 159.881 159.522 159.204 158.818 158.503 
162.872 162.579 162.287 161.974 161.661 161.306 160.973 160.605 160.293 
159.935 159.636 159.263 158.968 158.593 158.352 163.157 162.88 162.606 
162.307 162.004 161.672 161.344 161.001 160.683 160.344 160.026 159.676 
159.36 159.024 158.759 158.462 158.264 163.44 163.176 162.927 162.636 
162.35 162.018 161.694 161.352 161.043 160.717 160.418 160.067 159.749 
159.393 159.105 158.807 158.581 158.335 158.135 158.122 158.597 158.339 
158.337 159.151 158.869 158.929 158.656 158.747 159.819 159.508 159.622 
159.326 159.458 159.154 159.282 160.485 160.203 160.33 160.06 160.215 
159.91 160.036 159.713 159.843 161.091 160.831 160.943 160.724 160.883 
160.645 160.791 160.488 160.626 160.305 160.462 161.744 161.451 161.568 
161.32 161.506 161.289 161.502 161.243 161.441 161.127 161.31 160.966 
161.111 162.423 162.141 162.277 161.996 162.204 161.962 162.229 161.986 
162.243 161.957 162.163 161.829 161.964 161.589 161.66 163.014 162.796 
162.942 162.705 162.903 162.683 162.943 162.731 162.987 162.742 162.936 
162.643 162.759 162.412 162.45 162.073 162.091 163.526 163.349 163.508 
163.321 163.515 163.336 163.581 163.409 163.657 163.446 163.634 163.368 
163.488 163.171 163.22 162.846 162.84 162.462 162.464 160.999 161.039 
160.803 160.378 161.149 160.858 160.394 160.149 159.704 161.285 160.977 
160.476 160.184 159.71 159.476 159.032 161.294 161.061 160.553 160.276 
159.783 159.509 159.024 158.781 158.285 161.114 160.972 160.484 160.298 
159.8 159.562 159.016 158.751 158.168 157.945 157.404 160.889 160.762 
160.297 160.161 159.67 159.495 158.922 158.681 158.052 157.803 157.215 
157.039 156.572 160.733 160.587 160.151 159.988 159.513 159.33 158.792 
158.559 157.996 157.73 157.221 156.955 156.516 156.309 155.963 160.615 
160.473 160.063 159.887 159.436 159.223 158.74 158.491 158.028 157.766 
157.391 157.112 156.783 156.453 156.116 155.834 155.575 160.51 160.37 
159.974 159.809 159.375 159.178 158.734 158.508 158.099 157.867 157.531 
157.317 157.038 156.782 156.478 156.142 155.835 155.551 155.367 160.866 
160.232 160.525 160.472 159.562 159.862 159.807 160.124 160.101 158.868 
159.17 159.097 159.434 159.41 159.76 159.763 158.1 158.431 158.315 
158.679 158.643 159.037 159.055 159.431 159.471 157.274 157.629 157.518 
157.874 157.828 158.235 158.285 158.712 158.807 159.19 159.305 156.501 
156.837 156.793 157.119 157.073 157.427 157.458 157.909 158.035 158.506 
158.66 159.076 159.234 155.88 156.155 156.162 156.464 156.408 156.692 
156.616 157.028 157.086 157.641 157.801 158.349 158.515 158.985 159.129 
155.474 155.65 155.702 155.939 155.914 156.081 155.912 156.164 156.114 
156.625 156.792 157.413 157.634 158.189 158.371 158.842 158.98 155.282 
155.365 155.472 155.633 155.71 155.753 155.608 155.6 155.487 155.751 
155.946 156.477 156.816 157.352 157.623 158.088 158.289 158.711 158.866 
161.191 160.818 161.197 161.607 160.462 160.832 161.245 161.642 162.092 
160.14 160.498 160.915 161.293 161.735 162.137 162.599 159.85 160.186 
160.622 160.992 161.442 161.807 162.256 162.646 163.103 159.677 159.94 
160.382 160.726 161.214 161.559 162.022 162.354 162.81 163.169 163.608 
159.622 159.836 160.261 160.543 161.04 161.366 161.857 162.167 162.633 
162.944 163.399 163.704 164.113 159.533 159.777 160.179 160.448 160.906 
161.216 161.68 161.994 162.441 162.769 163.223 163.542 163.971 164.236 
164.618 159.371 159.637 160.013 160.311 160.737 161.063 161.494 161.801 
162.19 162.515 162.922 163.301 163.725 164.075 164.457 164.735 165.079 
159.228 159.463 159.812 160.096 160.505 160.848 161.293 161.612 161.992 
162.262 162.607 162.941 163.328 163.732 164.109 164.483 164.804 165.121 
165.396 156.54 156.638 156.409 156.077 156.78 156.551 156.226 155.982 
155.701 156.874 156.682 156.41 156.183 155.901 155.663 155.425 157.015 
156.781 156.501 156.322 156.057 155.863 155.584 155.383 155.135 157.283 
156.977 156.656 156.413 156.134 155.956 155.712 155.533 155.298 155.101 
154.908 157.602 157.283 156.983 156.662 156.364 156.078 155.834 155.645 
155.52 155.352 155.272 155.026 154.968 157.931 157.615 157.354 157.04 
156.749 156.394 156.05 155.776 155.599 155.533 155.567 155.475 155.48 
155.219 155.185 158.303 157.974 157.708 157.404 157.111 156.769 156.344 
155.98 155.609 155.502 155.47 155.602 155.689 155.66 155.579 155.364 
155.26 158.707 158.378 158.116 157.776 157.485 157.124 156.726 156.288 
155.846 155.532 155.368 155.413 155.541 155.686 155.709 155.631 155.471 
155.314 155.232 
POINT_DATA 1002
SCALARS Distance double
LOOKUP_TABLE default
160.954 160.651 161.238 161.598 161.885 161.294 162.244 162.511 161.941 
161.573 162.786 163.148 162.527 162.176 161.796 163.397 163.903 163.08 
162.807 162.433 162.114 164.232 164.66 163.851 163.581 163.251 162.854 
162.522 165.093 165.301 164.794 164.472 164.124 163.721 163.276 162.874 
165.812 165.895 165.611 165.27 164.827 164.413 164.016 163.566 163.154 
166.417 166.486 166.206 165.893 165.462 164.988 164.593 164.211 163.792 
163.422 166.978 167.052 166.69 166.359 166.086 165.728 165.25 164.793 
164.393 164.02 163.691 160.747 161.364 160.869 161.534 161.011 162.047 
161.773 161.226 162.289 162.779 162.087 161.486 162.603 163.126 163.603 
162.307 161.595 162.883 163.415 163.985 164.399 162.22 161.475 162.92 
163.567 164.17 164.653 164.976 161.959 161.302 162.693 163.555 164.328 
164.812 165.118 165.465 161.793 161.212 162.472 163.421 164.44 165.073 
165.33 165.59 166.02 161.76 161.189 162.408 163.285 164.343 165.18 
165.582 165.802 166.129 166.6 161.571 162.25 162.043 162.839 162.558 
163.054 163.393 163.062 163.677 164.002 163.883 163.55 164.131 164.447 
164.909 164.337 164.017 164.596 164.815 165.215 165.582 164.738 164.484 
165.077 165.411 165.766 166.043 166.035 165.172 164.985 165.435 165.855 
166.384 166.723 166.666 166.392 165.656 165.418 165.794 165.996 166.468 
167.015 167.206 167.047 166.815 166.004 165.658 166.177 166.214 166.377 
166.823 167.296 167.515 167.499 167.33 167.623 168.007 168.118 168.068 
168.533 168.324 167.753 168.362 168.514 168.119 167.267 167.865 168.116 
167.981 167.888 166.879 167.631 167.946 167.673 167.717 168.079 166.69 
167.562 168.276 168.027 167.648 168.017 168.376 166.579 167.238 168.154 
168.453 167.97 167.834 168.187 168.269 166.363 166.724 167.346 167.968 
167.974 167.675 167.704 167.866 167.871 165.99 166.232 166.545 167.031 
167.382 167.367 167.28 167.316 167.395 167.544 167.347 167.589 166.856 
167.653 167 166.567 167.604 167.085 166.812 166.451 167.729 167.094 
166.78 166.631 166.05 168.019 167.215 166.582 166.343 166.011 165.4 
168.099 167.439 166.703 166.202 165.798 165.347 164.867 167.956 167.653 
167.123 166.582 166.019 165.458 164.967 164.499 167.859 167.923 167.637 
167.116 166.488 165.842 165.249 164.701 164.176 167.703 168.168 168.057 
168.491 168.061 168.227 168.143 167.38 168.218 167.704 167.174 166.444 
167.539 167.293 166.886 166.245 165.665 166.68 166.643 166.354 166.136 
165.447 164.856 165.917 166.08 165.897 165.677 165.498 164.524 163.911 
165.024 165.327 165.372 165.209 165.023 164.859 163.578 163.069 164.062 
164.391 164.574 164.586 164.452 164.314 164.227 162.818 162.465 163.244 
163.581 163.789 163.892 163.853 163.743 163.687 163.68 167.158 167.32 
166.839 166.913 166.578 167.508 166.505 166.132 166.874 167.257 165.913 
165.471 166.263 166.482 166.546 165.186 164.859 165.52 165.77 165.861 
165.788 164.539 164.317 164.735 164.933 165.109 165.123 164.997 163.933 
163.724 164.066 164.142 164.236 164.272 164.169 164.024 163.308 163.155 
163.422 163.477 163.5 163.466 163.351 163.216 163.123 162.736 162.681 
162.778 162.821 162.863 162.829 162.715 162.621 162.57 162.517 165.408 
165.694 165.088 165.405 164.826 165.953 165.178 164.598 165.757 166.288 
164.914 164.308 165.543 166.109 166.67 164.578 163.936 165.186 165.787 
166.358 166.891 164.163 163.512 164.777 165.306 165.911 166.512 166.935 
163.72 163.143 164.365 164.885 165.419 166.104 166.631 166.939 163.384 
162.888 163.999 164.574 165.083 165.733 166.363 166.704 166.973 165.111 
164.823 164.466 164.152 163.711 164.52 163.409 162.939 163.888 164.285 
162.745 162.332 163.184 163.625 164.005 162.183 161.739 162.527 162.828 
163.216 163.619 161.436 160.948 161.855 162.086 162.356 162.805 163.222 
160.553 160.164 161.021 161.394 161.671 162.067 162.538 162.886 159.847 
159.553 160.226 160.648 161.04 161.432 161.883 162.304 162.617 159.302 