# vtk DataFile Version 4.0
vtk output
ASCII
DATASET POLYDATA
POINTS 1002 float
-118.999 -102.825 44.8064 -119.061 -102.891 43.9314 -118.292 -102.806 44.1392 
-118.284 -102.734 45.129 -117.737 -102.488 44.6427 -118.936 -102.709 45.9471 
-117.675 -102.541 45.5924 -117.348 -102.013 45.2316 -118.176 -102.67 46.2813 
-118.711 -102.775 47.0196 -117.074 -102.338 45.9613 -116.787 -101.711 45.6499 
-117.451 -102.632 46.5913 -117.876 -102.847 47.2672 -118.386 -103.128 47.8763 
-116.281 -102.25 46.2146 -115.913 -101.758 45.8951 -116.683 -102.609 46.8091 
-117.119 -102.864 47.5334 -117.581 -103.234 48.1409 -118.159 -103.49 48.7456 
-115.376 -102.226 46.5458 -114.951 -101.932 46.1598 -115.823 -102.571 47.0942 
-116.331 -102.834 47.8463 -116.88 -103.148 48.5791 -117.398 -103.505 49.1585 
-117.971 -103.692 49.7151 -114.554 -102.155 47.0086 -114.073 -102 46.5309 
-115.052 -102.446 47.5558 -115.535 -102.796 48.204 -116.132 -103.049 49.0093 
-116.711 -103.377 49.6828 -117.15 -103.754 50.1077 -117.668 -104.05 50.4672 
-113.795 -102.074 47.4595 -113.301 -101.939 46.9233 -114.378 -102.294 48.0491 
-114.874 -102.696 48.5899 -115.387 -103.029 49.2854 -115.979 -103.357 50.0261 
-116.42 -103.849 50.4593 -116.809 -104.308 50.6969 -117.385 -104.615 50.9907 
-113.066 -102.024 47.8073 -112.667 -101.8 47.2706 -113.638 -102.253 48.4069 
-114.217 -102.601 48.9389 -114.733 -102.945 49.5399 -115.25 -103.349 50.2322 
-115.677 -103.995 50.6912 -116.039 -104.602 50.9236 -116.59 -104.884 51.2451 
-117.3 -104.974 51.6992 -112.467 -101.978 48.1179 -112.207 -101.647 47.6194 
-112.909 -102.292 48.6769 -113.483 -102.613 49.2253 -114.095 -102.858 49.8373 
-114.644 -103.188 50.5158 -115.018 -103.923 50.9761 -115.305 -104.758 51.1932 
-115.811 -105.122 51.5388 -116.592 -105.068 52.1197 -117.364 -104.979 52.7066 
-118.678 -102.735 43.4811 -117.932 -102.477 43.8063 -118.42 -102.154 43.4428 
-117.811 -101.714 43.8304 -118.321 -101.174 43.5535 -117.548 -101.857 44.4501 
-117.708 -100.826 43.8003 -118.153 -100.203 43.4316 -117.425 -101.03 44.4166 
-117.199 -101.21 45.1017 -117.317 -100.156 43.4808 -117.851 -99.5063 43.1953 
-116.885 -100.536 44.0515 -116.719 -100.64 44.8315 -116.45 -101.069 45.4549 
-116.946 -99.464 43.2996 -117.618 -98.7959 43.18 -116.082 -100.193 43.4969 
-115.705 -100.522 44.1242 -115.713 -100.756 44.9992 -115.443 -101.362 45.6288 
-116.837 -98.4997 43.4875 -117.376 -97.8759 43.3007 -115.793 -99.4081 43.4196 
-114.986 -100.152 43.5949 -114.913 -100.455 44.4271 -114.887 -100.915 45.3518 
-114.478 -101.611 45.9289 -116.685 -97.5969 43.7277 -117.043 -97.0793 43.4214 
-115.895 -98.4062 43.7556 -115.071 -99.3089 43.7539 -114.766 -99.7989 44.3339 
-114.619 -100.164 45.3223 -114.144 -100.918 45.9675 -113.595 -101.649 46.3426 
-116.508 -97.0694 43.9288 -116.863 -96.6598 43.6538 -115.891 -97.6766 44.0652 
-115.284 -98.4804 44.1773 -115.025 -99.0945 44.6683 -114.741 -99.4368 45.5471 
-114.052 -100.026 46.1972 -113.302 -100.894 46.4188 -112.847 -101.525 46.6928 
-116.525 -96.7577 44.2237 -116.927 -96.4234 44.026 -115.887 -97.1789 44.3366 
-115.286 -97.7871 44.4999 -115.05 -98.4358 44.9782 -114.802 -98.9021 45.736 
-114.044 -99.3631 46.3156 -113.134 -100.062 46.4926 -112.565 -100.803 46.6061 
-112.31 -101.321 46.9955 -116.764 -96.2486 44.5583 -116.142 -96.5532 44.6673 
-116.186 -95.7588 45.0048 -115.508 -96.1101 45.096 -115.299 -95.2481 45.3951 
-115.4 -96.9776 44.7642 -114.915 -95.8774 45.5614 -114.787 -95.2276 45.8979 
-114.941 -96.6744 45.3042 -114.927 -97.5859 45.1297 -114.577 -96.1226 46.1683 
-114.749 -95.6387 46.6109 -114.469 -96.6618 45.8785 -114.407 -97.3303 45.8022 
-114.593 -98.207 45.7961 -114.106 -96.388 47.0369 -114.491 -96.0276 47.5037 
-113.77 -96.8098 46.5495 -113.488 -97.172 46.3287 -113.513 -97.8841 46.2905 
-113.815 -98.7534 46.3108 -113.475 -96.4552 48.1208 -114.025 -96.3306 48.4764 
-113.017 -96.7642 47.5125 -112.577 -97.0277 46.9546 -112.33 -97.5179 46.613 
-112.474 -98.4657 46.4299 -112.823 -99.3797 46.4385 -113.254 -96.67 49.0774 
-113.914 -96.706 49.3057 -112.743 -96.8199 48.5896 -112.321 -97.0932 47.8872 
-111.922 -97.4377 47.2601 -111.763 -98.1751 46.7955 -111.929 -99.2036 46.5474 
-112.243 -100.096 46.5475 -113.487 -97.1375 49.6571 -114.103 -97.1388 49.8534 
-112.937 -97.2457 49.372 -112.546 -97.5597 48.8428 -112.17 -97.8756 48.2175 
-111.823 -98.2924 47.6945 -111.697 -99.0705 47.2818 -111.803 -99.9845 47.0311 
-112.026 -100.745 46.9669 -113.746 -97.6417 50.0429 -114.203 -97.5113 50.2768 
-113.21 -97.8135 49.8604 -112.76 -98.1473 49.5808 -112.386 -98.4674 49.1637 
-112.016 -98.6908 48.7622 -111.739 -99.1535 48.4119 -111.656 -99.9336 48.0548 
-111.736 -100.694 47.7674 -111.922 -101.257 47.6284 -111.991 -101.783 48.3651 
-111.757 -101.422 48.5241 -111.939 -101.967 49.3274 -111.633 -100.85 48.8403 
-111.795 -101.589 49.6599 -112.06 -102.056 50.5408 -111.618 -100.031 49.2355 
-111.713 -100.964 50.0834 -111.941 -101.675 51.0031 -112.138 -102.094 51.9117 
-111.763 -99.297 49.5612 -111.689 -100.085 50.4783 -111.803 -101.083 51.4624 
-111.887 -101.807 52.4589 -112.147 -102.262 53.1862 -112.085 -98.9985 49.8205 
-111.836 -99.3945 50.7536 -111.724 -100.263 51.8255 -111.645 -101.286 52.9266 
-111.812 -101.957 53.7568 -112.459 -102.452 54.1556 -112.515 -98.8478 50.0941 
-112.219 -99.1483 50.9684 -111.909 -99.5824 52.0648 -111.591 -100.48 53.2064 
-111.634 -101.3 54.1189 -112.245 -101.907 54.5886 -113.134 -102.472 54.8191 
-113.003 -98.5419 50.3067 -112.744 -99.0064 51.1402 -112.387 -99.2421 52.2241 
-111.902 -99.7516 53.3076 -111.782 -100.49 54.1793 -112.311 -101.146 54.7062 
-113.084 -101.802 55.0403 -113.777 -102.425 55.4258 -113.518 -98.216 50.4564 
-113.266 -98.7382 51.2533 -112.954 -99.046 52.3064 -112.488 -99.3566 53.303 
-112.278 -99.9266 54.061 -112.72 -100.585 54.5703 -113.369 -101.221 55.0175 
-113.813 -101.88 55.5816 -114.173 -102.468 56.2053 -113.933 -97.9358 50.6734 
-113.657 -98.3675 51.4148 -113.414 -98.7544 52.3839 -113.107 -99.1274 53.2571 
-112.931 -99.6468 53.898 -113.279 -100.296 54.3839 -113.864 -100.904 54.9 
-114.156 -101.478 55.603 -114.247 -102.061 56.3918 -114.433 -102.592 57.0607 
-112.265 -102.192 48.9029 -112.248 -102.38 49.9314 -112.725 -102.583 49.4812 
-112.401 -102.403 51.2321 -112.789 -102.718 50.5952 -113.391 -102.833 50.1375 
-112.578 -102.443 52.5383 -113.099 -102.692 51.8811 -113.629 -102.892 51.322 
-114.132 -103.01 50.8848 -112.887 -102.679 53.6061 -113.471 -102.794 53.0092 
-114.039 -102.995 52.4534 -114.374 -103.288 51.9423 -114.607 -103.648 51.4283 
-113.465 -102.902 54.4744 -113.862 -103.079 54.0227 -114.293 -103.29 53.5118 
-114.576 -103.724 52.9271 -114.635 -104.263 52.2789 -114.81 -104.676 51.6563 
-114.068 -102.942 55.2802 -114.309 -103.311 55.0478 -114.448 -103.662 54.7244 
-114.636 -104.145 54.1954 -114.788 -104.656 53.4548 -114.899 -105.048 52.6804 
-115.239 -105.216 52.0297 -114.441 -102.929 56.1549 -114.698 -103.407 56.0358 
-114.722 -103.959 55.8927 -114.757 -104.522 55.6037 -115.035 -104.867 55.0057 
-115.342 -104.991 54.2029 -115.64 -105.06 53.4319 -116.083 -105.098 52.7481 
-114.638 -102.995 57.0778 -114.922 -103.471 56.9867 -115.025 -104.129 56.8518 
-115.015 -104.827 56.6807 -115.263 -105.162 56.3228 -115.741 -105.067 55.6754 
-116.165 -104.897 54.9131 -116.562 -104.845 54.2005 -116.991 -104.89 53.4742 
-114.794 -103.005 57.8822 -114.993 -103.455 57.9383 -115.203 -103.452 58.6249 
-115.286 -103.98 58.8079 -115.585 -103.808 59.4054 -115.19 -104.078 57.8278 
-115.643 -104.396 59.6146 -116.097 -104.014 60.0751 -115.427 -104.706 58.6314 
-115.265 -104.89 57.5791 -116.341 -104.706 59.9688 -116.958 -104.274 60.193 
-115.923 -105.081 59.2102 -115.643 -105.403 58.1588 -115.445 -105.434 57.2453 
-117.35 -105.107 59.806 -118.105 -104.706 60.0044 -116.812 -105.294 59.373 
-116.375 -105.514 58.5599 -116.062 -105.641 57.5903 -115.932 -105.405 56.7086 
-118.479 -105.527 59.7423 -119.321 -105.115 60.0756 -117.83 -105.566 59.3609 
-117.383 -105.546 58.8046 -116.924 -105.678 57.8446 -116.62 -105.594 56.8072 
-116.486 -105.158 55.9436 -119.573 -105.743 59.8102 -120.268 -105.324 60.0801 
-118.815 -105.85 59.3604 -118.313 -105.782 58.841 -117.894 -105.822 57.9886 
-117.417 -105.87 56.8304 -117.14 -105.517 55.9225 -116.966 -104.981 55.2068 
-120.331 -105.736 59.4316 -120.721 -105.321 59.5333 -119.698 -106.017 59.0623 
-119.08 -106.174 58.5461 -118.641 -106.204 57.8333 -118.217 -106.13 56.8284 
-117.82 -105.844 55.8823 -117.621 -105.3 55.2438 -117.42 -104.887 54.5245 
-120.685 -105.613 58.6296 -120.891 -105.189 58.6899 -120.326 -106.009 58.3946 
-119.791 -106.413 58.016 -119.245 -106.635 57.4713 -118.819 -106.47 56.72 
-118.446 -106.036 55.9029 -118.158 -105.53 55.2271 -117.997 -105.106 54.5782 
-117.772 -104.933 53.7135 -114.601 -102.387 57.4535 -115.048 -102.812 58.1558 
-114.859 -102.001 57.6834 -115.473 -102.419 58.1623 -115.097 -101.436 57.7674 
-115.606 -103.222 58.7218 -115.937 -101.929 58.0676 -115.454 -100.939 57.7516 
-116.197 -102.803 58.5937 -116.105 -103.433 59.437 -116.472 -101.563 57.9108 
-116.131 -100.636 57.5759 -116.772 -102.38 58.4591 -116.776 -102.943 59.2875 
-116.746 -103.491 60.0391 -117.113 -101.199 57.6249 -116.916 -100.337 57.2789 
-117.305 -102.082 58.1723 -117.426 -102.608 59.0349 -117.551 -102.959 59.7999 
-117.8 -103.674 60.1155 -117.75 -100.639 57.4207 -117.544 -100.006 56.9948 
-117.897 -101.616 57.767 -118.068 -102.42 58.5034 -118.354 -102.709 59.3826 
-118.727 -103.069 59.9248 -119.086 -104.042 60.1086 -118.352 -100.132 57.2925 
-118.066 -99.8122 56.6102 -118.579 -100.882 57.6047 -118.775 -101.93 57.9732 
-119.076 -102.577 58.748 -119.458 -102.775 59.5458 -119.847 -103.362 60.0236 
-120.157 -104.449 60.2082 -118.9 -99.9079 56.8604 -118.55 -99.7084 56.0176 
-119.23 -100.295 57.4562 -119.455 -101.142 57.7197 -119.687 -102.085 58.1465 
-119.96 -102.589 58.8995 -120.228 -102.979 59.546 -120.514 -103.785 59.8656 
-120.716 -104.717 59.8702 -119.346 -99.7782 56.1449 -118.991 -99.4847 55.4338 
-119.71 -100.042 56.9275 -119.942 -100.558 57.4001 -120.116 -101.373 57.6649 
[...]
CELL_DATA 2000
SCALARS Distance double
LOOKUP_TABLE default
162.241 161.738 162.129 162.431 161.299 161.667 161.963 162.336 162.626 
160.847 161.23 161.513 161.878 162.15 162.525 162.824 160.325 160.733 
161.007 161.404 161.676 162.057 162.364 162.757 163.104 159.789 160.18 
160.445 160.864 161.157 161.572 161.905 162.317 162.679 163.073 163.419 
159.296 159.656 159.924 160.323 160.644 161.059 161.422 161.854 162.242 
162.655 163 163.37 163.681 158.826 159.177 159.461 159.848 160.195 
160.592 160.967 161.382 161.79 162.218 162.602 162.972 163.295 163.634 
163.962 158.374 158.718 159.012 159.404 159.763 160.168 160.541 160.943 
161.337 161.769 162.185 162.591 162.961 163.295 163.635 163.962 164.323 
158.002 158.304 158.607 158.971 159.338 159.738 160.12 160.518 160.904 
161.321 161.744 162.176 162.588 162.967 163.326 163.66 164.013 164.349 
164.704 162.025 161.485 161.653 161.478 160.89 161.091 160.908 161.127 
161.018 160.203 160.471 160.301 160.537 160.4 160.663 160.56 159.445 
159.739 159.556 159.85 159.665 159.98 159.848 160.166 160.045 158.749 
158.985 158.723 159 158.744 159.115 158.965 159.384 159.303 159.646 
159.535 158.096 158.319 158.021 158.19 157.885 158.161 158.02 158.452 
158.453 158.884 158.857 159.164 159.058 157.423 157.67 157.458 157.586 
157.348 157.478 157.395 157.66 157.735 158.095 158.154 158.484 158.426 
158.693 158.579 156.947 157.101 157 157.109 156.991 157.101 157.118 
157.283 157.398 157.586 157.639 157.848 157.792 158.041 157.931 158.203 
158.106 156.808 156.827 156.757 156.775 156.677 156.784 156.822 157.046 
157.164 157.352 157.33 157.429 157.266 157.421 157.271 157.533 157.445 
157.747 157.713 156.784 156.464 156.677 156.631 155.774 156.178 156.211 
156.45 156.479 155.261 155.54 155.734 156.002 156.166 156.403 156.64 
155.352 155.338 155.551 155.669 155.867 156.097 156.376 156.682 156.983 
155.627 155.535 155.53 155.56 155.528 155.716 155.778 156.208 156.41 
156.879 157.038 155.751 155.637 155.431 155.417 155.171 155.251 155.057 
155.395 155.43 156.015 156.177 156.73 156.86 156.025 155.745 155.548 
155.349 155.179 155.016 154.866 154.828 154.856 155.121 155.372 155.843 
156.143 156.606 156.862 156.566 156.184 156.067 155.711 155.701 155.367 
155.411 155.073 155.185 155.006 155.297 155.399 155.813 156.087 156.478 
156.791 157.111 157.11 156.796 156.721 156.374 156.401 156.083 156.183 
155.844 155.945 155.623 155.808 155.66 156.003 156.054 156.456 156.607 
156.965 157.157 157.457 157.618 157.202 157.555 157.883 156.783 157.171 
157.569 157.929 158.344 156.387 156.765 157.206 157.623 158.097 158.458 
158.884 156.197 156.433 156.834 157.229 157.73 158.182 158.656 158.997 
159.406 156.326 156.393 156.707 156.912 157.347 157.771 158.28 158.713 
159.152 159.504 159.961 156.574 156.617 156.91 156.933 157.255 157.465 
157.903 158.294 158.746 159.17 159.627 160.066 160.601 156.783 156.857 
157.197 157.208 157.489 157.512 157.82 158.001 158.397 158.75 159.227 
159.679 160.226 160.709 161.269 157.035 157.071 157.424 157.477 157.785 
157.787 158.036 158.046 158.368 158.538 159.046 159.381 160 160.393 
160.996 161.39 161.915 157.319 157.319 157.594 157.662 157.957 158.027 
158.289 158.297 158.593 158.654 159.157 159.379 160.049 160.334 160.974 
161.243 161.78 162.059 162.523 157.949 158.206 158.209 158.565 158.647 
158.554 158.886 158.893 159.302 159.171 159.048 159.365 159.296 159.682 
159.681 160.098 159.711 159.588 159.936 159.836 160.237 160.151 160.559 
160.506 160.915 160.347 160.195 160.596 160.461 160.91 160.786 161.217 
161.076 161.477 161.369 161.78 161.081 160.932 161.376 161.193 161.64 
161.492 161.938 161.787 162.176 162.008 162.374 162.255 162.63 161.765 
161.685 162.161 162.001 162.418 162.24 162.664 162.51 162.908 162.726 
163.056 162.873 163.191 163.067 163.384 162.347 162.316 162.806 162.73 
163.165 163.013 163.435 163.264 163.687 163.485 163.829 163.582 163.864 
163.655 163.949 163.802 164.097 162.888 162.856 163.33 163.31 163.777 
163.708 164.154 164.033 164.461 164.285 164.637 164.383 164.642 164.37 
164.624 164.412 164.698 164.529 164.801 163.339 164.159 163.751 163.774 
164.969 164.585 164.619 164.216 164.238 165.731 165.385 165.444 165.063 
165.105 164.684 164.669 166.508 166.16 166.239 165.869 165.909 165.526 
165.523 165.086 164.999 167.407 166.993 167.074 166.668 166.679 166.289 
166.25 165.866 165.767 165.337 165.15 168.46 167.968 168.006 167.527 
167.509 167.067 166.995 166.568 166.44 166.023 165.833 165.39 165.137 
169.411 168.995 168.945 168.449 168.358 167.897 167.806 167.346 167.195 
166.717 166.516 166.05 165.822 165.352 165.112 169.85 169.7 169.591 
169.252 169.079 168.682 168.539 168.124 167.945 167.476 167.226 166.744 
166.496 166.04 165.819 165.361 165.159 169.774 169.84 169.757 169.659 
169.51 169.27 169.111 168.777 168.571 168.153 167.856 167.398 167.08 
166.66 166.403 166.018 165.81 165.409 165.22 163.247 163.347 163.564 
164.063 163.321 163.64 164.19 164.396 164.875 163.246 163.603 164.24 
164.507 165.015 165.177 165.616 163.334 163.611 164.3 164.571 165.12 
165.297 165.738 165.896 166.358 163.544 163.763 164.406 164.665 165.235 
165.419 165.88 166.021 166.51 166.689 167.252 163.697 163.91 164.459 
164.736 165.313 165.554 166.071 166.213 166.718 166.873 167.492 167.691 
168.339 163.813 163.998 164.493 164.74 165.31 165.607 166.196 166.42 
166.943 167.1 167.66 167.898 168.55 168.791 169.328 163.917 164.101 
164.574 164.78 165.297 165.579 166.149 166.47 166.992 167.242 167.69 
167.952 168.445 168.805 169.269 169.55 169.783 163.939 164.164 164.613 
164.839 165.282 165.533 165.987 166.32 166.781 167.133 167.522 167.829 
168.164 168.517 168.841 169.232 169.43 169.699 169.7 157.507 157.685 
157.64 157.727 157.872 157.786 157.93 157.916 158.077 158.436 158.111 
158.257 158.162 158.405 158.335 158.476 159.431 158.906 159.014 158.69 
158.976 158.787 159.037 158.798 158.907 160.479 159.989 160.082 159.632 
159.878 159.546 159.856 159.537 159.787 159.396 159.585 161.348 160.975 
161.089 160.686 160.846 160.487 160.699 160.4 160.655 160.361 160.634 
160.248 160.491 162.117 161.804 161.945 161.602 161.728 161.374 161.464 
161.147 161.263 161.07 161.302 161.16 161.422 161.138 161.336 162.843 
162.569 162.732 162.42 162.57 162.22 162.321 161.919 161.976 161.637 
161.802 161.66 161.96 161.865 162.125 161.88 162.056 163.508 163.281 
163.465 163.189 163.353 163.046 163.204 162.829 162.956 162.506 162.664 
162.299 162.603 162.407 162.767 162.582 162.843 162.562 162.75 157.451 
157.438 157.524 157.624 157.449 157.515 157.672 157.697 157.843 157.667 
157.627 157.895 157.875 158.172 158.116 158.47 158.126 158.002 158.307 
158.24 158.65 158.603 159.056 158.98 159.47 158.595 158.514 158.788 
158.705 159.06 159.072 159.51 159.542 159.987 159.992 160.443 158.964 
158.942 159.237 159.164 159.455 159.434 159.795 159.86 160.259 160.353 
160.757 160.841 161.25 159.346 159.309 159.645 159.595 159.936 159.869 
160.242 160.19 160.592 160.597 161.024 161.09 161.522 161.598 162.009 
159.779 159.712 160.035 160.005 160.384 160.365 160.778 160.723 161.13 
161.052 161.467 161.435 161.864 161.885 162.295 162.342 162.724 160.216 
160.142 160.443 160.403 160.763 160.774 161.166 161.189 161.563 161.559 
161.92 161.906 162.275 162.265 162.619 162.627 162.969 163.018 163.365 
160.562 161.247 160.86 160.815 162.006 161.603 161.552 161.151 161.138 
162.752 162.377 162.356 161.934 161.89 161.496 161.512 163.516 163.143 
163.176 162.765 162.72 162.268 162.218 161.856 161.883 164.267 163.917 
163.949 163.582 163.566 163.116 163.035 162.589 162.574 162.229 162.27 
164.872 164.6 164.593 164.292 164.26 163.901 163.837 163.421 163.383 
162.982 163.009 162.641 162.66 165.364 165.131 165.141 164.875 164.83 
164.516 164.458 164.138 164.127 163.789 163.796 163.417 163.403 163.013 
162.982 165.861 165.615 165.663 165.421 165.431 165.106 165.057 164.723 
164.731 164.455 164.504 164.183 164.169 163.768 163.715 163.32 163.298 
166.348 166.107 166.146 165.948 166.02 165.745 165.739 165.376 165.361 
165.049 165.111 164.842 164.885 164.532 164.504 164.087 164.065 163.671 
163.688 166.578 166.905 166.613 166.422 167.378 167.034 166.859 166.539 
166.335 167.831 167.52 167.304 166.988 166.741 166.409 166.088 168.154 
167.876 167.615 167.354 167.066 166.769 166.426 166.076 165.713 168.525 
168.168 167.882 167.606 167.33 167.05 166.724 166.397 166.059 165.724 
165.435 168.942 168.568 168.251 167.922 167.671 167.354 167.056 166.706 
166.377 166.058 165.771 165.483 165.202 169.17 168.915 168.599 168.308 
168.06 167.751 167.464 167.085 166.727 166.369 166.057 165.779 165.491 
165.203 164.856 169.297 169.112 168.886 168.627 168.397 168.12 167.856 
167.508 167.15 166.747 166.39 166.058 165.765 165.476 165.151 164.819 
164.444 169.535 169.358 169.254 168.967 168.752 168.441 168.177 167.868 
167.548 167.178 166.799 166.414 166.062 165.745 165.418 165.112 164.75 
164.413 164.051 166.832 167.274 167.04 167.078 167.707 167.454 167.488 
167.345 167.516 168.312 167.932 167.941 167.749 167.916 167.826 167.999 
169.037 168.605 168.472 168.188 168.246 168.166 168.346 168.27 168.379 
169.301 169.115 168.805 168.594 168.447 168.384 168.52 168.562 168.809 
168.702 168.834 169.032 169.014 168.684 168.66 168.472 168.47 168.569 
168.682 169.057 169.142 169.457 169.256 169.321 168.956 168.755 168.533 
168.479 168.476 168.492 168.67 168.749 169.132 169.327 169.733 169.778 
169.878 169.623 169.497 169.259 168.925 168.734 168.542 168.63 168.618 
168.846 168.883 169.134 169.305 169.598 169.83 169.942 169.945 169.794 
169.603 169.46 169.407 169.226 168.962 168.804 168.762 168.78 168.874 
168.952 168.984 169.129 169.192 169.49 169.581 169.8 169.736 169.727 
169.604 169.529 169.543 166.818 167.02 167.082 167.33 167.085 167.277 
167.587 167.579 167.775 166.923 167.244 167.639 167.791 168.076 168.068 
168.38 166.645 167.004 167.436 167.75 168.166 168.341 168.769 168.816 
169.18 166.292 166.674 167.086 167.488 167.946 168.31 168.782 169.067 
169.441 169.507 169.55 165.816 166.244 166.632 167.092 167.52 167.972 
168.352 168.797 169.089 169.448 169.518 169.553 169.322 165.271 165.712 
166.099 166.59 167.031 167.502 167.835 168.233 168.422 168.832 168.976 
169.303 169.343 169.327 169.237 164.763 165.178 165.56 166.04 166.496 
166.996 167.402 167.771 167.987 168.239 168.4 168.727 168.988 169.279 
169.493 169.467 169.519 164.344 164.717 165.089 165.517 165.926 166.425 
166.853 167.33 167.658 167.946 168.121 168.322 168.528 168.868 169.158 
169.493 169.644 169.696 169.617 164.258 164.394 164.553 165.01 164.423 
164.666 165.115 165.3 165.789 164.172 164.566 164.996 165.302 165.778 
166.079 166.644 163.739 164.182 164.613 165.034 165.525 165.962 166.588 
166.968 167.506 163.485 163.786 164.23 164.614 165.154 165.643 166.335 
166.843 167.466 167.749 168.075 163.488 163.669 164.079 164.339 164.876 
165.306 165.992 166.532 167.157 167.584 167.964 168.173 168.424 163.416 
163.658 163.996 164.236 164.681 165.061 165.654 166.155 166.684 167.146 
167.484 167.876 168.194 168.534 168.928 163.102 163.445 163.745 164.054 
164.405 164.792 165.273 165.755 166.205 166.631 166.9 167.291 167.577 
168.089 168.535 169.034 169.415 162.717 163.065 163.381 163.718 164.046 
164.424 164.829 165.292 165.709 166.14 166.417 166.751 166.977 167.412 
167.785 168.396 168.793 169.314 169.463 162.646 162.816 162.919 163.306 
163.014 163.11 163.503 163.596 163.999 163.225 163.313 163.725 163.819 
164.241 164.328 164.78 163.5 163.554 163.956 164.038 164.45 164.559 
165.006 165.14 165.606 163.811 163.862 164.252 164.292 164.663 164.738 
165.145 165.303 165.747 165.915 166.296 164.083 164.164 164.583 164.62 
164.975 164.978 165.327 165.419 165.843 166.012 166.423 166.538 166.885 
164.359 164.433 164.875 164.943 165.317 165.312 165.62 165.633 166.001 
166.119 166.546 166.681 167.101 167.191 167.655 164.698 164.735 165.146 
165.212 165.577 165.614 165.919 165.929 166.25 166.309 166.684 166.802 
167.201 167.365 167.825 168.025 168.553 165.056 165.076 165.432 165.465 
165.786 165.833 166.15 166.199 166.547 166.587 166.938 166.976 167.299 
167.405 167.759 168.015 168.44 168.778 169.168 169.168 168.529 168.868 
168.843 167.917 168.262 168.401 168.643 168.72 167.542 167.807 167.991 
168.24 168.394 168.633 168.768 167.281 167.562 167.785 167.949 168.028 
168.225 168.31 168.615 168.752 166.891 167.274 167.585 167.815 167.919 
167.969 167.995 168.141 168.325 168.631 168.926 166.41 166.804 167.13 
167.528 167.787 167.948 168.089 168.087 168.33 168.422 168.814 169.011 
169.368 166.018 166.326 166.592 167.004 167.339 167.725 168.042 168.245 
168.568 168.654 169.02 169.087 169.382 169.466 169.614 165.712 165.978 
166.218 166.526 166.837 167.24 167.622 168.039 168.425 168.75 169.076 
169.259 169.462 169.517 169.591 169.603 169.602 165.372 165.672 165.921 
166.202 166.476 166.804 167.152 167.568 167.955 168.395 168.715 169.071 
169.261 169.469 169.559 169.626 169.675 169.639 169.655 156.787 156.937 
156.798 156.831 157.486 157.155 157.216 157.032 157.32 158.257 157.894 
158.002 157.655 157.941 157.791 158.29 158.948 158.678 158.866 158.554 
158.848 158.583 159.032 158.889 159.405 159.619 159.357 159.595 159.374 
159.736 159.523 159.968 159.742 160.218 160.024 160.493 160.401 160.111 
160.374 160.12 160.497 160.334 160.795 160.642 161.091 160.893 161.319 
161.113 161.52 161.17 160.949 161.282 160.996 161.339 161.093 161.482 
161.346 161.77 161.668 162.07 161.919 162.28 162.087 162.4 161.812 
161.698 162.112 161.916 162.265 161.973 162.26 162.015 162.371 162.262 
162.701 162.612 163.015 162.834 163.141 162.9 163.141 162.332 162.287 
162.71 162.648 163.012 162.824 163.059 162.787 163.032 162.862 163.267 
163.216 163.678 163.566 163.917 163.673 163.907 163.615 163.808 156.776 
156.797 156.753 156.719 157.27 156.948 156.901 156.717 156.644 158.24 
157.691 157.597 157.129 157.037 156.735 156.77 159.316 158.75 158.648 
158.044 157.892 157.353 157.359 157.078 157.326 160.337 159.779 159.663 
159.098 158.955 158.353 158.301 157.846 158.062 157.824 158.137 161.35 
160.787 160.642 160.076 159.951 159.395 159.339 158.847 158.96 158.63 
158.887 158.632 158.825 162.238 161.754 161.613 161.063 160.926 160.379 
160.321 159.836 159.871 159.487 159.6 159.329 159.464 159.215 159.309 
162.964 162.561 162.454 161.99 161.873 161.358 161.293 160.802 160.814 
160.368 160.405 160.021 160.076 159.79 159.874 159.642 159.735 163.623 
163.253 163.182 162.787 162.723 162.273 162.226 161.76 161.771 161.317 
161.359 160.893 160.929 160.495 160.563 160.227 160.335 160.076 160.187 
156.783 156.648 156.688 156.475 156.462 156.463 156.156 156.128 155.713 
156.584 156.367 156.042 155.83 155.394 155.306 155.088 157.167 156.733 
156.492 156.019 155.681 155.269 155.126 155.033 155.219 157.883 157.411 
157.161 156.677 156.451 155.929 155.852 155.46 155.639 155.491 155.715 
158.486 158.04 157.671 157.265 157.033 156.703 156.669 156.34 156.43 
156.121 156.233 155.976 156.003 159.027 158.595 158.232 157.755 157.504 
157.188 157.186 156.997 157.068 156.831 156.838 156.55 156.541 156.251 
156.28 159.534 159.159 158.924 158.428 158.238 157.791 157.798 157.509 
157.594 157.342 157.325 157.058 157.026 156.796 156.856 156.629 156.757 
159.999 159.687 159.541 159.152 159.025 158.606 158.582 158.222 158.256 
157.916 157.867 157.528 157.451 157.216 157.254 157.123 157.242 157.103 
157.226 166.496 165.95 166.343 166.604 165.399 165.739 165.916 166.386 
166.611 164.906 165.199 165.304 165.68 165.852 166.313 166.466 164.285 
164.652 164.735 165.094 165.211 165.593 165.736 166.148 166.246 163.494 
163.914 163.97 164.425 164.507 164.934 165.023 165.442 165.527 165.919 
165.937 162.736 163.105 163.134 163.579 163.641 164.114 164.156 164.638 
164.678 165.149 165.15 165.546 165.473 162.01 162.366 162.369 162.769 
162.808 163.234 163.251 163.7 163.705 164.202 164.201 164.68 164.62 
165.018 164.919 161.239 161.599 161.549 161.964 161.951 162.395 162.382 
162.811 162.775 163.22 163.2 163.684 163.658 164.116 164.05 164.454 
164.391 160.541 160.831 160.737 161.095 161.029 161.47 161.437 161.904 
161.861 162.304 162.255 162.706 162.688 163.156 163.143 163.579 163.555 
163.962 163.96 
POINT_DATA 1002
SCALARS Distance double
LOOKUP_TABLE default
162.528 162.377 161.82 162.04 161.354 162.726 161.607 160.936 162.245 
162.909 161.148 160.457 161.785 162.422 163.143 160.593 159.926 161.28 
161.965 162.708 163.463 160.023 159.421 160.722 161.472 162.281 163.05 
163.745 159.525 158.944 160.226 160.985 161.812 162.636 163.317 163.982 
159.065 158.47 159.796 160.566 161.352 162.207 162.965 163.605 164.299 
158.62 158.034 159.351 160.145 160.912 161.748 162.603 163.316 163.985 
164.686 158.26 157.714 158.942 159.72 160.497 161.305 162.18 162.982 
163.679 164.377 165.051 161.879 161.261 161.315 160.698 160.657 160.766 
160.058 159.895 160.148 160.287 159.266 159.176 159.344 159.505 159.754 
158.513 158.56 158.392 158.497 158.895 159.261 157.885 157.846 157.668 
157.597 157.966 158.499 158.812 157.281 157.143 157.209 157.171 157.42 
157.823 158.143 158.324 156.882 156.816 156.84 156.926 157.259 157.518 
157.58 157.656 157.815 156.785 156.823 156.606 156.587 156.954 157.282 
157.191 157.03 157.128 157.392 156.745 156.502 156.146 155.886 155.292 
156.245 155.442 155.05 155.876 156.379 155.523 155.484 155.691 156.036 
156.714 155.6 155.801 155.47 155.424 155.874 156.642 155.512 155.945 
155.185 154.862 154.887 155.531 156.36 155.781 156.352 155.353 155.002 
154.738 154.947 155.641 156.431 156.42 156.927 156.001 155.749 155.483 
155.335 155.611 156.191 156.814 157.04 157.363 156.703 156.5 156.301 
156.052 156.038 156.363 156.816 157.266 157.874 157.527 158.251 157.171 
158.011 158.773 156.762 157.688 158.593 159.29 156.503 157.239 158.267 
159.11 159.821 156.626 156.995 157.811 158.765 159.583 160.482 156.924 
157.181 157.591 158.31 159.165 160.133 161.188 157.149 157.521 157.768 
158.105 158.778 159.739 160.806 161.813 157.363 157.762 158.075 158.269 
158.732 159.628 160.633 161.55 162.384 157.556 157.864 158.246 158.549 
158.963 159.777 160.743 161.546 162.245 162.939 158.493 158.92 159.246 
159.453 159.724 160.077 160.024 160.334 160.655 160.946 160.741 161.026 
161.371 161.628 161.858 161.575 161.814 162.081 162.364 162.539 162.728 
162.293 162.616 162.826 163.088 163.276 163.354 163.492 162.843 163.283 
163.599 163.881 164.093 164.121 164.122 164.237 163.341 163.806 164.245 
164.62 164.882 164.936 164.871 164.882 164.977 163.737 164.177 164.563 
165.016 165.329 164.666 165.811 166.053 165.507 165.143 166.616 166.856 
166.291 165.93 165.496 167.51 167.858 167.099 166.648 166.174 165.633 
168.537 168.988 167.974 167.455 166.885 166.265 165.604 169.461 169.785 
168.839 168.264 167.701 167.003 166.281 165.583 169.857 169.911 169.458 
168.944 168.41 167.726 166.951 166.257 165.619 169.753 169.658 169.665 
169.41 168.981 168.325 167.518 166.774 166.181 165.632 163.066 163.89 
163.087 163.945 162.933 164.735 163.934 162.872 164.842 165.469 164.03 
163.102 164.937 165.581 166.167 164.16 163.372 165.029 165.742 166.317 
167.046 164.199 163.519 165.021 165.892 166.581 167.258 168.173 164.277 
163.643 165.003 165.909 166.788 167.461 168.264 169.214 164.385 163.725 
165.062 165.827 166.713 167.477 168.132 168.939 169.654 164.384 163.71 
165.072 165.713 166.422 167.209 167.88 168.482 169.103 169.533 157.601 
157.762 157.692 157.906 158.021 158.124 158.407 158.882 158.459 158.635 
159.43 159.982 159.205 159.267 159.211 160.555 160.902 160.263 160.167 
160.136 160.015 161.471 161.671 161.243 161.033 160.898 160.934 160.952 
162.271 162.41 162.093 161.849 161.512 161.38 161.596 161.719 163.028 
163.091 162.898 162.72 162.396 162.02 162.006 162.282 162.377 157.389 
157.581 157.345 157.619 157.384 157.818 157.88 157.739 158.188 158.51 
158.39 158.253 158.653 159.111 159.55 158.902 158.631 159.076 159.453 
159.967 160.445 159.296 158.967 159.516 159.774 160.161 160.65 161.178 
159.665 159.407 159.975 160.319 160.637 160.982 161.443 161.946 160.065 
159.867 160.375 160.804 161.214 161.54 161.882 162.268 162.671 160.495 
160.288 160.769 161.145 161.551 161.924 162.299 162.645 162.944 163.294 