# vtk DataFile Version 4.0
vtk output
ASCII
DATASET POLYDATA
POINTS 1002 float
-117.724 -102.338 49.9139 -117.765 -102.213 49.4327 -117.129 -102.492 49.444 
-117.131 -102.702 49.8489 -116.375 -102.675 49.5155 -117.693 -102.564 50.4501 
-116.305 -102.852 50.0503 -115.564 -102.514 49.9211 -117.049 -102.868 50.5173 
-117.601 -102.796 51.2026 -115.44 -102.686 50.6542 -114.913 -102.243 50.5509 
-116.137 -102.918 50.968 -116.854 -102.841 51.6407 -117.39 -102.741 52.3709 
-114.759 -102.584 51.2234 -114.234 -102.287 50.974 -115.281 -102.821 51.592 
-115.995 -102.752 52.254 -116.681 -102.638 53.0178 -117.192 -102.665 53.6353 
-113.955 -102.743 51.4982 -113.248 -102.556 51.1925 -114.563 -102.837 52.0142 
-115.213 -102.707 52.769 -115.961 -102.599 53.5375 -116.61 -102.758 54.0979 
-117.158 -103.034 54.4883 -112.985 -102.886 51.8788 -112.335 -102.726 51.5549 
-113.731 -102.861 52.4577 -114.441 -102.73 53.2522 -115.148 -102.709 53.9649 
-115.853 -102.921 54.4471 -116.535 -103.245 54.7936 -117.176 -103.494 55.1383 
-112.295 -102.848 52.536 -111.83 -102.684 52.1387 -112.964 -102.761 53.1522 
-113.706 -102.65 53.8975 -114.379 -102.831 54.4545 -114.997 -103.182 54.7745 
-115.682 -103.408 55.1282 -116.436 -103.514 55.6028 -117.084 -103.565 56.1331 
-111.893 -102.672 53.2137 -111.536 -102.429 52.8162 -112.411 -102.679 53.7891 
-113.089 -102.586 54.4574 -113.79 -102.809 54.9194 -114.38 -103.321 55.1031 
-114.972 -103.591 55.4119 -115.696 -103.53 56.044 -116.407 -103.464 56.777 
-116.92 -103.468 57.4366 -111.548 -102.399 53.7753 -111.269 -102.042 53.4697 
-111.917 -102.656 54.2012 -112.453 -102.741 54.7419 -113.156 -102.878 55.2075 
-113.852 -103.272 55.4464 -114.476 -103.603 55.7386 -115.175 -103.565 56.4026 
-115.904 -103.43 57.2618 -116.452 -103.464 58.0066 -116.794 -103.563 58.5731 
-117.345 -102.078 49.1114 -116.584 -102.304 49.1552 -116.819 -101.624 48.8891 
-116.025 -101.83 48.9027 -116.339 -101.061 48.6143 -115.761 -102.347 49.3045 
-115.558 -101.252 48.7044 -115.933 -100.633 48.3669 -115.202 -101.877 49.1051 
-115.021 -102.126 49.75 -115.163 -100.647 48.7294 -115.479 -100.191 48.2911 
-114.758 -101.322 49.0608 -114.483 -101.864 49.5047 -114.389 -102.024 50.2841 
-114.776 -99.9906 48.8003 -114.939 -99.5956 48.2257 -114.435 -100.569 49.2283 
-113.992 -101.448 49.4004 -113.711 -101.992 49.8961 -113.506 -102.196 50.648 
-114.34 -99.4671 48.6465 -114.428 -99.0062 48.1264 -114.122 -99.8937 49.2359 
-113.6 -100.687 49.44 -113.085 -101.592 49.6516 -112.759 -102.052 50.2934 
-112.495 -102.358 50.9656 -113.866 -99.0524 48.4902 -114.084 -98.4782 48.1912 
-113.652 -99.5695 49.0041 -113.185 -100.128 49.3544 -112.638 -100.867 49.5917 
-112.301 -101.518 50.1214 -112.054 -101.966 50.8024 -111.85 -102.391 51.418 
-113.474 -98.4759 48.5284 -113.91 -97.9331 48.3987 -113.108 -99.1655 48.8451 
-112.689 -99.8203 49.1848 -112.278 -100.349 49.554 -112.081 -100.858 50.1598 
-111.937 -101.39 50.8436 -111.677 -101.898 51.4106 -111.504 -102.269 52.0414 
-113.228 -97.7792 48.6464 -113.802 -97.4122 48.5934 -112.709 -98.4095 48.8414 
-112.279 -99.2176 49.1122 -111.979 -99.8562 49.5081 -111.902 -100.287 50.2141 
-111.87 -100.773 51.0194 -111.62 -101.333 51.5935 -111.313 -101.75 52.1067 
-111.21 -101.943 52.775 -113.288 -97.1205 48.7739 -112.649 -97.4658 48.8919 
-112.779 -96.9616 49.1193 -112.218 -97.3686 49.3583 -112.432 -97.0578 49.8041 
-112.139 -98.1764 49.1396 -111.992 -97.5771 50.1444 -112.144 -97.2044 50.6744 
-111.851 -98.1189 49.7068 -111.821 -99.0159 49.5025 -111.796 -97.8584 51.0742 
-111.816 -97.2653 51.4586 -111.74 -98.3595 50.6209 -111.654 -98.8879 50.2782 
-111.723 -99.6176 50.199 -111.615 -98.0766 51.9929 -111.655 -97.4966 52.1914 
-111.594 -98.7255 51.7159 -111.441 -99.0994 51.3274 -111.448 -99.495 51.148 
-111.676 -100.133 51.145 -111.473 -98.2914 52.8422 -111.66 -97.8902 52.963 
-111.328 -98.9303 52.737 -111.011 -99.4387 52.3517 -110.822 -99.6971 51.9737 
-111.047 -100.117 51.9201 -111.407 -100.752 51.8586 -111.237 -98.4276 53.5475 
-111.528 -98.0733 53.7191 -110.915 -98.9079 53.4728 -110.452 -99.4668 53.1591 
-110.097 -99.8625 52.6328 -110.229 -100.176 52.4235 -110.665 -100.66 52.4911 
-111.052 -101.236 52.3833 -110.946 -98.4463 54.1949 -111.225 -97.9975 54.4422 
-110.562 -98.8545 54.0154 -110.034 -99.2665 53.7734 -109.611 -99.7139 53.329 
-109.682 -100.129 53.0039 -110.138 -100.519 53.0663 -110.58 -100.953 53.1733 
-110.914 -101.443 53.0315 -110.779 -98.4533 54.8999 -110.981 -97.9024 55.1387 
-110.474 -98.9205 54.6341 -109.995 -99.205 54.401 -109.525 -99.5058 54.1391 
-109.437 -99.9956 53.8642 -109.807 -100.506 53.7781 -110.293 -100.852 53.875 
-110.661 -101.147 53.8839 -110.962 -101.559 53.704 -111.135 -101.943 54.1817 
-110.793 -101.524 54.3791 -110.936 -102.097 54.7726 -110.389 -101.308 54.5024 
-110.481 -101.814 54.9145 -110.815 -102.348 55.46 -109.896 -101.139 54.5811 
-109.862 -101.752 55.1043 -110.234 -102.103 55.6225 -111.004 -102.369 56.3457 
-109.488 -100.623 54.7443 -109.366 -101.473 55.4863 -109.583 -101.978 55.9866 
-110.459 -102.104 56.5531 -111.418 -102.289 57.1476 -109.436 -99.8894 54.9417 
-109.32 -100.655 55.8853 -109.385 -101.458 56.5157 -110.093 -101.847 56.9274 
-111.024 -102.078 57.3876 -111.722 -102.408 57.928 -109.782 -99.4666 55.0637 
-109.623 -99.8636 55.9897 -109.613 -100.544 56.7743 -110.162 -101.227 57.221 
-110.942 -101.702 57.6362 -111.446 -102.166 58.2858 -111.871 -102.584 59.0254 
-110.285 -99.3056 55.2144 -110.098 -99.5749 55.96 -109.948 -99.8881 56.7085 
-110.324 -100.463 57.2628 -111.063 -101.09 57.7457 -111.473 -101.643 58.4946 
-111.66 -102.183 59.4382 -112.058 -102.595 60.151 -110.662 -98.9331 55.4714 
-110.616 -99.3652 56.0767 -110.467 -99.6065 56.6744 -110.571 -99.9298 57.2702 
-111.135 -100.482 57.8801 -111.578 -101.061 58.6289 -111.682 -101.603 59.5844 
-111.885 -102.103 60.4243 -112.368 -102.471 60.8519 -110.849 -98.2953 55.7203 
-110.946 -98.8251 56.2875 -111.027 -99.2462 56.7754 -111.069 -99.5555 57.3193 
-111.306 -99.9635 58.0546 -111.605 -100.483 58.8743 -111.723 -101.021 59.691 
-111.861 -101.542 60.4452 -112.236 -101.982 60.9595 -112.759 -102.297 61.2015 
-111.373 -102.457 54.4647 -111.2 -102.739 55.1662 -111.717 -102.912 54.8878 
-111.314 -102.892 56.0967 -111.612 -103.294 55.7267 -112.3 -103.165 55.404 
-111.765 -102.714 56.989 -111.908 -103.332 56.7287 -112.28 -103.552 56.2892 
-113.088 -103.352 55.8316 -112.18 -102.568 57.6671 -112.476 -103 57.4748 
-112.634 -103.506 57.2244 -113.118 -103.598 56.8037 -113.885 -103.537 56.2461 
-112.364 -102.672 58.6257 -112.901 -102.736 58.2421 -113.206 -103.138 57.9917 
-113.458 -103.501 57.8286 -114.034 -103.512 57.5171 -114.721 -103.508 56.9613 
-112.517 -102.805 59.8249 -113.122 -102.752 59.3983 -113.642 -102.861 59.0097 
-113.974 -103.26 58.7781 -114.393 -103.446 58.6976 -115.045 -103.392 58.4345 
-115.59 -103.393 57.8815 -112.787 -102.795 60.6663 -113.352 -102.888 60.4032 
-113.932 -102.911 60.1492 -114.392 -103.186 59.8572 -114.784 -103.52 59.6355 
-115.311 -103.594 59.4811 -115.878 -103.554 59.1463 -116.229 -103.516 58.6214 
-113.125 -102.653 61.123 -113.641 -102.918 60.9957 -114.221 -103.086 60.9379 
-114.714 -103.351 60.8309 -115.058 -103.761 60.5484 -115.411 -104.038 60.2077 
-115.887 -104.083 59.8577 -116.312 -103.991 59.4838 -116.568 -103.787 59.0916 
-113.37 -102.331 61.5536 -113.783 -102.706 61.5682 -113.933 -102.397 62.2403 
-114.359 -102.829 62.4099 -114.369 -102.548 63.1112 -114.368 -103.06 61.5791 
-114.765 -103.053 63.2558 -114.811 -102.684 63.6441 -114.945 -103.314 62.4263 
-114.942 -103.453 61.6059 -115.255 -103.264 63.5802 -115.569 -102.656 63.7853 
-115.278 -103.657 63.0646 -115.382 -103.945 62.3125 -115.275 -103.99 61.4583 
-116.196 -103.308 63.5867 -116.622 -102.529 63.8736 -115.826 -103.927 63.2562 
-115.647 -104.391 62.8142 -115.531 -104.654 62.0191 -115.453 -104.497 61.0288 
-117.251 -103.2 63.5852 -117.513 -102.423 63.869 -116.846 -103.954 63.2772 
-116.388 -104.579 63.06 -115.987 -105.024 62.4658 -115.767 -105.105 61.3798 
-115.795 -104.707 60.4312 -117.944 -103.025 63.5098 -118.119 -102.28 63.6573 
-117.74 -103.786 63.2629 -117.459 -104.507 63.0899 -117.062 -105.049 62.6708 
-116.616 -105.285 61.6452 -116.328 -105.126 60.5389 -116.289 -104.613 59.9083 
-118.515 -102.796 63.3851 -118.712 -102.044 63.4002 -118.328 -103.533 63.2354 
-118.184 -104.271 63.0163 -118.034 -104.896 62.6155 -117.755 -105.196 61.7668 
-117.305 -105.124 60.7226 -116.881 -104.779 60.0238 -116.667 -104.276 59.6216 
-119.199 -102.538 63.2591 -119.339 -101.787 63.1954 -118.974 -103.248 63.1901 
-118.712 -103.897 62.9565 -118.489 -104.509 62.5093 -118.34 -104.92 61.7787 
-118.109 -104.931 60.926 -117.659 -104.617 60.2911 -117.186 -104.2 59.8713 
-116.92 -103.823 59.35 -112.887 -101.905 61.3322 -113.538 -101.923 61.7914 
-113.081 -101.36 61.4135 -113.76 -101.356 61.9258 -113.229 -100.655 61.5359 
-114.087 -101.993 62.5303 -113.87 -100.668 62.0574 -113.365 -100.08 61.5977 
-114.31 -101.389 62.5923 -114.545 -102.093 63.2248 -113.968 -100.125 62.0932 
-113.665 -99.7781 61.3618 -114.442 -100.648 62.6808 -114.836 -101.359 63.1233 
-115.13 -102.037 63.572 -114.315 -99.739 61.7835 -114.045 -99.3577 61.0172 
-114.658 -100.052 62.6605 -115.072 -100.556 63.151 -115.49 -101.185 63.4325 
-116.005 -101.836 63.7878 -114.771 -99.2629 61.3367 -114.315 -98.6709 60.9137 
-115.122 -99.6698 62.1627 -115.409 -100.005 62.9701 -115.791 -100.455 63.3463 
-116.342 -101.018 63.6702 -116.99 -101.71 63.9592 -115.111 -98.7198 61.047 
-114.593 -98.0505 60.8832 -115.563 -99.3607 61.4408 -115.856 -99.7362 62.2469 
-116.213 -99.994 62.9717 -116.729 -100.358 63.4282 -117.309 -100.929 63.7719 
-117.798 -101.63 63.8532 -115.429 -98.2043 60.82 -114.991 -97.6299 60.6516 
-115.872 -98.9515 60.9222 -116.217 -99.5049 61.3976 -116.655 -99.7426 62.2096 
-117.224 -99.9052 62.9449 -117.731 -100.254 63.4117 -118.121 -100.815 63.5808 
-118.438 -101.447 63.5184 -115.794 -97.7072 60.5553 -115.404 -97.3189 60.2744 
-116.207 -98.342 60.6667 -116.552 -99.0019 60.8919 -116.987 -99.4354 61.4405 
[...]
CELL_DATA 2000
SCALARS Distance double
LOOKUP_TABLE default
162.556 162.256 162.548 162.801 161.792 162.197 162.5 162.812 163.082 
161.283 161.689 162.018 162.424 162.717 163.064 163.312 160.907 161.242 
161.56 161.929 162.242 162.624 162.911 163.252 163.509 160.522 160.887 
161.19 161.528 161.826 162.171 162.493 162.852 163.198 163.514 163.869 
160.076 160.452 160.765 161.139 161.438 161.787 162.109 162.47 162.849 
163.218 163.626 163.962 164.363 159.776 160.06 160.386 160.715 161.053 
161.403 161.767 162.124 162.517 162.881 163.281 163.658 164.047 164.417 
164.762 159.607 159.842 160.156 160.417 160.758 161.065 161.464 161.816 
162.249 162.593 162.998 163.323 163.702 164.049 164.416 164.759 165.071 
159.411 159.661 159.951 160.212 160.526 160.812 161.186 161.531 161.964 
162.33 162.749 163.073 163.456 163.76 164.154 164.463 164.851 165.117 
165.435 162.33 161.727 162.038 161.972 160.965 161.338 161.279 161.602 
161.481 160.241 160.567 160.516 160.855 160.764 161.067 160.972 159.602 
159.884 159.818 160.123 160.077 160.379 160.339 160.628 160.603 158.911 
159.235 159.159 159.46 159.418 159.73 159.709 160.016 159.974 160.272 
160.211 158.166 158.523 158.493 158.805 158.736 159.048 158.987 159.336 
159.266 159.597 159.501 159.817 159.752 157.509 157.823 157.844 158.157 
158.093 158.359 158.249 158.564 158.505 158.857 158.815 159.128 159.107 
159.415 159.455 156.98 157.211 157.188 157.507 157.458 157.731 157.626 
157.876 157.854 158.166 158.244 158.54 158.612 158.866 158.935 159.217 
159.303 156.541 156.676 156.533 156.813 156.743 157.069 157.015 157.299 
157.319 157.623 157.771 158.08 158.225 158.461 158.527 158.748 158.797 
159.071 159.125 156.263 155.8 156.028 156.163 155.615 155.656 155.757 
156.036 156.336 155.751 155.662 155.734 155.787 156.052 156.321 156.674 
155.937 155.901 156.039 155.96 156.168 156.205 156.541 156.74 157.102 
156.15 156.135 156.414 156.353 156.556 156.449 156.674 156.729 157.088 
157.262 157.628 156.514 156.434 156.715 156.71 156.891 156.798 156.849 
156.832 157.018 157.22 157.553 157.786 158.075 156.826 156.76 156.853 
156.889 156.93 156.939 156.835 156.838 156.819 157.016 157.24 157.574 
157.863 158.13 158.347 156.923 156.913 156.883 156.889 156.809 156.815 
156.664 156.676 156.619 156.759 156.956 157.24 157.569 157.858 158.141 
158.363 158.593 156.966 156.961 156.999 156.931 156.891 156.762 156.672 
156.568 156.593 156.633 156.896 157.079 157.472 157.678 158.024 158.198 
158.475 158.647 158.905 159.045 158.615 158.927 159.156 158.204 158.519 
158.736 159.06 159.364 157.719 158.105 158.337 158.653 158.915 159.301 
159.704 157.153 157.583 157.883 158.25 158.519 158.867 159.247 159.697 
160.187 156.774 157.071 157.416 157.798 158.158 158.511 158.926 159.313 
159.829 160.252 160.768 156.803 156.88 157.193 157.432 157.826 158.17 
158.642 159.045 159.586 159.983 160.522 160.884 161.38 157.059 157.062 
157.344 157.399 157.719 157.907 158.345 158.736 159.3 159.747 160.287 
160.666 161.148 161.501 161.957 157.182 157.281 157.575 157.635 157.911 
157.941 158.28 158.496 159.034 159.446 160.024 160.418 160.89 161.242 
161.668 162.031 162.427 157.088 157.266 157.544 157.754 158.057 158.154 
158.446 158.542 158.975 159.251 159.798 160.158 160.626 160.963 161.351 
161.704 162.079 162.439 162.776 159.367 159.497 159.59 159.925 159.754 
159.793 160.159 160.198 160.539 160.174 160.162 160.576 160.535 160.906 
160.871 161.232 160.666 160.647 161.103 161.045 161.429 161.331 161.696 
161.632 162.019 161.17 161.134 161.565 161.554 161.948 161.882 162.225 
162.137 162.499 162.445 162.809 161.738 161.643 162.021 161.979 162.373 
162.354 162.727 162.665 163.023 162.945 163.316 163.233 163.556 162.331 
162.232 162.599 162.483 162.862 162.795 163.215 163.167 163.589 163.507 
163.922 163.808 164.186 164.017 164.311 162.807 162.785 163.173 163.086 
163.473 163.365 163.804 163.722 164.197 164.113 164.576 164.467 164.886 
164.72 165.044 164.803 165.034 163.139 163.183 163.586 163.598 164.021 
163.983 164.445 164.374 164.858 164.765 165.22 165.115 165.514 165.394 
165.709 165.524 165.727 165.476 165.612 163.427 164.064 163.792 163.907 
164.796 164.501 164.655 164.333 164.435 165.481 165.251 165.455 165.155 
165.318 164.921 164.968 166.061 165.891 166.125 165.919 166.127 165.826 
165.922 165.463 165.424 166.702 166.5 166.754 166.549 166.775 166.559 
166.694 166.357 166.33 165.856 165.746 167.337 167.177 167.445 167.224 
167.464 167.22 167.386 167.075 167.074 166.666 166.544 166.098 165.971 
167.723 167.699 167.953 167.859 168.113 167.939 168.139 167.829 167.854 
167.409 167.274 166.818 166.659 166.258 166.115 167.939 167.971 168.222 
168.227 168.476 168.455 168.671 168.529 168.577 168.211 168.046 167.553 
167.315 166.876 166.668 166.308 166.105 168.16 168.193 168.472 168.467 
168.683 168.686 168.834 168.839 168.856 168.737 168.557 168.231 167.912 
167.488 167.167 166.786 166.517 166.195 165.953 163.243 163.133 163.418 
163.873 162.931 163.295 163.797 164.091 164.577 162.658 163.052 163.585 
163.966 164.462 164.779 165.229 162.474 162.791 163.293 163.693 164.192 
164.58 165.026 165.357 165.78 162.375 162.648 163.098 163.426 163.904 
164.269 164.717 165.085 165.537 165.9 166.383 162.2 162.525 162.983 
163.283 163.742 164.035 164.467 164.783 165.238 165.623 166.145 166.542 
167.021 161.981 162.324 162.821 163.155 163.618 163.905 164.327 164.596 
165.033 165.358 165.862 166.263 166.749 167.11 167.45 161.841 162.138 
162.624 162.965 163.427 163.746 164.175 164.47 164.912 165.207 165.67 
166 166.437 166.785 167.121 167.425 167.665 161.764 162.015 162.446 
162.759 163.193 163.519 163.943 164.28 164.725 165.063 165.494 165.807 
166.165 166.466 166.75 167.058 167.302 167.606 167.845 157.06 157.203 
157.227 157.533 157.555 157.454 157.76 157.815 158.129 158.105 157.885 
158.119 158.094 158.446 158.427 158.647 158.787 158.493 158.664 158.51 
158.827 158.789 159.107 158.985 159.218 159.549 159.23 159.398 159.127 
159.364 159.219 159.515 159.442 159.742 159.64 159.944 160.204 159.962 
160.118 159.873 160.073 159.835 160.037 159.862 160.103 160.055 160.366 
160.356 160.677 160.623 160.479 160.583 160.465 160.675 160.529 160.733 
160.48 160.645 160.444 160.718 160.688 161.057 161.055 161.391 160.966 
160.827 160.934 160.834 161.064 161.023 161.312 161.168 161.368 161.098 
161.32 161.141 161.515 161.46 161.867 161.799 162.135 161.408 161.24 
161.422 161.256 161.519 161.427 161.765 161.691 161.976 161.796 162.022 
161.815 162.135 162.014 162.416 162.324 162.677 162.556 162.837 156.926 
156.95 156.937 157.047 157.052 157.044 157.168 157.184 157.441 157.017 
157.126 157.353 157.402 157.68 157.704 158.037 157.035 157.118 157.43 
157.556 157.876 157.951 158.253 158.315 158.678 157.266 157.274 157.592 
157.666 158 158.085 158.373 158.466 158.812 158.962 159.39 157.385 
157.489 157.771 157.866 158.195 158.256 158.56 158.593 158.943 159.069 
159.523 159.695 160.096 157.27 157.46 157.717 157.924 158.267 158.444 
158.808 158.864 159.209 159.255 159.665 159.807 160.208 160.325 160.578 
157.216 157.34 157.62 157.806 158.178 158.433 158.869 159.069 159.444 
159.528 159.846 159.937 160.257 160.385 160.642 160.718 160.903 157.374 
157.406 157.718 157.807 158.193 158.377 158.829 159.067 159.482 159.659 
159.969 160.071 160.329 160.424 160.671 160.762 160.989 161.054 161.286 
157.631 158.196 157.917 157.972 158.85 158.529 158.598 158.321 158.453 
159.575 159.226 159.298 158.991 159.117 158.856 159.048 160.296 159.964 
160.019 159.701 159.788 159.511 159.65 159.448 159.644 160.97 160.662 
160.722 160.411 160.472 160.167 160.262 160.022 160.172 159.996 160.143 
161.678 161.346 161.431 161.116 161.192 160.859 160.938 160.645 160.783 
160.549 160.684 160.454 160.538 162.413 162.078 162.163 161.848 161.945 
161.604 161.669 161.336 161.447 161.187 161.327 161.058 161.128 160.837 
160.876 163.041 162.761 162.811 162.547 162.647 162.36 162.429 162.079 
162.137 161.839 161.96 161.708 161.794 161.482 161.495 161.179 161.202 
163.548 163.311 163.331 163.11 163.203 163.004 163.116 162.828 162.875 
162.535 162.601 162.325 162.425 162.146 162.186 161.846 161.849 161.519 
161.539 163.828 164.194 163.871 163.611 164.556 164.255 164.018 163.697 
163.511 164.901 164.646 164.499 164.172 164.013 163.673 163.477 165.374 
165.081 165.009 164.682 164.522 164.18 163.945 163.582 163.268 166.043 
165.675 165.569 165.196 164.965 164.618 164.327 163.997 163.67 163.305 
162.979 166.697 166.338 166.138 165.736 165.422 165.022 164.694 164.346 
164.049 163.704 163.409 163.049 162.772 167.187 166.864 166.604 166.237 
165.922 165.508 165.203 164.788 164.518 164.128 163.854 163.48 163.18 
162.832 162.526 167.562 167.25 166.963 166.639 166.365 166.015 165.76 
165.362 165.085 164.656 164.337 163.926 163.586 163.215 162.869 162.528 
162.191 167.843 167.564 167.263 166.973 166.705 166.42 166.165 165.855 
165.543 165.171 164.784 164.379 163.984 163.602 163.235 162.873 162.518 
162.177 161.855 164.018 164.378 164.3 164.433 164.638 164.652 164.86 
164.72 164.782 164.841 164.885 165.153 165.114 165.186 164.993 165.022 
165.105 165.092 165.401 165.418 165.588 165.395 165.4 165.22 165.392 
165.441 165.367 165.667 165.714 166.028 165.884 165.97 165.679 165.819 
165.712 166.061 165.709 165.655 165.866 165.952 166.309 166.337 166.54 
166.317 166.416 166.21 166.496 166.455 166.795 165.826 165.839 165.99 
166.072 166.37 166.521 166.8 166.791 166.912 166.761 166.947 166.888 
167.215 167.164 167.388 165.924 165.949 166.133 166.161 166.416 166.543 
166.875 166.98 167.226 167.167 167.365 167.296 167.617 167.595 167.9 
167.745 167.855 166.158 166.142 166.357 166.323 166.54 166.605 166.958 
167.102 167.488 167.506 167.793 167.711 168.026 168 168.346 168.268 
168.444 168.187 168.172 163.827 163.552 163.841 164.11 163.277 163.562 
163.848 164.107 164.362 163.103 163.388 163.816 163.991 164.303 164.415 
164.647 162.916 163.27 163.814 164.076 164.511 164.563 164.817 164.79 
164.997 162.619 163.037 163.53 163.953 164.403 164.699 165.017 165.083 
165.283 165.225 165.407 162.263 162.702 163.145 163.555 163.919 164.343 
164.717 165.095 165.426 165.549 165.718 165.634 165.723 161.855 162.318 
162.798 163.186 163.525 163.846 164.207 164.653 165.141 165.536 165.823 
165.882 165.868 165.792 165.766 161.447 161.878 162.345 162.802 163.17 
163.503 163.801 164.183 164.631 165.142 165.514 165.801 165.773 165.781 
165.619 165.68 165.716 161.162 161.48 161.865 162.3 162.682 163.095 
163.386 163.759 164.07 164.559 164.881 165.325 165.363 165.525 165.345 
165.43 165.424 165.648 165.872 161.176 161.384 161.431 161.803 161.678 
161.694 162.069 162.132 162.576 162.009 162.06 162.495 162.489 162.891 
162.915 163.313 162.232 162.364 162.839 162.921 163.299 163.275 163.577 
163.59 163.974 162.461 162.555 162.983 163.135 163.507 163.589 163.822 
163.833 164.098 164.225 164.643 162.832 162.862 163.254 163.282 163.645 
163.718 164.024 164.046 164.278 164.318 164.584 164.782 165.058 163.06 
163.206 163.599 163.619 163.955 163.954 164.333 164.33 164.678 164.603 
164.844 164.784 164.956 165.033 165.158 162.957 163.235 163.577 163.795 
164.096 164.236 164.582 164.679 165.048 165.05 165.318 165.186 165.348 
165.179 165.33 165.233 165.412 162.761 163.002 163.268 163.565 163.858 
164.171 164.513 164.783 165.096 165.264 165.467 165.519 165.655 165.615 
165.782 165.667 165.89 165.733 165.969 162.785 162.998 162.975 163.217 
163.328 163.255 163.491 163.475 163.82 163.622 163.62 163.926 163.87 
164.223 164.189 164.569 163.808 163.861 164.218 164.285 164.65 164.644 
164.948 164.907 165.164 164.141 164.084 164.403 164.483 164.842 164.942 
165.16 165.172 165.284 165.317 165.451 164.669 164.539 164.821 164.741 
165.067 165.087 165.319 165.292 165.355 165.335 165.448 165.53 165.681 
165.094 165.054 165.336 165.233 165.519 165.433 165.711 165.577 165.727 
165.534 165.689 165.623 165.894 165.87 166.01 165.359 165.378 165.645 
165.641 165.899 165.88 166.172 166.09 166.321 166.093 166.25 166.04 
166.288 166.209 166.447 166.273 166.268 165.657 165.626 165.863 165.863 
166.102 166.142 166.436 166.485 166.768 166.686 166.828 166.619 166.707 
166.586 166.726 166.667 166.706 166.481 166.339 166.428 166.747 166.611 
166.557 166.816 166.798 166.78 166.675 166.693 166.917 166.886 167.002 
166.915 167.08 166.963 167.163 167.103 167.105 167.315 167.243 167.52 
167.444 167.76 167.596 167.777 167.027 167.221 167.422 167.514 167.727 
167.805 168.078 168.11 168.296 168.127 168.125 166.666 166.974 167.182 
167.436 167.585 167.783 167.934 168.151 168.333 168.447 168.541 168.388 
168.371 166.329 166.599 166.881 167.155 167.419 167.596 167.785 167.925 
168.142 168.334 168.582 168.676 168.816 168.664 168.664 166.117 166.344 
166.674 166.941 167.34 167.544 167.897 167.961 168.248 168.289 168.572 
168.674 168.883 168.931 168.953 168.839 168.697 165.954 166.177 166.498 
166.769 167.169 167.473 167.895 168.116 168.457 168.526 168.745 168.751 
168.858 168.889 168.862 168.879 168.705 168.638 168.37 156.706 157.039 
156.899 156.916 157.487 157.247 157.267 157.076 157.036 158.17 157.804 
157.855 157.559 157.653 157.323 157.369 158.997 158.612 158.719 158.328 
158.479 158.101 158.234 157.832 157.942 159.714 159.433 159.577 159.248 
159.393 159.015 159.116 158.712 158.762 158.394 158.455 160.323 160.078 
160.219 159.999 160.153 159.876 159.964 159.582 159.599 159.183 159.218 
158.858 158.963 161.044 160.727 160.878 160.614 160.8 160.559 160.706 
160.389 160.455 160.047 160.111 159.698 159.843 159.468 159.672 161.841 
161.53 161.734 161.398 161.615 161.281 161.459 161.126 161.245 160.89 
160.98 160.608 160.73 160.378 160.541 160.209 160.37 162.463 162.285 
162.538 162.297 162.541 162.195 162.34 161.939 162.031 161.669 161.776 
161.441 161.543 161.203 161.288 160.978 161.058 160.781 160.853 156.579 
156.753 156.609 156.442 156.721 156.597 156.329 156.318 156.149 156.919 
156.558 156.143 156.038 155.826 155.948 155.921 157.546 156.987 156.546 
156.063 155.811 155.678 155.735 155.856 155.989 158.175 157.719 157.424 
156.81 156.549 156.032 156.025 155.86 156.042 156.05 156.129 158.685 
158.301 158.112 157.692 157.496 156.966 156.803 156.379 156.381 156.208 
156.262 156.176 156.156 159.368 158.886 158.689 158.301 158.168 157.783 
157.618 157.168 157.016 156.652 156.617 156.399 156.42 156.263 156.315 
160.1 159.635 159.424 158.961 158.835 158.432 158.351 157.924 157.827 
157.37 157.335 156.945 157.01 156.703 156.814 156.583 156.733 160.629 
160.288 160.097 159.699 159.564 159.165 159.101 158.691 158.649 158.212 
158.216 157.795 157.875 157.48 157.591 157.233 157.355 157.085 157.232 
156.306 156.269 156.163 155.892 156.173 156.17 156.023 155.851 155.718 
156.073 156.124 156.153 156.055 155.986 155.821 155.807 156.076 156.095 
156.187 156.194 156.218 156.108 156.032 155.895 155.875 156.085 156.092 
156.117 156.193 156.273 156.291 156.265 156.116 156.013 155.909 155.985 
156.077 156.053 156.049 156.106 156.209 156.3 156.387 156.334 156.32 
156.149 156.213 156.154 156.398 156.251 156.12 156.185 156.138 156.299 
156.312 156.461 156.445 156.523 156.451 156.56 156.494 156.689 156.653 
156.835 156.649 156.435 156.542 156.423 156.637 156.56 156.727 156.616 
156.67 156.593 156.676 156.715 156.863 156.903 156.984 156.952 156.953 
157.117 156.887 156.954 156.823 157.014 156.947 157.128 156.986 157.02 
156.815 156.823 156.761 156.873 156.936 157.006 157.014 156.966 156.937 
156.911 163.556 163.049 163.327 163.31 162.408 162.765 162.754 163.022 
162.979 161.66 162.055 162.071 162.414 162.37 162.667 162.681 160.941 
161.299 161.321 161.698 161.702 162.03 162.019 162.372 162.441 160.257 
160.595 160.573 160.942 160.936 161.319 161.319 161.69 161.702 162.099 
162.157 159.534 159.885 159.842 160.192 160.131 160.507 160.48 160.91 
160.913 161.334 161.323 161.749 161.773 158.815 159.151 159.138 159.478 
159.435 159.738 159.684 160.05 160.07 160.503 160.519 160.918 160.898 
161.327 161.354 158.157 158.455 158.444 158.791 158.789 159.093 159.044 
159.332 159.329 159.701 159.761 160.147 160.172 160.523 160.546 160.948 
161.017 157.566 157.813 157.748 158.082 158.046 158.406 158.346 158.68 
158.629 158.99 159.013 159.412 159.458 159.832 159.874 160.237 160.326 
160.705 160.817 
POINT_DATA 1002
SCALARS Distance double
LOOKUP_TABLE default
162.779 162.584 162.306 162.562 161.903 163.062 162.128 161.347 162.812 
163.374 161.594 160.908 162.334 163.006 163.557 161.226 160.588 161.862 
162.535 163.195 163.776 160.847 160.133 161.499 162.119 162.829 163.572 
164.261 160.379 159.718 161.072 161.746 162.465 163.254 164.053 164.776 
160.085 159.527 160.698 161.393 162.164 162.925 163.666 164.422 165.089 
159.915 159.381 160.471 161.108 161.893 162.691 163.379 164.061 164.769 
165.358 159.688 159.165 160.251 160.859 161.592 162.407 163.151 163.841 
164.561 165.225 165.724 162.101 161.709 161.371 160.935 160.591 161.193 
160.177 159.956 160.437 160.663 159.521 159.33 159.757 160.039 160.315 
158.854 158.55 159.103 159.395 159.694 159.914 158.167 157.784 158.458 
158.648 158.921 159.184 159.406 157.519 157.227 157.847 157.973 158.126 
158.468 158.795 159.121 156.889 156.826 157.156 157.374 157.531 157.905 
158.359 158.682 159.003 156.315 156.485 156.396 156.68 156.993 157.434 
157.976 158.342 158.56 158.83 155.989 155.78 155.632 155.556 155.658 
155.935 155.774 155.822 155.872 156.349 156.11 155.881 156.236 156.396 
156.88 156.418 156.152 156.717 156.717 156.913 157.475 156.734 156.657 
156.996 156.964 156.869 157.275 157.91 156.89 156.933 156.938 156.859 
156.685 156.906 157.54 158.141 156.918 156.92 156.842 156.649 156.486 
156.689 157.274 157.894 158.39 157.048 156.931 157.034 156.798 156.57 
156.725 157.276 157.866 158.312 158.722 159.248 158.811 159.409 158.436 
158.962 159.721 158.014 158.561 159.221 160.172 157.461 158.175 158.821 
159.701 160.688 157.028 157.763 158.54 159.419 160.368 161.25 157.044 
157.508 158.209 159.178 160.163 161.035 161.858 157.345 157.645 158.004 
158.823 159.9 160.8 161.611 162.404 157.465 157.915 158.174 158.662 
159.617 160.556 161.316 162.078 162.798 157.286 157.883 158.375 158.791 
159.475 160.303 161.019 161.719 162.442 163.088 159.836 160.134 160.507 
160.631 160.965 161.247 161.14 161.54 161.784 162.058 161.574 161.983 
162.324 162.57 162.871 162.108 162.382 162.757 163.102 163.398 163.68 
162.732 162.96 163.247 163.644 164.022 164.348 164.534 163.22 163.57 
163.891 164.275 164.675 165.031 165.281 165.317 163.533 164.006 164.489 
164.955 165.346 165.639 165.871 165.976 165.888 163.661 164.184 164.347 
164.972 165.07 164.811 165.71 165.662 165.683 165.462 166.301 166.221 
166.365 166.333 165.971 166.98 166.907 166.982 166.98 166.769 166.253 
167.645 167.461 167.711 167.699 167.479 166.978 166.404 167.992 167.717 
168.223 168.407 168.312 167.773 167.074 166.5 168.206 167.894 168.468 
168.738 168.87 168.551 167.816 167.056 166.45 168.482 168.104 168.729 
168.855 168.909 168.792 168.329 167.593 166.854 166.248 162.981 163.613 
162.807 163.466 162.52 164.313 163.169 162.285 164.119 164.955 162.919 
162.22 163.79 164.667 165.457 162.808 162.099 163.57 164.352 165.133 
166.023 162.67 161.832 163.473 164.183 164.866 165.715 166.697 162.471 
161.641 163.324 164.059 164.74 165.495 166.377 167.173 162.301 161.583 
163.101 163.855 164.611 165.387 166.13 166.806 167.385 162.162 161.549 
162.877 163.601 164.373 165.192 165.903 166.463 166.983 167.54 156.966 
157.431 157.214 157.718 157.733 158.131 158.206 158.377 158.434 158.775 
158.896 159.09 158.891 159.159 159.39 159.704 159.853 159.595 159.608 
159.78 160.057 160.331 160.431 160.322 160.305 160.201 160.331 160.711 
160.676 160.763 160.743 160.961 160.936 160.8 161.024 161.436 161.044 
161.094 161.084 161.366 161.609 161.561 161.601 161.922 162.244 156.884 
156.962 157.006 157.166 156.984 157.378 157.229 156.839 157.663 158.002 
157.287 156.981 157.776 158.19 158.569 157.555 157.264 157.937 158.289 
158.642 159.228 157.651 157.243 158.108 158.543 158.851 159.339 160.004 
157.488 157.08 158.014 158.681 159.202 159.577 160.079 160.542 157.454 
157.114 157.918 158.603 159.325 159.806 160.157 160.535 160.852 157.651 