# vtk DataFile Version 4.0
vtk output
ASCII
DATASET POLYDATA
POINTS 1002 float
-117.784 -105.026 53.2203 -117.755 -104.93 52.4989 -117.355 -104.654 52.8544 
-117.331 -104.792 53.5934 -116.938 -104.399 53.2068 -117.854 -105.159 54.025 
-116.759 -104.679 53.8411 -116.451 -104.213 53.5507 -117.325 -105.044 54.3511 
-117.85 -105.366 54.707 -116.157 -104.606 54.12 -115.869 -104.076 53.979 
-116.566 -105.092 54.5112 -117.21 -105.367 54.9709 -117.721 -105.549 55.3964 
-115.55 -104.527 54.4955 -115.122 -104.077 54.3334 -115.855 -105.022 54.7896 
-116.315 -105.454 55.1636 -116.981 -105.619 55.6497 -117.561 -105.721 56.2803 
-114.667 -104.662 54.675 -114.184 -104.237 54.471 -115.213 -104.869 55.1435 
-115.592 -105.245 55.563 -116.104 -105.642 55.9448 -116.864 -105.783 56.5689 
-117.496 -105.886 57.2222 -113.555 -104.891 54.7211 -113.311 -104.288 54.6302 
-114.27 -104.946 55.3131 -114.99 -104.975 56.0048 -115.446 -105.387 56.403 
-116.091 -105.724 56.8861 -116.922 -105.822 57.5836 -117.458 -105.95 58.1162 
-112.775 -104.808 54.9833 -112.766 -104.088 54.9433 -113.241 -105.041 55.4735 
-114.14 -104.973 56.2643 -114.857 -105.225 56.8033 -115.38 -105.603 57.2048 
-116.146 -105.715 57.8641 -116.875 -105.808 58.5233 -117.251 -106.049 58.9244 
-112.472 -104.468 55.4586 -112.467 -103.807 55.3001 -112.623 -104.911 55.8316 
-113.229 -105.061 56.4407 -114.056 -105.299 56.9912 -114.682 -105.643 57.4236 
-115.323 -105.719 58.0562 -116.075 -105.731 58.7887 -116.58 -106.014 59.2497 
-116.851 -106.413 59.4681 -112.291 -104.158 55.9892 -112.209 -103.599 55.6728 
-112.331 -104.7 56.3347 -112.57 -105.091 56.6997 -113.181 -105.424 57.0837 
-113.906 -105.738 57.5419 -114.59 -105.806 58.2064 -115.325 -105.745 58.9844 
-115.909 -105.984 59.5106 -116.189 -106.51 59.6758 -116.414 -106.976 59.7215 
-117.583 -104.545 52.1953 -117.218 -104.241 52.5981 -117.527 -103.924 52.1017 
-117.124 -103.637 52.5195 -117.46 -103.194 52.0148 -116.804 -103.949 53.0124 
-116.882 -102.982 52.2986 -117.316 -102.54 51.8223 -116.528 -103.414 52.8268 
-116.201 -103.74 53.4073 -116.575 -102.389 51.9746 -117.125 -101.838 51.7257 
-116.085 -102.92 52.3846 -115.724 -103.327 53.0897 -115.447 -103.617 53.8468 
-116.334 -101.728 51.866 -116.898 -100.995 51.6984 -115.769 -102.406 52.0675 
-115.317 -102.959 52.6487 -115.005 -103.234 53.5431 -114.689 -103.557 54.2265 
-116.172 -101.008 51.8211 -116.75 -100.273 51.5883 -115.595 -101.713 52.0809 
-115.134 -102.372 52.555 -114.799 -102.807 53.291 -114.49 -103.001 54.0822 
-113.967 -103.493 54.5213 -116.095 -100.31 51.7375 -116.673 -99.6415 51.5876 
-115.49 -100.962 52.0434 -114.979 -101.557 52.6185 -114.599 -102.135 53.2507 
-114.307 -102.485 53.891 -113.885 -102.77 54.5064 -113.275 -103.38 54.8102 
-115.942 -99.4817 51.8029 -116.448 -98.8445 51.7748 -115.435 -100.217 51.972 
-114.928 -100.833 52.5348 -114.414 -101.388 53.2093 -113.963 -101.902 53.6943 
-113.552 -102.277 54.2235 -113.089 -102.691 54.749 -112.687 -103.261 55.0336 
-115.659 -98.6075 51.9488 -116.099 -98.0505 51.9373 -115.318 -99.4303 52.049 
-114.976 -100.23 52.5204 -114.474 -100.82 53.2058 -113.819 -101.286 53.6425 
-113.194 -101.736 53.9395 -112.707 -102.199 54.4081 -112.394 -102.688 54.8661 
-112.258 -103.166 55.22 -115.594 -97.8453 52.0084 -115.264 -98.5597 52.1183 
-115.526 -98.2058 52.1704 -115.171 -98.9099 52.6232 -115.66 -98.7819 52.7937 
-115.024 -99.4851 52.5609 -114.998 -99.2148 53.5522 -115.384 -99.0054 53.8066 
-114.771 -99.6643 53.4478 -114.666 -100.272 53.3116 -114.522 -99.3129 54.5125 
-114.728 -99.0123 54.8147 -114.339 -99.7318 54.3231 -114.202 -100.222 54.1423 
-113.991 -100.735 53.8414 -113.998 -99.4364 55.3931 -114.131 -99.0738 55.7859 
-113.848 -99.8193 54.9729 -113.575 -100.099 54.6407 -113.305 -100.462 54.302 
-113.114 -101.072 53.9825 -113.473 -99.3947 56.3359 -113.682 -99.0681 56.6774 
-113.332 -99.773 55.7979 -112.941 -99.998 55.1625 -112.543 -100.199 54.6758 
-112.373 -100.759 54.3484 -112.407 -101.576 54.2329 -113.019 -99.2344 57.0532 
-113.434 -99.1237 57.2606 -112.776 -99.4517 56.6947 -112.384 -99.733 56.0406 
-111.956 -100.048 55.3811 -111.852 -100.585 54.9636 -111.918 -101.429 54.7274 
-112.065 -102.206 54.704 -112.866 -99.3517 57.5295 -113.427 -99.3782 57.7097 
-112.48 -99.392 57.3166 -112.114 -99.6067 56.8764 -111.737 -100.02 56.32 
-111.656 -100.604 55.9042 -111.785 -101.376 55.5728 -111.841 -102.175 55.2838 
-111.971 -102.754 55.1825 -112.904 -99.6309 58.1561 -113.482 -99.637 58.3195 
-112.464 -99.6899 57.9609 -112.142 -99.8971 57.6176 -111.837 -100.275 57.204 
-111.68 -100.775 56.908 -111.735 -101.399 56.6378 -111.762 -102.109 56.2422 
-111.765 -102.732 55.8867 -111.94 -103.192 55.7301 -111.983 -103.76 56.402 
-111.691 -103.313 56.5519 -111.773 -103.912 57.2495 -111.532 -102.781 56.8307 
-111.515 -103.399 57.4256 -111.904 -103.921 57.8877 -111.542 -102.138 57.2847 
-111.323 -102.829 57.7366 -111.72 -103.409 58.0784 -112.364 -103.809 58.4902 
-111.599 -101.518 57.677 -111.28 -102.207 58.2304 -111.414 -102.94 58.5009 
-112.104 -103.451 58.8794 -112.525 -103.878 59.5429 -111.745 -101.029 57.9007 
-111.464 -101.639 58.6352 -111.313 -102.383 59.0676 -111.71 -103.137 59.4735 
-112.216 -103.597 60.0905 -112.418 -104.123 60.7201 -111.99 -100.582 58.2147 
-111.795 -101.138 58.9315 -111.624 -101.755 59.462 -111.709 -102.603 59.958 
-112.033 -103.206 60.5856 -112.41 -103.622 61.0893 -112.775 -104.188 61.3724 
-112.235 -100.154 58.6491 -112.058 -100.599 59.358 -112.033 -101.129 59.8017 
-112.1 -101.943 60.238 -112.174 -102.627 60.9171 -112.475 -102.991 61.4207 
-112.998 -103.479 61.5815 -113.463 -104.101 61.7053 -112.574 -99.8819 58.943 
-112.31 -100.152 59.7524 -112.329 -100.617 60.1874 -112.513 -101.407 60.4931 
-112.474 -102.121 61.1774 -112.48 -102.435 61.8461 -112.955 -102.784 62.0041 
-113.547 -103.452 62.0008 -113.877 -104.125 62.1851 -113.099 -99.7946 59.0508 
-112.743 -99.9697 59.8743 -112.683 -100.38 60.3909 -112.909 -101.125 60.6611 
-112.905 -101.847 61.2613 -112.631 -102.158 62.1249 -112.761 -102.343 62.544 
-113.349 -102.861 62.5133 -113.822 -103.614 62.5602 -114.007 -104.269 62.8099 
-112.069 -104.346 56.823 -111.951 -104.505 57.571 -112.137 -104.931 57.0929 
-112.244 -104.441 58.1704 -112.12 -105.115 57.735 -112.434 -105.426 57.29 
-112.581 -104.373 59.0946 -112.401 -105.1 58.6391 -112.488 -105.627 58.1039 
-113.089 -105.773 57.7089 -112.5 -104.623 60.357 -112.546 -105.216 59.9487 
-112.699 -105.677 59.421 -113.194 -105.833 58.8525 -113.905 -105.844 58.4501 
-112.656 -104.822 61.2243 -112.702 -105.406 60.9825 -112.941 -105.807 60.5949 
-113.427 -105.89 60.0824 -114.112 -105.814 59.6233 -114.759 -105.775 59.2815 
-113.374 -104.687 61.6082 -113.398 -105.232 61.4595 -113.552 -105.747 61.1878 
-113.815 -106.079 60.7856 -114.326 -106.12 60.4008 -114.951 -106.057 60.1251 
-115.446 -106.027 59.8384 -113.942 -104.566 62.0476 -114.119 -104.963 61.887 
-114.334 -105.515 61.6961 -114.385 -106.193 61.4076 -114.5 -106.638 60.9996 
-114.924 -106.732 60.6323 -115.388 -106.713 60.3141 -115.75 -106.662 59.9734 
-114.1 -104.662 62.6807 -114.352 -105 62.4945 -114.673 -105.534 62.3628 
-114.75 -106.36 62.2777 -114.64 -107.098 61.9656 -114.784 -107.386 61.3973 
-115.179 -107.407 60.8118 -115.532 -107.402 60.2987 -115.896 -107.28 59.9188 
-114.184 -104.718 63.398 -114.353 -105.132 63.2251 -114.605 -105.207 63.9697 
-114.856 -105.706 63.7169 -115.217 -105.641 64.5406 -114.665 -105.66 63.0316 
-115.501 -106.088 64.1521 -115.8 -105.808 65.0023 -115.033 -106.438 63.5588 
-114.828 -106.521 63.0553 -116.167 -106.15 64.3819 -116.507 -105.822 65.0114 
-115.559 -106.76 63.913 -114.951 -107.355 63.6193 -114.715 -107.429 63.0169 
-116.895 -106.289 64.386 -117.384 -106.024 64.7391 -116.263 -106.763 64.053 
-115.504 -107.446 63.7237 -114.941 -107.91 63.3155 -114.744 -107.835 62.4585 
-117.494 -106.653 64.5233 -118.027 -106.352 64.7333 -116.896 -107.053 64.2679 
-116.3 -107.441 63.7096 -115.764 -107.783 63.1355 -115.327 -107.946 62.5012 
-115.118 -107.83 61.6001 -117.979 -106.998 64.747 -118.467 -106.636 64.876 
-117.397 -107.503 64.5355 -116.888 -107.842 63.8972 -116.579 -107.928 63.1255 
-116.249 -107.943 62.4634 -115.806 -107.967 61.6509 -115.522 -107.848 60.8036 
-118.67 -107.322 64.6726 -119.059 -106.961 64.7552 -118.098 -107.783 64.4549 
-117.49 -108.163 63.8772 -117.134 -108.309 63.2103 -116.945 -108.273 62.6443 
-116.615 -108.19 61.8656 -116.17 -108.093 60.8958 -115.894 -107.826 60.202 
-119.488 -107.684 64.3481 -119.748 -107.333 64.4029 -118.962 -107.947 64.0846 
-118.285 -108.153 63.5001 -117.767 -108.373 62.9458 -117.477 -108.549 62.6144 
-117.234 -108.517 62.0689 -116.941 -108.284 61.1532 -116.632 -107.961 60.3351 
-116.429 -107.53 59.9062 -114.083 -104.033 63.2541 -114.394 -104.524 63.8605 
-114.309 -103.686 63.6428 -114.747 -104.201 64.2043 -114.669 -103.315 64.0003 
-114.884 -105.08 64.5268 -115.201 -103.863 64.4528 -115.112 -103.027 64.3366 
-115.236 -104.889 64.8664 -115.385 -105.532 65.2908 -115.816 -103.611 64.5724 
-115.664 -102.81 64.4405 -115.847 -104.667 64.8461 -115.717 -105.359 65.6573 
-115.936 -105.601 65.806 -116.506 -103.386 64.4816 -116.314 -102.591 64.1786 
-116.671 -104.466 64.5644 -116.516 -105.122 65.3668 -116.458 -105.321 66.1675 
-116.916 -105.594 65.653 -117.07 -103.073 64.2615 -116.918 -102.397 63.7636 
-117.274 -104.179 64.3477 -117.343 -104.926 64.7681 -117.348 -105.091 65.8437 
-117.658 -105.41 66.1305 -118.003 -105.911 65.3132 -117.495 -102.766 63.954 
-117.376 -102.305 63.371 -117.637 -103.695 64.2586 -117.833 -104.592 64.4232 
-118.071 -104.934 65.1685 -118.467 -105.296 66.0936 -118.741 -105.9 66.018 
-118.634 -106.291 65.2914 -117.879 -102.594 63.5114 -117.747 -102.278 62.9868 
-118.04 -103.192 64.0131 -118.299 -104.015 64.3025 -118.619 -104.584 64.6667 
-119.064 -105.035 65.5208 -119.421 -105.725 66.2036 -119.317 -106.255 65.9408 
-119.049 -106.531 65.2271 -118.276 -102.488 63.0357 -118.13 -102.211 62.6178 
-118.501 -102.827 63.5703 -118.85 -103.411 64.0789 -119.178 -104.053 64.4047 
[...]
CELL_DATA 2000
SCALARS Distance double
LOOKUP_TABLE default
165.22 164.875 165.207 165.556 164.512 164.846 165.196 165.574 165.937 
164.151 164.471 164.788 165.179 165.553 165.933 166.246 163.779 164.109 
164.394 164.752 165.083 165.492 165.825 166.2 166.501 163.317 163.699 
163.977 164.342 164.622 165.004 165.322 165.733 166.087 166.481 166.834 
162.77 163.168 163.432 163.859 164.149 164.547 164.852 165.244 165.61 
166.042 166.455 166.854 167.203 162.295 162.623 162.862 163.273 163.599 
164.049 164.412 164.817 165.177 165.577 165.975 166.422 166.809 167.192 
167.471 161.985 162.233 162.476 162.777 163.1 163.511 163.927 164.378 
164.777 165.171 165.527 165.931 166.302 166.733 167.058 167.412 167.644 
161.788 162.009 162.286 162.505 162.802 163.097 163.478 163.896 164.322 
164.752 165.123 165.504 165.855 166.249 166.61 166.987 167.282 167.584 
167.803 164.963 164.51 164.702 164.626 164.021 164.245 164.176 164.365 
164.28 163.435 163.692 163.604 163.864 163.763 163.99 163.901 162.812 
163.053 162.899 163.193 163.077 163.386 163.285 163.573 163.492 162.172 
162.414 162.246 162.491 162.385 162.677 162.613 162.912 162.842 163.134 
163.039 161.552 161.783 161.662 161.884 161.807 162.063 162.051 162.308 
162.28 162.514 162.434 162.667 162.546 161.035 161.222 161.112 161.321 
161.237 161.502 161.482 161.774 161.749 161.997 161.91 162.112 161.99 
162.192 162.087 160.489 160.702 160.565 160.789 160.705 160.945 160.905 
161.177 161.128 161.408 161.3 161.554 161.409 161.642 161.527 161.77 
161.729 159.832 160.073 159.951 160.232 160.233 160.483 160.514 160.697 
160.651 160.81 160.678 160.887 160.736 161.003 160.893 161.183 161.145 
161.448 161.482 159.448 159.281 159.371 159.634 159.678 159.464 159.649 
159.728 160.048 160.11 159.909 159.951 159.904 160.14 160.204 160.42 
160.175 160.139 160.098 160.11 160.195 160.272 160.353 160.437 160.485 
160.118 160.114 160.09 160.11 160.063 160.136 160.041 160.182 160.085 
160.304 160.337 160.074 160.075 160.032 160.051 159.892 159.884 159.623 
159.707 159.529 159.767 159.782 160.133 160.323 160.037 159.993 159.862 
159.899 159.68 159.654 159.341 159.318 159.163 159.291 159.408 159.662 
159.935 160.245 160.548 160.208 160.005 159.843 159.744 159.589 159.487 
159.318 159.198 159.194 159.182 159.442 159.541 159.909 160.05 160.393 
160.582 160.889 160.592 160.295 160.164 159.916 159.87 159.642 159.662 
159.44 159.586 159.46 159.785 159.779 160.159 160.19 160.508 160.57 
160.86 160.989 161.279 161.477 161.071 161.399 161.689 160.743 161.018 
161.281 161.625 161.959 160.463 160.73 160.956 161.233 161.556 161.938 
162.345 160.171 160.47 160.723 160.943 161.227 161.564 162.01 162.409 
162.868 159.985 160.246 160.583 160.762 161.045 161.291 161.735 162.118 
162.631 162.982 163.418 159.995 160.172 160.549 160.699 161.012 161.178 
161.597 161.908 162.43 162.771 163.231 163.527 163.937 160.13 160.235 
160.571 160.708 161.025 161.178 161.576 161.828 162.315 162.607 163.043 
163.327 163.727 164.04 164.457 160.375 160.387 160.664 160.743 161.049 
161.193 161.605 161.834 162.311 162.54 162.929 163.141 163.488 163.79 
164.204 164.557 164.967 160.762 160.676 160.917 160.893 161.199 161.275 
161.727 161.912 162.432 162.603 162.989 163.087 163.37 163.559 163.93 
164.272 164.712 165.055 165.431 161.793 162.027 162.052 162.324 162.311 
162.314 162.596 162.581 162.84 162.694 162.639 162.924 162.878 163.152 
163.129 163.472 163.197 163.088 163.388 163.279 163.579 163.498 163.856 
163.853 164.285 163.732 163.624 163.961 163.833 164.176 164.03 164.392 
164.299 164.709 164.698 165.107 164.262 164.166 164.533 164.436 164.816 
164.683 165.043 164.897 165.271 165.177 165.573 165.513 165.881 164.799 
164.707 165.079 165.001 165.395 165.307 165.678 165.546 165.904 165.775 
166.163 166.056 166.432 166.316 166.652 165.296 165.227 165.58 165.523 
165.926 165.876 166.297 166.187 166.567 166.417 166.789 166.663 167.021 
166.897 167.189 167.059 167.313 165.728 165.68 166.009 165.978 166.386 
166.391 166.876 166.832 167.268 167.114 167.456 167.281 167.576 167.44 
167.681 167.554 167.743 167.631 167.82 166.073 166.775 166.384 166.368 
167.643 167.174 167.165 166.749 166.799 168.452 168.053 168.054 167.634 
167.716 167.295 167.368 169.036 168.754 168.76 168.459 168.533 168.21 
168.279 167.857 167.802 169.605 169.308 169.327 169.062 169.1 168.872 
168.9 168.63 168.541 168.134 167.942 170.257 169.941 169.984 169.667 
169.687 169.385 169.372 169.114 169.028 168.725 168.538 168.161 167.969 
170.859 170.596 170.666 170.37 170.401 170.036 170.005 169.643 169.583 
169.226 169.093 168.708 168.526 168.163 168.011 171.441 171.2 171.3 
171.03 171.053 170.72 170.665 170.315 170.265 169.895 169.805 169.36 
169.185 168.736 168.553 168.19 168.049 172.043 171.826 171.925 171.64 
171.58 171.263 171.125 170.859 170.783 170.538 170.465 170.102 169.924 
169.451 169.223 168.774 168.597 168.235 168.118 166.011 166.129 166.284 
166.738 166.266 166.436 166.969 167.116 167.622 166.468 166.61 167.175 
167.365 167.925 168.035 168.455 166.753 166.865 167.436 167.605 168.186 
168.317 168.744 168.772 169.051 167.021 167.166 167.752 167.911 168.484 
168.59 169.034 169.058 169.378 169.345 169.626 167.179 167.376 167.944 
168.175 168.72 168.87 169.316 169.375 169.793 169.774 170.139 170.025 
170.319 167.262 167.46 167.953 168.24 168.747 168.996 169.438 169.609 
170.113 170.239 170.746 170.666 170.964 170.731 170.932 167.332 167.494 
167.909 168.171 168.655 168.944 169.405 169.649 170.163 170.455 171.059 
171.225 171.598 171.417 171.517 171.265 171.434 167.406 167.537 167.897 
168.107 168.57 168.856 169.345 169.604 170.062 170.376 170.909 171.3 
171.738 171.869 171.972 171.801 171.823 171.708 171.931 161.101 161.644 
161.313 161.215 162.238 161.897 161.848 161.496 161.503 162.906 162.565 
162.631 162.253 162.348 161.951 162.097 163.6 163.265 163.353 163.059 
163.208 162.875 163.025 162.646 162.795 164.282 163.937 163.939 163.689 
163.788 163.6 163.713 163.472 163.515 163.219 163.242 164.979 164.617 
164.605 164.271 164.344 164.11 164.244 164.035 164.1 163.822 163.805 
163.522 163.552 165.717 165.363 165.438 165.041 165.157 164.794 164.98 
164.664 164.833 164.477 164.555 164.16 164.238 163.914 164.103 166.449 
166.143 166.276 165.924 166.06 165.691 165.857 165.51 165.683 165.322 
165.44 165.028 165.128 164.733 164.914 164.608 164.876 167.075 166.843 
166.969 166.708 166.839 166.544 166.686 166.369 166.507 166.169 166.271 
165.903 165.989 165.626 165.761 165.444 165.643 165.38 165.593 161.17 
161.487 161.464 161.727 161.787 161.779 162.032 162.003 162.261 162.079 
162.064 162.323 162.3 162.55 162.54 162.857 162.465 162.401 162.697 
162.635 162.919 162.858 163.189 163.198 163.581 162.937 162.855 163.187 
163.094 163.4 163.287 163.625 163.588 163.997 163.981 164.345 163.372 
163.322 163.641 163.588 163.87 163.774 164.068 164.031 164.419 164.422 
164.79 164.729 165.028 163.765 163.717 163.997 163.972 164.225 164.176 
164.432 164.419 164.768 164.804 165.159 165.142 165.427 165.375 165.679 
164.174 164.105 164.372 164.313 164.574 164.512 164.79 164.759 165.103 
165.124 165.48 165.479 165.776 165.742 166.041 166.031 166.374 164.565 
164.511 164.784 164.713 164.993 164.914 165.218 165.157 165.497 165.474 
165.817 165.802 166.109 166.085 166.392 166.382 166.712 166.714 167.022 
164.852 165.38 165.112 165.097 165.948 165.657 165.659 165.367 165.333 
166.573 166.242 166.235 165.944 165.948 165.629 165.592 167.239 166.884 
166.849 166.531 166.534 166.242 166.236 165.906 165.872 167.861 167.54 
167.503 167.167 167.138 166.823 166.804 166.51 166.484 166.176 166.144 
168.408 168.12 168.095 167.799 167.762 167.437 167.388 167.07 167.044 
166.752 166.744 166.443 166.424 169.013 168.682 168.642 168.343 168.294 
168.008 167.946 167.65 167.619 167.331 167.356 167.062 167.09 166.753 
166.746 169.707 169.347 169.282 168.908 168.811 168.495 168.422 168.159 
168.135 167.892 167.925 167.677 167.725 167.433 167.443 167.092 167.068 
170.286 170.006 169.9 169.537 169.373 169.02 168.917 168.635 168.635 
168.4 168.458 168.226 168.278 168.025 168.029 167.739 167.699 167.379 
167.33 170.474 170.399 170.353 170.06 170.224 170.182 169.946 169.87 
169.546 170.417 170.164 169.996 169.82 169.628 169.429 169.152 170.998 
170.641 170.518 170.126 169.992 169.67 169.497 169.178 168.943 171.476 
171.278 171.181 170.778 170.547 170.152 169.961 169.627 169.415 169.049 
168.799 171.72 171.639 171.58 171.32 171 170.63 170.331 170.057 
169.849 169.541 169.261 168.885 168.595 171.973 171.846 171.825 171.64 
171.4 171.021 170.683 170.364 170.162 169.922 169.673 169.319 168.951 
168.603 168.29 172.189 172.054 172.013 171.91 171.829 171.504 171.22 
170.779 170.51 170.213 169.976 169.675 169.283 168.913 168.5 168.226 
167.924 172.165 172.106 171.988 172.03 172.036 171.938 171.742 171.349 
170.954 170.556 170.197 169.914 169.52 169.19 168.729 168.409 168.04 
167.83 167.556 170.646 170.862 170.754 170.627 171.057 170.983 170.922 
170.674 170.487 171.171 171.185 171.23 171.041 170.931 170.626 170.614 
171.181 171.248 171.349 171.317 171.278 171.082 171.026 170.864 171.024 
171.4 171.333 171.4 171.35 171.298 171.259 171.156 171.119 171.126 
171.192 171.365 171.853 171.743 171.786 171.51 171.333 171.171 171.046 
171.071 171.087 171.178 171.328 171.448 171.64 171.969 172.135 172.229 
171.99 171.687 171.305 171.051 170.953 171.049 171.159 171.461 171.539 
171.858 171.839 172.046 171.592 171.985 172.147 172.226 171.953 171.654 
171.266 171.045 171.038 171.14 171.491 171.703 172.125 172.202 172.479 
172.342 172.403 171.221 171.527 171.705 171.932 171.795 171.738 171.427 
171.255 171.155 171.158 171.358 171.589 171.922 172.246 172.529 172.684 
172.743 172.598 172.443 170.551 170.29 170.549 170.751 170.01 170.263 
170.505 170.734 170.919 169.817 170.054 170.319 170.517 170.722 170.894 
171.018 169.49 169.848 170.136 170.37 170.556 170.709 170.799 170.935 
171.022 168.862 169.373 169.634 170.039 170.17 170.452 170.502 170.695 
170.77 170.961 171.187 168.086 168.619 168.824 169.329 169.413 169.849 
169.928 170.299 170.437 170.714 170.931 171.214 171.536 167.422 167.848 
168.057 168.5 168.634 169.042 169.223 169.673 170 170.393 170.672 
170.933 171.105 171.426 171.577 166.992 167.288 167.54 167.883 168.15 
168.456 168.751 169.109 169.555 169.995 170.406 170.689 170.794 170.949 
170.906 171.212 171.211 166.72 166.95 167.204 167.499 167.844 168.152 
168.526 168.819 169.218 169.596 169.975 170.344 170.478 170.644 170.537 
170.644 170.59 170.851 170.925 166.635 166.588 166.781 167.121 166.444 
166.705 167.141 167.363 167.791 166.298 166.545 167.026 167.361 167.922 
168.13 168.557 166.262 166.438 166.874 167.215 167.812 168.185 168.7 
168.865 169.233 166.26 166.438 166.821 167.08 167.588 167.979 168.462 
168.811 169.179 169.436 169.801 166.126 166.397 166.782 167.028 167.461 
167.762 168.17 168.48 168.803 169.154 169.494 169.884 170.191 165.86 
166.193 166.588 166.907 167.324 167.632 168.037 168.274 168.614 168.834 
169.201 169.509 169.862 170.155 170.334 165.603 165.909 166.281 166.628 
167.018 167.395 167.806 168.139 168.533 168.77 169.193 169.404 169.847 
169.997 170.289 170.335 170.483 165.447 165.688 166.033 166.321 166.671 
167.022 167.402 167.809 168.215 168.606 169.038 169.388 169.86 170.108 
170.493 170.525 170.738 170.65 170.832 165.518 165.861 165.81 166.085 
166.228 166.17 166.409 166.375 166.673 166.544 166.522 166.775 166.72 
167.005 166.992 167.369 166.846 166.842 167.19 167.145 167.497 167.412 
167.789 167.76 168.198 167.18 167.172 167.572 167.593 168.027 167.977 
168.347 168.246 168.643 168.624 169.073 167.499 167.496 167.822 167.906 
168.313 168.413 168.756 168.742 169.045 169.047 169.487 169.533 169.97 
167.754 167.771 168.045 168.099 168.447 168.577 168.922 169.002 169.28 
169.338 169.736 169.884 170.375 170.416 170.691 167.947 167.999 168.314 
168.344 168.702 168.751 169.117 169.158 169.464 169.507 169.863 170.035 
170.506 170.699 171.023 170.975 170.99 168.098 168.181 168.535 168.616 
168.991 169.047 169.388 169.408 169.672 169.688 169.944 170.076 170.425 
170.683 171.004 171.152 171.248 171.134 171.064 171.251 171.298 171.371 
171.52 171.025 171.222 171.232 171.456 171.504 170.531 170.81 170.879 
171.104 171.178 171.354 171.334 170.113 170.352 170.571 170.819 171.119 
171.253 171.431 171.336 171.329 169.862 170.048 170.294 170.579 171.038 
171.329 171.694 171.662 171.699 171.462 171.487 169.624 169.835 170.026 
170.3 170.693 171.146 171.557 171.813 171.83 171.748 171.653 171.63 
171.835 169.253 169.547 169.731 170 170.278 170.697 171.05 171.457 
171.525 171.641 171.51 171.604 171.768 172.023 172.393 168.763 169.106 
169.309 169.64 169.893 170.262 170.563 170.933 171.081 171.266 171.23 
171.358 171.497 171.813 172.168 172.493 172.687 168.288 168.6 168.791 
169.157 169.412 169.816 170.101 170.479 170.665 170.897 170.942 171.091 
171.196 171.474 171.719 172.096 172.242 172.507 172.407 160.021 160.635 
160.407 160.566 161.099 160.911 160.971 160.854 160.993 161.605 161.34 
161.355 161.175 161.306 161.241 161.484 162.309 161.973 162.043 161.69 
161.863 161.659 162.024 161.914 162.32 162.986 162.725 162.864 162.518 
162.705 162.403 162.776 162.601 163.064 162.893 163.269 163.555 163.347 
163.497 163.276 163.474 163.25 163.572 163.401 163.813 163.651 164.011 
163.799 164.087 164.113 163.904 164.068 163.869 164.123 163.949 164.305 
164.152 164.548 164.381 164.73 164.523 164.824 164.6 164.91 164.635 
164.461 164.675 164.491 164.804 164.635 165.027 164.871 165.252 165.081 
165.389 165.205 165.477 165.304 165.593 165.423 165.718 165.11 164.974 
165.226 165.101 165.429 165.317 165.681 165.561 165.869 165.717 165.931 
165.774 165.965 165.852 166.085 165.999 166.241 166.13 166.331 159.738 
160.361 159.919 159.755 160.907 160.562 160.455 160.089 160.161 161.397 
161.067 161.019 160.75 160.846 160.622 160.844 162.135 161.642 161.518 
161.223 161.321 161.211 161.476 161.333 161.569 163.048 162.489 162.294 
161.817 161.827 161.626 161.903 161.864 162.169 162.017 162.22 163.892 
163.384 163.231 162.701 162.672 162.275 162.488 162.317 162.651 162.542 
162.789 162.619 162.809 164.752 164.247 164.152 163.644 163.636 163.195 
163.349 163.039 163.315 163.098 163.353 163.154 163.349 163.175 163.372 
165.607 165.154 165.091 164.594 164.586 164.136 164.245 163.899 164.108 
163.833 164.045 163.782 163.955 163.722 163.903 163.727 163.924 166.249 
165.937 165.901 165.509 165.502 165.077 165.145 164.763 164.915 164.606 
164.784 164.497 164.646 164.367 164.512 164.282 164.456 164.274 164.447 
159.385 159.452 159.263 159.236 159.943 159.568 159.607 159.464 159.723 
160.626 160.185 160.194 159.99 160.234 160.11 160.265 161.299 160.844 
160.715 160.506 160.65 160.583 160.654 160.461 160.342 161.986 161.513 
161.329 160.985 161.047 160.921 161.016 160.817 160.674 160.392 160.229 
162.668 162.243 162.133 161.692 161.729 161.427 161.564 161.278 161.237 
160.832 160.641 160.32 160.208 163.267 162.928 162.861 162.49 162.467 
162.147 162.18 161.899 161.855 161.478 161.291 160.858 160.678 160.348 
160.258 163.809 163.507 163.426 163.119 163.025 162.744 162.645 162.401 
162.269 162.004 161.821 161.484 161.309 160.935 160.838 160.49 160.473 
164.32 164.032 163.939 163.635 163.529 163.227 163.118 162.817 162.686 
162.382 162.243 161.947 161.848 161.546 161.501 161.166 161.161 160.815 
160.847 170.312 169.736 170.06 170.041 169.072 169.435 169.484 169.766 
169.762 168.468 168.801 168.885 169.205 169.236 169.511 169.522 167.902 
168.222 168.264 168.594 168.589 168.911 168.853 169.189 169.126 167.277 
167.62 167.614 167.939 167.866 168.186 168.06 168.404 168.266 168.651 
168.504 166.587 166.936 166.912 167.247 167.155 167.449 167.316 167.607 
167.473 167.787 167.647 167.978 167.803 165.914 166.221 166.16 166.501 
166.41 166.728 166.608 166.902 166.794 167.075 166.968 167.225 167.09 
167.337 167.193 165.312 165.555 165.441 165.739 165.629 165.958 165.835 
166.166 166.04 166.375 166.261 166.574 166.457 166.716 166.609 166.839 
166.772 164.778 164.971 164.821 165.05 164.914 165.196 165.073 165.383 
165.242 165.568 165.419 165.778 165.656 166.022 165.937 166.264 166.222 
166.499 166.491 
POINT_DATA 1002
SCALARS Distance double
LOOKUP_TABLE default
165.542 165.232 164.887 165.194 164.544 165.934 164.8 164.194 165.595 
166.284 164.421 163.838 165.144 165.921 166.535 164.069 163.431 164.693 
165.412 166.144 166.826 163.597 162.923 164.266 164.909 165.645 166.475 
167.202 162.986 162.402 163.715 164.467 165.18 166.007 166.885 167.523 
162.482 162.002 163.118 163.965 164.806 165.546 166.375 167.169 167.721 
162.216 161.737 162.731 163.452 164.364 165.164 165.874 166.658 167.348 
167.864 162.075 161.553 162.568 163.108 163.873 164.731 165.476 166.217 
166.957 167.541 168.007 164.771 164.448 164.311 163.977 163.778 164.104 
163.323 163.205 163.512 163.673 162.63 162.601 162.746 162.974 163.208 
162.011 161.906 162.097 162.312 162.556 162.763 161.433 161.318 161.544 
161.783 162.059 162.225 162.316 160.918 160.872 160.988 161.182 161.482 
161.708 161.797 161.859 160.317 160.28 160.463 160.666 160.869 161.034 
161.158 161.273 161.451 159.622 159.595 159.917 160.321 160.556 160.529 
160.471 160.58 160.827 161.157 159.128 159.364 159.352 159.677 160.005 
159.907 160.048 160.28 160.129 160.386 160.092 160.156 160.157 160.302 
160.372 160.097 160.103 160.084 159.951 159.872 160.012 160.027 160.093 
159.975 159.62 159.299 159.419 159.918 159.861 160.158 159.698 159.368 
159.036 159.155 159.652 160.238 159.996 160.47 159.674 159.395 159.193 
159.356 159.816 160.26 160.683 160.419 160.887 160.078 159.859 159.734 
159.833 160.167 160.495 160.769 161.128 161.751 161.318 162 160.968 
161.558 162.32 160.728 161.175 161.937 162.779 160.516 160.928 161.581 
162.513 163.312 160.39 160.843 161.365 162.26 163.122 163.823 160.394 
160.866 161.328 162.1 162.933 163.638 164.349 160.455 160.867 161.343 
162.058 162.788 163.41 164.134 164.888 160.629 160.909 161.371 162.102 
162.775 163.226 163.828 164.65 165.365 160.981 161.143 161.545 162.263 
162.932 163.262 163.625 164.338 165.149 165.779 162.331 162.613 162.845 
162.984 163.176 163.434 163.502 163.678 163.885 164.251 164.062 164.321 
164.529 164.763 165.115 164.613 164.926 165.201 165.399 165.654 165.951 
165.16 165.465 165.796 166.038 166.274 166.563 166.782 165.635 165.945 
166.369 166.726 166.938 167.154 167.346 167.44 166.04 166.354 166.86 
167.401 167.678 167.752 167.822 167.876 167.913 166.402 166.712 167.212 
167.6 168.118 167.183 168.443 168.796 168.12 167.845 169.024 169.291 
168.814 168.666 168.328 169.61 169.914 169.349 169.138 168.897 168.399 
170.299 170.557 170.043 169.671 169.308 168.88 168.335 170.931 171.09 
170.768 170.394 169.951 169.492 168.909 168.334 171.579 171.654 171.393 
171 170.602 170.242 169.681 168.966 168.359 172.246 172.228 171.95 
171.398 170.978 170.769 170.385 169.707 168.998 168.433 165.851 166.6 
165.937 166.772 166.091 167.536 166.968 166.346 167.787 168.452 167.281 
166.633 168.059 168.712 169.069 167.584 166.848 168.393 168.999 169.392 
169.675 167.698 166.991 168.55 169.218 169.735 170.255 170.488 167.69 
167.106 168.471 169.22 169.877 170.727 171.258 171.148 167.686 167.204 
168.351 169.144 169.852 170.761 171.691 171.844 171.558 167.721 167.294 
168.285 169.075 169.817 170.518 171.45 172.073 172 171.913 161.438 
161.522 161.973 162.198 162.543 161.823 162.956 163.22 162.739 162.483 
163.622 163.96 163.484 163.402 163.192 164.231 164.657 163.964 163.917 
163.822 163.533 164.964 165.316 164.619 164.45 164.366 164.112 163.771 
165.81 166.025 165.54 165.313 165.177 164.956 164.597 164.347 166.596 
166.728 166.422 166.219 166.04 165.833 165.531 165.255 165.141 161.185 
161.769 161.508 162.059 161.794 162.269 162.34 162.105 162.573 162.81 
162.759 162.533 162.994 163.192 163.565 163.274 163.004 163.53 163.678 
164.007 164.419 163.689 163.424 163.963 164.118 164.409 164.841 165.111 
164.039 163.833 164.266 164.448 164.733 165.162 165.474 165.698 164.445 
164.244 164.634 164.825 165.099 165.478 165.801 166.054 166.372 164.846 