# vtk DataFile Version 4.0
vtk output
ASCII
DATASET POLYDATA
POINTS 1002 float
-119.318 -103.426 49.9238 -119.251 -103.382 49.0722 -118.662 -103.522 49.1694 
-118.719 -103.437 50.2152 -118.064 -103.596 49.3956 -119.304 -103.475 50.9697 
-118.048 -103.448 50.5787 -117.422 -103.545 49.7966 -118.652 -103.453 51.343 
-119.136 -103.736 51.7866 -117.316 -103.443 51.015 -116.686 -103.48 50.1965 
-117.952 -103.503 51.7313 -118.42 -103.844 52.0734 -118.902 -104.305 52.1728 
-116.551 -103.409 51.46 -115.902 -103.512 50.5031 -117.215 -103.471 52.2209 
-117.766 -103.924 52.4415 -118.177 -104.5 52.4193 -118.771 -104.872 52.5804 
-115.845 -103.504 51.8184 -115.256 -103.545 50.9175 -116.432 -103.422 52.7194 
-117.053 -103.748 53.0236 -117.622 -104.45 52.8981 -118.123 -104.932 53.0036 
-118.8 -105.016 53.4703 -115.301 -103.776 52.0838 -114.877 -103.406 51.5568 
-115.724 -103.844 52.8496 -116.219 -103.817 53.4328 -116.947 -104.181 53.5718 
-117.636 -104.759 53.6541 -118.222 -104.991 54.0429 -118.891 -104.946 54.5579 
-114.913 -103.87 52.4287 -114.65 -103.114 52.2661 -115.193 -104.465 52.7223 
-115.492 -104.546 53.2698 -116.118 -104.408 53.8746 -116.964 -104.613 54.2906 
-117.664 -104.977 54.6318 -118.289 -105.119 55.0218 -118.942 -105.162 55.3546 
-114.613 -103.613 52.9357 -114.391 -102.841 52.8599 -114.829 -104.49 52.9195 
-115.017 -105.023 53.1464 -115.433 -105.002 53.8124 -116.173 -104.883 54.5686 
-116.921 -105.072 55.0554 -117.595 -105.347 55.3759 -118.295 -105.491 55.6649 
-118.954 -105.591 55.8965 -114.351 -103.253 53.4462 -114.056 -102.681 53.2828 
-114.6 -103.983 53.4925 -114.757 -104.664 53.6297 -115.004 -105.058 54.1125 
-115.535 -105.178 54.8163 -116.182 -105.309 55.3472 -116.826 -105.535 55.6564 
-117.567 -105.701 55.9465 -118.326 -105.779 56.2442 -118.965 -105.844 56.49 
-118.812 -103.337 48.4901 -118.205 -103.557 48.4868 -118.451 -103.025 48.1024 
-117.914 -103.163 48.1855 -118.252 -102.276 48.0156 -117.66 -103.562 48.7785 
-117.772 -102.3 48.3098 -118.094 -101.435 48.043 -117.419 -103.01 48.6517 
-117.024 -103.381 49.2562 -117.568 -101.447 48.4545 -117.828 -100.838 47.8523 
-117.164 -102.155 48.806 -116.661 -102.841 49.0689 -116.168 -103.357 49.5445 
-117.289 -100.746 48.3149 -117.567 -100.231 47.5618 -116.793 -101.419 48.7789 
-116.196 -102.195 48.9461 -115.646 -102.989 49.1662 -115.294 -103.456 49.8086 
-117.09 -100.018 48.1027 -117.453 -99.5251 47.5095 -116.497 -100.742 48.5534 
-115.78 -101.556 48.7335 -115.225 -102.373 48.9767 -114.891 -103.019 49.5555 
-114.788 -103.26 50.4964 -116.915 -99.4265 48.0062 -117.365 -98.9857 47.5951 
-116.298 -100.086 48.3806 -115.567 -100.86 48.618 -115.016 -101.555 48.9547 
-114.776 -102.19 49.6171 -114.679 -102.607 50.4875 -114.637 -102.794 51.4392 
-116.65 -99.0197 47.9416 -117.152 -98.5888 47.5858 -116.024 -99.5548 48.2848 
-115.384 -100.205 48.6283 -114.907 -100.772 49.0882 -114.71 -101.304 49.7955 
-114.665 -101.852 50.6046 -114.578 -102.199 51.4112 -114.452 -102.443 52.2145 
-116.35 -98.5885 47.8961 -116.854 -98.1685 47.5514 -115.708 -99.0388 48.22 
-115.125 -99.5928 48.6202 -114.756 -100.129 49.1963 -114.572 -100.631 49.9534 
-114.449 -101.25 50.7 -114.313 -101.802 51.341 -114.16 -102.089 52.0226 
-114.05 -102.325 52.7292 -116.277 -97.9604 47.8881 -115.639 -98.348 48.1895 
-115.688 -97.7417 48.4039 -115.014 -98.1624 48.6725 -115.167 -97.707 49.0734 
-114.978 -98.8513 48.5395 -114.639 -98.2798 49.4503 -114.837 -97.8795 49.9429 
-114.513 -98.7936 49.1238 -114.587 -99.4573 49.1253 -114.497 -98.5402 50.5623 
-114.635 -98.0031 50.9737 -114.349 -98.994 50.1018 -114.339 -99.4667 49.92 
-114.434 -100.048 49.9752 -114.281 -98.6218 51.6584 -114.301 -97.9827 51.9148 
-114.156 -99.1625 51.2889 -114.077 -99.5788 50.9227 -114.069 -100.145 50.8009 
-114.179 -100.755 50.786 -113.927 -98.6904 52.4241 -113.959 -98.0911 52.6985 
-113.73 -99.2108 52.2038 -113.507 -99.5827 51.8361 -113.389 -100.178 51.4953 
-113.428 -100.98 51.3692 -113.801 -101.522 51.3507 -113.795 -98.9942 53.1048 
-113.961 -98.4748 53.4605 -113.423 -99.3865 52.8765 -112.964 -99.6048 52.5668 
-112.699 -100.065 52.1252 -112.645 -100.937 51.8547 -112.917 -101.681 51.836 
-113.556 -101.97 51.9249 -113.938 -99.3455 53.9013 -114.219 -98.9088 54.1756 
-113.444 -99.6293 53.6821 -112.829 -99.7276 53.425 -112.452 -100.019 52.9943 
-112.364 -100.771 52.6065 -112.449 -101.585 52.4936 -112.85 -102.02 52.5499 
-113.498 -102.164 52.6516 -114.088 -99.514 54.6454 -114.443 -99.1671 54.7497 
-113.549 -99.7417 54.5557 -112.908 -99.8183 54.4358 -112.491 -100.043 54.1554 
-112.428 -100.712 53.7619 -112.478 -101.527 53.4892 -112.608 -102.036 53.3702 
-113.008 -102.253 53.3152 -113.575 -102.414 53.3081 -113.941 -102.856 53.7788 
-113.401 -102.605 53.8805 -113.939 -102.991 54.368 -112.866 -102.447 54.0862 
-113.328 -102.793 54.595 -113.991 -103.093 55.2143 -112.586 -102.222 54.4101 
-112.741 -102.678 55.0558 -113.335 -102.909 55.5991 -114.131 -103.186 56.268 
-112.497 -101.61 54.7625 -112.444 -102.386 55.6086 -112.751 -102.777 56.1631 
-113.62 -102.956 56.6915 -114.464 -103.261 57.2404 -112.423 -100.683 55.1012 
-112.375 -101.568 56.0167 -112.532 -102.292 56.6229 -113.255 -102.722 57.0504 
-114.194 -102.996 57.5276 -114.848 -103.316 58.0682 -112.572 -100.062 55.309 
-112.466 -100.644 56.1621 -112.648 -101.352 56.8034 -113.218 -102.031 57.2288 
-114.027 -102.631 57.6779 -114.681 -103.005 58.2749 -115.109 -103.329 58.9219 
-113.108 -99.8749 55.3303 -112.855 -100.206 56.0782 -113.007 -100.685 56.7213 
-113.449 -101.169 57.2661 -114.011 -101.872 57.8255 -114.539 -102.565 58.4991 
-114.964 -102.943 59.1914 -115.364 -103.274 59.7471 -113.777 -99.7172 55.2842 
-113.483 -99.9881 55.9523 -113.54 -100.426 56.5883 -113.852 -100.749 57.2279 
-114.153 -101.152 57.9577 -114.441 -101.9 58.7882 -114.798 -102.539 59.5458 
-115.232 -102.881 60.0655 -115.715 -103.211 60.3761 -114.318 -99.4458 55.2543 
-114.101 -99.6759 55.8802 -114.077 -100.083 56.5703 -114.272 -100.483 57.2726 
-114.424 -100.743 58.0446 -114.482 -101.241 58.9628 -114.646 -101.976 59.8472 
-115.02 -102.526 60.4104 -115.539 -102.874 60.6661 -116.076 -103.201 60.8337 
-114.349 -103.337 54.0339 -114.42 -103.369 54.8679 -114.607 -103.893 54.3624 
-114.497 -103.53 55.9027 -114.643 -103.91 55.5547 -114.747 -104.495 54.8608 
-114.674 -103.74 56.8909 -114.731 -104.25 56.6361 -114.8 -104.651 56.2232 
-115.075 -105.05 55.4514 -115.003 -103.807 57.8001 -115.022 -104.478 57.5027 
-115.015 -105.027 57.2189 -115.213 -105.36 56.6484 -115.628 -105.467 55.8755 
-115.294 -103.822 58.7591 -115.413 -104.428 58.4837 -115.428 -105.038 58.1483 
-115.512 -105.546 57.6459 -115.791 -105.788 56.8633 -116.239 -105.729 56.1138 
-115.551 -103.821 59.633 -115.739 -104.4 59.4553 -115.85 -104.868 59.1639 
-115.928 -105.362 58.7165 -116.136 -105.778 58.0093 -116.508 -105.884 57.1388 
-117.003 -105.818 56.412 -115.93 -103.721 60.2606 -116.131 -104.325 60.1195 
-116.286 -104.782 59.9069 -116.385 -105.184 59.5909 -116.573 -105.612 59.1039 
-116.942 -105.791 58.3905 -117.403 -105.772 57.553 -117.874 -105.801 56.7989 
-116.36 -103.592 60.7477 -116.604 -104.107 60.6237 -116.796 -104.607 60.4501 
-116.907 -105.058 60.2263 -117.037 -105.522 59.9001 -117.349 -105.762 59.4102 
-117.803 -105.696 58.7381 -118.242 -105.675 57.9311 -118.619 -105.804 57.132 
-116.607 -103.404 61.2895 -116.924 -103.783 61.2628 -117.059 -103.536 61.9927 
-117.339 -103.99 62.0035 -117.388 -103.623 62.715 -117.193 -104.274 61.1536 
-117.635 -104.396 62.6506 -117.898 -103.801 63.0076 -117.571 -104.645 61.954 
-117.368 -104.834 61.015 -118.273 -104.886 62.8853 -118.96 -104.046 62.9631 
-117.858 -105.264 62.6832 -117.72 -105.303 61.8955 -117.474 -105.406 60.7731 
-119.497 -105.089 62.985 -120.228 -104.17 63.0253 -118.667 -105.631 63.0136 
-118.164 -105.697 62.5935 -117.968 -105.725 61.463 -117.718 -105.787 60.2845 
-120.69 -105.022 63.1028 -121.03 -104.13 63.0233 -120.04 -105.621 63.0672 
-119.29 -105.744 62.7051 -118.796 -105.772 61.7746 -118.49 -105.842 60.5933 
-118.177 -105.771 59.6236 -121.348 -104.871 62.8295 -121.432 -104.011 62.5834 
-121.134 -105.558 62.8318 -120.646 -105.773 62.4028 -120.057 -105.775 61.5819 
-119.543 -105.822 60.6168 -119.075 -105.764 59.7245 -118.655 -105.647 58.8677 
-121.769 -104.645 62.1326 -121.893 -103.885 61.9154 -121.665 -105.37 62.2124 
-121.401 -105.744 61.8847 -120.955 -105.799 61.1741 -120.501 -105.798 60.4158 
-120.019 -105.773 59.7059 -119.492 -105.713 58.9065 -119.029 -105.729 58.0015 
-122.272 -104.398 61.4613 -122.487 -103.784 61.3991 -122.084 -105.008 61.5056 
-121.795 -105.406 61.3037 -121.316 -105.527 60.7302 -120.891 -105.524 60.0655 
-120.633 -105.55 59.5036 -120.288 -105.643 58.8428 -119.808 -105.784 57.9925 
-119.354 -105.88 57.1496 -116.051 -102.984 61.1361 -116.616 -103.142 61.6517 
-116.017 -102.539 61.4 -116.71 -102.63 61.8786 -116.15 -101.777 61.5652 
-117.104 -103.16 62.4164 -117.015 -101.936 61.8708 -116.51 -101.091 61.538 
-117.334 -102.615 62.508 -117.542 -103.044 63.0372 -117.456 -101.426 61.6467 
-116.965 -100.747 61.289 -117.772 -102.115 62.2148 -117.934 -102.501 62.9454 
-118.351 -103.025 63.1677 -117.931 -101.056 61.3528 -117.469 -100.41 60.9671 
-118.307 -101.724 61.8004 -118.525 -102.155 62.4996 -118.962 -102.48 63.0838 
-119.664 -103.185 63.1156 -118.459 -100.535 61.0963 -118.044 -99.9213 60.6906 
-118.862 -101.223 61.4784 -119.184 -101.756 61.996 -119.623 -102.123 62.6887 
-120.256 -102.608 63.0834 -120.758 -103.324 63.0774 -118.978 -99.9672 60.8276 
-118.587 -99.5219 60.371 -119.35 -100.63 61.1644 -119.704 -101.264 61.4922 
-120.124 -101.729 62.0334 -120.63 -102.211 62.5809 -121.031 -102.76 62.7789 
-121.247 -103.343 62.7243 -119.381 -99.5553 60.4388 -119.01 -99.2911 59.9128 
-119.699 -100.094 60.7732 -120.006 -100.811 60.9433 -120.363 -101.407 61.2342 
-120.746 -101.912 61.6811 -121.082 -102.432 62.0018 -121.367 -102.869 62.1112 
-121.639 -103.317 62.0772 -119.684 -99.3219 59.8975 -119.336 -99.1402 59.3601 
-119.966 -99.6746 60.2961 -120.228 -100.327 60.4478 -120.537 -101.049 60.5664 
[...]
CELL_DATA 2000
SCALARS Distance double
LOOKUP_TABLE default
164.285 163.966 164.283 164.609 163.615 163.945 164.254 164.6 164.923 
163.213 163.57 163.886 164.24 164.567 164.903 165.227 162.775 163.149 
163.482 163.863 164.22 164.569 164.903 165.224 165.575 162.416 162.749 
163.088 163.448 163.803 164.195 164.568 164.927 165.282 165.609 165.976 
162.219 162.495 162.873 163.132 163.459 163.77 164.142 164.549 164.966 
165.34 165.717 166.027 166.378 162.094 162.367 162.789 163.019 163.353 
163.533 163.855 164.153 164.588 164.995 165.445 165.794 166.172 166.446 
166.795 161.929 162.223 162.626 162.919 163.265 163.47 163.757 163.963 
164.334 164.663 165.12 165.496 165.917 166.244 166.614 166.889 167.241 
161.727 162.016 162.375 162.692 163.023 163.304 163.594 163.843 164.179 
164.464 164.872 165.2 165.61 165.951 166.333 166.668 167.026 167.323 
167.646 164.003 163.471 163.731 163.695 162.886 163.189 163.179 163.425 
163.366 162.261 162.592 162.608 162.892 162.831 163.058 162.952 161.631 
161.967 161.968 162.278 162.201 162.47 162.334 162.589 162.477 160.98 
161.321 161.284 161.596 161.472 161.767 161.616 161.915 161.795 162.102 
162.067 160.365 160.657 160.603 160.889 160.737 161.008 160.854 161.167 
161.092 161.422 161.413 161.75 161.823 159.889 160.085 160.007 160.233 
160.093 160.311 160.167 160.439 160.423 160.763 160.838 161.157 161.245 
161.573 161.696 159.476 159.632 159.493 159.672 159.527 159.721 159.602 
159.83 159.838 160.159 160.308 160.646 160.788 161.068 161.162 161.463 
161.567 159.014 159.178 158.983 159.143 158.961 159.166 159.073 159.315 
159.345 159.641 159.799 160.145 160.317 160.622 160.703 160.964 161.007 
161.31 161.383 158.702 158.224 158.508 158.625 157.883 158.039 158.11 
158.412 158.589 157.878 157.848 157.919 158.025 158.237 158.498 158.777 
158.146 158.044 158.173 158.079 158.302 158.353 158.683 158.846 159.172 
158.331 158.348 158.506 158.433 158.586 158.548 158.794 158.877 159.199 
159.331 159.662 158.388 158.46 158.609 158.638 158.672 158.692 158.743 
158.883 159.07 159.302 159.585 159.812 160.123 158.684 158.606 158.765 
158.696 158.672 158.619 158.545 158.648 158.73 159.012 159.253 159.594 
159.892 160.193 160.469 159.274 159.071 159.211 158.984 158.943 158.701 
158.617 158.513 158.62 158.734 159.035 159.272 159.624 159.903 160.229 
160.494 160.772 159.829 159.651 159.707 159.47 159.385 159.086 159.001 
158.774 158.923 158.873 159.25 159.299 159.706 159.794 160.156 160.312 
160.647 160.842 161.151 161.352 160.853 161.249 161.573 160.419 160.78 
161.111 161.507 161.896 160.085 160.436 160.791 161.105 161.481 161.877 
162.336 159.698 160.125 160.537 160.852 161.207 161.522 161.972 162.39 
162.914 159.292 159.689 160.113 160.533 160.899 161.257 161.682 162.081 
162.62 163.035 163.555 159.223 159.365 159.715 160.065 160.454 160.868 
161.301 161.758 162.298 162.761 163.294 163.673 164.119 159.544 159.467 
159.723 159.829 160.224 160.499 160.966 161.355 161.9 162.387 162.954 
163.399 163.86 164.201 164.591 159.902 159.824 160.019 159.996 160.357 
160.479 160.959 161.171 161.68 162.021 162.583 163.03 163.556 163.942 
164.356 164.663 165.036 160.085 160.102 160.28 160.275 160.569 160.675 
161.116 161.277 161.721 161.912 162.366 162.698 163.209 163.62 164.08 
164.429 164.806 165.104 165.459 161.726 161.965 162.015 162.375 162.302 
162.306 162.651 162.671 163.002 162.771 162.718 163.08 163.009 163.322 
163.295 163.607 163.346 163.257 163.662 163.538 163.881 163.735 164.065 
163.963 164.286 163.944 163.856 164.271 164.166 164.554 164.392 164.739 
164.557 164.882 164.713 165.014 164.489 164.432 164.844 164.771 165.168 
165.055 165.41 165.255 165.555 165.364 165.619 165.438 165.707 164.962 
164.942 165.374 165.333 165.728 165.636 165.978 165.865 166.168 166.012 
166.256 166.054 166.29 166.124 166.409 165.395 165.394 165.834 165.835 
166.238 166.172 166.501 166.399 166.715 166.597 166.883 166.698 166.938 
166.733 166.995 166.837 167.119 165.808 165.812 166.233 166.256 166.664 
166.644 166.989 166.911 167.239 167.144 167.467 167.324 167.584 167.383 
167.609 167.426 167.668 167.52 167.749 166.165 166.837 166.534 166.598 
167.467 167.214 167.295 166.981 167.024 168.074 167.859 168.018 167.707 
167.768 167.398 167.383 168.833 168.559 168.81 168.483 168.598 168.192 
168.184 167.745 167.678 169.792 169.466 169.729 169.348 169.454 169.03 
169.002 168.562 168.468 168.024 167.908 170.581 170.412 170.67 170.312 
170.364 169.887 169.795 169.334 169.198 168.773 168.612 168.191 168.01 
170.868 170.962 171.253 171.129 171.187 170.779 170.635 170.128 169.952 
169.483 169.303 168.857 168.652 168.227 168.026 170.857 171.038 171.323 
171.444 171.52 171.387 171.195 170.85 170.585 170.193 169.962 169.541 
169.306 168.864 168.646 168.234 168.06 170.907 170.998 171.221 171.365 
171.427 171.461 171.235 171.102 170.722 170.549 170.227 170.031 169.766 
169.463 169.218 168.844 168.646 168.274 168.113 166.016 165.928 166.229 
166.681 165.701 166.099 166.604 166.885 167.294 165.466 165.868 166.431 
166.769 167.191 167.435 167.823 165.385 165.71 166.296 166.616 167.078 
167.315 167.718 167.982 168.507 165.404 165.689 166.265 166.547 167.051 
167.262 167.722 167.941 168.505 168.807 169.46 165.407 165.689 166.244 
166.534 167.049 167.283 167.782 168.01 168.58 168.857 169.448 169.75 
170.25 165.398 165.658 166.168 166.471 166.96 167.248 167.716 168.016 
168.521 168.857 169.328 169.643 169.981 170.286 170.523 165.374 165.612 
166.04 166.335 166.762 167.084 167.488 167.832 168.232 168.621 168.984 
169.356 169.605 169.915 170.085 170.387 170.551 165.317 165.539 165.89 
166.153 166.51 166.824 167.189 167.531 167.879 168.236 168.543 168.903 
169.156 169.487 169.709 169.997 170.226 170.477 170.691 160.192 160.459 
160.369 160.439 160.799 160.675 160.798 160.652 160.787 161.249 161.075 
161.219 161.065 161.261 161.128 161.352 161.811 161.576 161.681 161.496 
161.664 161.581 161.827 161.73 161.937 162.461 162.18 162.242 161.977 
162.087 161.958 162.189 162.14 162.396 162.289 162.527 163.118 162.847 
162.922 162.597 162.695 162.449 162.669 162.538 162.831 162.737 163.053 
162.95 163.3 163.735 163.5 163.623 163.316 163.438 163.141 163.344 
163.118 163.377 163.222 163.532 163.457 163.832 163.778 164.146 164.349 
164.132 164.306 164.032 164.189 163.902 164.101 163.839 164.062 163.827 
164.08 163.942 164.293 164.259 164.648 164.59 164.9 164.944 164.757 
164.965 164.73 164.925 164.658 164.88 164.609 164.851 164.566 164.815 
164.564 164.891 164.758 165.166 165.09 165.454 165.322 165.583 160.001 
159.704 160.003 160.285 159.536 159.743 160.07 160.313 160.611 159.709 
159.73 160 160.134 160.447 160.682 161.044 159.993 159.997 160.215 
160.197 160.441 160.557 160.938 161.189 161.629 160.1 160.199 160.451 
160.463 160.675 160.671 160.988 161.139 161.613 161.852 162.315 160.233 
160.278 160.552 160.626 160.897 160.934 161.24 161.298 161.719 161.884 
162.368 162.56 162.978 160.573 160.52 160.785 160.772 161.083 161.134 
161.514 161.582 162 162.078 162.509 162.633 163.051 163.202 163.578 
160.926 160.904 161.199 161.132 161.452 161.416 161.819 161.866 162.32 
162.384 162.792 162.839 163.207 163.295 163.675 163.806 164.18 161.194 
161.225 161.576 161.572 161.922 161.87 162.236 162.221 162.633 162.685 
163.081 163.124 163.461 163.498 163.843 163.932 164.309 164.426 164.782 
161.466 162.12 161.81 161.888 162.857 162.508 162.566 162.256 162.294 
163.578 163.222 163.233 162.926 162.954 162.632 162.626 164.321 163.936 
163.929 163.583 163.61 163.289 163.309 162.968 162.99 165.092 164.712 
164.736 164.338 164.388 164.006 164.047 163.671 163.696 163.356 163.395 
165.778 165.471 165.517 165.162 165.209 164.832 164.859 164.456 164.449 
164.065 164.073 163.743 163.766 166.365 166.11 166.162 165.876 165.899 
165.587 165.583 165.231 165.197 164.818 164.801 164.44 164.465 164.121 
164.16 166.914 166.672 166.732 166.477 166.512 166.221 166.22 165.894 
165.873 165.526 165.522 165.175 165.209 164.861 164.915 164.558 164.618 
167.438 167.206 167.267 167.035 167.094 166.828 166.851 166.535 166.531 
166.195 166.202 165.875 165.904 165.585 165.623 165.301 165.341 165.015 
165.061 167.744 168.157 167.819 167.574 168.542 168.226 167.966 167.652 
167.404 168.845 168.58 168.315 168.017 167.752 167.453 167.167 169.146 
168.895 168.675 168.361 168.086 167.775 167.487 167.177 166.859 169.573 
169.278 169.124 168.772 168.514 168.141 167.849 167.505 167.201 166.864 
166.543 170.116 169.778 169.602 169.243 168.978 168.599 168.289 167.911 
167.587 167.22 166.889 166.55 166.237 170.578 170.28 169.998 169.658 
169.308 168.987 168.643 168.324 167.97 167.611 167.233 166.878 166.533 
166.231 165.936 170.771 170.58 170.228 169.944 169.524 169.228 168.853 
168.59 168.249 167.948 167.569 167.213 166.836 166.51 166.203 165.929 
165.656 170.768 170.637 170.309 170.091 169.719 169.437 169.097 168.809 
168.508 168.212 167.89 167.548 167.195 166.839 166.519 166.208 165.936 
165.658 165.389 167.958 168.435 168.266 168.389 168.884 168.763 168.922 
168.717 168.8 169.299 169.223 169.449 169.269 169.342 169.078 169.085 
169.724 169.662 169.958 169.821 169.93 169.631 169.575 169.293 169.305 
170.061 170.049 170.344 170.314 170.499 170.251 170.197 169.82 169.766 
169.533 169.67 170.235 170.262 170.448 170.542 170.711 170.698 170.69 
170.436 170.343 170.049 170.136 169.989 170.231 170.344 170.354 170.412 
170.48 170.495 170.632 170.604 170.675 170.615 170.537 170.571 170.464 
170.659 170.573 170.756 170.381 170.425 170.445 170.422 170.317 170.321 
170.218 170.363 170.407 170.588 170.735 170.796 170.973 170.943 171.088 
170.987 170.999 170.243 170.389 170.459 170.472 170.397 170.265 170.141 
170.089 170.205 170.378 170.735 170.91 171.214 171.216 171.351 171.254 
171.259 171.105 171.007 167.791 167.688 167.915 168.251 167.526 167.805 
168.128 168.347 168.652 167.193 167.585 167.94 168.203 168.48 168.71 
169.019 166.655 167.147 167.555 167.956 168.307 168.568 168.891 169.113 
169.455 166.057 166.55 166.975 167.488 167.954 168.373 168.798 169.056 
169.405 169.582 169.862 165.543 165.986 166.404 166.9 167.397 167.938 
168.444 168.885 169.265 169.526 169.77 169.929 170.1 165.081 165.51 
165.915 166.365 166.811 167.347 167.83 168.385 168.776 169.215 169.468 
169.761 169.929 170.11 170.235 164.63 165.051 165.423 165.857 166.239 
166.743 167.173 167.723 168.109 168.607 168.894 169.316 169.539 169.859 
170.005 170.199 170.264 164.221 164.608 164.956 165.351 165.7 166.153 
166.567 167.083 167.489 167.965 168.275 168.706 168.966 169.377 169.571 
169.878 169.935 170.127 170.098 164.13 164.246 164.417 164.857 164.38 
164.567 165.037 165.156 165.604 164.459 164.706 165.25 165.394 165.884 
165.974 166.483 164.517 164.761 165.346 165.59 166.14 166.291 166.8 
166.902 167.392 164.698 164.852 165.401 165.652 166.231 166.477 166.985 
167.158 167.594 167.726 168.134 164.875 165.041 165.541 165.747 166.315 
166.548 167.059 167.251 167.66 167.831 168.221 168.392 168.794 164.809 
165.089 165.549 165.835 166.357 166.63 167.109 167.305 167.672 167.836 
168.19 168.405 168.798 169.017 169.383 164.605 164.908 165.32 165.681 
166.125 166.513 166.917 167.239 167.541 167.779 168.052 168.299 168.619 
168.903 169.216 169.477 169.722 164.48 164.713 165.091 165.395 165.772 
166.141 166.472 166.86 167.128 167.487 167.737 168.064 168.336 168.642 
168.901 169.19 169.411 169.681 169.866 164.573 164.917 164.879 165.163 
165.251 165.235 165.514 165.48 165.785 165.58 165.584 165.897 165.843 
166.095 166.071 166.39 165.969 165.971 166.379 166.301 166.58 166.429 
166.671 166.656 167.006 166.373 166.4 166.877 166.854 167.208 167.013 
167.227 167.036 167.325 167.308 167.682 166.719 166.765 167.209 167.293 
167.661 167.599 167.802 167.626 167.846 167.736 168.063 168.025 168.352 
167.094 167.088 167.477 167.553 167.915 167.939 168.167 168.092 168.307 
168.236 168.526 168.463 168.742 168.668 168.912 167.541 167.489 167.87 
167.865 168.276 168.251 168.593 168.486 168.792 168.688 169.034 168.943 
169.237 169.098 169.304 169.191 169.401 167.95 167.928 168.301 168.295 
168.73 168.717 169.15 169.051 169.429 169.277 169.647 169.508 169.834 
169.654 169.864 169.652 169.819 169.68 169.875 170.132 170.134 170.253 
170.435 170.214 170.318 170.496 170.494 170.443 170.227 170.397 170.579 
170.573 170.52 170.391 170.221 170.092 170.345 170.557 170.621 170.643 
170.547 170.516 170.318 170.354 169.872 170.165 170.361 170.5 170.532 
170.613 170.743 170.742 170.964 170.774 170.981 169.547 169.892 170.036 
170.212 170.124 170.305 170.363 170.721 171.024 171.268 171.498 171.401 
171.458 169.095 169.48 169.643 169.855 169.759 169.852 169.769 170.099 
170.328 170.896 171.193 171.551 171.594 171.598 171.489 168.634 168.993 
169.218 169.483 169.565 169.629 169.637 169.683 169.872 170.188 170.574 
171.012 171.253 171.477 171.44 171.449 171.316 168.244 168.555 168.796 
169.1 169.325 169.525 169.722 169.769 170.009 170.066 170.456 170.649 
171.048 171.214 171.366 171.369 171.285 171.224 171.069 159.06 159.531 
159.279 159.178 159.921 159.72 159.681 159.391 159.302 160.363 160.115 
160.13 159.897 159.916 159.611 159.661 160.964 160.638 160.68 160.419 
160.558 160.288 160.44 160.118 160.287 161.615 161.288 161.35 161.067 
161.257 161.008 161.238 160.94 161.109 160.778 160.928 162.27 161.96 
162.07 161.788 161.992 161.744 161.964 161.707 161.852 161.552 161.64 
161.346 161.475 162.947 162.662 162.851 162.569 162.818 162.524 162.724 
162.413 162.533 162.23 162.323 162.032 162.164 161.901 162.107 163.576 
163.355 163.595 163.376 163.67 163.393 163.603 163.229 163.341 162.957 
163.094 162.763 162.971 162.662 162.91 162.618 162.88 164.122 163.955 
164.203 164.064 164.368 164.192 164.419 164.107 164.22 163.828 163.972 
163.622 163.866 163.546 163.814 163.486 163.731 163.417 163.645 158.77 
158.83 158.641 158.385 158.954 158.695 158.442 158.322 158.313 159.363 
158.964 158.777 158.514 158.567 158.486 158.698 160.013 159.546 159.414 
159.044 159.111 158.897 159.084 158.966 159.066 160.667 160.242 160.081 
159.72 159.697 159.458 159.514 159.353 159.355 159.186 159.105 161.269 
160.878 160.708 160.336 160.204 159.926 159.866 159.692 159.669 159.493 
159.464 159.246 159.285 161.934 161.521 161.418 160.995 160.878 160.46 
160.38 160.064 160.124 159.902 160.049 159.788 159.94 159.656 159.861 
162.683 162.248 162.176 161.758 161.715 161.258 161.226 160.767 160.857 
160.53 160.789 160.53 160.781 160.453 160.622 160.313 160.495 163.431 
163.006 162.905 162.509 162.474 162.098 162.106 161.691 161.741 161.366 
161.546 161.296 161.541 161.285 161.426 161.09 161.165 160.878 161.01 
158.576 158.3 158.361 158.204 158.3 158.223 158.153 158.071 157.936 
158.638 158.413 158.325 158.141 158.024 157.9 157.878 158.913 158.752 
158.576 158.373 158.198 158.032 157.963 157.932 158.035 158.927 158.854 
158.667 158.549 158.372 158.223 158.137 158.042 158.063 158.086 158.181 
159.124 158.906 158.795 158.628 158.558 158.419 158.434 158.3 158.321 
158.179 158.169 158.148 158.226 159.715 159.349 159.307 158.971 158.97 
158.724 158.83 158.678 158.791 158.568 158.538 158.283 158.293 158.258 
158.498 160.369 160.041 160.026 159.658 159.642 159.29 159.357 159.143 
159.299 159.099 159.139 158.802 158.774 158.521 158.711 158.723 159.112 
160.902 160.644 160.636 160.346 160.304 159.968 159.95 159.69 159.796 
159.619 159.716 159.437 159.426 159.1 159.19 159.055 159.362 159.407 
159.747 167.466 166.915 167.235 167.333 166.325 166.634 166.668 167.047 
167.123 165.717 166.009 165.959 166.309 166.314 166.748 166.759 165.053 
165.37 165.286 165.584 165.516 165.896 165.878 166.307 166.248 164.312 
164.664 164.58 164.885 164.774 165.107 165.045 165.435 165.38 165.764 
165.678 163.554 163.903 163.797 164.122 163.963 164.309 164.191 164.593 
164.501 164.897 164.792 165.188 165.124 162.79 163.132 163.011 163.328 
163.145 163.455 163.297 163.687 163.584 163.997 163.874 164.273 164.18 
164.635 164.623 162.028 162.349 162.258 162.578 162.454 162.704 162.545 
162.827 162.73 163.097 163.019 163.383 163.29 163.687 163.666 164.148 
164.184 161.365 161.617 161.549 161.868 161.82 162.086 161.947 162.155 
161.999 162.29 162.213 162.573 162.517 162.869 162.834 163.234 163.27 
163.739 163.799 
POINT_DATA 1002
SCALARS Distance double
LOOKUP_TABLE default
164.609 164.278 163.971 164.273 163.655 164.948 163.909 163.284 164.581 
165.242 163.518 162.84 164.232 164.887 165.551 163.091 162.397 163.841 
164.587 165.234 165.941 162.763 162.089 163.414 164.156 164.961 165.653 
166.335 162.635 161.934 163.222 163.742 164.53 165.408 166.094 166.706 
162.532 161.816 163.201 163.639 164.188 165.048 165.882 166.54 167.138 
162.322 161.652 163.025 163.57 164.064 164.754 165.559 166.311 166.99 
167.594 162.076 161.454 162.729 163.316 163.898 164.577 165.288 165.984 
166.704 167.386 167.958 163.761 163.462 163.192 162.916 162.553 163.16 
162.308 161.922 162.601 162.733 161.671 161.302 161.927 162.076 162.194 
160.991 160.65 161.191 161.3 161.475 161.717 160.331 160.115 160.487 
160.536 160.728 161.076 161.446 159.809 159.743 159.883 159.911 160.055 
160.488 160.952 161.34 159.346 159.341 159.326 159.373 159.525 159.936 
160.502 160.913 161.235 158.848 158.854 158.757 158.802 159.047 159.464 
159.999 160.453 160.744 161.044 158.406 158.271 157.998 157.85 157.803 
158.21 157.892 157.942 158.018 158.485 158.3 158.199 158.329 158.559 
159.007 158.547 158.25 158.673 158.758 159.067 159.523 158.586 158.329 
158.696 158.648 158.827 159.318 159.917 158.904 158.821 158.808 158.516 
158.472 158.894 159.55 160.211 159.49 159.512 159.242 158.782 158.555 
158.837 159.374 159.949 160.529 159.952 160.025 159.681 159.235 158.987 
159.229 159.687 160.06 160.459 160.956 161.647 161.144 161.927 160.739 
161.451 162.312 160.51 161.125 161.869 162.828 160.181 160.923 161.574 
162.473 163.443 159.662 160.5 161.276 162.198 163.189 164.035 159.45 
160.035 160.829 161.801 162.897 163.797 164.527 159.717 160.005 160.634 
161.436 162.464 163.503 164.281 164.965 160.075 160.267 160.8 161.444 
162.163 163.124 164.042 164.744 165.398 160.28 160.484 160.959 161.59 
162.13 162.807 163.696 164.502 165.172 165.809 162.322 162.669 162.963 
163.174 163.398 163.608 163.769 164.043 164.203 164.386 164.356 164.688 
164.931 165.084 165.178 164.905 165.271 165.547 165.752 165.83 165.85 
165.395 165.824 166.09 166.297 166.457 166.483 166.54 165.822 166.287 
166.603 166.811 167.038 167.157 167.177 167.269 166.217 166.662 167.043 
167.321 167.585 167.779 167.818 167.833 167.906 166.471 166.916 167.125 
167.604 167.675 167.367 168.298 168.248 168.151 167.786 169.131 169.123 
169.002 168.641 168.128 170.146 170.111 169.912 169.449 168.919 168.36 
170.983 170.65 170.882 170.302 169.636 169.042 168.436 171.254 170.701 
171.523 171.157 170.449 169.773 169.095 168.428 171.161 170.709 171.558 
171.482 170.948 170.36 169.756 169.07 168.443 171.126 170.885 171.379 
171.346 170.878 170.342 169.98 169.565 169.022 168.476 165.768 166.448 
165.567 166.283 165.253 167.082 166.069 165.077 166.943 167.548 165.985 
165.095 166.836 167.456 168.15 165.988 165.129 166.822 167.495 168.217 
169.149 165.953 165.141 166.793 167.533 168.32 169.206 169.991 165.883 
165.171 166.668 167.42 168.196 169.046 169.734 170.218 165.783 165.17 
166.454 167.164 167.881 168.62 169.288 169.794 170.244 165.666 165.115 
166.222 166.854 167.55 168.208 168.801 169.379 169.955 170.479 160.272 
160.555 160.55 160.922 160.927 160.918 161.378 161.442 161.357 161.51 
161.911 162.082 161.756 161.88 162.093 162.551 162.754 162.267 162.239 
162.451 162.646 163.239 163.363 162.977 162.844 162.926 163.116 163.398 
163.9 163.944 163.733 163.605 163.583 163.624 163.859 164.241 164.554 
164.549 164.465 164.37 164.329 164.274 164.343 164.678 165.027 159.705 
160.033 159.376 159.823 159.412 160.357 159.955 159.761 160.223 160.764 
160.275 159.943 160.416 160.688 161.363 160.379 159.979 160.7 160.913 
161.365 162.111 160.477 160.246 160.802 161.192 161.617 162.176 162.818 
160.84 160.634 161.039 161.41 161.941 162.444 162.908 163.428 161.241 
160.904 161.519 161.8 162.249 162.77 163.165 163.55 164.048 161.531 