# vtk DataFile Version 4.0
vtk output
ASCII
DATASET POLYDATA
POINTS 1002 float
-118.585 -97.836 47.8698 -118.541 -97.4668 47.2828 -117.911 -97.5865 47.5209 
-117.841 -98.0554 48.0906 -117.34 -97.6003 47.9075 -118.538 -98.4506 48.2622 
-117.215 -98.0679 48.4557 -116.768 -97.548 48.4066 -117.732 -98.6319 48.5364 
-118.469 -98.8733 48.8267 -116.664 -98.0847 48.8849 -116.009 -97.7197 48.8019 
-117.141 -98.6088 48.9774 -117.747 -98.9001 49.3149 -118.491 -98.9326 49.8382 
-115.906 -98.401 49.2159 -115.128 -98.1205 49.0441 -116.574 -98.6894 49.4599 
-117.172 -98.9556 49.856 -117.882 -99.09 50.345 -118.565 -99.138 50.8626 
-115.021 -98.7567 49.4989 -114.304 -98.4407 49.2562 -115.76 -98.9066 49.9045 
-116.425 -99.0933 50.3667 -117.159 -99.3758 50.7692 -117.93 -99.5504 51.1767 
-118.544 -99.5739 51.6526 -114.232 -98.8766 49.8877 -113.528 -98.6486 49.4705 
-114.955 -98.9793 50.4201 -115.582 -99.1478 50.886 -116.254 -99.4924 51.2307 
-117.07 -99.7494 51.6006 -117.824 -99.7804 52.0948 -118.417 -99.7766 52.5812 
-113.515 -98.9572 50.358 -112.859 -98.8463 49.7727 -114.265 -98.9989 51.0185 
-114.951 -99.1771 51.4596 -115.558 -99.5349 51.736 -116.239 -99.764 52.1234 
-117.006 -99.7254 52.692 -117.702 -99.7096 53.2273 -118.321 -99.8841 53.5671 
-112.899 -99.0863 50.8168 -112.356 -98.96 50.2543 -113.562 -99.1716 51.4733 
-114.315 -99.3754 51.9087 -115.049 -99.7266 52.158 -115.67 -99.9667 52.531 
-116.292 -99.9067 53.123 -116.999 -99.8012 53.7059 -117.695 -99.9257 54.0852 
-118.333 -100.188 54.296 -112.42 -99.1341 51.2311 -111.888 -98.9537 50.7977 
-112.947 -99.3615 51.7244 -113.558 -99.6803 52.0886 -114.349 -100.024 52.3608 
-115.124 -100.262 52.7458 -115.725 -100.3 53.3168 -116.346 -100.224 53.921 
-117.086 -100.232 54.381 -117.797 -100.363 54.6881 -118.393 -100.493 54.9322 
-118.064 -97.412 46.5945 -117.509 -97.4668 46.8773 -117.611 -97.4523 45.78 
-117.068 -97.5395 46.1051 -117.214 -97.3058 45.2636 -116.944 -97.4416 47.4052 
-116.551 -97.4182 45.6424 -116.878 -96.683 45.3563 -116.293 -97.5889 46.6419 
-116.155 -97.4377 47.9748 -116.065 -96.7879 45.6852 -116.553 -95.7901 45.6534 
-115.538 -97.5208 46.017 -115.33 -97.5836 47.1546 -115.252 -97.5785 48.4223 
-115.663 -95.9895 45.8082 -116.116 -95.0787 45.5981 -115.048 -96.9468 45.9238 
-114.736 -97.4556 46.5446 -114.66 -97.466 47.8759 -114.477 -97.7711 48.8699 
-115.232 -95.4018 45.6678 -115.593 -94.5958 45.3182 -114.766 -96.2796 46.1172 
-114.45 -96.9855 46.5961 -114.31 -97.2202 47.6003 -114.024 -97.3978 48.7327 
-113.66 -98.0091 49.1786 -114.787 -94.9233 45.4795 -115.149 -94.1723 45.1441 
-114.423 -95.7635 46.1893 -114.076 -96.5172 46.7959 -113.764 -96.9438 47.4191 
-113.428 -97.1435 48.4261 -113.055 -97.6159 49.1022 -112.832 -98.3424 49.293 
-114.442 -94.4715 45.4781 -114.806 -93.7737 45.1006 -114.084 -95.3103 46.2374 
-113.635 -96.1152 46.8223 -113.042 -96.6705 46.9917 -112.58 -96.9577 47.6129 
-112.393 -97.3126 48.6681 -112.302 -97.9611 49.2629 -112.264 -98.6078 49.6065 
-114.205 -94.111 45.6241 -114.485 -93.4091 45.1484 -113.902 -94.9492 46.4236 
-113.438 -95.7593 46.9966 -112.669 -96.3541 46.8226 -111.984 -96.7109 46.8041 
-111.853 -97.0244 47.8654 -111.962 -97.538 49.1336 -111.886 -98.1975 49.7767 
-111.782 -98.7052 50.2032 -114.08 -93.5412 45.6379 -113.905 -94.458 46.4427 
-113.911 -93.8932 46.4421 -113.7 -94.8528 47.364 -113.757 -94.206 47.305 
-113.566 -95.3396 47.2901 -113.15 -94.8442 48.0055 -113.175 -94.1738 48.0121 
-113.07 -95.4826 47.9198 -112.816 -95.9612 47.3224 -112.197 -94.457 48.3567 
-112.449 -94.0756 48.6306 -112.158 -95.1162 48.2526 -112.103 -95.8227 47.6626 
-111.916 -96.3535 46.8336 -111.64 -94.3541 48.8803 -112.223 -94.283 49.4331 
-111.304 -94.7264 48.5869 -111.39 -95.4987 48.3089 -111.559 -96.2577 47.7215 
-111.624 -96.7246 47.4259 -111.714 -94.6772 49.885 -112.273 -94.5755 50.4577 
-111.179 -94.8532 49.3615 -111.011 -95.4184 49.1547 -111.266 -96.2633 49.085 
-111.583 -96.8798 49.0038 -111.771 -97.2263 49.0282 -111.83 -95.0282 50.9588 
-112.222 -94.7914 51.3543 -111.471 -95.2978 50.4661 -111.144 -95.6676 50.1673 
-110.941 -96.337 50.1498 -110.963 -97.0833 50.2738 -111.222 -97.5581 50.3263 
-111.566 -97.8752 50.1289 -111.902 -95.3198 51.6997 -112.271 -95.0912 51.9548 
-111.688 -95.7219 51.3483 -111.458 -96.0923 51.1174 -110.997 -96.4854 51.0156 
-110.346 -97.1293 50.9198 -110.043 -97.8036 50.8808 -110.434 -98.2109 50.8134 
-111.155 -98.468 50.5435 -112.131 -95.6123 52.2985 -112.533 -95.4716 52.4584 
-111.865 -96.0185 52.0251 -111.651 -96.4889 51.8412 -111.295 -96.7903 51.7877 
-110.55 -97.167 51.5819 -109.665 -97.8347 51.2303 -109.452 -98.4195 51.0617 
-110.145 -98.6761 51.0382 -111.125 -98.8079 50.9372 -111.773 -99.0176 51.4929 
-110.888 -98.9155 51.5224 -111.845 -99.1382 52.1612 -109.941 -98.8546 51.4651 
-111.115 -99.0485 52.2307 -111.999 -99.3891 52.9908 -109.67 -98.5205 51.5406 
-110.515 -98.9656 52.2661 -111.475 -99.266 53.2018 -112.071 -99.7026 54.0045 
-110.305 -97.8385 51.9819 -110.569 -98.5072 52.561 -111.059 -99.0752 53.4138 
-111.593 -99.5493 54.2844 -112.218 -99.8909 54.95 -111.061 -97.322 52.4377 
-111.01 -97.8395 53.0872 -111.079 -98.5081 53.8136 -111.205 -99.2676 54.6443 
-111.718 -99.7526 55.3824 -112.534 -99.8575 55.8562 -111.469 -97.0477 52.586 
-111.281 -97.426 53.4469 -111.317 -97.8767 54.2208 -111.342 -98.6641 55.032 
-111.429 -99.4404 55.922 -111.979 -99.7336 56.5461 -112.836 -99.7357 56.82 
-111.792 -96.5961 52.7029 -111.546 -97.0427 53.6472 -111.542 -97.4465 54.4852 
-111.782 -98.0673 55.2167 -111.763 -98.8521 56.1641 -111.777 -99.3901 57.0485 
-112.335 -99.5811 57.4561 -113.234 -99.7143 57.5886 -112.163 -96.0783 52.9241 
-111.996 -96.5141 53.8322 -111.868 -97.0019 54.6604 -112.108 -97.6217 55.2646 
-112.259 -98.2726 56.0633 -112.105 -98.7929 57.0413 -112.291 -99.1707 57.6548 
-113.017 -99.5055 57.8818 -113.892 -99.8334 58.0935 -112.561 -95.8271 53.0597 
-112.473 -96.1442 53.8924 -112.312 -96.5745 54.6793 -112.386 -97.2045 55.2364 
-112.552 -97.8106 55.9075 -112.478 -98.1965 56.8433 -112.563 -98.5238 57.5583 
-113.155 -98.9969 57.8767 -113.918 -99.5475 58.1645 -114.549 -99.9905 58.5977 
-112.386 -99.3055 51.885 -112.378 -99.6225 52.5241 -112.822 -99.7953 52.1828 
-112.348 -100.001 53.4791 -112.673 -100.301 52.8267 -113.403 -100.279 52.4582 
-112.463 -100.192 54.5734 -112.668 -100.585 53.9434 -113.322 -100.679 53.2455 
-114.309 -100.503 52.8849 -112.893 -100.079 55.4457 -113.055 -100.471 55.0813 
-113.576 -100.663 54.4693 -114.448 -100.607 53.8422 -115.191 -100.531 53.4962 
-113.378 -99.9012 56.2896 -113.676 -100.238 55.9984 -114.139 -100.451 55.722 
-114.915 -100.411 55.2008 -115.51 -100.479 54.617 -115.897 -100.53 54.1876 
-113.787 -99.8975 57.1963 -114.219 -100.255 56.9037 -114.641 -100.554 56.8105 
-115.349 -100.452 56.6309 -115.998 -100.317 56.1476 -116.331 -100.499 55.4401 
-116.657 -100.552 54.7932 -114.319 -100.032 57.9631 -114.762 -100.397 57.7554 
-115.076 -100.903 57.6444 -115.517 -101.049 57.6005 -116.18 -100.704 57.4187 
-116.724 -100.479 56.8996 -117.095 -100.585 56.0511 -117.453 -100.595 55.2333 
-114.884 -100.199 58.6271 -115.331 -100.46 58.488 -115.62 -100.996 58.2847 
-115.764 -101.547 58.099 -116.146 -101.564 57.9146 -116.788 -101.097 57.6878 
-117.363 -100.734 57.216 -117.776 -100.661 56.412 -118.103 -100.624 55.5716 
-115.098 -100.261 59.3576 -115.59 -100.46 59.2779 -115.5 -100.441 60.0954 
-116.188 -100.729 59.7957 -116.098 -100.588 60.4739 -116.084 -100.78 58.9957 
-116.765 -101.136 60.1483 -116.95 -100.729 60.6503 -116.637 -101.148 59.4454 
-116.238 -101.412 58.6601 -117.394 -101.553 60.5324 -117.818 -100.742 60.835 
-117.095 -101.619 60.029 -116.762 -101.709 59.0993 -116.337 -101.974 58.2542 
-118.328 -101.658 60.7839 -118.821 -100.573 60.8342 -117.868 -101.996 60.5891 
-117.537 -101.891 59.7403 -117.169 -102.116 58.4639 -116.862 -101.932 57.8569 
-119.625 -101.382 60.797 -119.997 -100.299 60.7614 -119.166 -102.063 60.7169 
-118.776 -102.033 60.1229 -118.393 -102.076 58.8268 -117.917 -102.052 57.8486 
-117.568 -101.393 57.6187 -120.685 -100.899 60.831 -120.857 -99.9845 60.7936 
-120.4 -101.764 60.6235 -120.042 -102.088 60.0477 -119.622 -102.088 59.0165 
-119.038 -102.008 58.0476 -118.447 -101.512 57.6287 -118.071 -100.896 57.2359 
-121.126 -100.391 60.6783 -121.197 -99.6758 60.5319 -120.975 -101.183 60.4934 
-120.722 -101.781 59.8842 -120.378 -101.988 59.0105 -119.866 -101.88 58.24 
-119.229 -101.447 57.7809 -118.73 -100.911 57.3028 -118.417 -100.67 56.4883 
-121.281 -99.9556 59.995 -121.34 -99.3808 59.7521 -121.151 -100.545 60.0142 
-120.927 -101.117 59.6147 -120.667 -101.495 58.9115 -120.348 -101.532 58.2673 
-119.883 -101.229 57.8261 -119.393 -100.803 57.3268 -119.036 -100.591 56.5383 
-118.738 -100.583 55.6393 -114.729 -99.7643 58.8998 -114.979 -99.9835 59.8634 
-114.815 -99.1822 59.2418 -114.881 -99.2924 60.1942 -114.834 -98.4172 59.504 
-115.253 -100.035 60.5925 -115.075 -98.4932 60.1652 -115.056 -97.8483 59.5376 
-115.346 -99.2886 60.6231 -116.128 -99.9718 60.7988 -115.641 -97.9048 59.9245 
-115.543 -97.4586 59.3704 -115.917 -98.6266 60.2077 -116.558 -99.2721 60.5934 
-117.297 -99.8508 60.8859 -116.231 -97.3694 59.6499 -116.011 -97.0277 59.0016 
-116.594 -98.0043 59.9044 -117.145 -98.8158 60.1138 -117.727 -99.2573 60.6411 
-118.257 -99.7162 60.9159 -116.647 -96.8954 59.1481 -116.392 -96.6208 58.4367 
-117.04 -97.2253 59.7849 -117.561 -98.0388 59.995 -118.069 -98.8511 60.1983 
-118.623 -99.1972 60.5397 -119.305 -99.6006 60.6905 -117.073 -96.5433 58.5113 
-116.808 -96.1764 57.9839 -117.427 -96.7133 59.3438 -117.89 -97.0896 59.9437 
-118.373 -97.9056 60.041 -118.965 -98.6269 60.0875 -119.722 -99.0153 60.3115 
-120.414 -99.4336 60.5887 -117.513 -95.9809 58.1911 -117.203 -95.5496 57.8396 
-117.858 -96.3652 58.7459 -118.274 -96.6563 59.3654 -118.709 -97.0781 59.7012 
-119.266 -97.6899 59.804 -120.027 -98.2466 60.0025 -120.708 -98.7025 60.3159 
-121.069 -99.1867 60.5391 -117.807 -95.2127 58.1682 -117.49 -94.9448 57.7618 
-118.148 -95.7025 58.4625 -118.567 -96.2809 58.681 -118.997 -96.766 58.9149 
[...]
CELL_DATA 2000
SCALARS Distance double
LOOKUP_TABLE default
159.622 159.3 159.649 160.052 158.988 159.322 159.69 160.072 160.466 
158.691 159.02 159.385 159.722 160.108 160.47 160.848 158.39 158.738 
159.141 159.459 159.859 160.172 160.59 160.904 161.311 158.062 158.436 
158.839 159.196 159.582 159.928 160.346 160.695 161.137 161.439 161.835 
157.707 158.09 158.479 158.854 159.214 159.585 159.964 160.378 160.797 
161.207 161.59 161.916 162.229 157.394 157.74 158.152 158.507 158.908 
159.239 159.638 159.991 160.407 160.799 161.184 161.565 161.883 162.221 
162.521 157.191 157.477 157.893 158.221 158.665 158.995 159.455 159.766 
160.216 160.504 160.906 161.193 161.555 161.864 162.222 162.541 162.907 
157.033 157.302 157.684 157.988 158.405 158.753 159.213 159.584 160.051 
160.372 160.777 161.023 161.389 161.633 162.028 162.308 162.722 163.002 
163.379 159.282 158.718 158.989 158.979 158.192 158.453 158.445 158.701 
158.689 157.618 157.912 157.877 158.149 158.09 158.373 158.343 156.941 
157.271 157.178 157.49 157.374 157.701 157.623 157.982 157.982 156.201 
156.545 156.438 156.741 156.638 156.958 156.918 157.256 157.262 157.629 
157.663 155.452 155.799 155.763 156.058 156.044 156.32 156.363 156.64 
156.676 156.959 156.964 157.301 157.317 154.761 155.081 155.116 155.45 
155.507 155.805 155.827 156.109 156.078 156.368 156.302 156.614 156.582 
156.948 156.992 154.203 154.468 154.544 154.873 154.967 155.268 155.199 
155.46 155.272 155.608 155.482 155.886 155.872 156.256 156.326 156.696 
156.813 153.768 154.005 154.151 154.426 154.594 154.807 154.736 154.827 
154.549 154.732 154.608 155.021 155.151 155.598 155.777 156.121 156.252 
156.573 156.683 153.595 153.757 153.792 154.112 154.102 154.102 154.397 
154.372 154.579 154.068 154.268 154.423 154.552 154.56 154.612 154.556 
153.587 153.848 153.818 154.194 154.106 154.343 154.133 154.294 154.196 
153.426 153.342 153.193 153.408 153.422 153.744 153.78 153.932 153.979 
154.082 154.311 153.871 153.504 153.361 153.134 153.23 153.303 153.662 
153.817 154.221 154.231 154.618 154.595 155.021 154.397 154.092 154.048 
153.683 153.779 153.553 153.886 153.923 154.375 154.519 154.909 154.999 
155.321 155.366 155.675 154.824 154.596 154.657 154.414 154.56 154.29 
154.481 154.303 154.497 154.533 154.704 154.937 155.105 155.399 155.597 
155.827 156.059 155.34 155.074 155.174 154.985 155.18 154.998 155.173 
154.926 154.983 154.733 154.722 154.659 154.734 154.948 155.173 155.527 
155.828 156.131 156.433 156.635 155.965 156.47 156.842 155.263 155.755 
156.191 156.774 157.296 154.869 155.174 155.67 156.196 156.834 157.351 
157.91 154.977 155.049 155.549 155.866 156.515 156.958 157.559 157.994 
158.496 155.328 155.333 155.749 155.893 156.42 156.725 157.269 157.659 
158.18 158.581 159.046 155.534 155.632 155.946 156.057 156.434 156.652 
157.123 157.434 157.953 158.307 158.806 159.142 159.568 155.534 155.714 
156.005 156.139 156.454 156.637 157.091 157.358 157.889 158.173 158.662 
158.94 159.361 159.652 160.064 155.527 155.693 156.028 156.161 156.485 
156.644 157.082 157.345 157.867 158.144 158.583 158.817 159.183 159.449 
159.861 160.186 160.677 155.683 155.77 156.14 156.233 156.569 156.689 
157.084 157.318 157.79 158.076 158.466 158.696 158.996 159.249 159.637 
159.983 160.502 160.872 161.415 157.041 157.316 157.349 157.724 157.745 
157.697 158.067 158.06 158.437 158.299 158.189 158.52 158.446 158.817 
158.816 159.244 158.866 158.753 159.07 158.947 159.291 159.236 159.67 
159.679 160.115 159.396 159.301 159.633 159.515 159.862 159.762 160.173 
160.137 160.575 160.543 160.885 159.899 159.824 160.187 160.09 160.491 
160.38 160.819 160.711 161.146 161.046 161.412 161.282 161.54 160.438 
160.358 160.798 160.703 161.194 161.079 161.589 161.439 161.899 161.713 
162.093 161.892 162.199 161.977 162.221 161.1 160.982 161.5 161.397 
161.959 161.852 162.401 162.255 162.718 162.513 162.875 162.641 162.945 
162.705 162.968 162.707 162.928 161.83 161.709 162.222 162.13 162.671 
162.602 163.114 163.02 163.439 163.284 163.603 163.399 163.662 163.441 
163.672 163.44 163.633 163.384 163.554 162.352 163.145 162.774 162.765 
163.839 163.549 163.622 163.209 163.207 164.566 164.283 164.399 164.028 
164.043 163.635 163.611 165.324 165.073 165.213 164.822 164.812 164.405 
164.362 163.976 163.898 166.028 165.853 166.089 165.7 165.707 165.21 
165.142 164.702 164.625 164.207 164.067 166.7 166.58 166.947 166.632 
166.734 166.198 166.127 165.569 165.469 164.965 164.813 164.332 164.132 
167.223 167.208 167.58 167.44 167.591 167.201 167.111 166.574 166.387 
165.84 165.599 165.076 164.806 164.342 164.104 167.345 167.501 167.731 
167.825 167.897 167.804 167.653 167.351 167.056 166.629 166.262 165.779 
165.397 164.947 164.638 164.258 164.021 167.086 167.345 167.444 167.674 
167.645 167.774 167.576 167.549 167.221 167.029 166.621 166.28 165.844 
165.444 165.083 164.727 164.473 164.147 163.931 162.26 162.212 162.512 
162.975 161.914 162.309 162.75 163.116 163.576 161.618 161.948 162.382 
162.789 163.293 163.714 164.26 161.563 161.757 162.199 162.493 163.052 
163.445 164.05 164.443 165.001 161.559 161.759 162.183 162.428 162.989 
163.319 163.927 164.265 164.795 165.138 165.637 161.425 161.683 162.063 
162.362 162.854 163.236 163.791 164.153 164.632 164.937 165.386 165.743 
166.255 161.28 161.524 161.9 162.181 162.613 162.987 163.471 163.894 
164.357 164.734 165.175 165.522 166.003 166.378 166.837 161.149 161.393 
161.775 162.037 162.451 162.746 163.169 163.521 163.952 164.366 164.825 
165.258 165.718 166.116 166.501 166.847 167.076 160.962 161.222 161.555 
161.862 162.234 162.56 162.934 163.247 163.612 163.965 164.372 164.818 
165.239 165.707 166.019 166.416 166.561 166.875 166.884 155.989 156.608 
156.327 156.391 157.149 156.906 156.93 156.696 156.781 157.642 157.433 
157.513 157.253 157.359 157.122 157.305 158.139 157.972 158.159 157.908 
158.079 157.79 157.981 157.734 157.985 158.58 158.475 158.696 158.546 
158.747 158.53 158.68 158.42 158.56 158.372 158.568 159.015 158.905 
159.111 159.006 159.202 159.093 159.242 159.046 159.117 158.892 159.003 
158.866 159.064 159.548 159.39 159.625 159.455 159.687 159.539 159.772 
159.584 159.747 159.477 159.643 159.395 159.669 159.475 159.794 160.123 
159.967 160.229 160.045 160.315 160.128 160.427 160.218 160.477 160.194 
160.431 160.15 160.49 160.257 160.67 160.401 160.762 160.632 160.522 
160.779 160.642 160.898 160.757 161.04 160.897 161.159 160.947 161.151 
160.917 161.19 161.043 161.437 161.297 161.676 161.411 161.694 155.858 
155.966 156.122 156.533 156.058 156.234 156.627 156.77 157.089 156.017 
156.222 156.543 156.771 157.052 157.227 157.496 155.997 156.111 156.331 
156.558 156.799 157.065 157.327 157.583 157.896 156.178 156.173 156.354 
156.398 156.62 156.794 157.077 157.343 157.678 157.975 158.323 156.358 
156.426 156.676 156.608 156.843 156.811 157.107 157.199 157.546 157.76 
158.139 158.406 158.772 156.28 156.522 156.848 156.933 157.184 157.162 
157.436 157.413 157.737 157.778 158.147 158.295 158.703 158.914 159.314 
156.094 156.356 156.682 156.932 157.195 157.361 157.619 157.715 158.02 
158.064 158.412 158.454 158.848 158.95 159.369 159.522 159.912 156.078 
156.207 156.497 156.711 157.003 157.237 157.533 157.747 158.07 158.245 
158.597 158.719 159.09 159.177 159.556 159.645 160.003 160.117 160.439 
156.271 156.781 156.52 156.617 157.497 157.124 157.167 156.921 157.094 
158.267 157.898 157.946 157.589 157.697 157.448 157.653 158.965 158.644 
158.731 158.402 158.497 158.15 158.271 158.023 158.225 159.711 159.361 
159.482 159.173 159.291 158.943 158.998 158.673 158.796 158.595 158.792 
160.532 160.169 160.293 159.956 160.078 159.721 159.755 159.379 159.435 
159.176 159.363 159.179 159.355 161.27 160.963 161.039 160.732 160.806 
160.489 160.535 160.158 160.205 159.857 160.012 159.777 159.979 159.742 
159.854 161.908 161.635 161.67 161.381 161.397 161.128 161.196 160.92 
161.028 160.689 160.808 160.478 160.614 160.35 160.455 160.196 160.256 
162.509 162.25 162.302 161.995 161.999 161.69 161.752 161.526 161.694 
161.471 161.603 161.279 161.311 160.976 160.995 160.738 160.788 160.564 
160.633 162.853 163.297 162.964 162.672 163.649 163.393 163.127 162.739 
162.374 163.949 163.716 163.506 163.174 162.834 162.423 162.111 164.387 
164.055 163.839 163.523 163.245 162.889 162.625 162.258 162.068 164.913 
164.536 164.251 163.885 163.618 163.294 163.071 162.759 162.556 162.231 
161.989 165.294 164.991 164.693 164.33 164.064 163.717 163.501 163.18 
162.928 162.616 162.292 161.99 161.636 165.607 165.336 165.131 164.791 
164.584 164.22 164.02 163.647 163.38 162.983 162.623 162.243 161.871 
161.565 161.26 166.056 165.761 165.682 165.324 165.186 164.787 164.577 
164.174 163.9 163.48 163.148 162.688 162.343 161.905 161.62 161.28 
161.064 166.592 166.317 166.295 165.956 165.825 165.415 165.14 164.703 
164.355 163.956 163.62 163.232 162.911 162.481 162.178 161.754 161.502 
161.153 160.945 163.07 163.634 163.383 163.499 164.424 164.032 164.029 
163.747 163.801 165.276 164.902 164.819 164.338 164.236 163.982 164.063 
165.748 165.63 165.57 165.134 164.889 164.472 164.466 164.312 164.53 
165.726 165.817 165.785 165.657 165.41 165.078 164.953 164.758 164.966 
164.892 165.127 165.559 165.636 165.586 165.643 165.532 165.426 165.33 
165.188 165.323 165.296 165.54 165.444 165.533 165.427 165.462 165.418 
165.465 165.51 165.519 165.616 165.533 165.698 165.631 165.863 165.799 
165.931 165.76 165.792 165.255 165.332 165.348 165.399 165.535 165.599 
165.853 165.861 166.133 166.054 166.292 166.168 166.327 166.153 166.23 
166.039 166.149 165.068 165.183 165.292 165.38 165.566 165.67 165.955 
166.075 166.393 166.444 166.684 166.611 166.737 166.576 166.639 166.465 
166.562 166.438 166.62 162.857 162.703 162.997 163.462 162.451 162.837 
163.354 163.685 164.249 161.993 162.496 163 163.472 164.016 164.462 
165.012 161.388 161.932 162.407 162.972 163.45 164.022 164.527 165.07 
165.453 160.798 161.295 161.741 162.308 162.774 163.35 163.83 164.434 
164.888 165.363 165.566 160.252 160.71 161.117 161.651 162.108 162.664 
163.121 163.712 164.204 164.776 165.151 165.466 165.548 159.721 160.152 
160.523 161.029 161.46 162.005 162.414 162.975 163.394 164.032 164.463 
165.01 165.241 165.465 165.441 159.272 159.64 159.975 160.427 160.846 
161.373 161.799 162.297 162.651 163.188 163.56 164.197 164.52 165.017 
165.101 165.302 165.211 158.946 159.248 159.553 159.913 160.31 160.792 
161.276 161.757 162.153 162.549 162.856 163.33 163.655 164.208 164.429 
164.825 164.835 165.02 164.95 158.887 159.024 159.129 159.493 159.264 
159.328 159.738 159.797 160.254 159.522 159.603 160.039 160.111 160.611 
160.695 161.236 159.648 159.781 160.173 160.35 160.838 161.027 161.548 
161.673 162.11 159.758 159.86 160.221 160.401 160.854 161.114 161.6 
161.845 162.259 162.398 162.748 159.926 160.022 160.426 160.523 160.983 
161.135 161.6 161.806 162.244 162.451 162.858 163.016 163.449 159.961 
160.165 160.585 160.75 161.193 161.329 161.755 161.874 162.297 162.461 
162.922 163.111 163.566 163.747 164.175 159.852 160.114 160.503 160.77 
161.149 161.407 161.779 161.991 162.375 162.561 163.001 163.197 163.637 
163.816 164.167 164.345 164.61 159.788 160.007 160.395 160.628 160.987 
161.242 161.606 161.886 162.293 162.57 163.016 163.26 163.681 163.861 
164.174 164.301 164.511 164.642 164.798 159.927 160.382 160.285 160.533 
160.83 160.766 161.026 160.89 161.111 161.207 161.193 161.526 161.422 
161.657 161.482 161.723 161.601 161.553 161.914 161.9 162.237 162.098 
162.365 162.166 162.457 162.074 161.968 162.251 162.244 162.614 162.621 
162.972 162.856 163.158 162.958 163.24 162.505 162.431 162.667 162.593 
162.883 162.911 163.279 163.333 163.679 163.621 163.885 163.705 163.901 
162.864 162.841 163.146 163.047 163.31 163.221 163.535 163.565 163.953 
164.013 164.337 164.267 164.44 164.254 164.347 163.259 163.236 163.618 
163.552 163.865 163.723 163.997 163.898 164.261 164.287 164.696 164.685 
164.934 164.759 164.826 164.601 164.638 163.68 163.655 164.024 164.01 
164.339 164.26 164.506 164.384 164.656 164.632 165.017 165.055 165.382 
165.272 165.374 165.103 165.084 164.844 164.873 165.038 165.287 165.212 
165.351 165.623 165.555 165.697 165.568 165.694 165.671 165.809 165.966 
165.922 166.035 165.936 166.093 165.328 165.655 165.857 166.031 166.158 
166.207 166.375 166.36 166.54 164.97 165.257 165.498 165.772 165.964 
166.177 166.374 166.524 166.727 166.759 166.852 164.811 165.003 165.247 
165.455 165.692 165.927 166.159 166.393 166.596 166.781 166.894 166.933 
166.89 164.637 164.863 165.092 165.283 165.528 165.728 165.993 166.188 
166.41 166.584 166.732 166.857 166.896 166.89 166.799 164.332 164.616 
164.844 165.094 165.355 165.597 165.919 166.114 166.417 166.518 166.754 
166.794 166.961 166.938 166.994 166.861 166.798 164.006 164.289 164.539 
164.81 165.1 165.395 165.777 166.059 166.466 166.63 166.975 166.999 
167.271 167.194 167.369 167.193 167.239 166.977 166.924 153.685 154.188 
153.907 153.843 154.748 154.44 154.393 154.078 153.971 155.429 155.045 
154.972 154.629 154.565 154.223 154.203 156.194 155.768 155.661 155.248 
155.207 154.868 154.949 154.626 154.803 156.946 156.543 156.45 155.994 
155.955 155.581 155.703 155.41 155.61 155.325 155.54 157.636 157.294 
157.299 156.86 156.906 156.458 156.615 156.235 156.429 156.097 156.261 
155.988 156.171 158.247 157.984 158.114 157.771 157.955 157.531 157.764 
157.297 157.518 157.03 157.192 156.756 156.944 156.633 156.892 158.816 
158.606 158.817 158.588 158.843 158.552 158.797 158.433 158.646 158.198 
158.358 157.84 158.002 157.542 157.791 157.451 157.739 159.394 159.198 
159.437 159.267 159.529 159.333 159.527 159.28 159.416 159.145 159.275 
158.937 159.05 158.633 158.767 158.384 158.578 158.273 158.477 153.371 
153.475 153.225 152.841 153.6 153.339 152.943 152.695 152.435 153.856 
153.506 153.213 152.912 152.744 152.515 152.593 154.482 153.958 153.724 
153.33 153.317 153.032 153.206 152.996 153.301 155.281 154.745 154.493 
153.996 153.936 153.651 153.835 153.675 153.941 153.777 154.001 155.976 
155.534 155.316 154.811 154.618 154.241 154.245 154.125 154.316 154.292 
154.481 154.354 154.465 156.687 156.233 156.076 155.601 155.43 154.951 
154.849 154.519 154.611 154.528 154.774 154.751 154.953 154.794 154.925 
157.502 157.009 156.844 156.365 156.253 155.792 155.757 155.292 155.35 
154.998 155.221 155.08 155.386 155.282 155.494 155.296 155.444 158.259 
157.818 157.633 157.153 157.03 156.61 156.631 156.24 156.325 155.9 
156.024 155.696 155.926 155.758 156.004 155.845 155.992 155.79 155.907 
153.31 152.789 153.111 153.361 152.421 152.629 152.922 153.331 153.727 
152.586 152.494 152.81 153.03 153.457 153.745 153.921 153.245 152.933 
153.2 153.168 153.575 153.645 153.84 153.828 153.715 153.891 153.61 
153.776 153.678 154.006 153.935 154.104 153.939 153.922 153.709 153.665 
154.318 154.096 154.18 154.14 154.422 154.387 154.552 154.341 154.351 
154.098 154.152 153.933 154.06 154.773 154.495 154.558 154.465 154.759 
154.756 155.007 154.839 154.898 154.622 154.68 154.463 154.583 154.399 
154.515 155.33 155.03 155.123 154.93 155.229 155.151 155.462 155.322 
155.457 155.201 155.266 155.02 155.133 154.912 155.02 154.806 154.917 
155.834 155.604 155.734 155.554 155.838 155.706 155.984 155.819 155.944 
155.723 155.781 155.579 155.702 155.501 155.653 155.392 155.53 155.268 
155.442 162.5 161.888 162.221 162.285 161.224 161.568 161.572 161.955 
161.988 160.476 160.86 160.837 161.205 161.175 161.575 161.535 159.684 
160.085 160.104 160.472 160.445 160.78 160.716 161.071 160.984 158.941 
159.31 159.335 159.727 159.721 160.071 160.012 160.321 160.233 160.54 
160.447 158.215 158.569 158.502 158.899 158.816 159.246 159.155 159.571 
159.46 159.812 159.681 160.009 159.902 157.445 157.795 157.658 158.011 
157.833 158.24 158.098 158.583 158.466 158.927 158.765 159.168 159.018 
159.425 159.343 156.738 157.03 156.911 157.189 157.001 157.291 157.13 
157.531 157.443 157.893 157.763 158.174 158.02 158.461 158.404 158.879 
158.889 156.198 156.405 156.316 156.53 156.367 156.558 156.364 156.646 
156.535 156.933 156.845 157.226 157.097 157.48 157.435 157.917 157.993 
158.49 158.571 
POINT_DATA 1002
SCALARS Distance double
LOOKUP_TABLE default
160.016 159.585 159.264 159.669 158.969 160.473 159.328 158.668 160.075 
160.85 159.066 158.34 159.763 160.486 161.21 158.811 158.021 159.548 
160.268 161.018 161.706 158.477 157.689 159.23 159.97 160.801 161.595 
162.205 158.105 157.328 158.856 159.558 160.364 161.229 161.95 162.533 
157.79 157.067 158.563 159.306 160.051 160.806 161.518 162.184 162.848 
157.577 156.932 158.314 159.119 159.942 160.655 161.257 161.891 162.593 
163.282 157.4 156.769 158.076 158.828 159.693 160.518 161.158 161.754 
162.441 163.133 163.722 158.998 158.706 158.453 158.201 157.923 158.431 
157.613 157.321 157.819 158.022 156.881 156.622 157.042 157.264 157.586 
156.132 155.851 156.303 156.571 156.921 157.28 155.415 155.09 155.742 
156.088 156.431 156.68 156.934 154.741 154.454 155.196 155.586 155.809 
155.997 156.231 156.582 154.211 153.946 154.684 155.025 154.988 155.02 
155.431 155.956 156.441 153.86 153.501 154.385 154.715 154.47 154.191 
154.615 155.408 155.968 156.348 153.426 154.093 153.754 154.462 154.092 
154.639 154.252 153.864 154.558 154.485 153.431 153.467 153.774 153.987 
153.928 153.129 153.684 153.021 153.472 153.882 154.129 153.701 154.229 
153.255 153.416 154.101 154.685 155.044 154.349 154.617 154.095 153.991 
154.254 154.774 155.271 155.651 154.823 155.034 154.8 154.787 154.668 
154.574 154.769 155.279 155.863 155.366 155.622 155.333 155.409 155.323 
154.96 154.636 154.799 155.441 156.183 156.953 156.274 157.299 155.55 
156.75 157.84 155.174 156.288 157.464 158.427 155.338 156.136 157.123 
158.091 158.971 155.703 156.207 156.919 157.766 158.683 159.485 155.872 
156.264 156.833 157.62 158.475 159.261 159.959 155.863 156.283 156.817 
157.623 158.428 159.085 159.738 160.497 155.884 156.341 156.834 157.595 
158.382 158.942 159.525 160.321 161.213 156.061 156.475 156.894 157.526 
158.25 158.766 159.282 160.103 161.081 161.952 157.696 158.098 158.408 
158.632 158.832 159.212 159.202 159.379 159.665 160.134 159.732 159.965 
160.243 160.614 160.979 160.256 160.573 160.935 161.281 161.547 161.711 
160.86 161.281 161.73 162.105 162.315 162.422 162.468 161.589 162.051 
162.545 162.93 163.122 163.189 163.227 163.211 162.326 162.751 163.211 
163.586 163.801 163.888 163.91 163.883 163.808 162.778 163.217 163.439 
163.99 164.088 163.66 164.773 164.838 164.436 164.036 165.61 165.527 
165.257 164.744 164.308 166.424 166.136 166.234 165.631 165.055 164.512 
167.181 166.784 167.238 166.73 166.024 165.33 164.598 167.66 167.225 
167.901 167.636 166.972 166.169 165.3 164.52 167.618 167.192 167.916 
167.877 167.448 166.748 165.871 165.023 164.373 167.226 166.841 167.49 
167.529 167.323 166.892 166.222 165.441 164.786 164.262 162.049 162.709 
161.879 162.341 161.523 163.201 161.983 161.349 162.824 163.854 161.94 
161.399 162.674 163.659 164.639 161.938 161.341 162.67 163.625 164.497 
165.25 161.77 161.166 162.48 163.414 164.336 165.063 165.846 161.637 
161.039 162.293 163.068 163.933 164.804 165.659 166.505 161.506 160.902 
162.182 162.878 163.562 164.362 165.312 166.186 166.813 161.259 160.726 
161.9 162.622 163.303 163.973 164.782 165.624 166.249 166.622 156.283 
156.637 156.904 157.177 157.369 156.977 157.756 157.803 157.607 157.495 
158.359 158.258 158.363 158.268 158.181 158.81 158.674 158.919 158.962 
158.812 158.688 159.234 159.138 159.291 159.399 159.366 159.177 159.146 
159.801 159.706 159.842 159.93 159.989 159.889 159.863 159.998 160.396 
160.269 160.491 160.613 160.738 160.706 160.698 160.911 161.103 155.67 
156.413 155.817 156.474 155.884 156.995 156.311 155.859 156.846 157.318 
156.164 155.969 156.52 157.033 157.63 156.389 156.179 156.511 156.832 
157.369 158.038 156.713 156.182 156.928 157.093 157.397 157.874 158.507 
156.673 155.986 157.16 157.466 157.751 158.065 158.505 159.099 156.41 
155.887 156.965 157.461 157.931 158.379 158.793 159.249 159.761 156.324 