# vtk DataFile Version 4.0
vtk output
ASCII
DATASET POLYDATA
POINTS 1002 float
-118.263 -93.178 53.3509 -118.336 -92.9266 52.777 -117.737 -93.143 52.7048 
-117.779 -93.5747 53.1926 -117.235 -93.53 52.6199 -118.134 -93.615 53.8686 
-117.295 -94.0653 53.0724 -116.754 -93.9424 52.601 -117.774 -94.1625 53.6835 
-117.93 -94.2116 54.4005 -116.746 -94.533 53.0577 -116.29 -94.413 52.5671 
-117.312 -94.6841 53.604 -117.632 -94.7778 54.2878 -117.807 -94.9027 54.9297 
-116.257 -95.1026 53.0466 -115.852 -95.0142 52.4645 -116.742 -95.2097 53.6237 
-117.18 -95.3148 54.2564 -117.471 -95.4231 54.9134 -117.782 -95.62 55.4862 
-115.724 -95.6256 53.1109 -115.296 -95.5348 52.4793 -116.166 -95.7251 53.7305 
-116.568 -95.878 54.3061 -116.957 -95.9786 54.9404 -117.323 -96.1047 55.5972 
-117.619 -96.3072 56.183 -114.969 -95.9002 53.39 -114.661 -95.9099 52.7125 
-115.4 -95.9537 54.0321 -115.805 -96.1942 54.5611 -116.184 -96.4063 55.1483 
-116.66 -96.4969 55.8312 -117.05 -96.6713 56.4613 -117.3 -96.8664 56.9923 
-114.274 -96.2233 53.731 -114.128 -96.3088 53.0206 -114.553 -96.1626 54.4029 
-114.956 -96.3171 54.9433 -115.302 -96.5532 55.556 -115.723 -96.6397 56.2789 
-116.263 -96.7818 56.8994 -116.67 -97.0511 57.3985 -117.011 -97.2048 57.8901 
-113.785 -96.6611 53.9889 -113.614 -96.651 53.3046 -113.953 -96.6481 54.6631 
-114.287 -96.7245 55.2188 -114.649 -96.8406 55.8658 -114.926 -96.8176 56.6816 
-115.35 -96.8312 57.3661 -115.879 -97.0814 57.8436 -116.326 -97.3244 58.3262 
-116.797 -97.3795 58.8481 -113.288 -96.9272 54.2077 -113.011 -96.8035 53.5727 
-113.485 -97.0545 54.8691 -113.768 -97.2077 55.4371 -114.185 -97.3343 56.0399 
-114.504 -97.2922 56.8285 -114.759 -97.1861 57.5858 -115.17 -97.2812 58.1289 
-115.647 -97.4893 58.6251 -116.104 -97.5717 59.1744 -116.625 -97.5675 59.6403 
-118.014 -92.8924 52.0505 -117.407 -93.1114 52.0152 -117.798 -92.9873 51.1709 
-117.237 -93.1676 51.148 -117.637 -93.0291 50.263 -116.941 -93.4639 52.0004 
-116.963 -93.1553 50.1969 -117.282 -92.8899 49.4231 -116.738 -93.4956 51.1254 
-116.481 -93.8514 52.0139 -116.459 -93.0714 49.3813 -116.878 -92.8748 48.6479 
-116.28 -93.4919 50.1739 -116.145 -93.8407 51.2007 -115.968 -94.3045 51.9843 
-116.183 -93.1701 48.7855 -116.727 -93.185 47.969 -115.763 -93.4245 49.4897 
-115.555 -93.7729 50.445 -115.471 -94.1746 51.3815 -115.416 -94.8566 51.9272 
-116.131 -93.4613 48.2057 -116.597 -93.5226 47.3767 -115.575 -93.4697 48.9417 
-115.082 -93.685 49.8371 -114.866 -94.0705 50.8549 -114.882 -94.6842 51.5228 
-114.857 -95.4173 51.9869 -115.869 -93.783 47.5316 -116.286 -93.7994 46.8397 
-115.412 -93.7287 48.2404 -114.868 -93.7954 49.0878 -114.465 -94.1435 50.1493 
-114.398 -94.7208 51.0599 -114.442 -95.3919 51.6293 -114.345 -95.9592 52.2105 
-115.575 -94.1985 47.0192 -116.034 -94.2542 46.4797 -115.19 -94.1855 47.6463 
-114.759 -94.2103 48.3735 -114.306 -94.434 49.2948 -114.074 -94.9261 50.3126 
-114.036 -95.5198 51.1746 -113.952 -96.0362 51.8414 -113.786 -96.4043 52.5199 
-115.552 -94.7692 46.8628 -115.99 -94.9076 46.3943 -115.205 -94.7728 47.4612 
-114.847 -94.8421 48.1005 -114.366 -94.9406 48.7778 -113.921 -95.1809 49.5803 
-113.669 -95.6073 50.5188 -113.479 -96.0648 51.414 -113.263 -96.4079 52.1511 
-113.098 -96.6307 52.8422 -115.796 -95.4926 46.7669 -115.465 -95.422 47.3667 
-115.605 -96.1603 47.2136 -115.284 -96.2204 47.881 -115.184 -96.9489 47.5277 
-115.144 -95.5374 48.0417 -114.735 -97.0212 48.154 -114.666 -97.667 47.9062 
-114.817 -96.3944 48.4964 -114.636 -95.6464 48.6266 -114.161 -97.6189 48.5106 
-114.301 -98.233 48.5216 -114.109 -97.0715 48.7065 -114.053 -96.3743 48.9676 
-113.942 -95.6398 49.1707 -113.735 -98.2749 49.0637 -113.829 -99.009 48.9559 
-113.519 -97.6033 49.1455 -113.272 -96.9202 49.2766 -113.209 -96.189 49.5121 
-113.369 -95.7429 49.9296 -113.117 -99.2439 49.4383 -113.195 -99.9084 49.2374 
-113.034 -98.3936 49.7165 -112.756 -97.5839 49.852 -112.555 -96.8158 49.9671 
-112.659 -96.249 50.3476 -113.005 -96.0753 50.9234 -112.557 -100.012 49.8907 
-112.872 -100.372 49.9412 -112.465 -99.2995 50.1233 -112.361 -98.4712 50.3888 
-112.234 -97.701 50.5161 -112.216 -96.9973 50.7927 -112.332 -96.5418 51.3497 
-112.691 -96.4172 51.8618 -112.468 -100.295 50.7513 -112.943 -100.477 50.9525 
-112.19 -99.8539 50.7313 -112.052 -99.224 50.8982 -111.996 -98.5684 51.082 
-112.019 -97.8798 51.3182 -111.99 -97.1932 51.7836 -112.035 -96.7478 52.3105 
-112.451 -96.6222 52.6476 -112.613 -100.504 51.6741 -113.068 -100.691 51.7577 
-112.254 -100.192 51.6154 -111.997 -99.754 51.6658 -111.815 -99.2383 51.8269 
-111.781 -98.6355 52.0658 -111.8 -97.9319 52.4218 -111.741 -97.2745 52.8476 
-111.871 -96.8783 53.1813 -112.378 -96.7768 53.3912 -112.613 -96.9925 54.2233 
-112.058 -97.0837 54.0378 -112.374 -97.4172 54.8681 -111.717 -97.4172 53.8489 
-112.063 -97.8391 54.6381 -112.412 -98.2332 55.4087 -111.608 -97.9766 53.6118 
-111.803 -98.3658 54.4759 -112.286 -98.8894 55.1136 -112.538 -99.099 55.9865 
-111.511 -98.6608 53.3014 -111.448 -98.8622 54.3356 -111.85 -99.288 54.9776 
-112.29 -99.5551 55.756 -112.419 -99.5579 56.8583 -111.517 -99.3623 52.9693 
-111.208 -99.493 54.0699 -111.283 -99.6625 54.8539 -111.697 -99.8129 55.6649 
-112.002 -99.867 56.7726 -112.167 -99.9589 57.8423 -111.769 -99.9466 52.6983 
-111.407 -100.215 53.7137 -111.21 -100.358 54.5682 -111.373 -100.408 55.5076 
-111.664 -100.478 56.6592 -111.908 -100.6 57.7371 -112.162 -100.742 58.5629 
-112.085 -100.384 52.533 -111.8 -100.745 53.4187 -111.594 -101.025 54.2208 
-111.62 -101.166 55.216 -111.756 -101.321 56.4559 -111.947 -101.487 57.5164 
-112.209 -101.551 58.3051 -112.472 -101.509 59.0226 -112.409 -100.733 52.442 
-112.135 -101.095 53.2138 -111.961 -101.418 53.9426 -111.988 -101.656 54.8524 
-112.044 -101.902 56.1215 -112.119 -102.114 57.2693 -112.381 -102.151 57.9954 
-112.722 -102.039 58.6459 -112.969 -101.926 59.3632 -112.822 -101.007 52.363 
-112.533 -101.378 53.0484 -112.324 -101.687 53.761 -112.271 -101.977 54.5213 
-112.248 -102.302 55.6099 -112.236 -102.522 56.8576 -112.457 -102.514 57.718 
-112.898 -102.361 58.2951 -113.28 -102.245 58.9515 -113.506 -102.255 59.6096 
-112.9 -97.1765 54.9137 -112.601 -97.5748 55.6194 -113.141 -97.3805 55.5983 
-112.529 -98.2693 56.2947 -112.828 -97.7093 56.422 -113.542 -97.5998 56.2353 
-112.579 -99.037 57.0427 -112.73 -98.3041 57.2285 -113.315 -97.9261 57.1477 
-114.056 -97.7404 56.9306 -112.539 -99.6111 57.8938 -112.868 -99.131 57.9171 
-113.31 -98.5789 57.879 -113.954 -98.2067 57.7369 -114.442 -97.7584 57.6477 
-112.463 -100.213 58.6786 -112.998 -99.8439 58.5743 -113.527 -99.4278 58.4277 
-114.034 -98.9453 58.3307 -114.495 -98.4268 58.2802 -114.803 -97.8072 58.2588 
-112.534 -100.934 59.3184 -112.985 -100.404 59.313 -113.622 -100.003 59.1192 
-114.145 -99.5984 58.9862 -114.595 -99.0919 58.9512 -114.96 -98.4929 58.933 
-115.243 -97.9022 58.8539 -112.85 -101.537 59.7911 -113.042 -100.979 59.981 
-113.578 -100.434 59.9086 -114.122 -100.017 59.7792 -114.582 -99.5757 59.7296 
-115.042 -99.0069 59.6987 -115.386 -98.4094 59.6256 -115.68 -97.9074 59.4731 
-113.368 -102.026 60.0426 -113.386 -101.616 60.3445 -113.731 -101.057 60.4351 
-114.215 -100.563 60.3853 -114.632 -100.138 60.3443 -115.072 -99.5855 60.3168 
-115.498 -98.9349 60.2275 -115.81 -98.3448 60.1064 -116.156 -97.8807 59.9457 
-113.962 -102.668 60.0197 -113.948 -102.396 60.3763 -114.508 -103.166 60.3299 
-114.641 -102.778 60.7658 -115.093 -103.382 60.8681 -114.122 -101.952 60.6509 
-115.178 -102.92 61.6434 -115.56 -103.302 61.7835 -114.927 -102.337 61.1226 
-114.547 -101.436 60.7328 -115.53 -102.977 62.7048 -116.011 -103.29 62.5455 
-115.507 -102.639 61.9179 -115.427 -101.968 61.079 -114.987 -100.994 60.6903 
-116.256 -103.137 63.1648 -116.867 -103.332 62.7938 -116.086 -102.906 62.4678 
-116.181 -102.401 61.4636 -115.902 -101.516 60.9375 -115.364 -100.444 60.6838 
-117.562 -103.131 63.1899 -118.105 -103.233 62.8559 -117.12 -103.012 62.5559 
-116.936 -102.556 61.6762 -116.712 -101.766 61.2311 -116.224 -100.756 60.9266 
-115.752 -99.6959 60.6025 -118.779 -102.899 63.2526 -119.155 -103.145 62.8805 
-118.286 -102.788 62.7079 -117.767 -102.415 61.8744 -117.323 -101.7 61.5171 
-116.905 -100.885 61.1791 -116.465 -99.9273 60.6925 -116.083 -98.9631 60.4054 
-119.453 -102.7 63.1336 -119.744 -103.147 62.6797 -119.041 -102.439 62.859 
-118.468 -102.133 62.1332 -117.871 -101.547 61.7034 -117.422 -100.877 61.3404 
-117.092 -100.152 60.7185 -116.767 -99.2078 60.3517 -116.435 -98.3468 60.2609 
-119.831 -102.55 62.6593 -120.081 -103.062 62.2519 -119.503 -102.152 62.6188 
-119.034 -101.836 62.1424 -118.495 -101.389 61.701 -118.041 -100.815 61.3246 
-117.722 -100.233 60.7208 -117.481 -99.474 60.2526 -117.225 -98.5549 60.1965 
-116.919 -97.8674 60.1033 -113.839 -102.729 59.4617 -114.217 -103.369 59.9205 
-113.965 -103.527 59.3725 -114.178 -104.274 59.9252 -113.986 -104.388 59.2728 
-114.715 -103.872 60.294 -114.157 -104.982 59.8248 -114.267 -104.758 58.9448 
-114.756 -104.556 60.3905 -115.451 -103.897 60.7792 -114.678 -105.215 59.252 
-114.935 -104.694 58.3892 -115.018 -104.976 60.3604 -115.84 -104.369 60.7968 
-116.166 -103.748 61.3559 -115.595 -105.193 58.4198 -115.624 -104.57 57.9916 
-115.759 -105.154 59.7465 -116.296 -104.701 60.8817 -116.735 -104.228 61.1193 
-116.749 -103.715 61.7301 -116.309 -104.913 58.0378 -116.124 -104.273 57.844 
-116.569 -105.163 58.8093 -116.855 -104.956 60.375 -117.12 -104.622 61.2697 
-117.321 -104.168 61.3419 -117.609 -103.631 61.9156 -116.815 -104.322 58.0602 
-116.652 -103.839 57.517 -117.102 -104.816 58.3641 -117.427 -105.077 59.2999 
-117.655 -105.012 60.7633 -117.868 -104.641 61.4389 -118.245 -104.095 61.5043 
-118.747 -103.574 62.0634 -117.389 -103.831 57.8099 -117.272 -103.603 56.8459 
-117.554 -104.261 58.3446 -117.907 -104.844 58.6186 -118.352 -105.238 59.5373 
-118.686 -105.138 60.8532 -118.987 -104.692 61.4361 -119.356 -104.189 61.5838 
-119.644 -103.681 62.0882 -117.946 -103.646 57.1406 -117.796 -103.555 56.1332 
-118.036 -103.866 58.0649 -118.293 -104.363 58.4418 -118.835 -104.973 58.719 
[...]
CELL_DATA 2000
SCALARS Distance double
LOOKUP_TABLE default
158.43 158.2 158.465 158.784 158.067 158.312 158.687 158.893 159.19 
157.96 158.193 158.588 158.836 159.194 159.342 159.636 157.93 158.118 
158.504 158.74 159.134 159.341 159.673 159.82 160.159 157.885 158.094 
158.453 158.674 159.045 159.269 159.622 159.82 160.164 160.355 160.711 
157.707 157.951 158.233 158.525 158.822 159.12 159.421 159.699 160.019 
160.285 160.62 160.855 161.162 157.577 157.739 157.953 158.204 158.461 
158.786 159.057 159.393 159.66 160.007 160.304 160.651 160.947 161.223 
161.488 157.543 157.662 157.875 158.005 158.279 158.484 158.812 159.06 
159.355 159.619 159.898 160.237 160.547 160.91 161.203 161.504 161.772 
157.399 157.602 157.831 157.985 158.258 158.422 158.775 158.961 159.314 
159.462 159.76 159.932 160.256 160.532 160.885 161.193 161.504 161.783 
162.061 158.17 157.71 157.893 157.887 157.326 157.474 157.446 157.677 
157.744 156.822 157.048 157.01 157.26 157.302 157.555 157.646 156.207 
156.446 156.396 156.734 156.775 157.094 157.159 157.457 157.584 155.866 
155.924 155.845 156.078 156.107 156.466 156.534 156.907 157.01 157.389 
157.525 155.78 155.752 155.624 155.66 155.601 155.816 155.87 156.229 
156.363 156.771 156.936 157.312 157.427 155.61 155.643 155.479 155.489 
155.336 155.413 155.403 155.646 155.818 156.176 156.423 156.775 156.977 
157.254 157.372 155.487 155.457 155.345 155.335 155.233 155.225 155.205 
155.306 155.47 155.739 156.022 156.348 156.591 156.868 157.013 157.24 
157.327 155.685 155.502 155.501 155.373 155.434 155.304 155.371 155.281 
155.399 155.486 155.699 155.967 156.173 156.472 156.573 156.837 156.864 
157.126 157.14 155.905 156.306 155.977 155.756 156.699 156.44 156.285 
155.93 155.736 156.906 156.757 156.653 156.439 156.241 155.893 155.658 
157.078 156.896 156.721 156.627 156.413 156.241 155.945 155.71 155.541 
157.352 157.098 156.844 156.649 156.37 156.228 155.914 155.803 155.61 
155.584 155.654 157.603 157.373 157.134 156.859 156.564 156.271 155.963 
155.749 155.577 155.549 155.628 155.758 156.01 157.839 157.607 157.399 
157.156 156.915 156.599 156.349 156.008 155.858 155.642 155.682 155.695 
155.902 156.086 156.35 158.208 157.907 157.72 157.444 157.266 156.981 
156.82 156.505 156.401 156.096 156.07 155.872 155.944 155.96 156.148 
156.354 156.604 158.691 158.359 158.208 157.87 157.744 157.416 157.317 
157.006 156.946 156.655 156.623 156.343 156.32 156.12 156.182 156.194 
156.403 156.606 156.88 156.995 156.561 156.879 157.177 156.417 156.588 
156.997 157.269 157.746 156.596 156.63 157.055 157.251 157.833 158.057 
158.584 156.884 156.879 157.205 157.346 157.831 158.122 158.63 158.869 
159.241 157.205 157.176 157.445 157.479 157.811 158.022 158.431 158.748 
159.112 159.367 159.668 157.598 157.546 157.864 157.792 158.109 158.094 
158.489 158.615 159.083 159.264 159.721 159.87 160.303 158.026 157.979 
158.334 158.271 158.627 158.538 158.958 158.924 159.47 159.504 160.098 
160.134 160.68 160.699 161.173 158.469 158.413 158.75 158.718 159.063 
159.035 159.432 159.444 159.95 160.01 160.564 160.618 161.118 161.144 
161.573 161.583 161.963 158.926 158.854 159.169 159.12 159.447 159.422 
159.785 159.824 160.265 160.38 160.85 160.974 161.385 161.475 161.827 
161.899 162.241 162.295 162.637 157.335 157.496 157.537 157.831 157.932 
157.774 158.032 158.049 158.321 158.651 158.309 158.419 158.3 158.599 
158.604 158.894 159.353 159.047 159.075 158.788 159.003 158.933 159.29 
159.245 159.48 159.874 159.684 159.827 159.524 159.701 159.468 159.796 
159.688 159.98 159.817 159.949 160.464 160.237 160.495 160.274 160.531 
160.261 160.546 160.314 160.61 160.384 160.566 160.294 160.429 161.242 
160.93 161.141 160.933 161.213 161.031 161.298 161.083 161.328 161.087 
161.285 160.991 161.131 160.84 161.02 162.027 161.715 161.854 161.592 
161.803 161.631 161.873 161.722 161.933 161.754 161.931 161.703 161.833 
161.555 161.673 161.429 161.606 162.743 162.465 162.617 162.317 162.5 
162.248 162.484 162.281 162.519 162.322 162.522 162.31 162.456 162.207 
162.305 162.049 162.164 161.965 162.142 163.206 163.965 163.431 163.12 
164.764 164.236 163.935 163.353 163.033 165.474 165.029 164.806 164.24 
163.937 163.312 163.015 166.099 165.718 165.586 165.119 164.911 164.295 
163.98 163.326 163.032 166.791 166.398 166.327 165.896 165.774 165.257 
164.998 164.337 163.962 163.312 162.999 167.607 167.197 167.161 166.683 
166.536 166.058 165.818 165.274 164.883 164.231 163.785 163.203 162.873 
168.357 168.021 167.954 167.504 167.243 166.754 166.406 165.948 165.54 
165.019 164.522 163.94 163.48 162.995 162.676 168.804 168.598 168.426 
168.118 167.752 167.327 166.855 166.423 165.965 165.54 165.074 164.578 
164.106 163.59 163.213 162.783 162.527 168.927 168.815 168.55 168.367 
167.972 167.665 167.182 166.796 166.331 165.931 165.51 165.079 164.677 
164.201 163.848 163.375 163.113 162.694 162.508 163.391 163.926 163.824 
164.174 164.465 164.382 164.738 164.632 164.951 164.874 164.869 165.215 
165.167 165.484 165.375 165.633 165.152 165.204 165.591 165.607 165.982 
165.908 166.182 166.016 166.237 165.422 165.487 165.933 165.985 166.445 
166.426 166.759 166.588 166.777 166.591 166.845 165.608 165.745 166.183 
166.306 166.779 166.866 167.253 167.164 167.347 167.13 167.306 167.207 
167.562 165.636 165.841 166.242 166.447 166.888 167.096 167.548 167.618 
167.915 167.734 167.915 167.705 168.003 167.959 168.34 165.653 165.835 
166.229 166.431 166.859 167.111 167.626 167.855 168.344 168.335 168.66 
168.421 168.693 168.484 168.797 168.696 168.919 165.721 165.873 166.247 
166.421 166.816 167.052 167.543 167.865 168.421 168.671 169.112 169.111 
169.379 169.2 169.393 169.199 169.324 169.144 169.142 159.272 159.869 
159.557 159.527 160.514 160.199 160.206 159.846 159.815 161.211 160.889 
160.943 160.576 160.564 160.164 160.159 161.943 161.613 161.667 161.319 
161.33 160.942 160.94 160.558 160.626 162.688 162.363 162.411 162.045 
162.051 161.683 161.703 161.348 161.408 161.069 161.179 163.391 163.107 
163.208 162.837 162.864 162.444 162.501 162.128 162.24 161.875 161.966 
161.609 161.691 164.045 163.791 163.948 163.649 163.757 163.343 163.437 
163.014 163.188 162.786 162.927 162.471 162.516 162.094 162.14 164.707 
164.442 164.609 164.369 164.556 164.243 164.379 163.987 164.14 163.763 
163.933 163.499 163.556 163.031 163.023 162.556 162.584 165.351 165.101 
165.25 165.022 165.226 164.999 165.176 164.869 164.977 164.64 164.749 
164.418 164.491 164.063 164.042 163.528 163.494 163.018 163.016 159.256 
159.445 159.498 159.826 159.699 159.702 159.997 160.067 160.426 160.025 
159.982 160.261 160.274 160.623 160.705 161.115 160.372 160.315 160.593 
160.581 160.945 160.974 161.387 161.445 161.871 160.73 160.665 160.935 
160.919 161.293 161.33 161.743 161.771 162.165 162.207 162.603 161.103 
161.042 161.315 161.273 161.628 161.662 162.076 162.119 162.495 162.513 
162.869 162.917 163.286 161.43 161.405 161.689 161.66 161.993 162.003 
162.401 162.439 162.834 162.847 163.213 163.218 163.586 163.607 163.967 
161.702 161.693 161.962 161.982 162.304 162.344 162.722 162.769 163.166 
163.193 163.576 163.583 163.959 163.958 164.324 164.313 164.656 161.974 
161.948 162.198 162.22 162.539 162.602 162.976 163.055 163.447 163.51 
163.881 163.919 164.263 164.296 164.629 164.658 164.977 164.987 165.288 
162.202 162.698 162.438 162.46 163.351 163.048 163.106 162.777 162.834 
163.998 163.753 163.854 163.51 163.554 163.207 163.285 164.514 164.345 
164.485 164.239 164.301 163.962 164.01 163.681 163.763 165.096 164.874 
165.063 164.843 164.986 164.69 164.763 164.422 164.478 164.148 164.202 
165.844 165.573 165.81 165.522 165.729 165.413 165.548 165.193 165.242 
164.868 164.878 164.542 164.565 166.486 166.32 166.54 166.301 166.452 
166.168 166.271 165.966 165.997 165.628 165.575 165.199 165.172 164.874 
164.905 166.852 166.819 166.987 166.874 166.918 166.735 166.726 166.546 
166.541 166.296 166.221 165.869 165.782 165.461 165.474 165.216 165.259 
167.051 167.075 167.234 167.179 167.189 167.042 166.973 166.841 166.826 
166.706 166.689 166.448 166.373 166.059 166.04 165.777 165.831 165.571 
165.591 167.22 167.571 167.408 167.397 167.892 167.722 167.626 167.464 
167.311 168.16 167.983 167.84 167.652 167.45 167.271 167.08 168.448 
168.248 168.106 167.875 167.698 167.46 167.285 167.083 166.962 168.773 
168.592 168.484 168.199 168.032 167.763 167.614 167.374 167.237 167.026 
166.873 169.07 168.973 168.975 168.668 168.514 168.164 168.012 167.732 
167.584 167.33 167.126 166.88 166.62 169.269 169.287 169.444 169.229 
169.189 168.781 168.653 168.234 168.085 167.716 167.503 167.167 166.901 
166.6 166.334 169.305 169.433 169.645 169.637 169.702 169.468 169.385 
168.978 168.786 168.312 168.031 167.591 167.285 166.93 166.656 166.36 
166.12 169.19 169.364 169.495 169.649 169.672 169.732 169.633 169.519 
169.268 168.942 168.536 168.1 167.662 167.287 166.932 166.654 166.365 
166.126 165.855 167.097 167.02 167.199 167.484 167.019 167.161 167.502 
167.646 167.902 167.126 167.228 167.606 167.737 168.064 168.085 168.251 
167.123 167.303 167.656 167.857 168.197 168.274 168.449 168.406 168.515 
166.788 167.106 167.354 167.724 167.994 168.267 168.386 168.492 168.529 
168.595 168.708 166.295 166.623 166.789 167.202 167.387 167.809 167.899 
168.203 168.2 168.419 168.474 168.697 168.859 165.879 166.15 166.314 
166.624 166.778 167.127 167.244 167.594 167.684 167.986 168.09 168.358 
168.515 168.793 168.985 165.476 165.757 165.922 166.206 166.352 166.612 
166.721 167.003 167.16 167.491 167.708 168.004 168.201 168.444 168.617 
168.88 169.036 165.014 165.312 165.448 165.777 165.917 166.207 166.294 
166.548 166.661 166.991 167.218 167.604 167.836 168.137 168.28 168.516 
168.627 168.884 168.979 166.871 166.605 166.743 166.791 166.4 166.544 
166.586 166.695 166.781 165.978 166.288 166.386 166.54 166.607 166.739 
166.875 165.305 165.728 165.863 166.212 166.31 166.551 166.642 166.834 
166.904 164.642 165.027 165.113 165.527 165.604 166.038 166.125 166.488 
166.504 166.728 166.629 163.957 164.361 164.397 164.764 164.754 165.18 
165.219 165.73 165.77 166.181 166.088 166.313 166.143 163.129 163.589 
163.652 164.056 164.053 164.384 164.364 164.774 164.824 165.309 165.323 
165.693 165.595 165.822 165.702 162.356 162.751 162.857 163.298 163.396 
163.746 163.759 164.046 164.063 164.431 164.502 164.91 164.931 165.248 
165.18 165.408 165.303 161.786 162.072 162.165 162.554 162.691 163.091 
163.165 163.482 163.493 163.786 163.83 164.177 164.243 164.588 164.586 
164.861 164.776 164.99 164.865 161.523 161.175 161.517 161.873 160.741 
161.136 161.521 161.915 162.344 160.376 160.726 161.118 161.518 161.956 
162.387 162.808 160.16 160.456 160.86 161.172 161.608 161.992 162.446 
162.83 163.197 159.92 160.248 160.639 160.955 161.376 161.717 162.182 
162.527 162.95 163.236 163.575 159.607 159.944 160.27 160.636 161.003 
161.426 161.872 162.288 162.715 163.032 163.382 163.638 163.958 159.313 
159.628 159.93 160.235 160.546 160.948 161.361 161.863 162.293 162.73 
163.061 163.395 163.678 163.984 164.266 159.01 159.341 159.679 159.953 
160.259 160.546 160.921 161.333 161.768 162.226 162.584 162.982 163.255 
163.617 163.872 164.215 164.449 158.728 159.038 159.382 159.693 160.004 
160.296 160.637 160.974 161.372 161.754 162.125 162.496 162.8 163.16 
163.431 163.781 164.022 164.347 164.548 158.751 159.009 159.01 159.332 
159.311 159.238 159.482 159.573 159.936 159.746 159.572 159.771 159.752 
160.132 160.224 160.633 160.34 160.111 160.341 160.174 160.542 160.518 
160.971 160.994 161.397 160.929 160.754 161.025 160.841 161.17 161.037 
161.42 161.378 161.762 161.758 162.104 161.379 161.289 161.553 161.465 
161.767 161.655 161.958 161.855 162.18 162.128 162.464 162.444 162.768 
161.74 161.692 161.963 161.914 162.223 162.165 162.481 162.386 162.713 
162.61 162.957 162.862 163.19 163.115 163.419 162.078 162.061 162.386 
162.336 162.666 162.602 162.937 162.875 163.233 163.166 163.53 163.423 
163.728 163.589 163.838 163.742 163.996 162.383 162.41 162.785 162.777 
163.119 163.058 163.353 163.296 163.614 163.615 163.971 163.953 164.24 
164.121 164.306 164.162 164.342 164.272 164.5 164.792 164.643 164.864 
165.223 164.618 164.774 165.11 165.337 165.703 164.575 164.768 165.073 
165.259 165.583 165.8 166.101 164.299 164.617 164.921 165.184 165.477 
165.691 165.98 166.173 166.479 163.915 164.244 164.552 164.911 165.252 
165.556 165.883 166.093 166.447 166.64 167.048 163.674 163.918 164.223 
164.528 164.922 165.287 165.716 166.008 166.409 166.637 167.066 167.284 
167.686 163.471 163.731 164.036 164.283 164.65 164.984 165.446 165.814 
166.255 166.559 166.954 167.233 167.611 167.846 168.138 163.113 163.458 
163.747 164.065 164.379 164.717 165.109 165.505 165.929 166.312 166.696 
167.033 167.393 167.691 168.017 168.229 168.481 162.662 163.017 163.282 
163.667 163.971 164.364 164.718 165.125 165.516 165.924 166.319 166.707 
167.104 167.453 167.837 168.104 168.422 168.588 168.828 155.841 155.644 
155.815 156.115 155.741 155.745 155.955 156.153 156.54 155.896 155.889 
156.031 156.093 156.421 156.671 157.184 156.03 156.031 156.225 156.232 
156.545 156.673 157.199 157.461 158.055 156.424 156.304 156.611 156.531 
156.892 156.899 157.398 157.57 158.163 158.386 158.902 157.033 156.874 
157.218 157.075 157.44 157.336 157.747 157.801 158.302 158.491 158.975 
159.162 159.572 157.518 157.452 157.776 157.702 158.032 157.913 158.225 
158.163 158.534 158.618 159.044 159.211 159.623 159.797 160.194 157.901 
157.857 158.187 158.172 158.519 158.452 158.762 158.654 158.969 158.911 
159.276 159.325 159.732 159.863 160.27 160.426 160.796 158.355 158.269 
158.614 158.577 158.945 158.902 159.249 159.176 159.509 159.41 159.733 
159.657 160.004 160.03 160.417 160.526 160.889 161.003 161.295 156.154 
156.446 156.46 156.823 156.882 156.826 157.197 157.179 157.516 157.492 
157.32 157.644 157.576 157.905 157.862 158.176 158.283 157.997 158.22 
158.039 158.292 158.225 158.541 158.535 158.899 159.086 158.799 158.977 
158.685 158.867 158.656 158.922 158.874 159.265 159.296 159.688 159.783 
159.557 159.809 159.515 159.76 159.404 159.654 159.384 159.745 159.674 
160.113 160.096 160.44 160.434 160.249 160.586 160.372 160.73 160.411 
160.707 160.306 160.593 160.302 160.684 160.565 160.949 160.84 161.094 
161.011 160.882 161.214 161.104 161.466 161.306 161.588 161.308 161.487 
161.173 161.38 161.181 161.465 161.351 161.595 161.446 161.592 161.45 
161.373 161.645 161.616 161.913 161.873 162.089 161.965 162.055 161.858 
161.913 161.749 161.874 161.789 161.956 161.876 162 161.864 161.94 
156.195 156.804 156.483 156.522 157.435 157.08 157.021 156.785 156.827 
158.087 157.692 157.593 157.277 157.261 157.047 157.067 158.838 158.385 
158.275 157.879 157.86 157.558 157.591 157.314 157.336 159.624 159.172 
159.029 158.586 158.52 158.191 158.223 157.926 157.938 157.624 157.621 
160.33 159.922 159.759 159.319 159.188 158.832 158.821 158.541 158.538 
158.232 158.176 157.878 157.839 160.94 160.576 160.425 160.016 159.891 
159.503 159.475 159.148 159.162 158.831 158.794 158.445 158.394 158.087 
158.082 161.439 161.139 161.018 160.668 160.581 160.213 160.187 159.837 
159.849 159.499 159.488 159.112 159.081 158.713 158.719 158.395 158.453 
161.814 161.585 161.499 161.231 161.171 160.87 160.826 160.512 160.475 
160.162 160.123 159.798 159.755 159.415 159.401 159.074 159.115 158.818 
158.905 166.856 166.664 166.692 166.568 166.283 166.428 166.296 166.408 
166.301 165.662 165.936 165.82 166.036 165.889 166.041 165.831 164.973 
165.269 165.233 165.511 165.398 165.56 165.315 165.433 165.159 164.388 
164.625 164.613 164.925 164.886 165.08 164.853 164.926 164.638 164.753 
164.515 163.813 164.034 163.9 164.242 164.161 164.493 164.279 164.446 
164.121 164.241 163.959 164.119 163.842 163.176 163.393 163.156 163.442 
163.25 163.627 163.412 163.732 163.433 163.655 163.352 163.536 163.232 
163.379 163.035 162.607 162.782 162.591 162.748 162.549 162.765 162.589 
162.86 162.686 162.938 162.752 162.943 162.716 162.822 162.525 162.591 
162.29 162.175 162.32 162.221 162.316 162.176 162.251 162.116 162.239 
162.16 162.337 162.286 162.448 162.342 162.419 162.205 162.207 161.943 
161.96 161.74 
POINT_DATA 1002
SCALARS Distance double
LOOKUP_TABLE default
158.733 158.45 158.109 158.555 157.937 159.067 158.446 157.82 159.06 
159.446 158.315 157.747 159.002 159.522 159.942 158.293 157.752 158.904 
159.499 159.999 160.538 158.239 157.664 158.828 159.405 159.964 160.53 
161.067 157.951 157.508 158.511 159.128 159.731 160.364 160.969 161.452 
157.76 157.468 158.152 158.721 159.324 159.93 160.621 161.251 161.763 
157.762 157.402 158.105 158.582 159.136 159.607 160.161 160.86 161.499 
162.057 157.643 157.154 158.089 158.581 159.165 159.644 160.031 160.576 
161.22 161.795 162.334 157.952 157.619 157.561 157.244 157.175 157.477 
156.728 156.564 157.061 157.371 156.047 156.012 156.415 156.853 157.254 
155.714 155.875 155.776 156.134 156.615 157.162 155.669 155.799 155.491 
155.54 155.939 156.536 157.112 155.461 155.572 155.308 155.211 155.462 
156.055 156.678 157.143 155.339 155.551 155.237 155.158 155.249 155.702 
156.313 156.784 157.113 155.619 155.887 155.546 155.52 155.438 155.511 
155.888 156.32 156.617 156.864 156.209 156.102 156.609 156.612 156.878 
156.142 156.785 157.058 156.565 156.017 156.847 157.332 156.532 156.144 
155.677 157.117 157.609 156.571 156.011 155.59 155.564 157.396 157.806 
156.892 156.233 155.649 155.496 155.825 157.622 158.089 157.182 156.674 
156.144 155.784 155.767 156.116 158.01 158.526 157.529 157.089 156.698 
156.362 156.067 155.999 156.331 158.542 159.008 158.073 157.632 157.232 
156.909 156.602 156.295 156.255 156.624 157.208 156.806 157.521 156.705 
157.481 158.238 156.893 157.568 158.453 159.063 157.146 157.579 158.347 
159.092 159.571 157.478 157.714 158.141 158.806 159.441 159.995 157.932 
158.186 158.429 158.898 159.547 160.176 160.739 158.375 158.696 158.999 
159.446 160.069 160.68 161.184 161.598 158.793 159.084 159.41 159.887 
160.518 161.106 161.568 161.967 162.326 159.23 159.486 159.772 160.175 
160.736 161.299 161.75 162.164 162.592 162.992 157.762 158.04 158.296 
158.653 158.565 158.938 159.426 159.147 159.299 159.634 160.057 160 
159.957 160.133 160.174 160.661 160.767 160.828 160.854 160.845 160.679 
161.391 161.373 161.499 161.569 161.563 161.45 161.264 162.158 162.014 
162.023 162.099 162.133 162.099 161.953 161.803 162.912 162.781 162.707 
162.722 162.737 162.699 162.571 162.391 162.299 163.715 163.666 164.516 
164.526 165.252 163.612 165.31 165.863 164.582 163.618 165.985 166.451 
165.466 164.686 163.637 166.759 167.163 166.237 165.62 164.688 163.562 
167.672 167.988 167.054 166.32 165.516 164.445 163.349 168.404 168.679 
167.788 166.889 166.01 165.095 164.025 163.067 168.713 169.02 168.163 
167.305 166.371 165.514 164.614 163.679 162.892 168.713 169.049 168.226 
167.528 166.714 165.908 165.109 164.31 163.555 162.892 163.465 164.293 
164.02 164.835 164.54 165.087 165.231 164.85 165.579 165.788 165.532 
165.075 166.012 166.358 166.401 165.857 165.335 166.415 166.911 167.008 
166.923 166.043 165.445 166.65 167.275 167.574 167.459 167.538 166.034 
165.43 166.649 167.366 168.006 168.168 168.118 168.353 166.043 165.488 
166.612 167.318 168.196 168.835 168.98 168.983 169.058 166.09 165.586 
166.608 167.228 168.084 168.985 169.52 169.64 169.559 169.357 159.578 
159.864 160.166 160.567 160.811 160.188 161.291 161.532 160.974 160.532 
162.016 162.282 161.695 161.321 160.968 162.793 162.991 162.426 162.035 
161.755 161.504 163.54 163.645 163.293 162.874 162.597 162.37 162.025 
164.189 164.304 164.117 163.865 163.574 163.395 163.019 162.506 164.836 
164.982 164.803 164.749 164.524 164.322 164.083 163.567 162.997 159.183 
159.735 159.417 159.955 159.728 160.302 160.265 160.083 160.565 161.003 
160.6 160.434 160.916 161.356 161.802 160.962 160.794 161.244 161.719 
162.155 162.538 161.371 161.144 161.615 162.026 162.483 162.848 163.223 
161.702 161.445 161.996 162.371 162.808 163.211 163.583 163.953 161.934 
161.727 162.251 162.667 163.129 163.562 163.958 164.338 164.683 162.184 