# vtk DataFile Version 4.0
vtk output
ASCII
DATASET POLYDATA
POINTS 1002 float
-117.113 -104.357 52.4266 -117.016 -103.981 52.0335 -116.616 -103.643 52.5494 
-116.656 -103.86 53.0533 -115.986 -103.478 52.906 -117.075 -104.485 53.0258 
-115.866 -103.801 53.3578 -115.217 -103.625 53.0574 -116.445 -104.17 53.5597 
-116.856 -104.608 53.873 -114.987 -104.078 53.5569 -114.482 -103.695 53.3832 
-115.505 -104.416 53.743 -116.087 -104.688 54.1944 -116.604 -104.911 54.8175 
-114.237 -104.152 54.0118 -113.791 -103.637 53.8163 -114.643 -104.705 54.045 
-115.221 -105.005 54.3901 -115.904 -105.085 55.1106 -116.474 -105.176 55.7618 
-113.535 -104.197 54.388 -113.145 -103.729 54.1261 -113.942 -104.739 54.545 
-114.538 -105.02 54.9062 -115.267 -105.098 55.5716 -115.89 -105.224 56.2259 
-116.412 -105.445 56.6309 -112.922 -104.319 54.7235 -112.681 -103.767 54.5997 
-113.229 -104.877 54.9225 -113.863 -105.042 55.4973 -114.681 -104.96 56.2782 
-115.331 -105.177 56.8234 -115.818 -105.623 57.0812 -116.364 -105.946 57.2853 
-112.54 -104.217 55.3801 -112.382 -103.631 55.2464 -112.675 -104.888 55.4905 
-113.148 -105.242 55.9919 -113.965 -105.169 56.8267 -114.714 -105.249 57.3926 
-115.251 -105.756 57.5402 -115.767 -106.22 57.6515 -116.358 -106.362 57.9385 
-112.277 -104.055 56.0758 -112.109 -103.535 55.7608 -112.375 -104.665 56.2811 
-112.666 -105.184 56.611 -113.277 -105.459 57.1928 -113.991 -105.611 57.7059 
-114.653 -105.897 57.9463 -115.273 -106.271 58.1414 -115.842 -106.475 58.4703 
-116.37 -106.475 58.8909 -112.021 -104.017 56.5744 -111.864 -103.485 56.1819 
-112.132 -104.573 56.9129 -112.367 -105.044 57.2314 -112.798 -105.487 57.5961 
-113.318 -105.919 57.9322 -113.955 -106.176 58.2263 -114.74 -106.266 58.6329 
-115.448 -106.368 59.1376 -115.956 -106.498 59.588 -116.378 -106.577 59.9506 
-116.609 -103.371 51.8714 -116.056 -103.287 52.2025 -116.073 -102.95 51.4531 
-115.471 -103.027 51.6399 -115.598 -102.465 51.0646 -115.377 -103.339 52.4067 
-115.08 -102.426 51.348 -115.323 -101.571 51.0554 -114.832 -103.04 51.9045 
-114.652 -103.41 52.612 -114.853 -101.461 51.4653 -115.101 -100.615 51.1434 
-114.468 -102.344 51.7595 -114.095 -103.003 52.1989 -113.917 -103.344 52.9604 
-114.558 -100.671 51.4769 -114.772 -100.061 50.8906 -114.121 -101.569 51.7793 
-113.576 -102.487 51.9387 -113.247 -103.086 52.3817 -113.185 -103.379 53.2811 
-114.269 -100.103 51.2986 -114.539 -99.6497 50.6138 -113.74 -100.867 51.6852 
-113.086 -101.878 51.7882 -112.627 -102.733 51.9759 -112.511 -103.205 52.6856 
-112.613 -103.451 53.738 -114.162 -99.4671 51.3703 -114.528 -99.0495 50.773 
-113.523 -100.047 51.6878 -112.799 -100.968 51.7981 -112.281 -101.941 51.9677 
-112.06 -102.647 52.4781 -112.091 -103.061 53.4101 -112.27 -103.321 54.4327 
-114.045 -98.8186 51.6364 -114.488 -98.3703 51.168 -113.365 -99.264 51.8191 
-112.696 -99.9717 51.9186 -112.25 -100.884 52.1951 -111.985 -101.708 52.6603 
-111.821 -102.367 53.3199 -111.836 -102.843 54.1632 -111.996 -103.176 55.0187 
-113.728 -98.2802 51.7262 -114.239 -97.8038 51.4106 -113.043 -98.6987 51.8023 
-112.484 -99.2422 51.9195 -112.214 -100.017 52.3396 -112.038 -100.84 52.8963 
-111.77 -101.605 53.3978 -111.551 -102.294 53.9693 -111.563 -102.783 54.6904 
-111.73 -103.116 55.4616 -113.499 -97.6523 51.5971 -112.79 -98.1 51.6267 
-112.659 -97.4511 51.6336 -112.017 -97.8745 51.7048 -112.121 -97.2326 52.2071 
-112.186 -98.5792 51.7315 -111.754 -97.7601 52.5887 -111.952 -97.3486 53.3684 
-111.733 -98.4779 52.2266 -111.981 -99.2625 52.2663 -111.761 -98.0464 53.8124 
-111.934 -97.8347 54.481 -111.654 -98.5133 53.3024 -111.716 -99.2946 53.0853 
-111.931 -100.105 53.0173 -111.692 -98.4747 54.8768 -111.938 -98.189 55.4817 
-111.531 -98.7773 54.3102 -111.435 -99.3294 53.9353 -111.48 -100.162 53.7143 
-111.661 -100.944 53.5502 -111.528 -98.6761 56.029 -111.95 -98.3814 56.5111 
-111.227 -99.0218 55.3765 -111.12 -99.4368 54.76 -111.034 -100.139 54.3709 
-111.088 -101.037 54.1493 -111.314 -101.767 54.0084 -111.461 -98.9233 57.0884 
-112.018 -98.7862 57.296 -110.971 -99.1939 56.6548 -110.905 -99.5994 55.9632 
-110.955 -100.2 55.3474 -110.876 -101.042 55.0294 -110.937 -101.866 54.8263 
-111.21 -102.425 54.6732 -111.6 -99.3761 57.7826 -112.133 -99.282 57.885 
-111.025 -99.5141 57.6531 -110.865 -99.8211 57.27 -111.035 -100.39 56.6545 
-111.036 -101.158 56.1917 -110.949 -101.88 55.9625 -111.073 -102.41 55.7071 
-111.373 -102.802 55.482 -111.796 -99.7294 58.4217 -112.183 -99.5418 58.6011 
-111.326 -99.9022 58.3323 -111.046 -100.123 58.2507 -111.058 -100.588 57.9382 
-111.063 -101.35 57.4411 -111.006 -102.035 57.0931 -111.112 -102.399 56.8687 
-111.354 -102.697 56.5584 -111.61 -103.099 56.2804 -111.799 -103.721 56.9604 
-111.671 -103.17 57.258 -111.758 -104.003 57.8788 -111.451 -102.77 57.6232 
-111.736 -103.384 58.2756 -111.737 -104.335 58.8198 -111.077 -102.646 57.9035 
-111.458 -103.103 58.6131 -111.72 -103.797 59.1924 -111.787 -104.659 59.7209 
-110.846 -102.267 58.255 -110.951 -102.958 58.9922 -111.401 -103.535 59.5936 
-111.671 -104.228 60.15 -111.992 -104.858 60.6948 -110.948 -101.439 58.7521 
-110.767 -102.313 59.5341 -111.058 -103.078 60.1294 -111.433 -103.817 60.7124 
-111.702 -104.514 61.3452 -112.264 -104.955 61.7673 -111.147 -100.76 59.0261 
-111.037 -101.516 59.8579 -111.138 -102.324 60.4896 -111.469 -103.158 61.0955 
-111.576 -104.016 61.9032 -111.847 -104.697 62.5197 -112.53 -105.059 62.6651 
-111.366 -100.398 59.0412 -111.356 -101.018 59.8533 -111.418 -101.771 60.5101 
-111.747 -102.549 61.0905 -111.872 -103.346 61.97 -111.802 -104.14 62.8721 
-112.187 -104.754 63.2384 -112.937 -105.125 63.2201 -111.666 -100.068 59.1434 
-111.587 -100.531 59.9538 -111.607 -101.245 60.6204 -111.903 -102.057 61.1291 
-112.202 -102.76 61.8458 -112.144 -103.396 62.7919 -112.209 -104.055 63.4175 
-112.783 -104.655 63.5632 -113.513 -105.098 63.6241 -111.97 -99.7404 59.3825 
-111.813 -100.013 60.2235 -111.812 -100.587 60.9017 -112.042 -101.423 61.3709 
-112.368 -102.211 61.8863 -112.465 -102.77 62.6402 -112.476 -103.268 63.3554 
-112.84 -103.89 63.7075 -113.485 -104.549 63.8523 -114.054 -105.064 64.0803 
-111.864 -104.434 57.3409 -111.744 -104.872 58.2442 -112.006 -105.029 57.7143 
-111.759 -105.217 59.2473 -111.93 -105.525 58.6656 -112.353 -105.477 58.0807 
-112.078 -105.335 60.2333 -112.075 -105.846 59.764 -112.307 -106.04 59.0741 
-112.762 -106.022 58.368 -112.604 -105.233 61.1372 -112.605 -105.757 60.7141 
-112.532 -106.303 60.1756 -112.75 -106.548 59.3483 -113.286 -106.46 58.625 
-112.987 -105.188 61.9896 -113.176 -105.5 61.4413 -113.141 -106.079 61.0523 
-113.214 -106.568 60.4827 -113.586 -106.649 59.7531 -114.177 -106.437 59.1428 
-113.285 -105.321 62.757 -113.506 -105.542 62.238 -113.667 -105.953 61.8506 
-113.941 -106.367 61.5036 -114.306 -106.522 61.0211 -114.725 -106.415 60.477 
-115.137 -106.309 59.8693 -113.748 -105.43 63.4163 -113.89 -105.766 63.1044 
-114.031 -106.227 62.7782 -114.371 -106.598 62.4922 -114.831 -106.683 62.1012 
-115.217 -106.606 61.5916 -115.519 -106.513 61.0646 -115.757 -106.478 60.4072 
-114.245 -105.434 64.0352 -114.403 -105.825 63.8586 -114.497 -106.423 63.5692 
-114.629 -107.031 63.3084 -114.907 -107.259 62.9811 -115.282 -107.189 62.3866 
-115.647 -107.107 61.7351 -115.936 -106.992 61.2257 -116.155 -106.784 60.6698 
-114.523 -105.332 64.6759 -114.73 -105.664 64.6093 -114.822 -105.606 65.3385 
-115.135 -105.932 65.0317 -115.24 -105.922 65.8096 -114.953 -106.169 64.2472 
-115.684 -106.282 65.2119 -116.042 -106.294 65.9289 -115.424 -106.509 64.3775 
-115.015 -106.988 63.834 -116.529 -106.581 65.2377 -117.041 -106.471 65.6797 
-115.996 -106.808 64.5539 -115.401 -107.404 63.9847 -114.98 -107.676 63.5836 
-117.439 -106.563 65.0175 -117.934 -106.222 65.3609 -116.894 -106.962 64.8029 
-116.101 -107.608 64.3947 -115.38 -108.066 63.7752 -115.171 -107.846 63.077 
-118.161 -106.344 64.6675 -118.694 -105.841 65.2973 -117.822 -106.994 64.6029 
-117.255 -107.672 64.6429 -116.411 -108.146 64.0159 -115.811 -108.196 62.9643 
-115.651 -107.784 62.1788 -118.772 -106.292 64.4997 -119.286 -105.727 65.2322 
-118.537 -107.103 64.1416 -118.272 -107.773 64.256 -117.641 -108.068 63.9373 
-116.942 -108.148 62.8866 -116.444 -108.084 61.912 -116.131 -107.66 61.4947 
-119.342 -106.395 64.3825 -119.664 -105.829 64.7973 -119.193 -107.235 63.9486 
-119.034 -107.892 63.8198 -118.499 -108.019 63.5951 -117.824 -107.896 62.8472 
-117.317 -107.883 61.9634 -116.855 -107.765 61.4411 -116.44 -107.308 61.1462 
-119.857 -106.416 64.054 -119.993 -105.909 64.1263 -119.794 -107.14 63.8443 
-119.686 -107.758 63.6674 -119.188 -107.894 63.4125 -118.417 -107.67 62.8717 
-117.856 -107.5 62.2132 -117.482 -107.421 61.6951 -117.065 -107.188 61.2574 
-116.673 -106.827 60.6963 -114.255 -104.756 64.379 -114.662 -105.11 65.0262 
-114.546 -104.357 64.6135 -114.966 -104.652 65.1948 -114.88 -103.884 64.7316 
-114.953 -105.37 65.7238 -115.346 -104.001 65.2228 -115.15 -103.44 64.7002 
-115.378 -104.692 65.8163 -115.552 -105.595 66.205 -115.702 -103.507 65.1579 
-115.456 -103.108 64.4147 -115.922 -103.873 65.7841 -116.144 -104.72 66.219 
-116.546 -105.879 66.209 -116.202 -103.208 64.8396 -115.95 -102.782 63.9019 
-116.513 -103.468 65.6547 -116.786 -103.927 66.0416 -117.119 -104.995 66.1157 
-117.598 -105.978 65.9042 -116.765 -102.81 64.2638 -116.466 -102.31 63.4837 
-117.14 -103.258 65.1593 -117.424 -103.692 65.6309 -117.614 -104.361 65.7529 
-118.107 -105.259 65.9153 -118.609 -105.734 65.8645 -117.097 -102.32 63.6763 
-116.809 -101.762 63.2546 -117.476 -102.907 64.3165 -117.852 -103.565 64.8489 
-117.985 -104.167 65.1151 -118.363 -104.797 65.4934 -119.117 -105.314 65.9818 
-119.456 -105.498 65.9265 -117.302 -101.877 63.1945 -117.038 -101.316 62.9676 
-117.573 -102.497 63.5075 -117.953 -103.242 63.9256 -118.181 -103.942 64.3362 
-118.398 -104.492 64.7623 -119.088 -104.997 65.3186 -119.774 -105.329 65.6745 
-119.852 -105.499 65.4312 -117.598 -101.459 62.8142 -117.267 -101.032 62.5301 
-117.836 -101.987 63.0416 -118.127 -102.684 63.2942 -118.405 -103.441 63.6628 
[...]
CELL_DATA 2000
SCALARS Distance double
LOOKUP_TABLE default
163.996 163.594 163.993 164.329 163.15 163.537 163.861 164.254 164.546 
162.769 163.112 163.421 163.782 164.112 164.483 164.813 162.411 162.755 
163.079 163.401 163.743 164.092 164.477 164.826 165.193 162.077 162.408 
162.757 163.084 163.437 163.773 164.17 164.524 164.93 165.249 165.613 
161.856 162.121 162.474 162.779 163.158 163.489 163.901 164.246 164.679 
165.009 165.418 165.704 166.086 161.748 161.96 162.298 162.546 162.937 
163.244 163.691 164.017 164.473 164.79 165.234 165.533 165.949 166.217 
166.596 161.683 161.884 162.22 162.422 162.798 163.065 163.519 163.839 
164.308 164.616 165.058 165.36 165.791 166.082 166.477 166.723 167.059 
161.63 161.834 162.193 162.378 162.743 162.96 163.384 163.676 164.135 
164.447 164.875 165.177 165.596 165.908 166.33 166.608 166.982 167.187 
167.506 163.611 162.867 163.256 163.241 162.1 162.501 162.519 162.87 
162.836 161.342 161.744 161.773 162.147 162.139 162.476 162.447 160.602 
160.997 161.032 161.405 161.386 161.745 161.708 162.073 162.051 159.905 
160.277 160.312 160.671 160.636 160.978 160.915 161.286 161.27 161.67 
161.7 159.308 159.617 159.625 159.947 159.887 160.216 160.133 160.49 
160.475 160.884 160.962 161.379 161.49 158.878 159.091 159.046 159.272 
159.159 159.451 159.366 159.718 159.716 160.116 160.217 160.654 160.816 
161.235 161.389 158.526 158.697 158.577 158.713 158.53 158.75 158.681 
159.004 159.063 159.423 159.554 159.948 160.124 160.554 160.737 161.152 
161.311 158.092 158.279 158.071 158.198 157.946 158.142 158.084 158.403 
158.538 158.875 159.048 159.367 159.535 159.898 160.08 160.488 160.669 
161.076 161.244 157.754 157.057 157.493 157.623 156.487 156.762 156.894 
157.319 157.515 156.502 156.441 156.61 156.788 157.129 157.432 157.805 
157.036 156.765 156.928 156.833 157.199 157.317 157.79 157.976 158.39 
157.642 157.379 157.46 157.28 157.484 157.497 157.847 158.022 158.407 
158.589 158.909 158.132 157.9 157.894 157.716 157.769 157.717 157.892 
158.009 158.311 158.533 158.866 159.06 159.367 158.649 158.361 158.318 
158.082 158.121 157.985 158.164 158.124 158.435 158.505 158.898 159.037 
159.418 159.554 159.904 159.25 158.924 158.886 158.568 158.637 158.426 
158.691 158.565 158.948 158.859 159.283 159.252 159.665 159.692 160.066 
160.142 160.498 159.796 159.528 159.523 159.207 159.29 159.039 159.305 
159.167 159.552 159.46 159.85 159.762 160.121 160.054 160.389 160.374 
160.709 160.758 161.097 161.414 161.062 161.428 161.841 160.776 161.113 
161.548 161.91 162.357 160.541 160.861 161.296 161.647 162.113 162.462 
162.917 160.285 160.616 161.026 161.385 161.85 162.227 162.699 163.04 
163.51 160.003 160.344 160.732 161.081 161.529 161.938 162.439 162.824 
163.314 163.659 164.146 159.777 160.09 160.513 160.813 161.255 161.621 
162.151 162.56 163.095 163.465 163.969 164.306 164.773 159.721 159.942 
160.396 160.653 161.109 161.41 161.941 162.316 162.881 163.252 163.757 
164.105 164.567 164.898 165.322 159.846 159.961 160.35 160.563 160.989 
161.277 161.777 162.139 162.691 163.059 163.54 163.867 164.276 164.627 
165.044 165.408 165.829 160.035 160.09 160.373 160.519 160.877 161.134 
161.6 161.955 162.488 162.862 163.328 163.639 163.998 164.307 164.685 
165.07 165.518 165.912 166.351 161.737 162.163 162.074 162.325 162.671 
162.546 162.802 162.67 162.902 163.234 163.093 163.371 163.206 163.454 
163.282 163.546 163.847 163.694 164.017 163.836 164.115 163.899 164.158 
163.978 164.275 164.476 164.326 164.658 164.501 164.803 164.598 164.851 
164.627 164.886 164.714 165.002 165.067 164.931 165.212 165.089 165.38 
165.25 165.532 165.338 165.599 165.371 165.647 165.45 165.742 165.629 
165.499 165.768 165.618 165.916 165.801 166.165 166.026 166.38 166.147 
166.457 166.185 166.48 166.233 166.509 166.191 166.076 166.412 166.233 
166.595 166.428 166.878 166.73 167.179 166.968 167.319 167.041 167.321 
167.032 167.273 166.997 167.191 166.731 166.654 167.038 166.909 167.307 
167.171 167.63 167.505 167.946 167.768 168.087 167.848 168.079 167.829 
168.03 167.762 167.918 167.622 167.731 167.143 167.821 167.488 167.46 
168.454 168.131 168.138 167.801 167.776 169.17 168.774 168.754 168.443 
168.485 168.155 168.145 169.933 169.525 169.447 169.072 169.087 168.812 
168.858 168.52 168.447 170.452 170.19 170.147 169.811 169.822 169.473 
169.5 169.16 169.088 168.712 168.53 170.727 170.553 170.592 170.448 
170.589 170.3 170.339 169.889 169.769 169.309 169.114 168.71 168.498 
171.029 170.826 170.905 170.845 171.116 171.004 171.104 170.728 170.539 
170.03 169.766 169.31 169.091 168.681 168.464 171.325 171.177 171.306 
171.237 171.544 171.483 171.597 171.33 171.08 170.664 170.31 169.921 
169.646 169.272 169.015 168.616 168.337 171.47 171.451 171.633 171.635 
171.908 171.886 171.956 171.729 171.425 171.043 170.619 170.301 169.984 
169.717 169.428 169.1 168.772 168.408 168.097 167.047 167.11 167.316 
167.744 167.112 167.355 167.8 167.984 168.385 167.028 167.3 167.72 
167.978 168.437 168.66 169.125 166.931 167.193 167.598 167.853 168.312 
168.637 169.199 169.464 169.916 166.89 167.142 167.618 167.812 168.261 
168.506 169.053 169.42 169.97 170.201 170.48 166.817 167.111 167.644 
167.898 168.38 168.549 168.997 169.255 169.815 170.162 170.623 170.71 
170.856 166.629 166.959 167.42 167.81 168.289 168.605 168.979 169.202 
169.627 169.98 170.55 170.846 171.207 171.13 171.204 166.393 166.699 
167.058 167.448 167.866 168.317 168.694 169.04 169.344 169.708 170.158 
170.647 171.104 171.368 171.506 171.418 171.391 166.198 166.46 166.791 
167.082 167.451 167.843 168.248 168.647 168.969 169.32 169.624 170.098 
170.46 170.976 171.165 171.43 171.375 171.424 171.377 160.214 160.58 
160.418 160.522 161.166 160.889 161.017 160.813 161.022 161.984 161.647 
161.844 161.491 161.724 161.46 161.781 162.731 162.491 162.74 162.43 
162.666 162.314 162.587 162.319 162.671 163.251 163.098 163.295 163.177 
163.395 163.194 163.385 163.13 163.356 163.165 163.448 163.771 163.565 
163.717 163.601 163.835 163.748 163.969 163.807 163.982 163.785 163.981 
163.834 164.074 164.448 164.185 164.417 164.156 164.457 164.252 164.589 
164.393 164.69 164.442 164.696 164.432 164.698 164.486 164.788 165.169 
164.95 165.279 165.009 165.354 165.063 165.427 165.157 165.531 165.26 
165.614 165.298 165.628 165.292 165.626 165.334 165.677 165.799 165.654 
165.986 165.83 166.167 165.961 166.281 166.037 166.352 166.115 166.442 
166.211 166.535 166.267 166.573 166.268 166.563 166.264 166.544 160.096 
159.992 160.195 160.475 159.881 160.118 160.491 160.644 161.026 159.906 
160.1 160.554 160.707 161.112 161.278 161.754 160.042 160.206 160.662 
160.815 161.215 161.359 161.792 162.022 162.491 160.15 160.325 160.767 
160.939 161.34 161.462 161.876 162.062 162.541 162.741 163.133 160.333 
160.442 160.936 161.086 161.559 161.64 162.079 162.192 162.697 162.861 
163.312 163.385 163.709 160.714 160.722 161.231 161.336 161.862 161.934 
162.385 162.448 162.918 163.054 163.509 163.603 163.933 163.967 164.291 
161.162 161.137 161.554 161.64 162.098 162.215 162.618 162.716 163.105 
163.245 163.652 163.78 164.108 164.167 164.46 164.551 164.926 161.542 
161.523 161.846 161.902 162.267 162.377 162.726 162.85 163.197 163.354 
163.742 163.9 164.261 164.341 164.651 164.711 165.059 165.184 165.571 
161.827 162.412 162.108 162.147 163.127 162.781 162.805 162.475 162.539 
163.8 163.518 163.564 163.197 163.206 162.878 162.955 164.388 164.149 
164.252 163.95 163.974 163.597 163.623 163.309 163.427 165.107 164.786 
164.909 164.614 164.689 164.351 164.392 164.041 164.141 163.842 164 
165.921 165.57 165.665 165.325 165.392 165.05 165.1 164.779 164.876 
164.589 164.722 164.432 164.536 166.613 166.309 166.364 166.071 166.139 
165.8 165.846 165.488 165.568 165.277 165.412 165.144 165.242 164.923 
164.959 167.21 166.912 166.925 166.681 166.787 166.538 166.65 166.298 
166.369 165.998 166.109 165.815 165.949 165.644 165.716 165.349 165.39 
167.751 167.474 167.464 167.213 167.316 167.134 167.302 167.068 167.163 
166.816 166.865 166.53 166.633 166.347 166.45 166.124 166.178 165.81 
165.867 167.991 168.257 168.006 167.757 168.507 168.288 168.105 167.824 
167.635 168.782 168.552 168.402 168.173 168.031 167.773 167.623 169.26 
168.924 168.785 168.494 168.342 168.108 167.95 167.724 167.498 169.939 
169.529 169.404 168.997 168.812 168.449 168.25 167.986 167.777 167.516 
167.23 170.512 170.165 169.975 169.624 169.416 169.011 168.776 168.378 
168.163 167.826 167.603 167.269 167.007 170.857 170.581 170.313 170.054 
169.829 169.541 169.317 168.957 168.713 168.317 168.064 167.687 167.427 
167.082 166.811 171.122 170.881 170.696 170.404 170.227 169.912 169.711 
169.404 169.168 168.837 168.533 168.155 167.814 167.463 167.148 166.841 
166.534 171.344 171.189 171.173 170.921 170.858 170.456 170.247 169.817 
169.556 169.214 168.932 168.582 168.22 167.83 167.466 167.135 166.828 
166.535 166.235 168.18 168.438 168.359 168.421 168.786 168.666 168.802 
168.635 168.69 169.389 169.206 169.451 169.166 169.251 168.941 168.988 
169.826 169.828 170.102 169.908 169.967 169.594 169.558 169.262 169.393 
169.756 169.974 170.125 170.251 170.19 170.1 169.939 169.769 169.828 
169.748 170.025 169.708 169.791 169.836 169.951 169.798 169.911 169.738 
169.856 169.962 170.103 170.46 170.462 170.724 169.992 169.912 169.957 
169.799 169.672 169.556 169.488 169.558 169.815 170.101 170.629 170.846 
171.226 171.101 171.165 170.124 170.161 170.172 170.049 169.97 169.752 
169.759 169.611 169.867 170.001 170.528 170.869 171.344 171.484 171.607 
171.413 171.346 169.858 170.039 169.978 170.074 170.018 170.037 170.088 
170.028 170.167 170.153 170.416 170.656 171.029 171.375 171.605 171.697 
171.676 171.518 171.449 168.08 167.932 168.131 168.31 167.598 167.909 
168.112 168.315 168.563 167.106 167.51 167.802 168.094 168.382 168.648 
169.055 166.552 166.991 167.338 167.746 168.117 168.461 168.833 169.16 
169.492 165.982 166.43 166.752 167.221 167.611 168.099 168.464 168.853 
169.07 169.382 169.498 165.383 165.85 166.161 166.615 166.966 167.493 
167.862 168.345 168.535 168.871 168.959 169.275 169.45 164.765 165.245 
165.596 166.046 166.404 166.871 167.26 167.725 167.985 168.312 168.427 
168.739 168.978 169.373 169.712 164.193 164.645 165.021 165.492 165.88 
166.342 166.746 167.196 167.535 167.858 168.031 168.273 168.479 168.872 
169.226 169.671 169.914 163.72 164.114 164.478 164.932 165.312 165.788 
166.159 166.654 167 167.429 167.651 167.929 168.066 168.374 168.61 
169.07 169.315 169.715 169.744 163.589 163.619 163.847 164.341 163.615 
163.883 164.403 164.632 165.148 163.65 163.903 164.431 164.664 165.166 
165.421 165.955 163.794 164.004 164.529 164.703 165.162 165.393 165.917 
166.224 166.774 163.872 164.137 164.649 164.83 165.256 165.414 165.879 
166.153 166.697 167.012 167.459 163.737 164.072 164.54 164.852 165.274 
165.497 165.9 166.125 166.586 166.885 167.335 167.594 167.923 163.632 
163.876 164.278 164.607 165.008 165.363 165.751 166.065 166.452 166.748 
167.154 167.442 167.839 168.06 168.439 163.784 163.879 164.236 164.391 
164.72 165.008 165.378 165.766 166.174 166.546 166.961 167.274 167.697 
167.975 168.405 168.648 169.065 164.045 164.115 164.45 164.476 164.725 
164.814 165.114 165.39 165.834 166.23 166.738 167.096 167.57 167.858 
168.281 168.55 168.911 169.183 169.462 164.27 164.626 164.565 164.676 
164.854 164.858 165.001 164.881 164.904 165.129 165.106 165.32 165.21 
165.305 165.12 165.24 165.505 165.455 165.753 165.641 165.884 165.659 
165.884 165.651 165.969 165.91 165.858 166.193 166.138 166.481 166.34 
166.665 166.435 166.78 166.548 166.92 166.384 166.299 166.645 166.591 
166.94 166.886 167.214 167.135 167.47 167.345 167.677 167.485 167.776 
166.887 166.806 167.165 167.089 167.43 167.336 167.63 167.563 167.88 
167.866 168.199 168.135 168.401 168.235 168.451 167.31 167.265 167.595 
167.576 167.906 167.836 168.115 168.003 168.311 168.255 168.613 168.571 
168.842 168.736 168.911 168.792 168.982 167.715 167.648 167.928 167.921 
168.212 168.217 168.483 168.45 168.748 168.72 169.081 169.03 169.29 
169.143 169.238 169.111 169.223 169.213 169.421 169.625 169.355 169.548 
169.72 169.413 169.417 169.584 169.693 169.894 169.611 169.639 169.844 
169.784 170.013 170.014 170.189 169.474 169.745 170.013 170.085 170.245 
170.233 170.362 170.316 170.355 169.063 169.428 169.708 170.022 170.175 
170.326 170.352 170.398 170.4 170.402 170.477 168.721 169.003 169.258 
169.598 169.848 170.111 170.253 170.343 170.422 170.432 170.606 170.65 
170.961 168.473 168.716 168.99 169.251 169.574 169.831 170.158 170.317 
170.629 170.644 170.98 170.931 171.295 171.282 171.58 168.252 168.506 
168.849 169.091 169.448 169.67 170.028 170.259 170.689 170.9 171.368 
171.433 171.78 171.691 171.853 171.754 171.758 168.072 168.329 168.717 
168.984 169.366 169.588 169.917 170.135 170.519 170.843 171.324 171.638 
171.966 172.044 172.056 171.954 171.803 171.706 171.554 158.055 158.422 
158.137 157.887 158.765 158.479 158.264 157.956 157.866 159.235 158.904 
158.822 158.467 158.499 158.206 158.455 159.863 159.502 159.543 159.193 
159.369 159.03 159.328 159.046 159.398 160.573 160.206 160.277 159.976 
160.186 159.929 160.206 159.944 160.21 159.945 160.165 161.333 160.959 
161.03 160.715 160.878 160.651 160.851 160.662 160.84 160.65 160.827 
160.607 160.806 162.111 161.746 161.838 161.496 161.658 161.355 161.533 
161.255 161.412 161.186 161.382 161.214 161.475 161.288 161.579 162.888 
162.533 162.631 162.301 162.488 162.186 162.426 162.075 162.284 161.9 
162.129 161.838 162.153 161.959 162.297 162.105 162.408 163.641 163.308 
163.381 163.059 163.216 162.974 163.252 163.005 163.29 162.921 163.159 
162.752 163.032 162.724 163.054 162.821 163.118 162.897 163.139 157.758 
157.634 157.587 157.385 157.678 157.515 157.451 157.367 157.4 158.287 
157.849 157.856 157.621 157.813 157.675 157.927 159.183 158.662 158.615 
158.246 158.422 158.223 158.52 158.361 158.6 159.905 159.47 159.311 
158.977 159.011 158.824 159.015 158.91 159.117 158.966 159.101 160.565 
160.106 159.898 159.539 159.498 159.304 159.445 159.342 159.55 159.43 
159.617 159.439 159.619 161.404 160.872 160.721 160.207 160.186 159.837 
160.034 159.835 160.136 159.953 160.23 160.015 160.267 160.048 160.298 
162.275 161.797 161.732 161.188 161.199 160.711 160.902 160.574 160.903 
160.663 160.975 160.725 160.973 160.73 160.955 160.742 160.948 163.008 
162.633 162.61 162.188 162.209 161.764 161.873 161.498 161.716 161.448 
161.696 161.462 161.656 161.416 161.571 161.353 161.503 161.311 161.448 
157.597 157.262 157.303 157.025 157.259 157.103 156.885 156.764 156.522 
157.715 157.323 157.096 156.813 156.655 156.484 156.51 158.355 157.904 
157.641 157.225 157.09 156.803 156.865 156.743 157.007 158.893 158.512 
158.296 157.875 157.772 157.403 157.46 157.21 157.413 157.332 157.624 
159.441 159.054 158.925 158.548 158.532 158.177 158.24 157.893 157.984 
157.755 157.943 157.894 158.144 160.119 159.692 159.567 159.188 159.176 
158.897 158.967 158.666 158.666 158.333 158.366 158.205 158.42 158.408 
158.684 160.78 160.395 160.238 159.836 159.731 159.45 159.471 159.268 
159.283 158.983 158.951 158.668 158.802 158.715 159.025 159.007 159.297 
161.309 161.005 160.875 160.494 160.356 159.995 159.963 159.721 159.799 
159.564 159.632 159.319 159.428 159.194 159.453 159.371 159.672 159.617 
159.838 167.824 167.287 167.624 167.682 166.625 167.001 167.03 167.373 
167.313 165.853 166.253 166.21 166.61 166.53 166.89 166.772 165.004 
165.398 165.33 165.742 165.651 166.04 165.937 166.309 166.205 164.273 
164.568 164.509 164.876 164.813 165.177 165.066 165.438 165.331 165.726 
165.625 163.681 163.914 163.815 164.115 164.042 164.371 164.241 164.571 
164.412 164.801 164.68 165.109 164.999 163.024 163.295 163.144 163.431 
163.297 163.608 163.45 163.753 163.569 163.898 163.755 164.148 164.049 
164.471 164.375 162.332 162.597 162.449 162.725 162.578 162.863 162.706 
162.982 162.81 163.094 162.956 163.288 163.201 163.569 163.499 163.883 
163.821 161.762 161.964 161.842 162.062 161.941 162.182 162.051 162.291 
162.129 162.372 162.207 162.507 162.391 162.754 162.681 163.059 163.009 
163.387 163.364 
POINT_DATA 1002
SCALARS Distance double
LOOKUP_TABLE default
164.394 163.964 163.631 163.957 163.195 164.638 163.46 162.795 164.167 
164.834 163.083 162.429 163.721 164.449 165.157 162.754 162.051 163.4 
164.108 164.874 165.547 162.419 161.762 163.099 163.813 164.592 165.326 
165.967 162.184 161.623 162.82 163.557 164.336 165.111 165.819 166.473 
162.076 161.547 162.636 163.359 164.161 164.925 165.669 166.358 166.956 
162.029 161.473 162.557 163.202 163.999 164.765 165.486 166.219 166.856 
167.367 162.001 161.418 162.55 163.123 163.829 164.579 165.282 166.021 
166.75 167.341 167.81 163.239 162.899 162.462 162.143 161.697 162.517 
161.394 160.936 161.783 162.118 160.663 160.207 161.04 161.335 161.673 
159.962 159.547 160.312 160.559 160.852 161.288 159.344 159.036 159.57 
159.78 160.062 160.512 161.086 158.894 158.705 158.903 159.006 159.313 
159.774 160.366 160.997 158.493 158.383 158.344 158.345 158.695 159.184 
159.706 160.301 160.913 157.963 157.933 157.758 157.738 158.171 158.749 
159.212 159.689 160.252 160.842 157.369 157.148 156.655 156.483 156.325 
157.051 156.518 156.666 156.83 157.509 157.113 157.333 157.155 157.614 
158.251 157.695 157.901 157.575 157.724 158.204 158.768 158.107 158.391 
157.882 157.853 158.1 158.63 159.202 158.589 158.968 158.261 158.223 
158.42 158.786 159.281 159.773 159.216 159.566 158.855 158.798 159.053 
159.374 159.69 160.024 160.403 159.803 160.021 159.551 159.466 159.652 
159.955 160.225 160.449 160.696 161.031 161.794 161.46 162.269 161.185 
162.002 162.802 160.949 161.754 162.583 163.368 160.677 161.453 162.345 
163.172 163.99 160.405 161.117 162.018 162.956 163.816 164.633 160.216 
160.92 161.73 162.707 163.624 164.47 165.216 160.147 160.825 161.582 
162.512 163.427 164.222 165.009 165.743 160.186 160.718 161.425 162.325 
163.238 163.955 164.652 165.473 166.27 160.282 160.653 161.262 162.115 
163.024 163.724 164.316 165.087 165.993 166.79 162.427 162.944 163.036 
163.534 163.638 163.688 164.183 164.337 164.371 164.418 164.807 164.985 
165.088 165.095 165.146 165.354 165.477 165.678 165.831 165.873 165.924 
165.928 166.023 166.249 166.57 166.74 166.761 166.758 166.559 166.75 
167.014 167.373 167.595 167.623 167.579 167.483 167.134 167.42 167.751 
168.127 168.337 168.328 168.286 168.226 168.044 167.504 167.827 168.134 
168.432 168.797 168.157 169.093 169.62 168.74 168.558 169.865 170.315 
169.384 169.14 168.876 170.392 170.65 170.186 169.898 169.466 168.924 
170.619 170.914 170.766 170.817 170.305 169.539 168.88 170.945 171.229 
171.152 171.431 171.065 170.25 169.514 168.88 171.359 171.389 171.615 
171.867 171.496 170.68 170.002 169.422 168.742 171.607 171.416 171.933 
172.177 171.824 170.955 170.222 169.728 169.136 168.437 166.848 167.595 
166.888 167.582 166.868 168.225 167.449 166.767 168.129 168.959 167.364 
166.663 167.983 168.826 169.814 167.402 166.607 168.091 168.71 169.623 
170.477 167.327 166.517 168.204 168.847 169.434 170.388 171.006 167.035 
166.335 167.9 168.765 169.327 170.119 171.144 171.47 166.727 166.116 
167.411 168.288 169.029 169.678 170.677 171.491 171.557 166.538 165.94 
167.11 167.832 168.625 169.254 169.941 170.762 171.242 171.326 160.341 
160.633 160.768 161.267 161.463 161.153 162.212 162.278 162.054 161.966 
162.984 162.932 163.024 162.921 162.875 163.381 163.442 163.524 163.639 
163.596 163.597 163.873 164 163.9 164.082 164.188 164.165 164.182 
164.683 164.661 164.696 164.775 164.91 164.973 164.95 164.963 165.507 
165.34 165.649 165.719 165.786 165.897 165.971 165.963 165.952 159.927 
160.318 159.731 160.307 159.605 160.848 160.388 159.726 160.967 161.524 
160.505 159.895 161.093 161.587 162.265 160.576 159.981 161.221 161.708 
162.334 163.026 160.771 160.248 161.463 161.993 162.536 163.224 163.688 
161.147 160.746 161.776 162.347 162.817 163.405 163.9 164.214 161.519 
161.221 161.997 162.523 162.985 163.515 164.037 164.389 164.78 161.83 
161.575 162.19 162.613 163.043 163.564 164.149 164.598 164.967 165.433 