# vtk DataFile Version 4.0
vtk output
ASCII
DATASET POLYDATA
POINTS 1002 float
-120.318 -104.908 51.38 -120.469 -104.31 51.0952 -119.965 -104.256 51.2526 
-119.796 -104.873 51.5836 -119.353 -104.269 51.4396 -120.155 -105.141 52.0718 
-119.106 -104.9 51.7771 -118.566 -104.427 51.5261 -119.546 -105.073 52.3646 
-119.9 -104.925 53.2609 -118.219 -104.985 51.9425 -117.714 -104.613 51.6104 
-118.736 -105.036 52.6895 -119.148 -104.875 53.625 -119.573 -104.967 54.3607 
-117.3 -104.997 52.2269 -116.821 -104.725 51.8547 -117.836 -105.016 53.0359 
-118.288 -104.886 53.9835 -118.743 -105.079 54.6127 -119.302 -105.634 54.9328 
-116.397 -105.001 52.6049 -115.897 -104.828 52.1475 -116.984 -105.042 53.3397 
-117.506 -105.017 54.1866 -117.938 -105.241 54.7746 -118.498 -105.815 55.0844 
-119.129 -106.277 55.4641 -115.559 -105.076 52.9343 -115.169 -104.807 52.4913 
-116.111 -105.22 53.53 -116.752 -105.316 54.1868 -117.292 -105.478 54.8019 
-117.756 -105.894 55.2678 -118.367 -106.367 55.7153 -118.98 -106.588 56.2973 
-114.927 -105.003 53.3206 -114.724 -104.507 53.0379 -115.299 -105.367 53.7599 
-115.88 -105.614 54.2468 -116.618 -105.729 54.862 -117.214 -105.871 55.5543 
-117.694 -106.224 56.1169 -118.263 -106.632 56.5846 -118.796 -106.937 57.0352 
-114.466 -104.728 53.7797 -114.367 -104.124 53.6209 -114.711 -105.248 54.131 
-115.097 -105.627 54.5732 -115.765 -105.818 55.1288 -116.602 -105.843 55.884 
-117.242 -105.973 56.5809 -117.708 -106.397 56.9933 -118.161 -106.942 57.2495 
-118.575 -107.4 57.48 -114.037 -104.497 54.1308 -113.969 -103.925 53.9878 
-114.278 -105.002 54.4751 -114.594 -105.386 54.9806 -115.007 -105.683 55.5123 
-115.727 -105.853 56.1279 -116.609 -105.921 56.82 -117.284 -106.159 57.3336 
-117.713 -106.697 57.5829 -118.04 -107.312 57.7256 -118.359 -107.755 57.8802 
-120.331 -103.734 50.8612 -119.734 -103.693 51.0227 -120.158 -103.528 50.2728 
-119.384 -103.57 50.3738 -119.837 -103.594 49.3961 -118.978 -103.758 51.2057 
-118.901 -103.613 49.4482 -119.431 -103.333 48.7683 -118.546 -103.591 50.5679 
-118.191 -103.927 51.3272 -118.499 -103.203 48.8965 -119.163 -102.564 48.7003 
-118.135 -103.457 49.7306 -117.904 -103.56 50.9113 -117.412 -104.105 51.5139 
-118.367 -102.474 48.8998 -119.011 -101.749 48.7899 -117.862 -103.052 49.276 
-117.633 -103.228 50.3497 -117.176 -103.591 51.3367 -116.439 -104.312 51.7226 
-118.302 -101.827 48.9528 -118.751 -101.13 48.6447 -117.72 -102.548 49.2595 
-117.323 -102.885 49.9728 -116.889 -103.124 50.9644 -116.143 -103.766 51.5551 
-115.483 -104.453 51.9052 -118.068 -101.163 48.8556 -118.407 -100.591 48.4699 
-117.541 -101.89 49.3203 -117.037 -102.416 49.879 -116.619 -102.688 50.6386 
-116.015 -103.147 51.3405 -115.351 -103.794 51.8352 -114.938 -104.243 52.3862 
-117.785 -100.473 48.8757 -118.16 -100.088 48.5561 -117.31 -101.053 49.3929 
-116.828 -101.675 49.9396 -116.448 -102.148 50.5231 -116.004 -102.584 51.1977 
-115.447 -103.084 51.8729 -114.982 -103.486 52.529 -114.645 -103.78 53.1397 
-117.645 -99.9618 49.1211 -118.052 -99.6418 48.8501 -117.189 -100.4 49.588 
-116.736 -100.951 50.0878 -116.347 -101.525 50.5556 -115.921 -102.071 51.1162 
-115.405 -102.554 51.8082 -114.958 -102.889 52.5525 -114.617 -103.123 53.2295 
-114.281 -103.45 53.703 -117.762 -99.4729 49.362 -117.331 -99.9382 49.7821 
-117.498 -99.5009 49.9896 -117.005 -100.056 50.452 -117.064 -99.5385 50.5929 
-116.844 -100.425 50.2533 -116.308 -99.9267 50.9726 -116.231 -99.373 51.0976 
-116.359 -100.466 50.8328 -116.334 -100.94 50.6563 -115.264 -99.6287 51.4314 
-115.32 -99.2719 51.6586 -115.42 -100.258 51.3481 -115.581 -100.924 51.2107 
-115.745 -101.527 51.1015 -114.556 -99.763 52.0812 -114.843 -99.4983 52.4595 
-114.537 -100.25 51.9727 -114.603 -100.898 51.855 -114.72 -101.562 51.6725 
-115.062 -102.118 51.6841 -114.277 -100.154 52.9773 -114.655 -99.8496 53.375 
-114.151 -100.623 52.7761 -114.106 -101.161 52.6072 -113.888 -101.67 52.2541 
-113.965 -102.144 52.103 -114.514 -102.522 52.3573 -113.94 -100.3 53.8632 
-114.449 -100.178 54.1582 -113.701 -100.66 53.6235 -113.76 -101.276 53.398 
-113.553 -101.815 52.9354 -113.236 -102.186 52.4708 -113.539 -102.481 52.5977 
-114.214 -102.746 53.0682 -113.638 -100.396 54.5475 -114.286 -100.492 54.7979 
-113.113 -100.405 54.3206 -113.046 -100.895 54.1121 -113.05 -101.636 53.7444 
-112.783 -102.166 53.1691 -112.809 -102.493 52.9121 -113.384 -102.76 53.25 
-113.976 -103.043 53.6572 -113.621 -100.665 55.1192 -114.216 -100.715 55.4212 
-112.946 -100.498 54.8718 -112.555 -100.674 54.6964 -112.44 -101.327 54.4969 
-112.295 -102.011 54.1032 -112.289 -102.474 53.6758 -112.707 -102.858 53.605 
-113.279 -103.217 53.8416 -113.691 -103.553 54.0142 -113.541 -104.268 54.2849 
-113.195 -103.964 54.2969 -113.14 -104.652 54.7619 -112.816 -103.533 54.2844 
-112.79 -104.374 54.8735 -112.8 -104.931 55.6012 -112.332 -102.981 54.3419 
-112.552 -103.81 55.0202 -112.542 -104.68 55.7927 -112.592 -105.138 56.6803 
-111.991 -102.461 54.6123 -112.25 -103.092 55.1971 -112.523 -104.036 55.949 
-112.483 -104.908 56.9242 -112.597 -105.327 57.7597 -112.055 -101.931 54.9751 
-112.073 -102.511 55.502 -112.404 -103.201 56.1627 -112.558 -104.188 57.1735 
-112.497 -104.999 58.1704 -112.748 -105.39 58.6826 -112.359 -101.34 55.1908 
-112.328 -102.094 55.8212 -112.382 -102.615 56.5232 -112.488 -103.305 57.4869 
-112.454 -104.22 58.5964 -112.525 -104.89 59.228 -113.073 -105.253 59.333 
-112.788 -100.992 55.3155 -112.843 -101.769 55.9804 -112.78 -102.347 56.7875 
-112.629 -102.792 57.7018 -112.489 -103.473 58.7779 -112.441 -104.185 59.5951 
-112.863 -104.677 59.7937 -113.714 -105.033 59.7528 -113.361 -100.976 55.5342 
-113.327 -101.539 56.1164 -113.29 -102.115 56.8793 -113.122 -102.556 57.7055 
-112.906 -103.066 58.6179 -112.727 -103.648 59.5086 -112.904 -104.131 59.9878 
-113.626 -104.525 60.0636 -114.481 -104.904 60.1503 -113.901 -100.942 55.8766 
-113.693 -101.297 56.3988 -113.593 -101.764 57.0307 -113.531 -102.233 57.7181 
-113.442 -102.727 58.4407 -113.292 -103.242 59.2278 -113.285 -103.689 59.8842 
-113.716 -104.096 60.2249 -114.431 -104.511 60.4103 -115.014 -104.918 60.6631 
-113.729 -104.759 54.6073 -113.454 -104.961 55.3313 -114.122 -105.086 55.1843 
-113.197 -105.101 56.3326 -113.969 -105.153 56.0494 -114.487 -105.399 55.8132 
-113.074 -105.312 57.3795 -113.813 -105.359 56.9658 -114.355 -105.604 56.5811 
-114.89 -105.808 56.3172 -113.175 -105.55 58.2667 -113.802 -105.664 57.8483 
-114.307 -105.972 57.3343 -114.802 -106.197 56.9447 -115.679 -106.094 56.8601 
-113.462 -105.628 58.959 -113.964 -105.858 58.656 -114.477 -106.143 58.2346 
-114.972 -106.449 57.7365 -115.74 -106.462 57.496 -116.664 -106.241 57.4766 
-114.002 -105.519 59.5315 -114.297 -105.902 59.3999 -114.762 -106.147 59.1768 
-115.385 -106.373 58.7699 -116.064 -106.571 58.4117 -116.782 -106.616 58.1915 
-117.358 -106.608 57.9367 -114.692 -105.37 60.0805 -114.814 -105.867 60.1133 
-115.114 -106.221 60.0548 -115.772 -106.393 59.7486 -116.466 -106.582 59.3951 
-116.962 -106.855 59.104 -117.362 -107.08 58.7003 -117.71 -107.227 58.1794 
-115.197 -105.313 60.6556 -115.304 -105.806 60.7502 -115.522 -106.289 60.8049 
-116.077 -106.587 60.5912 -116.727 -106.768 60.2122 -117.1 -107.057 59.9039 
-117.323 -107.408 59.5407 -117.618 -107.643 58.9677 -117.971 -107.749 58.3434 
-115.346 -105.234 61.3069 -115.544 -105.648 61.3253 -115.59 -105.561 62.0136 
-116.026 -105.961 61.9571 -116.21 -105.827 62.6256 -115.836 -106.15 61.3946 
-116.841 -106.202 62.567 -117.039 -106.05 63.1787 -116.633 -106.404 61.9387 
-116.349 -106.618 61.3337 -117.451 -106.551 63.2528 -117.566 -106.306 63.6604 
-117.407 -106.663 62.5599 -117.202 -106.855 61.8052 -116.933 -106.94 61.0027 
-117.818 -107.102 63.7337 -118.221 -106.564 63.8869 -117.77 -107.289 63.2155 
-117.715 -107.306 62.3859 -117.46 -107.334 61.4489 -117.23 -107.266 60.6052 
-118.714 -107.493 63.8082 -119.43 -106.737 63.8714 -118.257 -108.019 63.5285 
-118.115 -108.152 62.8723 -117.909 -107.996 61.9519 -117.571 -107.817 61.0173 
-117.362 -107.655 60.2408 -119.962 -107.541 63.7528 -120.531 -106.867 63.7811 
-119.25 -108.167 63.5607 -118.79 -108.642 63.0592 -118.603 -108.681 62.3129 
-118.321 -108.343 61.4453 -117.912 -108.063 60.5514 -117.658 -107.903 59.719 
-120.849 -107.542 63.6959 -121.102 -106.999 63.6348 -120.287 -107.943 63.5616 
-119.633 -108.397 63.092 -119.284 -108.753 62.4403 -119.165 -108.607 61.7595 
-118.86 -108.203 60.9207 -118.387 -108.029 59.9347 -118.069 -107.978 59.0279 
-121.432 -107.609 63.5174 -121.511 -107.045 63.4183 -121.143 -107.896 63.4374 
-120.561 -108.098 63.0059 -119.983 -108.4 62.3723 -119.733 -108.495 61.8138 
-119.619 -108.199 61.1778 -119.283 -107.957 60.2253 -118.816 -107.995 59.1812 
-118.496 -108.003 58.3807 -115.07 -104.737 61.0928 -115.291 -105.057 61.8612 
-115.103 -104.422 61.5506 -115.31 -104.636 62.3664 -115.171 -103.826 61.9139 
-115.607 -105.333 62.6029 -115.473 -103.865 62.6613 -115.339 -103.113 62.152 
-115.813 -104.799 62.9796 -116.422 -105.544 63.1014 -115.796 -103.071 62.8164 
-115.735 -102.654 62.2071 -116.162 -103.994 63.0479 -116.79 -104.986 63.1776 
-117.304 -105.692 63.4159 -116.379 -102.662 62.7536 -116.373 -102.537 61.9039 
-116.648 -103.291 63.0527 -117.232 -104.325 63.0007 -117.733 -105.134 63.247 
-117.98 -105.767 63.6871 -117.15 -102.616 62.2428 -117.061 -102.488 61.3577 
-117.353 -102.865 62.9334 -117.809 -103.73 62.961 -118.274 -104.637 63.0234 
-118.628 -105.189 63.5157 -119.009 -105.841 63.8723 -117.838 -102.639 61.5291 
-117.652 -102.26 60.9661 -118.1 -102.657 62.4712 -118.515 -103.101 62.9607 
-118.892 -104.09 62.9778 -119.236 -104.832 63.2921 -119.713 -105.29 63.7641 
-120.208 -106.002 63.8743 -118.356 -102.494 61.0587 -118.153 -101.844 60.8674 
-118.681 -102.617 61.8378 -119.153 -102.622 62.7113 -119.52 -103.297 62.9843 
-119.758 -104.325 63.0473 -120.143 -104.952 63.4209 -120.612 -105.433 63.7163 
-120.928 -106.19 63.7014 -118.818 -102.105 60.9134 -118.617 -101.369 60.8923 
-119.157 -102.535 61.3261 -119.653 -102.518 62.1712 -120.057 -102.708 62.7859 
[...]
CELL_DATA 2000
SCALARS Distance double
LOOKUP_TABLE default
166.346 165.995 166.352 166.666 165.586 165.978 166.287 166.618 166.828 
165.11 165.518 165.807 166.184 166.383 166.696 166.892 164.609 165.003 
165.266 165.662 165.874 166.217 166.434 166.795 167.131 164.11 164.484 
164.747 165.134 165.396 165.739 165.998 166.349 166.713 167.133 167.568 
163.662 164.003 164.283 164.653 164.973 165.328 165.651 165.977 166.338 
166.723 167.163 167.587 167.996 163.293 163.598 163.884 164.229 164.56 
164.934 165.305 165.667 166.042 166.387 166.783 167.175 167.594 167.991 
168.358 162.967 163.252 163.525 163.853 164.161 164.523 164.877 165.284 
165.681 166.077 166.465 166.826 167.212 167.589 167.976 168.348 168.683 
162.662 162.925 163.184 163.501 163.802 164.136 164.45 164.829 165.196 
165.641 166.048 166.476 166.865 167.24 167.615 167.974 168.327 168.664 
168.952 166.053 165.536 165.741 165.677 165.065 165.225 165.085 165.332 
165.258 164.5 164.698 164.506 164.733 164.62 164.898 164.818 163.818 
164.047 163.858 164.118 164.017 164.292 164.227 164.475 164.373 163.206 
163.396 163.242 163.475 163.418 163.701 163.665 163.916 163.811 164.02 
163.882 162.66 162.871 162.772 162.954 162.898 163.129 163.084 163.337 
163.221 163.444 163.286 163.515 163.403 162.039 162.317 162.25 162.494 
162.407 162.628 162.535 162.759 162.645 162.853 162.722 162.932 162.838 
163.08 163.034 161.463 161.693 161.615 161.895 161.812 162.08 161.995 
162.229 162.154 162.346 162.28 162.448 162.402 162.582 162.553 162.764 
162.739 161.106 161.215 161.148 161.32 161.289 161.502 161.489 161.714 
161.702 161.909 161.881 162.061 162.022 162.195 162.154 162.332 162.288 
162.484 162.45 160.964 160.903 160.945 161.02 160.889 160.952 161.012 
161.038 161.135 160.533 160.792 160.839 160.995 161.038 161.152 161.292 
159.909 160.208 160.223 160.595 160.652 160.939 161.041 161.28 161.466 
159.677 159.694 159.744 159.973 160.125 160.432 160.571 160.894 161.07 
161.402 161.611 159.937 159.755 159.858 159.83 160.072 160.136 160.31 
160.438 160.575 160.885 161.111 161.505 161.735 160.22 160.044 160.014 
160.011 160.169 160.257 160.383 160.371 160.367 160.443 160.569 160.928 
161.217 161.631 161.876 160.451 160.224 159.975 159.941 159.883 160.114 
160.179 160.36 160.293 160.313 160.279 160.46 160.701 161.1 161.436 
161.799 162.032 160.766 160.465 160.16 159.897 159.718 159.738 159.793 
160.003 160.061 160.17 160.162 160.252 160.429 160.697 161.062 161.402 
161.726 161.993 162.215 162.28 161.81 162.143 162.332 161.208 161.633 
161.88 162.247 162.508 160.58 160.994 161.318 161.78 162.131 162.492 
162.815 160.201 160.442 160.735 161.197 161.647 162.119 162.555 162.889 
163.267 160.03 160.178 160.391 160.707 161.136 161.614 162.144 162.612 
163.069 163.389 163.758 159.848 160.027 160.314 160.53 160.927 161.218 
161.711 162.159 162.671 163.113 163.497 163.823 164.146 159.877 159.952 
160.395 160.578 161.071 161.205 161.64 161.856 162.327 162.694 163.12 
163.481 163.815 164.154 164.518 160.328 160.224 160.672 160.769 161.301 
161.421 161.851 161.937 162.332 162.506 162.925 163.171 163.55 163.833 
164.231 164.578 165.039 160.892 160.759 161.054 161.072 161.463 161.596 
161.975 162.11 162.457 162.594 162.958 163.114 163.484 163.674 164.081 
164.356 164.836 165.172 165.645 162.574 162.659 162.764 163.111 162.837 
162.903 163.27 163.373 163.748 163.117 163.123 163.49 163.57 163.956 
164.03 164.398 163.541 163.465 163.825 163.844 164.245 164.278 164.66 
164.706 165.124 164.042 163.947 164.304 164.258 164.676 164.644 165.047 
165.03 165.471 165.519 165.997 164.484 164.444 164.818 164.773 165.193 
165.141 165.563 165.501 165.953 165.94 166.439 166.449 166.889 164.924 
164.898 165.323 165.282 165.715 165.67 166.118 166.062 166.538 166.491 
166.996 166.957 167.412 167.334 167.686 165.462 165.408 165.879 165.82 
166.285 166.221 166.703 166.646 167.154 167.103 167.606 167.546 167.986 
167.891 168.233 168.106 168.388 166.019 165.969 166.42 166.383 166.854 
166.814 167.312 167.265 167.769 167.716 168.179 168.122 168.51 168.435 
168.736 168.63 168.871 168.756 168.984 166.426 167.088 166.781 166.823 
167.824 167.475 167.579 167.235 167.301 168.713 168.312 168.446 168.061 
168.197 167.782 167.832 169.549 169.226 169.362 168.983 169.109 168.708 
168.776 168.316 168.3 170.273 170.015 170.211 169.881 169.993 169.6 
169.618 169.195 169.144 168.709 168.642 171.113 170.801 171.068 170.736 
170.917 170.504 170.531 170.037 169.947 169.476 169.378 168.978 168.904 
171.986 171.699 171.916 171.596 171.762 171.415 171.485 171.014 170.929 
170.356 170.204 169.696 169.581 169.189 169.097 172.597 172.459 172.598 
172.342 172.363 172.103 172.098 171.827 171.749 171.323 171.115 170.57 
170.341 169.86 169.7 169.329 169.21 172.944 172.926 173.097 172.906 
172.87 172.583 172.464 172.238 172.128 171.91 171.721 171.353 171.062 
170.596 170.339 169.924 169.765 169.421 169.31 166.329 166.372 166.568 
166.972 166.286 166.563 166.998 167.211 167.676 166.057 166.392 166.874 
167.202 167.737 167.998 168.546 165.912 166.157 166.64 167.021 167.62 
168.007 168.589 168.867 169.357 166.045 166.135 166.582 166.842 167.454 
167.852 168.474 168.824 169.322 169.578 170.027 166.321 166.37 166.793 
166.915 167.491 167.77 168.419 168.725 169.29 169.536 170.054 170.29 
170.847 166.525 166.637 167.051 167.157 167.663 167.875 168.488 168.753 
169.351 169.582 170.141 170.367 170.944 171.189 171.741 166.625 166.793 
167.213 167.359 167.809 168.006 168.532 168.802 169.351 169.636 170.158 
170.433 170.928 171.214 171.673 171.955 172.338 166.674 166.861 167.293 
167.477 167.922 168.108 168.566 168.792 169.258 169.548 170.016 170.342 
170.776 171.088 171.452 171.751 172.059 172.364 172.64 161.169 161.404 
161.298 161.316 161.639 161.519 161.609 161.512 161.641 162.202 161.916 
162.037 161.849 162.026 161.915 162.116 162.93 162.613 162.735 162.445 
162.613 162.381 162.592 162.438 162.643 163.453 163.232 163.31 163.13 
163.263 163.035 163.177 162.966 163.153 162.985 163.163 163.943 163.665 
163.711 163.576 163.74 163.607 163.743 163.541 163.677 163.501 163.685 
163.515 163.68 164.688 164.285 164.374 164.078 164.312 164.109 164.343 
164.109 164.281 164.05 164.266 164.077 164.324 164.097 164.308 165.537 
165.157 165.312 164.931 165.173 164.85 165.098 164.794 164.981 164.701 
164.924 164.719 165.028 164.821 165.119 164.833 165.086 166.263 165.993 
166.168 165.867 166.056 165.742 165.895 165.574 165.675 165.386 165.534 
165.352 165.63 165.511 165.831 165.647 165.911 165.636 165.859 161.18 
161.182 161.268 161.364 161.175 161.249 161.397 161.426 161.585 161.428 
161.383 161.63 161.57 161.803 161.79 162.13 161.919 161.803 162.086 
161.958 162.229 162.134 162.482 162.49 162.879 162.425 162.322 162.58 
162.459 162.702 162.6 162.913 162.89 163.258 163.239 163.509 162.887 
162.803 163.063 162.942 163.171 163.052 163.326 163.29 163.655 163.646 
163.963 163.845 164.065 163.29 163.242 163.527 163.432 163.689 163.548 
163.797 163.694 164.016 164.012 164.371 164.331 164.615 164.468 164.748 
163.616 163.601 163.884 163.858 164.139 164.066 164.314 164.186 164.433 
164.365 164.683 164.693 165.021 164.984 165.271 165.183 165.502 163.944 
163.908 164.177 164.167 164.458 164.456 164.733 164.664 164.89 164.786 
165.048 165.013 165.347 165.347 165.666 165.628 165.917 165.879 166.184 
164.251 164.823 164.499 164.46 165.465 165.105 165.06 164.739 164.746 
166.165 165.785 165.757 165.391 165.377 165.052 165.041 166.902 166.515 
166.485 166.106 166.067 165.703 165.646 165.308 165.226 167.59 167.243 
167.201 166.83 166.777 166.393 166.333 165.95 165.881 165.495 165.421 
168.174 167.877 167.86 167.532 167.501 167.118 167.082 166.681 166.663 
166.245 166.212 165.773 165.735 168.721 168.429 168.431 168.158 168.175 
167.846 167.827 167.446 167.429 167.047 167.028 166.61 166.545 166.108 
166.041 169.244 168.96 168.93 168.691 168.724 168.48 168.488 168.163 
168.113 167.761 167.709 167.358 167.281 166.885 166.774 166.367 166.281 
169.664 169.43 169.369 169.151 169.17 168.982 169.025 168.775 168.744 
168.407 168.336 167.991 167.933 167.574 167.493 167.09 166.998 166.597 
166.539 169.829 170.082 169.817 169.59 170.497 170.161 169.932 169.626 
169.424 170.898 170.598 170.359 170.03 169.807 169.507 169.296 171.24 
170.964 170.753 170.449 170.207 169.895 169.632 169.333 169.031 171.75 
171.39 171.223 170.863 170.618 170.267 169.969 169.646 169.308 168.992 
168.634 172.295 171.963 171.775 171.395 171.097 170.68 170.318 169.959 
169.615 169.288 168.933 168.596 168.24 172.529 172.338 172.062 171.832 
171.453 171.099 170.625 170.261 169.856 169.57 169.227 168.918 168.538 
168.197 167.81 172.569 172.393 172.057 171.917 171.536 171.302 170.807 
170.484 170.002 169.738 169.359 169.135 168.751 168.464 168.029 167.716 
167.308 172.674 172.437 172.099 171.894 171.556 171.338 170.922 170.625 
170.154 169.854 169.427 169.197 168.802 168.581 168.159 167.895 167.475 
167.201 166.832 170.03 170.365 170.196 170.26 170.784 170.555 170.649 
170.523 170.682 171.327 171.023 171.074 170.929 171.107 170.985 171.1 
171.834 171.555 171.516 171.338 171.475 171.388 171.521 171.355 171.428 
172.153 171.973 171.885 171.706 171.777 171.723 171.922 171.806 171.957 
171.746 171.918 172.235 172.182 172.081 171.963 171.972 171.965 172.223 
172.233 172.533 172.373 172.593 172.349 172.513 171.997 172.1 171.992 
172.026 172.005 172.069 172.292 172.453 172.836 172.906 173.202 173.048 
173.17 172.879 172.853 171.529 171.71 171.659 171.838 171.904 172.038 
172.219 172.409 172.733 172.998 173.347 173.48 173.661 173.504 173.467 
173.107 172.96 171.141 171.268 171.338 171.547 171.778 171.957 172.179 
172.309 172.519 172.753 173.054 173.382 173.669 173.814 173.889 173.699 
173.578 173.199 173.045 170.018 170.132 170.181 170.362 170.165 170.305 
170.574 170.583 170.815 170.023 170.285 170.667 170.817 171.145 171.135 
171.408 169.712 170.048 170.431 170.788 171.18 171.387 171.664 171.695 
171.893 169.3 169.649 169.957 170.403 170.779 171.198 171.455 171.713 
171.86 172.009 172.13 168.864 169.204 169.487 169.89 170.272 170.715 
171.024 171.344 171.511 171.769 171.932 172.143 172.22 168.453 168.797 
169.108 169.458 169.852 170.262 170.666 170.984 171.256 171.463 171.699 
171.911 172.083 172.181 172.093 168.045 168.417 168.758 169.105 169.457 
169.855 170.24 170.641 170.964 171.261 171.525 171.757 171.967 172.082 
172.049 171.962 171.685 167.618 168.007 168.342 168.72 169.021 169.41 
169.7 170.132 170.401 170.832 171.071 171.467 171.671 171.94 171.963 
171.957 171.721 171.535 171.252 167.483 167.454 167.711 168.182 167.399 
167.647 168.12 168.397 168.858 167.412 167.596 168.037 168.313 168.794 
169.062 169.515 167.458 167.616 168.003 168.239 168.711 168.991 169.456 
169.712 170.167 167.409 167.62 167.973 168.197 168.649 168.928 169.41 
169.658 170.118 170.371 170.844 167.237 167.518 167.903 168.147 168.601 
168.879 169.388 169.64 170.106 170.335 170.803 171.059 171.49 166.991 
167.323 167.77 168.069 168.543 168.831 169.315 169.594 170.022 170.281 
170.665 170.958 171.311 171.587 171.791 166.743 167.076 167.542 167.903 
168.369 168.709 169.1 169.419 169.725 170.049 170.322 170.679 170.925 
171.265 171.379 171.629 171.564 166.583 166.858 167.285 167.637 168.046 
168.417 168.715 169.059 169.252 169.6 169.797 170.194 170.425 170.799 
170.939 171.179 171.141 171.276 171.15 166.674 166.969 166.982 167.319 
167.107 167.2 167.502 167.608 167.984 167.218 167.301 167.606 167.715 
168.045 168.208 168.568 167.529 167.519 167.881 167.885 168.222 168.273 
168.602 168.734 169.074 167.958 167.922 168.284 168.253 168.616 168.58 
168.92 168.891 169.23 169.281 169.655 168.34 168.322 168.612 168.611 
168.93 168.966 169.323 169.314 169.661 169.607 169.966 169.962 170.334 
168.705 168.683 168.979 168.926 169.228 169.233 169.587 169.642 170.003 
170.032 170.358 170.345 170.62 170.612 170.843 169.043 169.055 169.428 
169.375 169.754 169.66 170.024 169.947 170.269 170.27 170.57 170.629 
170.858 170.862 170.96 170.948 171.007 169.283 169.354 169.75 169.812 
170.253 170.248 170.628 170.499 170.719 170.565 170.741 170.744 170.973 
171.028 171.155 171.082 171.061 170.997 171.005 171.023 171.179 171.134 
171.321 171.337 171.383 171.619 171.602 171.849 171.126 171.363 171.584 
171.793 172.017 172.09 172.242 170.899 171.055 171.197 171.489 171.69 
172.009 172.182 172.341 172.489 171.006 171.012 171.127 171.157 171.331 
171.573 171.876 172.166 172.489 172.653 172.983 171.007 171.165 171.318 
171.275 171.389 171.415 171.738 171.957 172.447 172.689 173.164 173.294 
173.651 170.577 170.95 171.119 171.328 171.416 171.519 171.716 171.908 
172.298 172.617 173.068 173.373 173.701 173.848 173.941 169.989 170.375 
170.537 170.907 171.06 171.358 171.541 171.794 172.024 172.335 172.609 
173.022 173.267 173.64 173.707 173.86 173.687 169.493 169.803 169.963 
170.311 170.527 170.906 171.184 171.52 171.766 172.017 172.19 172.471 
172.635 173.018 173.134 173.449 173.376 173.461 173.199 161.201 161.543 
161.389 161.518 162.072 161.805 161.884 161.75 161.928 162.746 162.437 
162.517 162.231 162.395 162.226 162.451 163.416 163.167 163.363 163.022 
163.208 162.867 163.082 162.835 163.096 164.074 163.862 164.124 163.874 
164.105 163.779 163.973 163.617 163.839 163.565 163.875 164.735 164.539 
164.761 164.558 164.774 164.571 164.792 164.519 164.731 164.407 164.674 
164.416 164.761 165.277 165.145 165.357 165.17 165.384 165.19 165.472 
165.276 165.572 165.3 165.564 165.262 165.545 165.302 165.603 165.713 
165.613 165.863 165.74 166.016 165.848 166.18 165.996 166.347 166.118 
166.394 166.111 166.335 166.07 166.31 166.086 166.329 166.195 166.06 
166.333 166.236 166.561 166.465 166.809 166.692 167.011 166.85 167.085 
166.858 167.026 166.785 166.974 166.764 166.996 166.785 167.015 161.068 
161.386 161.125 160.882 161.808 161.499 161.233 160.878 160.549 162.304 
161.959 161.718 161.301 160.977 160.58 160.399 162.923 162.516 162.315 
161.861 161.62 161.152 161.048 160.692 160.813 163.715 163.232 163.079 
162.57 162.403 161.907 161.884 161.493 161.653 161.33 161.537 164.613 
164.108 163.993 163.448 163.3 162.765 162.715 162.329 162.455 162.17 
162.319 162.009 162.116 165.449 165 164.906 164.404 164.279 163.721 
163.611 163.14 163.166 162.866 162.973 162.711 162.794 162.508 162.629 
166.166 165.769 165.682 165.267 165.197 164.711 164.639 164.097 164.076 
163.615 163.702 163.36 163.495 163.192 163.34 163.063 163.256 166.851 
166.459 166.371 165.991 165.957 165.578 165.586 165.134 165.147 164.632 
164.691 164.221 164.361 163.976 164.151 163.819 163.99 163.704 163.867 
160.925 160.695 160.794 160.792 160.332 160.474 160.481 160.699 160.748 
160.197 160.161 160.191 160.369 160.47 160.63 160.512 160.603 160.279 
160.309 160.258 160.432 160.465 160.451 160.337 160.06 161.275 160.857 
160.816 160.593 160.763 160.654 160.733 160.497 160.322 159.998 159.831 
161.859 161.49 161.378 161.123 161.202 161.066 161.133 160.909 160.764 
160.413 160.243 159.985 160.015 162.44 162.063 161.973 161.658 161.672 
161.472 161.491 161.288 161.134 160.834 160.622 160.382 160.363 160.253 
160.353 163.1 162.719 162.676 162.307 162.301 161.982 161.971 161.68 
161.564 161.222 161.023 160.722 160.666 160.546 160.673 160.589 160.683 
163.698 163.38 163.333 163.01 162.982 162.642 162.595 162.243 162.158 
161.771 161.634 161.228 161.138 160.876 160.957 160.874 161.025 160.918 
160.986 169.799 169.375 169.696 169.866 168.811 169.182 169.337 169.7 
169.826 168.238 168.584 168.714 169.096 169.226 169.592 169.669 167.646 
167.997 168.09 168.461 168.574 168.956 169.053 169.399 169.418 166.933 
167.33 167.375 167.784 167.829 168.248 168.3 168.722 168.75 169.099 
169.044 166.181 166.562 166.579 166.994 167.002 167.427 167.416 167.869 
167.862 168.32 168.281 168.656 168.572 165.497 165.833 165.844 166.208 
166.222 166.6 166.595 166.986 166.965 167.388 167.352 167.787 167.727 
168.137 168.085 164.853 165.167 165.148 165.49 165.46 165.828 165.8 
166.189 166.168 166.553 166.512 166.888 166.826 167.23 167.189 167.634 
167.629 164.233 164.51 164.43 164.754 164.647 165.011 164.9 165.321 
165.251 165.709 165.664 166.081 166.017 166.386 166.333 166.733 166.736 
167.188 167.216 
POINT_DATA 1002
SCALARS Distance double
LOOKUP_TABLE default
166.697 166.345 165.997 166.364 165.624 166.939 165.947 165.187 166.553 
166.995 165.421 164.724 166.055 166.544 167.141 164.866 164.238 165.513 
166.056 166.703 167.551 164.351 163.744 165.025 165.651 166.289 167.146 
168.006 163.915 163.329 164.586 165.31 165.993 166.735 167.61 168.372 
163.551 163.002 164.186 164.908 165.699 166.435 167.181 167.993 168.71 
163.204 162.698 163.822 164.478 165.248 166.099 166.862 167.595 168.341 
168.998 162.873 162.414 163.477 164.11 164.763 165.578 166.469 167.264 
167.988 168.653 169.207 165.816 165.41 165.384 164.883 164.931 164.963 
164.283 164.288 164.353 164.544 163.572 163.594 163.72 163.98 164.159 
163.022 163.004 163.133 163.405 163.612 163.665 162.587 162.389 162.71 
162.852 162.998 163.057 163.137 161.976 161.753 162.188 162.324 162.43 
162.508 162.604 162.774 161.35 161.289 161.522 161.729 161.933 162.101 
162.234 162.37 162.517 161.006 161.024 161.089 161.258 161.481 161.694 
161.85 161.983 162.111 162.237 160.864 160.966 160.882 161.01 160.778 
161.06 160.591 160.233 160.917 161.139 159.802 159.694 160.278 160.764 
161.223 159.588 159.752 159.843 160.256 160.697 161.293 159.926 160.136 
160.063 160.312 160.363 160.668 161.375 160.072 160.455 160.047 160.4 
160.441 160.3 160.741 161.536 160.148 160.75 159.707 159.897 160.242 
160.199 160.34 161.023 161.751 160.498 161.051 159.835 159.611 159.873 
160.071 160.218 160.729 161.435 161.993 162.433 162.003 162.56 161.461 
162.178 162.787 160.793 161.702 162.514 163.146 160.317 161.096 162.143 
163.009 163.647 160.149 160.709 161.603 162.688 163.513 164.116 160.062 
160.732 161.342 162.189 163.139 163.84 164.483 160.185 160.941 161.541 
162.038 162.755 163.467 164.139 164.933 160.652 161.181 161.781 162.232 
162.728 163.292 163.892 164.663 165.521 161.127 161.383 161.826 162.318 
162.822 163.324 163.837 164.513 165.333 166.082 162.985 163.166 163.659 
163.419 163.888 164.323 163.831 164.226 164.623 165.033 164.363 164.719 
165.084 165.434 165.946 164.854 165.237 165.623 165.985 166.44 166.934 
165.359 165.757 166.152 166.581 167.05 167.499 167.806 165.935 166.344 
166.753 167.205 167.678 168.092 168.37 168.525 166.453 166.872 167.346 
167.838 168.265 168.596 168.844 168.996 169.092 166.743 167.146 167.375 
167.905 168.193 167.687 168.84 169.107 168.593 168.312 169.731 169.809 
169.515 169.219 168.798 170.506 170.505 170.398 170.066 169.569 169.066 
171.393 171.442 171.305 171.05 170.476 169.795 169.273 172.265 172.253 
172.092 171.89 171.515 170.797 170.02 169.451 172.86 172.678 172.669 
172.329 172.075 171.657 170.894 170.11 169.541 173.242 172.913 173.189 
172.754 172.313 171.999 171.508 170.787 170.123 169.63 166.163 166.798 
166.157 166.735 165.966 167.462 166.477 165.729 167.411 168.339 166.268 
165.741 167.177 168.274 169.155 166.397 166 167.082 168.105 169.043 
169.77 166.716 166.249 167.267 168.125 169.029 169.798 170.597 166.948 
166.38 167.49 168.233 169.107 169.919 170.707 171.53 167.052 166.443 
167.64 168.297 169.066 169.883 170.673 171.405 172.084 167.088 166.492 
167.739 168.388 169.014 169.696 170.471 171.186 171.766 172.329 161.33 
161.437 161.446 161.674 161.797 161.716 162.277 162.534 162.159 162.205 
163.028 163.228 162.9 162.78 162.792 163.442 163.689 163.463 163.426 
163.327 163.343 163.867 164.274 163.825 163.932 163.871 163.835 163.88 
164.714 165.076 164.541 164.571 164.526 164.446 164.518 164.575 165.683 
165.854 165.539 165.439 165.285 165.132 165.195 165.371 165.413 161.159 
161.318 161.07 161.36 161.095 161.515 161.696 161.493 161.836 162.06 
162.22 162.045 162.344 162.509 162.877 162.704 162.527 162.817 162.949 
163.284 163.613 163.178 162.959 163.307 163.391 163.639 164.043 164.236 
163.592 163.32 163.814 163.949 164.055 164.355 164.715 164.897 163.892 
163.637 164.169 164.437 164.559 164.687 165.009 165.341 165.577 164.198 