# vtk DataFile Version 4.0
vtk output
ASCII
DATASET POLYDATA
POINTS 1002 float
-117.156 -104.273 52.6587 -117.166 -103.801 52.2837 -116.694 -104.056 52.2832 
-116.669 -104.6 52.5771 -116.098 -104.269 52.3725 -117.092 -104.66 53.07 
-116.011 -104.793 52.6694 -115.327 -104.478 52.4922 -116.509 -104.938 53.1062 
-116.959 -104.937 53.734 -115.161 -104.893 52.9381 -114.414 -104.776 52.5717 
-115.781 -105.019 53.3935 -116.26 -105.11 53.9678 -116.862 -105.275 54.4892 
-114.221 -105.005 53.2326 -113.51 -104.97 52.7606 -114.973 -105.027 53.8248 
-115.522 -105.169 54.3442 -116.106 -105.38 54.7775 -116.807 -105.614 55.1947 
-113.376 -105.013 53.5718 -112.825 -104.896 53.1898 -114.148 -105.108 54.1451 
-114.827 -105.285 54.6878 -115.386 -105.482 55.099 -116.043 -105.672 55.5407 
-116.666 -105.818 56.0552 -112.72 -104.994 54.0078 -112.346 -104.803 53.7246 
-113.34 -105.222 54.4165 -114.081 -105.475 54.927 -114.717 -105.639 55.4108 
-115.325 -105.76 55.9121 -115.953 -105.92 56.4834 -116.476 -106.083 56.9626 
-112.141 -105.121 54.4232 -111.851 -104.806 54.2063 -112.602 -105.406 54.74 
-113.271 -105.63 55.222 -113.982 -105.754 55.772 -114.639 -105.866 56.2902 
-115.274 -106.047 56.8325 -115.866 -106.25 57.338 -116.364 -106.409 57.7095 
-111.549 -105.195 54.7627 -111.291 -104.754 54.6122 -111.967 -105.566 55.0426 
-112.561 -105.744 55.5402 -113.244 -105.799 56.1503 -113.945 -105.952 56.6656 
-114.617 -106.196 57.1199 -115.238 -106.379 57.6126 -115.825 -106.491 58.0821 
-116.331 -106.559 58.4976 -111.014 -105.092 55.0967 -110.783 -104.66 54.9738 
-111.444 -105.521 55.3401 -112.019 -105.783 55.8034 -112.625 -105.87 56.4048 
-113.288 -106.038 56.9309 -114.006 -106.332 57.3732 -114.641 -106.502 57.8832 
-115.218 -106.529 58.4468 -115.805 -106.566 58.9552 -116.312 -106.627 59.3905 
-116.871 -103.486 51.785 -116.285 -103.623 52.0162 -116.545 -103.179 51.2907 
-115.906 -103.238 51.6914 -116.291 -102.834 50.9479 -115.591 -103.789 52.2502 
-115.716 -102.9 51.3076 -116.182 -102.288 50.8284 -115.224 -103.382 51.9621 
-114.79 -104.09 52.3073 -115.634 -102.383 51.1024 -116.082 -101.597 50.8224 
-115.06 -102.968 51.6529 -114.47 -103.576 52.1269 -113.897 -104.458 52.3289 
-115.417 -101.715 51.125 -115.724 -101.076 50.7325 -114.878 -102.442 51.596 
-114.259 -102.959 52.1263 -113.592 -103.761 52.3577 -113.052 -104.614 52.5799 
-115.008 -101.163 51.1493 -115.139 -100.807 50.5548 -114.564 -101.922 51.5896 
-113.95 -102.55 52.0765 -113.304 -103.072 52.4373 -112.735 -103.913 52.6134 
-112.446 -104.559 53.0404 -114.632 -100.794 51.1453 -114.703 -100.541 50.4648 
-114.236 -101.442 51.5069 -113.574 -102.283 51.7761 -112.949 -102.763 52.1951 
-112.436 -103.269 52.5862 -112.113 -103.987 52.9974 -111.985 -104.482 53.6018 
-114.451 -100.472 51.1918 -114.577 -100.099 50.5312 -114 -100.995 51.5215 
-113.209 -101.826 51.5976 -112.546 -102.452 51.8849 -112.18 -102.799 52.4798 
-111.882 -103.34 53.0806 -111.651 -103.951 53.6337 -111.481 -104.386 54.173 
-114.349 -100.097 51.2502 -114.566 -99.5691 50.6818 -113.833 -100.602 51.6009 
-112.929 -101.272 51.6801 -112.134 -101.901 51.8291 -111.879 -102.301 52.4056 
-111.783 -102.76 53.2015 -111.501 -103.367 53.8255 -111.201 -103.882 54.2668 
-110.965 -104.285 54.6419 -114.267 -99.4845 51.1549 -113.783 -100.058 51.5582 
-113.6 -99.4588 51.4941 -112.918 -100.046 51.7873 -112.845 -99.4508 51.8684 
-112.922 -100.665 51.7779 -112.221 -100.04 52.1441 -112.341 -99.5252 52.4686 
-112.025 -100.661 51.9619 -111.927 -101.263 51.8851 -111.831 -100.06 52.7735 
-111.97 -99.6834 53.2332 -111.564 -100.603 52.3314 -111.341 -101.179 52.1716 
-111.505 -101.74 52.2909 -111.467 -100.112 53.5945 -111.568 -99.8269 53.9695 
-111.323 -100.563 53.146 -111.119 -101.178 52.7782 -111.234 -101.788 52.8618 
-111.576 -102.287 53.1601 -111.165 -100.252 54.3928 -111.316 -99.9955 54.6739 
-111.109 -100.689 54.1878 -110.883 -101.266 53.9 -110.83 -101.969 53.6937 
-111.136 -102.563 53.838 -111.397 -102.963 53.9852 -111.06 -100.472 55.1974 
-111.304 -100.252 55.4561 -111.025 -101.019 55.0195 -110.746 -101.555 54.9043 
-110.315 -102.026 54.6711 -110.327 -102.632 54.4666 -110.689 -103.171 54.4737 
-110.974 -103.527 54.4532 -111.064 -100.672 56.085 -111.409 -100.529 56.2476 
-110.969 -101.284 55.797 -110.739 -101.961 55.5109 -110.104 -102.201 55.3023 
-109.641 -102.451 55.0764 -109.825 -103.083 54.9001 -110.279 -103.653 54.8493 
-110.643 -103.98 54.7849 -111.151 -100.864 56.8659 -111.529 -100.767 56.9107 
-110.934 -101.375 56.6348 -110.73 -102.148 56.1776 -110.195 -102.496 55.785 
-109.496 -102.488 55.6236 -109.26 -102.933 55.5207 -109.585 -103.723 55.39 
-110.04 -104.208 55.27 -110.42 -104.419 55.1331 -110.464 -104.868 55.4413 
-110.02 -104.755 55.6697 -110.332 -105.086 56.0519 -109.573 -104.572 55.9192 
-109.826 -105.03 56.3086 -110.556 -105.189 56.7449 -109.238 -103.886 56.1528 
-109.488 -104.74 56.5991 -110.199 -104.964 56.8874 -111.16 -105.101 57.4965 
-109.325 -103.012 56.2422 -109.587 -103.929 56.8328 -110.17 -104.55 57.0917 
-111.027 -104.726 57.591 -111.684 -105.05 58.4802 -109.904 -102.712 56.2474 
-110.106 -103.155 56.888 -110.55 -103.901 57.3435 -110.999 -104.475 57.8939 
-111.436 -104.831 58.8278 -111.719 -105.273 59.6441 -110.524 -102.595 56.5347 
-110.628 -102.838 57.0183 -110.919 -103.308 57.6084 -111.024 -104.084 58.3709 
-111.074 -104.733 59.3862 -111.32 -105.146 60.2135 -111.723 -105.534 60.5975 
-110.882 -102.011 57.0603 -110.962 -102.507 57.423 -111.067 -102.885 57.9759 
-110.966 -103.47 58.8599 -110.849 -104.221 59.8965 -111.062 -104.793 60.6817 
-111.549 -105.211 61.0535 -112.116 -105.592 61.2654 -111.14 -101.37 57.3861 
-111.252 -102.01 57.7758 -111.292 -102.545 58.2957 -111.068 -102.963 59.1965 
-110.896 -103.482 60.1913 -111.162 -104.058 60.8364 -111.673 -104.606 61.1964 
-112.125 -105.152 61.5448 -112.531 -105.584 61.9193 -111.445 -101.074 57.4597 
-111.513 -101.606 57.9278 -111.597 -102.222 58.4499 -111.446 -102.683 59.2782 
-111.247 -103.032 60.2363 -111.463 -103.433 60.8284 -111.962 -103.936 61.1309 
-112.285 -104.57 61.5914 -112.433 -105.202 62.1922 -112.655 -105.618 62.6376 
-110.871 -105.246 55.6545 -110.977 -105.413 56.4195 -111.476 -105.657 56.0467 
-111.29 -105.592 57.3077 -111.564 -105.93 56.9309 -112.041 -105.97 56.5856 
-111.664 -105.649 58.2684 -111.61 -106.257 57.8942 -111.945 -106.392 57.3987 
-112.61 -106.202 57.098 -111.858 -105.674 59.2886 -111.755 -106.293 58.9256 
-111.957 -106.627 58.3828 -112.661 -106.579 57.8868 -113.418 -106.452 57.6057 
-111.968 -105.83 60.217 -112.079 -106.225 59.9279 -112.348 -106.49 59.5625 
-113.022 -106.52 59.0785 -113.728 -106.538 58.6545 -114.211 -106.571 58.2689 
-112.344 -105.924 60.9986 -112.576 -106.252 60.8033 -112.904 -106.476 60.6148 
-113.49 -106.479 60.2819 -114.083 -106.444 59.9198 -114.445 -106.507 59.5295 
-114.777 -106.551 58.9987 -112.814 -105.871 61.7495 -113.115 -106.187 61.6045 
-113.381 -106.569 61.4589 -113.74 -106.829 61.1197 -114.178 -106.877 60.7206 
-114.537 -106.83 60.464 -114.89 -106.736 60.1358 -115.345 -106.624 59.5804 
-113.02 -105.833 62.4765 -113.421 -106.083 62.3233 -113.686 -106.558 62.1972 
-113.846 -107.146 61.8606 -114.08 -107.528 61.2835 -114.45 -107.608 60.8412 
-114.929 -107.445 60.6489 -115.467 -107.114 60.4175 -115.956 -106.794 59.9738 
-112.91 -105.761 63.185 -113.382 -105.991 62.9717 -113.387 -105.858 63.5305 
-113.784 -106.339 63.4097 -113.991 -106.047 63.9118 -113.767 -106.453 62.8566 
-114.233 -106.788 63.8995 -114.537 -106.261 64.3386 -114.035 -107.154 63.3886 
-113.932 -107.223 62.697 -114.856 -106.905 64.0749 -115.241 -106.314 64.3698 
-114.492 -107.64 63.7841 -114.208 -107.956 63.2087 -114.055 -107.887 62.182 
-115.832 -106.745 63.8242 -116.278 -106.284 64.2272 -115.383 -107.521 63.6846 
-114.935 -108.063 63.5398 -114.567 -108.211 62.6332 -114.408 -108.137 61.4396 
-116.908 -106.706 63.8783 -117.262 -106.234 64.3917 -116.519 -107.401 63.5173 
-116.088 -107.857 63.5321 -115.599 -107.94 63.0092 -115.214 -108.128 61.7523 
-115.02 -108.083 60.8978 -117.73 -106.624 64.233 -117.937 -106.078 64.474 
-117.451 -107.435 63.7759 -117.187 -107.996 63.554 -116.794 -107.937 63.1328 
-116.307 -107.885 62.0058 -115.941 -108.045 60.9925 -115.694 -107.768 60.6661 
-118.396 -106.367 64.2374 -118.499 -105.902 64.1722 -118.138 -107.138 63.9482 
-117.935 -107.929 63.5885 -117.741 -108.211 63.0945 -117.336 -108.075 62.1071 
-116.841 -107.964 61.1073 -116.485 -107.746 60.7038 -116.222 -107.256 60.5001 
-119.061 -106.194 63.9384 -119.071 -105.809 63.8159 -118.8 -106.707 63.7442 
-118.477 -107.343 63.3636 -118.302 -107.912 62.8795 -118.1 -108.175 62.1034 
-117.647 -108.063 61.259 -117.133 -107.675 60.8395 -116.787 -107.191 60.6318 
-116.552 -106.813 60.1435 -112.496 -105.392 63.1511 -112.827 -105.482 63.665 
-112.475 -104.882 63.5916 -113.053 -104.887 63.8998 -112.676 -104.085 63.78 
-113.554 -105.48 63.8818 -113.47 -104.159 63.7605 -112.996 -103.319 63.668 
-113.931 -104.914 63.9705 -114.268 -105.603 64.2343 -113.86 -103.584 63.5281 
-113.407 -102.811 63.471 -114.291 -104.309 63.866 -114.559 -105.064 64.3457 
-114.819 -105.818 64.592 -114.301 -103.054 63.5501 -114.003 -102.423 63.3186 
-114.653 -103.697 63.9058 -114.922 -104.295 64.3757 -115.203 -105.17 64.6183 
-115.685 -105.93 64.553 -114.835 -102.442 63.5737 -114.66 -102.105 63.0079 
-115.069 -103.056 64.0003 -115.404 -103.523 64.3785 -115.772 -104.153 64.5418 
-116.229 -105.182 64.5349 -116.783 -105.918 64.5072 -115.32 -102.036 63.1727 
-115.176 -101.961 62.4657 -115.408 -102.518 63.6919 -115.726 -103.111 64.0386 
-116.24 -103.492 64.2897 -116.695 -104.202 64.3932 -117.116 -105.211 64.4433 
-117.557 -105.815 64.5035 -115.767 -101.948 62.5169 -115.559 -101.864 61.9641 
-115.795 -102.214 63.0206 -115.968 -102.82 63.3779 -116.485 -103.316 63.7613 
-116.997 -103.687 64.1199 -117.287 -104.427 64.2063 -117.597 -105.245 64.1366 
-118.044 -105.67 64.1444 -116.203 -101.87 62.0328 -115.877 -101.607 61.694 
-116.351 -102.043 62.4399 -116.475 -102.392 62.8295 -116.86 -102.9 63.2622 
[...]
CELL_DATA 2000
SCALARS Distance double
LOOKUP_TABLE default
164.112 163.913 164.194 164.498 163.599 163.949 164.265 164.534 164.797 
163.185 163.572 163.89 164.233 164.497 164.793 165.096 162.732 163.119 
163.437 163.821 164.116 164.45 164.753 165.104 165.472 162.299 162.65 
162.978 163.379 163.738 164.092 164.425 164.752 165.112 165.481 165.845 
161.992 162.258 162.581 162.95 163.361 163.748 164.133 164.456 164.808 
165.137 165.516 165.855 166.202 161.801 162.019 162.32 162.616 163.014 
163.39 163.803 164.159 164.524 164.85 165.226 165.563 165.953 166.253 
166.591 161.566 161.818 162.102 162.385 162.74 163.073 163.463 163.817 
164.204 164.554 164.947 165.292 165.69 166.014 166.378 166.655 166.961 
161.27 161.536 161.818 162.131 162.483 162.808 163.178 163.5 163.888 
164.237 164.665 165.025 165.442 165.762 166.124 166.416 166.742 167.01 
167.303 163.787 163.189 163.513 163.558 162.623 162.899 162.903 163.238 
163.244 162.146 162.37 162.34 162.597 162.58 162.892 162.86 161.675 
161.911 161.875 162.079 162.015 162.259 162.215 162.505 162.443 161.114 
161.404 161.377 161.611 161.517 161.717 161.616 161.871 161.811 162.093 
162.031 160.487 160.802 160.794 161.078 161.009 161.213 161.066 161.269 
161.169 161.455 161.434 161.728 161.73 159.937 160.212 160.23 160.498 
160.461 160.687 160.551 160.726 160.58 160.82 160.8 161.128 161.184 
161.493 161.537 159.548 159.771 159.811 159.996 159.925 160.122 159.979 
160.181 160.041 160.265 160.237 160.531 160.61 160.936 161.006 161.299 
161.31 159.24 159.455 159.496 159.63 159.49 159.599 159.385 159.567 
159.445 159.717 159.748 160.044 160.156 160.428 160.518 160.771 160.798 
161.044 161.034 159.105 158.829 159.113 159.291 158.379 158.694 158.816 
159.128 159.194 158.074 158.245 158.315 158.571 158.605 158.915 158.997 
158.049 158.062 158.091 158.174 158.21 158.386 158.529 158.829 159.095 
158.115 158.092 158.115 158.101 158.171 158.198 158.43 158.585 158.984 
159.192 159.574 158.24 158.177 158.276 158.237 158.378 158.326 158.57 
158.647 159.063 159.244 159.656 159.777 160.064 158.551 158.397 158.584 
158.525 158.761 158.653 158.807 158.777 159.003 159.213 159.524 159.787 
160.025 160.18 160.363 159.013 158.798 158.976 158.917 159.192 159.095 
159.166 158.986 158.942 158.99 159.129 159.455 159.706 160.013 160.211 
160.406 160.587 159.495 159.27 159.383 159.304 159.549 159.497 159.574 
159.341 159.181 158.963 158.952 159.071 159.367 159.676 160.009 160.237 
160.466 160.622 160.822 160.924 160.592 160.85 161.079 160.169 160.523 
160.771 161.069 161.408 159.55 160.02 160.357 160.755 161.094 161.449 
161.904 159.135 159.437 159.878 160.328 160.792 161.159 161.62 162.01 
162.553 159.354 159.319 159.748 160.004 160.602 160.939 161.501 161.815 
162.367 162.715 163.233 159.779 159.718 160.033 160.099 160.617 160.864 
161.446 161.746 162.286 162.593 163.087 163.38 163.809 159.83 159.982 
160.258 160.37 160.725 160.907 161.337 161.629 162.082 162.438 162.878 
163.22 163.633 163.929 164.332 159.7 159.903 160.244 160.447 160.801 
160.967 161.3 161.488 161.844 162.146 162.556 162.932 163.36 163.719 
164.141 164.459 164.866 159.76 159.853 160.218 160.407 160.818 161.009 
161.375 161.5 161.828 161.983 162.372 162.643 163.097 163.437 163.893 
164.238 164.659 164.97 165.324 161.2 161.376 161.423 161.776 161.764 
161.722 162.104 162.11 162.504 162.335 162.236 162.645 162.556 162.936 
162.879 163.227 162.974 162.863 163.26 163.142 163.473 163.357 163.672 
163.6 163.938 163.564 163.467 163.802 163.706 163.996 163.881 164.187 
164.094 164.466 164.382 164.76 164.101 164.003 164.322 164.217 164.536 
164.41 164.763 164.655 165.07 164.973 165.369 165.239 165.561 164.657 
164.546 164.916 164.79 165.187 165.037 165.453 165.304 165.731 165.604 
165.978 165.84 166.122 165.973 166.215 165.199 165.116 165.509 165.42 
165.848 165.741 166.165 166.028 166.414 166.266 166.6 166.439 166.711 
166.532 166.769 166.601 166.835 165.625 165.604 165.961 165.949 166.347 
166.334 166.734 166.672 167.013 166.892 167.185 167.041 167.324 167.154 
167.42 167.214 167.451 167.239 167.439 165.907 166.411 166.191 166.267 
167.026 166.759 166.885 166.614 166.706 167.73 167.459 167.637 167.33 
167.462 167.109 167.15 168.314 168.126 168.337 168.118 168.273 167.923 
167.933 167.513 167.438 168.856 168.644 168.843 168.724 168.919 168.687 
168.682 168.279 168.145 167.725 167.592 169.546 169.255 169.455 169.255 
169.51 169.294 169.347 168.967 168.824 168.405 168.27 167.876 167.752 
170.129 169.949 170.165 169.962 170.255 170.003 170.131 169.691 169.559 
169.072 168.927 168.543 168.446 168.047 167.886 170.417 170.397 170.597 
170.545 170.784 170.697 170.842 170.528 170.401 169.873 169.644 169.185 
169.04 168.685 168.523 168.123 167.894 170.622 170.633 170.816 170.8 
170.912 170.949 171.016 170.996 170.905 170.624 170.35 169.898 169.615 
169.216 168.984 168.647 168.399 168.046 167.803 165.78 165.688 165.92 
166.267 165.49 165.803 166.208 166.441 166.853 165.216 165.585 166.067 
166.378 166.845 167.088 167.532 165.017 165.348 165.874 166.223 166.733 
167.044 167.513 167.758 168.144 165.011 165.245 165.768 166.066 166.563 
166.881 167.363 167.684 168.146 168.362 168.744 165.094 165.275 165.737 
165.996 166.45 166.72 167.151 167.476 167.978 168.328 168.829 169.03 
169.433 165.139 165.299 165.643 165.899 166.3 166.593 166.988 167.277 
167.715 168.091 168.604 168.993 169.424 169.663 169.956 165.17 165.301 
165.566 165.747 166.083 166.38 166.8 167.116 167.537 167.847 168.269 
168.65 169.04 169.425 169.696 169.988 170.181 165.189 165.335 165.615 
165.714 166.008 166.195 166.613 166.921 167.392 167.693 168.083 168.35 
168.655 168.964 169.216 169.562 169.784 170.11 170.335 159.966 160.305 
160.207 160.366 160.538 160.497 160.722 160.689 160.952 160.938 160.773 
161.019 161.01 161.334 161.309 161.541 161.704 161.352 161.527 161.359 
161.68 161.664 161.969 161.872 162.034 162.539 162.209 162.326 161.997 
162.205 162.055 162.38 162.311 162.576 162.396 162.579 163.142 162.956 
163.106 162.806 162.914 162.642 162.855 162.743 163.051 162.953 163.218 
163.023 163.27 163.652 163.509 163.723 163.505 163.613 163.322 163.413 
163.218 163.441 163.386 163.691 163.62 163.908 163.752 164.035 164.233 
164.063 164.302 164.105 164.252 163.978 164.046 163.772 163.904 163.769 
164.048 164.025 164.365 164.318 164.633 164.506 164.785 164.82 164.651 
164.854 164.675 164.829 164.603 164.708 164.424 164.546 164.3 164.538 
164.422 164.769 164.735 165.087 165.031 165.32 165.202 165.43 159.888 
159.95 160.028 160.203 159.938 160.038 160.166 160.253 160.396 159.933 
159.993 160.143 160.216 160.405 160.498 160.805 160.112 160.091 160.302 
160.295 160.583 160.62 161.017 161.109 161.594 160.282 160.343 160.617 
160.596 160.92 160.913 161.323 161.388 161.848 161.962 162.403 160.21 
160.426 160.754 160.884 161.197 161.253 161.597 161.673 162.053 162.162 
162.513 162.639 162.96 160.103 160.309 160.68 160.909 161.247 161.405 
161.711 161.846 162.184 162.315 162.634 162.723 163.008 163.119 163.443 
160.197 160.294 160.685 160.864 161.252 161.406 161.719 161.865 162.194 
162.378 162.724 162.849 163.139 163.209 163.519 163.642 164.02 160.445 
160.477 160.862 160.972 161.383 161.483 161.804 161.885 162.187 162.35 
162.709 162.9 163.225 163.339 163.632 163.742 164.102 164.257 164.639 
160.717 161.317 161.045 161.158 161.961 161.69 161.801 161.541 161.655 
162.596 162.332 162.42 162.161 162.221 161.976 162.024 163.227 162.959 
163.031 162.756 162.796 162.521 162.55 162.299 162.381 163.831 163.568 
163.622 163.354 163.418 163.135 163.213 162.904 163.008 162.736 162.902 
164.434 164.152 164.183 163.917 163.999 163.768 163.914 163.641 163.771 
163.447 163.565 163.291 163.423 165.064 164.77 164.809 164.504 164.588 
164.349 164.522 164.319 164.484 164.209 164.297 163.977 164.054 163.775 
163.869 165.628 165.387 165.461 165.177 165.287 165.002 165.161 164.921 
165.089 164.856 164.978 164.695 164.794 164.473 164.592 164.267 164.389 
166.057 165.889 165.994 165.806 165.966 165.731 165.888 165.603 165.716 
165.442 165.558 165.327 165.476 165.226 165.378 165.064 165.189 164.839 
164.933 166.285 166.681 166.405 166.282 167.17 166.872 166.793 166.478 
166.35 167.642 167.367 167.282 167.005 166.882 166.542 166.315 168.082 
167.799 167.64 167.398 167.206 166.968 166.703 166.39 166.077 168.585 
168.249 168.035 167.708 167.445 167.185 166.911 166.668 166.393 166.114 
165.869 169.139 168.778 168.58 168.173 167.918 167.516 167.28 166.935 
166.754 166.455 166.311 166.005 165.842 169.648 169.294 169.072 168.719 
168.499 168.105 167.904 167.481 167.303 166.92 166.776 166.467 166.324 
166.006 165.792 170.061 169.721 169.412 169.117 168.876 168.611 168.414 
168.102 167.859 167.483 167.186 166.861 166.594 166.367 166.122 165.865 
165.576 170.345 170.053 169.716 169.416 169.137 168.891 168.661 168.448 
168.175 167.898 167.505 167.169 166.747 166.497 166.175 166.027 165.761 
165.567 165.274 166.411 166.741 166.624 166.774 167.106 166.958 167.088 
167.022 167.226 167.495 167.288 167.357 167.305 167.496 167.484 167.703 
167.937 167.646 167.615 167.534 167.726 167.741 167.995 167.969 168.191 
168.302 168.037 167.947 167.816 168.028 168.019 168.329 168.29 168.551 
168.478 168.705 168.38 168.281 168.224 168.156 168.405 168.407 168.757 
168.687 168.942 168.846 169.093 169.026 169.267 168.226 168.272 168.325 
168.376 168.677 168.774 169.144 169.124 169.358 169.246 169.493 169.437 
169.766 169.663 169.889 168.07 168.164 168.343 168.458 168.809 168.977 
169.364 169.434 169.672 169.617 169.861 169.85 170.246 170.218 170.55 
170.323 170.422 168.039 168.122 168.374 168.502 168.862 169.055 169.426 
169.568 169.798 169.832 170.03 170.114 170.468 170.61 170.964 170.931 
171.048 170.766 170.697 166.275 166.196 166.368 166.622 166.11 166.327 
166.651 166.774 167.041 165.953 166.264 166.697 166.867 167.23 167.281 
167.553 165.57 166.035 166.522 166.871 167.318 167.506 167.895 167.891 
168.125 164.959 165.513 165.967 166.511 166.949 167.406 167.838 168.138 
168.462 168.453 168.531 164.367 164.863 165.279 165.83 166.225 166.801 
167.193 167.773 168.134 168.523 168.647 168.664 168.535 163.902 164.327 
164.717 165.174 165.535 166.037 166.397 166.978 167.333 167.909 168.104 
168.452 168.365 168.431 168.231 163.449 163.872 164.224 164.644 164.959 
165.394 165.729 166.23 166.584 167.106 167.337 167.758 167.765 168.024 
167.889 168.03 167.932 162.969 163.389 163.722 164.135 164.427 164.831 
165.136 165.599 165.956 166.44 166.707 167.083 167.148 167.409 167.367 
167.589 167.572 167.774 167.83 162.823 162.892 163.095 163.574 163.026 
163.199 163.67 163.842 164.283 163.198 163.353 163.842 163.986 164.434 
164.558 165.007 163.403 163.517 163.995 164.165 164.636 164.761 165.218 
165.34 165.827 163.669 163.717 164.114 164.278 164.739 164.926 165.369 
165.536 165.967 166.135 166.531 163.917 163.967 164.312 164.411 164.84 
165.003 165.441 165.62 166 166.18 166.483 166.666 166.907 164.033 
164.157 164.536 164.641 165.089 165.189 165.651 165.74 166.137 166.219 
166.519 166.603 166.821 166.943 167.141 164.067 164.229 164.638 164.821 
165.297 165.46 165.939 166.029 166.438 166.457 166.787 166.767 167.028 
166.998 167.218 167.24 167.449 164.138 164.271 164.648 164.853 165.293 
165.554 166.006 166.227 166.602 166.723 167.024 167.069 167.336 167.315 
167.545 167.478 167.676 167.626 167.805 164.318 164.692 164.594 164.792 
165.022 164.953 165.174 165.111 165.407 165.407 165.329 165.594 165.508 
165.817 165.779 166.116 165.844 165.786 166.093 165.979 166.249 166.173 
166.473 166.453 166.718 166.191 166.199 166.505 166.457 166.684 166.59 
166.8 166.758 167.004 166.984 167.169 166.49 166.489 166.779 166.788 
167.054 166.998 167.225 167.119 167.36 167.287 167.53 167.433 167.555 
166.848 166.798 167.085 167.067 167.423 167.402 167.778 167.657 167.974 
167.782 168.039 167.86 168.023 167.815 167.825 167.211 167.161 167.43 
167.404 167.76 167.797 168.236 168.238 168.604 168.46 168.665 168.435 
168.522 168.289 168.283 168.027 167.946 167.551 167.507 167.749 167.721 
167.996 168.062 168.401 168.538 168.825 168.89 169.005 168.925 168.904 
168.732 168.662 168.446 168.352 168.107 168.017 168.149 168.477 168.363 
168.506 168.768 168.676 168.832 168.776 169.003 168.944 168.878 168.956 
169.002 169.223 169.281 169.511 168.985 168.944 168.874 168.952 169.078 
169.303 169.531 169.681 169.826 168.854 168.899 168.794 168.81 168.853 
169.042 169.276 169.54 169.792 169.929 170.099 168.557 168.723 168.785 
168.811 168.947 168.972 169.233 169.347 169.682 169.864 170.221 170.319 
170.603 168.238 168.461 168.702 168.859 169.191 169.252 169.612 169.566 
169.877 169.878 170.23 170.391 170.772 170.886 171.104 168.024 168.238 
168.544 168.785 169.192 169.441 169.892 170.001 170.33 170.251 170.477 
170.456 170.724 170.879 171.089 171.2 171.177 167.848 168.08 168.387 
168.637 168.986 169.3 169.698 170.04 170.41 170.59 170.811 170.777 
170.891 170.86 170.948 171.022 171.002 171.046 170.847 159.004 159.347 
159.017 158.726 159.834 159.467 159.273 158.862 158.777 160.469 160.091 
160.016 159.565 159.528 159.15 159.345 161.116 160.787 160.778 160.385 
160.376 159.97 160.07 159.822 160.068 161.677 161.409 161.417 161.116 
161.136 160.789 160.831 160.518 160.62 160.418 160.501 162.185 161.952 
162.009 161.742 161.815 161.51 161.568 161.236 161.279 160.977 161.004 
160.73 160.712 162.693 162.479 162.612 162.375 162.517 162.224 162.31 
161.959 161.976 161.628 161.629 161.307 161.315 160.994 161.039 163.237 
163.017 163.175 162.985 163.163 162.933 163.031 162.701 162.691 162.317 
162.298 161.958 161.997 161.675 161.766 161.451 161.612 163.802 163.576 
163.708 163.528 163.69 163.516 163.618 163.363 163.364 163.021 163.013 
162.664 162.735 162.408 162.544 162.224 162.399 162.102 162.324 158.749 
158.423 158.459 158.301 158.464 158.247 158.061 158.08 158.045 159.145 
158.638 158.445 158.085 157.989 157.93 157.938 159.979 159.533 159.424 
158.843 158.668 158.173 158.059 157.883 157.878 160.351 160.178 160.098 
159.79 159.606 159.065 158.804 158.293 158.199 157.96 158.081 160.458 
160.325 160.183 160.128 159.992 159.778 159.52 159.087 158.884 158.507 
158.598 158.411 158.709 160.79 160.491 160.358 160.182 160.147 160.012 
159.94 159.663 159.53 159.184 159.211 159.001 159.253 159.148 159.434 
161.417 161.007 160.951 160.601 160.668 160.389 160.506 160.193 160.248 
159.863 159.924 159.617 159.806 159.651 159.89 159.779 159.944 162.162 
161.746 161.727 161.342 161.428 161.104 161.265 160.944 161.084 160.699 
160.799 160.408 160.545 160.249 160.432 160.228 160.385 160.212 160.326 
158.828 158.419 158.656 158.648 158.197 158.349 158.365 158.427 158.293 
158.093 158.236 158.323 158.299 158.192 158.124 158.04 157.949 158.109 
158.281 158.352 158.346 158.209 158.14 158.038 158.06 158.036 157.986 
158.142 158.277 158.445 158.442 158.472 158.306 158.306 158.161 158.173 
158.62 158.278 158.335 158.25 158.499 158.559 158.79 158.706 158.774 
158.54 158.523 158.302 158.307 159.342 158.967 158.941 158.652 158.828 
158.761 159.082 159.051 159.246 159.053 159.085 158.79 158.799 158.538 
158.625 159.834 159.577 159.517 159.256 159.338 159.2 159.458 159.407 
159.626 159.496 159.567 159.349 159.397 159.142 159.232 158.977 159.118 
160.208 159.984 159.941 159.731 159.795 159.663 159.871 159.804 159.999 
159.871 159.923 159.749 159.781 159.646 159.744 159.585 159.691 159.48 
159.599 166.05 165.609 165.864 165.916 165.032 165.337 165.337 165.662 
165.725 164.389 164.693 164.65 164.99 164.997 165.407 165.481 163.755 
164.031 163.963 164.278 164.265 164.644 164.677 165.103 165.11 163.111 
163.375 163.268 163.579 163.555 163.926 163.946 164.318 164.276 164.643 
164.549 162.466 162.713 162.579 162.869 162.81 163.185 163.189 163.579 
163.518 163.843 163.709 164.048 163.963 161.833 162.073 161.949 162.208 
162.134 162.447 162.427 162.795 162.753 163.086 162.96 163.257 163.145 
163.511 163.49 161.195 161.439 161.317 161.586 161.505 161.794 161.743 
162.064 162.024 162.346 162.26 162.541 162.42 162.727 162.658 163.056 
163.045 160.624 160.83 160.705 160.948 160.832 161.119 161.014 161.349 
161.271 161.625 161.537 161.85 161.718 162.005 161.877 162.222 162.159 
162.585 162.569 
POINT_DATA 1002
SCALARS Distance double
LOOKUP_TABLE default
164.443 164.034 163.86 164.279 163.602 164.773 163.967 163.23 164.55 
165.068 163.521 162.806 164.182 164.762 165.459 163.031 162.361 163.762 
164.406 165.091 165.867 162.56 161.978 163.345 164.109 164.76 165.485 
166.185 162.237 161.763 162.948 163.792 164.499 165.167 165.897 166.527 
162.058 161.583 162.665 163.431 164.186 164.887 165.626 166.337 166.911 
161.814 161.301 162.434 163.124 163.835 164.591 165.366 166.08 166.719 
167.256 161.494 161.015 162.148 162.867 163.543 164.286 165.12 165.841 
166.451 167.057 167.598 163.469 163.212 162.889 162.598 162.384 162.901 
162.129 161.925 162.293 162.547 161.681 161.419 161.817 161.937 162.164 
161.114 160.81 161.338 161.397 161.514 161.756 160.484 160.167 160.786 
160.905 160.899 161.097 161.45 159.984 159.661 160.225 160.374 160.376 
160.467 160.838 161.266 159.669 159.316 159.781 159.771 159.795 159.954 
160.29 160.705 161.047 159.38 159.026 159.441 159.249 159.138 159.402 
159.89 160.29 160.562 160.785 158.91 159.052 158.527 158.505 158.107 
158.893 158.125 157.993 158.318 158.606 158.07 158.085 158.079 158.235 
158.746 158.122 158.141 158.155 158.28 158.776 159.43 158.27 158.31 
158.436 158.547 158.888 159.527 160.013 158.612 158.733 158.871 158.977 
158.899 159.225 159.822 160.24 159.05 159.256 159.269 159.44 159.083 
158.847 159.318 159.978 160.416 159.506 159.723 159.596 159.784 159.501 
158.961 159.049 159.735 160.317 160.665 161.091 160.794 161.352 160.458 
161.062 161.812 159.868 160.746 161.474 162.428 159.396 160.371 161.259 
162.13 163.1 159.601 160.248 161.189 162.057 162.916 163.685 160.052 
160.448 161.156 161.994 162.809 163.541 164.202 160.112 160.61 161.119 
161.739 162.515 163.313 164.046 164.75 160.001 160.621 161.173 161.609 
162.186 162.97 163.798 164.58 165.269 160.052 160.601 161.234 161.721 
162.156 162.776 163.545 164.337 165.062 165.643 161.686 162.129 162.498 
162.767 163.04 163.271 163.396 163.619 163.76 163.986 163.908 164.105 
164.265 164.538 164.874 164.418 164.641 164.862 165.165 165.508 165.724 
165.018 165.313 165.609 165.889 166.14 166.288 166.356 165.579 165.931 
166.301 166.586 166.769 166.891 166.955 166.998 165.966 166.338 166.773 
167.131 167.322 167.464 167.617 167.691 167.665 166.112 166.496 166.627 
167.153 167.299 167.006 167.926 167.966 167.832 167.547 168.488 168.489 
168.597 168.391 167.863 168.956 169.124 169.088 169.074 168.582 167.99 
169.687 169.829 169.722 169.722 169.248 168.645 168.175 170.333 170.227 
170.477 170.567 170.105 169.327 168.812 168.35 170.634 170.393 170.827 
171.049 170.912 170.188 169.418 168.891 168.328 170.875 170.599 170.94 
170.972 171.03 170.774 170.089 169.34 168.722 168.147 165.586 166.062 
165.417 165.929 165.125 166.635 165.703 164.821 166.569 167.331 165.522 
164.71 166.397 167.234 167.976 165.504 164.821 166.279 167.014 167.843 
168.621 165.503 164.959 166.205 166.868 167.573 168.521 169.347 165.436 
165.023 165.99 166.706 167.391 168.181 169.113 169.813 165.445 165.042 
165.817 166.444 167.251 167.97 168.658 169.35 169.924 165.52 165.005 
165.881 166.327 167.068 167.857 168.422 168.886 169.414 170.014 160.123 
160.447 160.345 160.7 160.571 161.022 161.049 161.196 161.31 161.672 
161.812 162.107 161.72 162.011 162.226 162.708 162.803 162.459 162.436 
162.695 162.806 163.359 163.264 163.251 163.033 163.099 163.359 163.488 
163.904 163.789 163.905 163.685 163.525 163.701 164.014 164.224 164.498 
164.414 164.505 164.346 164.107 164.082 164.363 164.719 164.958 159.819 
160.142 159.891 160.083 159.842 160.274 160.056 159.904 160.293 160.65 
160.314 160.12 160.537 160.919 161.481 160.598 160.131 160.94 161.285 
161.764 162.3 160.551 159.949 161.116 161.536 161.972 162.424 162.816 
160.429 159.931 161.062 161.565 162.032 162.55 162.929 163.279 160.523 
160.138 161.102 161.593 161.999 162.553 163.071 163.42 163.859 160.77 