# vtk DataFile Version 4.0
vtk output
ASCII
DATASET POLYDATA
POINTS 1002 float
-117.41 -103.358 52.6671 -117.65 -103.029 52.2493 -117.054 -103.094 52.3021 
-116.681 -103.391 52.7832 -116.264 -103.138 52.398 -117.065 -103.444 53.3784 
-115.856 -103.479 52.8644 -115.416 -103.164 52.5032 -116.359 -103.487 53.5972 
-116.694 -103.465 54.4119 -115.117 -103.497 53.004 -114.755 -103.082 52.7568 
-115.671 -103.61 53.7489 -116.107 -103.623 54.6583 -116.387 -103.893 55.1753 
-114.514 -103.309 53.3961 -114.175 -102.907 53.1967 -114.997 -103.597 53.9789 
-115.514 -103.732 54.8558 -115.832 -104.158 55.2566 -116.197 -104.657 55.341 
-113.841 -103.136 53.83 -113.415 -102.826 53.5419 -114.267 -103.462 54.3162 
-114.819 -103.651 55.1018 -115.206 -104.13 55.4982 -115.499 -104.855 55.4471 
-115.975 -105.137 55.7093 -113.048 -103.155 54.066 -112.612 -102.833 53.7835 
-113.497 -103.452 54.5277 -114.099 -103.573 55.2949 -114.589 -103.908 55.8484 
-114.786 -104.664 55.9525 -115.076 -105.186 56.1854 -115.583 -105.128 56.7717 
-112.292 -103.187 54.3513 -111.993 -102.782 54.1711 -112.735 -103.499 54.7075 
-113.412 -103.563 55.4216 -114.05 -103.733 56.1137 -114.276 -104.326 56.4727 
-114.368 -104.925 56.8309 -114.724 -105.083 57.3725 -115.236 -104.975 57.8632 
-111.626 -103.149 54.7681 -111.479 -102.692 54.623 -111.968 -103.479 55.0286 
-112.649 -103.505 55.6365 -113.425 -103.562 56.357 -113.84 -104.005 56.841 
-113.961 -104.534 57.263 -114.218 -104.787 57.7959 -114.66 -104.862 58.2479 
-115.105 -104.939 58.5536 -111.008 -103.113 55.0785 -110.93 -102.646 54.9087 
-111.233 -103.468 55.3208 -111.817 -103.485 55.8523 -112.652 -103.409 56.5778 
-113.287 -103.679 57.1589 -113.595 -104.144 57.5961 -113.9 -104.41 58.0772 
-114.322 -104.55 58.5118 -114.713 -104.761 58.814 -115.033 -104.989 59.1154 
-117.491 -102.707 51.8264 -116.929 -102.739 51.911 -117.307 -102.462 51.3145 
-116.758 -102.376 51.4863 -117.04 -102.064 51.0242 -116.12 -102.704 52.0865 
-116.388 -101.924 51.217 -116.681 -101.229 51.0633 -115.906 -102.304 51.6816 
-115.238 -102.717 52.2393 -115.858 -101.295 51.1088 -116.33 -100.354 50.9339 
-115.397 -101.992 51.2777 -114.911 -102.452 51.7435 -114.477 -102.751 52.4729 
-115.441 -100.665 50.8972 -116.019 -99.9435 50.442 -114.818 -101.545 51.0956 
-114.338 -102.234 51.2807 -113.938 -102.644 51.8817 -113.648 -102.746 52.8 
-115.209 -100.108 50.6562 -115.696 -99.6757 50.0909 -114.553 -100.855 51.0996 
-113.958 -101.66 51.2923 -113.396 -102.332 51.5139 -112.929 -102.692 52.1755 
-112.727 -102.723 53.0851 -115.059 -99.5177 50.6455 -115.427 -99.1611 50.1074 
-114.507 -100.097 51.157 -113.887 -100.865 51.5088 -113.194 -101.64 51.6501 
-112.481 -102.315 51.8778 -112.099 -102.615 52.5572 -112.058 -102.623 53.4648 
-114.975 -98.9688 50.816 -115.29 -98.5741 50.2909 -114.472 -99.4724 51.254 
-113.814 -100.197 51.5658 -113.051 -100.964 51.7752 -112.277 -101.688 51.9137 
-111.776 -102.245 52.2831 -111.664 -102.415 53.0958 -111.649 -102.445 54.0035 
-114.911 -98.561 51.0183 -115.21 -98.1331 50.5192 -114.401 -99.0194 51.3899 
-113.671 -99.6694 51.5667 -112.81 -100.417 51.7054 -112.022 -101.077 51.9053 
-111.543 -101.661 52.2193 -111.394 -102.055 52.8376 -111.345 -102.181 53.7114 
-111.192 -102.312 54.4675 -114.867 -98.0813 51.0734 -114.37 -98.5143 51.4593 
-114.155 -97.9768 51.4712 -113.413 -98.3913 51.6419 -113.108 -97.7462 51.5753 
-113.614 -99.041 51.6203 -112.365 -98.2434 51.7024 -112.217 -97.5802 51.7088 
-112.58 -98.9889 51.7258 -112.687 -99.7541 51.6701 -111.824 -98.3269 52.14 
-111.879 -97.7077 52.3619 -111.865 -98.9957 52.0725 -111.838 -99.701 51.9579 
-111.828 -100.434 51.8683 -111.688 -98.5688 53.0528 -111.779 -98.0265 53.3691 
-111.617 -99.1475 52.8604 -111.513 -99.6672 52.6746 -111.334 -100.274 52.4336 
-111.321 -100.993 52.2681 -111.346 -98.6794 53.8907 -111.477 -98.3027 54.212 
-111.188 -99.1415 53.662 -111.128 -99.6399 53.5093 -111.091 -100.184 53.3129 
-111.025 -100.842 53.0521 -111.138 -101.524 52.8647 -110.804 -98.7357 54.4825 
-111.071 -98.5194 54.8693 -110.447 -98.9759 54.1596 -110.253 -99.4242 53.997 
-110.369 -100.117 53.9478 -110.51 -100.85 53.8561 -110.661 -101.454 53.7032 
-110.984 -101.887 53.6427 -110.442 -98.923 55.1238 -110.807 -98.7535 55.5199 
-109.929 -99.0187 54.6908 -109.493 -99.2545 54.3597 -109.471 -99.9066 54.2226 
-109.68 -100.806 54.2299 -109.865 -101.507 54.2457 -110.212 -101.88 54.2698 
-110.733 -102.094 54.3679 -110.323 -99.1822 55.8037 -110.715 -99.0006 56.0968 
-109.776 -99.2909 55.4188 -109.216 -99.3849 55.0104 -108.99 -99.7641 54.671 
-109.087 -100.57 54.493 -109.195 -101.426 54.4819 -109.395 -101.942 54.5586 
-109.878 -102.183 54.69 -110.461 -102.388 54.8372 -110.375 -102.927 55.1567 
-109.85 -102.629 55.0756 -109.885 -103.17 55.4905 -109.288 -102.355 54.98 
-109.404 -102.835 55.5433 -109.56 -103.267 56.2036 -108.93 -101.978 54.9283 
-108.945 -102.504 55.6487 -109.162 -102.937 56.4488 -109.436 -103.251 57.1959 
-108.848 -101.256 54.9849 -108.68 -101.986 55.8103 -108.787 -102.592 56.7161 
-109.155 -102.916 57.4564 -109.599 -103.158 58.0999 -108.802 -100.369 55.2171 
-108.638 -101.13 56.0642 -108.579 -101.963 56.992 -108.868 -102.51 57.7107 
-109.396 -102.761 58.3109 -109.958 -102.99 58.887 -108.857 -99.8291 55.5654 
-108.682 -100.362 56.3404 -108.643 -101.069 57.2117 -108.773 -101.82 57.9424 
-109.113 -102.331 58.5814 -109.649 -102.632 59.2025 -110.297 -102.843 59.6658 
-109.291 -99.6655 55.9006 -108.927 -100.026 56.5145 -108.849 -100.421 57.276 
-108.977 -100.998 58.0538 -109.078 -101.708 58.7981 -109.312 -102.301 59.5411 
-109.879 -102.63 60.0723 -110.609 -102.783 60.3551 -109.932 -99.5413 56.1885 
-109.487 -99.8651 56.6266 -109.186 -100.124 57.2701 -109.199 -100.423 58.1103 
-109.28 -100.963 58.9439 -109.318 -101.712 59.7218 -109.634 -102.316 60.3549 
-110.27 -102.605 60.7154 -110.931 -102.757 60.9782 -110.466 -99.3524 56.4251 
-110.132 -99.6654 56.7631 -109.714 -99.914 57.3258 -109.429 -100.105 58.2156 
-109.393 -100.38 59.1361 -109.48 -100.937 59.848 -109.715 -101.649 60.4212 
-110.181 -102.179 60.8792 -110.723 -102.482 61.2494 -111.172 -102.724 61.6546 
-110.502 -103.389 55.408 -110.113 -103.535 55.9372 -110.893 -103.571 55.8704 
-109.893 -103.544 56.8384 -110.707 -103.591 56.6188 -111.705 -103.435 56.6113 
-109.895 -103.503 57.8698 -110.664 -103.588 57.5916 -111.713 -103.441 57.4408 
-112.602 -103.433 57.3685 -110.192 -103.385 58.7352 -110.772 -103.552 58.5581 
-111.778 -103.449 58.3504 -112.634 -103.474 58.2 -113.172 -103.772 57.9596 
-110.658 -103.162 59.4774 -111.084 -103.428 59.381 -111.833 -103.478 59.2271 
-112.616 -103.566 59.0612 -113.149 -103.825 58.8626 -113.568 -104.109 58.487 
-111.079 -102.976 60.1768 -111.508 -103.256 60.1599 -111.971 -103.539 60.0979 
-112.458 -103.868 59.8745 -112.926 -104.169 59.6732 -113.48 -104.257 59.3898 
-114.009 -104.317 58.9294 -111.369 -102.936 60.879 -111.823 -103.189 60.9581 
-112.179 -103.581 61.0585 -112.39 -104.15 60.815 -112.6 -104.674 60.3976 
-113.088 -104.765 60.1101 -113.811 -104.579 59.7443 -114.396 -104.575 59.238 
-111.516 -102.984 61.6584 -111.938 -103.262 61.7658 -112.289 -103.646 61.9808 
-112.441 -104.226 61.9124 -112.512 -104.868 61.3726 -112.809 -105.136 60.8298 
-113.434 -104.956 60.4991 -114.145 -104.796 60.0868 -114.681 -104.874 59.562 
-111.461 -102.897 62.4932 -111.838 -103.25 62.5725 -111.75 -103.049 63.3631 
-112.219 -103.465 63.3434 -112.261 -103.015 63.9004 -112.25 -103.648 62.7119 
-112.857 -103.552 63.7188 -113.039 -102.943 64.1557 -112.604 -104.014 63.3955 
-112.482 -104.171 62.8748 -113.776 -103.663 63.9836 -113.981 -103.111 64.4407 
-113.231 -104.281 63.8142 -112.751 -104.634 63.5573 -112.58 -104.785 62.6137 
-114.82 -103.744 64.3552 -114.917 -103.334 64.8309 -114.23 -104.348 64.1757 
-113.443 -104.867 64.1086 -113.055 -105.063 63.2869 -112.878 -105.157 61.9139 
-115.703 -103.6 64.8441 -115.625 -103.312 65.3746 -115.398 -104.083 64.4512 
-114.609 -104.728 64.4139 -114.02 -105.087 63.8706 -113.724 -105.089 62.5927 
-113.451 -105.074 61.3513 -116.305 -103.445 65.559 -116.161 -103.153 65.9849 
-116.352 -103.848 64.8984 -115.881 -104.421 64.5726 -115.204 -104.949 64.165 
-114.749 -105.049 63.1822 -114.351 -104.942 62.005 -114.087 -104.914 60.9626 
-116.819 -103.48 66.1964 -116.752 -103.044 66.2516 -116.963 -104.013 65.6273 
-116.819 -104.458 65.0465 -116.251 -104.834 64.4614 -115.643 -105.04 63.5487 
-115.172 -104.997 62.513 -114.802 -104.967 61.4996 -114.656 -104.985 60.4502 
-117.341 -103.556 66.2664 -117.368 -102.993 65.9821 -117.362 -104.291 66.0592 
-117.319 -104.78 65.5922 -116.972 -104.92 64.9217 -116.386 -104.978 63.882 
-115.868 -105.007 62.7795 -115.506 -105.011 61.8725 -115.264 -105.083 60.898 
-115.134 -105.103 59.8746 -111.132 -102.454 62.053 -111.365 -102.61 62.9429 
-111.137 -102.032 62.329 -111.414 -102.187 63.1147 -111.199 -101.5 62.5497 
-111.715 -102.676 63.7218 -111.656 -101.598 63.1392 -111.362 -100.888 62.8234 
-111.967 -102.235 63.6718 -112.339 -102.535 64.1696 -111.966 -100.877 63.2632 
-111.642 -100.32 62.9379 -112.455 -101.689 63.4917 -112.733 -102.157 64.0408 
-113.155 -102.483 64.4595 -112.297 -100.296 63.2792 -112.066 -99.9635 62.6846 
-112.858 -101.058 63.5322 -113.324 -101.774 63.8018 -113.594 -102.178 64.3164 
-114.129 -102.741 64.7195 -112.817 -100.003 62.9879 -112.629 -99.7487 62.3145 
-113.221 -100.55 63.521 -113.762 -101.27 63.7749 -114.226 -101.78 64.0089 
-114.624 -102.34 64.4728 -115.088 -102.993 65.0286 -113.457 -99.8035 62.6069 
-113.201 -99.538 62.0166 -113.78 -100.211 63.1993 -114.158 -100.77 63.6703 
-114.669 -101.22 63.9404 -115.203 -101.726 64.1971 -115.546 -102.484 64.7427 
-115.787 -102.999 65.4839 -113.982 -99.6029 62.2204 -113.702 -99.372 61.653 
-114.335 -99.929 62.737 -114.65 -100.382 63.2544 -115.02 -100.734 63.8031 
-115.529 -101.052 64.2339 -115.951 -101.77 64.5408 -116.156 -102.558 65.0562 
-116.374 -102.879 65.7683 -114.412 -99.4594 61.746 -114.166 -99.2668 61.1861 
-114.736 -99.6903 62.2625 -115.06 -100.063 62.7402 -115.398 -100.412 63.3502 
[...]
CELL_DATA 2000
SCALARS Distance double
LOOKUP_TABLE default
163.817 163.373 163.719 163.91 162.855 163.231 163.455 163.788 163.983 
162.372 162.726 163.014 163.368 163.652 163.935 164.2 161.963 162.287 
162.585 162.958 163.303 163.643 163.963 164.236 164.55 161.535 161.878 
162.139 162.523 162.854 163.262 163.592 163.952 164.251 164.575 164.865 
161.065 161.421 161.681 162.057 162.373 162.786 163.127 163.525 163.826 
164.192 164.462 164.811 165.037 160.659 160.971 161.244 161.599 161.921 
162.319 162.686 163.08 163.413 163.762 164.037 164.372 164.608 164.925 
165.109 160.346 160.609 160.848 161.171 161.466 161.862 162.222 162.648 
163.003 163.374 163.654 163.969 164.206 164.511 164.729 165.011 165.206 
160.041 160.292 160.48 160.773 161.012 161.381 161.701 162.146 162.505 
162.935 163.241 163.589 163.832 164.134 164.367 164.657 164.885 165.152 
165.366 163.611 163.168 163.344 163.203 162.682 162.889 162.739 162.877 
162.672 162.04 162.341 162.19 162.381 162.172 162.324 162.154 161.237 
161.606 161.482 161.765 161.581 161.797 161.638 161.843 161.737 160.494 
160.806 160.711 161.017 160.872 161.153 161.01 161.279 161.158 161.411 
161.295 159.918 160.146 160.055 160.308 160.206 160.464 160.339 160.604 
160.466 160.751 160.615 160.906 160.791 159.42 159.621 159.537 159.742 
159.676 159.887 159.79 159.984 159.838 160.055 159.925 160.2 160.124 
160.424 160.387 159.001 159.177 159.134 159.292 159.235 159.413 159.316 
159.482 159.32 159.483 159.348 159.573 159.537 159.813 159.832 160.106 
160.116 158.703 158.849 158.845 158.953 158.867 158.991 158.842 158.989 
158.789 158.954 158.797 159.028 159.001 159.285 159.329 159.6 159.623 
159.865 159.844 158.583 158.307 158.56 158.675 157.637 158.084 158.191 
158.529 158.613 156.846 157.291 157.439 157.892 158.006 158.389 158.495 
156.57 156.723 156.974 157.245 157.452 157.761 157.901 158.253 158.4 
156.862 156.798 157.091 157.113 157.378 157.447 157.63 157.776 157.961 
158.234 158.465 157.136 157.109 157.235 157.281 157.424 157.5 157.644 
157.706 157.881 157.99 158.256 158.458 158.763 157.195 157.181 157.074 
157.155 157.067 157.291 157.337 157.615 157.765 157.969 158.182 158.359 
158.637 158.838 159.12 157.312 157.187 157.005 156.906 156.695 156.776 
156.752 157.089 157.275 157.673 157.884 158.189 158.385 158.656 158.884 
159.146 159.377 157.578 157.385 157.245 156.99 156.789 156.593 156.53 
156.608 156.808 157.137 157.425 157.775 157.989 158.295 158.492 158.81 
159.04 159.345 159.569 159.591 159.032 159.358 159.469 158.463 158.773 
158.902 159.272 159.473 157.953 158.23 158.373 158.735 159.002 159.37 
159.659 157.416 157.73 157.886 158.251 158.559 158.947 159.295 159.64 
159.983 156.866 157.186 157.385 157.77 158.095 158.518 158.898 159.287 
159.652 160.002 160.372 156.645 156.781 157.032 157.316 157.664 158.058 
158.459 158.877 159.267 159.653 160.036 160.405 160.791 156.919 156.837 
157.082 157.141 157.468 157.706 158.114 158.473 158.899 159.276 159.695 
160.07 160.489 160.842 161.233 157.381 157.255 157.451 157.36 157.596 
157.644 157.982 158.213 158.628 158.955 159.387 159.75 160.197 160.561 
160.987 161.307 161.684 157.73 157.672 157.842 157.747 157.911 157.85 
158.078 158.162 158.49 158.725 159.11 159.446 159.872 160.26 160.698 
161.061 161.454 161.758 162.105 159.898 159.818 160.016 160.347 159.829 
159.978 160.338 160.509 160.881 160.001 160.068 160.447 160.568 160.988 
161.131 161.581 160.325 160.324 160.721 160.777 161.24 161.331 161.819 
161.927 162.406 160.736 160.709 161.113 161.127 161.601 161.659 162.157 
162.226 162.692 162.763 163.168 161.166 161.144 161.552 161.549 162.001 
162.039 162.523 162.583 163.037 163.077 163.459 163.479 163.795 161.591 
161.575 161.997 161.997 162.45 162.457 162.923 162.951 163.4 163.427 
163.809 163.802 164.111 164.084 164.353 162.023 162.004 162.439 162.45 
162.936 162.937 163.406 163.385 163.804 163.791 164.152 164.143 164.441 
164.415 164.674 164.639 164.88 162.441 162.433 162.866 162.892 163.387 
163.42 163.897 163.881 164.267 164.21 164.516 164.47 164.732 164.711 
164.956 164.945 165.184 165.156 165.374 162.781 163.441 163.158 163.251 
164.056 163.839 163.995 163.689 163.8 164.639 164.457 164.678 164.432 
164.58 164.253 164.317 165.385 165.128 165.405 165.138 165.319 165.007 
165.064 164.701 164.667 166.283 165.981 166.26 165.941 166.132 165.778 
165.835 165.433 165.365 164.962 164.867 167.055 166.829 167.044 166.777 
166.94 166.614 166.682 166.256 166.175 165.685 165.536 165.121 165.031 
167.651 167.49 167.705 167.486 167.661 167.382 167.48 167.106 167.048 
166.543 166.354 165.837 165.682 165.291 165.237 168.177 168.066 168.379 
168.18 168.439 168.14 168.263 167.883 167.827 167.367 167.163 166.655 
166.442 165.986 165.874 165.517 165.475 168.567 168.567 168.936 168.859 
169.162 168.941 169.039 168.661 168.521 168.068 167.805 167.36 167.114 
166.704 166.545 166.172 166.079 165.741 165.669 162.633 162.541 162.816 
163.247 162.366 162.685 163.128 163.416 163.826 162.179 162.497 162.968 
163.28 163.698 163.957 164.368 162.024 162.317 162.817 163.15 163.627 
163.863 164.286 164.533 165.061 161.936 162.175 162.681 163.031 163.595 
163.858 164.325 164.517 165.044 165.34 165.965 161.987 162.147 162.64 
162.935 163.534 163.844 164.367 164.585 165.085 165.352 165.953 166.27 
166.814 162.135 162.265 162.738 162.953 163.506 163.792 164.316 164.581 
165.06 165.346 165.888 166.228 166.76 167.029 167.432 162.255 162.407 
162.84 163.042 163.518 163.767 164.238 164.5 164.947 165.241 165.726 
166.086 166.586 166.92 167.324 167.566 167.897 162.331 162.486 162.868 
163.071 163.48 163.726 164.149 164.411 164.826 165.099 165.523 165.855 
166.297 166.667 167.055 167.378 167.685 167.961 168.241 157.927 158.282 
158.103 158.076 158.663 158.486 158.47 158.238 158.168 159.004 158.87 
158.882 158.657 158.595 158.337 158.308 159.327 159.199 159.246 159.062 
159.019 158.776 158.745 158.534 158.633 159.786 159.573 159.643 159.444 
159.463 159.221 159.222 158.988 159.09 158.944 159.187 160.38 160.108 
160.188 159.936 160.045 159.771 159.879 159.572 159.718 159.469 159.733 
159.596 159.945 160.951 160.702 160.775 160.533 160.674 160.438 160.622 
160.337 160.523 160.21 160.45 160.221 160.562 160.424 160.788 161.469 
161.246 161.324 161.102 161.212 161.026 161.181 161.013 161.179 160.974 
161.153 160.942 161.202 161.051 161.381 161.255 161.558 161.992 161.777 
161.884 161.654 161.753 161.533 161.637 161.471 161.61 161.486 161.661 
161.534 161.759 161.638 161.927 161.82 162.115 161.979 162.222 157.87 
157.86 157.979 158.215 157.815 157.954 158.191 158.333 158.576 157.725 
157.87 158.084 158.266 158.495 158.663 158.884 157.775 157.803 158.008 
158.144 158.384 158.552 158.794 158.957 159.206 158.196 158.036 158.265 
158.209 158.502 158.541 158.858 158.943 159.28 159.38 159.713 158.792 
158.609 158.844 158.66 158.953 158.851 159.212 159.18 159.578 159.592 
159.992 160.014 160.358 159.25 159.166 159.377 159.237 159.448 159.347 
159.647 159.613 159.973 159.969 160.336 160.344 160.674 160.667 160.938 
159.624 159.571 159.795 159.685 159.857 159.76 159.993 159.98 160.278 
160.304 160.591 160.627 160.896 160.934 161.185 161.196 161.432 160.03 
159.967 160.235 160.117 160.326 160.176 160.406 160.32 160.6 160.57 
160.815 160.81 161.027 161.076 161.323 161.392 161.652 161.681 161.933 
160.355 160.903 160.625 160.568 161.399 161.141 161.101 160.806 160.681 
161.95 161.615 161.572 161.316 161.256 160.916 160.79 162.704 162.233 
162.131 161.805 161.802 161.509 161.447 161.068 160.963 163.521 163.045 
162.9 162.457 162.406 162.078 162.035 161.697 161.556 161.201 161.083 
164.185 163.814 163.691 163.254 163.134 162.73 162.626 162.259 162.1 
161.734 161.571 161.274 161.223 164.734 164.426 164.344 163.981 163.86 
163.45 163.306 162.886 162.736 162.317 162.198 161.818 161.789 161.491 
161.541 165.229 164.96 164.895 164.586 164.486 164.123 163.983 163.576 
163.445 163.025 162.959 162.551 162.559 162.178 162.224 161.886 161.927 
165.637 165.417 165.341 165.087 164.974 164.682 164.543 164.207 164.081 
163.726 163.663 163.316 163.312 162.964 162.971 162.613 162.603 162.255 
162.232 165.823 165.942 165.761 165.499 165.981 165.81 165.514 165.382 
165.112 166.094 165.865 165.564 165.382 165.124 164.984 164.708 166.378 
166.098 165.855 165.549 165.306 165.063 164.821 164.606 164.314 166.733 
166.467 166.287 165.955 165.725 165.381 165.133 164.816 164.541 164.254 
163.957 167.104 166.833 166.646 166.365 166.132 165.823 165.551 165.205 
164.886 164.54 164.221 163.926 163.628 167.535 167.218 166.986 166.684 
166.42 166.148 165.865 165.577 165.231 164.887 164.5 164.18 163.839 
163.582 163.274 167.958 167.64 167.377 167.04 166.733 166.415 166.096 
165.818 165.471 165.172 164.765 164.437 164.039 163.76 163.425 163.195 
162.882 168.257 167.991 167.699 167.403 167.066 166.733 166.353 166.033 
165.645 165.36 164.965 164.669 164.268 163.966 163.601 163.338 163.015 
162.789 162.486 166.033 166.464 166.252 166.223 166.929 166.715 166.709 
166.428 166.318 167.255 167.111 167.07 166.882 166.773 166.489 166.381 
167.346 167.293 167.216 167.137 167.044 166.868 166.756 166.554 166.547 
167.4 167.36 167.391 167.301 167.321 167.142 167.1 166.89 166.894 
166.754 166.852 167.594 167.545 167.735 167.622 167.774 167.563 167.619 
167.335 167.371 167.141 167.262 167.113 167.265 167.813 167.823 168.013 
167.975 168.073 167.985 168.003 167.849 167.851 167.658 167.744 167.579 
167.753 167.588 167.744 167.888 167.979 168.081 168.107 168.049 168.053 
167.937 167.975 167.914 167.945 167.988 167.98 168.138 168.076 168.263 
168.096 168.205 167.799 167.942 168.006 168.054 167.952 167.921 167.784 
167.795 167.774 167.856 167.959 168.06 168.264 168.349 168.6 168.575 
168.74 168.536 168.555 165.968 165.988 166.089 166.365 166.095 166.143 
166.416 166.537 166.85 166.18 166.266 166.561 166.663 167.027 167.092 
167.315 166.036 166.258 166.595 166.812 167.247 167.361 167.623 167.512 
167.506 165.694 166.008 166.355 166.719 167.179 167.49 167.775 167.795 
167.725 167.547 167.429 165.266 165.628 165.967 166.38 166.777 167.21 
167.449 167.703 167.611 167.613 167.405 167.399 167.419 164.733 165.149 
165.473 165.929 166.254 166.688 166.841 167.168 167.097 167.286 167.136 
167.253 167.238 167.411 167.577 164.199 164.582 164.872 165.348 165.653 
166.104 166.251 166.554 166.539 166.755 166.751 166.943 167.014 167.192 
167.323 167.535 167.68 163.831 164.11 164.368 164.747 165.049 165.479 
165.702 166.023 166.114 166.326 166.434 166.642 166.812 166.991 167.118 
167.271 167.354 167.551 167.615 163.772 163.888 163.973 164.29 163.987 
164.103 164.424 164.525 164.905 164.063 164.192 164.536 164.651 164.997 
165.148 165.515 164.252 164.312 164.656 164.752 165.095 165.225 165.561 
165.699 165.977 164.48 164.551 164.868 164.913 165.229 165.315 165.647 
165.763 166.074 166.149 166.393 164.457 164.688 165.028 165.137 165.419 
165.466 165.736 165.832 166.137 166.263 166.547 166.602 166.813 164.235 
164.548 164.965 165.214 165.549 165.644 165.872 165.917 166.147 166.271 
166.525 166.675 166.869 166.951 167.077 164.098 164.352 164.799 165.098 
165.504 165.705 165.966 166.038 166.221 166.285 166.481 166.597 166.768 
166.89 167.011 167.116 167.239 164.055 164.262 164.642 164.925 165.298 
165.577 165.847 166.034 166.205 166.321 166.475 166.57 166.719 166.8 
166.927 167.016 167.16 167.278 167.458 164.112 164.233 164.338 164.661 
164.27 164.398 164.736 164.895 165.248 164.433 164.455 164.74 164.894 
165.246 165.443 165.761 164.799 164.719 164.945 164.945 165.233 165.381 
165.714 165.898 166.154 165.174 165.133 165.379 165.272 165.496 165.457 
165.74 165.849 166.16 166.282 166.487 165.359 165.442 165.755 165.734 
165.996 165.866 166.096 166.008 166.286 166.33 166.594 166.63 166.766 
165.401 165.539 165.878 166.012 166.364 166.37 166.619 166.474 166.644 
166.543 166.745 166.753 166.923 166.901 166.981 165.48 165.577 165.907 
166.07 166.46 166.62 166.916 166.909 166.988 166.867 166.898 166.877 
167.005 167.044 167.176 167.136 167.226 165.645 165.704 166.03 166.135 
166.511 166.673 166.997 167.08 167.17 167.085 167.011 166.944 166.978 
167.059 167.23 167.308 167.468 167.427 167.539 167.749 167.63 167.798 
167.912 167.337 167.577 167.686 167.853 167.846 167.069 167.257 167.474 
167.663 167.781 167.796 167.765 167.103 167.127 167.459 167.617 168.012 
167.987 168.118 167.881 167.879 167.276 167.283 167.585 167.736 168.253 
168.371 168.695 168.467 168.465 168.113 168.111 167.158 167.347 167.549 
167.778 168.141 168.464 168.814 168.927 168.997 168.762 168.704 168.405 
168.456 166.732 167.055 167.228 167.533 167.724 168.103 168.355 168.743 
168.954 169.095 169.184 169.028 169.086 168.813 168.872 166.259 166.585 
166.77 167.091 167.243 167.571 167.762 168.166 168.465 168.864 169.166 
169.346 169.503 169.4 169.397 169.142 169.034 165.842 166.131 166.296 
166.609 166.766 167.08 167.268 167.623 167.913 168.351 168.696 169.112 
169.315 169.527 169.471 169.444 169.211 169.056 168.781 158.581 158.95 
158.677 158.545 159.469 159.175 159.139 158.782 158.785 159.999 159.751 
159.814 159.498 159.577 159.221 159.391 160.539 160.271 160.338 160.129 
160.281 160.046 160.234 159.935 160.14 161.284 160.898 160.94 160.647 
160.802 160.645 160.878 160.703 160.872 160.608 160.741 162.132 161.747 
161.842 161.421 161.585 161.258 161.503 161.282 161.494 161.259 161.387 
161.133 161.304 162.788 162.539 162.689 162.378 162.6 162.228 162.47 
162.073 162.286 161.929 162.123 161.815 162.034 161.777 162.065 163.267 
163.093 163.244 163.088 163.348 163.171 163.444 163.115 163.282 162.851 
163.006 162.635 162.87 162.577 162.853 162.598 162.867 163.733 163.564 
163.722 163.576 163.834 163.761 164.071 163.93 164.109 163.79 163.862 
163.509 163.651 163.382 163.59 163.353 163.534 163.303 163.456 158.383 
158.284 158.217 158.047 158.497 158.233 158.088 157.968 157.844 159.113 
158.656 158.547 158.242 158.21 157.932 157.824 159.879 159.396 159.28 
158.888 158.887 158.513 158.454 158.042 157.937 160.53 160.136 160.009 
159.636 159.573 159.216 159.134 158.746 158.653 158.256 158.232 161.157 
160.775 160.709 160.338 160.258 159.867 159.742 159.367 159.293 158.967 
158.986 158.647 158.702 161.927 161.492 161.47 161.069 161.034 160.595 
160.491 160.03 159.973 159.611 159.684 159.385 159.469 159.125 159.163 
162.711 162.303 162.246 161.847 161.792 161.38 161.299 160.85 160.807 
160.391 160.455 160.11 160.197 159.856 159.879 159.53 159.556 163.315 
163.006 162.927 162.574 162.474 162.091 161.985 161.605 161.563 161.214 
161.253 160.91 160.95 160.582 160.574 160.212 160.213 159.906 159.978 
158.401 158.055 158.243 158.172 157.738 157.869 157.765 157.88 157.568 
157.556 157.558 157.404 157.48 157.19 157.163 156.787 157.589 157.427 
157.246 157.221 157.028 156.92 156.62 156.514 156.42 157.889 157.565 
157.374 157.217 157.136 156.972 156.816 156.572 156.5 156.453 156.667 
158.368 157.971 157.755 157.481 157.427 157.239 157.201 156.943 156.89 
156.691 156.811 156.834 157.056 158.853 158.482 158.267 157.938 157.843 
157.606 157.571 157.354 157.309 157.103 157.125 157.032 157.157 157.158 
157.253 159.31 158.974 158.819 158.483 158.39 158.08 157.99 157.719 
157.627 157.434 157.407 157.304 157.363 157.308 157.398 157.342 157.409 
159.789 159.47 159.369 159.052 158.987 158.661 158.549 158.189 158.019 
157.728 157.644 157.516 157.569 157.519 157.62 157.553 157.654 157.567 
157.663 165.722 165.331 165.604 165.75 164.847 165.176 165.369 165.67 
165.861 164.29 164.644 164.81 165.206 165.426 165.78 165.928 163.651 
164.048 164.132 164.54 164.688 165.178 165.345 165.741 165.77 162.868 
163.339 163.418 163.815 163.846 164.311 164.431 164.974 165.064 165.463 
165.416 162.063 162.51 162.626 163.063 163.084 163.471 163.486 163.98 
164.074 164.614 164.641 165.043 164.96 161.414 161.743 161.818 162.252 
162.33 162.725 162.711 163.085 163.079 163.573 163.62 164.147 164.123 
164.534 164.425 160.871 161.124 161.12 161.484 161.567 161.978 162.018 
162.356 162.303 162.652 162.639 163.112 163.153 163.637 163.62 163.997 
163.922 160.324 160.562 160.523 160.827 160.878 161.254 161.317 161.67 
161.647 161.942 161.898 162.246 162.291 162.724 162.801 163.213 163.239 
163.571 163.568 
POINT_DATA 1002
SCALARS Distance double
LOOKUP_TABLE default
164.051 163.884 163.516 163.591 163.013 164.088 163.089 162.464 163.687 
164.176 162.625 162.028 163.329 163.943 164.481 162.21 161.652 162.922 
163.661 164.286 164.884 161.772 161.182 162.437 163.205 163.911 164.557 
165.156 161.309 160.706 161.964 162.718 163.459 164.11 164.721 165.236 
160.899 160.373 161.525 162.277 163.064 163.719 164.285 164.819 165.275 
160.555 160.112 161.09 161.784 162.605 163.34 163.905 164.429 164.94 
165.404 160.211 159.801 160.676 161.271 162.05 162.862 163.522 164.069 
164.602 165.112 165.584 163.435 163.081 162.99 162.598 162.459 162.539 
161.966 161.694 162.007 161.971 161.16 160.858 161.322 161.415 161.531 
160.402 160.225 160.572 160.725 160.894 161.051 159.813 159.717 159.952 
160.097 160.197 160.311 160.486 159.335 159.21 159.463 159.615 159.659 
159.661 159.806 160.081 158.989 158.806 159.08 159.163 159.172 159.131 
159.255 159.552 159.864 158.755 158.548 158.792 158.732 158.635 158.561 
158.699 159.05 159.386 159.619 158.446 158.479 157.997 157.777 157.138 
158.317 156.958 156.443 157.583 158.12 156.77 156.498 157.195 157.58 
158.006 157.129 156.962 157.376 157.567 157.744 158.135 157.24 157.207 
157.34 157.559 157.809 158.092 158.542 157.097 157.283 156.887 156.977 
157.478 158.009 158.446 158.926 157.183 157.471 156.735 156.465 156.815 
157.533 158.113 158.599 159.128 157.501 157.764 157.053 156.581 156.546 
157.063 157.68 158.174 158.705 159.288 159.684 159.104 159.619 158.51 
159.093 159.707 158.005 158.603 159.31 159.962 157.507 158.147 158.928 
159.649 160.337 156.991 157.66 158.482 159.286 160.021 160.758 156.808 
157.3 158.034 158.864 159.653 160.436 161.18 157.123 157.318 157.787 
158.522 159.312 160.121 160.911 161.609 157.59 157.642 157.829 158.331 
159.032 159.819 160.651 161.4 162.044 157.926 158.011 158.08 158.327 
158.813 159.487 160.31 161.132 161.831 162.441 160.153 160.164 160.697 
160.335 160.843 161.425 160.676 161.155 161.726 162.307 161.114 161.551 
162.099 162.649 163.122 161.559 161.983 162.47 163.003 163.461 163.795 
161.985 162.448 162.92 163.38 163.817 164.151 164.388 162.418 162.916 
163.443 163.856 164.178 164.464 164.709 164.927 162.84 163.342 163.903 
164.346 164.599 164.771 164.962 165.199 165.428 163.064 163.571 163.688 
164.259 164.221 164.154 164.891 164.804 164.885 164.702 165.688 165.662 
165.638 165.435 165.057 166.595 166.592 166.498 166.262 165.808 165.232 
167.3 167.275 167.238 167.085 166.7 166.018 165.361 167.896 167.784 
167.92 167.825 167.533 166.913 166.134 165.552 168.519 168.229 168.724 
168.674 168.292 167.657 166.92 166.272 165.801 168.953 168.519 169.336 
169.426 169.017 168.255 167.503 166.921 166.443 165.996 162.395 162.991 
162.239 162.826 162.034 163.57 162.633 161.87 163.447 164.08 162.447 
161.755 163.372 164.064 164.716 162.323 161.73 163.274 164.139 164.773 
165.643 162.389 161.844 163.208 164.12 164.843 165.64 166.576 162.563 
161.998 163.263 164.047 164.78 165.557 166.468 167.237 162.659 162.108 
163.3 163.992 164.674 165.387 166.235 167.056 167.679 162.692 162.192 
163.254 163.888 164.568 165.238 165.945 166.711 167.4 167.976 158.091 
158.292 158.464 158.705 158.821 158.413 159.087 159.107 158.855 158.519 
159.405 159.47 159.247 158.957 158.76 159.845 160.043 159.682 159.462 
159.25 159.26 160.436 160.663 160.282 160.172 160.005 159.899 160.04 
161.008 161.185 160.882 160.859 160.835 160.728 160.724 160.922 161.548 
161.677 161.418 161.339 161.345 161.359 161.374 161.508 161.713 157.756 
158.091 157.735 158.038 157.674 158.444 157.898 157.604 158.316 158.725 
157.907 157.815 158.22 158.616 159.042 158.388 158.387 158.502 158.787 
159.171 159.629 159.053 158.936 159.092 159.266 159.585 159.979 160.371 
159.511 159.304 159.568 159.685 159.99 160.346 160.685 160.968 159.898 
159.672 159.977 160.028 160.267 160.577 160.852 161.151 161.436 160.331 