# vtk DataFile Version 4.0
vtk output
ASCII
DATASET POLYDATA
POINTS 1002 float
-120.003 -105.486 47.7863 -120.166 -105.132 47.2862 -119.438 -105.12 47.325 
-119.225 -105.398 48.0012 -118.604 -105.07 47.5892 -119.886 -105.819 48.4558 
-118.477 -105.334 48.4166 -117.872 -105.133 48.0013 -119.083 -105.69 48.8348 
-119.766 -105.832 49.4567 -117.815 -105.444 48.863 -117.187 -105.201 48.4632 
-118.363 -105.667 49.2884 -118.935 -105.737 49.9381 -119.583 -105.714 50.7136 
-116.997 -105.555 49.2771 -116.326 -105.306 48.8038 -117.649 -105.798 49.7207 
-118.179 -105.833 50.3603 -118.738 -105.826 51.152 -119.379 -106.019 51.7505 
-116.001 -105.67 49.6798 -115.372 -105.628 49.0134 -116.727 -105.857 50.2445 
-117.42 -106.04 50.7784 -118.019 -106.135 51.4318 -118.617 -106.342 52.0065 
-119.218 -106.549 52.4266 -115.139 -105.866 50.1407 -114.605 -105.868 49.4343 
-115.775 -105.932 50.8075 -116.528 -106.231 51.2428 -117.333 -106.548 51.622 
-118.039 -106.801 52.054 -118.635 -106.942 52.5213 -119.186 -106.926 53.0656 
-114.492 -105.949 50.7106 -114.078 -105.754 50.1555 -115.002 -106.14 51.2372 
-115.64 -106.538 51.5244 -116.49 -107.017 51.6917 -117.391 -107.333 51.9787 
-118.122 -107.446 52.4564 -118.712 -107.4 53.0682 -119.31 -107.373 53.7133 
-113.938 -105.936 51.2391 -113.651 -105.552 50.7996 -114.296 -106.385 51.5537 
-114.804 -106.931 51.6367 -115.57 -107.482 51.6608 -116.504 -107.801 51.8992 
-117.384 -107.873 52.4078 -118.112 -107.845 53.0592 -118.751 -107.806 53.7036 
-119.389 -107.845 54.2554 -113.442 -106 51.5714 -113.23 -105.51 51.141 
-113.621 -106.639 51.8314 -113.949 -107.276 51.8529 -114.633 -107.788 51.8155 
-115.559 -108.055 52.0183 -116.464 -108.066 52.5304 -117.296 -108.026 53.1855 
-118.05 -108.033 53.819 -118.692 -108.019 54.3578 -119.25 -107.963 54.7863 
-119.926 -104.899 46.8067 -119.018 -104.937 46.8265 -119.476 -104.571 46.4662 
-118.346 -104.679 46.4474 -118.809 -103.901 46.3582 -118.034 -104.995 47.025 
-117.673 -103.942 46.3871 -118.275 -103.043 46.3103 -117.362 -104.713 46.6338 
-117.294 -104.992 47.4791 -117.376 -102.962 46.508 -117.942 -102.371 46.1024 
-116.983 -103.825 46.7563 -116.842 -104.479 47.2746 -116.655 -104.873 48.0702 
-117.124 -102.316 46.4174 -117.454 -101.794 45.8362 -116.822 -102.898 46.9839 
-116.597 -103.583 47.4739 -116.259 -104.284 47.9477 -115.762 -105.052 48.3659 
-116.537 -101.905 46.1221 -116.858 -101.132 45.7267 -116.28 -102.526 46.6617 
-116.053 -103.048 47.268 -115.736 -103.673 47.8139 -115.245 -104.602 48.1227 
-114.795 -105.49 48.5232 -115.96 -101.385 45.9656 -116.409 -100.497 45.7499 
-115.556 -102.284 46.18 -115.195 -102.971 46.5216 -114.924 -103.44 47.1726 
-114.678 -104.081 47.8622 -114.372 -104.965 48.3825 -114.139 -105.574 49.1148 
-115.604 -100.744 46.0147 -116.019 -99.9185 45.7891 -115.199 -101.727 46.1698 
-114.746 -102.654 46.2557 -114.365 -103.262 46.6482 -114.21 -103.687 47.5067 
-114.111 -104.297 48.3909 -113.899 -104.961 49.1264 -113.715 -105.337 49.9452 
-115.318 -100.092 46.1316 -115.607 -99.3515 45.8561 -115.095 -100.995 46.4647 
-114.783 -101.942 46.6925 -114.357 -102.703 46.9239 -114.041 -103.212 47.5054 
-113.893 -103.725 48.3735 -113.693 -104.373 49.1484 -113.421 -104.902 49.8025 
-113.263 -105.201 50.4829 -115.119 -99.2525 46.2034 -115.003 -100.087 46.6235 
-114.924 -99.3243 46.8067 -114.837 -100.231 47.3041 -114.817 -99.6004 47.5651 
-114.889 -101.013 47.1362 -114.462 -100.45 47.9871 -114.41 -99.8717 48.3484 
-114.561 -101.07 47.8598 -114.554 -101.847 47.5429 -113.738 -100.463 48.6717 
-113.695 -99.8876 49.1159 -113.895 -101.144 48.4064 -114.041 -101.78 48.2925 
-114.063 -102.511 47.9266 -112.994 -100.268 49.3888 -113.032 -99.7873 49.7747 
-113.205 -101.155 49.0019 -113.335 -101.912 48.7802 -113.418 -102.512 48.6572 
-113.632 -103.153 48.4925 -112.526 -100.298 50.0613 -112.676 -99.9298 50.4187 
-112.724 -101.206 49.7663 -112.84 -102.107 49.4531 -112.695 -102.738 49.152 
-112.777 -103.354 49.0363 -113.252 -103.925 49.1122 -112.394 -100.688 50.9079 
-112.604 -100.306 51.3407 -112.389 -101.438 50.6113 -112.439 -102.187 50.3741 
-112.264 -102.782 49.9467 -112.024 -103.494 49.4931 -112.264 -104.218 49.426 
-112.899 -104.637 49.6589 -112.471 -101.127 52.0234 -112.616 -100.665 52.452 
-112.286 -101.741 51.6067 -112.077 -102.215 51.315 -111.959 -102.62 50.9463 
-111.79 -103.335 50.3623 -111.696 -104.249 49.9226 -112.064 -104.842 49.9524 
-112.72 -105.047 50.2536 -112.551 -101.464 53.0445 -112.594 -100.95 53.3773 
-112.395 -102.021 52.6135 -112.011 -102.336 52.2328 -111.756 -102.587 51.8883 
-111.756 -103.224 51.4326 -111.702 -104.151 50.9228 -111.735 -104.852 50.6312 
-112.155 -105.167 50.6854 -112.748 -105.322 50.9297 -112.948 -105.904 51.651 
-112.485 -105.596 51.5517 -112.662 -106.465 52.2933 -111.989 -105.315 51.5726 
-112.312 -105.952 52.483 -112.516 -106.894 53.1152 -111.76 -104.993 51.803 
-111.93 -105.564 52.8218 -112.324 -106.211 53.529 -112.745 -106.878 53.9241 
-111.766 -104.319 52.167 -111.75 -105.271 53.1982 -112.014 -105.754 54.0158 
-112.662 -106.153 54.4037 -113.255 -106.494 54.6893 -111.696 -103.371 52.5492 
-111.685 -104.563 53.5231 -111.78 -105.363 54.4695 -112.339 -105.698 54.9625 
-113.067 -105.937 55.2351 -113.633 -106.19 55.571 -111.807 -102.79 52.8805 
-111.678 -103.626 53.807 -111.64 -104.573 54.8884 -111.975 -105.236 55.5789 
-112.614 -105.649 55.8986 -113.241 -105.907 56.1933 -113.885 -106.175 56.466 
-112.26 -102.606 53.1862 -112.005 -103.176 53.9869 -111.706 -103.79 55.1594 
-111.712 -104.475 56.1333 -112.16 -105.209 56.584 -112.757 -105.718 56.8599 
-113.483 -105.972 57.0742 -114.3 -106.251 57.2097 -112.561 -102.234 53.5348 
-112.454 -102.972 54.1026 -112.116 -103.46 55.1472 -111.808 -103.816 56.3273 
-111.969 -104.459 56.9974 -112.483 -105.218 57.3267 -113.155 -105.655 57.592 
-114.018 -105.914 57.7255 -114.799 -106.26 57.8672 -112.574 -101.615 53.8683 
-112.642 -102.482 54.2714 -112.588 -103.182 55.0253 -112.334 -103.482 56.1321 
-112.274 -103.817 56.9453 -112.635 -104.503 57.3526 -113.163 -105.113 57.7508 
-113.816 -105.449 58.0812 -114.583 -105.778 58.2546 -115.156 -106.2 58.4991 
-113.053 -106.673 52.054 -112.665 -107.375 52.671 -113.123 -107.446 52.2441 
-112.622 -107.602 53.4507 -112.806 -107.934 52.9227 -113.594 -107.921 52.2961 
-113.113 -107.253 54.237 -113.047 -107.819 53.7879 -113.59 -108.03 53.1831 
-114.575 -108.095 52.4836 -113.748 -106.783 55.0965 -113.704 -107.472 54.6742 
-113.982 -107.875 54.2221 -114.72 -107.998 53.6143 -115.597 -108.063 52.9654 
-114.182 -106.583 56.0235 -114.27 -107.246 55.6244 -114.407 -107.827 55.2435 
-114.901 -108.003 54.7794 -115.662 -107.953 54.1853 -116.489 -107.987 53.6013 
-114.584 -106.609 56.8507 -114.681 -107.129 56.5439 -114.741 -107.715 56.2654 
-115.072 -108.051 55.9012 -115.78 -108.032 55.3621 -116.625 -107.963 54.7513 
-117.392 -108.024 54.217 -115.003 -106.687 57.6544 -115.055 -107.126 57.4527 
-115.138 -107.558 57.2498 -115.451 -107.897 56.9895 -116.093 -108.047 56.5298 
-116.912 -108.036 55.8998 -117.612 -108.007 55.2903 -118.164 -108.035 54.7668 
-115.279 -106.709 58.492 -115.295 -107.214 58.4501 -115.485 -107.629 58.2741 
-115.961 -107.872 58.0036 -116.595 -107.994 57.6194 -117.283 -108.052 57.0454 
-117.862 -107.969 56.406 -118.262 -107.839 55.802 -118.695 -107.861 55.2303 
-115.468 -106.415 59.1763 -115.447 -107.036 59.3638 -115.791 -106.535 59.8288 
-115.871 -107.3 60.018 -116.457 -106.542 60.1355 -115.624 -107.691 59.3406 
-116.848 -107.434 60.1909 -117.347 -106.615 60.308 -116.458 -108.133 59.8684 
-116.273 -108.128 59.0309 -117.944 -107.448 60.386 -118.123 -106.804 60.778 
-117.59 -108.248 60.0693 -117.317 -108.508 59.4826 -117.05 -108.193 58.6057 
-118.805 -107.375 60.8243 -118.915 -106.816 61.1892 -118.522 -108.018 60.4054 
-118.144 -108.469 59.7678 -117.901 -108.386 58.953 -117.66 -108.128 58.0519 
-119.641 -107.134 60.9264 -119.908 -106.494 61.1382 -119.371 -107.73 60.6337 
-118.998 -108.255 59.9506 -118.62 -108.386 59.0394 -118.351 -108.143 58.2303 
-118.131 -107.959 57.3911 -120.522 -106.71 60.7662 -120.935 -106.107 61.0643 
-120.197 -107.335 60.4792 -120.028 -108.014 59.859 -119.756 -108.365 58.9059 
-119.209 -108.063 58.1282 -118.684 -107.611 57.536 -118.418 -107.586 56.7462 
-121.363 -106.335 60.8446 -121.829 -105.891 61.2324 -120.854 -106.798 60.3885 
-120.664 -107.45 59.7382 -120.648 -108.031 58.8103 -120.203 -107.896 57.9687 
-119.384 -107.24 57.4403 -118.851 -107.016 56.869 -118.736 -107.412 56.062 
-122.142 -106.152 60.9708 -122.531 -105.783 61.2856 -121.517 -106.42 60.4568 
-121.028 -106.789 59.7765 -120.873 -107.294 58.9272 -120.609 -107.426 58.0396 
-119.949 -106.96 57.3406 -119.386 -106.658 56.7664 -119.277 -107.048 56.1125 
-119.336 -107.662 55.414 -115.147 -105.786 58.8846 -115.605 -105.917 59.4597 
-115.06 -105.287 59.3435 -115.669 -105.352 59.8567 -114.958 -104.695 59.934 
-116.219 -105.925 59.9135 -115.645 -104.69 60.4194 -115.018 -104.031 60.3321 
-116.523 -105.36 60.2187 -116.982 -105.914 60.2046 -115.815 -103.989 60.6664 
-115.439 -103.48 60.1545 -116.617 -104.68 60.7254 -117.256 -105.415 60.6477 
-117.592 -106.108 60.7012 -116.406 -103.435 60.3997 -116.15 -103.113 59.6934 
-116.873 -103.886 60.9052 -117.419 -104.659 61.1176 -117.766 -105.542 61.2982 
-118.215 -106.284 61.3528 -117.092 -102.936 60.1437 -116.803 -102.746 59.4091 
-117.382 -103.209 60.7751 -117.797 -103.809 61.1198 -118.218 -104.649 61.4545 
-118.634 -105.439 61.7239 -119.242 -106.057 61.5531 -117.523 -102.398 60.001 
-117.25 -102.368 59.1415 -117.777 -102.617 60.6724 -118.185 -103.22 60.9075 
-118.784 -103.955 61.0675 -119.353 -104.537 61.4817 -119.875 -105.068 61.6746 
-120.452 -105.635 61.4076 -117.845 -102.066 59.564 -117.636 -102.135 58.6381 
-118.061 -102.15 60.3614 -118.453 -102.706 60.7026 -119.13 -103.504 60.7143 
-119.869 -104.019 60.9513 -120.45 -104.334 61.3922 -120.969 -104.811 61.5553 
-121.483 -105.408 61.4261 -118.233 -101.995 58.851 -118.036 -101.991 58.0534 
-118.458 -101.997 59.6521 -118.834 -102.273 60.2582 -119.446 -102.894 60.5252 
[...]
CELL_DATA 2000
SCALARS Distance double
LOOKUP_TABLE default
165.429 164.886 165.327 165.691 164.427 164.806 165.172 165.615 165.977 
164.112 164.442 164.798 165.149 165.493 165.879 166.189 163.732 164.12 
164.48 164.829 165.147 165.46 165.77 166.113 166.462 163.279 163.673 
164.029 164.449 164.803 165.152 165.484 165.788 166.168 166.498 166.895 
162.946 163.255 163.596 163.977 164.379 164.786 165.216 165.566 166.004 
166.303 166.731 166.994 167.362 162.711 162.981 163.316 163.622 164.026 
164.402 164.893 165.301 165.814 166.168 166.631 166.896 167.287 167.49 
167.865 162.484 162.756 163.087 163.378 163.758 164.1 164.565 164.981 
165.493 165.918 166.384 166.743 167.134 167.413 167.767 168.017 168.395 
162.27 162.536 162.872 163.151 163.507 163.823 164.232 164.631 165.089 
165.534 165.957 166.383 166.749 167.141 167.479 167.826 168.137 168.456 
168.722 165.193 164.645 164.833 164.626 163.873 164.186 163.982 164.235 
164.115 162.924 163.299 163.151 163.521 163.434 163.776 163.757 162.103 
162.396 162.294 162.673 162.673 163.065 163.069 163.42 163.387 161.393 
161.684 161.609 161.926 161.964 162.331 162.372 162.718 162.69 163.008 
162.96 160.581 160.959 160.909 161.269 161.249 161.627 161.613 161.99 
161.95 162.304 162.274 162.612 162.622 159.786 160.147 160.12 160.503 
160.446 160.831 160.752 161.155 161.107 161.524 161.535 161.93 161.978 
162.332 162.386 159.12 159.43 159.437 159.766 159.772 160.068 160.038 
160.336 160.351 160.719 160.83 161.229 161.361 161.715 161.799 162.116 
162.169 158.503 158.809 158.877 159.195 159.316 159.564 159.643 159.821 
159.894 160.126 160.283 160.62 160.809 161.151 161.263 161.556 161.598 
161.895 161.943 158.187 158.08 158.269 158.653 158.27 158.324 158.701 
158.841 159.185 158.438 158.511 158.787 158.923 159.219 159.341 159.552 
158.286 158.472 158.622 158.864 159.075 159.294 159.487 159.622 159.787 
157.942 158.138 158.276 158.574 158.796 159.054 159.257 159.47 159.686 
159.867 160.131 157.811 157.849 158.074 158.306 158.665 158.857 159.089 
159.23 159.433 159.674 159.984 160.258 160.6 158.125 157.969 158.239 
158.306 158.718 158.845 159.092 159.143 159.252 159.401 159.647 159.987 
160.355 160.694 161.014 158.714 158.5 158.756 158.652 158.944 158.944 
159.13 159.151 159.243 159.294 159.475 159.679 160.027 160.363 160.733 
161.045 161.336 159.271 159.131 159.382 159.222 159.394 159.22 159.307 
159.217 159.371 159.376 159.643 159.691 160.034 160.166 160.55 160.781 
161.144 161.387 161.698 161.899 161.344 161.788 162.16 160.804 161.235 
161.632 162.112 162.568 160.407 160.793 161.225 161.633 162.114 162.568 
163.024 160.04 160.462 160.958 161.336 161.799 162.17 162.638 163.038 
163.44 159.642 160.046 160.543 161.035 161.515 161.902 162.324 162.689 
163.105 163.455 163.816 159.536 159.718 160.132 160.553 161.057 161.527 
161.968 162.378 162.791 163.153 163.543 163.855 164.232 159.743 159.799 
160.169 160.32 160.764 161.079 161.531 161.95 162.399 162.829 163.258 
163.609 164.011 164.322 164.754 159.803 159.992 160.372 160.493 160.859 
160.98 161.336 161.572 161.987 162.394 162.867 163.3 163.739 164.099 
164.529 164.874 165.328 159.617 159.897 160.27 160.554 160.928 161.112 
161.422 161.526 161.845 162.069 162.524 162.914 163.414 163.806 164.248 
164.611 165.041 165.413 165.825 162.273 162.577 162.579 162.913 162.978 
162.939 163.253 163.224 163.539 163.386 163.34 163.612 163.564 163.855 
163.861 164.237 163.762 163.722 163.98 163.916 164.201 164.189 164.582 
164.625 165.078 164.138 164.1 164.412 164.333 164.664 164.597 165 
164.998 165.443 165.48 165.915 164.574 164.519 164.897 164.829 165.221 
165.136 165.537 165.468 165.866 165.844 166.248 166.282 166.691 165.117 
165.026 165.421 165.347 165.745 165.687 166.075 166.009 166.381 166.307 
166.693 166.656 167.075 167.077 167.472 165.71 165.618 166.006 165.9 
166.275 166.194 166.585 166.524 166.935 166.858 167.277 167.186 167.596 
167.522 167.896 167.845 168.162 166.21 166.18 166.564 166.481 166.864 
166.763 167.193 167.096 167.565 167.465 167.926 167.815 168.193 168.065 
168.326 168.231 168.445 168.427 168.667 166.548 167.131 166.893 166.938 
167.728 167.51 167.659 167.325 167.333 168.432 168.203 168.508 168.182 
168.334 167.819 167.779 169.225 168.994 169.366 169.108 169.36 168.912 
168.913 168.296 168.179 169.97 169.782 170.084 169.899 170.087 169.806 
169.777 169.333 169.166 168.63 168.476 170.517 170.408 170.638 170.502 
170.629 170.399 170.34 170 169.802 169.412 169.197 168.797 168.625 
170.925 170.819 170.983 170.912 171.06 170.912 170.934 170.591 170.391 
169.941 169.622 169.267 168.997 168.756 168.584 171.391 171.198 171.241 
171.133 171.199 171.198 171.255 171.139 170.939 170.534 170.045 169.583 
169.137 168.907 168.713 168.632 168.588 171.886 171.672 171.616 171.378 
171.269 171.198 171.137 171.195 170.983 170.844 170.291 169.898 169.313 
169.015 168.802 168.73 168.819 168.758 168.856 166.369 166.213 166.525 
166.942 166.008 166.357 166.825 167.099 167.506 165.777 166.146 166.68 
167.01 167.472 167.694 168.146 165.585 165.916 166.468 166.862 167.413 
167.692 168.153 168.384 168.901 165.57 165.791 166.298 166.643 167.208 
167.583 168.096 168.387 168.874 169.157 169.669 165.672 165.84 166.277 
166.514 167.001 167.35 167.886 168.258 168.774 169.1 169.579 169.865 
170.276 165.684 165.883 166.236 166.462 166.868 167.171 167.686 168.053 
168.609 168.958 169.457 169.752 170.179 170.416 170.763 165.619 165.808 
166.099 166.329 166.694 167.007 167.511 167.887 168.45 168.806 169.313 
169.615 170.059 170.327 170.744 170.943 171.298 165.592 165.74 166.025 
166.196 166.554 166.823 167.32 167.694 168.248 168.627 169.11 169.44 
169.86 170.176 170.597 170.897 171.301 171.503 171.81 159.641 159.989 
159.918 160.266 160.628 160.384 160.69 160.643 161.02 161.393 161.117 
161.382 161.198 161.537 161.406 161.624 162.043 161.837 162.08 161.9 
162.174 161.995 162.189 161.949 162.066 162.669 162.434 162.614 162.465 
162.7 162.587 162.824 162.604 162.782 162.483 162.717 163.402 163.092 
163.193 162.95 163.127 163.025 163.341 163.252 163.568 163.318 163.579 
163.276 163.583 164.139 163.839 163.941 163.605 163.733 163.498 163.784 
163.729 164.118 164.047 164.343 164.126 164.353 164.113 164.385 164.778 
164.543 164.702 164.4 164.551 164.219 164.417 164.217 164.522 164.478 
164.781 164.717 164.936 164.789 165.021 164.857 165.149 165.294 165.127 
165.305 165.113 165.304 165.043 165.213 164.918 165.107 164.911 165.168 
165.081 165.36 165.278 165.558 165.448 165.754 165.62 165.923 159.399 
159.448 159.512 159.826 159.689 159.711 160.032 160.083 160.49 159.759 
159.889 160.196 160.317 160.665 160.787 161.201 159.799 159.893 160.19 
160.363 160.683 160.863 161.198 161.413 161.811 160.088 160.069 160.392 
160.42 160.749 160.838 161.187 161.366 161.799 162.029 162.496 160.31 
160.388 160.72 160.743 161.059 161.037 161.397 161.457 161.955 162.118 
162.677 162.825 163.308 160.292 160.466 160.788 160.964 161.273 161.346 
161.671 161.744 162.234 162.384 162.965 163.096 163.597 163.662 164.056 
160.382 160.457 160.816 160.973 161.347 161.471 161.816 161.943 162.396 
162.614 163.164 163.366 163.835 163.936 164.296 164.352 164.669 160.725 
160.695 161.092 161.138 161.583 161.635 162.038 162.095 162.523 162.697 
163.192 163.441 163.875 164.066 164.391 164.519 164.81 164.904 165.18 
161.067 161.719 161.412 161.467 162.395 162.102 162.222 161.893 161.963 
163.141 162.809 162.941 162.647 162.741 162.385 162.409 163.96 163.582 
163.67 163.362 163.478 163.151 163.199 162.813 162.87 164.752 164.384 
164.453 164.116 164.246 163.916 164.006 163.616 163.666 163.306 163.454 
165.49 165.143 165.216 164.894 165.048 164.737 164.86 164.459 164.466 
164.063 164.112 163.862 164.033 166.213 165.88 165.947 165.63 165.769 
165.509 165.656 165.318 165.304 164.852 164.79 164.452 164.542 164.372 
164.538 166.875 166.597 166.683 166.367 166.467 166.187 166.313 166.042 
166.075 165.675 165.603 165.169 165.198 164.909 165.074 164.873 165.016 
167.397 167.202 167.327 167.086 167.195 166.892 166.976 166.677 166.742 
166.412 166.425 166.016 166.044 165.66 165.779 165.482 165.614 165.35 
165.419 167.664 168.064 167.797 167.655 168.519 168.236 168.135 167.82 
167.601 169.074 168.728 168.614 168.304 168.094 167.706 167.383 169.739 
169.328 169.153 168.786 168.559 168.178 167.852 167.446 167.104 170.358 
169.987 169.768 169.345 169.068 168.649 168.341 167.925 167.596 167.181 
166.833 170.83 170.532 170.324 169.931 169.606 169.166 168.832 168.425 
168.121 167.707 167.37 166.911 166.531 171.291 170.979 170.774 170.416 
170.074 169.658 169.271 168.885 168.542 168.184 167.825 167.425 167.027 
166.592 166.224 171.745 171.439 171.175 170.821 170.45 170.062 169.648 
169.274 168.88 168.534 168.113 167.762 167.304 166.969 166.564 166.253 
165.94 171.948 171.769 171.428 171.14 170.713 170.377 169.944 169.604 
169.189 168.84 168.381 168 167.492 167.147 166.706 166.457 166.135 
165.928 165.67 167.824 168.323 168.085 168.191 168.955 168.667 168.713 
168.476 168.631 169.463 169.279 169.335 169.057 169.157 168.968 169.202 
169.889 169.742 169.816 169.592 169.664 169.507 169.725 169.609 169.892 
170.439 170.278 170.359 170.044 170.062 169.905 170.13 170.107 170.397 
170.297 170.515 170.719 170.811 170.993 170.701 170.672 170.348 170.531 
170.47 170.816 170.767 170.986 170.834 170.974 170.427 170.789 171.071 
171.183 171.235 171.016 171.097 170.937 171.252 171.193 171.471 171.313 
171.471 171.284 171.45 170.073 170.319 170.545 170.937 171.128 171.315 
171.403 171.405 171.586 171.593 171.844 171.781 171.954 171.801 171.96 
171.796 171.942 170.058 170.042 170.121 170.379 170.621 170.979 171.199 
171.436 171.601 171.747 171.926 172.015 172.151 172.153 172.234 172.193 
172.254 172.167 172.149 167.677 167.624 167.833 168.218 167.461 167.769 
168.186 168.425 168.819 167.126 167.524 167.922 168.276 168.62 168.923 
169.243 166.722 167.145 167.564 167.944 168.275 168.598 168.891 169.234 
169.6 166.287 166.744 167.245 167.641 168.091 168.345 168.663 168.887 
169.242 169.614 170.063 165.778 166.287 166.816 167.316 167.868 168.247 
168.655 168.818 169.068 169.269 169.563 169.986 170.27 165.266 165.771 
166.264 166.8 167.306 167.875 168.341 168.743 168.986 169.149 169.265 
169.479 169.638 170.006 170.094 164.793 165.277 165.751 166.233 166.674 
167.211 167.67 168.231 168.588 168.942 169.108 169.268 169.427 169.583 
169.779 169.922 170.009 164.313 164.791 165.256 165.733 166.174 166.633 
167.09 167.589 168.033 168.471 168.765 169.048 169.276 169.495 169.787 
169.915 170.149 170.101 170.181 164.182 164.296 164.525 165.121 164.487 
164.662 165.271 165.501 166.077 164.742 164.866 165.444 165.674 166.325 
166.498 167.052 164.955 165.094 165.622 165.848 166.527 166.775 167.401 
167.505 167.987 165.074 165.253 165.78 166.01 166.652 166.943 167.554 
167.765 168.201 168.318 168.658 165.199 165.349 165.894 166.146 166.796 
167.072 167.63 167.822 168.186 168.354 168.688 168.876 169.21 165.422 
165.494 165.976 166.226 166.922 167.24 167.872 167.987 168.317 168.325 
168.639 168.835 169.315 169.503 169.861 165.645 165.705 166.088 166.287 
166.929 167.314 168.05 168.291 168.699 168.61 168.798 168.819 169.233 
169.533 170.005 170.146 170.305 165.714 165.857 166.203 166.375 166.88 
167.236 167.898 168.328 168.82 168.951 169.071 169.006 169.138 169.343 
169.698 170.06 170.281 170.386 170.31 165.778 166.106 166.092 166.375 
166.387 166.44 166.78 166.729 167.063 166.556 166.656 166.989 167.061 
167.43 167.483 167.962 166.824 166.843 167.175 167.222 167.587 167.724 
168.204 168.39 168.817 167.224 167.188 167.541 167.51 167.888 167.919 
168.364 168.513 168.895 169.014 169.137 167.608 167.568 167.873 167.881 
168.243 168.281 168.688 168.739 169.055 169.062 169.191 169.147 169.212 
168.126 167.997 168.286 168.202 168.502 168.534 168.893 169.008 169.315 
169.31 169.436 169.311 169.43 169.376 169.657 168.749 168.631 169.016 
168.801 169.093 168.878 169.137 169.119 169.432 169.513 169.731 169.659 
169.764 169.661 169.857 169.906 170.169 169.072 169.16 169.57 169.545 
169.839 169.603 169.723 169.472 169.638 169.615 169.897 169.933 170.12 
170.025 170.102 170.037 170.118 170.2 170.237 170.1 170.128 170.074 
170.112 170.289 170.234 170.356 170.288 170.54 170.366 170.457 170.678 
170.631 170.857 170.834 171.136 170.11 170.391 170.659 170.855 171.113 
171.162 171.397 171.394 171.621 169.862 170.052 170.256 170.582 170.857 
171.193 171.449 171.604 171.788 171.809 171.967 169.984 169.957 169.978 
170.087 170.164 170.608 170.843 171.348 171.534 171.82 171.931 172.056 
172.151 170.062 170.087 169.907 169.826 169.585 169.815 169.898 170.482 
170.719 171.267 171.402 171.78 171.884 172.129 172.21 169.7 169.898 
169.621 169.606 169.247 169.307 169.338 169.699 170.065 170.501 170.787 
171.14 171.308 171.673 171.842 172.133 172.218 169.146 169.363 169.134 
169.195 168.951 169.018 169.167 169.426 169.965 170.243 170.708 170.817 
171.034 171.172 171.345 171.651 171.812 172.088 172.107 158.488 159.136 
158.809 158.849 159.791 159.45 159.486 159.212 159.32 160.605 160.176 
160.179 159.83 159.929 159.693 159.865 161.524 161.114 161.171 160.666 
160.719 160.332 160.508 160.277 160.487 162.324 162.035 162.21 161.756 
161.802 161.27 161.354 160.979 161.19 160.93 161.11 163.148 162.841 
163.037 162.695 162.763 162.324 162.342 161.903 162.022 161.684 161.866 
161.552 161.684 164.092 163.742 163.889 163.491 163.536 163.15 163.202 
162.834 162.95 162.577 162.721 162.348 162.472 162.121 162.248 164.869 
164.628 164.75 164.361 164.361 163.934 163.991 163.645 163.821 163.494 
163.662 163.262 163.36 162.943 163.049 162.705 162.879 165.387 165.25 
165.365 165.106 165.102 164.746 164.771 164.443 164.596 164.32 164.5 
164.169 164.272 163.864 163.954 163.556 163.722 163.39 163.62 158.122 
158.485 158.08 157.752 158.997 158.525 158.152 157.784 157.638 159.593 
159.098 158.73 158.254 158.039 157.791 157.842 160.218 159.735 159.412 
158.901 158.668 158.281 158.254 158.063 158.178 160.781 160.331 160.002 
159.565 159.377 158.99 158.939 158.59 158.603 158.382 158.507 161.338 
160.877 160.508 160.082 159.885 159.616 159.634 159.344 159.344 158.952 
158.971 158.747 158.955 161.976 161.503 161.208 160.674 160.455 160.09 
160.131 159.943 160.065 159.755 159.786 159.394 159.519 159.304 159.565 
162.673 162.226 162.074 161.53 161.384 160.843 160.852 160.504 160.683 
160.43 160.579 160.244 160.353 160.019 160.201 159.962 160.159 163.415 
162.979 162.888 162.43 162.365 161.863 161.869 161.399 161.526 161.158 
161.332 161.005 161.134 160.817 160.935 160.654 160.789 160.534 160.658 
157.922 157.557 157.685 157.761 157.504 157.455 157.512 157.69 157.956 
157.736 157.551 157.516 157.526 157.716 157.967 158.208 158.073 157.852 
157.695 157.543 157.55 157.712 157.93 158.175 158.219 158.481 158.252 
158.137 157.801 157.684 157.584 157.782 157.966 158.161 158.168 158.04 
159.005 158.772 158.849 158.445 158.389 157.964 158.115 158.033 158.393 
158.337 158.397 158.092 157.956 159.545 159.334 159.474 159.223 159.272 
158.842 158.879 158.577 158.845 158.744 158.949 158.658 158.577 158.179 
158.191 160.013 159.796 159.83 159.72 159.796 159.599 159.583 159.293 
159.318 159.173 159.311 159.188 159.2 158.879 158.815 158.524 158.672 
160.468 160.197 160.141 159.992 160.068 159.982 160.05 159.848 159.808 
159.568 159.579 159.467 159.553 159.409 159.414 159.141 159.152 158.975 
159.157 167.384 166.849 167.163 167.248 166.194 166.551 166.591 166.973 
167.041 165.464 165.835 165.836 166.234 166.259 166.684 166.707 164.717 
165.082 165.043 165.426 165.416 165.851 165.869 166.3 166.296 163.911 
164.301 164.243 164.62 164.576 164.989 164.986 165.431 165.412 165.846 
165.815 163.041 163.434 163.369 163.789 163.747 164.157 164.129 164.545 
164.49 164.912 164.828 165.296 165.259 162.252 162.565 162.472 162.882 
162.859 163.304 163.287 163.702 163.634 164.006 163.886 164.286 164.211 
164.715 164.729 161.608 161.848 161.736 162.046 162.004 162.407 162.388 
162.824 162.76 163.155 163.036 163.396 163.295 163.71 163.701 164.216 
164.269 161.017 161.251 161.148 161.393 161.315 161.616 161.554 161.923 
161.83 162.231 162.101 162.512 162.406 162.83 162.794 163.251 163.279 
163.782 163.828 
POINT_DATA 1002
SCALARS Distance double
LOOKUP_TABLE default
165.768 165.52 164.998 165.216 164.443 166.088 164.76 164.079 165.542 
166.304 164.489 163.769 165.147 165.793 166.474 164.102 163.326 164.852 
165.443 166.076 166.838 163.592 162.922 164.395 165.164 165.849 166.581 
167.268 163.252 162.665 163.945 164.8 165.687 166.479 167.135 167.685 
163.028 162.442 163.671 164.462 165.417 166.341 167.075 167.652 168.26 
162.798 162.213 163.436 164.168 165.065 165.997 166.816 167.512 168.139 
168.788 162.599 162 163.22 163.868 164.662 165.541 166.337 167.097 
167.83 168.442 168.936 165.063 164.439 164.435 163.684 163.5 163.826 
162.716 162.559 163.053 163.425 161.916 161.836 162.251 162.716 163.066 
161.3 161.045 161.613 162.029 162.372 162.634 160.533 160.166 160.895 
161.24 161.571 161.908 162.281 159.744 159.449 160.084 160.361 160.657 
161.095 161.603 162.052 159.097 158.815 159.471 159.762 159.993 160.406 
160.991 161.491 161.855 158.515 158.181 159.019 159.461 159.709 159.981 
160.464 160.974 161.324 161.617 157.866 158.427 157.947 158.599 158.267 
159.079 158.671 158.379 159.094 159.487 158.368 158.112 158.83 159.302 
159.674 157.936 157.781 158.527 159.033 159.437 159.949 157.833 157.82 
158.456 159.014 159.223 159.64 160.365 158.255 158.301 158.632 159.07 
159.194 159.343 159.958 160.744 158.946 158.897 159.071 159.132 159.191 
159.348 159.736 160.386 161.068 159.55 159.367 159.652 159.46 159.331 
159.592 159.991 160.376 160.889 161.477 162.22 161.668 162.592 161.15 
162.078 163.035 160.856 161.672 162.594 163.445 160.541 161.481 162.245 
163.076 163.799 160.006 161.086 161.982 162.747 163.492 164.157 159.82 
160.572 161.517 162.408 163.22 163.917 164.624 160.118 160.57 161.152 
161.928 162.862 163.692 164.427 165.213 160.207 160.791 161.22 161.64 
162.394 163.346 164.179 164.983 165.789 159.936 160.667 161.328 161.722 
162.176 163.003 163.893 164.672 165.469 166.217 162.92 163.308 163.533 
163.678 163.851 164.183 164.044 164.22 164.535 165.032 164.46 164.735 
165.039 165.43 165.87 164.94 165.293 165.636 165.936 166.235 166.642 
165.514 165.81 166.134 166.456 166.753 167.093 167.492 166.128 166.375 
166.64 166.984 167.367 167.716 167.983 168.215 166.623 166.941 167.276 
167.665 168.048 168.366 168.5 168.496 168.626 166.806 167.252 167.336 
167.943 167.908 167.783 168.76 168.63 168.822 168.398 169.594 169.453 
169.744 169.515 168.827 170.3 170.157 170.36 170.16 169.657 169.016 
170.767 170.63 170.848 170.679 170.184 169.566 169.011 171.062 171.084 
171.122 171.212 170.914 170.077 169.225 168.758 171.448 171.641 171.216 
171.262 171.294 170.612 169.448 168.741 168.642 171.929 172.09 171.473 
171.119 171.031 170.626 169.635 168.857 168.808 169.009 166.084 166.686 
165.871 166.515 165.639 167.276 166.286 165.408 167.24 167.9 166.055 
165.292 167.063 167.937 168.622 166.025 165.393 166.813 167.749 168.604 
169.398 166.104 165.521 166.704 167.488 168.422 169.298 170.043 166.025 
165.507 166.58 167.321 168.251 169.157 169.919 170.577 165.892 165.458 
166.382 167.121 168.09 169.011 169.772 170.488 171.17 165.87 165.448 
166.315 166.966 167.873 168.781 169.539 170.27 171.035 171.699 159.622 
160.197 160.151 160.805 160.927 161.067 161.619 161.633 161.721 161.825 
162.26 162.237 162.362 162.441 162.303 162.808 162.963 162.777 162.962 
163.071 162.973 163.507 163.737 163.267 163.34 163.725 163.911 163.855 
164.274 164.409 164.043 163.889 164.125 164.508 164.613 164.592 164.949 
164.977 164.884 164.725 164.638 164.805 165.032 165.165 165.308 159.209 
159.707 159.43 159.999 159.639 160.392 160.03 159.608 160.561 161.043 
160.042 159.75 160.5 160.989 161.563 160.416 160.1 160.72 161.028 
161.547 162.288 160.65 160.182 161.095 161.365 161.799 162.52 163.225 
160.568 160.127 161.147 161.579 162.071 162.834 163.543 164.025 160.677 
160.342 161.205 161.689 162.18 162.938 163.721 164.242 164.623 161.065 