# vtk DataFile Version 4.0
vtk output
ASCII
DATASET POLYDATA
POINTS 1002 float
-118.711 -103.383 51.2059 -118.848 -102.983 50.5871 -118.212 -103.154 50.8631 
-118.063 -103.668 51.4233 -117.569 -103.285 51.2449 -118.608 -104.031 51.6582 
-117.491 -103.887 51.7517 -117.04 -103.348 51.7777 -118.064 -104.3 51.8913 
-118.677 -104.672 52.1314 -116.98 -104.052 52.2177 -116.5 -103.572 52.1963 
-117.526 -104.488 52.2976 -118.178 -104.818 52.574 -118.809 -105.054 53.0116 
-116.246 -104.386 52.5462 -115.652 -104.064 52.3379 -116.848 -104.683 52.8166 
-117.495 -104.986 53.1559 -118.191 -105.185 53.6302 -118.874 -105.295 54.1469 
-115.239 -104.867 52.7382 -114.654 -104.533 52.5381 -115.975 -104.994 53.2165 
-116.696 -105.204 53.6986 -117.391 -105.457 54.1355 -118.161 -105.535 54.6314 
-118.943 -105.675 54.9741 -114.462 -105.124 53.2021 -114.035 -104.667 53.0762 
-115.151 -105.326 53.6137 -115.977 -105.473 54.1023 -116.714 -105.756 54.4578 
-117.431 -105.919 54.8743 -118.255 -105.959 55.3181 -119.041 -106.167 55.564 
-114.192 -104.98 53.9685 -113.833 -104.522 53.7688 -114.639 -105.434 54.2319 
-115.307 -105.802 54.5058 -116.117 -106.092 54.7369 -116.858 -106.277 55.0859 
-117.596 -106.321 55.6058 -118.39 -106.355 56.0679 -119.092 -106.462 56.4045 
-114.067 -104.747 54.6872 -113.642 -104.414 54.3746 -114.363 -105.3 54.9212 
-114.682 -106.008 54.991 -115.345 -106.468 55.0859 -116.228 -106.551 55.4641 
-117.021 -106.539 56.0678 -117.754 -106.551 56.6441 -118.471 -106.52 57.1117 
-119.096 -106.458 57.5327 -113.749 -104.767 55.2188 -113.281 -104.516 54.8609 
-114.072 -105.212 55.4954 -114.226 -105.989 55.5241 -114.631 -106.643 55.5424 
-115.509 -106.697 55.9691 -116.47 -106.508 56.7111 -117.234 -106.532 57.3481 
-117.899 -106.592 57.802 -118.524 -106.502 58.2224 -119.092 -106.387 58.6248 
-118.499 -102.863 50.0457 -117.877 -102.9 50.4288 -118.035 -102.807 49.4837 
-117.431 -102.696 49.9562 -117.538 -102.679 48.9974 -117.215 -102.825 51.0121 
-116.789 -102.57 49.4033 -117.031 -102.251 48.757 -116.65 -102.584 50.5292 
-116.606 -102.855 51.6117 -116.044 -102.282 49.0049 -116.514 -101.472 48.8577 
-115.835 -102.64 49.775 -115.913 -102.752 51.0136 -115.95 -103.203 51.9582 
-115.51 -101.637 49.0059 -116.044 -100.729 49.0037 -115.192 -102.399 49.3677 
-115.188 -102.784 50.3493 -115.268 -103.036 51.5089 -115.058 -103.671 52.1955 
-115.17 -100.953 49.1094 -115.551 -100.234 48.9268 -114.966 -101.619 49.5131 
-114.857 -102.241 50.2886 -114.725 -102.722 51.2506 -114.512 -103.227 52.0842 
-114.188 -103.987 52.5956 -114.738 -100.4 49.0952 -115.001 -99.6977 48.8213 
-114.733 -100.891 49.6615 -114.732 -101.399 50.5308 -114.406 -102.097 51.2934 
-114.018 -102.775 51.9323 -113.78 -103.435 52.5663 -113.689 -104.092 53.1382 
-114.351 -99.8189 49.1806 -114.632 -99.0591 48.92 -114.334 -100.395 49.7213 
-114.426 -100.882 50.6062 -114.113 -101.588 51.3231 -113.547 -102.398 51.7378 
-113.288 -103.04 52.319 -113.296 -103.592 53.0564 -113.414 -104.077 53.7216 
-114.3 -99.2718 49.4827 -114.601 -98.584 49.2227 -114.112 -99.9054 49.9497 
-114.07 -100.499 50.7072 -113.8 -101.237 51.3631 -113.185 -102.067 51.6695 
-112.795 -102.696 52.1178 -112.835 -103.141 52.9303 -112.968 -103.615 53.6981 
-113.095 -104.105 54.2848 -114.605 -98.7096 49.8522 -114.252 -99.2794 50.2311 
-114.497 -98.8089 50.6494 -113.937 -99.2308 51.1069 -113.943 -98.8013 51.4442 
-113.911 -99.8583 50.8614 -113.197 -99.2169 51.8019 -113.288 -98.915 52.1519 
-113.327 -99.7937 51.6606 -113.549 -100.61 51.5053 -112.638 -99.4874 52.3807 
-113.09 -99.3064 52.9334 -112.534 -99.8544 52.1026 -112.722 -100.63 52.0097 
-112.947 -101.513 51.8176 -112.579 -99.9035 53.2947 -113.072 -99.7009 53.8883 
-112.169 -100.153 52.6969 -112.04 -100.673 52.4363 -112.168 -101.491 52.3437 
-112.418 -102.236 52.1866 -112.514 -100.098 54.5453 -112.874 -99.8969 54.8782 
-112.15 -100.376 53.9656 -111.818 -100.843 53.4069 -111.76 -101.492 53.184 
-112.013 -102.13 53.1561 -112.401 -102.687 53.0413 -112.394 -100.19 55.6485 
-112.841 -100.07 55.7436 -112.044 -100.402 55.4295 -111.729 -100.909 54.9289 
-111.605 -101.647 54.3569 -111.835 -102.23 54.1409 -112.222 -102.663 54.1106 
-112.587 -103.157 53.9228 -112.617 -100.471 56.3805 -113.19 -100.372 56.4178 
-112.081 -100.591 56.4124 -111.68 -100.974 56.2548 -111.543 -101.719 55.6479 
-111.75 -102.424 55.0032 -112.1 -102.863 54.7818 -112.369 -103.307 54.6961 
-112.664 -103.784 54.4828 -113.12 -100.897 56.887 -113.656 -100.744 56.933 
-112.49 -101.036 56.9384 -111.957 -101.309 56.9864 -111.728 -101.854 56.6774 
-111.854 -102.497 55.9806 -112.122 -103.009 55.4315 -112.274 -103.518 55.2432 
-112.401 -104.068 55.1246 -112.751 -104.416 54.9688 -113.118 -104.945 55.5597 
-112.591 -104.884 55.6971 -112.981 -105.411 56.3825 -112.361 -104.425 55.8747 
-112.588 -105.244 56.6498 -113.048 -105.62 57.2512 -112.375 -103.716 56.0904 
-112.469 -104.67 56.995 -112.785 -105.343 57.6553 -113.381 -105.508 58.0326 
-112.328 -103.131 56.4765 -112.488 -103.95 57.4167 -112.583 -104.867 58.2183 
-113.133 -105.286 58.5265 -113.862 -105.374 58.83 -112.203 -102.656 57.0241 
-112.521 -103.392 57.7926 -112.438 -104.259 58.7836 -112.745 -104.98 59.2636 
-113.607 -105.23 59.4211 -114.361 -105.443 59.8268 -112.262 -102.163 57.3719 
-112.664 -102.937 57.9384 -112.604 -103.609 58.9416 -112.541 -104.33 59.819 
-113.241 -104.896 60.1266 -114.169 -105.251 60.3788 -114.807 -105.68 60.8358 
-112.646 -101.752 57.4062 -112.97 -102.5 57.908 -113.089 -103.08 58.7083 
-112.917 -103.585 59.7528 -113.218 -104.186 60.4489 -114.045 -104.81 60.7669 
-114.693 -105.393 61.1775 -115.167 -105.94 61.617 -113.23 -101.471 57.3749 
-113.399 -102.105 57.9171 -113.585 -102.696 58.5465 -113.576 -103.154 59.3942 
-113.65 -103.58 60.2798 -114.19 -104.156 60.8587 -114.772 -104.861 61.3202 
-115.105 -105.531 61.8572 -115.482 -106.047 62.2473 -113.769 -101.241 57.3975 
-113.844 -101.759 57.9801 -113.967 -102.313 58.6018 -114.085 -102.857 59.2452 
-114.151 -103.27 60.0295 -114.428 -103.645 60.814 -114.897 -104.202 61.4388 
-115.216 -104.898 62.0272 -115.44 -105.513 62.5484 -115.814 -105.946 62.8239 
-113.567 -105.243 55.9472 -113.428 -105.713 56.729 -113.854 -105.787 56.1238 
-113.594 -105.826 57.5763 -113.883 -106.173 56.9313 -114.17 -106.491 56.1654 
-114.005 -105.715 58.4606 -114.266 -106.19 58.0312 -114.597 -106.518 57.3464 
-114.951 -106.679 56.5906 -114.468 -105.783 59.4334 -114.65 -106.292 59.1501 
-115.101 -106.497 58.7959 -115.603 -106.372 58.2182 -116.023 -106.366 57.4772 
-114.985 -106.036 60.4601 -115.066 -106.6 60.0826 -115.309 -106.949 59.8269 
-115.901 -106.689 59.5391 -116.509 -106.318 58.9989 -116.905 -106.343 58.2081 
-115.482 -106.293 61.3199 -115.687 -106.78 60.86 -115.679 -107.336 60.4473 
-115.933 -107.494 60.1376 -116.614 -107.117 59.7817 -117.225 -106.714 59.2662 
-117.579 -106.595 58.5783 -115.846 -106.436 61.9759 -116.22 -106.813 61.5411 
-116.266 -107.308 61.071 -116.243 -107.815 60.6044 -116.694 -107.92 60.1427 
-117.393 -107.504 59.7703 -117.87 -106.968 59.4206 -118.183 -106.636 58.9116 
-116.146 -106.38 62.5526 -116.529 -106.772 62.1841 -116.685 -107.191 61.8195 
-116.684 -107.696 61.3796 -116.988 -108.087 60.7688 -117.614 -108.008 60.2327 
-118.127 -107.483 59.9682 -118.443 -106.899 59.7442 -118.751 -106.523 59.2989 
-116.396 -106.018 63.1765 -116.748 -106.496 62.8709 -117.08 -106.108 63.4217 
-117.361 -106.685 63.229 -117.787 -106.315 63.6526 -116.975 -107.01 62.621 
-118.069 -106.961 63.5466 -118.552 -106.511 63.9201 -117.512 -107.363 63.165 
-117.058 -107.551 62.3833 -118.93 -107.096 63.7236 -119.471 -106.533 64.14 
-118.358 -107.66 63.5054 -117.803 -107.935 62.9404 -117.363 -107.994 61.832 
-119.954 -107.071 63.8413 -120.529 -106.517 64.1684 -119.379 -107.683 63.6041 
-118.875 -108.064 63.1974 -118.415 -108.111 62.2173 -117.987 -108.095 61.0419 
-121.132 -107.135 63.9289 -121.513 -106.548 63.9985 -120.564 -107.675 63.7003 
-120.004 -108.004 63.233 -119.497 -108.038 62.3692 -118.983 -107.938 61.3269 
-118.505 -107.778 60.5139 -122.156 -107.185 63.8879 -122.247 -106.418 63.7887 
-121.843 -107.8 63.7456 -121.296 -108.098 63.1708 -120.64 -108.066 62.2743 
-119.944 -107.914 61.3749 -119.298 -107.65 60.7459 -118.804 -107.25 60.2815 
-122.766 -106.942 63.6973 -122.794 -106.071 63.5925 -122.712 -107.714 63.5823 
-122.435 -108.184 62.9743 -121.848 -108.206 62.0557 -121.057 -108.004 61.228 
-120.248 -107.728 60.7109 -119.584 -107.252 60.4018 -119.108 -106.753 59.9754 
-123.119 -106.494 63.363 -123.247 -105.707 63.2971 -123.072 -107.254 63.23 
-122.987 -107.879 62.6603 -122.643 -108.116 61.8367 -121.992 -107.942 61.1438 
-121.214 -107.65 60.6704 -120.496 -107.273 60.3401 -119.91 -106.78 59.9903 
-119.454 -106.439 59.413 -115.913 -105.495 63.2623 -116.53 -105.571 63.5968 
-116.037 -104.966 63.5913 -116.71 -105.081 63.8358 -116.21 -104.359 63.7158 
-117.277 -105.712 63.7864 -117.007 -104.409 63.9193 -116.556 -103.665 63.6798 
-117.518 -105.202 64.0646 -118.053 -105.919 64.0744 -117.429 -103.607 63.9442 
-117.008 -103.045 63.5266 -117.891 -104.383 64.2463 -118.378 -105.283 64.493 
-118.945 -106.02 64.47 -117.831 -103.026 63.7899 -117.418 -102.6 63.1773 
-118.308 -103.568 64.2355 -118.797 -104.369 64.5878 -119.398 -105.306 64.8024 
-120.018 -106.001 64.6033 -118.243 -102.681 63.3189 -117.838 -102.237 62.6646 
-118.721 -103.099 63.9406 -119.227 -103.616 64.3272 -119.835 -104.454 64.5625 
-120.482 -105.339 64.6043 -121.027 -105.98 64.3063 -118.735 -102.339 62.6972 
-118.307 -101.9 62.1671 -119.226 -102.718 63.4147 -119.722 -103.08 63.9707 
-120.26 -103.685 64.1702 -120.817 -104.525 64.2387 -121.306 -105.242 64.1607 
-121.777 -105.819 63.9181 -119.189 -101.965 62.148 -118.75 -101.555 61.7732 
-119.694 -102.293 62.77 -120.197 -102.578 63.4612 -120.677 -103.028 63.8207 
-121.123 -103.716 63.9071 -121.525 -104.355 63.9675 -121.962 -104.86 63.8856 
-122.428 -105.433 63.6949 -119.537 -101.559 61.7215 -119.126 -101.142 61.4461 
-119.99 -101.925 62.1306 -120.449 -102.226 62.6991 -120.89 -102.597 63.1666 
[...]
CELL_DATA 2000
SCALARS Distance double
LOOKUP_TABLE default
164.221 163.974 164.262 164.622 163.774 164.047 164.445 164.731 165.16 
163.643 163.897 164.306 164.58 165.025 165.318 165.771 163.457 163.755 
164.136 164.433 164.85 165.167 165.612 165.921 166.353 163.149 163.492 
163.858 164.205 164.606 164.955 165.387 165.727 166.158 166.474 166.9 
162.902 163.189 163.589 163.916 164.363 164.708 165.176 165.507 165.957 
166.269 166.706 167.02 167.462 162.832 163.045 163.474 163.732 164.214 
164.519 165.029 165.342 165.825 166.11 166.561 166.845 167.293 167.594 
168.016 162.83 163.033 163.449 163.677 164.122 164.402 164.88 165.202 
165.68 165.991 166.442 166.728 167.167 167.447 167.861 168.128 168.479 
162.812 163.023 163.418 163.64 164.034 164.288 164.706 165.017 165.464 
165.804 166.254 166.582 167.022 167.322 167.732 167.991 168.339 168.559 
168.848 163.944 163.423 163.678 163.666 162.851 163.123 163.087 163.375 
163.409 162.186 162.496 162.419 162.738 162.746 163.129 163.24 161.396 
161.747 161.645 162.008 162.003 162.422 162.535 162.97 163.076 160.604 
160.929 160.86 161.226 161.265 161.68 161.809 162.245 162.362 162.757 
162.795 159.908 160.199 160.18 160.515 160.618 161.002 161.154 161.546 
161.663 162.042 162.105 162.464 162.531 159.205 159.536 159.553 159.906 
160.041 160.418 160.571 160.924 161.012 161.359 161.428 161.796 161.901 
162.277 162.436 158.535 158.857 158.935 159.3 159.483 159.872 160.044 
160.367 160.425 160.718 160.764 161.127 161.253 161.659 161.836 162.236 
162.43 158.154 158.346 158.504 158.771 159.005 159.352 159.574 159.878 
159.947 160.172 160.182 160.482 160.602 161.01 161.208 161.628 161.826 
162.227 162.416 158.172 158.41 158.337 158.477 158.447 158.491 158.591 
158.651 158.912 158.238 158.345 158.428 158.63 158.868 159.09 159.405 
158.29 158.173 158.185 158.333 158.538 158.871 159.159 159.471 159.709 
158.768 158.454 158.388 158.235 158.349 158.504 158.788 159.11 159.397 
159.684 159.931 159.224 158.977 158.91 158.634 158.665 158.532 158.772 
158.873 159.254 159.455 159.839 160.028 160.398 159.575 159.367 159.341 
159.131 159.161 158.971 159.155 159.09 159.468 159.531 159.99 160.096 
160.532 160.645 161.046 160.121 159.808 159.817 159.559 159.626 159.439 
159.624 159.53 159.863 159.868 160.288 160.347 160.761 160.84 161.222 
161.315 161.674 160.855 160.491 160.527 160.166 160.258 159.977 160.191 
160.025 160.354 160.286 160.668 160.665 161.045 161.082 161.447 161.507 
161.862 161.936 162.277 162.604 162.217 162.618 163.043 161.816 162.231 
162.699 163.109 163.549 161.439 161.845 162.335 162.774 163.272 163.637 
164.035 161.12 161.51 162.023 162.442 162.982 163.374 163.836 164.132 
164.523 160.864 161.248 161.801 162.186 162.721 163.098 163.594 163.939 
164.393 164.68 165.148 160.706 161.05 161.642 162.009 162.529 162.856 
163.301 163.662 164.141 164.526 165.043 165.378 165.917 160.749 160.982 
161.575 161.89 162.431 162.703 163.114 163.385 163.829 164.225 164.784 
165.217 165.78 166.146 166.669 160.994 161.123 161.672 161.89 162.439 
162.665 163.119 163.296 163.719 163.981 164.527 164.934 165.538 165.951 
166.477 166.83 167.278 161.285 161.388 161.864 162.019 162.511 162.713 
163.186 163.366 163.795 163.97 164.441 164.736 165.293 165.688 166.221 
166.597 167.038 167.366 167.734 162.937 163.372 163.28 163.549 163.851 
163.74 163.991 163.892 164.155 164.314 164.217 164.489 164.374 164.646 
164.526 164.822 164.806 164.693 165.041 164.933 165.283 165.112 165.426 
165.256 165.586 165.463 165.278 165.69 165.565 166.021 165.847 166.214 
165.964 166.274 166.066 166.394 166.279 166.054 166.49 166.312 166.798 
166.632 167.048 166.804 167.114 166.834 167.127 166.895 167.196 167.056 
166.894 167.329 167.15 167.582 167.408 167.802 167.608 167.937 167.687 
167.965 167.685 167.942 167.685 167.921 167.652 167.59 168.005 167.906 
168.269 168.124 168.439 168.291 168.61 168.45 168.744 168.508 168.724 
168.437 168.602 168.342 168.502 168.077 168.082 168.466 168.45 168.781 
168.699 168.971 168.856 169.149 169.052 169.362 169.214 169.431 169.176 
169.289 169.001 169.098 168.857 168.984 168.394 168.993 168.728 168.794 
169.656 169.359 169.424 169.124 169.127 170.399 170.076 170.171 169.816 
169.825 169.435 169.362 171.139 170.832 170.975 170.636 170.704 170.247 
170.183 169.687 169.59 171.874 171.569 171.719 171.433 171.557 171.167 
171.117 170.59 170.437 169.932 169.802 172.63 172.356 172.545 172.213 
172.343 171.974 171.925 171.458 171.231 170.737 170.485 170.055 169.832 
173.207 173.111 173.413 173.121 173.266 172.819 172.745 172.22 171.965 
171.442 171.122 170.659 170.351 169.953 169.665 173.43 173.543 173.891 
173.858 174.017 173.717 173.599 173.073 172.767 172.183 171.837 171.298 
170.962 170.477 170.156 169.74 169.461 173.411 173.598 173.86 174.04 
174.159 174.17 174.028 173.757 173.387 172.922 172.496 171.995 171.608 
171.115 170.754 170.281 169.966 169.562 169.325 168.244 168.177 168.426 
168.84 168.036 168.345 168.809 169.055 169.504 167.838 168.185 168.703 
169.018 169.529 169.77 170.245 167.665 167.994 168.52 168.883 169.451 
169.782 170.33 170.552 171.013 167.54 167.844 168.341 168.689 169.242 
169.641 170.248 170.606 171.146 171.332 171.763 167.428 167.727 168.227 
168.538 169.05 169.407 169.983 170.426 171.017 171.379 171.833 172.031 
172.415 167.337 167.623 168.138 168.443 168.951 169.247 169.754 170.132 
170.676 171.118 171.571 171.924 172.239 172.533 172.843 167.267 167.535 
168.014 168.332 168.818 169.132 169.586 169.912 170.36 170.747 171.154 
171.536 171.829 172.178 172.422 172.793 173.043 167.167 167.433 167.844 
168.157 168.574 168.918 169.31 169.663 170.028 170.399 170.74 171.107 
171.397 171.736 171.991 172.329 172.579 172.923 173.123 161.554 162.023 
161.907 162.113 162.408 162.333 162.584 162.48 162.722 162.846 162.726 
162.996 162.929 163.228 163.126 163.388 163.397 163.207 163.461 163.369 
163.703 163.63 163.943 163.804 164.031 164.037 163.799 164.055 163.907 
164.263 164.152 164.491 164.357 164.63 164.443 164.677 164.742 164.48 
164.757 164.571 164.954 164.794 165.139 164.947 165.222 165.04 165.326 
165.151 165.471 165.465 165.212 165.475 165.283 165.637 165.494 165.826 
165.63 165.875 165.659 165.935 165.785 166.139 166.002 166.356 166.146 
165.927 166.162 165.962 166.242 166.109 166.409 166.268 166.512 166.316 
166.565 166.4 166.74 166.629 166.992 166.857 167.161 166.763 166.585 
166.823 166.618 166.864 166.688 166.965 166.819 167.095 166.929 167.195 
167.028 167.343 167.219 167.566 167.449 167.751 167.598 167.842 161.305 
161.118 161.397 161.762 161.036 161.23 161.563 161.816 162.151 161.034 
161.195 161.495 161.669 162.024 162.253 162.63 160.95 161.185 161.517 
161.666 162.034 162.218 162.66 162.842 163.248 160.875 161.114 161.537 
161.704 162.092 162.272 162.748 162.952 163.418 163.533 163.919 161.029 
161.167 161.636 161.767 162.159 162.317 162.771 163.021 163.53 163.724 
164.144 164.226 164.606 161.267 161.385 161.813 161.925 162.294 162.397 
162.791 163.007 163.504 163.777 164.243 164.417 164.803 164.909 165.299 
161.361 161.528 161.913 162.079 162.456 162.559 162.928 163.057 163.511 
163.741 164.227 164.456 164.871 165.043 165.424 165.572 165.957 161.389 
161.546 161.937 162.136 162.575 162.728 163.146 163.244 163.671 163.809 
164.272 164.46 164.894 165.076 165.465 165.642 166.024 166.192 166.558 
161.56 162.141 161.916 162.135 162.844 162.584 162.806 162.583 162.822 
163.475 163.252 163.458 163.272 163.504 163.277 163.447 164.107 163.831 
163.977 163.827 164.052 163.914 164.104 163.864 163.99 164.908 164.53 
164.627 164.351 164.558 164.409 164.66 164.493 164.681 164.418 164.562 
165.705 165.37 165.48 165.116 165.301 165.019 165.297 165.087 165.353 
165.114 165.298 165.008 165.152 166.35 166.11 166.262 165.967 166.146 
165.843 166.08 165.815 166.075 165.824 166.034 165.748 165.893 165.587 
165.718 166.982 166.752 166.943 166.693 166.879 166.627 166.823 166.578 
166.778 166.54 166.728 166.473 166.626 166.333 166.462 166.153 166.283 
167.635 167.418 167.615 167.371 167.543 167.302 167.474 167.248 167.419 
167.194 167.358 167.129 167.286 167.038 167.177 166.895 167.018 166.714 
166.822 168.032 168.536 168.218 168.019 168.959 168.671 168.5 168.166 
167.935 169.495 169.121 168.96 168.628 168.444 168.086 167.867 170.188 
169.751 169.587 169.17 169.029 168.636 168.457 168.047 167.826 170.873 
170.477 170.342 169.889 169.737 169.294 169.121 168.678 168.446 168.005 
167.762 171.551 171.174 171.081 170.645 170.453 169.998 169.76 169.327 
169.061 168.624 168.346 167.925 167.678 172.224 171.868 171.752 171.342 
171.104 170.65 170.342 169.906 169.602 169.19 168.899 168.492 168.221 
167.827 167.575 172.721 172.444 172.248 171.914 171.627 171.227 170.894 
170.462 170.145 169.72 169.433 169.024 168.75 168.354 168.081 167.696 
167.421 173.03 172.798 172.547 172.275 171.969 171.656 171.339 170.977 
170.667 170.267 169.968 169.559 169.266 168.865 168.566 168.177 167.873 
167.502 167.207 168.122 168.401 168.384 168.612 168.748 168.644 168.849 
168.834 169.047 169.255 169.015 169.144 169.082 169.362 169.342 169.628 
169.763 169.5 169.5 169.384 169.668 169.708 170.101 170.041 170.344 
170.016 169.879 169.798 169.682 169.913 170.016 170.488 170.533 170.873 
170.745 170.985 170.004 170.021 170.019 169.934 170.165 170.261 170.817 
170.941 171.398 171.286 171.528 171.355 171.62 169.88 170.013 170.206 
170.195 170.495 170.551 171.127 171.298 171.89 171.867 172.193 171.967 
172.21 172.036 172.323 169.78 169.967 170.328 170.434 170.792 170.865 
171.314 171.521 172.065 172.264 172.655 172.609 172.815 172.643 172.844 
172.698 172.877 169.775 169.952 170.373 170.562 170.933 171.058 171.341 
171.524 171.854 172.188 172.543 172.812 173.027 173.077 173.195 173.134 
173.253 173.141 173.217 167.791 167.386 167.768 168.116 167.005 167.393 
167.818 168.158 168.547 166.578 167.011 167.453 167.872 168.372 168.707 
169.147 165.989 166.503 166.903 167.42 167.891 168.424 168.957 169.346 
169.717 165.271 165.82 166.201 166.77 167.16 167.764 168.228 168.888 
169.337 169.777 169.961 164.587 165.083 165.474 166.043 166.459 167.007 
167.387 168.004 168.423 169.096 169.395 169.82 169.859 164.055 164.46 
164.83 165.347 165.801 166.343 166.737 167.233 167.584 168.157 168.508 
169.073 169.248 169.609 169.62 163.652 164.005 164.346 164.766 165.176 
165.694 166.104 166.604 166.935 167.419 167.75 168.265 168.543 168.961 
169.077 169.376 169.448 163.269 163.627 163.96 164.324 164.685 165.117 
165.511 165.98 166.333 166.789 167.115 167.592 167.919 168.355 168.585 
168.889 169.021 169.281 169.435 163.154 163.21 163.41 163.858 163.322 
163.483 163.97 164.145 164.607 163.588 163.66 164.173 164.322 164.852 
164.962 165.434 163.954 163.99 164.49 164.601 165.175 165.277 165.765 
165.812 166.243 164.222 164.336 164.794 164.912 165.442 165.595 166.092 
166.16 166.563 166.598 167.015 164.308 164.518 164.953 165.115 165.544 
165.753 166.22 166.407 166.828 166.916 167.319 167.384 167.811 164.312 
164.542 164.966 165.168 165.541 165.755 166.18 166.437 166.904 167.109 
167.554 167.677 168.085 168.154 168.492 164.322 164.521 164.913 165.127 
165.506 165.719 166.146 166.393 166.897 167.151 167.666 167.864 168.31 
168.408 168.732 168.746 168.97 164.343 164.512 164.867 165.069 165.462 
165.686 166.14 166.388 166.903 167.165 167.703 167.949 168.441 168.604 
168.973 169.002 169.242 169.196 169.401 164.469 164.876 164.764 164.994 
165.419 165.244 165.487 165.349 165.616 166.034 165.841 166.096 165.918 
166.214 166.05 166.351 166.632 166.464 166.726 166.551 166.854 166.696 
167.029 166.848 167.153 167.217 167.072 167.365 167.188 167.484 167.326 
167.66 167.521 167.86 167.673 167.96 167.807 167.683 168.03 167.857 
168.163 167.968 168.267 168.117 168.45 168.332 168.652 168.468 168.702 
168.341 168.265 168.628 168.516 168.837 168.657 168.91 168.716 168.971 
168.856 169.155 169.07 169.312 169.128 169.235 168.758 168.732 169.064 
169.036 169.352 169.265 169.51 169.335 169.517 169.347 169.565 169.488 
169.726 169.635 169.752 169.536 169.513 169.097 169.087 169.391 169.394 
169.696 169.683 169.952 169.865 170.063 169.889 170.056 169.902 170.11 
170.012 170.186 170.017 170.047 169.759 169.693 169.933 170.313 170.265 
170.528 170.471 170.569 170.839 170.846 171.063 170.443 170.631 170.925 
171.036 171.232 171.252 171.405 170.435 170.613 170.971 171.095 171.333 
171.36 171.532 171.557 171.822 170.411 170.616 170.991 171.166 171.487 
171.53 171.766 171.741 172.037 172.093 172.48 170.246 170.507 170.831 
171.11 171.463 171.664 171.985 172.042 172.345 172.363 172.706 172.767 
173.045 169.987 170.268 170.584 170.886 171.263 171.561 171.974 172.196 
172.582 172.673 172.991 173.006 173.244 173.222 173.323 169.696 169.989 
170.335 170.649 171.067 171.379 171.851 172.148 172.643 172.855 173.274 
173.319 173.582 173.492 173.606 173.458 173.449 169.392 169.687 170.024 
170.378 170.794 171.169 171.623 171.993 172.48 172.833 173.314 173.543 
173.886 173.881 174.011 173.827 173.794 173.565 173.444 157.993 158.452 
158.103 157.993 159.201 158.77 158.689 158.262 158.263 159.959 159.583 
159.534 159.071 159.02 158.639 158.745 160.702 160.349 160.35 159.912 
159.844 159.415 159.454 159.165 159.341 161.506 161.137 161.178 160.744 
160.727 160.265 160.316 159.934 160.119 159.815 160.014 162.253 161.924 
161.941 161.564 161.591 161.187 161.303 160.894 161.102 160.709 160.923 
160.532 160.688 162.889 162.6 162.6 162.27 162.316 162.013 162.19 
161.884 162.106 161.733 161.898 161.481 161.59 161.187 161.307 163.479 
163.216 163.276 162.948 163.051 162.748 162.971 162.716 162.953 162.648 
162.764 162.386 162.429 162.05 162.134 161.795 161.961 164.02 163.81 
163.943 163.672 163.84 163.547 163.784 163.511 163.739 163.435 163.536 
163.169 163.184 162.821 162.888 162.58 162.741 162.462 162.674 157.878 
157.752 157.745 157.754 157.984 157.74 157.674 157.694 157.783 158.521 
158.135 158.038 157.82 157.905 157.848 157.975 159.114 158.714 158.568 
158.278 158.289 158.135 158.259 158.157 158.323 159.701 159.275 159.032 
158.725 158.614 158.469 158.511 158.456 158.598 158.568 158.818 160.344 
159.876 159.624 159.206 159.075 158.791 158.821 158.686 158.839 158.806 
159.06 159.101 159.442 161.014 160.551 160.38 159.921 159.893 159.465 
159.574 159.215 159.424 159.182 159.469 159.379 159.724 159.746 160.087 
161.73 161.271 161.158 160.731 160.765 160.386 160.543 160.16 160.361 
159.985 160.225 159.95 160.242 160.106 160.406 160.365 160.623 162.487 
162.043 161.952 161.526 161.536 161.203 161.327 161.047 161.198 160.896 
161.045 160.75 160.943 160.71 160.932 160.765 160.973 160.873 161.071 
158.033 157.977 158.123 158.335 157.925 158.058 158.254 158.384 158.416 
157.946 157.961 158.055 158.215 158.268 158.339 158.263 158.24 158.044 
158.034 158.031 158.133 158.211 158.312 158.293 158.386 158.826 158.493 
158.474 158.211 158.322 158.248 158.51 158.495 158.762 158.671 158.889 
159.518 159.186 159.191 158.812 158.842 158.616 158.852 158.82 159.15 
159.107 159.326 159.2 159.325 160.153 159.888 159.901 159.536 159.466 
159.152 159.241 159.168 159.467 159.482 159.725 159.613 159.717 159.555 
159.662 160.662 160.47 160.522 160.218 160.161 159.774 159.776 159.557 
159.807 159.791 160.112 160.032 160.209 160.006 160.147 159.965 160.192 
161.091 160.932 161.045 160.827 160.882 160.52 160.549 160.191 160.379 
160.214 160.547 160.461 160.713 160.541 160.703 160.512 160.733 160.595 
160.888 167.482 166.832 167.114 167.04 166.218 166.469 166.383 166.672 
166.63 165.602 165.874 165.758 166.015 165.924 166.249 166.191 164.84 
165.199 165.077 165.363 165.208 165.511 165.393 165.748 165.62 164.03 
164.385 164.281 164.615 164.449 164.756 164.597 164.932 164.787 165.121 
164.941 163.327 163.606 163.473 163.793 163.625 163.946 163.767 164.111 
163.957 164.299 164.135 164.443 164.277 162.644 162.904 162.713 163.003 
162.8 163.101 162.887 163.231 163.046 163.428 163.262 163.627 163.475 
163.818 163.723 161.939 162.182 161.977 162.248 162.042 162.304 162.088 
162.37 162.184 162.516 162.355 162.72 162.576 162.968 162.88 163.293 
163.272 161.366 161.52 161.327 161.541 161.355 161.585 161.395 161.636 
161.478 161.745 161.614 161.893 161.758 162.077 161.981 162.393 162.374 
162.841 162.863 
POINT_DATA 1002
SCALARS Distance double
LOOKUP_TABLE default
164.538 164.196 163.931 164.32 163.671 165.01 164.152 163.5 164.863 
165.609 164.039 163.39 164.727 165.485 166.22 163.836 163.147 164.535 
165.291 166.061 166.78 163.495 162.808 164.245 165.041 165.831 166.584 
167.336 163.265 162.635 164.009 164.838 165.65 166.392 167.142 167.907 
163.235 162.627 163.923 164.713 165.538 166.288 167.003 167.735 168.407 
163.238 162.626 163.874 164.571 165.356 166.148 166.893 167.605 168.245 
168.786 163.208 162.603 163.808 164.421 165.126 165.911 166.706 167.469 
168.125 168.649 169.112 163.705 163.398 163.166 162.806 162.583 163.058 
162.099 161.878 162.353 162.83 161.264 161.048 161.575 162.084 162.692 
160.476 160.29 160.84 161.383 161.962 162.434 159.834 159.602 160.231 
160.785 161.297 161.732 162.152 159.174 158.84 159.652 160.241 160.69 
161.049 161.505 162.046 158.559 158.207 159.075 159.723 160.171 160.416 
160.829 161.426 162.036 158.274 157.983 158.681 159.261 159.741 159.93 
160.2 160.776 161.423 162.019 158.259 158.479 158.495 158.501 158.347 
158.795 158.189 158.181 158.596 159.215 158.151 158.541 158.216 158.806 
159.459 158.672 159.093 158.341 158.492 159.069 159.666 159.17 159.411 
158.892 158.765 159.061 159.633 160.221 159.522 159.794 159.334 159.26 
159.445 159.902 160.436 160.941 160.109 160.461 159.821 159.726 159.89 
160.258 160.704 161.145 161.581 160.904 161.2 160.569 160.386 160.462 
160.712 161.034 161.399 161.797 162.209 163 162.645 163.485 162.253 
163.2 163.964 161.885 162.871 163.748 164.394 161.614 162.573 163.504 
164.257 164.92 161.418 162.374 163.219 164.059 164.864 165.662 161.271 
162.237 162.978 163.708 164.657 165.608 166.482 161.291 162.163 162.895 
163.471 164.31 165.386 166.347 167.178 161.51 162.216 162.939 163.524 
164.164 165.108 166.119 166.966 167.692 161.751 162.332 162.985 163.637 
164.224 164.936 165.836 166.708 167.44 168.07 163.632 164.104 164.238 
164.583 164.781 164.921 165.104 165.436 165.635 165.723 165.81 166.157 
166.472 166.537 166.567 166.693 166.97 167.267 167.406 167.401 167.416 
167.507 167.789 167.987 168.151 168.254 168.24 168.171 168.086 168.422 
168.596 168.734 168.946 169.032 168.901 168.733 168.469 168.842 169.08 
169.239 169.476 169.666 169.596 169.369 169.193 168.645 169.072 169.262 
169.744 169.963 169.458 170.521 170.712 170.248 169.768 171.264 171.443 
171.141 170.725 170.056 172 172.179 171.895 171.636 170.992 170.265 
172.891 172.821 172.746 172.391 171.748 170.956 170.236 173.621 173.179 
173.729 173.324 172.524 171.624 170.787 170.029 173.83 173.28 174.224 
174.1 173.375 172.404 171.485 170.616 169.822 173.684 173.271 174.067 
174.186 173.799 172.99 172.097 171.244 170.405 169.671 168.019 168.615 
167.898 168.524 167.687 169.287 168.345 167.484 169.242 170.059 168.154 
167.359 169.064 170.048 170.886 168.02 167.242 168.851 169.814 170.886 
171.668 167.921 167.122 168.743 169.556 170.579 171.586 172.248 167.826 
167.063 168.668 169.444 170.263 171.189 171.939 172.531 167.717 167.021 
168.501 169.285 170.029 170.791 171.483 172.066 172.672 167.562 166.918 
168.253 168.969 169.677 170.379 171.05 171.66 172.249 172.818 161.713 
162.258 162.097 162.646 162.483 162.85 163.052 163.005 163.291 163.544 
163.568 163.62 163.766 164.055 164.233 164.209 164.282 164.388 164.636 
164.785 164.874 164.948 164.998 165.115 165.359 165.422 165.462 165.643 
165.692 165.706 165.786 166.009 166.11 166.094 166.25 166.526 166.385 
166.349 166.409 166.532 166.685 166.744 166.857 167.114 167.337 161.003 
161.477 160.876 161.338 160.895 161.874 161.353 160.855 161.797 162.402 
161.35 160.646 161.85 162.457 163.122 161.348 160.633 161.915 162.512 
163.277 163.858 161.522 160.933 162.038 162.526 163.277 164.038 164.539 
161.702 161.167 162.217 162.629 163.219 164.016 164.677 165.193 161.717 
161.201 162.32 162.832 163.326 163.988 164.677 165.262 165.818 161.721 