# vtk DataFile Version 4.0
vtk output
ASCII
DATASET POLYDATA
POINTS 1002 float
-121.457 -102.455 48.4962 -121.598 -102.239 47.7439 -121.001 -102.212 48.0648 
-120.86 -102.515 48.8605 -120.426 -102.192 48.4676 -121.349 -102.944 49.1223 
-120.276 -102.573 49.2561 -119.752 -102.242 48.8763 -120.719 -103.074 49.4577 
-121.263 -103.41 49.7748 -119.603 -102.653 49.6359 -118.924 -102.441 49.2062 
-120.13 -103.04 49.9372 -120.593 -103.408 50.2789 -121.131 -103.56 50.847 
-118.784 -102.83 49.9708 -118.069 -102.699 49.4879 -119.488 -102.941 50.541 
-120.023 -103.195 51.0375 -120.465 -103.572 51.4405 -121.034 -103.903 51.8438 
-117.931 -102.972 50.3421 -117.319 -102.802 49.8259 -118.639 -103.048 51.0498 
-119.345 -103.15 51.7572 -119.872 -103.613 52.0471 -120.382 -104.239 52.1275 
-121.043 -104.641 52.3234 -117.197 -102.951 50.8582 -116.658 -102.779 50.29 
-117.721 -103.253 51.4271 -118.378 -103.542 52.0393 -119.059 -103.944 52.3579 
-119.671 -104.539 52.4207 -120.306 -104.946 52.6612 -120.976 -105.029 53.0962 
-116.587 -102.964 51.4556 -116.084 -102.792 50.86 -117.007 -103.36 51.8742 
-117.471 -103.955 52.1667 -118.08 -104.449 52.405 -118.789 -104.787 52.692 
-119.512 -104.996 53.2153 -120.185 -105.024 53.8561 -120.797 -104.993 54.3683 
-116.061 -103.113 51.9571 -115.632 -102.841 51.4141 -116.478 -103.457 52.3637 
-116.88 -104.062 52.5552 -117.344 -104.689 52.7073 -117.954 -104.962 53.0925 
-118.708 -104.974 53.7861 -119.465 -104.969 54.5256 -120.124 -105.03 55.0272 
-120.702 -105.153 55.3306 -115.619 -103.24 52.3065 -115.265 -102.854 51.8553 
-116.018 -103.568 52.7406 -116.417 -104.026 53.0515 -116.833 -104.613 53.3004 
-117.327 -104.991 53.708 -117.971 -105.056 54.3388 -118.735 -105.07 54.9688 
-119.487 -105.19 55.3724 -120.155 -105.388 55.5914 -120.734 -105.569 55.8132 
-121.302 -102.097 47.201 -120.653 -102.091 47.4393 -120.878 -101.811 46.7954 
-120.083 -101.941 46.9006 -120.361 -101.321 46.5327 -119.947 -102.087 47.787 
-119.366 -101.605 46.5503 -119.834 -100.8 46.2093 -119.179 -102.046 47.1064 
-119.102 -102.136 48.2061 -118.764 -101.079 46.2664 -119.331 -100.252 45.8454 
-118.405 -101.762 46.7002 -118.313 -102.035 47.5267 -118.214 -102.289 48.6442 
-118.423 -100.4 46.0724 -118.982 -99.5003 45.7266 -117.991 -101.137 46.6132 
-117.778 -101.612 47.2141 -117.579 -102.02 48.0995 -117.392 -102.5 49.005 
-118.235 -99.6338 46.0717 -118.832 -98.6788 45.8397 -117.772 -100.381 46.6442 
-117.529 -100.885 47.2593 -117.188 -101.49 47.8241 -116.754 -102.222 48.4655 
-116.599 -102.662 49.2732 -117.999 -98.9196 46.1338 -118.6 -98.0269 45.9228 
-117.41 -99.7043 46.5485 -117.109 -100.176 47.1585 -116.836 -100.777 47.718 
-116.271 -101.745 48.125 -115.862 -102.475 48.6957 -115.907 -102.689 49.6951 
-117.66 -98.3273 46.1691 -118.139 -97.5428 45.8929 -117.022 -99.1455 46.411 
-116.538 -99.6645 46.777 -116.313 -100.127 47.3957 -115.941 -101.051 47.995 
-115.444 -102.021 48.484 -115.296 -102.434 49.2657 -115.461 -102.578 50.3778 
-117.356 -97.8475 46.243 -117.692 -97.1645 45.8422 -116.842 -98.6515 46.4877 
-116.27 -99.2789 46.6068 -115.904 -99.676 47.0295 -115.66 -100.35 47.8249 
-115.325 -101.332 48.5516 -115.083 -101.951 49.226 -115.085 -102.159 50.1229 
-115.178 -102.433 51.083 -117.3 -97.243 46.2322 -116.94 -97.9645 46.7237 
-117.041 -97.3239 46.9241 -116.607 -97.9839 47.3303 -116.584 -97.2293 47.6012 
-116.442 -98.7379 46.886 -116.092 -97.8214 47.834 -115.918 -97.0305 48.0992 
-116.128 -98.6872 47.4693 -115.911 -99.274 47.0353 -115.566 -97.7585 48.4058 
-115.508 -97.1204 48.8394 -115.673 -98.5671 48.1814 -115.568 -99.2215 47.9004 
-115.495 -99.7593 47.7178 -115.414 -98.1091 49.4126 -115.492 -97.5985 49.9767 
-115.303 -98.6933 49.0587 -115.056 -99.2308 48.8665 -114.987 -99.8704 48.7153 
-115.169 -100.615 48.6416 -115.426 -98.6043 50.6459 -115.528 -98.1044 51.0745 
-115.191 -99.0721 50.1587 -114.671 -99.4063 49.7371 -114.364 -99.95 49.4813 
-114.621 -100.722 49.4387 -114.96 -101.403 49.4051 -115.27 -98.8587 51.7518 
-115.468 -98.4347 51.9953 -115.022 -99.3076 51.3458 -114.517 -99.5836 50.7793 
-114.011 -99.9715 50.2571 -114.068 -100.676 50.0725 -114.553 -101.297 50.1893 
-114.902 -101.729 50.2295 -115.104 -98.9706 52.7321 -115.45 -98.7069 52.8682 
-114.748 -99.3287 52.4718 -114.369 -99.6351 52.0143 -114.002 -99.9718 51.4646 
-113.851 -100.613 51.0676 -114.092 -101.291 51.0034 -114.522 -101.688 51.1097 
-114.872 -102.029 51.1253 -115.136 -99.1729 53.5852 -115.554 -99.0207 53.6308 
-114.646 -99.4049 53.4646 -114.236 -99.7016 53.1924 -114.047 -100.059 52.8197 
-113.968 -100.66 52.4431 -113.924 -101.424 52.1446 -114.073 -101.938 51.9876 
-114.437 -102.214 51.917 -114.857 -102.528 51.8638 -115.111 -103.109 52.4863 
-114.622 -102.821 52.56 -115.055 -103.279 53.2613 -114.156 -102.59 52.753 
-114.6 -103.003 53.5039 -115.136 -103.418 54.3597 -113.948 -102.296 53.0838 
-114.209 -102.808 53.8829 -114.817 -103.074 54.765 -115.231 -103.674 55.6048 
-114.027 -101.638 53.5021 -114.075 -102.452 54.3949 -114.467 -102.797 55.1963 
-115.021 -103.194 56.0126 -115.33 -103.921 56.7125 -114.044 -100.811 53.8589 
-114.035 -101.711 54.8991 -114.173 -102.331 55.7 -114.683 -102.78 56.3527 
-115.201 -103.386 57.0187 -115.609 -103.964 57.6445 -114.012 -100.221 54.1078 
-113.914 -100.918 55.1944 -113.953 -101.566 56.1423 -114.377 -102.197 56.7398 
-115.008 -102.925 57.2839 -115.522 -103.516 57.9533 -116.037 -103.842 58.4914 
-114.325 -99.8553 54.274 -114.075 -100.403 55.2551 -114.003 -100.885 56.2869 
-114.326 -101.425 57.0193 -114.918 -102.27 57.5586 -115.402 -103.084 58.2801 
-115.839 -103.475 58.9685 -116.407 -103.68 59.3107 -114.925 -99.6087 54.3173 
-114.665 -100.1 55.1518 -114.467 -100.499 56.1327 -114.603 -100.83 57.0284 
-115.022 -101.47 57.7311 -115.346 -102.408 58.5332 -115.595 -103.071 59.3896 
-116.061 -103.33 59.8989 -116.691 -103.581 60.0692 -115.475 -99.4471 54.2729 
-115.316 -99.8784 54.9836 -115.078 -100.236 55.8814 -115.011 -100.482 56.8781 
-115.214 -100.847 57.7906 -115.384 -101.591 58.6938 -115.457 -102.439 59.6041 
-115.757 -102.952 60.2484 -116.351 -103.225 60.5378 -116.977 -103.569 60.7081 
-115.508 -103.505 52.9533 -115.439 -103.739 53.8188 -115.882 -103.919 53.4229 
-115.368 -104.12 54.9503 -115.681 -104.354 54.3228 -116.251 -104.452 53.8381 
-115.382 -104.51 56.1621 -115.555 -104.854 55.4082 -116.053 -104.895 54.7995 
-116.727 -104.921 54.3133 -115.691 -104.533 57.3009 -115.841 -104.991 56.657 
-116.178 -105.155 55.8922 -116.712 -105.192 55.3487 -117.338 -105.165 54.8969 
-116.234 -104.293 58.2141 -116.458 -104.74 57.85 -116.734 -105.052 57.179 
-117.019 -105.33 56.4035 -117.427 -105.485 55.8344 -118.058 -105.333 55.4009 
-116.733 -104.097 58.9331 -116.989 -104.548 58.6898 -117.254 -104.921 58.3309 
-117.476 -105.324 57.6336 -117.672 -105.713 56.8453 -118.138 -105.782 56.182 
-118.857 -105.513 55.702 -117.079 -104.021 59.6917 -117.32 -104.509 59.4458 
-117.506 -104.924 59.2516 -117.772 -105.331 58.7874 -118.013 -105.72 58.1064 
-118.324 -105.904 57.3482 -118.946 -105.866 56.5193 -119.657 -105.677 55.8996 
-117.333 -104.038 60.5178 -117.559 -104.533 60.3832 -117.674 -104.931 60.2924 
-117.919 -105.311 59.9277 -118.311 -105.674 59.2952 -118.654 -105.793 58.6872 
-119.105 -105.77 57.9002 -119.778 -105.834 56.8854 -120.376 -105.818 56.1441 
-117.466 -103.882 61.329 -117.724 -104.446 61.363 -117.834 -104.155 62.1913 
-118.071 -104.731 62.3139 -118.238 -104.206 62.9443 -117.865 -104.882 61.4405 
-118.59 -104.803 62.9254 -118.939 -104.108 63.3325 -118.261 -105.127 62.4006 
-118.038 -105.219 61.2859 -119.42 -104.803 63.2265 -119.891 -104.107 63.5824 
-118.917 -105.317 62.9021 -118.611 -105.537 62.0194 -118.486 -105.623 60.5892 
-120.431 -104.86 63.4673 -120.843 -104.214 63.7613 -119.881 -105.415 63.1513 
-119.411 -105.793 62.4116 -119.2 -105.889 61.0829 -119.001 -105.796 59.8156 
-121.377 -104.889 63.43 -121.673 -104.203 63.5978 -120.972 -105.381 63.1771 
-120.448 -105.746 62.6271 -120.012 -105.92 61.4598 -119.729 -105.769 60.2404 
-119.431 -105.63 59.1705 -122.127 -104.74 63.0189 -122.374 -104.014 63.1163 
-121.846 -105.267 62.794 -121.481 -105.56 62.4754 -121.003 -105.744 61.634 
-120.564 -105.718 60.4577 -120.269 -105.577 59.3815 -120.031 -105.662 58.1558 
-122.746 -104.459 62.5103 -122.971 -103.791 62.5668 -122.47 -105.063 62.2593 
-122.229 -105.445 61.9885 -121.948 -105.667 61.4317 -121.551 -105.76 60.4118 
-121.184 -105.726 59.3113 -120.936 -105.77 58.198 -120.689 -105.892 57.0233 
-123.309 -104.195 62.0334 -123.486 -103.617 62.0485 -123.051 -104.803 61.8216 
-122.834 -105.306 61.5339 -122.686 -105.657 61.0739 -122.449 -105.847 60.2168 
-122.077 -105.862 59.161 -121.729 -105.85 58.1739 -121.436 -105.904 57.2061 
-121.103 -105.844 56.3597 -116.978 -103.284 61.0662 -117.503 -103.459 61.7609 
-117.11 -102.864 61.2125 -117.612 -102.858 62.0252 -117.27 -102.24 61.2765 
-117.852 -103.516 62.7216 -117.742 -102.201 62.1005 -117.36 -101.519 61.3855 
-117.957 -102.79 63.0287 -118.341 -103.414 63.4508 -117.967 -101.645 61.9803 
-117.585 -100.933 61.399 -118.279 -102.281 62.821 -118.622 -102.757 63.5756 
-119.242 -103.35 63.7263 -118.439 -101.19 61.6388 -118.067 -100.483 61.1507 
-118.863 -101.942 62.2211 -119.202 -102.41 63.0252 -119.693 -102.8 63.6375 
-120.311 -103.434 63.8377 -118.98 -100.66 61.1681 -118.563 -99.9778 60.7776 
-119.478 -101.499 61.5687 -119.86 -102.081 62.2495 -120.255 -102.391 63.0175 
-120.77 -102.819 63.5524 -121.261 -103.491 63.7625 -119.385 -100.013 60.7954 
-118.979 -99.4888 60.3866 -119.887 -100.819 61.0719 -120.302 -101.549 61.5827 
-120.69 -101.965 62.3055 -121.172 -102.304 62.861 -121.645 -102.796 63.1913 
-122.045 -103.41 63.3153 -119.781 -99.4962 60.4491 -119.429 -99.2141 59.8534 
-120.223 -100.058 60.7902 -120.64 -100.77 61.1033 -121.042 -101.381 61.6233 
-121.492 -101.863 62.108 -121.922 -102.323 62.3573 -122.307 -102.792 62.5586 
-122.681 -103.288 62.6936 -120.232 -99.2488 59.8751 -119.886 -99.0796 59.1757 
-120.64 -99.5392 60.4312 -121.052 -99.9766 60.7913 -121.488 -100.543 61.1175 
[...]
CELL_DATA 2000
SCALARS Distance double
LOOKUP_TABLE default
164.849 164.526 164.834 165.173 164.218 164.541 164.892 165.216 165.588 
163.87 164.229 164.591 164.93 165.282 165.616 165.955 163.494 163.868 
164.242 164.606 164.961 165.298 165.641 165.964 166.332 163.11 163.481 
163.849 164.236 164.62 164.981 165.368 165.691 166.106 166.424 166.875 
162.744 163.093 163.448 163.832 164.233 164.634 165.057 165.429 165.865 
166.218 166.663 167.002 167.408 162.474 162.772 163.141 163.468 163.88 
164.261 164.699 165.094 165.52 165.918 166.336 166.726 167.101 167.444 
167.751 162.32 162.576 162.967 163.234 163.65 163.969 164.415 164.764 
165.188 165.548 165.953 166.342 166.736 167.104 167.451 167.755 168.064 
162.204 162.457 162.842 163.096 163.488 163.776 164.202 164.523 164.947 
165.262 165.662 165.992 166.401 166.756 167.157 167.484 167.851 168.126 
168.468 164.613 164.089 164.322 164.25 163.414 163.73 163.655 163.941 
163.893 162.618 162.979 162.896 163.255 163.184 163.535 163.501 161.798 
162.153 162.051 162.432 162.36 162.752 162.719 163.116 163.112 161.035 
161.358 161.288 161.626 161.588 161.941 161.931 162.317 162.338 162.736 
162.747 160.386 160.661 160.635 160.938 160.936 161.248 161.245 161.575 
161.579 161.956 161.973 162.366 162.379 159.811 160.065 159.995 160.29 
160.233 160.575 160.535 160.893 160.854 161.21 161.186 161.571 161.591 
162.006 162.073 159.213 159.483 159.373 159.631 159.491 159.798 159.702 
160.098 160.08 160.48 160.482 160.833 160.859 161.232 161.33 161.756 
161.901 158.641 158.902 158.868 159.069 158.969 159.132 159.031 159.295 
159.328 159.719 159.848 160.212 160.32 160.617 160.728 161.067 161.227 
161.634 161.801 158.407 158.353 158.471 158.671 158.291 158.442 158.582 
158.694 158.79 157.966 158.252 158.426 158.606 158.674 158.746 158.824 
157.724 157.907 158.171 158.404 158.572 158.662 158.756 158.845 159.086 
158.068 157.956 158.252 158.283 158.511 158.566 158.725 158.825 159.093 
159.265 159.637 158.741 158.54 158.789 158.612 158.735 158.602 158.681 
158.748 159.014 159.259 159.643 159.849 160.168 159.253 159.134 159.288 
159.144 159.143 158.91 158.825 158.729 158.885 159.103 159.503 159.798 
160.158 160.322 160.584 159.641 159.508 159.571 159.471 159.445 159.26 
159.168 158.965 159.052 159.068 159.442 159.66 160.088 160.291 160.618 
160.747 161.05 160.104 159.887 159.905 159.722 159.717 159.539 159.562 
159.375 159.539 159.419 159.777 159.784 160.213 160.299 160.672 160.788 
161.123 161.256 161.6 161.875 161.384 161.792 162.147 160.951 161.328 
161.704 162.115 162.557 160.614 160.98 161.401 161.748 162.226 162.624 
163.145 160.297 160.705 161.203 161.533 161.994 162.339 162.848 163.256 
163.774 159.985 160.385 160.892 161.302 161.727 162.089 162.521 162.935 
163.437 163.867 164.352 159.829 160.088 160.5 160.904 161.298 161.711 
162.103 162.551 163.051 163.523 164.057 164.456 164.917 159.924 160.015 
160.353 160.58 160.963 161.278 161.69 162.102 162.638 163.139 163.742 
164.188 164.693 165.023 165.423 160.169 160.194 160.531 160.6 160.977 
161.114 161.531 161.792 162.32 162.753 163.372 163.86 164.399 164.787 
165.183 165.489 165.84 160.417 160.465 160.809 160.85 161.192 161.251 
161.609 161.753 162.193 162.499 163.034 163.474 163.998 164.436 164.849 
165.209 165.554 165.88 166.239 162.252 162.541 162.563 162.9 162.943 
162.895 163.242 163.225 163.559 163.514 163.379 163.699 163.61 163.952 
163.918 164.274 164.151 164.003 164.305 164.137 164.443 164.348 164.711 
164.672 165.024 164.739 164.631 164.968 164.79 165.08 164.902 165.236 
165.141 165.509 165.431 165.755 165.274 165.2 165.583 165.459 165.796 
165.596 165.913 165.732 166.086 165.959 166.309 166.183 166.499 165.756 
165.714 166.106 166.049 166.431 166.303 166.637 166.448 166.767 166.587 
166.918 166.768 167.095 166.952 167.256 166.195 166.177 166.577 166.548 
166.937 166.877 167.233 167.122 167.44 167.274 167.56 167.385 167.679 
167.538 167.842 167.702 167.97 166.633 166.628 167.065 167.031 167.43 
167.364 167.727 167.656 168.004 167.899 168.189 168.016 168.258 168.096 
168.37 168.257 168.542 168.396 168.618 167.027 167.804 167.461 167.503 
168.503 168.239 168.305 167.911 167.871 169.101 168.902 169.029 168.696 
168.664 168.233 168.153 169.775 169.533 169.722 169.418 169.463 169.042 
168.978 168.521 168.442 170.572 170.293 170.504 170.175 170.277 169.869 
169.832 169.362 169.244 168.782 168.634 171.234 171.059 171.255 170.978 
171.06 170.687 170.616 170.169 169.979 169.523 169.299 168.871 168.669 
171.57 171.55 171.708 171.586 171.631 171.381 171.276 170.884 170.646 
170.188 169.933 169.499 169.307 168.903 168.767 171.697 171.743 171.873 
171.859 171.901 171.796 171.738 171.468 171.28 170.85 170.617 170.158 
169.995 169.577 169.473 169.066 168.955 171.775 171.824 171.957 171.96 
172.036 171.991 172.022 171.874 171.799 171.475 171.28 170.852 170.655 
170.257 170.115 169.748 169.598 169.211 169.022 166.856 166.777 167.083 
167.598 166.592 166.955 167.446 167.784 168.253 166.304 166.714 167.202 
167.572 168.032 168.375 168.825 166.053 166.433 166.979 167.339 167.841 
168.163 168.664 168.982 169.5 165.959 166.271 166.876 167.205 167.778 
168.054 168.592 168.879 169.443 169.747 170.301 165.886 166.205 166.793 
167.152 167.741 168.039 168.555 168.832 169.348 169.673 170.196 170.52 
170.965 165.732 166.061 166.579 166.992 167.534 167.924 168.395 168.728 
169.158 169.501 169.932 170.302 170.692 171.031 171.32 165.624 165.886 
166.345 166.709 167.196 167.608 168.062 168.458 168.868 169.234 169.604 
169.959 170.289 170.652 170.935 171.264 171.469 165.605 165.815 166.238 
166.507 166.947 167.273 167.711 168.088 168.522 168.905 169.285 169.618 
169.916 170.231 170.496 170.837 171.085 171.388 171.567 160.648 161.134 
160.954 161.067 161.629 161.437 161.54 161.35 161.434 162.168 161.942 
162.005 161.795 161.873 161.702 161.819 162.694 162.484 162.537 162.284 
162.346 162.145 162.303 162.148 162.379 163.172 162.99 163.102 162.86 
162.956 162.695 162.867 162.676 162.953 162.811 163.161 163.69 163.488 
163.664 163.46 163.639 163.378 163.557 163.306 163.559 163.397 163.744 
163.648 164.046 164.237 164.033 164.209 164.042 164.262 164.063 164.247 
164.001 164.205 164.015 164.326 164.218 164.596 164.52 164.885 164.74 
164.559 164.718 164.572 164.79 164.647 164.84 164.638 164.82 164.632 
164.924 164.809 165.193 165.089 165.457 165.33 165.639 165.239 165.06 
165.235 165.074 165.308 165.17 165.419 165.231 165.452 165.242 165.531 
165.401 165.793 165.701 166.091 165.95 166.274 166.09 166.365 160.458 
160.317 160.565 160.935 160.242 160.44 160.81 161.056 161.447 160.269 
160.413 160.747 160.946 161.344 161.598 162.005 160.316 160.457 160.769 
160.914 161.251 161.482 161.896 162.165 162.537 160.351 160.484 160.796 
160.939 161.235 161.401 161.769 162.032 162.452 162.688 163.028 160.456 
160.535 160.843 160.97 161.295 161.417 161.776 161.961 162.421 162.649 
163.096 163.239 163.585 160.597 160.674 160.994 161.083 161.453 161.538 
161.933 162.049 162.518 162.705 163.208 163.371 163.781 163.852 164.161 
160.647 160.795 161.154 161.276 161.664 161.752 162.146 162.242 162.665 
162.825 163.269 163.465 163.856 164.008 164.31 164.391 164.648 160.646 
160.824 161.219 161.401 161.79 161.931 162.286 162.412 162.764 162.921 
163.27 163.458 163.771 163.973 164.253 164.438 164.709 164.837 165.108 
160.818 161.399 161.18 161.404 162.126 161.81 161.958 161.77 161.974 
162.949 162.568 162.631 162.337 162.469 162.294 162.464 163.765 163.398 
163.44 163.054 163.115 162.824 162.965 162.78 162.953 164.49 164.173 
164.241 163.874 163.929 163.555 163.652 163.352 163.496 163.282 163.442 
165.218 164.885 164.967 164.64 164.735 164.39 164.491 164.126 164.208 
163.877 163.964 163.743 163.884 166.006 165.645 165.716 165.372 165.482 
165.172 165.312 164.975 165.059 164.657 164.684 164.322 164.403 164.187 
164.354 166.719 166.404 166.444 166.117 166.193 165.902 166.034 165.754 
165.867 165.508 165.549 165.127 165.183 164.822 164.967 164.716 164.885 
167.28 167.029 167.048 166.777 166.82 166.562 166.658 166.421 166.53 
166.256 166.326 165.977 166.044 165.671 165.792 165.448 165.589 165.277 
165.372 167.569 167.974 167.623 167.352 168.452 168.065 167.777 167.415 
167.153 168.901 168.549 168.269 167.885 167.62 167.25 167.012 169.314 
168.989 168.762 168.395 168.151 167.76 167.509 167.131 166.886 169.833 
169.464 169.284 168.907 168.706 168.316 168.07 167.653 167.373 166.984 
166.698 170.435 170.054 169.867 169.466 169.268 168.886 168.659 168.233 
167.937 167.494 167.191 166.784 166.478 170.942 170.618 170.388 170.018 
169.774 169.426 169.192 168.808 168.498 168.053 167.715 167.295 166.992 
166.581 166.267 171.293 171.029 170.761 170.443 170.155 169.856 169.599 
169.283 168.959 168.559 168.166 167.766 167.411 167.056 166.731 166.352 
166.018 171.533 171.314 171.046 170.757 170.455 170.172 169.898 169.624 
169.309 168.961 168.554 168.159 167.75 167.402 167.037 166.721 166.363 
166.039 165.705 167.781 168.243 168.078 168.217 168.707 168.584 168.78 
168.578 168.721 169.108 169.066 169.333 169.17 169.323 169.076 169.159 
169.433 169.463 169.818 169.731 169.913 169.668 169.709 169.447 169.514 
169.711 169.781 170.216 170.222 170.498 170.276 170.304 169.982 170.004 
169.799 169.967 169.964 170.049 170.519 170.616 171.021 170.897 170.992 
170.621 170.573 170.278 170.405 170.299 170.546 170.187 170.282 170.721 
170.872 171.311 171.362 171.555 171.309 171.237 170.871 170.877 170.705 
170.924 170.871 171.084 170.343 170.461 170.807 170.972 171.28 171.468 
171.641 171.677 171.648 171.455 171.395 171.182 171.306 171.22 171.441 
171.358 171.48 170.381 170.528 170.754 170.915 171.038 171.238 171.277 
171.492 171.49 171.61 171.621 171.599 171.693 171.612 171.779 171.693 
171.824 171.693 171.726 167.613 167.419 167.7 168.033 167.057 167.444 
167.792 168.1 168.432 166.542 167.005 167.38 167.781 168.101 168.445 
168.762 165.989 166.452 166.837 167.302 167.662 168.061 168.38 168.737 
169.053 165.471 165.906 166.286 166.754 167.181 167.624 168.034 168.392 
168.743 169.048 169.357 164.981 165.401 165.784 166.235 166.697 167.176 
167.681 168.097 168.528 168.817 169.126 169.363 169.631 164.54 164.939 
165.335 165.76 166.21 166.697 167.207 167.713 168.178 168.577 168.886 
169.147 169.356 169.604 169.841 164.17 164.545 164.962 165.353 165.785 
166.217 166.669 167.172 167.61 168.109 168.434 168.812 169.004 169.287 
169.467 169.772 170.001 163.85 164.209 164.641 165.019 165.459 165.834 
166.245 166.647 167.04 167.501 167.866 168.3 168.567 168.893 169.082 
169.372 169.573 169.896 170.091 163.817 164.062 164.164 164.63 164.382 
164.466 164.971 165.033 165.485 164.763 164.835 165.353 165.406 165.855 
165.871 166.256 165.116 165.21 165.683 165.754 166.165 166.213 166.577 
166.604 166.986 165.361 165.494 165.888 165.984 166.342 166.452 166.851 
166.928 167.342 167.374 167.793 165.498 165.663 166.017 166.11 166.439 
166.575 167.038 167.203 167.717 167.779 168.201 168.184 168.523 165.5 
165.724 166.084 166.213 166.543 166.677 167.135 167.36 167.903 168.094 
168.519 168.563 168.835 168.812 169.044 165.345 165.627 165.987 166.221 
166.569 166.763 167.161 167.4 167.842 168.12 168.494 168.702 168.951 
169.04 169.245 169.272 169.51 165.135 165.408 165.761 166.058 166.435 
166.713 167.086 167.341 167.676 167.939 168.233 168.509 168.772 169.006 
169.25 169.4 169.649 169.732 169.989 165.157 165.482 165.452 165.782 
165.909 165.845 166.172 166.139 166.495 166.284 166.266 166.59 166.56 
166.891 166.859 167.172 166.661 166.622 166.949 166.935 167.237 167.223 
167.491 167.472 167.721 167.211 167.089 167.426 167.325 167.623 167.549 
167.799 167.756 167.99 167.974 168.223 167.753 167.682 168.034 167.9 
168.188 168.011 168.238 168.101 168.34 168.272 168.542 168.508 168.781 
168.078 168.115 168.474 168.464 168.761 168.619 168.799 168.596 168.77 
168.651 168.91 168.869 169.158 169.103 169.338 168.358 168.376 168.717 
168.779 169.108 169.101 169.32 169.16 169.284 169.096 169.271 169.203 
169.468 169.464 169.719 169.647 169.808 168.753 168.705 169.015 169.01 
169.324 169.362 169.656 169.621 169.827 169.649 169.784 169.594 169.771 
169.713 169.952 169.961 170.165 170.082 170.181 170.42 170.371 170.527 
170.714 170.147 170.362 170.523 170.718 170.881 170.057 170.194 170.382 
170.495 170.628 170.819 171.015 170.173 170.268 170.567 170.543 170.703 
170.675 170.858 171.008 171.268 170.168 170.378 170.726 170.819 171.06 
170.968 171.165 171.084 171.371 171.405 171.639 169.896 170.202 170.485 
170.798 171.1 171.269 171.54 171.529 171.81 171.733 171.982 171.853 
171.929 169.583 169.861 170.123 170.441 170.774 171.12 171.491 171.743 
172.05 172.129 172.31 172.24 172.277 172.095 172.025 169.349 169.603 
169.91 170.153 170.483 170.786 171.171 171.53 171.868 172.136 172.283 
172.378 172.348 172.316 172.21 172.101 171.985 169.104 169.39 169.694 
169.96 170.23 170.51 170.793 171.151 171.441 171.799 171.962 172.178 
172.163 172.237 172.141 172.146 172.037 171.986 171.857 158.6 159.257 
158.904 158.924 159.858 159.574 159.614 159.316 159.405 160.417 160.143 
160.156 159.911 159.94 159.732 159.779 161.133 160.79 160.842 160.482 
160.475 160.179 160.18 159.989 160.013 161.954 161.611 161.758 161.332 
161.381 160.885 160.897 160.489 160.583 160.298 160.439 162.747 162.438 
162.603 162.266 162.379 161.92 161.97 161.442 161.563 161.112 161.343 
160.955 161.197 163.535 163.23 163.395 163.077 163.236 162.875 162.997 
162.551 162.673 162.212 162.407 161.99 162.217 161.813 162.02 164.249 
164.012 164.238 163.926 164.154 163.782 164 163.576 163.759 163.301 
163.46 163.026 163.186 162.794 162.945 162.576 162.727 164.794 164.664 
164.942 164.753 165.028 164.741 164.987 164.617 164.826 164.391 164.549 
164.075 164.195 163.74 163.855 163.453 163.576 163.221 163.36 158.273 
158.523 158.176 157.914 159.037 158.547 158.131 157.845 157.721 159.53 
159.115 158.674 158.18 157.848 157.675 157.657 159.818 159.545 159.213 
158.757 158.368 157.954 157.804 157.681 157.794 160.164 159.829 159.569 
159.226 158.931 158.528 158.378 158.069 158.185 158.034 158.328 160.839 
160.323 160.051 159.633 159.424 159.065 158.986 158.702 158.837 158.63 
158.9 158.749 159.072 161.68 161.115 160.854 160.306 160.144 159.679 
159.652 159.318 159.461 159.264 159.495 159.338 159.532 159.416 159.6 
162.448 161.957 161.754 161.217 161.098 160.572 160.569 160.114 160.239 
159.921 160.131 159.902 160.053 159.84 159.916 159.792 159.909 163.114 
162.695 162.54 162.09 161.991 161.536 161.525 161.083 161.165 160.776 
160.94 160.613 160.766 160.435 160.504 160.199 160.273 160.107 160.279 
158.176 157.898 158.063 158.176 157.831 157.94 158.101 158.172 158.199 
157.847 157.975 158.224 158.241 158.225 158.111 157.918 157.92 157.996 
158.312 158.411 158.498 158.294 158.051 157.788 157.653 158.341 158.173 
158.439 158.501 158.755 158.652 158.571 158.173 158.007 157.75 157.932 
159.07 158.76 158.934 158.781 159.046 158.958 159.069 158.784 158.698 
158.318 158.369 158.24 158.577 159.636 159.45 159.584 159.378 159.531 
159.352 159.456 159.26 159.263 158.985 158.984 158.748 158.909 158.867 
159.15 159.955 159.875 160.013 159.909 160 159.828 159.851 159.657 
159.675 159.478 159.523 159.308 159.41 159.247 159.442 159.388 159.624 
160.314 160.189 160.343 160.248 160.354 160.21 160.235 160.048 160.085 
159.906 160.004 159.818 159.941 159.748 159.904 159.761 159.975 159.893 
160.127 167.306 166.72 167.057 167.082 165.972 166.37 166.355 166.729 
166.68 165.156 165.548 165.507 165.915 165.852 166.242 166.156 164.402 
164.735 164.667 165.048 164.995 165.391 165.332 165.707 165.629 163.668 
163.988 163.878 164.225 164.149 164.539 164.482 164.879 164.813 165.189 
165.114 162.863 163.215 163.095 163.439 163.329 163.694 163.598 163.997 
163.904 164.324 164.241 164.655 164.592 162.015 162.371 162.271 162.644 
162.553 162.896 162.784 163.122 163.007 163.39 163.303 163.735 163.69 
164.134 164.122 161.219 161.519 161.404 161.799 161.74 162.121 162.029 
162.349 162.226 162.545 162.455 162.83 162.8 163.228 163.244 163.695 
163.737 160.594 160.776 160.628 160.955 160.905 161.296 161.226 161.577 
161.445 161.773 161.657 162.02 161.969 162.374 162.385 162.827 162.883 
163.342 163.417 
POINT_DATA 1002
SCALARS Distance double
LOOKUP_TABLE default
165.135 164.887 164.526 164.843 164.211 165.542 164.571 163.872 165.263 
165.961 164.246 163.494 164.958 165.625 166.281 163.866 163.123 164.616 
165.312 165.988 166.729 163.455 162.752 164.228 165.018 165.775 166.556 
167.342 163.075 162.407 163.816 164.658 165.496 166.325 167.109 167.777 
162.835 162.183 163.514 164.311 165.129 165.936 166.748 167.449 168.031 
162.714 162.066 163.355 164.082 164.854 165.581 166.345 167.118 167.788 
168.375 162.592 161.954 163.22 163.891 164.635 165.354 166.053 166.808 
167.548 168.217 168.814 164.427 164.016 163.824 163.352 163.067 163.599 
162.52 162.267 162.817 163.137 161.673 161.457 161.961 162.303 162.719 
160.947 160.704 161.245 161.56 161.931 162.367 160.335 160.121 160.624 
160.939 161.236 161.573 161.981 159.74 159.575 159.913 160.164 160.505 
160.824 161.162 161.632 159.137 158.93 159.244 159.319 159.625 160.112 
160.513 160.905 161.455 158.64 158.355 158.829 158.835 158.94 159.42 
160.014 160.436 160.844 161.383 158.226 158.547 158.287 158.494 158.095 
158.707 158.168 157.636 158.619 158.697 157.919 157.618 158.428 158.673 
158.9 158.334 158.253 158.505 158.601 158.904 159.479 159.034 158.937 
159.001 158.702 158.742 159.397 160.057 159.432 159.393 159.401 159.03 
158.746 159.17 159.943 160.476 159.701 159.832 159.582 159.353 159.124 
159.291 159.868 160.456 160.924 160.131 160.351 159.884 159.686 159.651 
159.847 160.198 160.576 160.985 161.463 162.209 161.706 162.527 161.294 
162.113 163.033 161.07 161.84 162.727 163.677 160.849 161.692 162.452 
163.367 164.279 160.462 161.367 162.125 162.987 163.958 164.822 160.155 
160.887 161.644 162.541 163.627 164.588 165.34 160.205 160.701 161.305 
162.122 163.251 164.35 165.142 165.787 160.494 160.895 161.338 161.95 
162.888 163.98 164.87 165.539 166.195 160.771 161.163 161.521 161.97 
162.659 163.558 164.459 165.219 165.907 166.618 162.889 163.27 163.566 
163.835 163.994 164.298 164.498 164.583 164.754 165.084 165.118 165.29 
165.37 165.586 165.859 165.662 165.972 166.13 166.241 166.433 166.637 
166.14 166.515 166.808 166.975 167.088 167.235 167.413 166.604 166.988 
167.308 167.585 167.761 167.835 167.969 168.146 167.087 167.503 167.798 
168.076 168.353 168.456 168.487 168.658 168.824 167.377 167.918 168.118 
168.683 168.709 168.314 169.314 169.282 169.092 168.588 170.004 170.041 
169.85 169.45 168.901 170.835 170.84 170.674 170.308 169.74 169.094 
171.504 171.358 171.426 171.082 170.462 169.737 169.067 171.791 171.563 
171.831 171.638 171.111 170.368 169.697 169.159 171.875 171.653 171.955 
171.92 171.658 171.074 170.41 169.88 169.384 171.945 171.729 172.053 
172.101 172.047 171.695 171.075 170.483 169.983 169.427 166.572 167.301 
166.46 167.106 166.213 167.934 166.823 165.876 167.678 168.485 166.599 
165.684 167.517 168.328 169.179 166.531 165.662 167.5 168.32 169.129 
170.022 166.423 165.574 167.427 168.299 169.048 169.869 170.698 166.187 
165.435 167.129 168.048 168.838 169.588 170.341 171.039 166.037 165.401 
166.812 167.649 168.49 169.276 169.949 170.578 171.191 166.007 165.407 
166.673 167.359 168.126 168.951 169.631 170.168 170.744 171.32 160.824 
161.269 161.309 161.733 161.845 161.621 162.251 162.409 162.035 161.966 
162.796 162.88 162.568 162.437 162.51 163.297 163.342 163.217 163.084 
163.083 163.267 163.828 163.903 163.867 163.835 163.753 163.844 164.122 
164.369 164.44 164.432 164.489 164.417 164.447 164.688 164.979 164.87 
164.911 164.917 165.021 165.01 165.034 165.292 165.6 165.792 160.199 
160.673 160.08 160.57 160.078 161.188 160.593 160.137 161.081 161.763 
160.644 160.167 161.071 161.603 162.323 160.642 160.245 161.103 161.533 
162.172 162.864 160.721 160.405 161.168 161.618 162.179 162.913 163.513 
160.899 160.489 161.363 161.832 162.352 163.024 163.689 164.141 160.999 
160.453 161.567 162.063 162.545 163.1 163.685 164.196 164.595 161.02 