# vtk DataFile Version 4.0
vtk output
ASCII
DATASET POLYDATA
POINTS 1002 float
-119.312 -100.648 53.4027 -119.603 -100.655 52.784 -118.881 -100.514 52.9022 
-118.592 -100.567 53.5722 -118.261 -100.254 53.1565 -118.995 -100.47 54.441 
-117.966 -100.395 53.8454 -117.666 -100.022 53.4571 -118.312 -100.489 54.6362 
-118.832 -100.463 55.5152 -117.324 -100.266 54.0929 -116.851 -99.9609 53.6631 
-117.64 -100.468 54.8218 -118.132 -100.517 55.6716 -118.77 -100.722 56.2254 
-116.474 -100.309 54.2638 -115.952 -100.019 53.8234 -116.919 -100.463 54.9699 
-117.289 -100.583 55.746 -117.837 -100.803 56.315 -118.401 -101.17 56.6788 
-115.556 -100.43 54.4898 -115.316 -100.015 54.1589 -116.052 -100.504 55.1904 
-116.48 -100.624 55.8889 -116.807 -100.971 56.3537 -117.304 -101.364 56.7403 
-117.798 -101.778 57.1056 -114.818 -100.431 54.8298 -114.776 -99.9101 54.6082 
-115.137 -100.511 55.4979 -115.673 -100.589 56.2039 -116.032 -101.095 56.5416 
-116.374 -101.576 56.8584 -116.931 -101.891 57.2802 -117.42 -102.286 57.5772 
-114.198 -100.263 55.1821 -114.043 -99.7861 54.9346 -114.411 -100.43 55.7822 
-114.833 -100.529 56.4972 -115.299 -101.093 56.8293 -115.663 -101.718 57.0555 
-116.168 -101.936 57.5481 -116.767 -102.142 57.9704 -117.176 -102.511 58.1734 
-113.611 -100.012 55.5159 -113.306 -99.6675 55.1581 -113.893 -100.262 56.0698 
-114.143 -100.51 56.6845 -114.483 -101.073 57.0264 -114.879 -101.751 57.2139 
-115.335 -102.044 57.682 -115.91 -102.136 58.2649 -116.441 -102.373 58.6133 
-116.804 -102.644 58.8552 -113.133 -99.7795 55.8708 -112.847 -99.5203 55.4478 
-113.442 -100.062 56.4006 -113.619 -100.469 56.8904 -113.765 -101.085 57.1739 
-114.065 -101.724 57.3479 -114.489 -102.094 57.7282 -114.968 -102.288 58.3041 
-115.486 -102.512 58.781 -115.985 -102.701 59.1268 -116.429 -102.769 59.5148 
-119.372 -100.24 52.5666 -118.643 -100.018 52.7062 -119.105 -99.5824 52.4361 
-118.386 -99.4607 52.4645 -118.846 -99.077 52.0784 -118.032 -99.8017 52.9248 
-118.127 -98.9866 52.0679 -118.577 -98.6065 51.6966 -117.701 -99.4274 52.58 
-117.263 -99.7202 53.1425 -117.847 -98.2539 51.9927 -118.252 -97.8807 51.6609 
-117.394 -98.8746 52.2821 -116.737 -99.4962 52.6816 -116.259 -99.7295 53.2624 
-117.491 -97.4308 52.2285 -117.869 -97.1483 51.7364 -117.197 -97.9077 52.4378 
-116.403 -98.9165 52.3644 -115.714 -99.4975 52.7474 -115.54 -99.6181 53.5231 
-117.041 -96.9012 52.1047 -117.481 -96.4608 51.628 -116.929 -97.1172 52.5742 
-116.277 -97.9536 52.4455 -115.37 -98.978 52.3982 -115.186 -99.2255 53.1846 
-115.184 -99.3786 54.0992 -116.611 -96.2883 51.6979 -117.194 -95.6127 51.5575 
-116.463 -96.646 52.1951 -116.069 -97.1217 52.4877 -115.168 -98.1109 52.4445 
-114.795 -98.7699 52.9234 -114.89 -98.8978 53.9347 -114.58 -99.2539 54.609 
-116.35 -95.4716 51.5962 -117.063 -94.8642 51.7175 -115.977 -96.0364 51.8033 
-115.715 -96.4876 52.2874 -115.075 -97.1925 52.642 -114.582 -98.0259 52.9946 
-114.546 -98.4997 53.7249 -114.263 -98.8288 54.444 -113.669 -99.2891 54.8163 
-116.253 -94.8601 51.8394 -117.005 -94.4835 51.9738 -115.668 -95.3559 51.831 
-115.373 -95.8837 52.1691 -115.033 -96.4769 52.7405 -114.646 -97.1836 53.2669 
-114.455 -97.8488 53.7849 -114.107 -98.3928 54.3033 -113.448 -98.8883 54.6617 
-112.954 -99.2885 54.9719 -116.417 -94.4306 52.1578 -115.652 -94.7143 52.1048 
-115.691 -94.1808 52.3592 -115.086 -94.4687 52.4337 -115.1 -93.7929 52.6696 
-115.165 -95.1789 52.2254 -114.748 -94.3049 52.9921 -114.887 -93.8263 53.3384 
-114.795 -95.0703 52.7976 -114.948 -95.8244 52.7282 -114.51 -94.5066 53.9494 
-114.71 -94.3274 54.3576 -114.487 -95.0549 53.6624 -114.645 -95.8255 53.5083 
-114.737 -96.4919 53.4442 -113.969 -94.7433 54.9415 -114.119 -94.5393 55.3209 
-113.965 -95.0916 54.6389 -114.124 -95.7291 54.3577 -114.36 -96.4164 54.2099 
-114.478 -97.103 54.0454 -113.19 -94.6532 55.6034 -113.406 -94.3979 56.0288 
-113.258 -95.0666 55.2898 -113.389 -95.6346 54.9289 -113.519 -96.2631 54.6816 
-113.783 -96.9498 54.6023 -114 -97.7426 54.4417 -112.68 -94.6499 56.1609 
-113.087 -94.5422 56.6192 -112.683 -95.0813 55.8002 -112.832 -95.7176 55.3601 
-112.748 -96.3166 54.9162 -112.751 -96.8712 54.8126 -113.041 -97.6119 54.8197 
-113.271 -98.3931 54.7024 -112.623 -95.0449 56.7734 -113.143 -95.037 57.1587 
-112.415 -95.3208 56.4733 -112.478 -95.8939 56.1054 -112.379 -96.5327 55.5274 
-112.165 -96.9977 55.1719 -112.298 -97.4983 55.1956 -112.592 -98.2273 55.1596 
-112.747 -98.8929 55.0105 -112.772 -95.5588 57.3339 -113.259 -95.5005 57.6398 
-112.398 -95.7068 57.121 -112.232 -96.0562 56.9435 -112.106 -96.6195 56.5165 
-111.928 -97.1384 56.0081 -111.99 -97.5041 55.8616 -112.314 -97.9988 55.8763 
-112.529 -98.6555 55.7125 -112.624 -99.1894 55.5123 -112.718 -99.4956 56.1431 
-112.53 -99.1195 56.3167 -112.438 -99.5541 56.907 -112.385 -98.5644 56.583 
-112.147 -99.1829 57.1283 -111.962 -99.7578 57.531 -112.067 -98.0124 56.7003 
-111.871 -98.6951 57.355 -111.554 -99.4226 57.7792 -111.698 -99.951 58.2006 
-111.716 -97.6127 56.7023 -111.547 -98.2272 57.4058 -111.235 -99.0053 57.9912 
-111.256 -99.6447 58.5458 -111.743 -100.026 59.1101 -111.664 -97.1353 56.9914 
-111.341 -97.7267 57.5117 -111.061 -98.4745 58.1627 -110.937 -99.21 58.8788 
-111.283 -99.7277 59.4976 -111.83 -100.087 60.0039 -111.867 -96.5653 57.4245 
-111.439 -97.1084 57.8826 -111.089 -97.8011 58.5221 -110.856 -98.5246 59.3025 
-110.989 -99.2081 59.8899 -111.499 -99.761 60.2887 -111.971 -100.226 60.7547 
-112.173 -96.2066 57.608 -111.795 -96.6531 58.1716 -111.371 -97.215 58.921 
-111.016 -97.8175 59.7639 -110.971 -98.4494 60.3256 -111.386 -99.171 60.5913 
-111.909 -99.8064 60.9556 -112.19 -100.353 61.5427 -112.562 -96.0361 57.7232 
-112.23 -96.4292 58.2917 -111.808 -96.8652 59.0961 -111.404 -97.3574 59.9727 
-111.205 -97.8313 60.5825 -111.44 -98.4433 60.8797 -111.945 -99.1714 61.1917 
-112.291 -99.7958 61.7136 -112.399 -100.35 62.2942 -112.996 -95.8776 57.9754 
-112.631 -96.2061 58.4905 -112.211 -96.5457 59.2244 -111.861 -96.9771 60.006 
-111.649 -97.4212 60.6 -111.664 -97.8768 61.0236 -111.963 -98.4811 61.4412 
-112.33 -99.1428 61.916 -112.545 -99.7159 62.3943 -112.679 -100.251 62.7812 
-112.917 -99.804 56.6286 -112.506 -100.011 57.2793 -113.089 -100.262 57.0827 
-112.147 -100.285 57.8375 -112.62 -100.667 57.5778 -113.157 -100.963 57.3585 
-112.123 -100.417 58.6461 -112.37 -100.979 58.1901 -112.727 -101.451 57.8347 
-113.327 -101.663 57.5499 -112.189 -100.466 59.6531 -112.359 -101.094 59.1438 
-112.552 -101.68 58.6535 -113.065 -101.951 58.2531 -113.755 -102.053 57.92 
-112.198 -100.623 60.5835 -112.396 -101.193 60.1992 -112.597 -101.752 59.7079 
-113.058 -102.027 59.2687 -113.669 -102.188 58.8248 -114.257 -102.332 58.4583 
-112.247 -100.87 61.4974 -112.451 -101.411 61.2443 -112.757 -101.84 60.7858 
-113.215 -102.039 60.3251 -113.758 -102.241 59.8537 -114.2 -102.578 59.3086 
-114.72 -102.707 58.9358 -112.353 -101.001 62.3443 -112.51 -101.624 62.2267 
-112.894 -101.999 61.8513 -113.384 -102.103 61.3554 -113.87 -102.23 60.8869 
-114.264 -102.586 60.3238 -114.653 -102.923 59.7243 -115.24 -102.921 59.3523 
-112.627 -100.931 62.8804 -112.723 -101.628 62.8895 -113.066 -102.062 62.7061 
-113.549 -102.203 62.3112 -113.99 -102.333 61.8631 -114.358 -102.554 61.4162 
-114.755 -102.767 60.8403 -115.258 -102.887 60.2551 -115.842 -102.861 59.8502 
-113.182 -100.548 63.0978 -113.257 -101.27 63.189 -114.031 -100.868 63.4089 
-114.247 -101.498 63.5027 -114.806 -101.14 64.0152 -113.484 -101.853 63.2206 
-115.05 -101.672 64.1104 -115.13 -101.374 64.8595 -114.507 -101.877 63.6151 
-113.877 -102.127 63.0998 -115.376 -101.964 64.9081 -115.377 -101.661 65.5549 
-115.246 -102.024 64.2485 -114.798 -102.244 63.5658 -114.279 -102.426 62.7644 
-115.73 -102.374 65.5704 -115.99 -102.003 65.8864 -115.614 -102.458 64.9456 
-115.456 -102.679 64.1 -115.041 -102.933 63.2456 -114.596 -102.782 62.3846 
-116.445 -102.717 65.9543 -116.807 -102.268 65.9371 -116.131 -102.92 65.5197 
-115.912 -103.174 64.5966 -115.671 -103.435 63.6772 -115.33 -103.217 62.9124 
-115.004 -102.802 61.9695 -117.313 -102.868 66.0857 -117.685 -102.361 65.9525 
-116.961 -103.184 65.8733 -116.572 -103.441 65.0459 -116.242 -103.609 64.0631 
-116.06 -103.372 63.324 -115.889 -102.841 62.5165 -115.584 -102.67 61.3867 
-118.184 -102.847 66.0658 -118.596 -102.322 66.0461 -117.851 -103.257 65.9082 
-117.473 -103.545 65.2929 -117.009 -103.59 64.4158 -116.719 -103.351 63.6432 
-116.668 -102.912 62.9066 -116.511 -102.608 61.9374 -116.145 -102.688 60.8051 
-118.947 -102.732 65.9463 -119.325 -102.235 66.0555 -118.625 -103.196 65.7002 
-118.341 -103.571 65.2089 -117.931 -103.588 64.5687 -117.464 -103.283 63.9107 
-117.232 -102.984 63.1944 -117.149 -102.776 62.345 -116.916 -102.692 61.3476 
-116.599 -102.75 60.3296 -112.968 -99.8246 62.8858 -113.65 -100.146 63.1724 
-113.286 -99.4468 62.9647 -114.061 -99.8434 63.3069 -113.64 -99.0027 63.1129 
-114.429 -100.475 63.7347 -114.392 -99.4569 63.561 -114.019 -98.4103 63.4123 
-114.583 -100.144 64.1552 -114.81 -100.669 64.7082 -114.672 -98.879 63.9704 
-114.345 -97.8818 63.7747 -114.746 -99.7901 64.4427 -114.7 -100.189 65.2636 
-114.971 -100.774 65.6241 -114.906 -98.3294 64.3432 -114.672 -97.5471 63.971 
-115.107 -99.3406 64.5773 -115.019 -99.8784 65.2722 -115.11 -100.175 66.0059 
-115.549 -100.996 66.0505 -115.247 -97.9271 64.3761 -115.132 -97.1982 63.9522 
-115.548 -98.8208 64.5954 -115.716 -99.5691 64.9623 -115.771 -99.8815 65.7762 
-116.045 -100.339 66.2075 -116.447 -101.319 66.0175 -115.802 -97.5269 64.1619 
-115.689 -96.7729 63.8611 -116.061 -98.2946 64.4657 -116.361 -99.0376 64.7297 
-116.538 -99.602 65.3011 -116.728 -99.9366 65.9705 -117.039 -100.548 66.0623 
-117.376 -101.532 65.88 -116.408 -97.115 63.9676 -116.226 -96.4545 63.7351 
-116.659 -97.8048 64.2864 -116.917 -98.4354 64.6132 -117.094 -99.1393 64.9474 
-117.294 -99.6673 65.4829 -117.651 -99.986 65.9329 -118.066 -100.639 65.9974 
-118.391 -101.587 65.9755 -116.899 -96.8108 63.7853 -116.708 -96.3116 63.5059 
-117.18 -97.399 64.0972 -117.451 -97.9339 64.4658 -117.582 -98.6245 64.7174 
[...]
CELL_DATA 2000
SCALARS Distance double
LOOKUP_TABLE default
163.797 163.261 163.62 163.806 162.772 163.118 163.34 163.668 163.919 
162.277 162.652 162.887 163.229 163.496 163.858 164.193 161.731 162.139 
162.403 162.775 163.016 163.395 163.679 164.115 164.426 161.263 161.61 
161.886 162.271 162.519 162.892 163.126 163.534 163.81 164.266 164.546 
160.913 161.191 161.402 161.749 162.004 162.389 162.66 163.024 163.305 
163.684 164.008 164.415 164.727 160.511 160.815 160.969 161.278 161.492 
161.87 162.182 162.586 162.914 163.27 163.591 163.951 164.289 164.659 
164.948 160.025 160.36 160.553 160.858 161.069 161.395 161.688 162.097 
162.443 162.856 163.16 163.539 163.825 164.214 164.493 164.856 165.072 
159.628 159.917 160.173 160.474 160.73 161.02 161.289 161.632 161.942 
162.345 162.64 163.042 163.302 163.705 163.967 164.365 164.601 164.945 
165.13 163.639 163.085 163.27 163.068 162.468 162.677 162.515 162.721 
162.567 161.863 162.072 161.919 162.154 162.009 162.217 162.046 161.209 
161.445 161.275 161.541 161.375 161.609 161.399 161.628 161.451 160.52 
160.764 160.597 160.871 160.697 160.936 160.71 160.939 160.77 161.052 
160.985 159.814 160.076 159.932 160.208 160.043 160.258 160.032 160.245 
160.107 160.402 160.4 160.701 160.701 159.051 159.331 159.182 159.521 
159.371 159.617 159.38 159.58 159.444 159.757 159.795 160.143 160.164 
160.42 160.328 158.402 158.574 158.389 158.717 158.604 158.919 158.743 
158.957 158.839 159.125 159.198 159.554 159.609 159.871 159.762 159.962 
159.809 158.057 158.053 157.823 157.987 157.895 158.183 158.146 158.39 
158.382 158.616 158.728 159.024 159.132 159.361 159.286 159.425 159.27 
159.454 159.381 157.861 157.375 157.591 157.557 156.834 157.089 157.145 
157.398 157.571 156.624 156.699 156.894 157.085 157.356 157.589 157.875 
156.917 156.767 156.951 157.003 157.341 157.502 157.846 157.986 158.248 
157.131 157.061 157.066 157.106 157.305 157.487 157.793 157.99 158.269 
158.387 158.633 156.898 156.975 156.87 157.032 157.07 157.303 157.437 
157.744 157.938 158.264 158.474 158.724 158.928 156.749 156.675 156.612 
156.731 156.831 157.009 157.096 157.291 157.376 157.715 157.892 158.323 
158.508 158.862 158.991 157.087 156.78 156.758 156.664 156.86 156.907 
157.096 157.107 157.187 157.261 157.428 157.72 158 158.356 158.572 
158.853 158.993 157.648 157.301 157.254 157.018 157.15 157.085 157.28 
157.243 157.355 157.288 157.433 157.499 157.822 158.03 158.382 158.567 
158.814 158.959 159.163 159.285 158.961 159.229 159.424 158.569 158.902 
159.087 159.342 159.485 158.049 158.444 158.658 158.969 159.094 159.356 
159.539 157.633 157.927 158.155 158.491 158.656 158.949 159.146 159.474 
159.804 157.482 157.615 157.777 158.023 158.223 158.52 158.759 159.093 
159.437 159.82 160.224 157.429 157.52 157.627 157.751 157.939 158.164 
158.434 158.733 159.08 159.451 159.869 160.258 160.676 157.408 157.492 
157.659 157.703 157.901 158.013 158.291 158.486 158.816 159.111 159.527 
159.914 160.382 160.755 161.193 157.554 157.576 157.824 157.822 158.052 
158.087 158.362 158.454 158.749 158.915 159.282 159.599 160.081 160.478 
160.956 161.299 161.693 157.88 157.833 158.07 158.039 158.243 158.257 
158.494 158.563 158.827 158.92 159.219 159.413 159.83 160.18 160.66 
161.039 161.441 161.752 162.071 159.568 159.692 159.78 160.097 159.758 
159.883 160.202 160.328 160.66 159.862 159.952 160.299 160.424 160.782 
160.893 161.231 160.177 160.17 160.538 160.577 160.953 161.034 161.401 
161.489 161.857 160.604 160.574 160.941 160.912 161.275 161.277 161.647 
161.692 162.065 162.143 162.524 161.051 161.014 161.397 161.355 161.722 
161.671 162.042 162.015 162.4 162.405 162.785 162.826 163.202 161.558 
161.495 161.911 161.85 162.256 162.17 162.55 162.472 162.859 162.813 
163.196 163.163 163.527 163.526 163.887 162.035 162.006 162.428 162.396 
162.822 162.743 163.114 163.007 163.356 163.286 163.641 163.597 163.93 
163.893 164.211 164.206 164.522 162.401 162.424 162.837 162.87 163.298 
163.282 163.65 163.562 163.884 163.786 164.111 164.036 164.345 164.283 
164.567 164.531 164.809 164.804 165.069 162.724 163.495 163.117 163.207 
164.422 163.986 164.038 163.637 163.694 165.263 164.911 164.941 164.504 
164.496 164.088 164.06 165.938 165.678 165.758 165.374 165.363 164.922 
164.875 164.42 164.333 166.648 166.371 166.509 166.155 166.216 165.807 
165.818 165.326 165.241 164.702 164.578 167.434 167.16 167.331 166.956 
167.035 166.648 166.699 166.277 166.209 165.664 165.469 164.921 164.763 
168.155 167.941 168.153 167.818 167.877 167.469 167.449 167.066 166.979 
166.543 166.325 165.795 165.551 165.067 164.933 168.789 168.607 168.82 
168.581 168.653 168.284 168.191 167.763 167.6 167.199 167.009 166.571 
166.346 165.856 165.673 165.234 165.147 169.297 169.156 169.294 169.14 
169.213 168.965 168.879 168.474 168.242 167.797 167.571 167.184 167.004 
166.604 166.423 165.983 165.836 165.439 165.366 162.577 162.612 162.829 
163.354 162.681 162.922 163.494 163.708 164.285 162.73 163.015 163.599 
163.836 164.357 164.592 165.082 162.757 163.056 163.635 163.893 164.333 
164.56 164.969 165.255 165.697 162.802 163.068 163.641 163.91 164.361 
164.527 164.893 165.109 165.571 165.873 166.39 162.877 163.1 163.64 
163.915 164.432 164.609 165.028 165.147 165.6 165.808 166.348 166.628 
167.16 162.971 163.162 163.664 163.918 164.445 164.683 165.162 165.33 
165.771 165.922 166.387 166.605 167.11 167.385 167.873 163.089 163.256 
163.743 163.959 164.459 164.691 165.164 165.396 165.837 166.044 166.463 
166.655 167.11 167.347 167.858 168.108 168.572 163.226 163.373 163.83 
164.034 164.506 164.715 165.15 165.366 165.788 166.026 166.448 166.678 
167.121 167.361 167.866 168.126 168.622 168.818 169.176 158.176 158.575 
158.351 158.292 158.994 158.722 158.638 158.433 158.415 159.581 159.216 
159.097 158.791 158.753 158.583 158.647 160.207 159.858 159.737 159.341 
159.272 158.991 159.065 158.892 159.002 160.718 160.446 160.399 160.039 
160.015 159.644 159.719 159.42 159.546 159.3 159.423 161.208 160.95 
160.99 160.711 160.785 160.45 160.535 160.175 160.265 159.933 160.057 
159.792 160.005 161.747 161.481 161.546 161.313 161.427 161.179 161.257 
160.949 160.978 160.654 160.728 160.462 160.664 160.471 160.776 162.298 
162.036 162.096 161.871 161.977 161.766 161.849 161.588 161.625 161.323 
161.402 161.131 161.323 161.122 161.4 161.247 161.533 162.864 162.605 
162.684 162.436 162.555 162.321 162.451 162.189 162.317 162.013 162.187 
161.877 162.121 161.839 162.113 161.876 162.133 161.944 162.17 158.194 
158.417 158.417 158.623 158.591 158.613 158.792 158.802 159.026 158.68 
158.727 158.878 158.921 159.157 159.252 159.585 158.853 158.833 159.01 
159.009 159.239 159.344 159.718 159.863 160.209 159.265 159.129 159.366 
159.268 159.542 159.514 159.886 159.985 160.384 160.462 160.732 159.812 
159.633 159.887 159.756 160.092 159.976 160.333 160.272 160.653 160.667 
160.999 160.986 161.23 160.333 160.176 160.399 160.289 160.606 160.542 
160.862 160.77 161.05 160.995 161.301 161.292 161.582 161.534 161.778 
160.8 160.668 160.858 160.745 160.985 160.956 161.217 161.187 161.382 
161.336 161.554 161.574 161.87 161.887 162.162 162.101 162.331 161.226 
161.116 161.297 161.172 161.36 161.286 161.507 161.467 161.658 161.602 
161.795 161.793 162.085 162.142 162.463 162.464 162.717 162.645 162.87 
161.512 161.989 161.704 161.599 162.536 162.219 162.123 161.79 161.676 
163.111 162.789 162.707 162.359 162.241 161.892 161.797 163.709 163.361 
163.279 162.947 162.85 162.493 162.372 162.025 161.925 164.4 163.992 
163.886 163.522 163.451 163.111 163.039 162.657 162.554 162.169 162.094 
165.051 164.678 164.536 164.153 164.065 163.727 163.707 163.359 163.325 
162.901 162.842 162.42 162.413 165.505 165.222 165.067 164.755 164.66 
164.353 164.348 164.04 164.049 163.683 163.642 163.225 163.178 162.788 
162.781 165.878 165.608 165.476 165.218 165.176 164.931 164.978 164.702 
164.738 164.392 164.346 163.962 163.874 163.507 163.431 163.095 163.03 
166.298 166.007 165.905 165.644 165.65 165.44 165.549 165.333 165.416 
165.096 165.049 164.644 164.526 164.14 164.043 163.701 163.623 163.288 
163.201 166.486 166.663 166.426 166.136 166.957 166.683 166.474 166.163 
165.939 167.453 167.1 166.921 166.568 166.372 166.054 165.874 167.975 
167.647 167.396 167.023 166.755 166.457 166.245 165.981 165.74 168.222 
168.034 167.735 167.425 167.052 166.754 166.451 166.24 165.95 165.713 
165.342 168.391 168.196 167.961 167.688 167.337 167.011 166.652 166.389 
166.066 165.837 165.46 165.201 164.79 168.808 168.5 168.318 167.975 
167.676 167.312 166.948 166.614 166.261 165.976 165.621 165.333 164.947 
164.663 164.302 169.235 168.971 168.723 168.378 168.003 167.643 167.221 
166.89 166.482 166.187 165.813 165.533 165.168 164.869 164.497 164.214 
163.877 169.34 169.218 168.858 168.627 168.131 167.851 167.346 167.076 
166.621 166.358 165.947 165.698 165.322 165.072 164.691 164.414 164.025 
163.771 163.43 166.804 167.298 166.997 166.917 167.778 167.47 167.321 
167.069 167.089 168.288 167.982 167.804 167.453 167.409 167.298 167.519 
168.774 168.543 168.412 167.98 167.855 167.636 167.837 167.832 168.094 
169.076 168.994 168.92 168.569 168.401 168.12 168.247 168.184 168.43 
168.346 168.415 169.153 169.195 169.138 168.945 168.775 168.582 168.68 
168.627 168.865 168.731 168.801 168.568 168.571 169.136 169.222 169.218 
169.092 168.928 168.804 168.88 168.949 169.235 169.204 169.317 169.047 
169.054 168.811 168.94 169.135 169.236 169.332 169.228 169.101 168.927 
168.909 168.986 169.252 169.432 169.631 169.547 169.542 169.319 169.374 
169.238 169.37 169.111 169.25 169.401 169.382 169.314 169.137 169.026 
168.972 169.096 169.299 169.539 169.691 169.754 169.689 169.66 169.568 
169.599 169.537 169.523 166.811 166.906 167.035 167.329 166.789 167.034 
167.343 167.509 167.787 166.59 166.852 167.133 167.379 167.636 167.877 
168.175 166.512 166.732 167.082 167.222 167.439 167.607 167.862 168.189 
168.533 166.425 166.716 167.244 167.391 167.764 167.672 167.87 167.892 
168.188 168.501 168.824 166.139 166.538 167.124 167.54 168.15 168.228 
168.525 168.259 168.378 168.285 168.506 168.732 168.942 165.803 166.174 
166.642 167.194 167.793 168.334 168.75 168.863 168.887 168.668 168.584 
168.516 168.575 168.775 168.9 165.527 165.846 166.197 166.622 167.014 
167.633 167.982 168.558 168.633 168.848 168.648 168.602 168.419 168.459 
168.473 168.713 168.849 165.194 165.541 165.841 166.178 166.425 166.836 
167.044 167.571 167.704 168.191 168.167 168.41 168.255 168.31 168.209 
168.331 168.399 168.677 168.823 165.053 164.949 165.252 165.693 164.734 
165.086 165.559 165.863 166.257 164.551 164.869 165.381 165.719 166.161 
166.395 166.771 164.493 164.739 165.286 165.611 166.151 166.363 166.745 
166.919 167.325 164.497 164.688 165.163 165.516 166.117 166.427 166.906 
167.012 167.355 167.494 167.85 164.52 164.65 164.962 165.285 165.8 
166.28 166.824 167.141 167.478 167.586 167.797 167.921 168.084 164.553 
164.654 164.871 165.049 165.415 165.843 166.334 166.835 167.168 167.495 
167.616 167.81 167.876 168.026 168.096 164.489 164.655 164.866 164.981 
165.249 165.505 165.901 166.301 166.624 166.99 167.127 167.427 167.522 
167.778 167.92 168.088 168.269 164.257 164.51 164.715 164.906 165.12 
165.347 165.68 165.978 166.32 166.565 166.778 166.974 167.162 167.411 
167.677 167.93 168.222 168.393 168.67 164.157 164.13 164.304 164.61 
164.236 164.309 164.634 164.761 165.08 164.56 164.543 164.88 164.898 
165.297 165.352 165.724 164.846 164.903 165.253 165.248 165.654 165.685 
166.114 166.099 166.397 164.956 165.096 165.437 165.538 165.896 166.017 
166.439 166.506 166.803 166.71 166.845 165.089 165.185 165.506 165.617 
165.932 166.11 166.496 166.704 167.048 167.08 167.243 167.101 167.223 
165.275 165.348 165.661 165.724 166.042 166.14 166.494 166.673 167.03 
167.197 167.461 167.475 167.66 167.549 167.755 165.379 165.49 165.796 
165.894 166.236 166.322 166.685 166.76 167.083 167.175 167.456 167.576 
167.854 167.925 168.192 168.133 168.347 165.434 165.556 165.861 165.989 
166.335 166.484 166.869 166.984 167.317 167.341 167.587 167.611 167.889 
168.011 168.353 168.464 168.749 168.692 168.843 169.116 169.006 169.222 
169.367 168.581 168.948 169.131 169.334 169.3 168.122 168.472 168.729 
169.02 169.098 169.175 169.078 167.846 168.104 168.39 168.665 168.872 
169.014 169.072 169.06 169.132 167.554 167.837 168.044 168.34 168.554 
168.811 168.992 169.111 169.274 169.307 169.512 167.065 167.418 167.539 
167.883 168.018 168.393 168.622 168.963 169.217 169.409 169.597 169.667 
169.757 166.518 166.863 167.007 167.33 167.461 167.804 168.038 168.479 
168.825 169.221 169.473 169.657 169.728 169.758 169.725 166.034 166.346 
166.539 166.856 167.05 167.331 167.547 167.909 168.247 168.721 169.058 
169.413 169.544 169.674 169.658 169.679 169.644 165.584 165.879 166.058 
166.407 166.625 166.952 167.151 167.464 167.704 168.124 168.437 168.896 
169.107 169.399 169.42 169.548 169.495 169.57 169.511 158.328 158.668 
158.59 158.838 159.291 159.08 159.351 159.187 159.447 160.034 159.791 
160.048 159.82 160.077 159.869 160.165 160.755 160.531 160.776 160.537 
160.754 160.523 160.786 160.637 161.002 161.465 161.256 161.512 161.255 
161.447 161.185 161.445 161.277 161.673 161.547 161.937 162.123 161.961 
162.251 162.01 162.204 161.897 162.134 161.944 162.373 162.269 162.703 
162.496 162.765 162.737 162.6 162.938 162.751 162.996 162.69 162.874 
162.625 162.952 162.889 163.293 163.21 163.461 163.222 163.356 163.37 
163.231 163.585 163.429 163.715 163.47 163.641 163.351 163.525 163.374 
163.64 163.621 163.863 163.786 163.942 163.751 163.912 163.925 163.841 
164.152 164.035 164.271 164.106 164.254 164.034 164.147 163.926 164.082 
163.946 164.169 164.105 164.352 164.266 164.511 164.348 164.588 158.309 
158.731 158.464 158.327 159.249 158.882 158.697 158.408 158.208 160 
159.506 159.322 158.88 158.747 158.363 158.274 160.905 160.375 160.259 
159.7 159.611 159.099 159.103 158.662 158.728 161.777 161.29 161.185 
160.684 160.575 160.061 160.032 159.585 159.634 159.218 159.259 162.513 
162.084 161.937 161.525 161.395 160.947 160.848 160.448 160.459 160.092 
160.102 159.685 159.675 163.123 162.736 162.601 162.23 162.158 161.736 
161.662 161.223 161.229 160.866 160.932 160.535 160.547 160.104 160.159 
163.742 163.347 163.249 162.889 162.868 162.508 162.497 162.073 162.07 
161.665 161.724 161.355 161.402 160.992 161.017 160.628 160.734 164.44 
164.031 163.939 163.552 163.5 163.177 163.16 162.84 162.817 162.471 
162.455 162.114 162.105 161.762 161.745 161.409 161.431 161.145 161.231 
158.028 158.042 157.897 157.515 157.873 157.788 157.375 157.246 156.851 
157.875 157.629 157.219 157.049 156.699 156.63 156.537 158.333 157.867 
157.51 157.107 156.871 156.632 156.673 156.648 156.885 158.916 158.479 
158.236 157.732 157.573 157.115 157.167 156.964 157.203 157.149 157.252 
159.36 159.027 158.892 158.538 158.444 157.983 157.896 157.538 157.585 
157.452 157.473 157.326 157.129 159.872 159.502 159.412 159.135 159.1 
158.762 158.601 158.195 158.035 157.782 157.743 157.566 157.47 157.18 
157.023 160.502 160.109 160.008 159.681 159.628 159.323 159.17 158.785 
158.567 158.222 158.156 157.929 157.977 157.694 157.7 157.319 157.352 
161.042 160.725 160.592 160.269 160.141 159.827 159.654 159.302 159.091 
158.741 158.639 158.399 158.46 158.264 158.348 158.066 158.112 157.779 
157.861 166.491 166.063 166.385 166.576 165.666 165.954 166.09 166.391 
166.476 165.183 165.515 165.597 165.885 165.924 166.214 166.266 164.51 
164.92 165.002 165.348 165.386 165.674 165.72 166.022 166.127 163.793 
164.186 164.284 164.691 164.784 165.133 165.208 165.506 165.583 165.902 
165.997 163.151 163.485 163.544 163.951 164.049 164.475 164.555 164.938 
164.976 165.323 165.344 165.699 165.729 162.551 162.845 162.845 163.211 
163.266 163.698 163.751 164.182 164.178 164.589 164.563 164.97 164.97 
165.373 165.413 162.011 162.256 162.24 162.536 162.575 162.94 163.004 
163.385 163.406 163.769 163.754 164.137 164.146 164.571 164.622 165.061 
165.132 161.533 161.746 161.73 161.978 162.015 162.315 162.387 162.712 
162.771 163.085 163.115 163.421 163.443 163.784 163.825 164.238 164.3 
164.755 164.804 
POINT_DATA 1002
SCALARS Distance double
LOOKUP_TABLE default
163.977 163.993 163.422 163.463 162.898 163.979 162.996 162.425 163.563 
164.215 162.537 161.869 163.13 163.798 164.568 162.012 161.314 162.66 
163.26 163.98 164.731 161.507 160.969 162.142 162.757 163.362 164.089 
164.82 161.099 160.672 161.601 162.271 162.953 163.601 164.335 165.028 
160.676 160.186 161.135 161.741 162.534 163.256 163.918 164.615 165.202 
160.22 159.668 160.765 161.309 162.016 162.78 163.446 164.112 164.754 
165.262 159.862 159.354 160.439 160.987 161.572 162.24 162.901 163.56 
164.23 164.82 165.311 163.503 162.884 162.868 162.281 162.258 162.381 
161.677 161.655 161.801 161.847 161.004 160.967 161.146 161.181 161.17 
160.323 160.27 160.466 160.482 160.468 160.673 159.635 159.538 159.837 
159.829 159.788 160.066 160.463 158.821 158.796 159.09 159.187 159.125 
159.42 159.902 160.128 158.106 158.305 158.241 158.481 158.562 158.833 
159.342 159.585 159.574 157.748 158.119 157.615 157.829 158.13 158.455 
158.898 159.158 159.117 159.121 157.716 157.308 157.102 156.857 156.543 
157.272 156.699 156.632 157.127 157.669 156.971 157.149 157.186 157.712 
158.16 157.064 157.182 157.165 157.567 158.102 158.547 156.681 156.834 
156.868 157.179 157.567 158.146 158.73 156.511 156.902 156.645 156.981 
157.13 157.434 158.097 158.7 156.927 157.433 156.838 157.098 157.212 
157.22 157.63 158.274 158.743 157.545 157.968 157.292 157.321 157.422 
157.432 157.649 158.187 158.686 159.014 159.489 159.185 159.598 158.835 
159.243 159.615 158.313 158.83 159.212 159.792 157.821 158.333 158.807 
159.421 160.201 157.595 157.919 158.42 159.052 159.841 160.629 157.546 
157.743 158.157 158.729 159.461 160.305 161.093 157.611 157.821 158.142 
158.577 159.145 159.976 160.867 161.62 157.825 158.036 158.3 158.645 
159.025 159.676 160.59 161.411 162.048 158.129 158.257 158.437 158.745 
159.091 159.54 160.275 161.115 161.798 162.367 159.991 160.062 160.555 
160.181 160.655 161.136 160.538 160.895 161.31 161.759 160.983 161.304 
161.626 162.007 162.431 161.432 161.779 162.085 162.415 162.779 163.146 
161.961 162.342 162.648 162.917 163.246 163.565 163.873 162.437 162.886 
163.24 163.456 163.696 163.983 164.244 164.517 162.787 163.287 163.721 
163.99 164.206 164.431 164.625 164.834 165.078 163.018 163.548 163.92 
164.491 164.856 164.076 165.386 165.55 164.946 164.469 166.098 166.167 
165.79 165.353 164.803 166.85 166.928 166.579 166.279 165.823 165.098 
167.703 167.674 167.44 167.088 166.731 166.072 165.237 168.446 168.345 
168.312 167.88 167.379 166.827 166.078 165.341 169.03 168.993 168.986 
168.662 168.032 167.391 166.809 166.152 165.529 169.446 169.454 169.407 
169.248 168.729 167.968 167.354 166.851 166.269 165.712 162.346 163.124 
162.366 163.277 162.399 164.081 163.371 162.421 164.15 164.841 163.376 
162.473 164.161 164.691 165.375 163.355 162.579 164.194 164.729 165.26 
166.077 163.367 162.686 164.197 164.906 165.452 166.087 166.881 163.435 
162.791 164.192 164.948 165.633 166.229 166.847 167.602 163.543 162.934 
164.252 164.935 165.608 166.272 166.889 167.594 168.38 163.641 163.104 
164.307 164.958 165.557 166.199 166.873 167.601 168.404 169.082 158.433 
158.491 158.803 158.874 159.306 158.552 159.47 159.968 158.949 158.761 
160.138 160.516 159.605 159.263 159.171 160.686 160.952 160.375 160.065 
159.828 159.639 161.215 161.46 161.072 160.91 160.632 160.335 160.2 
161.77 162.012 161.655 161.557 161.307 160.996 160.853 160.939 162.328 
162.554 162.189 162.09 161.901 161.667 161.543 161.574 161.688 158.183 
158.634 158.433 158.773 158.568 158.97 158.842 158.632 159.022 159.48 
159.026 158.904 159.165 159.532 160.143 159.457 159.436 159.615 159.848 
160.281 160.728 160.009 159.994 160.197 160.467 160.688 160.992 161.28 
160.527 160.478 160.661 160.962 161.157 161.306 161.604 161.865 160.999 
160.924 161.049 161.246 161.445 161.545 161.811 162.195 162.428 161.427 