# vtk DataFile Version 4.0
vtk output
ASCII
DATASET POLYDATA
POINTS 1002 float
-118.01 -102.071 49.9659 -117.822 -102.081 48.9864 -117.354 -101.977 49.4528 
-117.578 -101.921 50.4808 -116.752 -101.904 49.9148 -118.149 -102.152 50.9461 
-116.833 -101.997 50.8348 -116.062 -101.907 50.3307 -117.636 -102.099 51.3737 
-118.072 -102.485 51.6816 -115.994 -102.214 51.1888 -115.513 -101.861 50.8722 
-116.753 -102.345 51.6565 -117.402 -102.545 52.1218 -117.862 -102.829 52.5835 
-115.403 -102.243 51.7282 -115.004 -101.805 51.4356 -115.918 -102.588 52.0767 
-116.592 -102.743 52.5924 -117.18 -102.889 53.2119 -117.766 -103.005 53.8514 
-114.791 -102.208 52.2022 -114.195 -102.003 51.7082 -115.305 -102.53 52.651 
-115.97 -102.774 53.191 -116.595 -102.965 53.8251 -117.166 -103.174 54.4075 
-117.8 -103.346 54.8394 -113.921 -102.417 52.5135 -113.287 -102.328 51.9086 
-114.549 -102.532 53.1276 -115.363 -102.689 53.7637 -116.089 -102.984 54.3859 
-116.535 -103.457 54.8307 -117.123 -103.834 55.1107 -117.842 -104.04 55.3039 
-113.179 -102.623 52.9517 -112.698 -102.405 52.4119 -113.733 -102.764 53.5387 
-114.582 -102.841 54.1676 -115.502 -103.084 54.8269 -115.892 -103.749 55.2707 
-116.231 -104.425 55.4407 -117.034 -104.666 55.5549 -117.9 -104.696 55.694 
-112.738 -102.592 53.5333 -112.386 -102.248 53.0935 -113.171 -102.905 53.9824 
-113.862 -103.089 54.4621 -114.854 -103.257 55.0846 -115.456 -103.854 55.6713 
-115.592 -104.724 55.9414 -116.152 -105.143 56.0071 -117.15 -105.05 56.103 
-117.998 -104.946 56.243 -112.399 -102.488 54.0741 -112.14 -102.09 53.6917 
-112.77 -102.912 54.429 -113.305 -103.226 54.7788 -114.186 -103.362 55.2819 
-115.106 -103.69 55.929 -115.509 -104.426 56.4051 -115.807 -105.031 56.5634 
-116.568 -105.089 56.6165 -117.452 -104.908 56.7407 -118.089 -104.883 56.9084 
-117.377 -101.916 48.5212 -116.831 -101.841 48.9977 -117.03 -101.45 48.3704 
-116.562 -101.294 48.8884 -116.856 -100.669 48.3189 -116.265 -101.692 49.4877 
-116.432 -100.488 48.8129 -116.664 -99.9565 48.0546 -116.057 -101.104 49.3191 
-115.716 -101.519 49.9775 -116.082 -99.9142 48.5244 -116.272 -99.5324 47.7184 
-115.749 -100.483 49.1541 -115.417 -100.977 49.7664 -115.169 -101.381 50.6025 
-115.599 -99.5566 48.2745 -115.779 -99.1236 47.518 -115.199 -100.067 48.954 
-114.895 -100.538 49.6134 -114.638 -100.97 50.3717 -114.385 -101.497 51.0803 
-115.284 -99.0944 48.2132 -115.41 -98.5757 47.4599 -114.772 -99.604 48.8424 
-114.368 -100.064 49.4701 -114.151 -100.51 50.2049 -113.748 -101.157 50.7798 
-113.392 -101.865 51.2294 -115.055 -98.5574 48.2923 -115.236 -98.0147 47.6414 
-114.468 -99.0594 48.7732 -113.894 -99.5075 49.2136 -113.768 -99.9136 49.9452 
-113.513 -100.518 50.6407 -112.95 -101.382 51.0216 -112.651 -102.076 51.5353 
-114.735 -98.0117 48.4601 -115.129 -97.4795 48.001 -114.062 -98.5409 48.7475 
-113.338 -99.036 48.9373 -113.144 -99.458 49.5307 -113.227 -99.8871 50.4612 
-112.916 -100.58 51.109 -112.454 -101.409 51.5411 -112.305 -101.969 52.2184 
-114.371 -97.4298 48.5744 -114.969 -96.9616 48.2817 -113.645 -97.9647 48.7477 
-112.914 -98.525 48.8386 -112.561 -99.073 49.2595 -112.649 -99.5223 50.1982 
-112.667 -99.9716 51.1429 -112.402 -100.614 51.7312 -112.166 -101.293 52.2539 
-112.11 -101.766 52.9496 -114.329 -96.7309 48.5485 -113.561 -97.1983 48.7119 
-113.733 -96.606 48.8059 -113.034 -97.0138 49.04 -113.416 -96.6608 49.5326 
-112.864 -97.7413 48.8693 -112.777 -96.9201 49.9879 -113.136 -96.7671 50.6847 
-112.588 -97.463 49.494 -112.431 -98.3636 49.2476 -112.418 -96.9357 51.1161 
-112.798 -96.801 51.6255 -112.374 -97.2532 50.5904 -112.374 -98.1088 50.2137 
-112.31 -99.0298 50.0695 -112.151 -97.0837 51.9341 -112.567 -96.7935 52.328 
-111.948 -97.3344 51.5709 -112.089 -97.9962 51.235 -112.117 -98.9436 51.0483 
-112.247 -99.5912 51.0777 -112.098 -97.262 52.8256 -112.342 -96.8193 53.2614 
-111.757 -97.6457 52.5153 -111.634 -98.1942 52.1987 -111.629 -98.9869 51.867 
-111.711 -99.662 51.7776 -112.066 -100.109 51.8383 -112.054 -97.4507 53.9082 
-112.24 -97.0236 54.2597 -111.826 -97.9463 53.6141 -111.5 -98.4782 53.3716 
-111.189 -99.1109 52.9316 -111.129 -99.7248 52.5002 -111.476 -100.219 52.4057 
-111.929 -100.716 52.4109 -112.208 -97.7845 54.7501 -112.549 -97.4595 54.941 
-111.994 -98.2697 54.4808 -111.671 -98.7515 54.3402 -111.157 -99.2097 54.1239 
-110.848 -99.7061 53.6251 -111.087 -100.231 53.2031 -111.577 -100.767 53.0918 
-111.914 -101.291 53.0588 -112.639 -98.2001 55.303 -113.069 -97.9344 55.3954 
-112.327 -98.6338 55.0575 -112 -99.0634 54.9054 -111.469 -99.3814 54.912 
-111 -99.7174 54.7474 -111.046 -100.196 54.3332 -111.441 -100.769 53.998 
-111.742 -101.312 53.8599 -111.919 -101.748 53.7832 -112.008 -102.292 54.4684 
-111.816 -101.961 54.6368 -111.933 -102.634 55.3842 -111.749 -101.491 54.8371 
-111.821 -102.238 55.7026 -112.061 -102.903 56.4812 -111.559 -100.894 55.1237 
-111.821 -101.71 56.0105 -111.962 -102.402 56.8385 -112.432 -102.849 57.4431 
-111.293 -100.285 55.4666 -111.695 -101.077 56.3197 -111.864 -101.852 57.154 
-112.239 -102.347 57.7766 -112.991 -102.574 58.083 -111.433 -99.8312 55.6253 
-111.613 -100.403 56.5574 -111.763 -101.178 57.478 -112.002 -101.858 58.2174 
-112.713 -102.246 58.591 -113.603 -102.467 58.7244 -111.966 -99.547 55.5492 
-111.905 -99.8776 56.597 -111.885 -100.417 57.698 -111.948 -101.187 58.596 
-112.411 -101.827 59.2001 -113.29 -102.263 59.3842 -114.108 -102.624 59.5554 
-112.439 -99.2222 55.5649 -112.364 -99.5237 56.5521 -112.233 -99.8292 57.735 
-112.196 -100.482 58.669 -112.394 -101.205 59.4158 -113.011 -101.766 59.8786 
-113.817 -102.302 60.0752 -114.469 -102.8 60.4451 -112.796 -98.7919 55.7583 
-112.75 -99.1687 56.5797 -112.607 -99.4304 57.6721 -112.579 -99.9471 58.5587 
-112.708 -100.638 59.2262 -113.083 -101.159 59.8702 -113.691 -101.668 60.3553 
-114.267 -102.308 60.7829 -114.731 -102.857 61.3173 -113.188 -98.4271 55.8971 
-113.121 -98.8112 56.6137 -112.986 -99.1078 57.547 -112.985 -99.5257 58.412 
-113.124 -100.13 59.0471 -113.407 -100.656 59.66 -113.875 -101.083 60.3238 
-114.323 -101.666 60.9635 -114.616 -102.339 61.5882 -114.928 -102.837 62.1015 
-112.288 -102.804 54.8572 -112.279 -103.216 55.8434 -112.731 -103.276 55.2093 
-112.547 -103.378 56.9754 -112.833 -103.593 56.286 -113.43 -103.478 55.6305 
-113.123 -103.094 57.7886 -113.286 -103.563 57.4021 -113.78 -103.588 56.7789 
-114.528 -103.518 56.2274 -113.814 -102.734 58.3478 -114.037 -103.222 58.159 
-114.537 -103.471 57.8377 -115.203 -103.468 57.3118 -115.551 -103.833 56.8188 
-114.368 -102.772 59.1991 -114.646 -103.092 58.961 -115.247 -103.413 58.71 
-116.02 -103.371 58.2902 -116.359 -103.55 57.7155 -116.096 -104.331 57.1248 
-114.753 -103.069 60.2922 -114.97 -103.372 60.095 -115.392 -103.761 59.7399 
-116.162 -103.734 59.2595 -116.817 -103.458 58.6485 -116.9 -103.78 57.912 
-116.634 -104.57 57.2128 -115.056 -103.23 61.2573 -115.284 -103.624 61.1001 
-115.402 -104.183 60.7088 -115.75 -104.463 60.1719 -116.449 -104.113 59.6047 
-117.091 -103.804 58.878 -117.332 -104.079 58.0522 -117.34 -104.588 57.3345 
-115.297 -103.198 61.9987 -115.662 -103.592 61.7474 -115.745 -104.213 61.318 
-115.71 -104.823 60.802 -116.051 -104.876 60.3411 -116.809 -104.507 59.8075 
-117.48 -104.316 59.0662 -117.773 -104.434 58.2711 -117.892 -104.669 57.5522 
-115.358 -102.985 62.6486 -115.887 -103.334 62.35 -116.017 -103.085 62.903 
-116.547 -103.571 62.5831 -116.757 -103.279 63.1711 -116.242 -103.863 61.8945 
-117.051 -104.001 63.195 -117.37 -103.503 63.6612 -116.757 -104.252 62.3101 
-116.214 -104.594 61.4237 -117.586 -104.362 63.8595 -118.173 -103.528 63.9218 
-117.214 -104.718 63.2717 -116.821 -104.839 62.0815 -116.266 -105.052 61.0197 
-118.679 -104.367 63.8242 -119.432 -103.398 63.7672 -118.02 -104.983 63.8105 
-117.622 -104.989 62.9823 -117.244 -104.999 61.6065 -116.843 -105.009 60.5681 
-119.991 -104.143 63.4813 -120.495 -103.287 63.565 -119.314 -104.91 63.5465 
-118.68 -105.066 63.2037 -118.266 -104.926 62.0607 -117.899 -104.993 60.839 
-117.584 -104.843 59.9314 -120.726 -103.927 63.2853 -120.926 -103.177 63.2472 
-120.44 -104.691 63.2514 -119.912 -105.074 62.9703 -119.267 -104.993 62.1091 
-118.735 -104.959 61.0004 -118.297 -105.019 60.0675 -117.994 -104.772 59.174 
-121.065 -103.749 62.881 -121.237 -103.037 62.6308 -121.022 -104.477 62.9485 
-120.887 -105.007 62.6752 -120.389 -105.122 61.9487 -119.678 -105.011 61.0123 
-119.014 -105.019 60.1561 -118.497 -105.001 59.2928 -118.174 -104.794 58.367 
-121.576 -103.561 62.2152 -121.838 -102.927 61.9672 -121.425 -104.2 62.33 
-121.391 -104.754 62.1194 -121.202 -105.061 61.5301 -120.696 -105.055 60.7783 
-120.038 -104.987 60.0486 -119.381 -105.042 59.2562 -118.824 -105.048 58.3641 
-118.432 -104.936 57.5406 -114.929 -102.515 62.5057 -115.334 -102.628 63.005 
-115.084 -102.039 62.6717 -115.528 -101.996 63.0547 -115.344 -101.34 62.5572 
-116.1 -102.648 63.1893 -115.935 -101.149 62.8969 -115.717 -100.627 62.3639 
-116.44 -101.921 63.1909 -117.024 -102.716 63.3979 -116.484 -100.541 62.7144 
-116.276 -100.27 62.0414 -116.973 -101.162 63.0794 -117.51 -102.002 63.3585 
-117.847 -102.742 63.7325 -117.076 -100.387 62.2646 -116.865 -100.151 61.393 
-117.565 -100.725 62.8866 -118.115 -101.411 63.1703 -118.475 -102.075 63.5609 
-118.895 -102.665 63.8752 -117.594 -100.241 61.5025 -117.331 -99.7945 60.764 
-118.118 -100.478 62.3834 -118.727 -100.922 62.8572 -119.105 -101.565 63.1591 
-119.545 -102.117 63.6204 -120.129 -102.655 63.7914 -118.066 -99.79 60.8955 
-117.787 -99.202 60.4734 -118.586 -100.114 61.6804 -119.235 -100.411 62.3642 
-119.611 -100.979 62.6538 -119.936 -101.665 62.9796 -120.486 -102.2 63.3972 
-120.865 -102.65 63.4646 -118.512 -99.271 60.5232 -118.257 -98.7243 60.2397 
-118.954 -99.6693 61.0484 -119.566 -99.9731 61.6911 -119.964 -100.431 62.0852 
-120.149 -101.123 62.2367 -120.542 -101.75 62.5043 -120.994 -102.137 62.7791 
-121.177 -102.512 62.7871 -118.851 -98.9109 60.0943 -118.615 -98.4788 59.798 
-119.209 -99.2923 60.4749 -119.743 -99.6394 60.9416 -120.205 -100.05 61.3753 
[...]
CELL_DATA 2000
SCALARS Distance double
LOOKUP_TABLE default
162.463 162.181 162.523 162.902 161.822 162.202 162.605 162.964 163.324 
161.499 161.838 162.232 162.619 163.003 163.35 163.683 161.265 161.559 
161.935 162.269 162.669 163.018 163.398 163.716 164.084 160.97 161.308 
161.661 161.993 162.395 162.737 163.164 163.477 163.899 164.187 164.607 
160.599 160.959 161.306 161.671 162.075 162.467 162.936 163.291 163.746 
164.042 164.489 164.765 165.204 160.327 160.626 161 161.32 161.745 
162.136 162.663 163.071 163.583 163.904 164.356 164.645 165.095 165.378 
165.805 160.183 160.431 160.82 161.089 161.513 161.849 162.386 162.809 
163.394 163.761 164.25 164.525 164.961 165.242 165.662 165.943 166.304 
160.086 160.314 160.692 160.949 161.354 161.649 162.127 162.528 163.109 
163.552 164.099 164.431 164.861 165.117 165.497 165.761 166.098 166.36 
166.636 162.134 161.551 161.847 161.835 160.956 161.262 161.242 161.518 
161.484 160.32 160.657 160.656 160.935 160.89 161.163 161.162 159.651 
159.998 159.997 160.319 160.275 160.567 160.545 160.868 160.911 158.996 
159.334 159.31 159.628 159.584 159.909 159.871 160.215 160.216 160.589 
160.606 158.386 158.717 158.707 158.963 158.896 159.199 159.17 159.517 
159.496 159.85 159.834 160.216 160.221 157.88 158.172 158.178 158.382 
158.237 158.494 158.432 158.806 158.82 159.163 159.148 159.466 159.482 
159.856 159.934 157.468 157.701 157.639 157.823 157.577 157.785 157.63 
158.021 158.071 158.497 158.558 158.866 158.9 159.199 159.3 159.662 
159.806 157.056 157.233 157.051 157.224 156.932 157.1 156.905 157.227 
157.296 157.75 157.915 158.297 158.39 158.685 158.783 159.099 159.247 
159.592 159.742 156.764 156.217 156.517 156.626 155.954 156.014 156.046 
156.359 156.491 156.06 155.912 155.875 155.948 156.105 156.336 156.581 
156.204 156.047 155.954 155.93 156.104 156.206 156.526 156.671 157.065 
156.309 156.17 156.071 156.013 156.166 156.281 156.62 156.763 157.135 
157.291 157.687 156.508 156.369 156.373 156.214 156.35 156.361 156.661 
156.805 157.123 157.309 157.627 157.848 158.17 156.846 156.699 156.848 
156.662 156.833 156.681 156.898 156.867 157.102 157.212 157.494 157.722 
158.064 158.29 158.608 157.419 157.182 157.405 157.219 157.447 157.248 
157.411 157.213 157.346 157.265 157.506 157.625 158.014 158.225 158.626 
158.782 159.105 158.183 157.875 158.077 157.845 158.078 157.866 158.023 
157.767 157.858 157.634 157.839 157.792 158.195 158.299 158.753 158.868 
159.232 159.312 159.604 159.861 159.527 159.864 160.236 159.142 159.552 
159.975 160.322 160.789 158.662 159.155 159.671 160.081 160.553 160.914 
161.386 158.274 158.694 159.258 159.742 160.25 160.65 161.088 161.462 
161.882 158.225 158.437 158.932 159.334 159.865 160.297 160.756 161.146 
161.595 161.957 162.409 158.397 158.507 158.908 159.122 159.592 159.934 
160.418 160.808 161.299 161.696 162.218 162.569 163.085 158.505 158.666 
159.037 159.169 159.547 159.757 160.197 160.516 161.005 161.398 161.92 
162.342 162.871 163.264 163.776 158.54 158.734 159.12 159.263 159.593 
159.745 160.123 160.364 160.822 161.143 161.634 162.018 162.528 162.959 
163.472 163.897 164.374 158.643 158.797 159.189 159.318 159.638 159.77 
160.117 160.316 160.747 161.01 161.482 161.785 162.281 162.641 163.167 
163.566 164.07 164.454 164.878 160.161 160.548 160.477 160.781 161.117 
160.963 161.263 161.152 161.468 161.743 161.6 161.901 161.719 162.016 
161.876 162.24 162.244 162.181 162.523 162.386 162.692 162.504 162.873 
162.749 163.217 162.736 162.646 163.032 162.972 163.384 163.24 163.653 
163.475 163.943 163.808 164.247 163.418 163.229 163.628 163.522 164.038 
163.96 164.466 164.304 164.73 164.547 164.913 164.748 165.03 164.178 
163.998 164.417 164.237 164.745 164.652 165.173 165.066 165.433 165.26 
165.506 165.343 165.562 165.414 165.625 164.806 164.729 165.168 165.036 
165.468 165.356 165.773 165.681 165.983 165.842 166.028 165.865 166.045 
165.904 166.109 165.977 166.185 165.264 165.27 165.69 165.664 166.034 
165.97 166.281 166.195 166.445 166.324 166.535 166.38 166.599 166.426 
166.645 166.468 166.664 166.513 166.702 165.6 166.21 165.954 166.038 
166.889 166.597 166.684 166.38 166.402 167.664 167.352 167.445 167.069 
167.06 166.697 166.64 168.418 168.163 168.328 167.921 167.902 167.419 
167.314 166.899 166.789 169.138 168.918 169.166 168.83 168.858 168.337 
168.197 167.657 167.514 167.061 166.928 169.805 169.632 169.884 169.639 
169.705 169.26 169.089 168.547 168.351 167.858 167.704 167.227 167.053 
170.151 170.155 170.388 170.29 170.398 170.059 169.889 169.364 169.087 
168.616 168.403 167.984 167.763 167.309 167.074 170.154 170.294 170.542 
170.631 170.814 170.678 170.595 170.145 169.841 169.307 169.02 168.587 
168.338 167.934 167.659 167.254 167.021 170.165 170.259 170.501 170.645 
170.832 170.912 170.901 170.72 170.458 170.028 169.693 169.217 168.947 
168.501 168.253 167.816 167.586 167.196 167.028 165.438 165.347 165.602 
166.019 165.131 165.448 165.873 166.189 166.672 164.853 165.175 165.627 
166.008 166.544 166.892 167.42 164.77 164.976 165.467 165.796 166.394 
166.761 167.323 167.634 168.132 164.873 165.027 165.527 165.761 166.375 
166.679 167.275 167.552 168.074 168.343 168.849 164.865 165.11 165.593 
165.856 166.425 166.71 167.274 167.535 168.069 168.33 168.864 169.114 
169.575 164.726 165.015 165.488 165.821 166.35 166.69 167.177 167.475 
167.924 168.257 168.739 169.084 169.482 169.723 169.948 164.625 164.872 
165.312 165.64 166.13 166.506 166.946 167.276 167.618 167.968 168.324 
168.762 169.082 169.457 169.608 169.858 169.92 164.553 164.774 165.143 
165.434 165.851 166.22 166.633 166.983 167.302 167.608 167.883 168.25 
168.527 168.921 169.109 169.421 169.532 169.782 169.922 158.893 159.356 
159.224 159.365 159.671 159.607 159.755 159.646 159.789 160.038 159.943 
160.201 160.078 160.294 160.115 160.31 160.634 160.442 160.776 160.631 
160.93 160.716 160.945 160.718 160.955 161.326 161.096 161.365 161.236 
161.509 161.348 161.546 161.356 161.576 161.402 161.666 162.012 161.753 
161.955 161.796 162.04 161.881 162.067 161.893 162.131 162.003 162.328 
162.165 162.477 162.761 162.455 162.677 162.436 162.744 162.506 162.779 
162.498 162.79 162.597 163.015 162.875 163.288 163.054 163.384 163.535 
163.244 163.479 163.218 163.554 163.321 163.658 163.353 163.628 163.346 
163.703 163.566 163.998 163.86 164.211 163.968 164.255 164.188 163.983 
164.199 163.985 164.265 164.095 164.407 164.202 164.424 164.155 164.347 
164.177 164.478 164.435 164.766 164.679 164.943 164.761 165.001 158.629 
158.433 158.776 159.173 158.265 158.599 159.026 159.257 159.504 158.239 
158.458 158.881 159.116 159.393 159.55 159.813 158.425 158.488 158.842 
159.017 159.379 159.521 159.863 159.997 160.414 158.685 158.706 159.006 
159.08 159.495 159.62 160.093 160.193 160.669 160.755 161.205 158.87 
158.95 159.311 159.346 159.766 159.842 160.341 160.467 160.977 161.078 
161.521 161.561 161.941 159.041 159.141 159.574 159.664 160.094 160.162 
160.593 160.697 161.147 161.301 161.733 161.851 162.233 162.282 162.66 
159.289 159.345 159.747 159.876 160.309 160.437 160.846 160.935 161.324 
161.433 161.841 161.988 162.397 162.524 162.919 163.005 163.397 159.583 
159.596 159.937 160.031 160.457 160.606 161.056 161.169 161.58 161.647 
162.046 162.131 162.542 162.662 163.064 163.195 163.573 163.689 164.031 
159.847 160.432 160.142 160.218 161.204 160.848 160.959 160.619 160.764 
162.036 161.687 161.839 161.467 161.606 161.243 161.386 162.863 162.511 
162.653 162.33 162.459 162.107 162.204 161.847 161.928 163.729 163.345 
163.449 163.11 163.225 162.897 162.985 162.644 162.708 162.35 162.401 
164.532 164.191 164.294 163.935 164.051 163.681 163.782 163.414 163.498 
163.133 163.193 162.819 162.875 165.206 164.927 165.029 164.737 164.843 
164.516 164.613 164.249 164.33 163.947 163.999 163.61 163.648 163.287 
163.357 165.801 165.555 165.637 165.39 165.463 165.208 165.277 165.009 
165.077 164.762 164.788 164.409 164.402 164.03 164.063 163.751 163.836 
166.289 166.095 166.171 165.959 166.027 165.778 165.83 165.584 165.655 
165.416 165.466 165.154 165.129 164.757 164.737 164.415 164.469 164.202 
164.281 166.523 166.88 166.616 166.459 167.4 167.064 166.934 166.592 
166.373 168.025 167.659 167.524 167.135 166.899 166.478 166.184 168.584 
168.256 168.089 167.722 167.465 167.03 166.699 166.273 165.991 169.091 
168.761 168.571 168.226 167.962 167.567 167.233 166.8 166.465 166.081 
165.796 169.586 169.242 169.012 168.67 168.392 168.029 167.701 167.3 
166.931 166.53 166.16 165.81 165.456 169.904 169.629 169.297 169.023 
168.691 168.402 168.056 167.719 167.339 166.953 166.543 166.152 165.754 
165.409 165.063 169.979 169.783 169.396 169.186 168.825 168.604 168.256 
167.998 167.643 167.322 166.944 166.55 166.16 165.755 165.414 165.066 
164.795 169.977 169.804 169.499 169.287 169.009 168.757 168.464 168.184 
167.881 167.599 167.296 166.962 166.618 166.21 165.856 165.465 165.169 
164.846 164.599 166.684 167.14 166.913 167.016 167.828 167.491 167.558 
167.31 167.51 168.511 168.236 168.286 167.946 168.058 167.871 168.127 
168.884 168.773 168.784 168.573 168.582 168.407 168.56 168.467 168.693 
169.127 169.022 168.995 168.868 168.85 168.775 168.885 168.845 169.055 
168.996 169.216 169.44 169.311 169.304 169.094 169.125 169.01 169.195 
169.146 169.413 169.363 169.655 169.567 169.785 169.515 169.561 169.554 
169.426 169.43 169.34 169.537 169.508 169.79 169.744 170.046 170.007 
170.276 170.142 170.219 169.223 169.439 169.399 169.468 169.372 169.462 
169.557 169.722 169.92 170.017 170.194 170.269 170.472 170.519 170.616 
170.451 170.333 168.873 169.085 169.084 169.182 169.077 169.198 169.24 
169.508 169.681 169.928 170.017 170.186 170.255 170.467 170.561 170.664 
170.612 170.446 170.266 166.564 166.46 166.68 167.026 166.167 166.515 
166.902 167.193 167.643 165.673 166.126 166.504 166.931 167.379 167.8 
168.261 165.042 165.563 165.953 166.441 166.86 167.371 167.85 168.318 
168.68 164.339 164.878 165.305 165.859 166.308 166.822 167.296 167.812 
168.271 168.67 168.979 163.722 164.19 164.598 165.173 165.662 166.243 
166.717 167.255 167.704 168.203 168.598 168.976 169.254 163.234 163.653 
164.043 164.52 164.973 165.54 166.002 166.598 167.013 167.58 167.934 
168.453 168.73 169.153 169.293 162.732 163.187 163.604 164.043 164.455 
164.909 165.317 165.844 166.262 166.835 167.201 167.733 167.984 168.462 
168.598 169.006 169.012 162.212 162.661 163.072 163.56 163.968 164.424 
164.804 165.243 165.646 166.137 166.557 167.048 167.355 167.76 167.906 
168.267 168.322 168.659 168.658 162.091 162.189 162.363 162.894 162.398 
162.476 162.972 163.217 163.802 162.707 162.722 163.159 163.331 163.935 
164.161 164.707 162.875 162.979 163.366 163.53 164.112 164.344 164.954 
165.092 165.591 162.804 163.027 163.409 163.644 164.168 164.472 165.083 
165.334 165.883 166.003 166.478 162.695 162.944 163.391 163.633 164.126 
164.427 164.972 165.325 165.871 166.178 166.653 166.833 167.219 162.632 
162.888 163.394 163.647 164.163 164.4 164.893 165.164 165.663 166.016 
166.503 166.832 167.204 167.412 167.694 162.573 162.825 163.296 163.608 
164.115 164.416 164.896 165.136 165.584 165.84 166.298 166.608 167.011 
167.278 167.57 167.778 168.045 162.564 162.759 163.153 163.438 163.872 
164.237 164.693 165.051 165.481 165.774 166.17 166.439 166.814 167.076 
167.405 167.631 167.921 168.126 168.402 162.723 163.151 163.031 163.266 
163.574 163.463 163.664 163.587 163.908 163.966 163.883 164.108 164 
164.297 164.282 164.702 164.386 164.302 164.593 164.482 164.788 164.71 
165.114 165.121 165.541 164.885 164.768 165.076 164.985 165.301 165.215 
165.557 165.533 165.923 165.925 166.261 165.471 165.31 165.595 165.477 
165.779 165.694 165.983 165.932 166.247 166.263 166.605 166.601 166.885 
166.098 165.937 166.252 166.069 166.386 166.213 166.503 166.358 166.655 
166.596 166.964 166.958 167.317 167.247 167.505 166.618 166.55 166.931 
166.795 167.162 166.937 167.213 166.953 167.205 167.052 167.424 167.396 
167.827 167.754 168.07 167.891 168.08 166.944 166.983 167.399 167.416 
167.829 167.711 167.941 167.669 167.759 167.555 167.783 167.804 168.202 
168.253 168.576 168.466 168.628 168.422 168.538 168.791 168.843 168.89 
168.971 168.825 168.93 168.959 168.953 168.961 168.475 168.774 168.89 
168.969 169.001 168.999 169.157 167.998 168.292 168.471 168.769 168.946 
169.099 169.289 169.349 169.606 167.984 167.996 168.134 168.315 168.569 
168.902 169.178 169.413 169.592 169.725 169.89 168.296 168.249 168.413 
168.287 168.496 168.598 168.93 169.179 169.415 169.594 169.734 169.897 
170.093 168.229 168.467 168.71 168.704 168.891 168.809 169.108 169.128 
169.475 169.515 169.777 169.817 170.073 170.186 170.442 167.719 168.137 
168.387 168.723 168.937 169.111 169.367 169.446 169.803 169.813 170.168 
170.092 170.364 170.304 170.499 170.524 170.59 167.19 167.549 167.776 
168.196 168.443 168.847 169.104 169.449 169.768 170.042 170.397 170.512 
170.754 170.681 170.75 170.627 170.566 170.504 170.345 157.136 157.368 
157.213 157.191 157.668 157.389 157.263 157.22 157.333 158.243 157.817 
157.698 157.424 157.576 157.529 157.775 158.978 158.554 158.549 158.119 
158.278 158.008 158.292 158.106 158.285 159.655 159.318 159.384 159.039 
159.185 158.855 159.045 158.752 158.923 158.641 158.8 160.307 159.987 
160.055 159.788 159.965 159.707 159.907 159.575 159.746 159.386 159.603 
159.298 159.598 160.978 160.665 160.755 160.465 160.69 160.457 160.79 
160.497 160.803 160.383 160.65 160.23 160.527 160.199 160.482 161.614 
161.347 161.485 161.206 161.438 161.212 161.576 161.387 161.779 161.487 
161.76 161.343 161.521 161.124 161.285 160.97 161.113 162.203 161.98 
162.154 161.926 162.152 161.942 162.229 162.088 162.415 162.294 162.531 
162.289 162.361 162.01 162.032 161.704 161.783 161.507 161.64 156.972 
157.17 157.028 156.884 157.365 157.23 157.124 156.921 156.715 157.653 
157.438 157.252 157.072 156.803 156.649 156.451 157.994 157.693 157.367 
157.14 156.851 156.693 156.528 156.44 156.431 158.517 158.067 157.742 
157.342 157.12 156.856 156.861 156.691 156.847 156.675 156.849 159.363 
158.78 158.564 157.975 157.861 157.406 157.537 157.257 157.55 157.309 
157.583 157.294 157.509 160.233 159.716 159.523 158.954 158.853 158.348 
158.451 158.095 158.34 158.075 158.32 158.068 158.28 158.009 158.227 
160.869 160.478 160.265 159.827 159.675 159.27 159.282 158.967 159.105 
158.834 158.982 158.733 158.888 158.688 158.882 158.692 158.901 161.442 
161.065 160.907 160.498 160.372 159.987 159.972 159.673 159.773 159.521 
159.645 159.377 159.496 159.256 159.419 159.246 159.434 159.279 159.443 
156.736 156.634 156.541 156.27 156.56 156.515 156.363 156.211 156.099 
156.446 156.488 156.531 156.451 156.476 156.275 156.278 156.431 156.435 
156.593 156.648 156.782 156.691 156.702 156.49 156.429 156.693 156.519 
156.625 156.696 156.875 156.907 156.9 156.786 156.659 156.513 156.428 
157.251 156.881 156.868 156.787 156.997 157.014 157.078 156.932 156.771 
156.611 156.489 156.45 156.471 158.003 157.528 157.442 157.153 157.344 
157.27 157.488 157.28 157.209 156.846 156.703 156.506 156.546 156.549 
156.734 158.752 158.319 158.227 157.825 157.919 157.728 157.977 157.812 
157.887 157.492 157.385 156.959 157 156.785 157.045 156.991 157.34 
159.334 159.021 158.962 158.601 158.624 158.344 158.491 158.315 158.428 
158.166 158.141 157.755 157.79 157.462 157.717 157.516 157.898 157.776 
158.163 166.298 165.782 166.085 166.131 165.158 165.487 165.493 165.833 
165.814 164.479 164.825 164.794 165.133 165.072 165.414 165.314 163.673 
164.081 164.03 164.396 164.286 164.623 164.481 164.83 164.669 162.751 
163.177 163.081 163.525 163.376 163.77 163.592 163.966 163.805 164.159 
163.993 161.865 162.227 162.065 162.493 162.315 162.754 162.565 163.01 
162.873 163.294 163.171 163.516 163.394 161.045 161.357 161.17 161.516 
161.334 161.705 161.517 161.938 161.796 162.286 162.182 162.646 162.524 
162.927 162.836 160.318 160.575 160.398 160.681 160.509 160.816 160.644 
160.973 160.806 161.207 161.072 161.557 161.435 161.938 161.829 162.325 
162.269 159.76 159.941 159.779 159.979 159.807 160.055 159.906 160.188 
160.046 160.334 160.186 160.522 160.41 160.838 160.785 161.274 161.271 
161.77 161.784 
POINT_DATA 1002
SCALARS Distance double
LOOKUP_TABLE default
162.834 162.409 162.147 162.588 161.81 163.286 162.211 161.446 163.018 
163.668 161.858 161.195 162.629 163.364 164.017 161.627 160.975 162.32 
163.061 163.77 164.467 161.323 160.614 162.034 162.833 163.602 164.328 
165.027 160.942 160.244 161.656 162.537 163.44 164.198 164.942 165.643 
160.694 160.043 161.365 162.217 163.236 164.076 164.796 165.549 166.224 
160.558 159.949 161.208 161.967 162.976 163.971 164.706 165.384 166.056 
166.633 160.436 159.875 161.083 161.772 162.642 163.71 164.617 165.261 
165.846 166.394 166.882 161.846 161.549 161.259 160.98 160.631 161.198 
160.36 159.97 160.629 160.846 159.664 159.322 159.969 160.228 160.564 
159.017 158.651 159.253 159.532 159.855 160.23 158.483 158.026 158.623 
158.813 159.167 159.468 159.807 158.008 157.607 158.043 158.046 158.438 
158.855 159.123 159.517 157.49 157.308 157.42 157.268 157.578 158.199 
158.621 158.957 159.428 156.902 156.959 156.762 156.614 156.836 157.476 
158.072 158.48 158.913 159.402 156.434 156.216 156.004 155.824 156.036 
156.099 155.88 156.267 155.924 156.295 155.995 156.351 155.99 156.401 
156.885 156.164 156.413 156.055 156.457 157.007 157.515 156.533 156.581 
156.425 156.573 156.956 157.408 157.959 156.985 156.974 157.03 157.048 
157.076 157.276 157.8 158.433 157.589 157.696 157.645 157.668 157.519 
157.444 157.8 158.444 159 158.341 158.514 158.304 158.288 158.116 
157.941 158.132 158.655 159.161 159.535 160.173 159.886 160.65 159.611 
160.43 161.287 159.2 160.203 161.027 161.846 158.751 159.825 160.723 
161.515 162.286 158.619 159.429 160.345 161.201 162.07 162.872 158.788 
159.318 160.032 160.88 161.819 162.766 163.62 158.923 159.403 159.922 
160.639 161.498 162.443 163.406 164.303 158.975 159.464 159.914 160.533 
161.294 162.113 163.028 163.981 164.84 159.076 159.516 159.935 160.503 
161.204 161.95 162.783 163.69 164.54 165.256 160.824 161.416 161.551 
162.096 162.191 162.307 162.6 162.873 163.014 163.3 163.051 163.445 
163.835 164.114 164.415 163.764 164.071 164.6 164.965 165.113 165.214 
164.611 164.879 165.286 165.633 165.703 165.704 165.77 165.274 165.619 
165.906 166.128 166.192 166.19 166.242 166.317 165.696 166.099 166.384 
166.553 166.655 166.76 166.847 166.848 166.83 165.849 166.319 166.463 
167.01 167.196 166.723 167.853 167.943 167.475 166.985 168.695 168.615 
168.436 167.798 167.159 169.444 169.358 169.36 168.779 168.017 167.369 
170.096 169.962 170.116 169.643 168.848 168.191 167.554 170.409 170.082 
170.66 170.421 169.605 168.811 168.209 167.528 170.391 169.991 170.827 
170.955 170.412 169.508 168.742 168.065 167.387 170.396 170.11 170.718 
170.954 170.796 170.168 169.404 168.698 168 167.372 165.209 165.747 
165.086 165.512 164.795 166.36 165.218 164.547 166.152 167.122 165.164 
164.601 166.02 167.011 167.838 165.318 164.702 166.099 167.006 167.808 
168.578 165.311 164.584 166.152 167.026 167.792 168.608 169.407 165.151 
164.445 166.003 166.895 167.61 168.373 169.239 169.802 165.021 164.409 
165.767 166.62 167.323 167.924 168.677 169.332 169.69 164.893 164.359 
165.514 166.273 167.007 167.578 168.15 168.756 169.242 169.666 159.092 
159.505 159.472 159.845 159.697 159.918 160.288 160.131 160.473 160.493 
160.909 160.862 161.133 161.185 161.158 161.518 161.599 161.668 161.728 
161.726 161.845 162.144 162.295 162.204 162.248 162.227 162.441 162.701 
162.927 163.063 162.961 163.068 163.021 163.123 163.483 163.68 163.744 
163.798 163.768 163.935 163.971 163.894 164.092 164.419 164.535 158.281 
158.956 158.062 158.78 157.954 159.345 158.641 158.122 159.225 159.613 
158.701 158.453 159.186 159.728 160.249 158.965 158.638 159.354 159.948 
160.603 161.157 159.249 158.724 159.722 160.226 160.851 161.477 161.931 
159.451 158.949 160.023 160.539 161.016 161.577 162.147 162.622 159.635 
159.283 160.154 160.751 161.25 161.708 162.242 162.805 163.332 159.871 