# vtk DataFile Version 4.0
vtk output
ASCII
DATASET POLYDATA
POINTS 1002 float
-119.212 -100.676 51.1858 -119.329 -100.54 50.5413 -118.689 -100.599 50.6691 
-118.595 -100.946 51.2311 -118.005 -100.685 50.8804 -119.119 -101.266 51.5572 
-117.868 -101.204 51.3317 -117.282 -100.778 51.1496 -118.531 -101.651 51.5321 
-119.033 -101.947 51.881 -117.003 -101.395 51.4997 -116.479 -101.013 51.332 
-117.711 -101.826 51.6717 -118.361 -102.055 52.1015 -118.801 -102.052 52.7722 
-116.121 -101.685 51.6358 -115.65 -101.504 51.317 -116.774 -101.881 52.0034 
-117.466 -101.967 52.5723 -117.958 -101.9 53.3619 -118.414 -101.918 54.044 
-115.371 -102.007 51.7579 -114.89 -101.975 51.2689 -115.982 -101.961 52.4432 
-116.677 -101.991 53.1101 -117.191 -101.98 53.8637 -117.601 -102.02 54.5409 
-118.15 -102.255 54.8891 -114.684 -102.085 52.0375 -114.139 -102.106 51.4585 
-115.304 -101.939 52.9315 -116.017 -102.066 53.5955 -116.644 -102.333 54.0627 
-117.104 -102.492 54.6266 -117.59 -102.679 55.0588 -118.132 -102.857 55.3256 
-113.932 -102.016 52.4853 -113.398 -101.988 51.9161 -114.563 -101.9 53.3537 
-115.25 -102.107 53.9646 -115.939 -102.635 54.1601 -116.546 -102.972 54.5038 
-117.138 -103.115 55.037 -117.721 -103.283 55.4425 -118.18 -103.317 55.8466 
-113.224 -102.034 52.9427 -112.839 -101.85 52.4637 -113.785 -102.065 53.6155 
-114.439 -102.268 54.1468 -115.097 -102.825 54.3165 -115.699 -103.294 54.555 
-116.346 -103.383 55.1223 -117.086 -103.437 55.6596 -117.725 -103.573 56.07 
-118.15 -103.569 56.5453 -112.728 -102.096 53.3272 -112.524 -101.741 52.9607 
-113.131 -102.321 53.7886 -113.735 -102.506 54.2371 -114.42 -102.868 54.5378 
-114.995 -103.347 54.8471 -115.505 -103.571 55.3888 -116.185 -103.525 55.9849 
-116.972 -103.523 56.445 -117.604 -103.6 56.8809 -118.034 -103.609 57.353 
-119.022 -100.525 49.9172 -118.296 -100.499 50.1089 -118.626 -100.255 49.469 
-117.838 -100.294 49.6297 -118.18 -99.7838 49.1884 -117.592 -100.485 50.4029 
-117.351 -100.044 49.1988 -117.763 -99.4089 48.8703 -117.116 -100.423 49.7671 
-116.885 -100.53 50.7194 -116.933 -99.7608 48.8057 -117.442 -99.0186 48.6105 
-116.551 -100.433 49.0591 -116.348 -100.541 49.9705 -116.055 -100.77 50.9592 
-116.631 -99.1952 48.6786 -117.218 -98.3368 48.6394 -116.053 -100.171 48.6686 
-115.712 -100.559 49.256 -115.493 -100.614 50.4297 -115.185 -101.239 51.0766 
-116.382 -98.3996 48.7864 -117.018 -97.5934 48.778 -115.715 -99.4475 48.7926 
-115.278 -100.187 49.1024 -115.021 -100.359 50.0492 -114.712 -100.79 50.9335 
-114.364 -101.647 51.1532 -116.134 -97.7133 48.8334 -116.736 -97.0393 48.7978 
-115.472 -98.5922 49.019 -115.058 -99.4358 49.3822 -114.813 -99.8945 49.9993 
-114.426 -100.283 50.7749 -113.922 -101.034 51.1892 -113.552 -101.739 51.3698 
-115.872 -97.1726 48.8348 -116.346 -96.5599 48.7805 -115.297 -97.9017 49.0956 
-114.904 -98.6433 49.5935 -114.667 -99.2586 50.1067 -114.245 -99.7874 50.6129 
-113.642 -100.426 51.0712 -113.157 -101.113 51.3852 -112.911 -101.591 51.7991 
-115.603 -96.649 48.9488 -115.933 -96.0452 48.8359 -115.185 -97.3576 49.2153 
-114.821 -98.0203 49.7048 -114.521 -98.606 50.2026 -114.03 -99.2241 50.5725 
-113.387 -99.8804 50.9286 -112.922 -100.485 51.3136 -112.691 -100.988 51.7574 
-112.573 -101.392 52.3325 -115.424 -95.8803 49.0835 -115.158 -96.6577 49.3855 
-115.077 -95.9006 49.5366 -114.844 -96.8176 50.0483 -114.818 -96.1483 50.1366 
-114.843 -97.4289 49.8412 -114.402 -96.9215 50.6866 -114.416 -96.3916 50.7852 
-114.458 -97.4617 50.5288 -114.48 -97.9963 50.3147 -113.663 -96.778 51.169 
-113.874 -96.5129 51.4444 -113.695 -97.2615 51.0033 -113.811 -97.9007 50.8184 
-113.877 -98.577 50.6558 -112.975 -96.7406 51.6702 -113.477 -96.7321 52.138 
-112.716 -97.0163 51.3275 -112.792 -97.735 51.1372 -112.915 -98.5787 51.0513 
-113.092 -99.3054 50.9587 -112.69 -97.0746 52.4146 -113.28 -97.0851 52.8968 
-112.141 -97.1311 51.8972 -111.992 -97.6922 51.5075 -112.119 -98.5714 51.4087 
-112.334 -99.3389 51.4146 -112.629 -99.9502 51.3442 -112.604 -97.4229 53.3228 
-113.146 -97.3595 53.6613 -112.036 -97.4282 52.8695 -111.764 -97.7882 52.3474 
-111.808 -98.5663 52.0118 -112.003 -99.3253 51.9558 -112.285 -99.9036 51.9281 
-112.526 -100.445 51.8354 -112.536 -97.5748 54.1305 -113.081 -97.5162 54.34 
-112.018 -97.6126 53.8771 -111.771 -97.8883 53.5239 -111.756 -98.5595 53.1148 
-111.798 -99.3386 52.8241 -111.981 -99.9233 52.6787 -112.268 -100.399 52.5611 
-112.449 -100.904 52.441 -112.549 -97.682 54.7853 -113.08 -97.6248 54.965 
-112.042 -97.799 54.6306 -111.766 -98.0879 54.4958 -111.692 -98.6422 54.2865 
-111.588 -99.372 53.9581 -111.547 -100.012 53.6245 -111.795 -100.471 53.3812 
-112.14 -100.894 53.2094 -112.351 -101.35 53.0697 -112.377 -101.911 53.6029 
-112.154 -101.483 53.7596 -112.247 -102.08 54.2802 -111.811 -101.033 53.9518 
-112.015 -101.614 54.5199 -112.155 -102.222 55.2074 -111.404 -100.62 54.2041 
-111.695 -101.186 54.7422 -111.984 -101.805 55.5097 -112.139 -102.346 56.3895 
-111.284 -100.087 54.5834 -111.378 -100.712 55.0275 -111.781 -101.417 55.7113 
-111.98 -102.016 56.6846 -112.337 -102.281 57.4189 -111.48 -99.4302 54.9783 
-111.321 -100.048 55.4636 -111.519 -100.769 56.0144 -111.792 -101.633 56.9019 
-112.107 -102.015 57.7205 -112.779 -102.038 58.1177 -111.701 -98.8577 55.1669 
-111.583 -99.5012 55.8046 -111.491 -99.9553 56.4395 -111.59 -100.816 57.2372 
-111.883 -101.669 58.0537 -112.439 -101.907 58.5499 -113.175 -102.003 58.8151 
-111.935 -98.391 55.2149 -111.976 -99.1494 55.8964 -111.911 -99.563 56.6529 
-111.773 -100.007 57.4749 -111.84 -100.887 58.3235 -112.189 -101.587 58.9863 
-112.749 -101.904 59.3547 -113.42 -102.181 59.622 -112.298 -97.9968 55.3407 
-112.278 -98.6392 56.0108 -112.363 -99.283 56.7373 -112.31 -99.7195 57.4545 
-112.206 -100.265 58.2421 -112.271 -100.91 59.0735 -112.551 -101.421 59.6936 
-113.069 -101.857 60.0325 -113.782 -102.22 60.2863 -112.741 -97.753 55.5548 
-112.467 -98.0457 56.2794 -112.434 -98.6076 57.005 -112.564 -99.3076 57.5588 
-112.643 -99.9722 58.0708 -112.664 -100.452 58.7941 -112.755 -100.775 59.5758 
-113.044 -101.19 60.1139 -113.608 -101.691 60.4384 -114.321 -102.065 60.7388 
-112.576 -102.36 53.9424 -112.473 -102.564 54.6972 -113.026 -102.645 54.3548 
-112.47 -102.666 55.8281 -113.071 -102.762 55.2493 -113.776 -102.779 54.8233 
-112.685 -102.666 56.9972 -113.278 -102.767 56.4469 -113.983 -102.717 55.871 
-114.527 -103.026 55.3104 -113.164 -102.447 57.7829 -113.612 -102.792 57.4109 
-114.163 -102.723 56.9646 -114.669 -102.92 56.4143 -115.019 -103.426 55.8462 
-113.636 -102.249 58.4692 -113.973 -102.729 58.2085 -114.274 -102.939 57.9013 
-114.7 -103.046 57.4298 -115.117 -103.427 56.8871 -115.536 -103.625 56.4123 
-113.909 -102.36 59.3487 -114.265 -102.689 59.1964 -114.496 -103.053 59.0424 
-114.84 -103.288 58.6476 -115.312 -103.534 58.0439 -115.754 -103.634 57.4681 
-116.289 -103.539 56.9569 -114.216 -102.511 60.1835 -114.574 -102.774 60.1585 
-114.853 -103.09 60.1752 -115.223 -103.381 59.9956 -115.678 -103.586 59.5108 
-116.068 -103.584 58.8763 -116.471 -103.432 58.2085 -117.026 -103.445 57.5142 
-114.687 -102.444 60.7964 -114.964 -102.829 60.8657 -115.176 -103.24 60.9566 
-115.53 -103.558 60.9281 -116.003 -103.703 60.668 -116.353 -103.635 60.2431 
-116.626 -103.394 59.6739 -117.043 -103.294 58.9011 -117.577 -103.464 58.0486 
-115.033 -102.129 61.298 -115.286 -102.631 61.4404 -115.385 -102.34 62.0561 
-115.444 -103.208 62.1862 -115.478 -102.826 62.7104 -115.351 -103.347 61.5594 
-115.536 -104.029 62.805 -115.971 -103.31 62.9918 -115.392 -104.304 62.2578 
-115.509 -103.976 61.5748 -116.245 -104.326 63.1661 -116.865 -103.388 63.2057 
-115.727 -105.043 62.8147 -115.721 -104.881 62.0573 -115.994 -104.178 61.3534 
-117.167 -103.91 63.4087 -117.488 -103.167 63.5794 -116.71 -104.837 63.0663 
-116.417 -105.277 62.334 -116.443 -104.82 61.5312 -116.5 -104.05 61.0096 
-117.745 -103.456 63.5087 -118.019 -102.965 63.7234 -117.527 -104.127 63.0417 
-117.392 -104.95 62.3461 -117.27 -105.212 61.5533 -117.052 -104.579 61.0873 
-116.816 -103.746 60.6591 -118.433 -103.294 63.3564 -118.864 -102.809 63.4723 
-118.043 -103.666 62.8987 -117.908 -104.309 62.2588 -117.978 -105.023 61.5817 
-117.848 -104.994 61.0777 -117.475 -104.177 60.7434 -117.186 -103.459 60.0575 
-119.311 -103.191 63.0532 -119.609 -102.593 63.0604 -118.862 -103.525 62.7359 
-118.426 -103.815 62.2049 -118.298 -104.283 61.6778 -118.359 -104.598 61.1685 
-118.22 -104.321 60.6602 -117.918 -103.746 60.0421 -117.7 -103.441 59.1244 
-119.882 -102.931 62.6488 -119.909 -102.293 62.5772 -119.752 -103.395 62.4971 
-119.369 -103.623 62.0919 -118.897 -103.69 61.6603 -118.669 -103.729 61.233 
-118.653 -103.747 60.6089 -118.57 -103.662 59.8433 -118.374 -103.551 59.0555 
-118.181 -103.544 58.209 -114.461 -101.683 60.9023 -115.01 -101.829 61.6402 
-114.594 -101.331 61.0723 -114.819 -101.522 62.0759 -114.649 -100.875 61.3715 
-115.18 -102.012 62.5323 -114.656 -100.865 62.5092 -114.653 -100.166 61.6731 
-114.922 -101.557 62.97 -115.503 -102.29 62.9822 -114.78 -99.9631 62.6196 
-114.8 -99.5693 61.6484 -114.971 -100.683 63.1635 -115.676 -101.633 63.096 
-116.435 -102.575 62.978 -115.235 -99.5412 62.2023 -115.2 -99.3006 61.2988 
-115.397 -99.8318 62.9558 -116.061 -100.729 63.0651 -116.859 -101.862 62.956 
-117.285 -102.674 63.2238 -115.803 -99.4953 61.4946 -115.631 -98.9061 60.9508 
-115.978 -99.6155 62.3593 -116.494 -99.9697 62.9008 -117.174 -100.968 62.9689 
-117.55 -101.933 63.1963 -117.751 -102.534 63.6129 -116.252 -99.109 60.9292 
-115.936 -98.2578 60.7452 -116.543 -99.556 61.5887 -116.939 -99.6651 62.4389 
-117.43 -100.162 62.8547 -117.796 -101.001 63.0297 -118.106 -101.682 63.347 
-118.504 -102.262 63.5672 -116.617 -98.4131 60.6939 -116.272 -97.697 60.6014 
-117.025 -99.0895 61.0267 -117.422 -99.4288 61.7223 -117.746 -99.7439 62.3328 
-118.038 -100.313 62.6307 -118.467 -100.85 62.9004 -119.011 -101.34 63.1571 
-119.417 -101.974 63.2056 -117.052 -97.7941 60.6329 -116.755 -97.3288 60.4324 
-117.447 -98.417 60.81 -117.843 -98.9711 61.1473 -118.092 -99.4474 61.5694 
[...]
CELL_DATA 2000
SCALARS Distance double
LOOKUP_TABLE default
162.955 162.61 162.932 163.265 162.247 162.606 162.999 163.336 163.716 
161.845 162.218 162.592 163.014 163.389 163.753 164.031 161.488 161.807 
162.129 162.541 162.883 163.309 163.563 163.921 164.113 161.207 161.477 
161.77 162.103 162.456 162.824 163.144 163.457 163.714 164.012 164.298 
160.874 161.176 161.444 161.768 162.131 162.487 162.897 163.186 163.557 
163.772 164.143 164.371 164.756 160.451 160.787 161.047 161.403 161.75 
162.154 162.584 162.971 163.384 163.681 164.067 164.314 164.715 164.928 
165.288 160.088 160.381 160.673 161.004 161.358 161.749 162.174 162.605 
163.024 163.416 163.774 164.129 164.481 164.82 165.168 165.423 165.707 
159.884 160.108 160.421 160.693 161.054 161.389 161.808 162.203 162.637 
163.028 163.399 163.753 164.075 164.448 164.773 165.154 165.448 165.746 
165.971 162.747 162.236 162.444 162.33 161.604 161.873 161.765 162.015 
161.936 160.948 161.225 161.158 161.43 161.361 161.618 161.556 160.355 
160.603 160.54 160.818 160.758 161.029 160.97 161.241 161.211 159.777 
160.017 159.925 160.2 160.117 160.397 160.322 160.624 160.607 160.923 
160.93 159.187 159.411 159.29 159.565 159.487 159.765 159.698 159.974 
159.958 160.288 160.312 160.638 160.613 158.626 158.816 158.67 158.921 
158.876 159.168 159.169 159.421 159.411 159.671 159.671 159.982 159.953 
160.258 160.184 158.079 158.267 158.124 158.337 158.309 158.597 158.654 
158.934 158.941 159.166 159.111 159.356 159.294 159.581 159.525 159.823 
159.797 157.525 157.739 157.664 157.86 157.87 158.105 158.179 158.439 
158.452 158.675 158.586 158.797 158.704 158.957 158.924 159.206 159.23 
159.523 159.591 157.194 156.967 157.186 157.442 157.01 157.118 157.404 
157.51 157.74 157.064 157.176 157.399 157.519 157.701 157.816 158.019 
156.896 157.024 157.052 157.314 157.387 157.653 157.757 158.007 158.18 
156.768 156.716 156.529 156.736 156.721 157.11 157.2 157.582 157.716 
158.065 158.248 156.985 156.706 156.442 156.317 156.261 156.458 156.646 
157 157.255 157.589 157.839 158.149 158.394 157.356 157.05 156.821 
156.493 156.413 156.306 156.537 156.681 157.072 157.293 157.666 157.878 
158.201 158.406 158.683 157.666 157.419 157.228 156.937 156.858 156.663 
156.858 156.839 157.222 157.312 157.709 157.844 158.197 158.342 158.647 
158.782 159.047 157.954 157.719 157.565 157.321 157.287 157.115 157.297 
157.236 157.55 157.555 157.866 157.931 158.229 158.361 158.661 158.801 
159.077 159.186 159.437 159.641 159.275 159.589 159.853 158.842 159.181 
159.45 159.809 160.128 158.411 158.724 159.005 159.392 159.771 160.149 
160.546 158.101 158.347 158.614 158.959 159.386 159.812 160.276 160.633 
161.037 157.878 158.118 158.369 158.619 158.982 159.404 159.911 160.357 
160.793 161.116 161.474 157.67 157.936 158.264 158.458 158.74 159.014 
159.444 159.919 160.432 160.86 161.263 161.554 161.929 157.581 157.781 
158.212 158.428 158.797 158.915 159.261 159.517 160.016 160.457 160.966 
161.344 161.749 162.042 162.455 157.734 157.785 158.174 158.401 158.863 
159.043 159.423 159.523 159.927 160.164 160.659 161.02 161.461 161.812 
162.198 162.548 162.965 158.061 157.997 158.226 158.352 158.705 158.989 
159.376 159.63 159.997 160.193 160.587 160.816 161.211 161.495 161.858 
162.211 162.602 163.006 163.425 159.915 160.157 160.166 160.449 160.455 
160.44 160.748 160.748 161.082 160.877 160.806 161.137 161.095 161.457 
161.444 161.836 161.373 161.299 161.658 161.566 161.932 161.866 162.267 
162.25 162.657 161.816 161.794 162.194 162.132 162.482 162.374 162.726 
162.685 163.072 163.06 163.412 162.267 162.234 162.665 162.648 163.021 
162.918 163.226 163.141 163.501 163.473 163.822 163.773 164.081 162.817 
162.742 163.183 163.138 163.573 163.473 163.842 163.698 164.08 163.968 
164.34 164.223 164.527 164.436 164.754 163.383 163.328 163.783 163.712 
164.181 164.087 164.548 164.403 164.844 164.664 165.038 164.825 165.093 
164.912 165.175 165.109 165.421 163.873 163.874 164.343 164.308 164.775 
164.719 165.196 165.12 165.572 165.441 165.785 165.561 165.761 165.505 
165.676 165.526 165.773 165.735 165.987 164.268 164.99 164.694 164.769 
165.659 165.417 165.555 165.203 165.244 166.378 166.135 166.364 166.026 
166.124 165.694 165.702 167.145 166.92 167.2 166.887 167.014 166.589 
166.59 166.133 166.08 167.698 167.596 167.841 167.67 167.803 167.46 
167.421 166.975 166.854 166.417 166.253 167.998 167.953 168.092 168.08 
168.215 168.109 168.13 167.784 167.635 167.15 166.908 166.449 166.182 
168.34 168.215 168.261 168.181 168.239 168.283 168.393 168.346 168.307 
167.941 167.677 167.129 166.805 166.317 166.067 168.701 168.604 168.657 
168.439 168.401 168.281 168.317 168.385 168.417 168.386 168.187 167.843 
167.478 166.987 166.695 166.262 166.118 168.763 168.862 168.988 168.88 
168.863 168.603 168.513 168.348 168.269 168.27 168.114 168.061 167.76 
167.52 167.208 166.873 166.678 166.356 166.263 164.072 164.001 164.294 
164.786 163.883 164.196 164.653 164.949 165.395 163.616 163.982 164.385 
164.743 165.173 165.528 166.035 163.28 163.618 163.985 164.386 164.853 
165.281 165.84 166.238 166.806 163.154 163.356 163.713 164.004 164.514 
164.961 165.613 166.064 166.665 167.009 167.449 163.163 163.354 163.733 
163.89 164.358 164.691 165.337 165.811 166.418 166.822 167.248 167.532 
167.825 163.016 163.326 163.75 163.966 164.384 164.621 165.133 165.517 
166.045 166.473 166.882 167.254 167.59 167.876 168.174 162.8 163.118 
163.576 163.898 164.337 164.607 165.021 165.311 165.723 166.074 166.461 
166.842 167.211 167.587 167.936 168.236 168.499 162.743 162.958 163.406 
163.706 164.164 164.472 164.863 165.141 165.477 165.769 166.117 166.458 
166.832 167.204 167.548 167.903 168.137 168.432 168.535 158.322 158.638 
158.433 158.401 158.876 158.688 158.613 158.53 158.707 159.255 158.991 
158.92 158.73 158.889 158.95 159.334 159.892 159.578 159.639 159.246 
159.398 159.232 159.655 159.697 160.105 160.512 160.31 160.503 160.146 
160.304 159.95 160.288 160.159 160.605 160.509 160.795 160.936 160.837 
161.03 160.897 161.05 160.814 161.016 160.844 161.178 161.067 161.346 
161.169 161.356 161.335 161.2 161.366 161.294 161.479 161.367 161.548 
161.432 161.699 161.616 161.891 161.731 161.923 161.724 161.942 161.825 
161.631 161.82 161.691 161.96 161.821 162.075 161.914 162.199 162.099 
162.439 162.314 162.598 162.367 162.618 162.392 162.699 162.371 162.161 
162.374 162.228 162.551 162.414 162.715 162.516 162.764 162.607 162.922 
162.853 163.21 163.08 163.388 163.157 163.457 163.225 163.546 158.353 
158.423 158.526 158.7 158.381 158.536 158.782 158.844 158.968 158.447 
158.527 158.775 158.875 159.058 159.089 159.262 158.524 158.628 158.844 
158.911 159.111 159.157 159.36 159.433 159.74 158.408 158.617 158.881 
159.005 159.256 159.296 159.547 159.564 159.86 159.963 160.317 158.4 
158.538 158.922 159.056 159.418 159.494 159.82 159.833 160.136 160.145 
160.458 160.526 160.82 158.715 158.738 159.208 159.254 159.691 159.721 
160.075 160.098 160.39 160.415 160.691 160.725 161.003 161.029 161.28 
159.107 159.131 159.577 159.631 160.051 160.066 160.386 160.365 160.61 
160.611 160.855 160.91 161.194 161.252 161.532 161.533 161.782 159.439 
159.464 159.819 159.908 160.25 160.34 160.621 160.653 160.879 160.856 
161.079 161.077 161.36 161.422 161.745 161.796 162.085 162.069 162.322 
159.743 160.282 160.008 160.06 160.867 160.539 160.518 160.312 160.413 
161.517 161.147 161.067 160.765 160.802 160.656 160.774 162.16 161.811 
161.732 161.358 161.339 161.085 161.192 161.027 161.101 162.758 162.449 
162.42 162.051 162.024 161.686 161.76 161.52 161.616 161.362 161.362 
163.37 163.061 163.094 162.762 162.786 162.417 162.461 162.143 162.223 
161.937 161.967 161.647 161.646 164.039 163.705 163.75 163.448 163.53 
163.201 163.255 162.884 162.916 162.573 162.605 162.285 162.31 161.991 
162.028 164.725 164.389 164.394 164.089 164.152 163.896 163.975 163.664 
163.67 163.293 163.28 162.935 162.966 162.661 162.7 162.386 162.391 
165.334 165.048 165.024 164.707 164.701 164.451 164.516 164.296 164.331 
164.016 163.977 163.618 163.611 163.304 163.342 163.043 163.042 162.704 
162.651 165.621 165.935 165.649 165.338 166.257 165.964 165.669 165.328 
165.009 166.627 166.313 166.052 165.7 165.403 165.053 164.81 166.995 
166.675 166.422 166.113 165.852 165.494 165.224 164.89 164.632 167.29 
166.985 166.679 166.436 166.185 165.909 165.606 165.279 164.943 164.63 
164.289 167.478 167.23 166.913 166.667 166.403 166.163 165.852 165.57 
165.201 164.901 164.546 164.247 163.928 167.621 167.431 167.229 166.959 
166.724 166.415 166.113 165.789 165.446 165.14 164.821 164.527 164.237 
163.936 163.658 167.891 167.684 167.6 167.336 167.144 166.803 166.496 
166.116 165.778 165.432 165.143 164.838 164.562 164.255 163.944 163.648 
163.332 168.32 168.076 167.996 167.727 167.513 167.195 166.857 166.499 
166.133 165.792 165.484 165.181 164.896 164.582 164.24 163.91 163.533 
163.251 162.908 165.808 166.13 166.017 166.117 166.534 166.347 166.445 
166.328 166.438 167.055 166.818 166.897 166.712 166.869 166.712 166.845 
167.434 167.324 167.457 167.267 167.471 167.258 167.472 167.216 167.318 
167.584 167.615 167.873 167.826 168.101 167.936 168.196 167.944 168.098 
167.728 167.709 167.724 167.774 168.127 168.195 168.548 168.501 168.74 
168.599 168.719 168.469 168.399 168.01 167.838 167.833 167.936 168.308 
168.448 168.849 168.88 169.078 168.983 168.985 168.861 168.712 168.5 
168.238 167.966 167.796 167.759 167.959 168.321 168.567 168.987 169.128 
169.327 169.245 169.149 168.984 168.766 168.619 168.381 168.212 168.057 
167.914 167.947 167.632 167.832 168.187 168.477 168.881 169.145 169.356 
169.396 169.279 169.115 168.866 168.684 168.527 168.372 168.347 168.202 
168.312 168.2 168.388 165.64 165.465 165.705 165.986 165.282 165.546 
165.919 166.119 166.451 165.092 165.372 165.797 166.08 166.511 166.682 
167.003 164.868 165.158 165.515 165.873 166.314 166.669 167.011 167.174 
167.336 164.564 164.896 165.162 165.49 165.827 166.293 166.679 167.042 
167.223 167.355 167.423 164.099 164.531 164.829 165.127 165.381 165.753 
166.143 166.603 166.945 167.203 167.341 167.429 167.54 163.525 164.005 
164.386 164.778 165.06 165.364 165.676 166.083 166.474 166.877 167.145 
167.351 167.457 167.558 167.638 163.037 163.445 163.83 164.291 164.624 
165.002 165.244 165.614 165.888 166.342 166.621 167.021 167.16 167.39 
167.393 167.541 167.536 162.716 163.021 163.347 163.748 164.07 164.485 
164.721 165.102 165.31 165.726 165.977 166.418 166.618 166.959 167.011 
167.215 167.185 167.358 167.381 162.672 162.783 162.898 163.269 162.928 
163.031 163.391 163.514 163.915 163.175 163.254 163.646 163.679 164.038 
164.15 164.541 163.391 163.552 164.036 164.05 164.432 164.387 164.748 
164.791 165.179 163.368 163.66 164.161 164.377 164.797 164.839 165.19 
165.146 165.497 165.487 165.869 163.282 163.531 163.927 164.265 164.62 
164.937 165.26 165.471 165.781 165.851 166.139 166.166 166.474 163.341 
163.476 163.783 163.984 164.259 164.557 164.855 165.24 165.592 165.922 
166.217 166.363 166.562 166.646 166.842 163.362 163.519 163.797 163.925 
164.203 164.336 164.669 164.89 165.334 165.651 166.103 166.339 166.625 
166.701 166.853 166.91 167.049 163.232 163.443 163.709 163.905 164.209 
164.378 164.756 164.914 165.385 165.585 166.114 166.315 166.749 166.822 
167.069 167.023 167.174 167.143 167.301 163.24 163.52 163.473 163.73 
163.951 163.827 164.054 164.004 164.287 164.3 164.258 164.462 164.381 
164.679 164.635 164.934 164.461 164.539 164.806 164.771 165.048 165.036 
165.41 165.353 165.646 164.664 164.726 165.12 165.122 165.424 165.384 
165.742 165.779 166.188 166.112 166.38 165.032 165.012 165.431 165.476 
165.84 165.786 166.067 166.061 166.452 166.541 166.914 166.829 166.996 
165.47 165.387 165.69 165.753 166.116 166.158 166.391 166.353 166.594 
166.699 167.079 167.205 167.448 167.324 167.323 165.886 165.785 165.991 
165.98 166.296 166.368 166.627 166.607 166.744 166.768 167.033 167.239 
167.559 167.642 167.716 167.521 167.418 166.198 166.152 166.35 166.291 
166.571 166.587 166.893 166.86 167.008 166.911 167.047 167.145 167.453 
167.661 167.89 167.863 167.842 167.592 167.506 167.713 168.028 167.984 
168.258 168.032 168.19 168.434 168.546 168.879 167.571 167.921 168.116 
168.471 168.732 169.028 169.24 167.2 167.416 167.575 167.925 168.122 
168.573 168.745 169.116 169.115 167.227 167.283 167.443 167.519 167.668 
167.921 168.126 168.498 168.622 168.867 168.784 167.168 167.355 167.522 
167.553 167.624 167.662 167.843 168.054 168.358 168.553 168.705 168.691 
168.616 166.863 167.154 167.337 167.518 167.547 167.621 167.691 167.875 
168.19 168.462 168.81 168.857 168.943 168.717 168.603 166.604 166.836 
167.046 167.256 167.369 167.479 167.552 167.69 167.91 168.226 168.58 
168.89 169.102 169.107 169.064 168.786 168.64 166.391 166.598 166.793 
167.009 167.228 167.378 167.598 167.661 167.876 167.988 168.224 168.5 
168.71 169.001 169.065 169.122 169.029 168.824 168.685 157.558 158.175 
157.868 157.833 158.749 158.487 158.473 158.127 158.061 159.302 159.054 
159.065 158.748 158.707 158.366 158.406 159.892 159.64 159.702 159.375 
159.389 159.039 159.13 158.838 159.043 160.484 160.261 160.418 160.111 
160.215 159.82 159.938 159.599 159.806 159.543 159.754 161.086 160.869 
161.089 160.861 161.061 160.722 160.853 160.463 160.613 160.295 160.477 
160.199 160.358 161.767 161.525 161.742 161.522 161.737 161.505 161.661 
161.347 161.45 161.105 161.237 160.926 161.098 160.808 161.012 162.431 
162.231 162.441 162.194 162.361 162.125 162.29 162.058 162.206 161.911 
162.041 161.711 161.874 161.572 161.774 161.504 161.726 162.935 162.827 
163.043 162.857 162.998 162.75 162.898 162.675 162.895 162.658 162.862 
162.539 162.691 162.356 162.513 162.233 162.401 162.162 162.319 157.207 
157.461 157.144 156.807 157.702 157.396 157.1 156.829 156.684 158.085 
157.686 157.408 157.128 157.03 156.856 156.94 158.771 158.245 157.976 
157.538 157.4 157.172 157.232 157.174 157.372 159.505 159.022 158.811 
158.292 158.162 157.709 157.686 157.438 157.553 157.546 157.749 160.11 
159.702 159.542 159.134 159.094 158.643 158.647 158.145 158.161 157.818 
157.944 157.882 158.056 160.799 160.348 160.224 159.827 159.819 159.493 
159.553 159.159 159.158 158.661 158.663 158.288 158.41 158.241 158.39 
161.562 161.127 161.057 160.605 160.586 160.196 160.211 159.893 159.877 
159.536 159.486 159.11 159.13 158.807 158.925 158.679 158.822 162.172 
161.852 161.809 161.449 161.438 161.027 160.996 160.569 160.501 160.127 
160.069 159.77 159.78 159.518 159.601 159.333 159.449 159.185 159.321 
156.988 156.575 156.693 156.68 156.437 156.35 156.268 156.48 156.66 
156.734 156.404 156.191 156.143 156.264 156.569 156.808 157.293 156.888 
156.6 156.233 156.185 156.264 156.541 156.779 156.906 157.783 157.501 
157.272 156.776 156.558 156.334 156.516 156.644 156.924 156.948 156.989 
158.063 157.923 157.784 157.415 157.154 156.793 156.819 156.766 157.046 
157.077 157.259 157.147 157.205 158.284 158.141 158.017 157.8 157.593 
157.315 157.286 157.151 157.356 157.304 157.483 157.408 157.512 157.421 
157.507 158.65 158.401 158.275 158.033 157.889 157.665 157.67 157.569 
157.772 157.693 157.851 157.692 157.771 157.667 157.79 157.721 157.818 
159.162 158.854 158.774 158.444 158.359 158.046 158.063 157.911 158.118 
158.079 158.277 158.126 158.192 157.996 158.104 158.003 158.167 158.05 
158.133 165.355 164.762 165.106 165.151 164.073 164.46 164.527 164.874 
164.925 163.39 163.76 163.834 164.214 164.28 164.643 164.72 162.779 
163.103 163.167 163.529 163.592 163.963 164.027 164.421 164.502 162.192 
162.502 162.55 162.892 162.955 163.293 163.313 163.676 163.707 164.139 
164.171 161.55 161.876 161.871 162.234 162.277 162.656 162.674 162.994 
162.957 163.307 163.282 163.714 163.675 160.887 161.2 161.131 161.476 
161.417 161.855 161.849 162.29 162.263 162.611 162.555 162.876 162.824 
163.19 163.133 160.263 160.54 160.454 160.732 160.599 160.94 160.85 
161.323 161.315 161.815 161.819 162.212 162.184 162.475 162.435 162.727 
162.711 159.677 159.924 159.832 160.086 159.971 160.206 160.098 160.402 
160.382 160.823 160.884 161.379 161.423 161.835 161.819 162.128 162.108 
162.398 162.42 
POINT_DATA 1002
SCALARS Distance double
LOOKUP_TABLE default
163.217 163.019 162.63 162.95 162.253 163.628 162.616 161.873 163.433 
164.087 162.165 161.499 162.995 163.74 164.267 161.758 161.208 162.463 
163.193 163.758 164.318 161.465 160.948 162.09 162.818 163.423 163.963 
164.615 161.116 160.559 161.752 162.554 163.319 163.93 164.535 165.12 
160.687 160.109 161.342 162.158 163.04 163.794 164.479 165.131 165.613 
160.35 159.806 160.985 161.748 162.618 163.415 164.115 164.851 165.525 
165.983 160.168 159.679 160.745 161.434 162.243 163.051 163.731 164.381 
165.089 165.731 166.201 162.595 162.11 162.004 161.505 161.305 161.683 
160.866 160.675 161.104 161.299 160.269 160.122 160.486 160.686 160.927 
159.662 159.549 159.845 160.021 160.261 160.635 159.023 158.991 159.189 
159.429 159.645 159.971 160.332 158.436 158.453 158.553 158.889 159.19 
159.4 159.644 159.885 157.914 157.87 158.024 158.352 158.723 158.91 
159.026 159.215 159.477 157.433 157.272 157.645 157.942 158.244 158.392 
158.457 158.63 158.927 159.287 156.876 157.25 156.777 157.328 156.928 
157.636 157.274 156.992 157.596 157.873 156.809 156.888 157.075 157.493 
157.907 156.454 156.964 156.326 156.763 157.347 157.897 156.702 157.291 
156.173 156.286 156.892 157.527 158.096 157.159 157.621 156.606 156.461 
156.866 157.46 158.013 158.494 157.478 157.901 157.048 156.923 157.192 
157.611 158.058 158.521 158.927 157.778 158.182 157.438 157.375 157.595 
157.866 158.125 158.506 158.957 159.347 159.897 159.523 160.14 159.064 
159.765 160.481 158.604 159.347 160.202 160.957 158.314 158.926 159.886 
160.741 161.414 158.176 158.62 159.402 160.446 161.194 161.815 158.039 
158.579 159.022 159.912 160.941 161.653 162.318 157.931 158.668 159.146 
159.618 160.519 161.438 162.157 162.891 157.987 158.604 159.318 159.807 
160.356 161.104 161.842 162.596 163.408 158.225 158.466 159.046 159.767 
160.417 160.99 161.539 162.194 163.015 163.852 160.434 160.745 161.066 
161.194 161.474 161.832 161.749 162.032 162.293 162.677 162.22 162.616 
162.8 163.086 163.454 162.667 163.109 163.341 163.539 163.88 164.134 
163.242 163.639 163.972 164.216 164.486 164.656 164.794 163.852 164.255 
164.651 165.024 165.293 165.337 165.289 165.445 164.361 164.818 165.253 
165.685 166.009 166.056 165.893 165.848 166.03 164.592 165.13 165.248 
165.873 165.857 165.662 166.676 166.602 166.544 166.168 167.484 167.35 
167.442 167.056 166.548 167.956 167.788 168.085 167.884 167.323 166.694 
168.117 168.089 168.203 168.36 168.148 167.434 166.598 168.441 168.491 
168.226 168.29 168.533 168.242 167.355 166.462 168.881 168.731 168.652 
168.328 168.334 168.386 167.934 167.146 166.479 168.976 168.583 169.11 
168.831 168.383 168.091 167.866 167.482 166.997 166.561 163.773 164.518 
163.711 164.359 163.581 165.082 164.007 163.263 164.79 165.647 163.586 
162.993 164.364 165.408 166.467 163.49 162.98 164.065 165.114 166.319 
167.212 163.595 162.915 164.115 164.896 166.002 166.935 167.598 163.468 
162.665 164.188 164.852 165.653 166.482 167.23 167.943 163.222 162.514 
164.04 164.783 165.429 166.088 166.815 167.59 168.276 163.139 162.576 
163.857 164.595 165.213 165.79 166.472 167.209 167.846 168.292 158.561 
158.514 158.841 158.714 159.076 158.613 159.184 159.508 158.864 159.193 
160.045 160.126 159.69 159.641 160.133 160.762 160.649 160.703 160.52 
160.705 160.979 161.102 161.057 161.227 161.22 161.31 161.52 161.539 
161.443 161.506 161.556 161.657 161.768 162.019 162.135 162.095 161.944 
162.025 162.075 162.251 162.319 162.51 162.789 162.872 162.888 158.317 
158.702 158.251 158.656 158.237 158.991 158.689 158.415 158.981 159.204 
158.782 158.377 159.064 159.289 159.588 158.693 158.154 159.17 159.536 
159.817 160.176 158.768 158.279 159.307 159.778 160.15 160.444 160.754 
159.168 158.699 159.688 160.08 160.37 160.652 160.977 161.278 159.529 
159.094 160.037 160.43 160.648 160.814 161.102 161.503 161.815 159.77 