# vtk DataFile Version 4.0
vtk output
ASCII
DATASET POLYDATA
POINTS 1002 float
-117.271 -97.9878 42.6106 -117.195 -97.2989 42.4116 -116.605 -97.4431 42.5659 
-116.671 -98.1572 42.8067 -115.962 -97.6378 42.7443 -117.343 -98.6903 42.8302 
-115.986 -98.307 43.0533 -115.235 -98.0004 42.8488 -116.73 -98.7305 43.2275 
-117.415 -98.9636 43.5059 -115.226 -98.5638 43.2386 -114.485 -98.5375 42.8158 
-116.007 -98.7151 43.6846 -116.801 -98.9269 44.0747 -117.508 -99.0724 44.4895 
-114.516 -98.8654 43.4509 -113.733 -98.9616 42.8822 -115.259 -98.827 44.1008 
-116.05 -99.0108 44.5629 -116.895 -99.2724 44.9244 -117.619 -99.5839 45.264 
-113.805 -99.0115 43.9093 -112.965 -99.0415 43.357 -114.611 -99.0325 44.5579 
-115.308 -99.3154 44.9476 -116.128 -99.6662 45.211 -117.004 -99.9653 45.5735 
-117.703 -100.238 45.9324 -113.045 -99.0925 44.5183 -112.37 -98.9432 44.1085 
-113.902 -99.2951 44.9941 -114.681 -99.6766 45.2931 -115.43 -100.057 45.529 
-116.289 -100.304 45.9188 -117.1 -100.484 46.3787 -117.748 -100.625 46.7569 
-112.469 -99.2661 45.0392 -112.061 -98.9067 44.8187 -113.132 -99.6749 45.2749 
-113.977 -100.052 45.5284 -114.872 -100.263 45.9487 -115.703 -100.421 46.4857 
-116.445 -100.634 46.9083 -117.135 -100.848 47.1973 -117.799 -101.014 47.4532 
-112.145 -99.4314 45.5195 -111.833 -98.9794 45.4244 -112.597 -99.9684 45.5913 
-113.265 -100.39 45.7862 -114.225 -100.44 46.3489 -115.211 -100.422 47.1137 
-115.907 -100.706 47.5557 -116.462 -101.105 47.6319 -117.128 -101.386 47.6961 
-117.868 -101.566 47.8695 -111.88 -99.5118 46.071 -111.536 -99.1156 45.9852 
-112.321 -99.9863 46.1346 -112.829 -100.453 46.3132 -113.579 -100.605 46.7998 
-114.574 -100.566 47.5338 -115.399 -100.823 48.0436 -115.908 -101.336 48.0967 
-116.435 -101.718 48.026 -117.152 -101.896 48.1157 -117.919 -101.993 48.3098 
-116.726 -96.992 42.0217 -116.066 -97.0903 42.2196 -116.179 -96.9281 41.3689 
-115.426 -96.9834 41.5908 -115.574 -96.762 40.7759 -115.345 -97.2822 42.4599 
-114.743 -96.804 40.9661 -114.987 -96.2045 40.5513 -114.644 -97.0413 41.9537 
-114.582 -97.6934 42.6088 -114.137 -96.371 40.6469 -114.468 -95.4951 40.5113 
-113.963 -96.7421 41.3823 -113.919 -97.2325 42.3009 -113.81 -98.2816 42.5753 
-113.605 -95.7914 40.5482 -113.965 -94.8514 40.3217 -113.398 -96.4075 41.0136 
-113.341 -96.7216 41.9252 -113.196 -97.6276 42.5031 -112.99 -98.7068 42.6791 
-113.099 -95.016 40.4562 -113.541 -94.1516 40.1372 -112.896 -95.9182 40.9095 
-112.848 -96.3911 41.6417 -112.692 -96.9469 42.4189 -112.427 -97.9917 42.801 
-112.296 -98.7397 43.2411 -112.809 -94.1353 40.4641 -113.391 -93.4835 40.2735 
-112.501 -95.0696 40.9385 -112.404 -95.9283 41.566 -112.226 -96.5301 42.2667 
-112.003 -97.2525 42.8801 -111.926 -98.0529 43.3848 -111.968 -98.5592 44.0572 
-112.842 -93.4957 40.7325 -113.459 -93.0279 40.6874 -112.384 -94.1972 41.088 
-112.127 -95.1192 41.6509 -111.849 -96.0157 42.2014 -111.597 -96.7343 42.7853 
-111.614 -97.3448 43.4349 -111.754 -97.9168 44.1171 -111.803 -98.4586 44.821 
-112.956 -93.1251 41.1863 -113.473 -92.6849 41.1583 -112.456 -93.6684 41.4009 
-112.058 -94.3684 41.8485 -111.677 -95.2567 42.3203 -111.311 -96.1683 42.7873 
-111.216 -96.8194 43.4003 -111.399 -97.2863 44.1113 -111.531 -97.8624 44.8163 
-111.519 -98.5375 45.4618 -113.063 -92.5947 41.6532 -112.61 -93.2019 41.7801 
-112.674 -92.6271 42.1785 -112.231 -93.3978 42.4153 -112.483 -92.9085 42.7156 
-112.13 -93.8175 42.0858 -111.937 -93.6178 43.1246 -112.419 -93.2708 43.4608 
-111.721 -93.9735 42.8169 -111.675 -94.4735 42.5397 -111.722 -93.7376 44.0554 
-112.239 -93.4777 44.4949 -111.371 -94.0477 43.7046 -111.245 -94.5762 43.395 
-111.217 -95.3822 43.0352 -111.589 -93.9187 45.0217 -112.056 -93.6785 45.4575 
-111.162 -94.2171 44.6961 -110.831 -94.74 44.475 -110.703 -95.5397 44.0831 
-110.859 -96.2958 43.6184 -111.68 -94.3082 45.7956 -112.038 -93.9808 46.2381 
-111.294 -94.684 45.4701 -110.676 -95.1165 45.3702 -110.166 -95.7361 45.1369 
-110.267 -96.3716 44.6495 -110.841 -96.8476 44.2625 -111.813 -94.6557 46.6549 
-112.024 -94.2197 47.1239 -111.678 -95.1781 46.2148 -111.112 -95.5804 46.0117 
-110.21 -95.956 45.8039 -109.859 -96.4189 45.4018 -110.329 -96.902 45.0597 
-111.037 -97.3801 44.9128 -111.812 -94.8626 47.6628 -112.024 -94.4358 48.0382 
-111.822 -95.4254 47.2263 -111.608 -95.8704 46.9166 -110.884 -96.1588 46.5826 
-110.246 -96.5044 46.084 -110.264 -97.0366 45.7152 -110.69 -97.6514 45.6281 
-111.147 -98.17 45.5947 -111.917 -95.1337 48.4643 -112.235 -94.7904 48.6895 
-111.779 -95.5989 48.1855 -111.654 -96.0352 47.9844 -111.292 -96.3656 47.7266 
-110.88 -96.6954 47.2107 -110.759 -97.2143 46.6815 -110.826 -97.9282 46.4483 
-110.937 -98.5638 46.3751 -111.182 -98.9293 46.2275 -111.442 -99.4762 46.6494 
-111.107 -99.3357 46.9927 -111.496 -99.7214 47.411 -111.079 -98.9211 47.2843 
-111.213 -99.5746 47.8348 -111.701 -99.9348 48.2373 -111.204 -98.1792 47.5609 
-111.3 -99.061 48.2951 -111.421 -99.7686 48.7146 -111.994 -100.235 49.1627 
-111.148 -97.4646 47.9739 -111.423 -98.3028 48.7102 -111.515 -99.1877 49.2464 
-111.705 -100.083 49.7356 -112.333 -100.508 50.2381 -111.099 -96.9813 48.4883 
-111.283 -97.7102 49.0787 -111.65 -98.4785 49.6043 -111.823 -99.5106 50.2653 
-112.089 -100.356 50.8796 -112.811 -100.579 51.25 -111.333 -96.5824 48.7871 
-111.256 -97.2416 49.4098 -111.637 -97.9137 49.8976 -112.009 -98.7862 50.5811 
-112.19 -99.7928 51.3468 -112.672 -100.341 51.7875 -113.496 -100.54 52.0106 
-111.686 -96.1839 48.8379 -111.603 -96.7606 49.5598 -111.757 -97.3393 50.2671 
-112.066 -98.0704 50.944 -112.311 -99.0125 51.6147 -112.72 -99.7734 52.095 
-113.428 -100.183 52.3752 -114.11 -100.599 52.6933 -112.031 -95.7946 48.9061 
-112.11 -96.3661 49.5432 -112.117 -96.8049 50.4621 -112.181 -97.3653 51.32 
-112.388 -98.2091 51.8669 -112.81 -99.0522 52.2332 -113.43 -99.6454 52.5658 
-114.014 -100.161 52.9611 -114.398 -100.764 53.4193 -112.408 -95.4434 49.0475 
-112.585 -96.0541 49.5341 -112.559 -96.4458 50.4044 -112.454 -96.8253 51.3826 
-112.575 -97.4983 51.9855 -112.984 -98.332 52.3119 -113.512 -99.0314 52.6948 
-113.966 -99.6257 53.1655 -114.279 -100.251 53.6423 -114.526 -100.871 54.0516 
-111.946 -99.7843 46.7904 -112.171 -99.9356 47.6976 -112.538 -100.17 47.0238 
-112.533 -100.138 48.6583 -112.929 -100.244 48.1193 -113.143 -100.536 47.4106 
-112.913 -100.41 49.6478 -113.393 -100.461 49.0939 -113.574 -100.718 48.45 
-113.918 -100.769 47.8923 -113.271 -100.61 50.6886 -113.732 -100.788 50.0645 
-113.913 -101.177 49.289 -114.167 -101.336 48.6054 -114.773 -101.108 48.2892 
-113.764 -100.779 51.6136 -114.006 -101.142 51.1277 -114.092 -101.64 50.4153 
-114.278 -101.924 49.5007 -114.814 -101.849 48.8151 -115.431 -101.61 48.4503 
-114.304 -101.027 52.4388 -114.39 -101.534 52.0607 -114.349 -102.023 51.5755 
-114.473 -102.195 50.8725 -114.979 -102.093 49.9877 -115.566 -102.03 49.1664 
-116.003 -101.962 48.513 -114.588 -101.292 53.2909 -114.714 -101.845 52.9285 
-114.732 -102.319 52.4015 -114.87 -102.428 51.8754 -115.374 -102.151 51.2929 
-115.978 -101.949 50.4995 -116.366 -102.022 49.5482 -116.701 -102.076 48.6831 
-114.702 -101.43 54.0249 -114.889 -101.961 53.7737 -115.05 -102.418 53.2011 
-115.286 -102.654 52.5122 -115.784 -102.501 51.9751 -116.41 -102.128 51.5136 
-116.826 -101.932 50.8339 -117.097 -102.002 49.8737 -117.472 -102.095 48.9311 
-114.903 -101.181 54.5103 -115.113 -101.763 54.4537 -115.6 -101.359 54.7626 
-115.843 -101.975 54.7042 -116.405 -101.562 54.9173 -115.339 -102.261 54.1489 
-116.689 -102.224 54.935 -117.139 -101.838 55.1171 -116.091 -102.46 54.4933 
-115.626 -102.656 53.472 -117.592 -102.429 55.2153 -118.065 -101.971 55.3977 
-117.03 -102.625 54.8422 -116.483 -102.824 53.8265 -116.108 -102.845 52.6429 
-118.711 -102.492 55.4516 -119.212 -101.918 55.6403 -118.15 -102.679 54.9965 
-117.541 -102.825 54.074 -117.048 -102.953 52.8592 -116.736 -102.646 52.0406 
-119.816 -102.484 55.4632 -120.155 -101.773 55.5644 -119.336 -102.77 54.9186 
-118.716 -102.76 54.0081 -118.036 -102.764 53.0049 -117.524 -102.616 52.2062 
-117.2 -102.198 51.6231 -120.554 -102.275 55.1127 -120.709 -101.469 55.1011 
-120.261 -102.794 54.6943 -119.763 -102.868 53.8375 -119.057 -102.634 53.0114 
-118.327 -102.333 52.4025 -117.827 -102.071 51.7774 -117.494 -101.939 50.9283 
-120.923 -101.801 54.5179 -120.992 -101.026 54.4893 -120.812 -102.44 54.2866 
-120.514 -102.775 53.6447 -119.958 -102.686 52.9268 -119.253 -102.271 52.4226 
-118.631 -101.925 51.8244 -118.227 -101.883 50.9125 -117.891 -102.014 49.8635 
-121.155 -101.292 53.8877 -121.195 -100.606 53.9018 -121.139 -101.873 53.725 
-121.001 -102.273 53.2877 -120.624 -102.443 52.6911 -120.09 -102.297 52.1803 
-119.549 -102.01 51.5942 -119.108 -101.932 50.7021 -118.758 -102.058 49.7096 
-118.375 -102.122 48.8894 -114.565 -100.466 54.373 -115.126 -100.648 54.77 
-114.656 -99.923 54.7217 -115.345 -100.021 55.0724 -114.755 -99.3161 54.9424 
-115.923 -100.742 55.0361 -115.544 -99.4403 55.1618 -115.004 -98.6324 54.8484 
-116.077 -100.076 55.4333 -116.626 -100.927 55.2756 -115.975 -98.7937 54.9045 
-115.541 -97.8113 54.6961 -116.3 -99.4827 55.4844 -116.77 -100.178 55.698 
-117.418 -101.126 55.445 -116.583 -97.9572 54.7369 -116.124 -97.0428 54.6901 
-116.857 -98.825 55.0952 -117.235 -99.4874 55.5717 -117.892 -100.239 55.6315 
-118.598 -101.13 55.5693 -117.015 -97.1896 54.6978 -116.54 -96.5647 54.465 
-117.398 -98.0546 54.7899 -117.838 -98.8637 55.0285 -118.474 -99.5308 55.2984 
-119.137 -100.218 55.484 -119.707 -101.016 55.6121 -117.333 -96.6819 54.3437 
-116.932 -96.2723 53.8803 -117.732 -97.3509 54.5591 -118.181 -98.2054 54.6275 
-118.731 -98.9983 54.777 -119.314 -99.6012 55.0848 -119.903 -100.172 55.3473 
-120.412 -100.84 55.3464 -117.717 -96.3102 53.7312 -117.352 -95.9728 53.2591 
-118.097 -96.7818 54.1352 -118.486 -97.4807 54.336 -118.861 -98.3212 54.3987 
-119.249 -99.0566 54.5723 -119.802 -99.5685 54.8701 -120.446 -100.014 54.984 
-120.856 -100.521 54.8073 -118.052 -95.9791 53.1567 -117.678 -95.6485 52.7774 
-118.452 -96.342 53.5951 -118.853 -96.8353 53.9438 -119.184 -97.5166 54.0761 
[...]
CELL_DATA 2000
SCALARS Distance double
LOOKUP_TABLE default
157.193 156.894 157.276 157.738 156.584 156.964 157.422 157.814 158.227 
156.301 156.641 157.054 157.455 157.876 158.256 158.632 156.05 156.361 
156.728 157.081 157.497 157.891 158.338 158.7 159.146 155.738 156.085 
156.467 156.798 157.224 157.569 158.059 158.434 158.959 159.31 159.802 
155.411 155.752 156.184 156.553 157.035 157.374 157.878 158.218 158.754 
159.12 159.637 159.968 160.398 155.251 155.498 155.946 156.291 156.814 
157.188 157.716 158.067 158.583 158.93 159.428 159.769 160.21 160.509 
160.892 155.26 155.435 155.862 156.126 156.626 156.968 157.494 157.868 
158.395 158.76 159.258 159.579 160.017 160.307 160.705 160.991 161.383 
155.299 155.466 155.864 156.085 156.542 156.819 157.305 157.639 158.159 
158.542 159.071 159.422 159.878 160.151 160.536 160.8 161.178 161.476 
161.853 156.801 156.145 156.462 156.472 155.468 155.784 155.749 156.119 
156.161 154.693 155.053 154.986 155.366 155.397 155.822 155.905 153.868 
154.247 154.179 154.558 154.565 155.024 155.135 155.592 155.676 153.057 
153.442 153.412 153.771 153.763 154.177 154.275 154.774 154.892 155.337 
155.364 152.226 152.616 152.626 153.037 153.073 153.44 153.507 153.928 
154.051 154.517 154.602 155.004 155.037 151.546 151.805 151.809 152.239 
152.357 152.78 152.866 153.226 153.314 153.718 153.855 154.272 154.398 
154.761 154.888 151.245 151.291 151.262 151.52 151.662 152.069 152.221 
152.595 152.679 153.038 153.169 153.581 153.777 154.176 154.368 154.718 
154.905 151.175 151.145 151.092 151.162 151.25 151.491 151.649 151.973 
152.097 152.429 152.556 152.936 153.129 153.557 153.777 154.189 154.393 
154.759 154.948 151.075 150.943 151.023 151.07 150.967 150.971 151.072 
151.09 151.2 151.194 151.076 151.116 151.108 151.204 151.279 151.487 
151.48 151.304 151.23 151.16 151.214 151.267 151.456 151.602 151.889 
151.767 151.561 151.469 151.315 151.345 151.314 151.497 151.587 151.873 
152.029 152.364 152.172 151.929 151.951 151.698 151.758 151.559 151.677 
151.645 151.867 152.004 152.329 152.532 152.917 152.632 152.433 152.589 
152.35 152.497 152.158 152.193 151.911 151.99 151.977 152.253 152.468 
152.89 153.136 153.568 153.05 152.902 153.111 152.997 153.224 152.962 
153.011 152.581 152.573 152.264 152.495 152.497 152.977 153.156 153.671 
153.837 154.25 153.544 153.35 153.545 153.454 153.69 153.575 153.693 
153.391 153.418 153.029 153.23 153.004 153.478 153.449 153.997 154.04 
154.486 154.529 154.86 155.157 154.862 155.202 155.562 154.522 154.941 
155.367 155.648 156.042 154.128 154.624 155.162 155.487 155.893 156.167 
156.627 153.838 154.262 154.855 155.26 155.719 156.028 156.489 156.814 
157.345 153.835 154.055 154.556 154.933 155.434 155.816 156.328 156.692 
157.246 157.573 158.099 153.967 154.083 154.432 154.686 155.156 155.528 
156.084 156.501 157.09 157.47 158.008 158.309 158.801 153.981 154.14 
154.443 154.619 155.034 155.318 155.846 156.241 156.814 157.246 157.784 
158.166 158.651 158.985 159.476 153.918 154.118 154.498 154.663 155.067 
155.261 155.713 156.015 156.518 156.923 157.443 157.872 158.372 158.769 
159.25 159.623 160.088 153.949 154.128 154.59 154.76 155.18 155.321 
155.695 155.893 156.311 156.634 157.133 157.538 158.065 158.471 158.966 
159.348 159.793 160.16 160.549 155.431 155.836 155.75 156.016 156.331 
156.211 156.515 156.406 156.711 156.962 156.791 157.135 156.978 157.307 
157.148 157.466 157.689 157.495 157.866 157.678 158.026 157.812 158.135 
157.948 158.308 158.41 158.23 158.601 158.433 158.794 158.576 158.894 
158.668 159.019 158.847 159.227 159.131 158.951 159.338 159.169 159.551 
159.344 159.654 159.422 159.729 159.552 159.895 159.742 160.042 159.866 
159.705 160.13 159.943 160.338 160.115 160.42 160.165 160.426 160.223 
160.516 160.367 160.643 160.472 160.693 160.495 160.42 160.848 160.719 
161.086 160.892 161.173 160.924 161.162 160.92 161.186 160.986 161.256 
161.063 161.295 161.096 161.318 160.936 160.954 161.358 161.327 161.662 
161.55 161.81 161.627 161.867 161.653 161.916 161.692 161.943 161.707 
161.921 161.702 161.92 161.735 161.973 161.263 161.91 161.631 161.709 
162.633 162.319 162.376 162.046 162.029 163.413 163.089 163.154 162.756 
162.711 162.315 162.207 164.232 163.906 164.013 163.584 163.538 163.062 
162.945 162.485 162.329 165.104 164.777 164.898 164.459 164.403 163.91 
163.766 163.277 163.108 162.62 162.422 165.845 165.634 165.758 165.35 
165.247 164.74 164.513 164.033 163.786 163.35 163.097 162.658 162.404 
166.148 166.18 166.318 166.107 165.995 165.544 165.244 164.721 164.368 
163.913 163.589 163.21 162.928 162.562 162.315 166.008 166.223 166.357 
166.419 166.353 166.14 165.856 165.41 165.014 164.495 164.121 163.671 
163.397 163.034 162.84 162.487 162.311 165.705 165.947 166.072 166.265 
166.248 166.273 166.058 165.853 165.498 165.105 164.728 164.263 163.979 
163.564 163.405 163.043 162.924 162.544 162.391 161.069 160.95 161.245 
161.718 160.779 161.122 161.625 161.927 162.435 160.55 160.94 161.465 
161.808 162.321 162.646 163.169 160.343 160.729 161.283 161.629 162.132 
162.481 163.016 163.378 163.948 160.229 160.571 161.137 161.463 161.98 
162.303 162.853 163.216 163.832 164.201 164.812 160.137 160.458 160.979 
161.316 161.833 162.171 162.725 163.084 163.678 164.062 164.652 165.033 
165.536 160.022 160.318 160.774 161.114 161.592 161.974 162.484 162.896 
163.407 163.829 164.308 164.747 165.164 165.573 165.849 159.917 160.175 
160.587 160.891 161.329 161.689 162.139 162.551 162.974 163.417 163.801 
164.269 164.614 165.07 165.311 165.681 165.764 159.805 160.051 160.43 
160.708 161.113 161.43 161.834 162.183 162.547 162.926 163.259 163.691 
164.018 164.473 164.726 165.108 165.214 165.5 165.501 154.178 154.804 
154.604 154.837 155.372 155.21 155.407 155.234 155.406 155.841 155.713 
155.882 155.738 155.877 155.72 155.868 156.305 156.18 156.405 156.235 
156.428 156.214 156.401 156.213 156.459 156.811 156.682 156.995 156.844 
157.134 156.888 157.142 156.869 157.165 156.943 157.295 157.412 157.234 
157.541 157.431 157.727 157.58 157.816 157.623 157.896 157.711 158.058 
157.865 158.231 158.128 157.89 158.144 157.972 158.215 158.079 158.263 
158.146 158.365 158.307 158.635 158.571 158.927 158.78 159.11 158.836 
158.613 158.85 158.619 158.858 158.626 158.84 158.614 158.855 158.723 
159.077 159.047 159.448 159.392 159.738 159.603 159.904 159.43 159.268 
159.509 159.314 159.569 159.344 159.616 159.345 159.636 159.373 159.737 
159.574 160.001 159.906 160.293 160.182 160.496 160.354 160.632 153.918 
153.839 154.067 154.526 153.856 154.009 154.392 154.681 155.121 153.825 
153.976 154.279 154.543 154.967 155.257 155.635 153.762 153.899 154.178 
154.407 154.829 155.125 155.543 155.763 156.095 153.778 153.885 154.188 
154.345 154.782 155.038 155.519 155.729 156.098 156.244 156.584 153.769 
153.921 154.244 154.403 154.843 155.065 155.586 155.785 156.222 156.327 
156.691 156.802 157.208 153.723 153.876 154.193 154.408 154.843 155.119 
155.644 155.889 156.36 156.495 156.882 156.974 157.379 157.501 157.943 
153.872 153.904 154.22 154.356 154.791 155.063 155.601 155.906 156.397 
156.606 156.99 157.131 157.503 157.659 158.072 158.234 158.642 154.249 
154.195 154.53 154.524 154.947 155.079 155.61 155.86 156.381 156.614 
157.019 157.186 157.536 157.712 158.092 158.296 158.687 158.872 159.227 
154.595 155.277 154.932 154.921 155.99 155.667 155.711 155.309 155.341 
156.666 156.386 156.486 156.133 156.195 155.805 155.943 157.351 157.066 
157.196 156.896 157.001 156.652 156.764 156.445 156.633 158.106 157.792 
157.943 157.632 157.765 157.434 157.547 157.225 157.354 157.081 157.235 
158.868 158.562 158.715 158.409 158.552 158.219 158.348 158.006 158.135 
157.805 157.928 157.631 157.764 159.609 159.304 159.43 159.147 159.281 
158.993 159.136 158.824 158.979 158.632 158.769 158.396 158.518 158.184 
158.335 160.338 160.033 160.121 159.822 159.921 159.664 159.804 159.564 
159.73 159.458 159.602 159.261 159.365 158.995 159.11 158.784 158.932 
160.979 160.726 160.787 160.487 160.535 160.268 160.376 160.169 160.322 
160.122 160.255 160.008 160.097 159.796 159.874 159.557 159.659 159.36 
159.471 161.306 161.675 161.388 161.122 162.022 161.731 161.479 161.158 
160.871 162.476 162.122 161.897 161.546 161.305 160.951 160.723 163.035 
162.644 162.438 162.045 161.839 161.45 161.242 160.868 160.674 163.559 
163.197 162.987 162.618 162.421 162.034 161.815 161.412 161.173 160.808 
160.59 164.017 163.682 163.475 163.142 162.958 162.606 162.393 161.989 
161.717 161.305 161.035 160.684 160.439 164.462 164.146 163.984 163.647 
163.482 163.125 162.92 162.541 162.28 161.86 161.571 161.158 160.889 
160.521 160.257 164.884 164.616 164.512 164.195 164.034 163.656 163.41 
163.03 162.757 162.386 162.098 161.703 161.404 161.004 160.714 160.335 
160.054 165.278 165.054 164.99 164.717 164.558 164.192 163.905 163.5 
163.181 162.817 162.516 162.168 161.85 161.482 161.149 160.782 160.467 
160.118 159.834 161.428 161.678 161.657 161.821 161.985 161.924 162.132 
162.051 162.195 162.454 162.317 162.528 162.404 162.593 162.466 162.647 
162.946 162.825 163.009 162.848 163.003 162.872 163.079 162.981 163.201 
163.267 163.232 163.395 163.292 163.39 163.261 163.446 163.395 163.678 
163.581 163.778 163.362 163.407 163.549 163.572 163.708 163.628 163.832 
163.779 164.145 164.094 164.395 164.175 164.292 163.209 163.341 163.465 
163.628 163.874 163.931 164.221 164.202 164.616 164.612 165.02 164.854 
165.016 164.674 164.715 162.926 163.088 163.238 163.484 163.817 164.044 
164.39 164.51 164.854 164.98 165.361 165.405 165.609 165.385 165.375 
165.047 165.062 162.762 162.861 163.062 163.277 163.63 163.925 164.257 
164.495 164.694 164.934 165.14 165.441 165.636 165.759 165.777 165.617 
165.561 165.334 165.382 161.178 160.823 161.15 161.421 160.476 160.815 
161.146 161.425 161.743 160.109 160.504 160.923 161.226 161.601 161.84 
162.219 159.612 160.091 160.549 160.986 161.395 161.707 162.059 162.332 
162.688 159.051 159.541 159.96 160.488 160.881 161.351 161.676 162.071 
162.406 162.75 163.043 158.472 158.97 159.386 159.886 160.275 160.742 
161.087 161.551 161.953 162.413 162.808 163.095 163.274 157.807 158.342 
158.793 159.339 159.808 160.245 160.649 161.025 161.479 161.944 162.453 
162.858 163.133 163.262 163.219 157.198 157.667 158.096 158.687 159.203 
159.778 160.252 160.686 161.109 161.526 161.978 162.441 162.75 163.037 
163.018 163.071 162.9 156.804 157.155 157.534 158.006 158.459 159.065 
159.541 160.153 160.566 161.088 161.431 161.904 162.149 162.532 162.572 
162.771 162.658 162.734 162.661 156.756 156.952 157.063 157.49 157.161 
157.301 157.738 157.816 158.314 157.381 157.555 158.035 158.077 158.515 
158.673 159.294 157.594 157.817 158.38 158.423 158.844 158.893 159.446 
159.689 160.349 157.679 157.985 158.578 158.75 159.197 159.247 159.721 
159.871 160.476 160.711 161.271 157.588 157.939 158.453 158.787 159.226 
159.464 159.911 160.117 160.637 160.846 161.336 161.526 161.931 157.427 
157.748 158.179 158.533 158.951 159.31 159.79 160.153 160.705 160.982 
161.446 161.59 161.907 162.057 162.315 157.317 157.577 158.01 158.291 
158.737 159.043 159.559 159.947 160.568 160.963 161.52 161.725 162.059 
162.097 162.288 162.356 162.5 157.316 157.522 157.984 158.213 158.694 
158.937 159.442 159.758 160.328 160.749 161.324 161.699 162.113 162.268 
162.482 162.464 162.58 162.547 162.632 157.509 158.061 157.915 158.185 
158.541 158.452 158.73 158.609 158.89 158.932 158.869 159.153 159.102 
159.408 159.317 159.626 159.448 159.302 159.595 159.508 159.836 159.787 
160.139 160.07 160.456 160.106 159.916 160.236 160.061 160.406 160.267 
160.617 160.537 160.939 160.927 161.373 160.681 160.555 160.868 160.739 
161.093 160.935 161.25 161.071 161.393 161.341 161.764 161.808 162.173 
161.172 161.072 161.347 161.27 161.579 161.531 161.812 161.688 161.896 
161.78 162.073 162.109 162.451 162.471 162.625 161.701 161.589 161.872 
161.73 161.976 161.902 162.136 162.093 162.248 162.174 162.329 162.344 
162.595 162.667 162.832 162.77 162.743 162.202 162.142 162.468 162.31 
162.541 162.349 162.534 162.395 162.544 162.44 162.561 162.524 162.704 
162.761 162.937 162.937 162.951 162.82 162.741 162.811 163.038 162.977 
163.128 163.085 163.171 163.37 163.389 163.676 162.914 163.119 163.377 
163.543 163.82 163.934 164.221 162.804 162.977 163.286 163.482 163.746 
163.918 164.125 164.313 164.549 162.84 162.979 163.343 163.477 163.768 
163.841 163.997 164.11 164.327 164.579 164.93 162.918 163.074 163.492 
163.622 163.972 163.984 164.167 164.107 164.304 164.411 164.809 165.076 
165.481 162.967 163.158 163.571 163.748 164.114 164.208 164.46 164.407 
164.62 164.577 164.929 165.055 165.457 165.616 165.789 162.86 163.128 
163.452 163.704 163.987 164.22 164.49 164.635 164.904 164.941 165.257 
165.288 165.62 165.663 165.835 165.802 165.734 162.54 162.872 163.103 
163.415 163.597 163.918 164.14 164.479 164.783 165.061 165.4 165.557 
165.861 165.892 166.064 165.964 165.954 165.757 165.632 151.279 151.385 
151.389 151.452 151.674 151.559 151.661 151.55 151.503 152.299 152.007 
152.123 151.892 151.938 151.659 151.654 153.091 152.723 152.828 152.52 
152.678 152.326 152.454 152.061 152.251 153.921 153.528 153.624 153.29 
153.515 153.21 153.453 153.048 153.228 152.824 153.055 154.798 154.405 
154.522 154.133 154.349 154.064 154.343 154.038 154.19 153.785 153.863 
153.537 153.731 155.605 155.295 155.464 155.084 155.272 154.926 155.166 
154.868 155.039 154.666 154.732 154.333 154.48 154.204 154.512 156.269 
156.045 156.262 155.99 156.211 155.874 156.105 155.744 155.966 155.56 
155.744 155.29 155.512 155.101 155.426 155.113 155.476 156.888 156.674 
156.897 156.709 156.978 156.753 157.041 156.731 157.018 156.615 156.886 
156.422 156.694 156.239 156.532 156.13 156.41 156.069 156.303 151.208 
151.351 151.218 151.01 151.333 151.279 151.113 150.977 150.807 151.403 
151.237 151.117 151.045 150.961 150.858 150.872 151.963 151.52 151.396 
151.158 151.157 151.031 151.078 151.021 151.156 152.822 152.302 152.164 
151.701 151.684 151.379 151.458 151.282 151.403 151.333 151.503 153.599 
153.171 153.079 152.591 152.519 152.075 152.117 151.805 151.96 151.734 
151.939 151.778 152.024 154.405 153.964 153.945 153.488 153.435 152.954 
152.957 152.564 152.719 152.427 152.672 152.411 152.683 152.457 152.751 
155.312 154.843 154.834 154.378 154.371 153.886 153.906 153.458 153.594 
153.247 153.474 153.191 153.436 153.189 153.444 153.232 153.487 156.102 
155.704 155.656 155.256 155.251 154.822 154.854 154.423 154.541 154.161 
154.347 154.007 154.191 153.902 154.096 153.884 154.102 153.918 154.116 
151.065 150.832 150.896 150.826 150.657 150.649 150.606 150.718 150.83 
150.835 150.672 150.702 150.644 150.855 150.929 151.184 151.224 151.053 
151.175 150.987 151.209 151.135 151.44 151.414 151.601 151.552 151.45 
151.61 151.505 151.66 151.552 151.747 151.709 151.894 151.811 151.897 
151.973 151.777 151.905 151.84 151.973 151.897 152.005 151.963 152.138 
152.106 152.257 152.13 152.243 152.639 152.294 152.372 152.18 152.349 
152.206 152.364 152.238 152.463 152.404 152.671 152.555 152.712 152.527 
152.655 153.358 152.99 153.012 152.739 152.9 152.702 152.911 152.715 
152.951 152.824 153.116 153.022 153.23 153.036 153.118 152.922 153.047 
153.968 153.64 153.598 153.337 153.431 153.266 153.451 153.294 153.468 
153.32 153.507 153.429 153.611 153.505 153.599 153.405 153.492 153.329 
153.528 160.906 160.272 160.586 160.532 159.537 159.895 159.859 160.181 
160.134 158.774 159.139 159.11 159.472 159.427 159.766 159.713 157.998 
158.36 158.319 158.703 158.655 159.016 158.932 159.291 159.208 157.243 
157.577 157.524 157.903 157.834 158.201 158.085 158.455 158.346 158.74 
158.654 156.536 156.829 156.75 157.112 157.035 157.379 157.226 157.565 
157.419 157.829 157.733 158.164 158.062 155.836 156.102 155.947 156.302 
156.207 156.579 156.433 156.736 156.551 156.895 156.779 157.207 157.11 
157.535 157.409 155.148 155.385 155.166 155.462 155.311 155.701 155.579 
155.939 155.76 156.069 155.916 156.282 156.199 156.6 156.519 156.903 
156.832 154.514 154.722 154.509 154.717 154.522 154.82 154.683 155.051 
154.899 155.248 155.076 155.435 155.331 155.729 155.68 156.069 156.04 
156.418 156.433 
POINT_DATA 1002
SCALARS Distance double
LOOKUP_TABLE default
157.651 157.117 156.811 157.366 156.505 158.198 157.022 156.225 157.879 
158.603 156.676 156.003 157.464 158.286 159.01 156.406 155.741 157.103 
157.924 158.806 159.625 156.109 155.367 156.889 157.682 158.572 159.5 
160.281 155.782 155.085 156.664 157.552 158.401 159.29 160.123 160.791 
155.626 155.042 156.429 157.349 158.247 159.102 159.895 160.613 161.273 
155.638 155.1 156.323 157.126 158.009 158.931 159.741 160.414 161.09 
161.789 155.661 155.138 156.296 157.007 157.783 158.688 159.594 160.298 
160.896 161.55 162.222 156.476 156.101 155.858 155.394 155.152 155.753 
154.614 154.313 154.951 155.489 153.814 153.479 154.111 154.632 155.285 
153.035 152.659 153.39 153.788 154.407 154.986 152.155 151.864 152.688 
153.144 153.59 154.16 154.66 151.398 151.378 151.876 152.509 152.947 
153.408 153.998 154.538 151.1 151.259 151.289 151.824 152.331 152.761 
153.339 153.994 154.574 151.079 151.187 151.1 151.361 151.764 152.198 
152.71 153.339 154 154.606 150.962 151.031 150.837 151.047 151.017 
151.139 151.165 151.402 151.139 151.337 151.347 151.694 151.18 151.327 
151.706 151.643 151.966 151.42 151.438 151.73 152.184 152.179 152.372 
152.033 151.823 151.772 152.102 152.703 152.748 152.777 152.84 152.619 
152.14 152.059 152.6 153.368 153.184 153.192 153.404 153.43 152.986 
152.594 152.832 153.5 154.145 153.676 153.766 153.776 153.893 153.758 
153.51 153.588 154.016 154.476 154.839 155.497 155.272 155.919 155.077 
155.754 156.452 154.781 155.631 156.295 157.136 154.418 155.369 156.16 
157.014 157.885 154.24 155.013 155.922 156.903 157.821 158.591 154.253 
154.805 155.652 156.681 157.688 158.516 159.296 154.275 154.801 155.497 
156.391 157.371 158.294 159.143 159.991 154.304 154.915 155.486 156.157 
157.007 157.952 158.871 159.737 160.536 154.405 155.062 155.563 156.039 
156.739 157.654 158.59 159.438 160.207 160.904 156.094 156.622 156.83 
157.301 157.485 157.609 158.049 158.251 158.345 158.454 158.757 158.999 
159.133 159.205 159.398 159.508 159.752 159.902 159.93 160.055 160.234 
160.313 160.569 160.693 160.666 160.685 160.812 160.885 160.958 161.275 
161.415 161.412 161.41 161.465 161.495 161.508 161.368 161.749 161.962 
162.053 162.138 162.203 162.164 162.106 162.149 161.517 162.009 162.206 
162.741 162.954 162.379 163.572 163.713 163.149 162.606 164.434 164.549 
164.032 163.434 162.797 165.349 165.417 164.913 164.266 163.602 162.926 
166.138 165.98 165.79 165.042 164.235 163.522 162.845 166.424 166.041 
166.394 165.804 164.887 163.983 163.264 162.677 166.207 165.777 166.441 
166.225 165.54 164.616 163.766 163.164 162.681 165.861 165.479 166.15 
166.154 165.797 165.16 164.409 163.765 163.288 162.804 160.787 161.431 
160.633 161.301 160.404 162.145 161.116 160.13 161.979 162.839 160.941 
159.961 161.792 162.625 163.583 160.813 159.914 161.658 162.493 163.442 
164.471 160.649 159.85 161.478 162.365 163.318 164.275 165.213 160.455 
159.763 161.218 162.081 163.007 163.896 164.754 165.526 160.307 159.682 
161.001 161.769 162.567 163.349 164.158 164.932 165.477 160.164 159.569 
160.818 161.521 162.213 162.862 163.567 164.329 164.918 165.248 154.364 
155.045 155.003 155.583 155.531 155.595 156.027 155.968 156.036 156.003 
156.546 156.404 156.644 156.604 156.599 157.096 156.934 157.344 157.416 
157.405 157.492 157.671 157.631 157.856 157.983 158.049 158.236 158.448 
158.37 158.385 158.392 158.401 158.408 158.639 159.032 159.303 159.084 
159.039 159.096 159.086 159.036 159.123 159.47 159.844 160.07 153.625 
154.211 153.68 154.136 153.754 154.831 154.04 153.683 154.662 155.409 
153.976 153.63 154.521 155.306 155.915 154.053 153.653 154.539 155.287 
155.966 156.415 154.06 153.594 154.62 155.371 156.102 156.602 157.059 
153.976 153.601 154.544 155.367 156.195 156.784 157.264 157.815 154.136 
153.88 154.549 155.28 156.157 156.841 157.347 157.9 158.502 154.569 