# vtk DataFile Version 4.0
vtk output
ASCII
DATASET POLYDATA
POINTS 1002 float
-116.613 -101.506 49.4612 -116.845 -100.846 49.4321 -116.173 -101.012 49.4434 
-115.921 -101.661 49.5968 -115.54 -101.088 49.7239 -116.424 -102.013 49.7728 
-115.374 -101.613 50.1018 -115.026 -101.035 50.252 -115.824 -102.018 50.1553 
-116.488 -102.061 50.6982 -114.889 -101.463 50.7181 -114.453 -101.07 50.6216 
-115.346 -101.813 50.8641 -115.956 -102.001 51.2532 -116.612 -102.027 51.8763 
-114.15 -101.544 51.0377 -113.638 -101.272 50.8454 -114.723 -101.732 51.4332 
-115.358 -101.966 51.8668 -115.96 -102.208 52.3045 -116.506 -102.396 52.756 
-113.215 -101.82 51.3226 -112.83 -101.421 51.2745 -113.811 -102.019 51.6729 
-114.569 -102.183 52.2233 -115.185 -102.46 52.6544 -115.714 -102.705 53.0476 
-116.295 -102.902 53.4548 -112.519 -101.978 51.8306 -112.343 -101.39 51.8337 
-112.933 -102.378 51.9915 -113.735 -102.525 52.4816 -114.483 -102.657 53.018 
-114.961 -102.864 53.4429 -115.515 -103.072 53.8697 -116.127 -103.264 54.2911 
-112.123 -101.925 52.3773 -112.057 -101.236 52.3726 -112.329 -102.521 52.4825 
-113.007 -102.728 52.9013 -113.909 -102.694 53.5297 -114.498 -102.849 54.0408 
-114.919 -103.24 54.4037 -115.453 -103.54 54.7793 -115.922 -103.588 55.2191 
-111.783 -101.754 52.9091 -111.74 -101.058 52.9207 -111.892 -102.443 52.9947 
-112.394 -102.781 53.3748 -113.285 -102.706 54.0475 -114.1 -102.759 54.6629 
-114.612 -103.376 54.9617 -115.029 -104.081 55.1537 -115.418 -104.204 55.5339 
-115.701 -103.832 56.0795 -111.445 -101.568 53.4352 -111.381 -100.927 53.4033 
-111.549 -102.229 53.5225 -111.945 -102.692 53.8316 -112.676 -102.796 54.4199 
-113.528 -102.791 55.0661 -114.266 -103.293 55.414 -114.801 -104.299 55.478 
-115.152 -104.905 55.6638 -115.378 -104.617 56.1682 -115.582 -103.917 56.7883 
-116.506 -100.448 49.2199 -115.83 -100.556 49.2854 -115.952 -100.246 48.72 
-115.302 -100.234 48.9349 -115.407 -99.9098 48.3478 -115.189 -100.539 49.6839 
-114.833 -99.8004 48.73 -115.13 -99.0981 48.4851 -114.657 -100.157 49.4102 
-114.601 -100.537 50.1594 -114.595 -99.0381 48.888 -114.959 -98.0734 48.7908 
-114.16 -99.8266 49.117 -113.961 -100.264 49.7626 -113.896 -100.718 50.407 
-114.387 -98.155 49.1195 -114.675 -97.3348 48.8626 -113.838 -99.2136 49.1005 
-113.363 -100.001 49.3361 -113.194 -100.446 50.0118 -113.07 -100.902 50.719 
-114.068 -97.4517 49.1967 -114.37 -96.8582 48.8937 -113.561 -98.3226 49.2865 
-113.005 -99.2926 49.3317 -112.69 -99.9868 49.7513 -112.538 -100.466 50.5059 
-112.436 -100.917 51.2585 -113.69 -96.8363 49.2496 -114.058 -96.2871 49.0647 
-113.257 -97.4989 49.4258 -112.804 -98.3203 49.6256 -112.515 -99.1585 49.9593 
-112.301 -99.8754 50.4858 -112.12 -100.416 51.1672 -112.093 -100.81 51.8494 
-113.281 -96.1271 49.3824 -113.681 -95.5785 49.2439 -112.96 -96.8019 49.5445 
-112.663 -97.5523 49.8525 -112.452 -98.3309 50.3145 -112.261 -99.1487 50.7788 
-111.961 -99.8866 51.2585 -111.787 -100.338 51.8636 -111.804 -100.636 52.4712 
-112.926 -95.4537 49.5463 -113.345 -94.991 49.3569 -112.701 -96.1382 49.7532 
-112.553 -96.9537 50.0627 -112.368 -97.7287 50.5351 -112.144 -98.4819 51.0374 
-111.798 -99.2749 51.4611 -111.449 -99.8798 51.9382 -111.361 -100.184 52.5203 
-111.418 -100.47 53.0395 -112.832 -94.8515 49.6564 -112.527 -95.3784 49.95 
-112.457 -94.8593 50.19 -112.26 -95.4708 50.5648 -112.075 -94.9085 50.9041 
-112.439 -96.1986 50.3077 -111.907 -95.7003 51.228 -111.702 -95.1319 51.6071 
-112.139 -96.3915 51.0061 -112.28 -97.1015 50.7379 -111.612 -96.2128 51.8779 
-111.623 -95.7132 52.2884 -111.695 -96.7949 51.6943 -111.788 -97.3344 51.4698 
-111.944 -97.895 51.2114 -111.489 -96.829 52.6837 -111.688 -96.3174 53.0774 
-111.37 -97.4143 52.4914 -111.266 -97.8024 52.2798 -111.269 -98.1605 51.8961 
-111.5 -98.6825 51.633 -111.114 -97.0927 53.5952 -111.508 -96.6528 53.9003 
-110.947 -97.6996 53.3989 -110.887 -98.2103 53.2079 -110.718 -98.5463 52.6973 
-110.688 -98.9179 52.2044 -111.015 -99.4063 52.0416 -110.571 -97.2114 54.3501 
-111.276 -96.99 54.5554 -110.206 -97.5395 54.1211 -110.292 -98.0528 53.9332 
-110.292 -98.6502 53.4619 -110.073 -99.1174 52.7883 -110.201 -99.4712 52.5075 
-110.767 -99.8259 52.5594 -110.49 -97.6046 54.8558 -111.306 -97.472 54.9973 
-109.845 -97.6299 54.5997 -109.725 -97.8325 54.3618 -109.816 -98.4696 54.0327 
-109.663 -99.1835 53.4234 -109.636 -99.5785 52.9482 -110.135 -99.809 52.9638 
-110.855 -100.101 53.1089 -110.878 -98.1044 55.2121 -111.481 -97.866 55.3599 
-110.237 -98.1335 54.977 -109.804 -98.1456 54.7518 -109.606 -98.5818 54.585 
-109.423 -99.3188 54.2524 -109.372 -99.7907 53.7276 -109.76 -99.9663 53.4318 
-110.428 -100.179 53.4845 -111.007 -100.522 53.5419 -111.145 -101.21 53.8527 
-110.861 -100.789 53.9643 -111.092 -101.424 54.4215 -110.382 -100.416 54.0388 
-110.903 -100.984 54.6093 -111.182 -101.524 55.242 -109.751 -100.224 54.3608 
-110.501 -100.566 54.9799 -110.973 -101.114 55.5309 -111.219 -101.79 56.1942 
-109.333 -100.095 54.9113 -109.86 -100.369 55.6144 -110.572 -100.67 56.0118 
-110.953 -101.498 56.4461 -111.323 -102.331 57.0206 -109.422 -99.6228 55.2341 
-109.431 -100.23 56.0913 -110.027 -100.349 56.5546 -110.686 -100.998 56.7979 
-111.089 -102.097 57.2658 -111.647 -102.71 57.7743 -109.893 -98.9819 55.2285 
-109.686 -99.7682 56.0806 -109.808 -100.047 56.7871 -110.561 -100.448 57.1377 
-111.119 -101.502 57.5988 -111.404 -102.426 58.2106 -111.949 -102.708 58.6542 
-110.487 -98.6922 55.2477 -110.436 -99.2477 55.8724 -110.207 -99.617 56.6824 
-110.684 -100.016 57.2787 -111.462 -100.876 57.8138 -111.631 -101.872 58.553 
-111.672 -102.432 59.211 -112.2 -102.645 59.5377 -111.013 -98.5832 55.4343 
-111.095 -98.9454 55.8509 -110.864 -99.2356 56.5596 -110.955 -99.6616 57.2975 
-111.693 -100.434 57.8781 -112.115 -101.35 58.5641 -111.93 -102.012 59.3972 
-111.99 -102.402 59.9914 -112.643 -102.707 60.1901 -111.392 -98.2828 55.6799 
-111.398 -98.6009 56.0773 -111.305 -98.8897 56.6593 -111.265 -99.3138 57.374 
-111.69 -100.003 57.9938 -112.245 -100.835 58.5452 -112.301 -101.519 59.2665 
-112.175 -101.992 60.0308 -112.488 -102.397 60.4919 -113.227 -102.773 60.6168 
-111.267 -101.819 54.0201 -111.352 -101.913 54.8147 -111.586 -102.358 54.2975 
-111.501 -102.031 55.8079 -111.819 -102.439 55.2556 -112.175 -102.772 54.7446 
-111.619 -102.42 56.7533 -111.963 -102.724 56.2396 -112.38 -103.043 55.6484 
-112.903 -102.99 55.2975 -111.993 -102.79 57.4912 -112.224 -103.041 57.094 
-112.544 -103.387 56.494 -113.095 -103.381 56.0072 -113.742 -103.249 55.7254 
-112.481 -102.811 58.2327 -112.797 -103.042 57.886 -112.996 -103.411 57.4113 
-113.449 -103.495 56.8257 -114.062 -103.576 56.3134 -114.545 -104.032 55.864 
-112.801 -102.755 59.0882 -113.296 -102.942 58.7453 -113.564 -103.303 58.4271 
-113.92 -103.448 57.9148 -114.401 -103.51 57.2568 -114.797 -104.177 56.5526 
-115.026 -104.938 55.9793 -113.198 -102.875 59.8306 -113.716 -103.029 59.5361 
-114.021 -103.367 59.3464 -114.283 -103.685 58.9948 -114.573 -103.73 58.3996 
-114.821 -104.039 57.6485 -115.045 -104.756 56.8936 -115.225 -105.044 56.4007 
-113.766 -103.035 60.3629 -114.267 -103.197 60.1382 -114.545 -103.465 60.0387 
-114.674 -103.936 59.835 -114.752 -104.275 59.3606 -114.803 -104.383 58.7149 
-114.952 -104.573 57.9916 -115.202 -104.689 57.3736 -115.409 -104.403 57.0218 
-114.081 -102.979 60.9204 -114.64 -103.253 60.7674 -114.674 -103.131 61.5391 
-115.119 -103.463 61.5819 -114.96 -103.331 62.4826 -115.027 -103.464 60.7055 
-115.288 -103.879 62.5845 -115.442 -103.656 63.1408 -115.379 -103.845 61.5751 
-115.148 -103.893 60.6175 -115.797 -104.445 63.0755 -116.451 -103.964 63.177 
-115.536 -104.493 62.3767 -115.448 -104.44 61.2596 -115.12 -104.521 60.2229 
-116.858 -104.789 63.111 -117.571 -104.152 63.294 -116.166 -105.063 62.6762 
-115.795 -104.967 61.7509 -115.488 -104.992 60.5844 -115.053 -104.887 59.5856 
-117.943 -104.862 63.4094 -118.445 -104.285 63.8246 -117.256 -105.176 62.8071 
-116.628 -105.104 62.0086 -116.175 -105.081 60.9165 -115.64 -105.145 59.7879 
-115.126 -104.874 58.8728 -118.819 -104.899 63.7901 -119.205 -104.387 64.0783 
-118.264 -105.086 63.0611 -117.623 -104.932 62.176 -117.095 -104.883 61.1485 
-116.589 -105.064 59.9618 -115.94 -104.943 58.9649 -115.401 -104.621 58.196 
-119.553 -104.933 63.643 -119.842 -104.41 63.6922 -119.085 -105.105 63.0488 
-118.459 -104.904 62.1339 -117.863 -104.786 61.1315 -117.403 -105.015 60.0029 
-116.876 -104.99 58.9749 -116.2 -104.447 58.3201 -115.654 -104.129 57.7553 
-119.994 -104.839 63.0101 -120.162 -104.313 62.9759 -119.694 -105.123 62.5904 
-119.193 -105.077 61.762 -118.567 -104.949 60.8054 -118.011 -105.072 59.8394 
-117.543 -105.133 58.931 -116.965 -104.587 58.3385 -116.293 -103.826 57.9885 
-115.796 -103.611 57.4956 -113.312 -102.485 60.9025 -114.068 -102.657 61.3081 
-113.495 -102.043 61.0233 -114.269 -102.276 61.4317 -113.872 -101.615 60.9328 
-114.591 -102.81 62.0366 -114.806 -102.051 61.1653 -114.36 -101.276 60.7253 
-114.943 -102.529 62.0837 -115.089 -102.987 62.8452 -115.335 -101.846 60.7975 
-114.741 -100.839 60.6434 -115.624 -102.449 61.6296 -115.712 -102.717 62.6324 
-116.011 -103.184 63.0963 -115.633 -101.319 60.7048 -115.083 -100.227 60.7025 
-116.119 -102.258 61.1216 -116.403 -102.634 62.0522 -116.745 -102.864 62.7547 
-117.196 -103.387 63.0612 -115.982 -100.591 60.758 -115.56 -99.7358 60.5863 
-116.448 -101.669 60.8753 -116.858 -102.417 61.4351 -117.301 -102.754 62.3019 
-117.785 -103.07 62.9754 -118.163 -103.591 63.4821 -116.462 -100.014 60.6563 
-116.068 -99.5085 60.1989 -116.868 -100.897 60.8044 -117.244 -101.883 60.955 
-117.681 -102.55 61.6302 -118.198 -102.908 62.597 -118.623 -103.217 63.3908 
-118.935 -103.72 63.9207 -116.898 -99.5969 60.3976 -116.495 -99.3417 59.7706 
-117.296 -100.181 60.7448 -117.626 -101.14 60.7451 -117.966 -102.072 60.9781 
-118.431 -102.631 61.7808 -118.931 -102.9 62.6968 -119.334 -103.201 63.3592 
-119.643 -103.757 63.716 -117.264 -99.2435 60.0588 -116.871 -99.102 59.4257 
-117.646 -99.6011 60.5461 -117.968 -100.357 60.6685 -118.252 -101.312 60.6878 
[...]
CELL_DATA 2000
SCALARS Distance double
LOOKUP_TABLE default
161.028 160.677 160.994 161.296 160.402 160.679 160.986 161.286 161.618 
160.151 160.429 160.731 161.011 161.351 161.657 162.026 159.809 160.132 
160.42 160.741 161.079 161.408 161.789 162.1 162.473 159.437 159.748 
160.034 160.383 160.742 161.117 161.509 161.851 162.217 162.527 162.875 
159.187 159.428 159.731 160.026 160.421 160.789 161.226 161.571 161.939 
162.242 162.579 162.903 163.253 159.041 159.247 159.554 159.797 160.186 
160.515 160.977 161.32 161.737 162.01 162.387 162.653 163.058 163.334 
163.686 158.892 159.105 159.39 159.633 159.987 160.297 160.73 161.082 
161.538 161.851 162.317 162.581 163.088 163.298 163.743 163.856 164.12 
158.723 158.937 159.207 159.447 159.786 160.083 160.498 160.836 161.29 
161.641 162.146 162.51 163.089 163.403 163.93 164.059 164.367 164.316 
164.436 160.758 160.154 160.44 160.393 159.461 159.792 159.768 160.083 
160.091 158.777 159.1 159.08 159.417 159.439 159.797 159.83 158.135 
158.456 158.439 158.741 158.735 159.096 159.136 159.511 159.509 157.492 
157.826 157.825 158.117 158.07 158.387 158.379 158.768 158.791 159.157 
159.145 156.897 157.191 157.17 157.469 157.397 157.705 157.661 158.018 
158.043 158.427 158.479 158.831 158.882 156.342 156.597 156.516 156.795 
156.716 157.019 157.014 157.348 157.424 157.762 157.868 158.201 158.313 
158.642 158.741 155.721 155.981 155.871 156.152 156.116 156.401 156.475 
156.785 156.951 157.256 157.416 157.69 157.815 158.104 158.218 158.526 
158.613 155.109 155.328 155.259 155.543 155.61 155.902 156.057 156.345 
156.541 156.837 157.002 157.276 157.364 157.628 157.687 157.988 158.059 
158.375 158.441 154.799 154.578 154.743 154.984 154.562 154.663 154.945 
155.101 155.442 154.625 154.714 155.043 155.173 155.531 155.644 155.967 
154.94 154.888 155.236 155.303 155.637 155.735 156.022 156.14 156.426 
155.53 155.356 155.668 155.6 155.891 155.861 156.065 156.127 156.357 
156.537 156.817 155.946 155.84 155.985 155.988 156.19 156.161 156.266 
156.199 156.288 156.383 156.599 156.854 157.126 156.138 156.011 155.912 
155.993 156.037 156.232 156.284 156.346 156.298 156.306 156.358 156.556 
156.805 157.12 157.417 156.506 156.205 156.007 155.841 155.774 155.889 
155.981 156.181 156.212 156.267 156.251 156.334 156.514 156.786 157.139 
157.454 157.795 157.064 156.719 156.603 156.192 156.132 155.879 156.019 
156.007 156.234 156.24 156.38 156.336 156.525 156.62 156.991 157.237 
157.655 157.897 158.227 158.41 157.898 158.323 158.633 157.297 157.786 
158.194 158.614 158.989 156.848 157.249 157.724 158.179 158.634 159.023 
159.449 156.666 156.945 157.397 157.774 158.249 158.653 159.124 159.53 
160.042 156.523 156.816 157.223 157.526 157.932 158.278 158.74 159.182 
159.749 160.202 160.774 156.399 156.675 157.117 157.373 157.734 157.991 
158.421 158.824 159.441 159.924 160.557 160.954 161.445 156.578 156.704 
157.211 157.348 157.724 157.855 158.279 158.589 159.266 159.715 160.429 
160.788 161.304 161.565 161.953 156.996 157.03 157.501 157.556 157.911 
157.942 158.318 158.524 159.181 159.613 160.375 160.742 161.278 161.481 
161.849 162.06 162.46 157.331 157.378 157.704 157.792 158.067 158.131 
158.427 158.582 159.104 159.497 160.189 160.635 161.169 161.445 161.771 
161.972 162.314 162.59 163.028 158.721 158.951 158.952 159.224 159.313 
159.256 159.554 159.521 159.842 159.796 159.694 160.036 159.953 160.317 
160.239 160.598 160.425 160.261 160.635 160.512 160.91 160.799 161.171 
161.048 161.402 161.154 160.966 161.332 161.164 161.551 161.42 161.794 
161.656 162.023 161.892 162.286 161.776 161.665 162.012 161.867 162.219 
162.071 162.417 162.271 162.641 162.531 162.988 162.874 163.313 162.265 
162.207 162.576 162.492 162.868 162.739 163.087 162.913 163.24 163.114 
163.539 163.522 163.995 163.9 164.203 162.816 162.728 163.157 163.063 
163.502 163.392 163.805 163.628 163.947 163.733 164.034 163.966 164.335 
164.38 164.645 164.562 164.597 163.438 163.357 163.826 163.713 164.171 
164.055 164.501 164.361 164.721 164.484 164.716 164.481 164.698 164.62 
164.813 164.792 164.817 164.705 164.595 163.915 164.731 164.358 164.351 
165.453 165.151 165.2 164.772 164.706 166.187 165.879 165.969 165.592 
165.57 165.112 165.023 167.043 166.684 166.783 166.377 166.366 165.937 
165.854 165.398 165.236 167.974 167.598 167.698 167.241 167.185 166.717 
166.591 166.157 165.958 165.492 165.21 168.884 168.532 168.61 168.151 
168.027 167.518 167.308 166.85 166.614 166.156 165.844 165.364 165.087 
169.667 169.388 169.416 168.989 168.778 168.274 167.974 167.517 167.253 
166.809 166.493 165.987 165.634 165.214 165.018 170.16 170.034 170.025 
169.685 169.399 168.917 168.527 168.087 167.791 167.414 167.127 166.65 
166.238 165.728 165.35 165.06 164.88 170.237 170.304 170.279 170.126 
169.842 169.454 169.03 168.584 168.24 167.887 167.624 167.241 166.855 
166.329 165.836 165.367 165.003 164.806 164.634 163.762 163.7 164.016 
164.542 163.636 163.943 164.479 164.762 165.253 163.685 163.957 164.535 
164.75 165.262 165.481 165.99 163.727 164.055 164.7 164.909 165.437 
165.576 166.084 166.278 166.834 163.628 164.029 164.699 165.042 165.606 
165.793 166.277 166.429 166.964 167.174 167.758 163.528 163.881 164.515 
164.932 165.531 165.862 166.384 166.612 167.137 167.336 167.905 168.116 
168.684 163.535 163.802 164.371 164.73 165.313 165.697 166.257 166.613 
167.169 167.465 168.002 168.243 168.761 168.991 169.47 163.563 163.799 
164.29 164.595 165.108 165.466 165.983 166.39 166.921 167.343 167.838 
168.201 168.62 168.939 169.327 169.628 169.951 163.551 163.775 164.194 
164.473 164.912 165.241 165.688 166.072 166.53 166.973 167.412 167.855 
168.218 168.62 168.922 169.31 169.571 169.911 170.054 157.539 157.782 
157.703 157.821 158.124 157.938 158.04 158.001 158.16 158.79 158.438 
158.546 158.334 158.555 158.42 158.624 159.624 159.248 159.415 159.065 
159.323 159.025 159.315 159.049 159.375 160.401 160.092 160.301 159.999 
160.26 159.933 160.181 159.86 160.165 159.946 160.368 161.122 160.839 
161.026 160.796 161.034 160.799 160.978 160.686 160.847 160.646 160.942 
160.883 161.237 161.834 161.553 161.702 161.459 161.649 161.454 161.624 
161.383 161.494 161.249 161.434 161.328 161.626 161.594 161.852 162.52 
162.259 162.41 162.135 162.297 162.054 162.248 162.014 162.209 161.93 
162.141 161.889 162.18 162.023 162.346 162.207 162.468 163.156 162.935 
163.118 162.855 163.035 162.753 162.978 162.715 163.012 162.74 163.054 
162.733 163.037 162.735 163.062 162.83 163.162 162.939 163.223 157.437 
157.463 157.56 157.741 157.507 157.631 157.896 157.909 158.136 157.566 
157.702 158.046 158.116 158.409 158.416 158.756 157.749 157.835 158.184 
158.259 158.568 158.649 158.989 159.09 159.499 158.011 158.104 158.488 
158.482 158.761 158.773 159.098 159.233 159.655 159.82 160.254 158.214 
158.359 158.82 158.856 159.163 159.075 159.358 159.369 159.8 159.95 
160.437 160.575 161.006 158.455 158.546 158.978 159.107 159.456 159.477 
159.753 159.722 160.089 160.155 160.636 160.767 161.229 161.33 161.728 
158.813 158.812 159.137 159.213 159.532 159.648 159.962 160.046 160.387 
160.461 160.87 160.978 161.419 161.538 161.947 162.036 162.403 159.155 
159.145 159.409 159.403 159.68 159.734 160.073 160.186 160.57 160.687 
161.078 161.188 161.591 161.713 162.118 162.233 162.609 162.691 163.028 
159.398 159.852 159.64 159.661 160.383 160.134 160.182 159.922 159.946 
160.99 160.713 160.807 160.525 160.601 160.282 160.355 161.635 161.346 
161.461 161.199 161.335 161.018 161.109 160.765 160.867 162.314 162.01 
162.13 161.871 162.036 161.761 161.878 161.542 161.617 161.286 161.38 
163.017 162.704 162.834 162.565 162.752 162.482 162.627 162.298 162.376 
162.032 162.113 161.793 161.893 163.682 163.388 163.49 163.25 163.436 
163.208 163.374 163.064 163.15 162.792 162.877 162.543 162.655 162.326 
162.429 164.23 163.986 164.038 163.837 163.987 163.826 163.998 163.774 
163.866 163.553 163.619 163.301 163.407 163.095 163.194 162.857 162.923 
164.65 164.459 164.513 164.337 164.477 164.328 164.502 164.333 164.451 
164.209 164.275 163.999 164.081 163.806 163.893 163.593 163.643 163.311 
163.335 164.866 165.307 164.979 164.817 165.9 165.543 165.404 165.007 
164.844 166.379 166.116 165.989 165.635 165.438 165.043 164.851 166.785 
166.517 166.398 166.132 165.944 165.604 165.364 165.005 164.775 167.449 
167.025 166.914 166.554 166.43 166.086 165.895 165.513 165.263 164.885 
164.627 168.264 167.82 167.711 167.23 167.107 166.667 166.513 166.085 
165.851 165.411 165.126 164.721 164.451 168.903 168.583 168.463 168.036 
167.832 167.384 167.148 166.717 166.434 165.996 165.661 165.231 164.903 
164.528 164.245 169.402 169.135 169.005 168.653 168.394 168 167.68 
167.276 166.92 166.51 166.125 165.714 165.332 164.951 164.61 164.279 
163.978 169.868 169.609 169.456 169.118 168.846 168.474 168.148 167.749 
167.375 166.951 166.546 166.131 165.731 165.344 164.971 164.62 164.281 
163.97 163.66 165.037 165.464 165.267 165.424 166.017 165.752 165.85 
165.719 165.96 166.545 166.316 166.336 166.136 166.272 166.227 166.43 
166.887 166.76 166.726 166.531 166.55 166.491 166.677 166.661 166.877 
167.095 167.036 166.991 166.807 166.772 166.71 166.933 166.959 167.298 
167.233 167.565 167.112 167.193 167.192 167.049 167.017 166.924 167.178 
167.249 167.681 167.703 168.075 168.003 168.332 166.795 167.072 167.172 
167.213 167.231 167.179 167.384 167.477 167.868 168 168.318 168.372 
168.616 168.649 168.902 166.384 166.684 166.889 167.101 167.216 167.306 
167.457 167.587 167.857 168.044 168.281 168.422 168.603 168.744 168.994 
169.12 169.388 166.225 166.384 166.624 166.829 167.019 167.194 167.349 
167.522 167.721 167.925 168.143 168.31 168.509 168.66 168.94 169.133 
169.488 169.616 169.89 164.947 164.95 165.1 165.387 164.728 165.049 
165.393 165.581 165.924 164.237 164.697 165.071 165.446 165.776 166.066 
166.389 163.692 164.151 164.497 164.957 165.239 165.683 165.972 166.388 
166.671 163.178 163.616 163.951 164.374 164.653 165.059 165.335 165.805 
166.148 166.598 166.873 162.663 163.108 163.485 163.891 164.24 164.58 
164.918 165.268 165.642 166.053 166.38 166.75 166.892 162.168 162.619 
163.048 163.469 163.859 164.224 164.594 164.948 165.302 165.646 165.884 
166.207 166.274 166.588 166.532 161.664 162.132 162.569 163.034 163.412 
163.815 164.119 164.533 164.803 165.218 165.349 165.671 165.626 165.906 
165.822 166.134 166.097 161.137 161.592 161.987 162.496 162.858 163.309 
163.562 163.969 164.155 164.575 164.672 165.03 164.999 165.273 165.239 
165.508 165.58 165.857 165.985 160.968 160.966 161.219 161.783 161.05 
161.244 161.789 162.076 162.642 161.257 161.387 161.893 162.1 162.635 
162.89 163.36 161.436 161.608 162.082 162.237 162.714 162.906 163.341 
163.541 163.929 161.414 161.694 162.153 162.369 162.809 162.999 163.404 
163.554 163.88 164.055 164.379 161.297 161.595 162.063 162.341 162.803 
163.055 163.512 163.671 164.021 164.08 164.338 164.462 164.724 161.27 
161.506 161.986 162.245 162.744 163.025 163.553 163.789 164.25 164.323 
164.646 164.602 164.856 164.855 165.096 161.301 161.51 161.961 162.201 
162.677 162.961 163.456 163.767 164.234 164.481 164.869 164.961 165.269 
165.208 165.453 165.343 165.557 161.275 161.496 161.891 162.147 162.561 
162.85 163.251 163.574 163.937 164.285 164.623 164.96 165.286 165.503 
165.767 165.778 165.95 165.84 165.991 161.347 161.62 161.635 161.959 
161.933 161.924 162.262 162.281 162.626 162.318 162.264 162.578 162.584 
162.925 162.948 163.284 162.747 162.666 162.945 162.911 163.225 163.232 
163.543 163.572 163.903 163.172 163.098 163.361 163.289 163.59 163.56 
163.866 163.843 164.152 164.184 164.556 163.576 163.523 163.799 163.711 
163.99 163.941 164.262 164.217 164.52 164.479 164.838 164.883 165.277 
163.929 163.899 164.182 164.134 164.397 164.341 164.644 164.613 164.92 
164.871 165.179 165.186 165.557 165.602 165.876 164.193 164.171 164.404 
164.444 164.726 164.727 165.019 164.992 165.289 165.247 165.521 165.501 
165.792 165.841 166.1 166.089 166.153 164.393 164.346 164.509 164.589 
164.898 164.995 165.321 165.345 165.626 165.597 165.843 165.808 166.042 
166.046 166.261 166.267 166.368 166.265 166.213 166.32 166.479 166.483 
166.628 166.45 166.567 166.731 166.788 166.975 166.283 166.476 166.684 
166.822 167.017 167.112 167.312 166.085 166.291 166.5 166.699 166.929 
167.108 167.363 167.471 167.708 165.885 166.099 166.303 166.497 166.765 
166.997 167.375 167.561 167.911 167.95 168.179 165.592 165.876 166.128 
166.342 166.653 166.882 167.363 167.623 168.141 168.242 168.57 168.468 
168.63 165.128 165.496 165.808 166.156 166.544 166.827 167.312 167.619 
168.182 168.443 168.887 168.913 169.153 168.972 169.13 164.685 164.995 
165.327 165.772 166.253 166.677 167.164 167.515 167.97 168.329 168.759 
169.056 169.396 169.467 169.699 169.542 169.706 164.532 164.661 164.96 
165.316 165.828 166.321 166.855 167.275 167.657 168.001 168.32 168.719 
169.084 169.463 169.798 169.961 170.158 170.06 170.115 155.237 155.835 
155.57 155.655 156.382 156.134 156.147 155.933 155.964 156.85 156.589 
156.535 156.34 156.332 156.17 156.239 157.436 157.088 157.05 156.757 
156.794 156.564 156.677 156.514 156.743 158.134 157.769 157.809 157.437 
157.567 157.217 157.413 157.104 157.375 157.178 157.544 158.822 158.5 
158.584 158.258 158.428 158.108 158.341 157.996 158.265 157.954 158.294 
158.082 158.46 159.535 159.22 159.33 159.017 159.19 158.927 159.178 
158.912 159.178 158.876 159.154 158.883 159.184 158.973 159.263 160.261 
159.973 160.121 159.793 159.981 159.69 159.976 159.727 160.044 159.762 
160.024 159.718 159.94 159.677 159.888 159.685 159.897 160.897 160.685 
160.868 160.592 160.786 160.502 160.778 160.542 160.88 160.631 160.907 
160.582 160.761 160.424 160.582 160.309 160.499 160.29 160.507 155.011 
155.409 155.098 154.961 155.744 155.467 155.267 155.071 155.068 156.098 
155.81 155.629 155.363 155.297 155.198 155.324 156.675 156.305 156.249 
155.861 155.841 155.543 155.676 155.556 155.809 157.474 157.039 157.077 
156.657 156.74 156.312 156.469 156.132 156.393 156.19 156.485 158.344 
157.896 157.898 157.514 157.603 157.25 157.393 157.041 157.223 156.913 
157.134 156.909 157.151 159.14 158.735 158.691 158.302 158.325 158.009 
158.117 157.854 157.994 157.715 157.844 157.573 157.739 157.541 157.763 
159.799 159.464 159.447 159.079 159.09 158.725 158.803 158.511 158.676 
158.422 158.586 158.287 158.419 158.141 158.326 158.146 158.386 160.406 
160.091 160.108 159.798 159.844 159.503 159.564 159.228 159.363 159.102 
159.31 159.047 159.213 158.883 159.015 158.736 158.922 158.754 158.967 
154.749 154.763 154.639 154.523 154.989 154.795 154.651 154.503 154.456 
155.319 155.115 155.005 154.735 154.565 154.433 154.45 155.771 155.514 
155.474 155.17 155.015 154.68 154.605 154.507 154.734 156.369 156.036 
156.022 155.717 155.697 155.3 155.269 154.91 155.079 155.001 155.38 
157.001 156.643 156.575 156.287 156.324 156.039 156.096 155.724 155.816 
155.53 155.77 155.699 155.955 157.632 157.26 157.138 156.811 156.781 
156.582 156.653 156.451 156.494 156.23 156.302 156.127 156.288 156.187 
156.306 158.289 157.918 157.811 157.403 157.326 157.031 157.086 156.905 
156.981 156.771 156.803 156.597 156.698 156.563 156.724 156.567 156.702 
158.888 158.577 158.513 158.119 158.063 157.678 157.738 157.441 157.568 
157.289 157.377 157.101 157.205 157.007 157.174 157.025 157.19 157.023 
157.173 164.708 164.275 164.562 164.652 163.672 164.021 164.034 164.378 
164.355 162.965 163.326 163.287 163.646 163.57 163.935 163.848 162.263 
162.6 162.558 162.885 162.817 163.143 163.076 163.416 163.346 161.582 
161.905 161.862 162.178 162.111 162.423 162.365 162.691 162.625 162.94 
162.849 160.926 161.229 161.18 161.491 161.396 161.7 161.595 161.948 
161.859 162.211 162.082 162.406 162.291 160.315 160.581 160.539 160.835 
160.761 161.011 160.866 161.146 161.029 161.389 161.28 161.622 161.483 
161.828 161.75 159.767 159.981 159.905 160.197 160.15 160.418 160.29 
160.487 160.325 160.588 160.494 160.827 160.733 161.048 160.943 161.299 
161.25 159.287 159.444 159.293 159.54 159.449 159.768 159.663 159.918 
159.73 159.941 159.781 160.072 159.989 160.318 160.233 160.544 160.463 
160.814 160.773 
POINT_DATA 1002
SCALARS Distance double
LOOKUP_TABLE default
161.323 161.07 160.693 160.965 160.373 161.6 160.7 160.135 161.292 
161.962 160.452 159.865 161.043 161.718 162.399 160.079 159.484 160.729 
161.465 162.185 162.836 159.683 159.144 160.342 161.157 161.906 162.561 
163.229 159.457 158.962 160.054 160.869 161.653 162.259 162.92 163.611 
159.324 158.839 159.882 160.624 161.441 162.121 162.783 163.472 163.978 
159.153 158.685 159.695 160.386 161.183 161.992 162.84 163.641 164.118 
164.266 158.974 158.512 159.495 160.169 160.94 161.749 162.698 163.729 
164.42 164.565 164.479 160.513 160.113 159.836 159.426 159.121 159.765 
158.755 158.457 159.061 159.491 158.157 157.792 158.407 158.739 159.18 
157.531 157.154 157.788 158.015 158.385 158.808 156.89 156.649 157.092 
157.313 157.656 158.089 158.542 156.254 156.125 156.406 156.654 157.077 
157.542 157.973 158.424 155.564 155.474 155.798 156.147 156.627 157.151 
157.557 157.915 158.315 154.946 154.907 155.269 155.764 156.263 156.734 
157.123 157.413 157.735 158.128 154.545 154.74 154.449 154.802 154.436 
155.295 154.906 154.535 155.424 155.877 155.224 155.062 155.581 155.908 
156.283 155.785 155.745 155.999 156.095 156.193 156.597 155.991 156.104 
156.182 156.393 156.312 156.36 156.843 155.941 156.373 155.808 156.124 
156.336 156.249 156.467 157.105 156.303 156.845 155.777 155.737 156.085 
156.218 156.288 156.788 157.524 157.01 157.338 156.497 156.123 156.2 
156.42 156.503 156.784 157.401 158.041 158.678 158.251 158.969 157.707 
158.623 159.376 157.258 158.208 159.072 159.9 157.077 157.86 158.682 
159.62 160.605 156.952 157.643 158.294 159.245 160.382 161.335 156.875 
157.525 158.036 158.933 160.146 161.144 161.857 157.115 157.645 158.005 
158.798 160.067 161.075 161.694 162.309 157.48 157.909 158.179 158.771 
159.974 161.086 161.675 162.179 162.891 157.646 157.987 158.307 158.798 
159.745 160.847 161.575 162.063 162.702 163.491 159.205 159.594 159.863 
160.114 160.402 160.686 160.771 161.022 161.309 161.518 161.523 161.701 
161.932 162.141 162.411 162.136 162.377 162.58 162.742 163.041 163.512 
162.629 162.965 163.263 163.419 163.562 164.014 164.459 163.247 163.594 
163.948 164.203 164.22 164.323 164.669 164.808 163.933 164.298 164.622 
164.932 165.028 164.902 164.87 164.901 164.744 164.32 164.821 165.053 
165.582 165.725 165.197 166.33 166.506 165.997 165.516 167.215 167.407 
166.805 166.299 165.747 168.174 168.343 167.705 167.048 166.427 165.701 
169.081 169.23 168.576 167.803 167.077 166.341 165.49 169.854 169.917 
169.313 168.446 167.675 167.01 166.13 165.283 170.332 170.232 169.891 
168.995 168.143 167.56 166.813 165.773 164.996 170.348 170.132 170.159 
169.479 168.618 167.961 167.353 166.401 165.334 164.681 163.475 164.254 
163.371 164.203 163.333 164.981 164.337 163.386 165.068 165.738 164.443 
163.353 165.322 165.922 166.591 164.293 163.239 165.362 166.135 166.776 
167.525 164.113 163.232 165.141 166.091 166.927 167.709 168.481 164.062 
163.31 164.939 165.859 166.821 167.758 168.54 169.263 164.024 163.355 
164.785 165.6 166.491 167.452 168.305 169.017 169.704 163.947 163.353 
164.611 165.34 166.126 166.975 167.81 168.54 169.212 169.8 157.635 
157.83 157.882 158.104 158.387 158.187 158.823 159.16 158.712 158.769 
159.762 159.951 159.659 159.597 159.582 160.564 160.688 160.577 160.544 
160.403 160.512 161.266 161.414 161.248 161.278 161.113 161.025 161.291 
161.978 162.11 161.864 161.837 161.76 161.609 161.668 161.919 162.69 
162.762 162.564 162.463 162.445 162.423 162.391 162.482 162.639 157.338 
157.708 157.345 157.841 157.335 158.14 157.93 157.434 158.367 158.722 
158.142 157.671 158.481 158.858 159.387 158.499 157.863 158.824 158.981 
159.455 160.123 158.716 158.064 159.245 159.423 159.672 160.274 160.916 
158.861 158.443 159.359 159.765 160.074 160.521 161.113 161.661 159.133 
158.866 159.419 159.82 160.302 160.788 161.301 161.843 162.339 159.436 