# vtk DataFile Version 4.0
vtk output
ASCII
DATASET POLYDATA
POINTS 1002 float
-116.806 -98.8613 42.4025 -116.702 -98.1965 42.199 -116.163 -98.4163 42.1663 
-116.168 -99.0433 42.4548 -115.566 -98.5214 42.2929 -116.835 -99.2839 42.8217 
-115.416 -99.0666 42.7191 -114.916 -98.5397 42.6106 -116.025 -99.364 43.0632 
-116.676 -99.4585 43.5896 -114.711 -99.006 43.1511 -114.138 -98.6479 42.9146 
-115.165 -99.3752 43.4798 -115.771 -99.5442 43.9718 -116.465 -99.6312 44.6028 
-114.018 -98.988 43.6019 -113.192 -98.8901 43.1084 -114.538 -99.3225 44.0211 
-114.953 -99.6632 44.4237 -115.652 -99.7928 44.999 -116.345 -99.8859 45.6752 
-113.199 -99.0579 44.0752 -112.359 -99.0615 43.4943 -113.96 -99.2283 44.6104 
-114.355 -99.6598 44.9774 -114.912 -99.9311 45.4633 -115.672 -100.025 46.1137 
-116.194 -100.148 46.7473 -112.393 -99.2141 44.6157 -111.862 -99.0398 44.188 
-113.162 -99.303 45.1206 -113.712 -99.6033 45.5231 -114.2 -99.9454 46.0271 
-114.949 -100.137 46.6523 -115.586 -100.305 47.2163 -115.983 -100.514 47.7154 
-111.713 -99.3729 45.1291 -111.482 -98.934 44.8851 -112.241 -99.6387 45.476 
-112.891 -99.802 45.8742 -113.467 -100.02 46.4607 -114.162 -100.297 47.1382 
-114.891 -100.58 47.6181 -115.4 -100.833 47.9849 -115.873 -101.075 48.3675 
-111.139 -99.4011 45.6041 -111.024 -98.8678 45.4204 -111.408 -99.9102 45.8333 
-111.997 -100.157 46.1607 -112.726 -100.253 46.7214 -113.419 -100.528 47.3868 
-114.113 -100.958 47.813 -114.736 -101.279 48.0696 -115.276 -101.464 48.406 
-115.87 -101.649 48.7602 -110.704 -99.2951 46.1214 -110.556 -98.8647 45.881 
-110.845 -99.8618 46.344 -111.253 -100.279 46.6109 -111.996 -100.421 47.057 
-112.744 -100.672 47.5862 -113.35 -101.227 47.9028 -113.965 -101.69 48.0748 
-114.605 -101.832 48.4078 -115.229 -101.873 48.8654 -115.845 -101.982 49.2309 
-116.329 -97.5968 41.9687 -115.749 -97.7441 41.9979 -115.962 -97.0692 41.6303 
-115.263 -97.1735 41.7117 -115.403 -96.7955 41.0982 -115.165 -97.8328 42.2209 
-114.579 -96.8596 41.2083 -114.706 -96.4876 40.5503 -114.642 -97.24 42.0678 
-114.473 -97.9646 42.5809 -114.051 -96.3926 40.8302 -114.392 -95.7016 40.3394 
-114.058 -96.7697 41.7474 -113.958 -97.3832 42.4988 -113.507 -98.3078 42.7174 
-114.028 -95.4521 40.9374 -114.438 -94.6635 40.4457 -113.763 -96.1145 41.5768 
-113.533 -96.7318 42.2711 -113.008 -97.7296 42.5679 -112.479 -98.6838 42.757 
-113.958 -94.4433 41.1523 -114.168 -93.8997 40.5272 -113.669 -95.2405 41.6663 
-113.235 -96.0499 42.058 -112.655 -96.9584 42.4029 -112.125 -98.0143 42.7031 
-111.884 -98.7342 43.2843 -113.425 -93.7896 41.0413 -113.579 -93.4595 40.5336 
-113.312 -94.4312 41.6013 -112.92 -95.3914 41.9255 -112.289 -96.336 42.2255 
-111.842 -97.2199 42.7467 -111.698 -98.0038 43.4327 -111.627 -98.5335 44.1851 
-112.918 -93.4411 40.8941 -113.22 -93.1277 40.6889 -112.804 -93.8587 41.357 
-112.577 -94.6982 41.8135 -112.039 -95.7566 42.1754 -111.567 -96.6472 42.7322 
-111.448 -97.3441 43.5545 -111.414 -97.9256 44.3362 -111.25 -98.4147 44.9237 
-112.804 -93.1871 41.09 -113.201 -92.79 41.0622 -112.533 -93.51 41.3613 
-112.316 -94.0812 41.8399 -111.946 -95.0335 42.3325 -111.51 -96.0444 42.8514 
-111.27 -96.8221 43.5794 -111.133 -97.4335 44.3777 -110.911 -97.9899 44.9666 
-110.684 -98.474 45.403 -113.02 -92.7271 41.5741 -112.609 -93.1534 41.6987 
-112.747 -92.6291 42.2388 -112.292 -93.1465 42.483 -112.326 -92.5657 42.8863 
-112.232 -93.5643 42.0497 -111.885 -93.2581 43.2146 -111.938 -92.7288 43.5325 
-111.822 -93.7176 42.901 -111.88 -94.2629 42.5897 -111.539 -93.5606 43.9867 
-111.66 -93.2234 44.3926 -111.386 -94.0146 43.6794 -111.41 -94.562 43.4588 
-111.517 -95.2782 43.1585 -111.118 -93.9282 44.9704 -111.327 -93.8006 45.4063 
-110.922 -94.337 44.5007 -110.877 -94.9375 44.2506 -111.074 -95.5523 44.0811 
-111.218 -96.2298 43.7934 -110.512 -94.1712 45.9898 -110.875 -94.139 46.3689 
-110.309 -94.533 45.4339 -110.253 -95.214 45.0229 -110.442 -95.7904 44.9048 
-110.739 -96.3374 44.751 -110.926 -96.9563 44.5178 -109.987 -94.367 46.8898 
-110.499 -94.3443 47.2009 -109.731 -94.6874 46.385 -109.705 -95.3853 45.8482 
-109.815 -95.9728 45.5843 -110.029 -96.4108 45.4777 -110.244 -97.0406 45.2794 
-110.517 -97.6389 45.0885 -109.812 -94.7338 47.6197 -110.405 -94.6993 47.8252 
-109.451 -94.9798 47.286 -109.393 -95.5728 46.8028 -109.439 -96.1646 46.3288 
-109.461 -96.5806 46.0148 -109.507 -97.1727 45.7915 -109.721 -97.8703 45.6078 
-110.17 -98.281 45.4943 -109.949 -95.2532 48.1502 -110.544 -95.1845 48.2603 
-109.479 -95.4179 48.0022 -109.271 -95.8171 47.7391 -109.218 -96.3312 47.2916 
-109.127 -96.8052 46.7507 -109.012 -97.3975 46.3268 -109.095 -98.1055 46.1154 
-109.507 -98.5702 46.0431 -110.078 -98.7293 45.9873 -110.294 -99.0613 46.597 
-109.781 -98.9578 46.7451 -110.105 -99.2129 47.4536 -109.145 -98.8479 46.7826 
-109.535 -99.1365 47.6465 -109.839 -99.4951 48.1971 -108.734 -98.3956 46.8614 
-108.923 -99.0348 47.7444 -109.272 -99.416 48.4686 -109.534 -100.006 48.853 
-108.713 -97.6465 47.2239 -108.619 -98.5608 47.979 -108.917 -99.1982 48.7725 
-109.166 -99.8168 49.2852 -109.521 -100.411 49.7237 -108.872 -96.9613 47.821 
-108.595 -97.789 48.4713 -108.78 -98.6409 49.2327 -109.113 -99.3716 49.8174 
-109.372 -100.038 50.2327 -110.013 -100.364 50.6373 -109.056 -96.4518 48.2923 
-108.72 -97.1067 48.9057 -108.664 -97.9191 49.6706 -108.977 -98.716 50.3919 
-109.335 -99.438 50.7942 -109.879 -99.9472 51.0231 -110.809 -100.123 51.2568 
-109.34 -96.0762 48.4896 -109.076 -96.6649 49.0472 -108.819 -97.3182 49.7884 
-108.848 -98.031 50.6914 -109.178 -98.7422 51.2989 -109.771 -99.4186 51.4465 
-110.623 -99.8436 51.5419 -111.501 -100.097 51.8528 -109.8 -95.8481 48.5675 
-109.609 -96.3815 49.0872 -109.354 -96.8943 49.7482 -109.178 -97.4458 50.6247 
-109.279 -98.0403 51.4469 -109.794 -98.773 51.781 -110.6 -99.4723 51.8445 
-111.36 -99.9087 52.1453 -111.88 -100.267 52.7235 -110.372 -95.709 48.6427 
-110.164 -96.1618 49.1756 -109.941 -96.5744 49.812 -109.781 -97.017 50.5224 
-109.761 -97.469 51.2837 -110.072 -98.0669 51.8281 -110.751 -98.8707 52.0572 
-111.428 -99.5617 52.3665 -111.823 -100.006 52.9814 -112.042 -100.41 53.6694 
-110.489 -99.4782 46.9198 -110.364 -99.655 47.7429 -110.723 -100.021 47.1699 
-110.204 -100.046 48.4156 -110.8 -100.168 47.9887 -111.318 -100.364 47.5093 
-110.114 -100.523 49.2147 -110.933 -100.49 48.7648 -111.563 -100.517 48.3768 
-112.115 -100.636 47.9434 -110.439 -100.609 50.2351 -111.154 -100.719 49.7267 
-111.779 -100.845 49.2174 -112.195 -101.082 48.6806 -112.698 -101.277 48.1749 
-111.201 -100.371 51.0247 -111.648 -100.654 50.662 -112.014 -101.046 50.1623 
-112.254 -101.525 49.5202 -112.612 -101.884 48.795 -113.239 -101.941 48.2669 
-111.899 -100.347 51.6764 -112.22 -100.711 51.4337 -112.356 -101.178 51.1118 
-112.47 -101.685 50.6231 -112.772 -102.063 49.9158 -113.311 -102.191 49.1713 
-113.976 -102.098 48.6472 -112.183 -100.609 52.6247 -112.479 -101.064 52.432 
-112.606 -101.51 52.1886 -112.745 -101.835 51.8242 -113.132 -102.001 51.2716 
-113.667 -102.022 50.6088 -114.204 -102.006 49.9115 -114.733 -101.99 49.2806 
-112.24 -100.847 53.6873 -112.509 -101.366 53.5829 -112.717 -101.823 53.3877 
-112.949 -102.082 53.0171 -113.415 -102.144 52.4311 -114.009 -102.043 51.8455 
-114.497 -101.903 51.3054 -114.92 -101.9 50.5989 -115.383 -101.991 49.8076 
-112.318 -100.752 54.4974 -112.605 -101.299 54.4805 -112.97 -101.055 54.948 
-113.383 -101.55 54.8891 -113.919 -101.264 55.2187 -112.91 -101.792 54.3839 
-114.259 -101.752 55.3004 -114.549 -101.483 55.895 -113.715 -101.939 54.8273 
-113.209 -102.137 54.108 -114.726 -102.195 56.1771 -114.844 -101.741 56.8186 
-114.517 -102.255 55.3334 -114.077 -102.36 54.4208 -113.667 -102.371 53.4462 
-115.242 -102.596 56.9693 -115.597 -101.834 57.2196 -115.068 -102.748 56.1522 
-114.866 -102.761 54.8234 -114.539 -102.763 53.5712 -114.262 -102.425 52.6859 
-116.352 -102.581 57.0952 -116.806 -101.729 57.0734 -115.883 -102.853 56.6666 
-115.547 -102.855 55.4287 -115.251 -102.949 53.9555 -114.966 -102.744 52.9458 
-114.75 -102.207 52.2354 -117.43 -102.376 56.873 -117.631 -101.594 56.7941 
-117.001 -102.707 56.616 -116.498 -102.671 55.6368 -116.066 -102.674 54.3632 
-115.678 -102.63 53.4167 -115.363 -102.318 52.6563 -115.15 -101.982 51.7318 
-117.875 -102.152 56.5165 -117.867 -101.406 56.3839 -117.778 -102.647 56.3046 
-117.505 -102.799 55.3963 -117.104 -102.699 54.2579 -116.643 -102.424 53.581 
-116.179 -102.144 52.986 -115.845 -102.018 51.9895 -115.625 -101.998 50.8315 
-117.994 -101.778 55.9276 -117.982 -101.075 55.7704 -118.081 -102.419 55.8041 
-118.129 -102.906 55.0317 -117.972 -103.059 53.9115 -117.57 -102.679 53.2821 
-117.041 -102.09 52.961 -116.608 -101.885 52.1187 -116.362 -102.025 50.9009 
-116.148 -102.102 49.9001 -112.07 -100.146 54.1023 -112.399 -100.38 54.8562 
-112.107 -99.6844 54.4355 -112.505 -99.8423 55.1095 -112.172 -99.0752 54.6641 
-113.201 -100.622 55.2261 -112.743 -99.2301 55.1864 -112.494 -98.5094 54.6961 
-113.386 -100.025 55.4753 -114.152 -100.783 55.6267 -113.268 -98.6889 55.0042 
-113.034 -98.0301 54.5421 -113.676 -99.394 55.4574 -114.304 -100.111 55.9206 
-114.677 -100.836 56.4286 -113.819 -98.1317 54.7826 -113.426 -97.4666 54.4117 
-114.121 -98.7991 55.2028 -114.564 -99.5194 55.7601 -114.93 -100.087 56.5489 
-115.155 -100.808 57.116 -114.161 -97.4679 54.6834 -113.717 -96.8567 54.2935 
-114.498 -98.063 55.0855 -114.907 -98.9138 55.4532 -115.337 -99.652 56.14 
-115.669 -100.038 56.9596 -116.166 -100.738 57.2126 -114.518 -96.9086 54.4507 
-114.157 -96.3983 53.9751 -114.837 -97.3116 55.0177 -115.253 -98.0095 55.3803 
-115.754 -99.0897 55.6647 -116.149 -99.7392 56.35 -116.612 -100.033 56.946 
-117.205 -100.717 56.9645 -114.961 -96.5484 53.9622 -114.62 -96.0746 53.4952 
-115.278 -96.8607 54.6415 -115.678 -97.1896 55.2544 -116.166 -98.0834 55.4231 
-116.528 -99.1835 55.6124 -116.851 -99.726 56.199 -117.315 -100.068 56.6059 
-117.705 -100.708 56.5646 -115.331 -96.2248 53.4356 -114.953 -95.7594 53.0521 
-115.711 -96.5975 54.0337 -116.128 -96.7924 54.7733 -116.575 -97.2279 55.174 
[...]
CELL_DATA 2000
SCALARS Distance double
LOOKUP_TABLE default
157.341 157.025 157.409 157.812 156.63 157.027 157.384 157.785 158.098 
156.22 156.601 156.915 157.301 157.602 157.997 158.301 155.791 156.187 
156.527 156.875 157.188 157.529 157.875 158.252 158.622 155.363 155.757 
156.153 156.527 156.878 157.192 157.545 157.888 158.298 158.655 159.027 
155.066 155.38 155.777 156.156 156.532 156.88 157.224 157.575 157.979 
158.359 158.769 159.08 159.414 154.881 155.132 155.473 155.803 156.168 
156.517 156.871 157.229 157.64 158.039 158.493 158.844 159.23 159.488 
159.832 154.678 154.921 155.202 155.503 155.837 156.171 156.538 156.889 
157.317 157.71 158.195 158.58 159.017 159.315 159.671 159.93 160.291 
154.465 154.69 154.949 155.219 155.532 155.849 156.218 156.573 157 
157.394 157.866 158.274 158.718 159.075 159.436 159.734 160.056 160.354 
160.682 156.923 156.202 156.578 156.611 155.469 155.83 155.845 156.251 
156.267 154.667 155.048 155.039 155.475 155.524 155.91 155.893 153.865 
154.227 154.232 154.663 154.735 155.16 155.165 155.511 155.443 153.223 
153.518 153.558 153.91 153.982 154.377 154.395 154.759 154.697 155.035 
154.989 152.608 152.928 152.966 153.3 153.329 153.66 153.639 153.981 
153.947 154.3 154.306 154.657 154.717 151.881 152.231 152.225 152.639 
152.648 153.005 152.945 153.249 153.218 153.574 153.658 154.037 154.165 
154.495 154.592 151.293 151.51 151.474 151.838 151.885 152.281 152.295 
152.602 152.608 152.919 153.05 153.432 153.627 153.981 154.102 154.384 
154.429 151.047 151.095 151.064 151.225 151.294 151.59 151.71 152.02 
152.135 152.416 152.583 152.906 153.122 153.461 153.603 153.89 153.935 
154.192 154.215 150.996 150.958 150.981 151.001 150.868 150.947 150.994 
151.025 151.156 150.802 150.875 150.988 151.027 151.165 151.262 151.521 
150.967 150.916 151.058 151.057 151.232 151.301 151.573 151.696 151.999 
151.288 151.151 151.21 151.168 151.317 151.382 151.663 151.785 152.117 
152.209 152.511 151.485 151.361 151.267 151.254 151.315 151.42 151.646 
151.823 152.13 152.302 152.601 152.719 153.007 151.583 151.427 151.266 
151.23 151.273 151.372 151.568 151.737 151.978 152.194 152.445 152.681 
152.934 153.143 153.4 151.844 151.578 151.466 151.31 151.409 151.408 
151.64 151.702 151.911 152.019 152.218 152.429 152.676 152.946 153.211 
153.457 153.705 152.334 151.998 151.944 151.678 151.786 151.673 151.9 
151.869 152.058 152.039 152.197 152.268 152.514 152.711 153.032 153.263 
153.567 153.763 154.017 154.167 153.743 154.089 154.345 153.221 153.628 
153.916 154.288 154.564 152.698 153.084 153.406 153.832 154.156 154.516 
154.826 152.367 152.622 152.945 153.344 153.755 154.141 154.525 154.85 
155.252 152.244 152.394 152.654 152.95 153.386 153.793 154.274 154.621 
155.06 155.367 155.825 152.158 152.312 152.526 152.717 153.066 153.439 
153.93 154.358 154.825 155.18 155.611 155.949 156.413 152.113 152.259 
152.528 152.641 152.926 153.159 153.576 153.973 154.444 154.867 155.316 
155.704 156.172 156.543 157.044 152.271 152.333 152.679 152.728 153.036 
153.121 153.479 153.7 154.141 154.488 154.985 155.39 155.936 156.33 
156.881 157.225 157.737 152.62 152.612 152.96 152.965 153.282 153.304 
153.632 153.721 154.105 154.302 154.775 155.111 155.697 156.118 156.731 
157.101 157.625 157.918 158.352 154.449 154.641 154.666 154.942 154.88 
154.899 155.188 155.205 155.526 155.173 155.179 155.527 155.516 155.869 
155.86 156.235 155.617 155.562 155.984 155.943 156.359 156.294 156.699 
156.648 157.059 156.196 156.102 156.55 156.486 156.946 156.859 157.273 
157.178 157.587 157.519 157.932 156.811 156.718 157.165 157.09 157.544 
157.463 157.871 157.768 158.141 158.055 158.442 158.387 158.764 157.463 
157.361 157.835 157.732 158.183 158.07 158.477 158.359 158.727 158.613 
158.967 158.882 159.235 159.172 159.487 158.13 158.037 158.533 158.433 
158.899 158.752 159.154 158.992 159.365 159.217 159.568 159.431 159.756 
159.644 159.948 159.854 160.126 158.704 158.663 159.136 159.099 159.563 
159.463 159.852 159.69 160.04 159.877 160.22 160.059 160.363 160.197 
160.466 160.33 160.596 160.486 160.744 159.107 159.872 159.516 159.587 
160.715 160.332 160.409 160.02 160.034 161.575 161.202 161.251 160.841 
160.836 160.418 160.336 162.376 162.067 162.157 161.714 161.699 161.232 
161.157 160.68 160.545 163.142 162.892 163.078 162.65 162.648 162.14 
162.055 161.54 161.407 160.889 160.726 163.9 163.701 163.915 163.541 
163.491 163.025 162.864 162.402 162.216 161.735 161.523 161.032 160.83 
164.468 164.404 164.599 164.31 164.197 163.752 163.498 163.076 162.838 
162.439 162.191 161.757 161.51 161.074 160.876 164.593 164.744 164.939 
164.858 164.796 164.424 164.182 163.702 163.458 163.015 162.781 162.356 
162.114 161.703 161.504 161.113 160.97 164.339 164.618 164.811 164.981 
165.029 164.926 164.791 164.421 164.18 163.697 163.415 162.942 162.664 
162.261 162.058 161.713 161.584 161.231 161.116 158.967 158.899 159.178 
159.674 158.706 159.052 159.593 159.936 160.517 158.52 158.846 159.421 
159.821 160.462 160.815 161.386 158.485 158.738 159.286 159.643 160.276 
160.695 161.275 161.613 162.111 158.45 158.731 159.221 159.524 160.087 
160.482 161.046 161.421 161.903 162.255 162.768 158.279 158.619 159.072 
159.394 159.888 160.279 160.849 161.221 161.727 162.034 162.536 162.918 
163.491 158.132 158.431 158.873 159.175 159.625 160.017 160.591 161.032 
161.599 161.921 162.394 162.702 163.204 163.612 164.085 158.078 158.33 
158.768 159.012 159.438 159.749 160.269 160.719 161.287 161.726 162.177 
162.523 162.897 163.27 163.624 164.031 164.263 158.002 158.264 158.693 
158.944 159.366 159.615 160.062 160.404 160.882 161.315 161.727 162.151 
162.457 162.857 163.105 163.497 163.664 164.021 164.072 152.945 153.432 
153.223 153.246 153.746 153.635 153.681 153.5 153.531 154.032 153.931 
154.058 153.919 154.022 153.815 153.894 154.537 154.342 154.599 154.417 
154.652 154.397 154.542 154.247 154.368 155.235 154.978 155.279 155.094 
155.42 155.159 155.346 154.985 155.112 154.79 155 155.896 155.656 
155.837 155.715 155.997 155.885 156.084 155.805 155.922 155.59 155.827 
155.559 155.92 156.461 156.237 156.322 156.161 156.361 156.319 156.566 
156.442 156.611 156.369 156.613 156.403 156.798 156.584 156.973 157.015 
156.8 156.937 156.683 156.893 156.732 157.061 156.938 157.232 157.028 
157.286 157.113 157.469 157.364 157.741 157.565 157.846 157.59 157.403 
157.629 157.379 157.63 157.398 157.749 157.573 157.934 157.717 157.987 
157.76 158.041 157.923 158.262 158.185 158.475 158.313 158.525 152.848 
152.791 153.009 153.314 152.583 152.855 153.164 153.406 153.634 152.456 
152.633 152.961 153.221 153.521 153.693 153.906 152.636 152.652 152.981 
153.113 153.487 153.635 153.94 154.039 154.36 152.849 152.897 153.194 
153.261 153.63 153.724 154.095 154.163 154.535 154.634 155.067 152.825 
152.983 153.264 153.426 153.779 153.916 154.283 154.368 154.736 154.835 
155.256 155.389 155.797 152.841 152.933 153.251 153.423 153.833 154.026 
154.433 154.553 154.893 154.99 155.343 155.509 155.89 156.044 156.368 
153.15 153.11 153.469 153.518 153.974 154.117 154.597 154.721 155.104 
155.156 155.47 155.559 155.897 156.061 156.402 156.553 156.862 153.607 
153.536 153.892 153.865 154.292 154.352 154.825 154.928 155.355 155.407 
155.754 155.764 156.096 156.139 156.489 156.587 156.935 157.059 157.398 
153.966 154.619 154.279 154.277 155.353 154.975 154.996 154.637 154.679 
156.183 155.768 155.796 155.401 155.451 155.088 155.173 157.031 156.628 
156.675 156.258 156.292 155.88 155.931 155.588 155.666 157.818 157.45 
157.505 157.133 157.152 156.729 156.726 156.341 156.388 156.057 156.092 
158.559 158.204 158.236 157.905 157.911 157.531 157.483 157.102 157.119 
156.791 156.841 156.474 156.468 159.263 158.927 158.953 158.616 158.627 
158.252 158.194 157.804 157.788 157.484 157.556 157.241 157.257 156.851 
156.829 159.877 159.599 159.638 159.328 159.359 158.995 158.964 158.537 
158.492 158.132 158.186 157.913 157.976 157.634 157.619 157.22 157.228 
160.356 160.153 160.185 159.949 159.971 159.692 159.679 159.316 159.261 
158.863 158.859 158.541 158.614 158.321 158.365 158.003 158.013 157.636 
157.683 160.59 160.893 160.639 160.437 161.227 160.932 160.691 160.45 
160.22 161.569 161.253 160.939 160.671 160.421 160.21 159.948 161.849 
161.572 161.254 160.937 160.658 160.409 160.168 159.918 159.594 162.118 
161.861 161.634 161.304 161.049 160.719 160.488 160.186 159.913 159.571 
159.234 162.499 162.211 162.051 161.732 161.518 161.164 160.934 160.587 
160.342 159.97 159.674 159.279 158.978 162.947 162.659 162.509 162.19 
161.978 161.626 161.375 161.037 160.791 160.443 160.167 159.769 159.451 
159.054 158.733 163.37 163.111 162.984 162.67 162.465 162.092 161.823 
161.458 161.184 160.857 160.571 160.229 159.894 159.514 159.15 158.766 
158.407 163.809 163.549 163.454 163.148 162.965 162.596 162.336 161.935 
161.632 161.247 160.908 160.559 160.19 159.867 159.489 159.152 158.777 
158.416 158.069 160.73 161.044 160.927 161.041 161.455 161.261 161.393 
161.29 161.437 162.052 161.738 161.824 161.672 161.867 161.735 161.841 
162.71 162.385 162.386 162.139 162.266 162.145 162.264 162.092 162.097 
163.03 162.92 162.881 162.673 162.691 162.532 162.615 162.468 162.497 
162.298 162.307 162.813 162.967 162.969 162.994 163.026 162.932 163.028 
162.87 162.985 162.759 162.841 162.588 162.687 162.388 162.602 162.697 
162.91 163.085 163.177 163.368 163.313 163.516 163.346 163.507 163.229 
163.324 163.034 163.134 162.177 162.284 162.461 162.66 162.949 163.161 
163.429 163.544 163.741 163.767 163.915 163.825 163.882 163.659 163.67 
163.435 163.507 162.234 162.257 162.458 162.555 162.834 163.029 163.285 
163.473 163.593 163.747 163.796 163.939 163.971 164.004 164.001 163.89 
163.924 163.775 163.899 160.598 160.519 160.693 160.942 160.402 160.651 
160.996 161.114 161.409 160.124 160.501 160.932 161.178 161.556 161.669 
162.028 159.7 160.15 160.562 160.967 161.342 161.685 162.075 162.306 
162.655 159.235 159.698 160.071 160.485 160.775 161.228 161.596 162.101 
162.488 162.81 162.976 158.708 159.209 159.633 160.031 160.326 160.656 
160.984 161.472 161.924 162.434 162.685 162.905 162.806 158.124 158.634 
159.099 159.595 159.989 160.32 160.637 160.97 161.383 161.849 162.195 
162.522 162.516 162.58 162.373 157.608 158.046 158.46 159.002 159.433 
159.923 160.252 160.634 160.926 161.341 161.623 162.011 162.086 162.264 
162.132 162.177 162.085 157.18 157.55 157.885 158.357 158.744 159.278 
159.624 160.108 160.357 160.792 160.976 161.391 161.468 161.774 161.719 
161.898 161.851 161.993 162.061 157.03 156.989 157.245 157.73 156.987 
157.242 157.779 158.011 158.554 157.068 157.304 157.895 158.116 158.673 
158.879 159.416 157.185 157.409 158.018 158.269 158.849 159.032 159.522 
159.699 160.157 157.304 157.503 158.053 158.344 158.916 159.17 159.627 
159.796 160.167 160.351 160.735 157.38 157.58 158.049 158.323 158.842 
159.144 159.599 159.828 160.15 160.32 160.6 160.831 161.15 157.348 
157.586 158.027 158.29 158.781 159.058 159.535 159.773 160.133 160.28 
160.521 160.671 160.918 161.165 161.428 157.31 157.532 157.986 158.243 
158.743 159.018 159.534 159.773 160.205 160.326 160.605 160.653 160.889 
161.004 161.287 161.463 161.707 157.396 157.559 158.015 158.221 158.703 
158.969 159.487 159.777 160.255 160.443 160.766 160.807 161.039 161.073 
161.36 161.459 161.768 161.839 162.051 157.629 158.124 158.008 158.233 
158.45 158.45 158.715 158.614 158.879 158.678 158.727 159.058 159.046 
159.364 159.298 159.641 158.978 158.986 159.34 159.363 159.73 159.743 
160.129 160.092 160.416 159.33 159.313 159.634 159.652 160.004 160.058 
160.434 160.491 160.81 160.772 160.934 159.685 159.654 159.956 159.952 
160.267 160.3 160.622 160.701 160.999 161.051 161.245 161.167 161.231 
160.131 160.058 160.404 160.333 160.656 160.595 160.866 160.86 161.118 
161.178 161.43 161.446 161.631 161.495 161.589 160.637 160.575 160.968 
160.87 161.197 161.054 161.263 161.136 161.304 161.291 161.524 161.604 
161.876 161.888 162.08 161.918 161.998 161.039 161.057 161.434 161.407 
161.677 161.565 161.678 161.518 161.569 161.482 161.624 161.679 161.937 
162.055 162.3 162.314 162.417 162.263 162.245 162.364 162.552 162.517 
162.587 162.456 162.604 162.732 162.75 162.9 162.118 162.391 162.593 
162.785 162.97 163.066 163.256 161.796 162.032 162.266 162.554 162.771 
162.994 163.145 163.31 163.459 161.704 161.789 161.965 162.206 162.442 
162.719 162.885 163.088 163.215 163.422 163.606 161.828 161.803 161.9 
161.977 162.217 162.441 162.757 162.924 163.18 163.269 163.518 163.648 
163.871 161.906 161.945 162.032 162.013 162.233 162.36 162.829 163.002 
163.507 163.518 163.897 163.808 164.064 163.997 164.094 161.717 161.919 
162.044 162.118 162.3 162.435 162.875 163.142 163.733 163.926 164.395 
164.355 164.604 164.402 164.473 164.233 164.173 161.315 161.618 161.771 
161.995 162.154 162.385 162.692 163.047 163.493 163.911 164.316 164.607 
164.842 164.878 164.932 164.729 164.657 164.341 164.216 151.095 151.38 
151.23 151.279 151.947 151.663 151.73 151.496 151.54 152.615 152.303 
152.342 152.053 152.112 151.834 151.937 153.234 152.947 152.991 152.699 
152.784 152.487 152.629 152.357 152.6 153.974 153.639 153.787 153.428 
153.6 153.249 153.469 153.146 153.407 153.133 153.436 154.851 154.521 
154.794 154.396 154.651 154.215 154.475 154.079 154.34 153.991 154.232 
153.95 154.211 155.628 155.392 155.691 155.424 155.691 155.316 155.515 
155.11 155.289 154.915 155.078 154.745 154.94 154.687 154.966 156.289 
156.076 156.322 156.173 156.422 156.207 156.357 156.039 156.129 155.784 
155.889 155.557 155.713 155.43 155.684 155.473 155.797 156.962 156.704 
156.89 156.721 156.957 156.808 156.992 156.756 156.867 156.559 156.677 
156.351 156.519 156.213 156.446 156.2 156.489 156.297 156.582 151.028 
151.115 151 150.845 151.3 151.092 150.886 150.756 150.581 151.694 
151.35 151.142 150.887 150.746 150.571 150.541 152.395 151.909 151.743 
151.321 151.214 150.895 150.896 150.717 150.861 153.252 152.744 152.617 
152.102 152.004 151.538 151.506 151.183 151.273 151.129 151.316 154.046 
153.601 153.497 153.021 152.923 152.422 152.351 151.901 151.92 151.615 
151.747 151.592 151.778 154.833 154.388 154.307 153.859 153.777 153.317 
153.255 152.79 152.79 152.371 152.468 152.15 152.33 152.113 152.321 
155.688 155.231 155.174 154.695 154.628 154.158 154.121 153.678 153.705 
153.282 153.374 152.979 153.127 152.797 152.99 152.731 152.933 156.475 
156.081 156.037 155.588 155.529 155.049 155.014 154.557 154.59 154.181 
154.278 153.893 154.013 153.642 153.781 153.459 153.623 153.356 153.522 
150.984 150.804 150.914 150.903 150.497 150.63 150.599 150.762 150.737 
150.423 150.369 150.276 150.372 150.338 150.54 150.597 150.775 150.514 
150.378 150.195 150.098 150.144 150.251 150.502 150.757 151.273 151 
150.905 150.545 150.386 150.123 150.174 150.256 150.622 150.873 151.219 
151.712 151.483 151.461 151.156 151.057 150.647 150.616 150.406 150.72 
150.854 151.318 151.433 151.625 152.191 151.918 151.914 151.687 151.718 
151.394 151.41 151.042 151.206 151.094 151.482 151.572 151.862 151.801 
151.817 152.757 152.425 152.37 152.132 152.202 152.016 152.137 151.855 
151.94 151.658 151.82 151.756 152.003 152.018 152.155 152.015 152.047 
153.332 152.99 152.879 152.591 152.593 152.442 152.582 152.463 152.572 
152.329 152.346 152.118 152.213 152.161 152.355 152.333 152.498 152.351 
152.484 160.364 159.884 160.167 160.228 159.287 159.63 159.666 159.981 
160.023 158.594 158.986 159.021 159.358 159.331 159.681 159.683 157.826 
158.247 158.282 158.663 158.601 158.93 158.848 159.251 159.243 157.013 
157.44 157.454 157.876 157.813 158.157 158.028 158.39 158.327 158.777 
158.771 156.161 156.587 156.575 157.016 156.955 157.331 157.201 157.554 
157.458 157.869 157.831 158.284 158.246 155.315 155.708 155.666 156.108 
156.043 156.45 156.322 156.696 156.589 156.997 156.949 157.372 157.329 
157.75 157.702 154.563 154.882 154.797 155.19 155.115 155.527 155.409 
155.798 155.672 156.088 156.025 156.477 156.45 156.879 156.854 157.256 
157.24 153.911 154.169 154.046 154.356 154.254 154.62 154.518 154.895 
154.776 155.164 155.075 155.52 155.492 155.97 155.973 156.427 156.433 
156.843 156.842 
POINT_DATA 1002
SCALARS Distance double
LOOKUP_TABLE default
157.794 157.25 156.981 157.453 156.642 158.191 156.988 156.263 157.712 
158.391 156.553 155.846 157.206 157.889 158.625 156.162 155.365 156.867 
157.494 158.245 158.999 155.746 154.979 156.554 157.216 157.927 158.723 
159.362 155.417 154.803 156.171 156.872 157.585 158.428 159.158 159.723 
155.178 154.663 155.825 156.51 157.232 158.105 158.949 159.583 160.19 
154.924 154.448 155.507 156.18 156.926 157.793 158.688 159.413 160.018 
160.666 154.699 154.248 155.227 155.862 156.613 157.463 158.342 159.125 
159.771 160.38 161 156.541 156.213 155.853 155.424 155.13 155.898 
154.591 154.28 155.104 155.571 153.811 153.505 154.295 154.808 155.119 
153.239 152.926 153.625 154.028 154.351 154.622 152.622 152.278 153.038 
153.327 153.565 153.927 154.371 151.795 151.572 152.257 152.65 152.859 
153.233 153.815 154.312 151.165 151.143 151.463 151.938 152.3 152.669 
153.252 153.817 154.178 150.978 151.022 151.049 151.371 151.825 152.282 
152.801 153.315 153.678 153.95 150.989 150.978 150.909 150.956 150.74 
151.048 150.931 150.737 151.078 151.37 151.084 151.083 151.163 151.456 
151.894 151.29 151.493 151.261 151.529 152.006 152.452 151.303 151.661 
151.213 151.475 151.937 152.449 152.906 151.319 151.771 151.178 151.432 
151.801 152.198 152.691 153.209 151.646 152.116 151.436 151.616 151.875 
152.058 152.399 152.94 153.487 152.233 152.653 151.952 151.971 152.117 
152.185 152.35 152.796 153.363 153.853 154.4 154.015 154.622 153.506 
154.229 154.843 152.951 153.763 154.477 155.159 152.569 153.319 154.184 
154.916 155.684 152.432 152.965 153.878 154.763 155.503 156.29 152.389 
152.758 153.477 154.436 155.276 156.055 156.894 152.418 152.777 153.245 
154.009 154.89 155.782 156.68 157.558 152.629 152.991 153.343 153.85 
154.566 155.5 156.528 157.436 158.219 152.975 153.277 153.58 153.973 
154.492 155.267 156.325 157.339 158.1 158.738 154.901 155.175 155.489 
155.519 155.886 156.232 156.01 156.424 156.767 157.101 156.615 157.026 
157.388 157.667 157.993 157.252 157.629 157.977 158.25 158.508 158.827 
157.939 158.316 158.604 158.85 159.081 159.313 159.565 158.614 159.046 
159.338 159.523 159.723 159.904 160.056 160.227 159.158 159.638 160.008 
160.212 160.386 160.551 160.636 160.711 160.852 159.426 159.965 160.226 
160.806 161.115 160.456 161.687 161.925 161.262 160.79 162.591 162.612 
162.194 161.644 161.039 163.476 163.338 163.168 162.584 161.94 161.242 
164.29 164.076 163.981 163.325 162.685 162.024 161.304 164.848 164.482 
164.661 163.951 163.222 162.609 161.943 161.284 164.903 164.394 165.068 
164.662 163.938 163.217 162.519 161.882 161.347 164.558 164.065 164.973 
165.05 164.666 163.939 163.091 162.384 161.911 161.497 158.738 159.372 
158.588 159.197 158.332 160.212 159.01 158.22 160.056 161.118 158.984 
158.253 159.864 160.91 161.798 158.956 158.142 159.725 160.674 161.555 
162.356 158.76 157.937 159.502 160.44 161.435 162.192 163.061 158.596 
157.865 159.263 160.11 161.224 162.138 162.854 163.7 158.53 157.84 
159.178 159.875 160.824 161.816 162.579 163.259 163.913 158.424 157.741 
159.125 159.795 160.516 161.307 162.059 162.736 163.321 163.758 153.209 
153.487 153.6 153.82 153.82 153.737 154.155 154.124 154.202 154.13 
154.748 154.74 154.895 154.859 154.638 155.448 155.517 155.641 155.723 
155.459 155.241 156.005 156.167 156.059 156.294 156.236 156.072 156.169 
156.541 156.676 156.421 156.607 156.799 156.799 156.969 157.257 157.183 
157.188 157.089 157.17 157.409 157.489 157.572 157.867 158.101 152.684 
153.135 152.555 152.875 152.32 153.485 152.705 152.345 153.305 153.775 
152.908 152.657 153.331 153.827 154.219 153.13 152.763 153.545 154.016 
154.444 154.944 153.059 152.653 153.605 154.188 154.646 155.119 155.707 
153.088 152.783 153.608 154.287 154.827 155.207 155.703 156.261 153.46 
153.207 153.858 154.457 155.05 155.436 155.767 156.221 156.724 153.941 