# vtk DataFile Version 4.0
vtk output
ASCII
DATASET POLYDATA
POINTS 1002 float
-119.32 -102.489 48.7942 -119.449 -102.097 48.2912 -118.818 -102.117 48.4543 
-118.593 -102.57 48.9469 -118.099 -102.146 48.5976 -119.093 -102.748 49.478 
-117.79 -102.699 49.0284 -117.344 -102.269 48.7071 -118.352 -102.95 49.5424 
-118.844 -102.953 50.2805 -116.993 -102.881 49.1181 -116.491 -102.45 48.8562 
-117.575 -103.241 49.5385 -118.154 -103.235 50.2892 -118.579 -103.212 51.0342 
-116.172 -102.984 49.3532 -115.571 -102.637 48.9827 -116.786 -103.403 49.7231 
-117.408 -103.557 50.3219 -117.884 -103.549 51.0257 -118.261 -103.822 51.4634 
-115.394 -103.065 49.6255 -114.856 -102.845 49.1265 -115.995 -103.306 50.1712 
-116.575 -103.629 50.6469 -117.098 -103.912 51.0867 -117.519 -104.264 51.4633 
-117.974 -104.658 51.7878 -114.75 -103.252 49.8966 -114.429 -102.961 49.5415 
-115.275 -103.287 50.5776 -115.781 -103.539 51.1462 -116.228 -104.111 51.3629 
-116.725 -104.647 51.5787 -117.249 -104.954 52.0145 -117.773 -105.054 52.5623 
-114.181 -103.361 50.2941 -114.075 -102.866 50.184 -114.563 -103.473 50.8364 
-115.072 -103.614 51.5067 -115.431 -104.228 51.7379 -115.839 -104.857 51.8546 
-116.466 -105.029 52.3839 -117.094 -104.989 53.0779 -117.597 -105.038 53.5935 
-113.655 -103.236 50.7807 -113.631 -102.648 50.7455 -113.863 -103.556 51.1191 
-114.334 -103.737 51.7451 -114.729 -104.274 52.0973 -114.991 -104.943 52.2122 
-115.513 -105.065 52.7568 -116.266 -104.846 53.58 -116.932 -104.874 54.1068 
-117.437 -105.179 54.3198 -113.177 -103 51.2262 -113.101 -102.463 51.0995 
-113.312 -103.425 51.5052 -113.67 -103.691 52.0518 -114.101 -104.135 52.5015 
-114.349 -104.825 52.6461 -114.655 -105.164 53.0424 -115.286 -104.993 53.8521 
-116.058 -104.892 54.4632 -116.754 -105.147 54.6585 -117.324 -105.522 54.7486 
-119.14 -101.464 48.0471 -118.524 -101.484 48.1405 -118.845 -100.626 47.812 
-118.231 -100.803 47.7286 -118.58 -100.031 47.3461 -117.857 -101.639 48.2058 
-117.867 -100.347 47.2145 -118.268 -99.8444 46.709 -117.572 -101.18 47.7425 
-117.065 -101.896 48.345 -117.501 -100.001 46.8089 -117.971 -99.5286 46.2947 
-117.222 -100.659 47.3905 -116.726 -101.476 47.9657 -116.027 -102.115 48.496 
-117.318 -99.4105 46.6454 -117.782 -98.7082 46.2427 -117.009 -99.949 47.2472 
-116.504 -100.698 47.7583 -115.651 -101.569 48.1212 -115.033 -102.281 48.5513 
-117.212 -98.5785 46.6805 -117.618 -97.7529 46.3838 -116.905 -99.211 47.2239 
-116.489 -99.8035 47.7446 -115.633 -100.689 47.9983 -114.814 -101.619 48.2874 
-114.511 -102.37 48.8677 -117.058 -97.7985 46.8889 -117.488 -97.0762 46.6692 
-116.699 -98.5455 47.3064 -116.381 -99.1709 47.8149 -115.756 -99.9186 48.1561 
-114.937 -100.819 48.4011 -114.463 -101.61 48.919 -114.291 -102.284 49.6196 
-116.981 -97.2365 47.2307 -117.467 -96.6736 47.0895 -116.514 -97.9116 47.4991 
-116.143 -98.6048 47.8971 -115.68 -99.3371 48.3292 -115.039 -100.145 48.693 
-114.505 -100.883 49.1407 -114.208 -101.507 49.7793 -113.951 -102.105 50.3652 
-116.984 -96.8468 47.6031 -117.451 -96.3597 47.525 -116.476 -97.3605 47.7443 
-116.004 -97.9497 47.9905 -115.517 -98.6652 48.3691 -114.983 -99.4637 48.833 
-114.501 -100.215 49.3177 -114.1 -100.865 49.8429 -113.729 -101.448 50.3727 
-113.385 -101.986 50.7896 -117.078 -96.3456 47.9542 -116.591 -96.8203 48.0239 
-116.658 -96.3646 48.4255 -116.097 -96.7631 48.5187 -116.274 -96.4691 49.0477 
-116.041 -97.2495 48.1502 -115.531 -96.7958 49.1879 -115.866 -96.6249 49.7176 
-115.429 -97.1724 48.686 -115.451 -97.8485 48.4009 -115.067 -97.0051 49.9145 
-115.336 -96.7656 50.3087 -114.857 -97.381 49.4349 -114.817 -97.9491 48.9957 
-114.884 -98.6853 48.8372 -114.702 -97.3182 50.6523 -114.717 -96.9582 50.9977 
-114.608 -97.8473 50.2818 -114.47 -98.4088 49.8674 -114.43 -98.9125 49.56 
-114.455 -99.5369 49.4277 -114.203 -97.6336 51.4739 -114.171 -97.2753 51.836 
-114.277 -98.2142 51.1047 -114.206 -98.8526 50.8045 -114.129 -99.2886 50.548 
-114.073 -99.7138 50.2481 -114.026 -100.3 49.9907 -113.718 -97.9798 52.2493 
-113.87 -97.6885 52.578 -113.624 -98.4004 51.8255 -113.47 -98.9276 51.4768 
-113.407 -99.4059 51.3202 -113.435 -99.8722 51.0713 -113.391 -100.456 50.6553 
-113.455 -101.004 50.4147 -113.528 -98.401 52.8755 -113.81 -98.1468 53.1532 
-113.166 -98.6473 52.4597 -112.711 -98.9216 51.9742 -112.438 -99.2826 51.6736 
-112.485 -99.812 51.4802 -112.545 -100.518 51.1202 -112.611 -101.165 50.7984 
-112.934 -101.6 50.7588 -113.496 -98.7954 53.4608 -113.812 -98.5606 53.7066 
-113.052 -98.9812 53.1073 -112.463 -99.1195 52.6203 -111.973 -99.3083 52.1542 
-111.859 -99.7254 51.8098 -111.924 -100.435 51.4593 -111.947 -101.195 51.1305 
-112.158 -101.728 51.0336 -112.63 -102.086 51.105 -112.643 -102.65 51.52 
-112.15 -102.309 51.5276 -112.326 -102.867 52.1783 -111.779 -101.908 51.521 
-111.904 -102.578 52.2689 -112.215 -103.091 53.0771 -111.721 -101.26 51.7368 
-111.705 -102.123 52.4736 -111.863 -102.849 53.3102 -112.241 -103.258 54.0733 
-111.747 -100.442 52.1987 -111.726 -101.374 52.9539 -111.698 -102.345 53.7636 
-111.869 -103.026 54.4638 -112.187 -103.435 55.1391 -111.743 -99.823 52.6848 
-111.729 -100.575 53.5481 -111.662 -101.563 54.3416 -111.673 -102.53 54.9735 
-111.82 -103.157 55.6887 -112.011 -103.681 56.3107 -112.008 -99.5343 53.1193 
-111.806 -100.075 53.9604 -111.756 -100.863 54.7474 -111.77 -101.881 55.3084 
-111.778 -102.718 56.0707 -111.805 -103.247 56.9267 -112.05 -103.79 57.3327 
-112.536 -99.3716 53.5533 -112.092 -99.7758 54.2367 -111.993 -100.402 54.9536 
-112.142 -101.33 55.4803 -112.147 -102.248 56.1474 -111.979 -102.809 57.1222 
-112.043 -103.206 57.8071 -112.51 -103.697 57.9233 -113.059 -99.185 53.9413 
-112.474 -99.4674 54.5535 -112.203 -99.9446 55.1991 -112.422 -100.794 55.7391 
-112.59 -101.736 56.2792 -112.408 -102.378 57.0635 -112.299 -102.748 57.8457 
-112.598 -103.151 58.2057 -113.146 -103.65 58.2572 -113.498 -98.9782 54.2283 
-112.924 -99.1945 54.8717 -112.449 -99.4825 55.519 -112.498 -100.178 56.079 
-112.765 -101.099 56.5701 -112.75 -101.815 57.1226 -112.664 -102.267 57.755 
-112.857 -102.691 58.2457 -113.249 -103.216 58.5 -113.631 -103.76 58.6906 
-112.826 -103.125 51.8601 -112.666 -103.254 52.7639 -113.121 -103.475 52.3931 
-112.702 -103.375 53.792 -113.145 -103.545 53.475 -113.568 -103.823 52.991 
-112.709 -103.567 54.7684 -113.239 -103.699 54.5122 -113.62 -103.999 53.999 
-113.926 -104.455 53.2607 -112.463 -103.979 55.7373 -113.058 -104.097 55.3725 
-113.604 -104.283 54.9189 -113.918 -104.719 54.1501 -114.16 -105.099 53.4561 
-112.302 -104.368 56.7013 -112.707 -104.661 56.1665 -113.296 -104.715 55.7218 
-113.877 -104.995 55.0437 -114.213 -105.364 54.3775 -114.589 -105.305 54.0578 
-112.669 -104.368 57.4555 -112.824 -104.92 56.9616 -113.115 -105.095 56.5593 
-113.707 -105.241 55.9805 -114.284 -105.622 55.257 -114.692 -105.709 54.8238 
-115.274 -105.291 54.6746 -113.323 -104.179 57.9896 -113.433 -104.758 57.6945 
-113.473 -105.181 57.4477 -113.772 -105.415 57.0494 -114.349 -105.695 56.3429 
-114.854 -105.934 55.624 -115.363 -105.799 55.1834 -116.061 -105.418 54.9271 
-113.795 -104.163 58.5543 -113.959 -104.582 58.405 -114.014 -105.058 58.2709 
-114.151 -105.486 58.046 -114.584 -105.73 57.5481 -115.107 -105.824 56.8071 
-115.586 -105.836 56.0687 -116.18 -105.768 55.4957 -116.825 -105.649 55.0808 
-113.953 -104.189 59.3453 -114.131 -104.561 59.2699 -114.16 -104.599 60.2472 
-114.412 -104.967 60.1237 -114.564 -104.901 61.0173 -114.323 -104.916 59.1277 
-114.968 -105.279 60.7452 -115.273 -105.067 61.3857 -114.761 -105.288 59.8037 
-114.529 -105.39 58.9095 -115.83 -105.516 61.0836 -116.195 -105.195 61.453 
-115.54 -105.548 60.3002 -115.274 -105.653 59.4051 -114.946 -105.763 58.562 
-116.834 -105.836 61.2951 -117.309 -105.416 61.4551 -116.49 -105.82 60.7484 
-116.218 -105.776 59.8309 -115.907 -105.818 58.9388 -115.506 -105.773 57.9948 
-117.865 -106.174 61.4106 -118.447 -105.681 61.4863 -117.363 -106.199 61.0775 
-117.027 -106.083 60.2021 -116.751 -106.012 59.1588 -116.422 -105.757 58.3029 
-116.001 -105.645 57.248 -118.87 -106.339 61.4366 -119.432 -105.842 61.5222 
-118.231 -106.423 61.141 -117.733 -106.414 60.3465 -117.38 -106.517 59.207 
-117.123 -106.23 58.3611 -116.884 -105.72 57.5997 -116.547 -105.665 56.4843 
-119.868 -106.36 61.4242 -120.289 -105.853 61.5145 -119.251 -106.484 61.0474 
-118.649 -106.482 60.275 -118.15 -106.701 59.1949 -117.767 -106.693 58.3305 
-117.576 -106.139 57.7761 -117.432 -105.756 56.9144 -117.154 -105.777 55.8093 
-120.722 -106.302 61.3184 -120.948 -105.744 61.3734 -120.281 -106.546 60.9107 
-119.722 -106.54 60.1334 -119.162 -106.577 59.1844 -118.633 -106.583 58.3987 
-118.257 -106.229 57.8851 -118.082 -105.838 57.2172 -117.904 -105.812 56.1821 
-117.617 -105.817 55.248 -113.812 -103.522 59.141 -114.009 -103.898 59.9797 
-114.028 -103.032 59.6489 -114.135 -103.226 60.5112 -114.176 -102.392 60.0824 
-114.233 -104.188 60.8765 -114.318 -102.465 60.8089 -114.261 -101.854 60.3479 
-114.47 -103.378 61.1978 -114.801 -104.378 61.4436 -114.673 -101.908 60.924 
-114.526 -101.321 60.4656 -114.897 -102.585 61.2852 -115.219 -103.56 61.5101 
-115.64 -104.462 61.5759 -115.301 -101.406 60.8704 -115.092 -100.686 60.4457 
-115.53 -102.004 61.2768 -115.818 -102.801 61.4759 -116.193 -103.69 61.532 
-116.712 -104.513 61.5186 -116.009 -100.922 60.63 -115.76 -100.198 60.2974 
-116.226 -101.55 61.0258 -116.495 -102.172 61.3668 -116.902 -102.989 61.4934 
-117.41 -103.779 61.5278 -117.981 -104.684 61.5138 -116.625 -100.524 60.3692 
-116.374 -99.9347 60.0407 -116.853 -101.202 60.6194 -117.132 -101.712 61.0129 
-117.612 -102.35 61.3822 -118.144 -103.144 61.556 -118.63 -103.957 61.5771 
-119.091 -104.933 61.5377 -117.202 -100.133 60.1348 -116.948 -99.7554 59.6454 
-117.479 -100.762 60.3882 -117.78 -101.324 60.669 -118.251 -101.824 61.112 
-118.772 -102.52 61.4762 -119.152 -103.306 61.5775 -119.527 -104.146 61.5224 
-119.954 -105.076 61.5002 -117.759 -99.8161 59.7673 -117.483 -99.6186 59.1386 
-118.098 -100.223 60.2362 -118.446 -100.763 60.5443 -118.843 -101.309 60.8589 
[...]
CELL_DATA 2000
SCALARS Distance double
LOOKUP_TABLE default
163.357 162.928 163.313 163.612 162.472 162.859 163.181 163.549 163.823 
162.032 162.412 162.755 163.137 163.463 163.781 164.042 161.564 161.967 
162.325 162.732 163.095 163.443 163.733 164.013 164.282 161.146 161.511 
161.873 162.284 162.648 163.051 163.372 163.705 163.998 164.294 164.627 
160.916 161.175 161.516 161.85 162.198 162.585 162.933 163.317 163.664 
164.012 164.363 164.683 165.024 160.775 160.986 161.26 161.531 161.851 
162.184 162.541 162.904 163.27 163.647 164.004 164.373 164.69 165.022 
165.289 160.546 160.78 160.974 161.244 161.511 161.848 162.189 162.55 
162.888 163.246 163.55 163.932 164.213 164.602 164.863 165.218 165.472 
160.213 160.473 160.644 160.911 161.146 161.476 161.802 162.178 162.509 
162.858 163.131 163.465 163.72 164.087 164.362 164.75 165.045 165.413 
165.711 163.027 162.297 162.662 162.606 161.545 161.909 161.918 162.25 
162.185 160.903 161.191 161.223 161.585 161.592 161.86 161.766 160.35 
160.583 160.563 160.916 160.948 161.262 161.161 161.398 161.26 159.771 
160.023 159.968 160.276 160.272 160.592 160.476 160.732 160.555 160.847 
160.786 159.135 159.428 159.412 159.701 159.689 159.952 159.848 160.053 
159.894 160.141 160.113 160.467 160.568 158.595 158.835 158.863 159.148 
159.18 159.432 159.393 159.546 159.45 159.594 159.601 159.873 160.025 
160.366 160.503 158.308 158.416 158.43 158.636 158.679 158.937 158.955 
159.159 159.126 159.264 159.266 159.459 159.57 159.864 159.996 160.294 
160.333 158.197 158.23 158.192 158.283 158.267 158.456 158.456 158.698 
158.69 158.915 158.915 159.129 159.173 159.422 159.485 159.765 159.778 
160.047 160 158.121 157.958 158.053 158.091 157.816 157.86 157.861 
157.997 158.081 157.746 157.707 157.607 157.717 157.77 157.998 158.184 
157.716 157.652 157.532 157.526 157.57 157.703 157.898 158.15 158.415 
157.695 157.674 157.716 157.638 157.777 157.714 157.94 157.99 158.276 
158.449 158.724 157.714 157.723 157.886 157.9 158.113 158.068 158.279 
158.214 158.43 158.442 158.679 158.789 159.025 157.871 157.819 157.918 
157.976 158.068 158.191 158.253 158.386 158.443 158.551 158.631 158.746 
158.888 159.056 159.267 158.219 158.063 158.08 157.987 157.912 157.936 
157.821 158.016 157.967 158.262 158.269 158.53 158.578 158.82 158.964 
159.242 159.473 158.648 158.455 158.443 158.223 158.091 157.873 157.695 
157.62 157.569 157.722 157.819 158.072 158.199 158.444 158.6 158.878 
159.11 159.426 159.684 159.729 159.158 159.519 159.729 158.64 158.966 
159.22 159.622 159.972 158.229 158.513 158.799 159.179 159.593 159.984 
160.405 157.856 158.139 158.453 158.829 159.276 159.66 160.11 160.465 
160.869 157.629 157.818 158.157 158.509 158.964 159.354 159.813 160.185 
160.603 160.932 161.314 157.783 157.768 158.09 158.29 158.743 159.065 
159.548 159.906 160.375 160.7 161.107 161.392 161.77 158.214 158.084 
158.314 158.335 158.72 158.927 159.441 159.741 160.283 160.559 161.013 
161.236 161.603 161.852 162.226 158.612 158.515 158.642 158.571 158.799 
158.927 159.388 159.696 160.266 160.554 161.019 161.202 161.541 161.719 
162.062 162.319 162.719 158.866 158.843 158.949 158.846 158.944 158.968 
159.297 159.589 160.119 160.489 160.939 161.182 161.483 161.66 161.969 
162.192 162.587 162.856 163.279 160.064 160.096 160.221 160.541 160.346 
160.364 160.701 160.753 161.091 160.764 160.718 161.074 161.04 161.395 
161.395 161.775 161.212 161.167 161.541 161.494 161.862 161.798 162.149 
162.127 162.485 161.643 161.604 161.972 161.953 162.329 162.285 162.619 
162.548 162.848 162.807 163.104 162.096 162.046 162.398 162.362 162.709 
162.694 163.037 163.006 163.317 163.23 163.501 163.415 163.697 162.574 
162.525 162.9 162.822 163.147 163.069 163.401 163.384 163.753 163.717 
164.033 163.904 164.167 164.046 164.344 163.077 163.025 163.434 163.357 
163.713 163.58 163.913 163.811 164.198 164.157 164.528 164.441 164.72 
164.575 164.842 164.733 165.046 163.61 163.545 163.945 163.887 164.264 
164.167 164.527 164.406 164.789 164.682 165.049 164.936 165.22 165.092 
165.35 165.245 165.542 165.452 165.75 164.038 164.768 164.39 164.363 
165.511 165.13 165.1 164.71 164.67 166.271 165.899 165.879 165.461 
165.432 165.031 164.985 167.048 166.698 166.728 166.281 166.269 165.839 
165.835 165.382 165.307 167.921 167.556 167.669 167.191 167.185 166.71 
166.69 166.245 166.159 165.674 165.521 168.868 168.504 168.634 168.164 
168.129 167.628 167.539 167.077 166.941 166.467 166.257 165.795 165.608 
169.726 169.418 169.481 169.06 168.953 168.492 168.34 167.89 167.727 
167.241 167.03 166.519 166.321 165.871 165.741 170.429 170.189 170.224 
169.823 169.663 169.214 169.023 168.611 168.443 168.009 167.811 167.318 
167.125 166.639 166.512 166.064 165.97 170.92 170.8 170.869 170.532 
170.382 169.914 169.694 169.253 169.052 168.654 168.429 168.019 167.786 
167.385 167.213 166.826 166.696 166.288 166.157 163.977 164.059 164.247 
164.686 163.974 164.237 164.674 164.935 165.398 163.79 164.065 164.474 
164.82 165.328 165.645 166.129 163.678 163.908 164.321 164.611 165.132 
165.501 166.042 166.353 166.844 163.679 163.891 164.364 164.564 165.081 
165.358 165.916 166.231 166.773 167.076 167.645 163.754 163.964 164.476 
164.664 165.16 165.377 165.924 166.186 166.763 167.036 167.653 167.959 
168.598 163.885 164.071 164.571 164.766 165.236 165.442 165.972 166.238 
166.844 167.107 167.718 167.991 168.621 168.922 169.499 164.024 164.191 
164.661 164.854 165.324 165.511 166.026 166.281 166.886 167.184 167.763 
168.035 168.559 168.872 169.402 169.728 170.193 164.137 164.294 164.732 
164.931 165.402 165.601 166.091 166.328 166.868 167.171 167.691 167.985 
168.412 168.714 169.132 169.507 169.945 170.306 170.661 159.033 159.383 
159.206 159.146 159.802 159.581 159.492 159.234 159.135 160.257 160.031 
159.984 159.666 159.608 159.336 159.473 160.741 160.519 160.574 160.264 
160.303 159.965 160.137 159.918 160.272 161.334 161.074 161.202 160.925 
161.056 160.744 160.898 160.63 160.876 160.738 161.035 162.015 161.73 
161.831 161.564 161.683 161.452 161.592 161.35 161.499 161.293 161.49 
161.371 161.576 162.658 162.393 162.427 162.15 162.177 161.976 162.097 
161.944 162.126 161.923 162.13 161.903 162.138 161.931 162.146 163.229 
162.986 163.019 162.724 162.733 162.462 162.568 162.404 162.637 162.513 
162.787 162.607 162.88 162.638 162.894 162.61 162.826 163.78 163.547 
163.634 163.349 163.432 163.11 163.246 162.974 163.199 163.026 163.293 
163.179 163.446 163.326 163.58 163.389 163.605 163.327 163.511 158.904 
158.757 158.963 159.269 158.718 158.828 159.125 159.36 159.695 158.839 
158.859 159.065 159.221 159.584 159.823 160.156 158.979 159.023 159.223 
159.246 159.557 159.74 160.133 160.31 160.634 159.133 159.203 159.495 
159.471 159.749 159.813 160.196 160.334 160.711 160.834 161.202 159.365 
159.421 159.756 159.76 160.053 160.066 160.415 160.481 160.853 160.945 
161.335 161.469 161.886 159.61 159.658 159.97 160.012 160.325 160.362 
160.717 160.757 161.124 161.154 161.531 161.62 162.049 162.181 162.575 
159.901 159.901 160.209 160.23 160.553 160.606 160.98 161.054 161.446 
161.476 161.85 161.875 162.281 162.367 162.78 162.856 163.182 160.311 
160.25 160.566 160.524 160.841 160.848 161.21 161.289 161.692 161.775 
162.156 162.2 162.572 162.628 163.016 163.083 163.431 163.454 163.734 
160.672 161.271 160.959 160.913 161.893 161.563 161.541 161.202 161.171 
162.656 162.249 162.246 161.868 161.855 161.497 161.529 163.45 163.038 
163.011 162.626 162.638 162.245 162.277 161.919 162.003 164.11 163.748 
163.693 163.368 163.402 163.057 163.09 162.702 162.742 162.4 162.47 
164.747 164.376 164.322 164 164.05 163.777 163.838 163.496 163.498 
163.132 163.163 162.842 162.9 165.378 165.045 165.001 164.649 164.669 
164.392 164.466 164.186 164.203 163.858 163.866 163.537 163.601 163.284 
163.344 165.847 165.628 165.606 165.312 165.295 165.003 165.047 164.787 
164.843 164.54 164.574 164.245 164.307 163.991 164.055 163.724 163.745 
166.2 166.038 166.063 165.85 165.855 165.593 165.626 165.372 165.456 
165.188 165.271 164.96 165.031 164.707 164.764 164.427 164.434 164.082 
164.048 166.433 166.844 166.524 166.316 167.285 166.957 166.714 166.393 
166.145 167.651 167.358 167.124 166.809 166.561 166.219 165.962 168.059 
167.728 167.529 167.218 167.026 166.685 166.458 166.078 165.827 168.643 
168.251 168.084 167.692 167.523 167.167 166.968 166.6 166.343 165.951 
165.663 169.274 168.915 168.773 168.333 168.106 167.688 167.437 167.072 
166.797 166.436 166.125 165.745 165.425 169.828 169.512 169.338 168.958 
168.652 168.241 167.9 167.514 167.19 166.837 166.513 166.162 165.819 
165.462 165.125 170.322 169.996 169.717 169.374 169.002 168.66 168.279 
167.93 167.559 167.205 166.837 166.499 166.124 165.795 165.413 165.1 
164.744 170.683 170.388 170.005 169.66 169.225 168.911 168.516 168.226 
167.829 167.51 167.07 166.751 166.312 166.024 165.603 165.32 164.92 
164.657 164.313 166.599 167.066 166.881 167.034 167.575 167.382 167.515 
167.352 167.491 167.977 167.837 167.942 167.814 167.95 167.79 167.878 
168.305 168.179 168.284 168.188 168.373 168.264 168.418 168.192 168.297 
168.657 168.518 168.626 168.519 168.767 168.718 168.989 168.798 168.927 
168.651 168.805 168.921 168.845 168.928 168.849 169.112 169.138 169.512 
169.413 169.564 169.27 169.316 169.127 169.324 168.945 168.986 169.047 
169.065 169.329 169.455 169.919 169.95 170.184 169.897 169.863 169.576 
169.685 169.622 169.888 168.787 168.904 168.995 169.097 169.384 169.598 
170.12 170.315 170.675 170.513 170.502 170.139 170.168 170 170.286 
170.237 170.502 168.62 168.753 168.918 169.042 169.33 169.569 170.033 
170.37 170.76 170.87 170.92 170.715 170.673 170.49 170.686 170.649 
170.936 170.838 170.953 166.462 166.471 166.598 166.921 166.474 166.628 
166.94 167.105 167.444 166.263 166.546 166.845 167.085 167.402 167.594 
167.866 165.811 166.211 166.564 166.915 167.259 167.505 167.784 167.952 
168.189 165.292 165.714 166.189 166.639 167.154 167.422 167.743 167.858 
168.091 168.254 168.51 164.838 165.214 165.704 166.258 166.921 167.367 
167.77 167.877 168 168.099 168.299 168.548 168.772 164.476 164.79 
165.157 165.694 166.26 166.933 167.345 167.737 167.768 167.924 167.957 
168.234 168.443 168.732 168.841 164.141 164.446 164.733 165.13 165.503 
166.095 166.417 166.994 167.073 167.456 167.481 167.827 168.016 168.355 
168.514 168.71 168.698 163.738 164.094 164.401 164.736 165.047 165.416 
165.672 166.081 166.244 166.66 166.854 167.293 167.595 167.972 168.191 
168.393 168.405 168.514 168.47 163.571 163.596 163.84 164.315 163.588 
163.899 164.443 164.615 165.011 163.412 163.833 164.421 164.72 165.137 
165.257 165.548 163.183 163.599 164.191 164.591 165.059 165.306 165.601 
165.723 166.011 163.176 163.458 164.037 164.354 164.858 165.162 165.599 
165.791 166.191 166.288 166.716 163.337 163.557 164.131 164.33 164.829 
165.041 165.564 165.819 166.399 166.579 167.12 167.158 167.598 163.446 
163.687 164.219 164.443 164.917 165.104 165.59 165.837 166.409 166.716 
167.249 167.472 167.826 167.913 168.128 163.505 163.725 164.171 164.425 
164.843 165.111 165.545 165.837 166.304 166.629 167.037 167.349 167.592 
167.845 167.951 168.146 168.221 163.549 163.738 164.095 164.308 164.641 
164.921 165.305 165.66 166.082 166.434 166.783 167.062 167.286 167.505 
167.657 167.851 167.991 168.166 168.307 163.668 163.917 163.929 164.167 
164.116 164.146 164.396 164.404 164.665 164.325 164.356 164.64 164.649 
164.949 164.958 165.317 164.588 164.602 164.937 164.943 165.287 165.284 
165.67 165.695 166.105 164.968 164.942 165.332 165.314 165.696 165.663 
166.046 166.056 166.454 166.477 166.804 165.358 165.358 165.765 165.765 
166.173 166.123 166.501 166.457 166.862 166.849 167.186 167.118 167.322 
165.609 165.677 166.052 166.14 166.549 166.581 166.952 166.922 167.329 
167.312 167.73 167.617 167.856 167.629 167.746 165.808 165.875 166.228 
166.338 166.746 166.868 167.256 167.308 167.669 167.72 168.141 168.168 
168.494 168.295 168.392 168.07 168.122 166.066 166.104 166.453 166.512 
166.906 167.03 167.46 167.563 167.918 167.972 168.292 168.41 168.737 
168.794 168.948 168.745 168.719 168.418 168.427 168.637 168.94 168.848 
168.996 169.104 169.122 169.242 169.209 169.418 168.857 169.07 169.167 
169.321 169.553 169.684 170.059 168.504 168.744 168.9 169.111 169.348 
169.636 170.03 170.322 170.686 168.217 168.484 168.745 168.921 169.166 
169.381 169.713 170.072 170.426 170.747 170.87 167.741 168.144 168.407 
168.74 168.961 169.21 169.443 169.73 170.044 170.381 170.636 170.804 
170.812 167.167 167.573 167.787 168.218 168.406 168.816 169.011 169.389 
169.66 170.028 170.363 170.635 170.881 170.89 170.947 166.73 167.049 
167.269 167.601 167.798 168.173 168.402 168.831 169.113 169.564 169.881 
170.312 170.62 170.917 171.109 171.131 171.156 166.344 166.658 166.88 
167.172 167.375 167.67 167.909 168.267 168.554 168.972 169.245 169.704 
169.952 170.437 170.647 171.022 171.094 171.207 171.101 158.218 158.312 
158.256 158.249 158.583 158.409 158.427 158.324 158.353 159.159 158.847 
158.895 158.649 158.778 158.586 158.731 159.889 159.569 159.664 159.302 
159.459 159.18 159.435 159.178 159.417 160.534 160.325 160.486 160.145 
160.222 159.898 160.087 159.902 160.183 159.955 160.187 161.047 160.91 
161.11 160.895 160.922 160.59 160.599 160.42 160.636 160.583 160.843 
160.674 160.875 161.626 161.416 161.598 161.429 161.502 161.209 161.167 
160.888 161.021 160.947 161.267 161.215 161.483 161.312 161.536 162.379 
162.072 162.238 161.974 162.121 161.818 161.887 161.529 161.672 161.443 
161.795 161.693 162.079 161.921 162.212 161.998 162.276 163.14 162.856 
163.032 162.721 162.915 162.58 162.761 162.372 162.567 162.225 162.56 
162.359 162.795 162.617 162.989 162.742 163.038 162.786 163.075 158.132 
158.156 158.077 157.847 158.226 158.104 157.894 157.716 157.376 158.509 
158.237 158.079 157.858 157.612 157.308 157.091 159.104 158.643 158.478 
158.186 158.12 157.767 157.648 157.277 157.354 159.887 159.342 159.138 
158.735 158.753 158.43 158.456 158.028 158.043 157.741 157.986 160.664 
160.164 159.986 159.505 159.491 159.142 159.222 158.859 158.869 158.481 
158.549 158.357 158.583 161.395 160.961 160.866 160.392 160.346 159.926 
159.957 159.603 159.647 159.275 159.322 158.984 159.119 158.91 159.102 
162.16 161.741 161.708 161.267 161.225 160.778 160.755 160.354 160.391 
160.038 160.139 159.794 159.941 159.603 159.78 159.488 159.667 162.959 
162.554 162.542 162.114 162.079 161.631 161.592 161.162 161.178 160.808 
160.901 160.584 160.723 160.424 160.57 160.264 160.407 160.103 160.249 
158.068 157.763 157.928 157.887 157.277 157.532 157.619 157.808 157.835 
156.986 157.103 157.326 157.587 157.85 157.909 157.929 157.275 157.093 
157.309 157.425 157.794 157.958 158.107 158.019 157.9 157.968 157.645 
157.708 157.555 157.679 157.802 157.89 158.031 157.915 157.872 157.709 
158.574 158.33 158.277 157.979 157.751 157.604 157.445 157.608 157.575 
157.741 157.67 157.682 157.658 159.004 158.802 158.739 158.458 158.169 
157.76 157.471 157.303 157.377 157.486 157.701 157.72 157.821 157.748 
157.856 159.477 159.199 159.143 158.884 158.76 158.326 158.157 157.711 
157.825 157.661 158.027 157.959 158.196 158.039 158.151 158.04 158.211 
160.038 159.702 159.626 159.345 159.329 159.003 158.99 158.578 158.665 
158.358 158.602 158.436 158.629 158.456 158.526 158.377 158.498 158.443 
158.643 166.223 165.888 166.102 166.214 165.439 165.729 165.819 166.09 
166.194 164.833 165.192 165.255 165.592 165.643 165.974 165.971 164.215 
164.568 164.606 164.934 164.92 165.292 165.267 165.615 165.508 163.515 
163.918 163.932 164.266 164.192 164.518 164.462 164.84 164.786 165.105 
164.988 162.633 163.079 163.036 163.484 163.396 163.769 163.666 164.033 
163.991 164.366 164.324 164.626 164.555 161.834 162.166 162.071 162.494 
162.424 162.877 162.794 163.21 163.126 163.541 163.503 163.912 163.889 
164.229 164.197 161.236 161.469 161.373 161.643 161.574 161.932 161.882 
162.291 162.211 162.631 162.555 163.013 162.992 163.459 163.452 163.85 
163.824 160.647 160.899 160.805 161.046 160.954 161.212 161.127 161.438 
161.351 161.714 161.635 162.056 162.028 162.507 162.518 162.996 162.985 
163.414 163.376 
POINT_DATA 1002
SCALARS Distance double
LOOKUP_TABLE default
163.688 163.39 162.993 163.259 162.533 163.89 162.785 162.099 163.501 
164.081 162.355 161.645 163.125 163.764 164.283 161.904 161.144 162.719 
163.442 163.994 164.57 161.485 160.811 162.232 162.995 163.681 164.32 
164.993 161.23 160.709 161.835 162.53 163.276 164.035 164.737 165.343 
161.021 160.597 161.531 162.19 162.906 163.63 164.348 164.986 165.538 
160.723 160.32 161.18 161.824 162.556 163.203 163.82 164.474 165.131 
165.749 160.377 159.941 160.832 161.427 162.156 162.817 163.375 163.969 
164.645 165.359 166.026 162.701 162.293 161.898 161.536 161.201 161.926 
160.838 160.673 161.296 161.556 160.238 160.141 160.614 160.936 160.993 
159.692 159.482 159.976 160.227 160.268 160.405 159.111 158.816 159.436 
159.655 159.665 159.75 160.186 158.58 158.39 158.9 159.205 159.32 
159.368 159.685 160.205 158.281 158.254 158.432 158.707 158.955 159.107 
159.324 159.703 160.082 158.156 158.181 158.139 158.23 158.433 158.684 
158.956 159.241 159.511 159.74 158.026 157.978 157.872 157.732 157.845 
157.876 157.545 157.85 157.546 157.89 157.563 157.736 157.49 157.675 
158.13 157.724 157.625 157.864 157.98 158.168 158.534 157.822 157.697 
158.114 158.362 158.497 158.627 158.88 157.941 157.978 157.995 158.099 
158.301 158.533 158.735 159.05 158.272 158.408 158.029 157.716 157.65 
157.953 158.324 158.677 159.168 158.688 158.85 158.37 157.877 157.495 
157.563 157.942 158.334 158.79 159.372 159.873 159.313 160.002 158.795 
159.553 160.361 158.412 159.19 160.039 160.816 158.063 158.887 159.753 
160.541 161.25 157.831 158.582 159.426 160.262 161.007 161.687 157.981 
158.46 159.188 160.032 160.831 161.484 162.14 158.397 158.567 159.135 
160.003 160.816 161.395 161.932 162.605 158.781 158.751 159.08 159.951 
160.846 161.398 161.832 162.421 163.132 159.061 159.008 159.075 159.737 
160.67 161.302 161.75 162.324 163.016 163.69 160.414 160.677 161.015 
161.117 161.429 161.743 161.571 161.937 162.222 162.484 161.992 162.354 
162.698 162.939 163.122 162.461 162.742 163.031 163.383 163.631 163.749 
162.976 163.262 163.435 163.739 164.137 164.332 164.42 163.494 163.833 
164.044 164.261 164.595 164.854 164.974 165.134 164.009 164.334 164.626 
164.913 165.193 165.36 165.449 165.627 165.865 164.416 164.746 165.142 
165.503 165.89 165.052 166.306 166.616 165.83 165.416 167.171 167.356 
166.708 166.271 165.817 168.141 168.265 167.696 167.152 166.648 166.012 
169.107 169.232 168.655 168.036 167.432 166.744 166.017 169.917 170.031 
169.419 168.785 168.203 167.549 166.799 166.15 170.621 170.635 170.133 
169.438 168.849 168.278 167.606 166.971 166.418 171.145 170.98 170.842 
170.173 169.474 168.836 168.175 167.58 167.09 166.582 163.826 164.501 
163.852 164.361 163.713 165.164 164.123 163.535 164.939 165.882 164.067 
163.433 164.774 165.684 166.561 164.175 163.431 164.852 165.617 166.448 
167.313 164.286 163.547 164.967 165.662 166.494 167.348 168.3 164.381 
163.726 165.046 165.697 166.559 167.481 168.328 169.237 164.466 163.88 
165.136 165.792 166.589 167.513 168.296 169.053 169.916 164.537 163.995 
165.193 165.878 166.604 167.413 168.148 168.793 169.552 170.37 159.189 
159.37 159.591 159.783 160.034 159.325 160.279 160.459 159.891 159.609 
160.82 160.946 160.624 160.396 160.409 161.456 161.601 161.333 161.213 
161.086 161.135 162.133 162.312 161.906 161.813 161.753 161.66 161.677 
162.736 162.927 162.414 162.212 162.269 162.358 162.373 162.366 163.297 
163.465 163.024 162.76 162.733 162.913 163.091 163.177 163.139 158.673 
159.027 158.573 158.887 158.696 159.463 158.994 158.829 159.316 159.975 
159.25 158.862 159.428 159.929 160.497 159.5 159.039 159.737 160.083 
160.577 161.061 159.725 159.33 160.044 160.379 160.785 161.199 161.746 
159.92 159.581 160.268 160.666 161.109 161.478 161.917 162.486 160.204 
159.919 160.505 160.887 161.389 161.843 162.23 162.699 163.157 160.628 
160.386 160.865 161.153 161.592 162.096 162.53 162.956 163.395 163.743 