# vtk DataFile Version 4.0
vtk output
ASCII
DATASET POLYDATA
POINTS 1002 float
-119.584 -100.694 48.4615 -119.802 -100.506 47.884 -119.241 -100.313 48.1041 
-119.009 -100.638 48.6935 -118.531 -100.315 48.2662 -119.179 -101.142 48.9216 
-118.249 -100.653 48.8588 -117.697 -100.21 48.544 -118.534 -101.141 49.1608 
-118.655 -101.699 49.3494 -117.353 -100.491 49.113 -116.755 -100.079 48.7764 
-117.849 -100.923 49.5121 -117.977 -101.545 49.7311 -118.193 -101.96 50.1543 
-116.374 -100.437 49.3238 -115.766 -100.163 48.9114 -117.161 -100.572 49.9946 
-117.52 -101.043 50.3985 -117.592 -101.69 50.6912 -117.998 -101.937 51.354 
-115.454 -100.535 49.5966 -115.027 -100.122 49.3656 -116.328 -100.544 50.3484 
-117.096 -100.604 51.1214 -117.257 -101.193 51.4427 -117.461 -101.759 51.8485 
-118.023 -101.958 52.4995 -114.84 -100.347 50.2132 -114.665 -99.7452 50.1423 
-115.426 -100.617 50.6947 -116.37 -100.524 51.6183 -116.867 -100.751 52.2173 
-116.987 -101.39 52.4755 -117.434 -101.819 52.9491 -118.004 -102.029 53.4905 
-114.396 -100.03 50.8883 -114.296 -99.4355 50.7292 -114.69 -100.483 51.2188 
-115.477 -100.516 52.0267 -116.266 -100.504 52.8634 -116.527 -100.954 53.2093 
-116.803 -101.519 53.5045 -117.395 -101.825 54.0278 -117.857 -102.077 54.4745 
-113.806 -99.9234 51.2688 -113.682 -99.3497 51.0032 -114.034 -100.39 51.674 
-114.635 -100.489 52.4075 -115.508 -100.429 53.3147 -116.033 -100.735 53.8267 
-116.268 -101.297 54.0514 -116.76 -101.655 54.5121 -117.345 -101.866 55.0701 
-117.677 -102.167 55.4178 -113.16 -99.8527 51.4937 -113.045 -99.2638 51.2139 
-113.394 -100.356 51.9475 -113.879 -100.513 52.6375 -114.657 -100.467 53.5146 
-115.314 -100.757 54.1504 -115.637 -101.359 54.3997 -116.079 -101.719 54.7858 
-116.755 -101.802 55.4555 -117.264 -101.97 55.9932 -117.51 -102.295 56.2518 
-119.459 -100.204 47.4378 -118.758 -100.084 47.5626 -118.853 -99.9074 46.9559 
-118.161 -99.7603 47.1661 -118.307 -99.449 46.6071 -118.049 -99.9321 47.9232 
-117.791 -99.1263 46.9978 -118.08 -98.5666 46.475 -117.663 -99.3471 47.8095 
-117.336 -99.6222 48.429 -117.665 -98.1081 46.9565 -118.017 -97.3888 46.4946 
-117.435 -98.5947 47.6775 -117.085 -98.9523 48.3293 -116.418 -99.5306 48.6207 
-117.557 -97.0834 46.9741 -117.927 -96.5285 46.4526 -117.205 -97.7385 47.4993 
-116.738 -98.3455 47.9733 -116.043 -98.9855 48.3355 -115.384 -99.6559 48.7476 
-117.366 -96.4438 46.8601 -117.834 -96.0186 46.2813 -116.932 -96.9527 47.4111 
-116.401 -97.6443 47.7416 -115.614 -98.4179 47.9765 -114.963 -99.0725 48.503 
-114.741 -99.4802 49.3452 -117.076 -95.8883 46.5675 -117.713 -95.3555 46.1856 
-116.538 -96.3179 47.113 -116.165 -96.8626 47.6696 -115.504 -97.6396 47.9892 
-114.731 -98.3778 48.377 -114.445 -98.8277 49.1909 -114.453 -99.0933 50.1022 
-116.779 -95.1886 46.4026 -117.512 -94.6093 46.2638 -116.068 -95.6688 46.6544 
-115.785 -96.1472 47.308 -115.487 -96.8245 48.0449 -114.815 -97.5658 48.549 
-114.324 -98.1163 49.1534 -114.201 -98.4938 49.9574 -114.024 -98.8717 50.5973 
-116.634 -94.6378 46.5253 -117.289 -94.1239 46.4203 -115.85 -95.0851 46.5346 
-115.436 -95.5229 46.9613 -115.261 -96.1391 47.8364 -114.795 -96.8384 48.606 
-114.261 -97.3734 49.2035 -114.019 -97.8051 49.912 -113.79 -98.2756 50.5426 
-113.401 -98.7743 50.9123 -116.839 -94.159 46.7828 -116.157 -94.6306 46.8526 
-116.528 -94.1908 47.2614 -115.927 -94.595 47.5137 -116.146 -94.0626 47.814 
-115.527 -94.9759 47.0393 -115.547 -94.4166 48.3531 -115.445 -93.8503 48.3194 
-115.396 -94.9255 48.0799 -115.161 -95.4827 47.7314 -114.855 -94.2557 49.0635 
-114.737 -93.7221 48.9657 -114.973 -94.9578 49.1281 -114.761 -95.6042 48.7713 
-114.652 -96.214 48.5356 -114.234 -94.2595 49.7962 -114.301 -93.7661 49.9838 
-114.315 -95.0982 49.8323 -114.115 -95.8166 49.5228 -113.866 -96.2891 49.1148 
-114.008 -96.7629 49.1217 -113.728 -94.3646 50.6388 -113.901 -94.0218 51.0465 
-113.698 -95.1438 50.4454 -113.468 -95.8846 50.1153 -113.169 -96.2635 49.6246 
-113.288 -96.5786 49.5905 -113.711 -97.1272 49.8595 -113.203 -94.4556 51.4399 
-113.495 -94.3078 51.9163 -113.114 -95.0159 51.0604 -112.903 -95.6653 50.7764 
-112.602 -96.077 50.3707 -112.674 -96.428 50.215 -113.119 -96.9703 50.4836 
-113.518 -97.6532 50.6369 -112.837 -94.4237 52.3971 -113.287 -94.386 52.8126 
-112.663 -94.8615 51.866 -112.507 -95.4343 51.5034 -112.205 -95.8613 51.2204 
-112.118 -96.3465 50.9633 -112.45 -97.0109 50.9956 -112.844 -97.6801 51.1312 
-113.109 -98.2748 51.0522 -112.74 -94.3476 53.5308 -113.29 -94.3621 53.7392 
-112.452 -94.7709 53.0247 -112.331 -95.3996 52.498 -112.098 -95.8453 52.145 
-111.831 -96.3167 51.8101 -111.896 -97.0778 51.5318 -112.223 -97.8062 51.4667 
-112.493 -98.3242 51.4292 -112.719 -98.7984 51.3002 -112.633 -99.4231 51.7007 
-112.371 -98.9079 51.827 -112.441 -99.5068 52.4898 -112.132 -98.4989 51.9414 
-112.188 -99.0639 52.7108 -112.294 -99.6707 53.4786 -111.813 -97.9755 52.08 
-111.869 -98.7157 52.9162 -111.984 -99.3746 53.813 -112.16 -99.9446 54.5096 
-111.63 -97.1163 52.4352 -111.573 -98.0576 53.2411 -111.724 -98.9511 54.1388 
-111.959 -99.6447 54.8685 -112.288 -100.077 55.6166 -111.836 -96.3953 52.8898 
-111.612 -97.1536 53.6763 -111.641 -98.1252 54.4846 -111.972 -99.0448 55.2029 
-112.28 -99.6352 55.9442 -112.616 -100.001 56.7618 -112.15 -96.0013 53.2748 
-111.956 -96.6276 53.9789 -111.84 -97.3294 54.6836 -112.045 -98.1928 55.4652 
-112.357 -98.9414 56.2809 -112.551 -99.4921 57.1026 -112.941 -99.9217 57.7019 
-112.313 -95.4123 53.7691 -112.273 -96.2582 54.265 -112.241 -96.9509 54.7177 
-112.262 -97.5391 55.5483 -112.381 -98.1559 56.5577 -112.495 -98.7875 57.4114 
-112.748 -99.4156 58.0393 -113.342 -99.8897 58.4081 -112.547 -94.7291 54.2857 
-112.564 -95.6397 54.6491 -112.711 -96.6186 54.8028 -112.753 -97.2248 55.4901 
-112.663 -97.6098 56.6519 -112.64 -98.089 57.5639 -112.796 -98.7493 58.1627 
-113.188 -99.3957 58.6685 -113.779 -99.8295 59.0756 -113.042 -94.472 54.4917 
-113.008 -95.158 54.8592 -113.206 -96.2114 54.8946 -113.353 -97.0031 55.3665 
-113.219 -97.3602 56.517 -113.1 -97.667 57.5161 -113.237 -98.1943 58.0557 
-113.47 -98.841 58.6025 -113.727 -99.3706 59.2434 -114.071 -99.734 59.7564 
-112.811 -100.031 52.124 -112.665 -100.061 52.9973 -113.169 -100.423 52.7088 
-112.596 -100.156 54.0216 -113.135 -100.38 53.6233 -113.8 -100.492 53.5038 
-112.659 -100.338 55.2389 -113.243 -100.512 54.7871 -113.771 -100.674 54.428 
-114.454 -100.781 54.2714 -112.928 -100.367 56.5078 -113.493 -100.684 56.1535 
-113.863 -101.039 55.6067 -114.127 -101.406 55.0251 -114.803 -101.52 54.6468 
-113.302 -100.269 57.4386 -113.807 -100.632 57.1816 -114.141 -101.14 56.7687 
-114.121 -101.73 56.0659 -114.399 -102.08 55.3783 -115.246 -101.988 55.0075 
-113.77 -100.215 58.1081 -114.18 -100.527 57.8306 -114.456 -101.03 57.6042 
-114.5 -101.652 57.1772 -114.594 -102.067 56.5508 -115.203 -102.111 56.0605 
-116.083 -101.938 55.7724 -114.216 -100.189 58.8666 -114.581 -100.544 58.6366 
-114.72 -101.062 58.526 -114.805 -101.704 58.3213 -115.005 -102.117 57.8482 
-115.461 -102.139 57.333 -116.166 -102.006 56.9367 -116.823 -101.94 56.5261 
-114.442 -100.139 59.689 -114.819 -100.608 59.5837 -114.938 -101.198 59.5963 
-114.96 -101.877 59.5458 -115.181 -102.396 59.1305 -115.601 -102.515 58.4983 
-116.145 -102.35 57.9633 -116.72 -102.212 57.4852 -117.184 -102.217 56.9096 
-114.421 -99.9064 60.403 -114.824 -100.477 60.3748 -114.961 -100.217 60.9104 
-115.375 -100.964 60.9216 -115.861 -100.581 61.4032 -115.128 -101.168 60.4023 
-116.241 -101.326 61.4562 -116.664 -100.804 62.1717 -115.729 -101.679 60.9286 
-115.237 -101.854 60.4833 -116.991 -101.554 62.2703 -117.13 -100.971 62.9213 
-116.723 -101.911 61.4019 -116.043 -102.132 60.9148 -115.411 -102.414 60.2592 
-117.552 -101.926 62.9916 -117.955 -101.242 63.1688 -117.504 -102.302 62.2758 
-117.148 -102.268 61.4447 -116.331 -102.491 60.613 -115.755 -102.758 59.5857 
-118.423 -102.242 63.1335 -119.251 -101.513 63.1334 -117.955 -102.883 62.9279 
-117.816 -102.901 62.3018 -117.35 -102.701 61.231 -116.584 -102.834 59.9541 
-116.183 -102.783 58.8493 -119.459 -102.285 62.9501 -120.193 -101.733 63.0519 
-118.607 -102.991 62.8082 -118.163 -103.468 62.5123 -118.021 -103.315 61.7765 
-117.566 -102.999 60.5521 -116.941 -102.875 59.2431 -116.686 -102.614 58.2522 
-120.177 -102.311 62.6829 -120.537 -101.906 62.6927 -119.508 -102.773 62.4361 
-118.834 -103.384 62.0474 -118.538 -103.648 61.5623 -118.384 -103.275 60.8466 
-117.926 -102.864 59.7533 -117.393 -102.715 58.5564 -117.175 -102.522 57.6217 
-120.57 -102.359 62.1802 -120.697 -101.905 61.9667 -120.295 -102.716 62.1001 
-119.81 -103.167 61.6898 -119.305 -103.562 61.145 -118.992 -103.423 60.6568 
-118.714 -102.92 59.992 -118.257 -102.681 58.9262 -117.79 -102.686 57.7761 
-117.556 -102.567 56.8964 -114.137 -99.4077 60.0918 -114.476 -99.5464 60.7182 
-114.398 -99.0167 60.3153 -114.824 -99.1304 60.8083 -114.698 -98.4589 60.4974 
-115.314 -99.8361 61.0748 -115.315 -98.5953 60.7739 -114.994 -97.7626 60.6321 
-115.968 -99.5197 60.8974 -116.449 -100.197 61.544 -115.893 -98.0047 60.768 
-115.549 -97.2787 60.5065 -116.64 -99.1583 60.6751 -117.139 -100.04 61.1906 
-117.089 -100.423 62.2889 -116.645 -97.611 60.6277 -116.363 -97.114 60.0842 
-117.241 -98.5965 60.7617 -117.739 -99.7746 60.8972 -117.705 -100.335 61.7499 
-117.633 -100.568 62.7623 -117.387 -97.3791 60.2451 -117.131 -96.91 59.6842 
-117.794 -98.0414 60.7395 -118.207 -99.075 60.9817 -118.383 -100.024 61.3471 
-118.516 -100.401 62.1825 -118.892 -100.771 62.9177 -117.967 -97.0704 59.8584 
-117.767 -96.6211 59.35 -118.256 -97.6442 60.3396 -118.569 -98.3683 60.7908 
-118.856 -99.2991 61.1454 -119.224 -100.023 61.7271 -119.726 -100.445 62.5489 
-120.122 -101.024 63.0497 -118.472 -96.7812 59.4591 -118.301 -96.5255 58.8153 
-118.733 -97.2517 59.9291 -119.011 -97.8739 60.315 -119.242 -98.6314 60.6948 
-119.55 -99.4249 61.1732 -120.005 -100.007 61.9114 -120.416 -100.551 62.6073 
-120.579 -101.259 62.8457 -118.929 -96.6801 58.8747 -118.728 -96.5948 58.118 
-119.255 -96.8851 59.5532 -119.63 -97.3554 60.0047 -119.859 -98.0371 60.3085 
[...]
CELL_DATA 2000
SCALARS Distance double
LOOKUP_TABLE default
162.432 161.992 162.345 162.581 161.474 161.896 162.156 162.488 162.686 
160.822 161.31 161.591 162.016 162.222 162.561 162.748 160.158 160.629 
160.952 161.427 161.713 162.083 162.301 162.627 162.88 159.64 160.024 
160.385 160.843 161.237 161.631 161.933 162.232 162.517 162.839 163.188 
159.294 159.591 159.927 160.337 160.765 161.207 161.575 161.907 162.187 
162.498 162.83 163.197 163.558 159.018 159.283 159.556 159.903 160.282 
160.733 161.141 161.542 161.839 162.152 162.435 162.801 163.156 163.546 
163.866 158.671 158.97 159.207 159.528 159.843 160.25 160.659 161.099 
161.473 161.812 162.106 162.416 162.759 163.133 163.506 163.849 164.14 
158.246 158.57 158.813 159.151 159.439 159.81 160.174 160.616 161.024 
161.441 161.783 162.11 162.431 162.77 163.146 163.508 163.858 164.147 
164.407 162.2 161.538 161.828 161.706 160.771 161.104 161.007 161.319 
161.185 160.024 160.355 160.295 160.614 160.509 160.768 160.57 159.278 
159.626 159.591 159.929 159.853 160.114 159.931 160.129 159.91 158.591 
158.896 158.866 159.214 159.137 159.439 159.246 159.478 159.254 159.489 
159.354 158.06 158.275 158.21 158.497 158.404 158.697 158.496 158.745 
158.518 158.797 158.689 159.01 159 157.533 157.732 157.555 157.819 
157.689 157.988 157.838 158.053 157.864 158.08 158.007 158.337 158.384 
158.726 158.755 156.938 157.117 156.82 157.059 156.868 157.235 157.174 
157.479 157.383 157.553 157.485 157.722 157.782 158.114 158.17 158.469 
158.433 156.475 156.56 156.272 156.353 156.145 156.421 156.437 156.823 
156.854 157.11 157.045 157.25 157.249 157.544 157.594 157.888 157.856 
158.102 158.017 156.269 156.091 156.133 156.05 156.006 156.026 155.915 
155.897 155.91 155.735 155.92 155.936 155.91 155.924 155.941 156.192 
155.31 155.585 155.775 155.941 156.031 156.039 156.166 156.301 156.577 
155.114 155.25 155.515 155.766 155.949 156.049 156.049 156.157 156.248 
156.532 156.744 155.181 155.175 155.355 155.559 155.736 155.876 155.814 
155.887 155.851 156.103 156.315 156.672 156.971 155.282 155.21 155.222 
155.372 155.451 155.611 155.53 155.593 155.524 155.708 155.933 156.287 
156.675 157.001 157.329 155.414 155.255 155.16 155.199 155.237 155.338 
155.31 155.341 155.312 155.432 155.655 155.971 156.368 156.717 157.044 
157.33 157.563 155.669 155.421 155.322 155.22 155.307 155.285 155.381 
155.304 155.356 155.334 155.544 155.745 156.126 156.433 156.761 157.024 
157.244 157.498 157.705 157.743 157.285 157.576 157.787 156.85 157.153 
157.375 157.718 158.041 156.293 156.688 156.952 157.337 157.692 158.054 
158.432 155.748 156.116 156.432 156.873 157.285 157.719 158.155 158.506 
158.929 155.563 155.744 156.073 156.393 156.835 157.286 157.808 158.242 
158.721 159.057 159.504 155.609 155.738 156.07 156.224 156.621 156.912 
157.434 157.879 158.424 158.832 159.282 159.618 160.039 155.549 155.755 
156.116 156.302 156.683 156.848 157.288 157.583 158.098 158.494 158.951 
159.331 159.728 160.101 160.523 155.528 155.668 156.056 156.298 156.757 
156.955 157.407 157.575 158.035 158.263 158.703 158.995 159.405 159.76 
160.198 160.589 161.039 155.819 155.777 156.158 156.297 156.824 157.042 
157.589 157.757 158.227 158.338 158.75 158.886 159.308 159.535 160.008 
160.316 160.792 161.124 161.531 158.088 158.158 158.291 158.692 158.393 
158.44 158.827 158.946 159.354 158.762 158.735 159.097 159.142 159.555 
159.649 160.098 159.279 159.186 159.589 159.527 159.956 159.939 160.406 
160.47 160.954 159.873 159.776 160.246 160.152 160.622 160.488 160.908 
160.843 161.286 161.333 161.746 160.415 160.363 160.821 160.801 161.275 
161.19 161.544 161.396 161.712 161.668 162.05 162.081 162.439 160.934 
160.888 161.317 161.302 161.748 161.741 162.113 162.001 162.275 162.133 
162.465 162.426 162.836 162.818 163.185 161.466 161.426 161.878 161.815 
162.261 162.209 162.656 162.567 162.949 162.768 163.112 162.95 163.35 
163.275 163.674 163.603 163.913 161.909 161.928 162.392 162.38 162.844 
162.787 163.258 163.179 163.634 163.492 163.866 163.667 163.995 163.84 
164.168 164.077 164.357 164.265 164.469 162.237 162.927 162.64 162.776 
163.819 163.429 163.6 163.234 163.313 164.834 164.411 164.545 164.124 
164.221 163.775 163.778 165.721 165.403 165.546 165.112 165.164 164.694 
164.689 164.218 164.154 166.533 166.258 166.534 166.141 166.221 165.678 
165.609 165.09 164.991 164.525 164.38 167.451 167.118 167.42 167.111 
167.285 166.788 166.705 166.069 165.872 165.313 165.128 164.66 164.475 
168.29 167.986 168.093 167.859 167.971 167.705 167.667 167.163 166.912 
166.257 165.958 165.388 165.165 164.72 164.568 168.759 168.613 168.585 
168.368 168.333 168.169 168.134 167.897 167.706 167.224 166.866 166.254 
165.919 165.4 165.192 164.806 164.686 168.821 168.867 168.9 168.764 
168.729 168.514 168.47 168.254 168.131 167.82 167.524 167.052 166.673 
166.151 165.85 165.411 165.227 164.888 164.764 162.066 162.044 162.241 
162.699 162.041 162.237 162.711 162.976 163.595 161.971 162.228 162.79 
163.077 163.765 164.017 164.665 161.953 162.195 162.868 163.206 163.977 
164.249 164.866 165.031 165.518 162.163 162.313 163.008 163.322 164.128 
164.446 165.066 165.215 165.632 165.771 166.249 162.448 162.587 163.192 
163.463 164.169 164.52 165.148 165.376 165.843 165.95 166.463 166.622 
167.239 162.628 162.795 163.289 163.548 164.092 164.443 164.995 165.348 
165.87 166.137 166.687 166.905 167.517 167.691 168.207 162.744 162.897 
163.323 163.548 164.012 164.298 164.772 165.119 165.609 166.007 166.515 
166.929 167.425 167.796 168.197 168.434 168.664 162.843 162.978 163.367 
163.559 164.017 164.245 164.716 164.957 165.404 165.709 166.135 166.542 
166.921 167.39 167.679 168.115 168.277 168.589 168.638 156.193 156.892 
156.497 156.503 157.628 157.268 157.34 156.97 157.152 158.326 158.029 
158.18 157.851 158.042 157.712 157.931 158.995 158.719 158.852 158.61 
158.763 158.524 158.682 158.419 158.548 159.66 159.373 159.437 159.192 
159.262 159.076 159.179 159.025 159.145 158.932 159.023 160.359 160.044 
160.108 159.789 159.834 159.554 159.649 159.461 159.664 159.503 159.712 
159.445 159.593 161.127 160.787 160.885 160.522 160.595 160.227 160.325 
160.028 160.263 160.087 160.427 160.213 160.474 160.121 160.309 161.881 
161.571 161.676 161.33 161.419 161.048 161.124 160.77 160.908 160.699 
160.984 160.888 161.183 160.983 161.167 160.845 161.02 162.505 162.266 
162.37 162.089 162.194 161.87 161.957 161.582 161.649 161.33 161.484 
161.346 161.592 161.525 161.716 161.558 161.69 161.473 161.653 156.294 
156.726 156.644 156.938 157.069 157.034 157.262 157.249 157.563 157.32 
157.318 157.548 157.527 157.787 157.836 158.199 157.635 157.604 157.894 
157.84 158.133 158.101 158.455 158.504 158.907 158.044 157.984 158.306 
158.248 158.583 158.522 158.875 158.84 159.213 159.231 159.606 158.521 
158.422 158.712 158.657 158.985 158.97 159.307 159.274 159.576 159.551 
159.872 159.909 160.278 159.066 158.928 159.183 159.067 159.365 159.339 
159.691 159.675 159.961 159.896 160.16 160.161 160.526 160.607 161.027 
159.6 159.484 159.748 159.585 159.86 159.757 160.121 160.081 160.433 
160.33 160.607 160.502 160.849 160.872 161.317 161.392 161.802 160.051 
159.993 160.294 160.166 160.437 160.294 160.615 160.545 160.92 160.848 
161.178 161.04 161.363 161.276 161.676 161.694 162.099 162.132 162.449 
160.396 161.085 160.721 160.678 161.833 161.439 161.371 160.973 160.86 
162.547 162.171 162.08 161.673 161.549 161.134 161.032 163.235 162.87 
162.797 162.383 162.254 161.827 161.731 161.351 161.309 163.949 163.581 
163.553 163.134 163.02 162.554 162.445 162.049 162.02 161.661 161.602 
164.61 164.275 164.236 163.882 163.778 163.335 163.198 162.774 162.731 
162.374 162.355 161.942 161.841 165.16 164.849 164.749 164.471 164.368 
164.028 163.888 163.5 163.422 163.078 163.068 162.701 162.647 162.199 
162.121 165.662 165.34 165.214 164.934 164.86 164.571 164.492 164.148 
164.082 163.744 163.725 163.393 163.354 162.974 162.901 162.496 162.457 
166.127 165.82 165.705 165.42 165.392 165.111 165.105 164.775 164.747 
164.398 164.381 164.045 164.019 163.659 163.59 163.213 163.144 162.792 
162.752 166.295 166.392 166.207 165.924 166.509 166.346 166.167 165.93 
165.683 166.765 166.533 166.408 166.205 166.014 165.729 165.432 167.268 
166.9 166.697 166.437 166.221 166.001 165.707 165.423 165.069 167.81 
167.448 167.138 166.756 166.434 166.159 165.866 165.634 165.318 165.037 
164.698 167.989 167.833 167.5 167.168 166.772 166.42 166.108 165.828 
165.578 165.299 165 164.68 164.335 167.899 167.841 167.559 167.375 
166.995 166.725 166.392 166.127 165.882 165.612 165.331 164.997 164.616 
164.276 163.89 168.025 167.842 167.65 167.425 167.127 166.881 166.564 
166.345 166.059 165.861 165.542 165.282 164.861 164.53 164.081 163.782 
163.413 168.438 168.172 168.061 167.721 167.501 167.132 166.84 166.518 
166.191 165.95 165.589 165.379 164.953 164.695 164.23 163.947 163.541 
163.306 162.997 166.616 167.123 166.803 166.666 167.639 167.317 167.137 
166.806 166.694 168.086 167.815 167.622 167.265 167.097 166.857 166.902 
168.329 168.16 167.928 167.661 167.465 167.258 167.317 167.202 167.434 
168.302 168.245 167.967 167.819 167.627 167.541 167.627 167.611 167.864 
167.802 167.998 168.051 168.103 167.888 167.809 167.708 167.674 167.826 
167.865 168.096 168.11 168.228 168.178 168.146 167.702 167.837 167.805 
167.804 167.876 167.858 168.094 168.096 168.291 168.251 168.261 168.223 
168.139 168.112 168.014 167.458 167.596 167.755 167.83 168.053 168.1 
168.369 168.382 168.518 168.425 168.353 168.227 168.131 168.081 168.088 
168.048 168.116 167.437 167.525 167.796 167.889 168.18 168.27 168.505 
168.557 168.621 168.569 168.474 168.35 168.293 168.2 168.305 168.244 
168.428 168.341 168.515 166.651 166.754 166.867 167.151 166.646 166.863 
167.149 167.326 167.619 166.454 166.698 166.974 167.208 167.52 167.755 
168.045 166.279 166.544 166.875 167.061 167.358 167.583 167.919 168.146 
168.356 165.989 166.354 166.756 167.012 167.332 167.493 167.777 167.978 
168.23 168.38 168.41 165.502 165.963 166.359 166.788 167.152 167.44 
167.672 167.848 167.982 168.162 168.187 168.285 168.125 164.894 165.391 
165.765 166.272 166.652 167.103 167.349 167.629 167.646 167.822 167.708 
167.892 167.713 167.848 167.64 164.268 164.752 165.113 165.629 166.002 
166.518 166.8 167.18 167.199 167.385 167.181 167.327 167.103 167.305 
167.147 167.346 167.271 163.726 164.141 164.447 164.936 165.262 165.811 
166.114 166.587 166.692 166.924 166.769 166.84 166.628 166.745 166.658 
166.857 166.885 167.099 167.199 163.57 163.496 163.743 164.206 163.46 
163.653 164.087 164.393 164.96 163.538 163.674 164.063 164.283 164.832 
165.203 165.807 163.515 163.733 164.054 164.248 164.685 165.047 165.602 
165.991 166.403 163.304 163.594 163.852 164.095 164.388 164.784 165.242 
165.698 166.058 166.374 166.507 163.202 163.411 163.679 163.83 164.063 
164.378 164.809 165.278 165.713 166.037 166.22 166.374 166.424 163.226 
163.417 163.743 163.797 164.043 164.158 164.59 164.926 165.497 165.816 
166.198 166.278 166.424 166.417 166.533 163.094 163.384 163.717 163.886 
164.142 164.245 164.604 164.834 165.376 165.704 166.209 166.385 166.661 
166.62 166.761 166.681 166.834 162.818 163.131 163.425 163.722 163.979 
164.231 164.52 164.79 165.178 165.535 165.968 166.315 166.647 166.818 
167.006 166.989 167.122 167.046 167.197 162.776 162.875 162.983 163.319 
162.992 163.087 163.414 163.538 163.901 163.103 163.221 163.588 163.687 
164.071 164.161 164.528 163.25 163.352 163.764 163.882 164.282 164.371 
164.752 164.819 165.198 163.547 163.568 163.972 164.066 164.49 164.587 
164.969 165.044 165.434 165.521 165.934 163.909 163.907 164.265 164.309 
164.727 164.815 165.241 165.298 165.702 165.762 166.19 166.274 166.64 
164.187 164.217 164.532 164.581 164.953 165.055 165.494 165.592 166.031 
166.084 166.508 166.553 166.925 166.927 167.122 164.417 164.446 164.743 
164.798 165.14 165.245 165.649 165.795 166.233 166.37 166.8 166.886 
167.252 167.246 167.455 167.328 167.345 164.657 164.673 164.971 165.012 
165.358 165.431 165.808 165.921 166.317 166.483 166.91 167.09 167.488 
167.565 167.811 167.707 167.751 167.516 167.444 167.581 167.936 167.837 
167.965 168.061 168.141 168.309 168.231 168.354 167.745 168.072 168.264 
168.421 168.512 168.523 168.584 167.129 167.566 167.752 168.123 168.202 
168.434 168.432 168.571 168.555 166.545 166.93 167.122 167.507 167.653 
167.977 168.067 168.29 168.334 168.461 168.43 166.086 166.426 166.658 
166.969 167.193 167.493 167.771 168.021 168.308 168.398 168.559 168.464 
168.451 165.649 166 166.272 166.59 166.854 167.147 167.494 167.819 
168.263 168.502 168.847 168.813 168.917 168.649 168.596 165.227 165.559 
165.829 166.192 166.486 166.831 167.172 167.542 167.948 168.345 168.692 
168.956 169.092 169.088 169.038 168.814 168.707 164.877 165.15 165.375 
165.722 166.014 166.415 166.773 167.185 167.557 167.95 168.228 168.574 
168.693 168.948 168.939 169.034 168.959 168.856 168.75 156.552 157.072 
156.771 156.69 157.64 157.357 157.321 156.954 156.953 158.126 157.905 
157.955 157.654 157.752 157.418 157.661 158.664 158.414 158.566 158.329 
158.568 158.292 158.586 158.289 158.617 159.378 159.069 159.269 159.016 
159.307 159.096 159.4 159.166 159.428 159.176 159.459 160.148 159.85 
160.048 159.775 160.023 159.808 160.076 159.88 160.124 159.906 160.182 
159.987 160.371 160.943 160.651 160.883 160.577 160.823 160.542 160.838 
160.588 160.92 160.652 161.015 160.763 161.201 161.003 161.463 161.76 
161.498 161.803 161.479 161.772 161.421 161.772 161.47 161.912 161.612 
162.052 161.723 162.143 161.873 162.29 162.077 162.426 162.439 162.289 
162.631 162.407 162.713 162.402 162.7 162.421 162.816 162.609 163.019 
162.761 163.063 162.774 163.036 162.821 163.089 162.906 163.14 156.302 
156.329 156.16 155.833 156.614 156.255 155.948 155.696 155.413 157.378 
156.796 156.597 156.108 155.978 155.535 155.475 158.357 157.746 157.587 
157.019 157.003 156.45 156.516 155.984 156.189 159.271 158.728 158.577 
158.048 158.014 157.537 157.619 157.151 157.336 156.906 157.215 160.256 
159.684 159.608 159.044 159.005 158.504 158.55 158.141 158.292 157.954 
158.183 157.874 158.129 161.332 160.758 160.716 160.138 160.13 159.562 
159.596 159.085 159.205 158.82 159.02 158.72 158.92 158.637 158.812 
162.259 161.779 161.686 161.197 161.162 160.673 160.685 160.177 160.237 
159.776 159.917 159.546 159.708 159.381 159.515 159.228 159.374 162.993 
162.592 162.48 162.054 161.99 161.587 161.581 161.169 161.187 160.764 
160.835 160.449 160.565 160.195 160.297 159.943 160.052 159.769 159.923 
156.205 155.817 156.046 156.068 155.294 155.559 155.668 155.946 155.949 
155.167 155.108 155.172 155.466 155.574 155.779 155.65 155.816 155.304 
155.274 155.201 155.416 155.496 155.507 155.456 155.266 156.902 156.22 
156.108 155.674 155.871 155.686 155.862 155.603 155.516 155.23 155.137 
157.866 157.297 157.111 156.603 156.618 156.32 156.453 156.179 156.167 
155.762 155.649 155.311 155.293 158.586 158.148 157.946 157.478 157.334 
156.982 156.946 156.714 156.682 156.407 156.314 155.961 155.882 155.553 
155.513 159.193 158.822 158.673 158.236 158.074 157.64 157.52 157.179 
157.115 156.849 156.811 156.55 156.524 156.21 156.163 155.795 155.724 
159.765 159.431 159.325 158.939 158.796 158.368 158.23 157.817 157.729 
157.369 157.336 157.043 157.059 156.801 156.813 156.49 156.438 156.04 
155.978 166.336 165.873 166.24 166.444 165.336 165.727 165.918 166.268 
166.362 164.7 165.114 165.253 165.666 165.744 166.091 166.13 163.976 
164.391 164.467 164.914 164.961 165.377 165.399 165.806 165.864 163.266 
163.639 163.684 164.097 164.12 164.536 164.542 164.988 165.037 165.506 
165.556 162.584 162.938 162.96 163.334 163.321 163.695 163.66 164.09 
164.114 164.615 164.658 165.131 165.102 161.831 162.207 162.177 162.577 
162.516 162.887 162.779 163.178 163.123 163.628 163.625 164.154 164.103 
164.58 164.482 161.034 161.387 161.303 161.717 161.638 162.037 161.909 
162.281 162.168 162.612 162.562 163.07 163.009 163.513 163.427 163.92 
163.848 160.321 160.595 160.48 160.834 160.76 161.148 161.055 161.416 
161.312 161.692 161.638 162.063 162.026 162.463 162.422 162.882 162.876 
163.35 163.355 
POINT_DATA 1002
SCALARS Distance double
LOOKUP_TABLE default
162.671 162.545 162.08 162.286 161.611 162.788 161.791 161.022 162.391 
162.881 161.118 160.328 161.866 162.411 162.954 160.442 159.707 161.299 
161.975 162.519 163.171 159.925 159.289 160.791 161.623 162.204 162.83 
163.564 159.559 159.036 160.298 161.209 161.897 162.462 163.2 163.913 
159.257 158.764 159.854 160.695 161.523 162.1 162.744 163.527 164.16 
158.891 158.359 159.475 160.202 161.083 161.815 162.405 163.13 163.862 
164.401 158.46 157.92 159.088 159.755 160.567 161.425 162.111 162.777 
163.533 164.179 164.642 161.977 161.427 161.211 160.675 160.428 160.922 
159.964 159.68 160.246 160.362 159.235 158.92 159.577 159.736 159.697 
158.535 158.319 158.831 159.003 159.001 159.066 157.972 157.891 158.125 
158.257 158.231 158.325 158.677 157.335 157.374 157.36 157.585 157.675 
157.688 158.011 158.466 156.643 156.799 156.483 156.761 157.179 157.299 
157.47 157.867 158.177 156.24 156.388 155.933 156.021 156.531 156.855 
156.982 157.296 157.622 157.771 156.181 155.98 156.113 155.987 155.92 
155.779 155.856 155.43 155.968 156.027 155.471 155.033 156.001 156.127 
156.347 155.25 155.062 155.828 156.021 156.001 156.397 155.215 155.267 
155.603 155.782 155.642 155.91 156.639 155.151 155.431 155.301 155.452 
155.356 155.574 156.315 157.072 155.185 155.627 155.147 155.264 155.215 
155.367 156.025 156.765 157.297 155.453 155.93 155.329 155.447 155.434 
155.421 155.846 156.509 157.011 157.425 157.885 157.418 158.06 157.031 
157.678 158.388 156.524 157.303 158.097 158.813 155.98 156.793 157.76 
158.608 159.366 155.834 156.408 157.307 158.359 159.2 159.949 155.947 
156.432 157.024 157.973 158.941 159.708 160.461 155.873 156.53 157.088 
157.753 158.571 159.344 160.134 160.975 155.804 156.494 157.248 157.887 
158.468 159.071 159.802 160.657 161.486 156.076 156.593 157.385 158.135 
158.662 159.121 159.733 160.491 161.229 161.88 158.53 158.733 159.22 
159.087 159.473 159.972 159.659 160.023 160.375 160.871 160.306 160.776 
161.068 161.284 161.704 160.835 161.323 161.728 161.838 162.017 162.43 
161.368 161.749 162.174 162.44 162.547 162.833 163.248 161.937 162.329 
162.706 163.09 163.319 163.471 163.747 164.03 162.363 162.877 163.328 
163.744 164.07 164.212 164.303 164.456 164.588 162.469 163.089 163.224 
163.974 164.259 163.736 164.999 165.245 164.663 164.264 165.966 165.954 
165.674 165.155 164.649 166.855 166.79 166.783 166.206 165.467 164.858 
167.711 167.854 167.696 167.377 166.534 165.617 164.91 168.397 168.622 
168.173 168.044 167.58 166.622 165.638 164.948 168.821 168.836 168.537 
168.292 168.068 167.472 166.505 165.615 165.016 168.944 168.683 168.935 
168.716 168.403 167.922 167.18 166.334 165.605 165.063 161.85 162.404 
161.878 162.429 161.818 163.301 162.438 161.657 163.503 164.492 162.49 
161.714 163.678 164.752 165.357 162.737 162.039 163.799 164.909 165.537 
166.005 162.988 162.32 163.854 164.854 165.682 166.311 167.074 163.079 
162.485 163.802 164.622 165.511 166.419 167.333 168.146 163.127 162.621 
163.764 164.472 165.225 166.092 167.035 167.909 168.536 163.188 162.722 
163.788 164.5 165.177 165.813 166.5 167.228 167.902 168.396 156.575 
156.84 157.263 157.701 157.921 157.479 158.465 158.594 158.374 158.272 
159.1 159.292 158.991 158.927 158.85 159.727 159.961 159.487 159.313 
159.301 159.288 160.444 160.674 160.155 159.864 159.772 159.922 159.926 
161.245 161.463 160.968 160.665 160.448 160.569 160.793 160.704 162.006 
162.174 161.777 161.512 161.197 161.081 161.303 161.455 161.343 156.379 
156.979 156.822 157.303 157.084 157.506 157.569 157.31 157.774 158.084 
157.936 157.662 158.18 158.448 158.835 158.355 158.117 158.629 158.941 
159.239 159.567 158.796 158.651 158.989 159.339 159.643 159.848 160.201 
159.339 159.209 159.417 159.691 160.045 160.199 160.434 160.945 159.907 
159.686 160.002 160.163 160.509 160.748 160.876 161.239 161.768 160.387 