# vtk DataFile Version 4.0
vtk output
ASCII
DATASET POLYDATA
POINTS 1002 float
-117.645 -102.536 51.2696 -117.758 -102.209 50.7972 -117.133 -102.241 50.9155 
-116.976 -102.661 51.3667 -116.455 -102.236 51.1054 -117.603 -103.044 51.5879 
-116.299 -102.87 51.4981 -115.836 -102.403 51.3054 -116.909 -103.262 51.7119 
-117.559 -103.423 52.1098 -115.672 -103.11 51.7494 -115.247 -102.682 51.5615 
-116.201 -103.487 51.9669 -116.87 -103.601 52.4122 -117.517 -103.581 52.9927 
-115.083 -103.142 52.1785 -114.549 -102.871 51.8844 -115.567 -103.466 52.4665 
-116.161 -103.68 52.8511 -116.893 -103.831 53.2876 -117.61 -103.995 53.652 
-114.429 -103.085 52.6388 -113.761 -103.04 52.1501 -115.026 -103.263 53.0774 
-115.547 -103.59 53.402 -116.175 -104.022 53.5812 -117.011 -104.471 53.6871 
-117.78 -104.721 53.9019 -113.672 -103.242 52.9789 -113.092 -103.189 52.4204 
-114.333 -103.362 53.507 -114.955 -103.717 53.8243 -115.489 -104.227 53.885 
-116.196 -104.731 53.8791 -117.094 -105.063 54.0462 -117.802 -105.098 54.4661 
-112.996 -103.451 53.2797 -112.649 -103.141 52.8617 -113.453 -103.76 53.6894 
-114.104 -104.181 53.9661 -114.782 -104.626 54.0751 -115.418 -104.897 54.2138 
-116.213 -105.029 54.5324 -117.059 -105.081 54.9955 -117.666 -105.026 55.4945 
-112.558 -103.485 53.6468 -112.334 -102.964 53.4028 -112.769 -104.037 53.839 
-113.183 -104.555 54.0105 -113.912 -104.948 54.1968 -114.714 -105.063 54.5303 
-115.457 -104.97 55.0567 -116.25 -104.929 55.6075 -116.995 -104.963 56.073 
-117.537 -104.958 56.4501 -112.302 -103.392 54.06 -112.055 -102.835 53.8802 
-112.463 -104.061 54.1513 -112.63 -104.654 54.2654 -113.108 -105.014 54.4952 
-113.958 -105.097 54.9051 -114.831 -104.994 55.4893 -115.573 -104.922 56.0709 
-116.309 -104.978 56.5138 -116.988 -105.035 56.8685 -117.497 -105.01 57.192 
-117.59 -102.135 50.1614 -116.879 -102.057 50.3406 -117.387 -102.11 49.4641 
-116.505 -102.021 49.6592 -116.975 -101.968 48.9628 -116.11 -101.958 50.6162 
-115.856 -102.032 49.0652 -116.325 -101.641 48.7036 -115.565 -101.997 49.9191 
-115.439 -102.114 50.8843 -115.095 -101.837 48.6818 -115.626 -101.104 48.5921 
-114.814 -102.126 49.2848 -114.824 -102.109 50.2966 -114.747 -102.404 51.2202 
-114.575 -101.229 48.5786 -115.093 -100.359 48.605 -114.252 -101.826 49.0253 
-114.22 -101.975 49.9032 -114.12 -102.18 50.8293 -113.879 -102.684 51.5132 
-114.334 -100.39 48.7365 -114.768 -99.5779 48.7178 -114.033 -101.069 49.1205 
-113.957 -101.386 49.8728 -113.732 -101.689 50.6263 -113.278 -102.346 51.1514 
-113.053 -102.943 51.6745 -114.148 -99.6426 49.0059 -114.536 -98.9221 48.8895 
-113.809 -100.336 49.2762 -113.726 -100.734 49.8816 -113.596 -101.032 50.5828 
-113.05 -101.717 51.0152 -112.574 -102.524 51.3618 -112.544 -102.945 52.0172 
-113.9 -99.0225 49.2333 -114.273 -98.3686 49.074 -113.458 -99.7759 49.3503 
-113.222 -100.332 49.7026 -113.228 -100.605 50.4135 -112.965 -101.068 51.0683 
-112.433 -101.837 51.4134 -112.187 -102.412 51.8624 -112.251 -102.683 52.6362 
-113.598 -98.4333 49.3441 -113.957 -97.8715 49.1958 -113.152 -99.1913 49.4054 
-112.761 -99.9227 49.5588 -112.662 -100.328 50.136 -112.637 -100.613 51.0123 
-112.345 -101.168 51.6228 -112.015 -101.796 51.9664 -111.922 -102.191 52.5097 
-111.97 -102.474 53.2564 -113.371 -97.6845 49.3179 -113.004 -98.3111 49.4652 
-112.804 -97.5105 49.5008 -112.601 -98.1921 49.9029 -112.476 -97.4512 50.1379 
-112.636 -99.1403 49.6423 -112.461 -98.1854 50.8184 -112.336 -97.5741 51.0956 
-112.421 -99.0085 50.3757 -112.35 -99.8212 50.0348 -112.273 -98.3271 51.6445 
-112.089 -97.7208 51.9068 -112.278 -98.9584 51.2811 -112.102 -99.602 50.88 
-112.21 -100.181 50.8313 -111.922 -98.447 52.2701 -111.791 -97.8105 52.6975 
-111.936 -99.0601 51.8889 -111.716 -99.5373 51.535 -111.69 -100.049 51.4881 
-112.027 -100.615 51.6552 -111.71 -98.5695 53.202 -111.781 -98.0921 53.6221 
-111.641 -99.1658 52.738 -111.339 -99.6355 52.233 -111.133 -100.095 51.9544 
-111.376 -100.691 52.0358 -111.772 -101.274 52.1151 -111.754 -98.8598 54.2159 
-112.025 -98.5627 54.4156 -111.576 -99.3076 53.9236 -111.275 -99.7311 53.45 
-110.915 -100.15 52.9107 -110.92 -100.773 52.5871 -111.271 -101.409 52.5412 
-111.632 -101.832 52.5597 -111.869 -99.1675 54.9626 -112.201 -98.8875 55.0766 
-111.602 -99.5233 54.8286 -111.356 -99.8812 54.5589 -111.03 -100.208 54.1511 
-110.853 -100.753 53.6951 -110.996 -101.477 53.3502 -111.292 -101.97 53.237 
-111.621 -102.208 53.2612 -111.927 -99.326 55.6215 -112.21 -98.9885 55.7754 
-111.628 -99.6843 55.5021 -111.382 -100.056 55.3138 -111.135 -100.392 55.0697 
-110.947 -100.84 54.8001 -110.966 -101.509 54.4567 -111.134 -102.096 54.1372 
-111.375 -102.377 53.9948 -111.704 -102.553 53.9574 -112.01 -103.069 54.4341 
-111.664 -102.763 54.5897 -112.088 -103.268 55.0785 -111.358 -102.585 54.777 
-111.743 -102.921 55.3188 -112.169 -103.404 55.9602 -111.13 -102.303 55.1276 
-111.383 -102.793 55.6763 -111.778 -103.094 56.2403 -112.228 -103.556 56.9195 
-110.95 -101.719 55.5301 -111.05 -102.545 56.2139 -111.336 -102.999 56.7239 
-111.857 -103.31 57.2354 -112.539 -103.653 57.7154 -110.941 -101.051 55.7916 
-110.843 -101.881 56.6798 -111.034 -102.581 57.3112 -111.534 -103.064 57.7237 
-112.254 -103.419 58.1448 -113.04 -103.628 58.4736 -111.145 -100.531 55.9881 
-110.925 -101.105 56.93 -111.033 -101.742 57.6597 -111.533 -102.411 58.0449 
-112.082 -103.048 58.5365 -112.66 -103.436 59.0427 -113.321 -103.602 59.3337 
-111.428 -100.101 56.1727 -111.224 -100.546 57.0525 -111.266 -101.028 57.7655 
-111.763 -101.642 58.0951 -112.233 -102.43 58.6092 -112.405 -103.11 59.418 
-112.798 -103.442 59.9244 -113.5 -103.61 60.1012 -111.746 -99.6977 56.2793 
-111.592 -100.14 57.0559 -111.572 -100.587 57.7564 -111.924 -101.079 58.1787 
-112.407 -101.766 58.676 -112.47 -102.542 59.5554 -112.494 -103.102 60.3107 
-113.076 -103.387 60.5715 -113.912 -103.591 60.6528 -112.051 -99.3127 56.3855 
-111.962 -99.7652 57.0158 -111.931 -100.22 57.6609 -112.048 -100.602 58.2989 
-112.363 -101.084 58.9732 -112.537 -101.756 59.765 -112.535 -102.433 60.4751 
-112.892 -102.936 60.8357 -113.681 -103.275 60.961 -114.417 -103.543 61.1209 
-112.309 -103.718 54.6132 -112.388 -103.965 55.4708 -112.449 -104.449 54.8105 
-112.426 -104.106 56.5826 -112.466 -104.691 55.9498 -112.597 -104.948 55.1124 
-112.642 -104.112 57.4547 -112.587 -104.738 57.0984 -112.699 -105.054 56.373 
-113.206 -105.076 55.5203 -113.2 -103.954 58.0651 -113.081 -104.528 57.7755 
-113.102 -104.98 57.3519 -113.548 -105.056 56.7024 -114.216 -105.011 56.0283 
-113.659 -103.84 58.8736 -113.657 -104.3 58.4961 -113.701 -104.777 58.0931 
-114.092 -104.984 57.6134 -114.619 -105.007 57.0931 -115.102 -104.983 56.563 
-113.872 -103.87 59.7969 -113.93 -104.325 59.5732 -114.028 -104.78 59.2141 
-114.494 -104.94 58.6831 -115.022 -104.943 58.1615 -115.412 -105.024 57.5977 
-115.826 -105.056 57.0124 -114.21 -103.892 60.504 -114.222 -104.383 60.5039 
-114.23 -104.929 60.3993 -114.654 -105.136 59.9628 -115.269 -104.97 59.4383 
-115.716 -104.897 58.8771 -116.118 -105.048 58.1207 -116.57 -105.12 57.3963 
-114.663 -103.857 61.0592 -114.705 -104.297 61.1068 -114.682 -104.868 61.1527 
-114.934 -105.298 60.9045 -115.455 -105.282 60.4691 -115.952 -104.999 60.0768 
-116.398 -104.902 59.4694 -116.85 -105.02 58.5783 -117.217 -105.076 57.7747 
-114.872 -103.687 61.6856 -115.059 -104.081 61.6748 -115.033 -103.853 62.3975 
-115.383 -104.36 62.3034 -115.379 -104.046 62.9074 -115.195 -104.566 61.6839 
-115.937 -104.707 62.7261 -116.204 -104.257 62.997 -115.785 -104.854 62.1833 
-115.405 -105.118 61.5532 -116.719 -104.979 62.8989 -117.174 -104.364 62.8715 
-116.4 -105.176 62.6284 -116.125 -105.368 61.8841 -115.76 -105.51 61.1488 
-117.674 -105.032 62.9909 -118.169 -104.262 62.9284 -117.153 -105.394 62.9613 
-116.744 -105.618 62.2829 -116.437 -105.764 61.3584 -116.183 -105.453 60.7718 
-118.829 -104.932 63.145 -119.202 -104.008 63.1587 -118.308 -105.52 63.0929 
-117.73 -105.767 62.5625 -117.222 -105.908 61.592 -116.897 -105.649 60.9319 
-116.672 -105.11 60.4204 -119.721 -104.715 63.1176 -119.848 -103.729 63.0665 
-119.446 -105.566 62.9966 -119.001 -105.891 62.552 -118.382 -105.882 61.7194 
-117.8 -105.644 60.9986 -117.442 -105.182 60.5098 -117.177 -104.928 59.7025 
-120.037 -104.358 62.6452 -120.026 -103.502 62.4684 -119.992 -105.311 62.6106 
-119.828 -105.845 62.2743 -119.399 -105.826 61.6437 -118.743 -105.532 61.0027 
-118.17 -105.151 60.4923 -117.821 -104.906 59.7772 -117.537 -104.95 58.7508 
-120.167 -103.958 61.9502 -120.184 -103.322 61.7378 -120.178 -104.777 62.0345 
-120.169 -105.433 61.8409 -119.962 -105.618 61.3673 -119.46 -105.435 60.8467 
-118.854 -105.154 60.3866 -118.388 -104.947 59.7544 -118.065 -104.907 58.8455 
-117.776 -104.974 57.9189 -114.469 -103.259 61.4348 -114.765 -103.34 62.1394 
-114.481 -102.797 61.6076 -114.659 -102.79 62.3966 -114.492 -102.195 61.6661 
-114.88 -103.339 62.8982 -114.778 -102.201 62.3647 -114.622 -101.583 61.7502 
-115.009 -102.631 63.0439 -115.524 -103.307 63.2442 -115.175 -101.754 62.0963 
-114.934 -101.023 61.7125 -115.524 -102.147 62.6994 -116.017 -102.496 63.2158 
-116.627 -103.369 63.1201 -115.631 -101.352 61.6198 -115.274 -100.532 61.3768 
-116.137 -101.942 62.0507 -116.611 -102.145 62.7519 -117.074 -102.587 63.0845 
-117.611 -103.449 62.9323 -115.958 -100.844 61.1842 -115.567 -100.084 61.0401 
-116.557 -101.572 61.4638 -117.065 -101.97 62.0949 -117.41 -102.26 62.7053 
-117.913 -102.764 62.9095 -118.598 -103.365 63.0012 -116.285 -100.228 61.0458 
-115.957 -99.6333 60.8883 -116.829 -100.915 61.194 -117.39 -101.473 61.589 
-117.754 -101.932 62.1014 -118.176 -102.406 62.4638 -118.844 -102.79 62.7779 
-119.482 -103.16 63.0509 -116.722 -99.6506 60.9597 -116.445 -99.2601 60.6536 
-117.135 -100.219 61.0828 -117.66 -100.807 61.2624 -118.111 -101.366 61.5536 
-118.488 -101.959 61.8019 -118.966 -102.437 62.1033 -119.491 -102.705 62.4811 
-119.859 -103.01 62.632 -117.146 -99.2866 60.6115 -116.869 -99.0625 60.1805 
-117.476 -99.6968 60.8209 -117.909 -100.226 60.9419 -118.383 -100.772 61.12 
[...]
CELL_DATA 2000
SCALARS Distance double
LOOKUP_TABLE default
162.954 162.557 162.92 163.27 162.22 162.551 162.937 163.292 163.668 
162.003 162.285 162.668 162.989 163.374 163.697 164.043 161.772 162.073 
162.41 162.723 163.075 163.405 163.782 164.096 164.486 161.445 161.78 
162.102 162.432 162.766 163.097 163.477 163.831 164.288 164.628 165.09 
161.122 161.436 161.785 162.116 162.502 162.823 163.222 163.546 163.99 
164.377 164.862 165.235 165.637 160.881 161.153 161.497 161.814 162.222 
162.577 163.012 163.336 163.736 164.067 164.476 164.884 165.282 165.662 
165.946 160.71 160.954 161.28 161.55 161.909 162.263 162.678 163.071 
163.462 163.803 164.141 164.483 164.837 165.228 165.567 165.906 166.154 
160.586 160.815 161.162 161.383 161.717 161.973 162.333 162.684 163.077 
163.463 163.829 164.166 164.507 164.837 165.2 165.54 165.876 166.152 
166.405 162.743 162.339 162.454 162.301 161.869 162.004 161.785 161.967 
161.892 161.227 161.446 161.213 161.416 161.308 161.602 161.648 160.425 
160.722 160.523 160.794 160.691 161.001 161.029 161.382 161.436 159.59 
159.909 159.777 160.094 160.04 160.366 160.373 160.725 160.751 161.109 
161.111 158.862 159.147 159.095 159.407 159.426 159.741 159.755 160.061 
160.048 160.386 160.387 160.753 160.774 158.285 158.527 158.513 158.797 
158.842 159.159 159.2 159.48 159.455 159.718 159.701 160.031 160.08 
160.455 160.531 157.787 158.015 157.982 158.239 158.235 158.555 158.592 
158.919 158.935 159.19 159.175 159.423 159.459 159.785 159.881 160.251 
160.358 157.279 157.508 157.445 157.692 157.642 157.929 157.938 158.281 
158.34 158.666 158.705 158.958 158.986 159.238 159.313 159.629 159.744 
160.101 160.225 156.947 156.472 156.837 157.107 156.221 156.455 156.768 
157.056 157.344 156.355 156.419 156.755 156.871 157.165 157.352 157.659 
156.584 156.651 156.944 156.985 157.202 157.266 157.511 157.717 158.055 
156.69 156.796 157.036 157.118 157.227 157.27 157.383 157.558 157.837 
158.127 158.452 156.965 156.92 157.171 157.181 157.288 157.251 157.287 
157.375 157.593 157.879 158.225 158.507 158.788 157.555 157.344 157.583 
157.453 157.621 157.446 157.501 157.379 157.56 157.685 158.06 158.313 
158.671 158.864 159.136 158.16 157.951 158.098 157.94 158.099 157.909 
157.996 157.764 157.908 157.826 158.174 158.282 158.694 158.83 159.16 
159.274 159.565 158.571 158.434 158.515 158.388 158.5 158.369 158.47 
158.286 158.42 158.274 158.568 158.55 158.949 158.986 159.337 159.375 
159.675 159.751 160.054 160.321 159.951 160.294 160.661 159.655 159.97 
160.321 160.668 161.076 159.356 159.711 160.092 160.386 160.758 161.101 
161.532 159.003 159.392 159.833 160.177 160.556 160.843 161.243 161.588 
162.053 158.765 159.054 159.468 159.857 160.267 160.622 161.02 161.354 
161.821 162.174 162.659 158.721 158.883 159.201 159.496 159.883 160.264 
160.696 161.097 161.581 161.971 162.465 162.799 163.224 158.736 158.857 
159.126 159.308 159.651 159.93 160.374 160.759 161.292 161.714 162.225 
162.587 163.001 163.304 163.661 158.749 158.858 159.127 159.273 159.596 
159.79 160.198 160.502 161.029 161.434 161.96 162.331 162.738 163.046 
163.399 163.71 164.085 158.776 158.873 159.136 159.28 159.595 159.764 
160.114 160.353 160.786 161.156 161.63 162.029 162.417 162.755 163.091 
163.426 163.814 164.162 164.569 160.649 161.016 160.977 161.261 161.464 
161.41 161.715 161.604 161.839 161.935 161.892 162.232 162.109 162.326 
162.167 162.404 162.429 162.367 162.721 162.629 162.87 162.69 162.893 
162.767 163.089 162.979 162.87 163.187 163.099 163.377 163.239 163.481 
163.315 163.615 163.516 163.87 163.518 163.413 163.699 163.582 163.874 
163.756 164.066 163.929 164.253 164.105 164.432 164.297 164.597 163.981 
163.918 164.238 164.124 164.447 164.314 164.663 164.533 164.879 164.737 
165.048 164.891 165.171 165.013 165.287 164.442 164.387 164.764 164.677 
165.054 164.938 165.321 165.179 165.53 165.361 165.657 165.486 165.756 
165.599 165.865 165.711 165.96 164.928 164.877 165.262 165.203 165.594 
165.532 165.935 165.841 166.204 166.036 166.32 166.109 166.36 166.178 
166.431 166.275 166.497 166.336 166.506 165.295 165.872 165.622 165.64 
166.425 166.205 166.302 165.986 166 167.103 166.85 167.021 166.692 
166.763 166.386 166.384 167.835 167.603 167.793 167.464 167.54 167.168 
167.172 166.765 166.679 168.524 168.333 168.552 168.244 168.306 167.932 
167.907 167.52 167.416 166.983 166.791 169.224 169.058 169.369 169.054 
169.166 168.726 168.681 168.236 168.114 167.681 167.486 167.029 166.808 
169.683 169.701 170.056 169.89 170.054 169.645 169.569 169.045 168.846 
168.36 168.13 167.688 167.456 167.032 166.837 169.632 169.887 170.187 
170.339 170.492 170.374 170.252 169.857 169.536 169.05 168.702 168.268 
167.975 167.604 167.37 167.027 166.843 169.331 169.617 169.859 170.174 
170.327 170.493 170.399 170.276 169.935 169.59 169.174 168.773 168.421 
168.057 167.787 167.472 167.259 166.973 166.797 165.172 165.052 165.336 
165.708 164.76 165.118 165.483 165.789 166.172 164.463 164.8 165.182 
165.507 165.919 166.278 166.784 164.297 164.584 165.027 165.287 165.741 
166.047 166.581 166.959 167.51 164.152 164.468 164.977 165.249 165.744 
165.975 166.473 166.772 167.301 167.661 168.177 163.944 164.289 164.81 
165.183 165.702 165.991 166.433 166.684 167.133 167.45 167.953 168.32 
168.832 163.796 164.078 164.561 164.949 165.461 165.842 166.273 166.576 
166.97 167.276 167.727 168.087 168.552 168.929 169.304 163.764 163.97 
164.389 164.698 165.165 165.54 165.977 166.329 166.711 167.049 167.436 
167.808 168.179 168.563 168.827 169.19 169.315 163.762 163.941 164.292 
164.535 164.928 165.249 165.659 166.011 166.385 166.733 167.06 167.425 
167.708 168.089 168.289 168.643 168.743 169.052 169.082 158.837 159.041 
159.036 159.238 159.383 159.335 159.619 159.526 159.74 159.948 159.815 
160.129 159.981 160.197 160.048 160.254 160.591 160.435 160.707 160.533 
160.704 160.516 160.692 160.578 160.871 161.146 161.008 161.235 161.088 
161.241 161.03 161.158 161.008 161.278 161.254 161.642 161.672 161.504 
161.721 161.59 161.804 161.602 161.752 161.52 161.732 161.641 161.996 
162.022 162.397 162.263 162.044 162.245 162.091 162.352 162.196 162.428 
162.186 162.393 162.172 162.485 162.4 162.8 162.771 163.127 162.874 
162.65 162.818 162.632 162.863 162.738 163.009 162.855 163.105 162.885 
163.175 162.996 163.398 163.287 163.715 163.584 163.936 163.43 163.239 
163.395 163.198 163.393 163.244 163.514 163.404 163.698 163.553 163.836 
163.678 164.018 163.917 164.322 164.231 164.603 164.439 164.724 158.68 
158.443 158.631 158.793 158.179 158.363 158.485 158.727 159.024 158.078 
158.185 158.361 158.477 158.764 159.069 159.561 158.288 158.292 158.59 
158.553 158.867 158.962 159.452 159.746 160.289 158.623 158.635 158.995 
158.946 159.279 159.236 159.661 159.781 160.298 160.511 160.951 158.817 
158.915 159.262 159.33 159.664 159.661 160.011 160.053 160.491 160.616 
161.053 161.175 161.539 158.925 159.029 159.387 159.522 159.904 159.977 
160.336 160.372 160.761 160.837 161.256 161.347 161.732 161.802 162.154 
159.174 159.189 159.579 159.672 160.115 160.211 160.627 160.677 161.062 
161.11 161.5 161.57 161.95 162.022 162.375 162.438 162.771 159.611 
159.55 159.936 159.95 160.378 160.45 160.86 160.941 161.306 161.378 
161.723 161.798 162.139 162.22 162.553 162.636 162.956 163.027 163.321 
160.015 160.728 160.352 160.334 161.401 161.052 161.024 160.682 160.713 
162.099 161.733 161.699 161.339 161.333 161.049 161.125 162.859 162.492 
162.489 162.063 162.025 161.655 161.693 161.447 161.548 163.522 163.231 
163.266 162.89 162.849 162.409 162.384 162.037 162.113 161.872 161.975 
164.137 163.845 163.878 163.59 163.574 163.209 163.157 162.771 162.79 
162.479 162.573 162.311 162.4 164.862 164.509 164.543 164.203 164.213 
163.872 163.86 163.51 163.53 163.195 163.268 162.957 163.042 162.748 
162.82 165.547 165.249 165.287 164.934 164.941 164.559 164.562 164.203 
164.252 163.928 164.008 163.683 163.75 163.422 163.476 163.168 163.221 
166.026 165.834 165.862 165.613 165.598 165.28 165.248 164.913 164.932 
164.63 164.697 164.399 164.445 164.122 164.138 163.821 163.842 163.55 
163.578 166.265 166.598 166.312 166.101 166.95 166.63 166.343 166.101 
165.846 167.21 166.938 166.6 166.326 166.048 165.811 165.531 167.392 
167.176 166.92 166.617 166.348 166.054 165.813 165.528 165.264 167.719 
167.455 167.321 167.002 166.79 166.439 166.204 165.872 165.632 165.309 
165.044 168.199 167.896 167.737 167.426 167.204 166.886 166.624 166.293 
166.008 165.678 165.38 165.069 164.768 168.554 168.319 168.061 167.783 
167.487 167.219 166.935 166.658 166.351 166.031 165.687 165.365 165.03 
164.744 164.437 168.723 168.55 168.3 168.047 167.76 167.478 167.213 
166.938 166.667 166.356 166.024 165.675 165.321 164.998 164.683 164.408 
164.13 168.92 168.728 168.581 168.326 168.134 167.82 167.594 167.269 
167.017 166.69 166.386 166.03 165.678 165.318 164.978 164.666 164.373 
164.112 163.852 166.418 166.838 166.686 166.818 167.284 167.163 167.36 
167.168 167.267 167.6 167.56 167.797 167.718 167.844 167.586 167.541 
167.899 167.82 168.071 168.088 168.276 168.112 168.027 167.715 167.6 
168.394 168.189 168.433 168.394 168.698 168.563 168.554 168.184 168.024 
167.753 167.809 168.852 168.697 168.869 168.811 169.131 169.057 169.15 
168.782 168.606 168.218 168.227 168.088 168.302 168.917 168.964 169.041 
169.102 169.287 169.374 169.438 169.288 169.073 168.758 168.637 168.493 
168.647 168.594 168.727 168.704 168.86 168.951 169.086 169.189 169.329 
169.322 169.343 169.123 169.002 168.818 168.767 168.837 168.86 168.984 
168.904 168.904 168.509 168.663 168.845 168.977 169.121 169.199 169.184 
169.168 168.987 168.921 168.797 168.814 168.913 168.987 169.154 169.128 
169.187 169.045 169.055 166.274 166.148 166.354 166.651 165.913 166.2 
166.513 166.758 167.066 165.497 165.877 166.222 166.571 166.909 167.16 
167.417 165.034 165.409 165.752 166.184 166.584 166.96 167.307 167.514 
167.775 164.639 164.978 165.303 165.702 166.105 166.555 166.99 167.366 
167.759 167.961 168.291 164.211 164.579 164.901 165.286 165.669 166.089 
166.499 166.95 167.384 167.817 168.221 168.492 168.751 163.737 164.117 
164.436 164.852 165.247 165.679 166.068 166.468 166.818 167.283 167.661 
168.166 168.445 168.759 168.813 163.319 163.663 163.978 164.372 164.773 
165.232 165.659 166.063 166.382 166.737 167.02 167.479 167.766 168.228 
168.348 168.619 168.567 162.954 163.275 163.576 163.935 164.301 164.745 
165.168 165.623 165.97 166.324 166.568 166.908 167.158 167.557 167.757 
168.086 168.132 168.341 168.323 162.85 162.883 163.056 163.462 162.946 
163.085 163.508 163.712 164.192 163.059 163.157 163.545 163.757 164.281 
164.513 165.045 163.109 163.256 163.608 163.798 164.295 164.565 165.116 
165.364 165.834 162.989 163.239 163.641 163.863 164.336 164.577 165.107 
165.376 165.874 166.084 166.463 162.862 163.098 163.567 163.861 164.382 
164.634 165.146 165.378 165.883 166.11 166.556 166.699 167.054 162.929 
163.049 163.497 163.778 164.339 164.649 165.16 165.405 165.85 166.097 
166.535 166.767 167.142 167.285 167.59 163.093 163.17 163.552 163.758 
164.292 164.592 165.103 165.361 165.739 165.983 166.337 166.642 167.003 
167.27 167.549 167.726 167.938 163.16 163.292 163.646 163.828 164.311 
164.569 165.063 165.297 165.654 165.838 166.123 166.378 166.713 167.033 
167.355 167.603 167.834 167.993 168.169 163.242 163.605 163.545 163.816 
163.999 163.959 164.29 164.208 164.52 164.333 164.317 164.654 164.667 
165.018 164.953 165.238 164.736 164.635 164.916 164.95 165.307 165.363 
165.652 165.593 165.775 165.326 165.114 165.309 165.211 165.514 165.575 
165.906 165.927 166.138 166.045 166.209 165.889 165.723 165.875 165.673 
165.873 165.811 166.122 166.156 166.45 166.41 166.637 166.529 166.778 
166.216 166.184 166.378 166.235 166.406 166.247 166.462 166.399 166.675 
166.692 166.985 166.97 167.248 167.164 167.42 166.413 166.435 166.701 
166.677 166.943 166.816 167.004 166.81 166.948 166.876 167.121 167.214 
167.543 167.591 167.851 167.763 167.929 166.633 166.638 166.934 166.976 
167.34 167.332 167.593 167.391 167.421 167.171 167.229 167.251 167.564 
167.762 168.116 168.155 168.338 168.199 168.281 168.494 168.606 168.68 
168.876 168.374 168.681 168.909 169.03 169.143 167.72 168.176 168.385 
168.81 168.909 169.12 169.084 167.347 167.525 167.661 168.064 168.212 
168.631 168.652 168.893 168.813 167.662 167.53 167.662 167.615 167.804 
167.998 168.247 168.482 168.634 168.724 168.774 167.94 167.98 168.188 
168.001 168.169 168.018 168.347 168.381 168.793 168.811 169.081 168.954 
169.076 167.65 167.99 168.231 168.39 168.548 168.513 168.737 168.722 
169.113 169.15 169.506 169.419 169.556 169.341 169.345 167.173 167.525 
167.755 168.122 168.325 168.593 168.799 168.977 169.281 169.432 169.767 
169.803 169.955 169.795 169.732 169.497 169.365 166.859 167.103 167.327 
167.627 167.874 168.205 168.483 168.808 169.148 169.441 169.813 169.987 
170.231 170.163 170.165 169.893 169.74 169.447 169.28 157.297 157.778 
157.517 157.491 158.301 158.021 158.02 157.75 157.813 158.954 158.635 
158.708 158.372 158.469 158.18 158.355 159.766 159.415 159.557 159.169 
159.283 158.919 159.079 158.804 159.039 160.639 160.297 160.451 160.061 
160.167 159.776 159.917 159.584 159.81 159.54 159.809 161.445 161.153 
161.262 160.901 160.969 160.624 160.788 160.472 160.737 160.408 160.688 
160.359 160.608 162.083 161.878 161.95 161.626 161.632 161.336 161.503 
161.3 161.615 161.368 161.645 161.294 161.484 161.127 161.296 162.526 
162.405 162.471 162.221 162.191 161.926 162.037 161.91 162.209 162.117 
162.372 162.148 162.26 161.947 162.034 161.739 161.881 162.881 162.779 
162.859 162.672 162.664 162.433 162.51 162.379 162.622 162.578 162.816 
162.702 162.798 162.581 162.631 162.397 162.51 162.288 162.455 157.023 
157.258 157.01 156.798 157.58 157.284 157.116 156.878 156.769 158.108 
157.699 157.5 157.213 157.117 156.912 156.846 158.806 158.323 158.086 
157.671 157.535 157.268 157.232 157.015 156.981 159.574 159.072 158.847 
158.343 158.171 157.778 157.774 157.495 157.575 157.278 157.367 160.342 
159.858 159.663 159.154 158.99 158.511 158.493 158.149 158.304 158.009 
158.187 157.843 158.013 161.037 160.602 160.429 159.974 159.854 159.38 
159.344 158.936 159.045 158.756 158.943 158.669 158.815 158.503 158.622 
161.673 161.273 161.124 160.715 160.633 160.228 160.223 159.814 159.873 
159.512 159.632 159.351 159.479 159.216 159.306 159.023 159.098 162.297 
161.923 161.803 161.404 161.328 160.966 160.989 160.651 160.728 160.36 
160.437 160.07 160.162 159.852 159.962 159.679 159.781 159.484 159.583 
156.793 156.528 156.51 156.299 156.509 156.347 156.077 156.047 155.987 
156.638 156.443 156.209 156.004 155.896 155.909 156.08 156.782 156.608 
156.507 156.302 156.247 156.046 156.113 156.134 156.343 157.119 156.831 
156.811 156.661 156.747 156.537 156.556 156.333 156.361 156.35 156.486 
157.75 157.331 157.291 157.06 157.195 157.033 157.074 156.807 156.717 
156.494 156.528 156.531 156.779 158.384 158.002 157.923 157.631 157.7 
157.497 157.524 157.264 157.163 156.882 156.887 156.755 157.022 157.043 
157.438 158.868 158.555 158.452 158.201 158.217 158.008 158.023 157.743 
157.667 157.347 157.354 157.174 157.422 157.401 157.775 157.791 158.117 
159.348 159.019 158.906 158.651 158.655 158.471 158.528 158.289 158.286 
157.944 157.934 157.664 157.804 157.743 158.01 158.063 158.312 158.349 
158.53 166.029 165.545 165.836 165.874 164.875 165.261 165.308 165.631 
165.618 164.148 164.534 164.601 164.99 164.994 165.298 165.213 163.489 
163.822 163.863 164.256 164.288 164.636 164.58 164.853 164.761 162.799 
163.138 163.116 163.508 163.52 163.906 163.864 164.19 164.107 164.406 
164.34 162.063 162.395 162.339 162.721 162.704 163.111 163.062 163.428 
163.325 163.679 163.591 163.955 163.885 161.374 161.67 161.592 161.929 
161.888 162.281 162.243 162.617 162.507 162.849 162.726 163.114 163.042 
163.45 163.396 160.693 160.991 160.881 161.187 161.096 161.461 161.414 
161.804 161.725 162.056 161.919 162.247 162.153 162.56 162.542 162.97 
162.966 159.99 160.291 160.182 160.473 160.356 160.673 160.589 160.966 
160.906 161.276 161.175 161.488 161.378 161.716 161.688 162.107 162.145 
162.577 162.608 
POINT_DATA 1002
SCALARS Distance double
LOOKUP_TABLE default
163.264 162.995 162.603 162.894 162.174 163.651 162.584 161.901 163.332 
164.021 162.37 161.74 163.051 163.739 164.371 162.111 161.468 162.749 
163.427 164.18 164.909 161.762 161.106 162.436 163.115 163.888 164.795 
165.566 161.441 160.82 162.153 162.918 163.635 164.448 165.344 166.001 
161.2 160.624 161.851 162.664 163.456 164.118 164.862 165.641 166.199 
161.038 160.469 161.601 162.277 163.096 163.837 164.47 165.182 165.881 
166.385 160.939 160.352 161.508 162.042 162.68 163.458 164.194 164.86 
165.559 166.19 166.641 162.632 162.128 162.258 161.628 161.721 161.601 
160.99 160.971 161.021 161.305 160.207 160.099 160.373 160.681 161.102 
159.421 159.253 159.704 160.045 160.393 160.759 158.768 158.565 159.098 
159.477 159.744 160.007 160.396 158.249 158.042 158.525 158.904 159.219 
159.404 159.693 160.151 157.754 157.566 157.945 158.236 158.636 158.95 
159.173 159.511 159.98 157.204 157.068 157.377 157.606 157.972 158.413 
158.754 159.032 159.396 159.855 156.568 156.74 156.11 156.515 156.04 
157.051 156.704 156.324 157.047 157.399 156.926 156.505 157.205 157.355 
157.78 156.957 156.611 157.225 157.253 157.542 158.191 157.195 157.09 
157.363 157.278 157.331 157.906 158.579 157.75 157.825 157.805 157.699 
157.53 157.82 158.454 158.981 158.279 158.378 158.267 158.227 158.065 
158.131 158.574 159.056 159.445 158.647 158.689 158.619 158.614 158.569 
158.628 158.947 159.328 159.627 159.954 160.656 160.273 161.054 160.012 
160.677 161.499 159.794 160.47 161.129 161.969 159.438 160.269 160.933 
161.668 162.524 159.1 159.868 160.666 161.463 162.332 163.122 158.982 
159.523 160.259 161.163 162.119 162.943 163.607 158.974 159.422 160.008 
160.855 161.86 162.698 163.361 164.014 158.982 159.425 159.941 160.644 
161.587 162.436 163.081 163.755 164.487 158.993 159.435 159.927 160.476 
161.239 162.067 162.75 163.443 164.244 164.977 161.337 161.84 161.968 
162.338 162.521 162.492 162.794 163.031 163.059 163.131 163.293 163.473 
163.627 163.758 163.96 163.825 163.98 164.17 164.402 164.601 164.739 
164.323 164.568 164.794 165.027 165.21 165.335 165.442 164.826 165.142 
165.454 165.718 165.849 165.914 166.022 166.132 165.32 165.641 166 
166.353 166.543 166.568 166.599 166.674 166.686 165.589 165.959 166.068 
166.589 166.617 166.359 167.344 167.35 167.129 166.801 168.116 168.04 
167.918 167.574 167.143 168.844 168.69 168.697 168.303 167.845 167.262 
169.642 169.341 169.623 169.18 168.562 167.936 167.259 170.121 169.59 
170.407 170.135 169.396 168.583 167.871 167.24 169.951 169.357 170.49 
170.581 170.042 169.171 168.352 167.702 167.17 169.544 169.092 170.083 
170.409 170.208 169.557 168.795 168.116 167.546 167.063 164.952 165.468 
164.737 165.151 164.394 165.832 164.857 164.138 165.538 166.387 164.757 
163.997 165.467 166.218 167.141 164.65 163.809 165.525 166.242 166.959 
167.804 164.407 163.617 165.374 166.207 166.852 167.588 168.467 164.211 
163.561 165.066 165.945 166.669 167.388 168.207 168.981 164.138 163.594 
164.819 165.611 166.375 167.091 167.829 168.501 169.001 164.091 163.602 
164.649 165.319 166.049 166.733 167.356 167.939 168.429 168.798 158.83 
159.286 159.008 159.712 159.432 159.859 160.303 160.11 160.373 160.36 
160.893 160.769 160.925 160.816 160.901 161.364 161.306 161.448 161.352 
161.31 161.624 161.843 161.87 161.959 162.006 161.899 161.989 162.375 
162.421 162.498 162.473 162.625 162.654 162.629 162.837 163.189 163.031 
163.094 163.001 163.116 163.288 163.374 163.522 163.835 164.121 158.523 
158.542 158.266 158.284 157.989 158.633 158.285 157.963 158.518 159.143 
158.629 158.274 158.858 159.225 159.987 159.004 158.593 159.353 159.628 
160.131 160.778 159.148 158.71 159.635 160.005 160.402 160.939 161.442 
159.23 158.835 159.783 160.294 160.71 161.171 161.66 162.096 159.504 
159.183 160.004 160.558 161.03 161.449 161.88 162.31 162.721 159.963 