# vtk DataFile Version 4.0
vtk output
ASCII
DATASET POLYDATA
POINTS 1002 float
-119.602 -102.611 50.0959 -119.801 -102.39 49.3764 -119.122 -102.553 49.4748 
-118.829 -102.726 50.2695 -118.223 -102.589 49.768 -119.3 -102.834 50.9159 
-117.92 -102.75 50.5507 -117.318 -102.614 50.1223 -118.463 -102.885 51.1061 
-118.997 -103.094 51.6178 -117.045 -102.831 50.9135 -116.472 -102.698 50.4893 
-117.607 -102.945 51.3658 -118.106 -103.106 51.9417 -118.674 -103.337 52.4101 
-116.132 -102.974 51.3433 -115.584 -102.78 50.8918 -116.771 -103.123 51.7531 
-117.332 -103.291 52.3199 -117.822 -103.503 52.9014 -118.368 -103.66 53.3587 
-115.193 -103.102 51.7246 -114.727 -102.863 51.2488 -115.812 -103.303 52.1811 
-116.543 -103.539 52.7189 -117.164 -103.883 53.2361 -117.731 -104.134 53.6211 
-118.242 -104.203 54.0242 -114.421 -103.239 52.0334 -113.966 -103.022 51.545 
-114.898 -103.463 52.5269 -115.588 -103.708 53.0502 -116.363 -104.118 53.4564 
-117.101 -104.535 53.7259 -117.738 -104.733 54.0581 -118.194 -104.758 54.5507 
-113.716 -103.375 52.3986 -113.218 -103.195 51.8921 -114.159 -103.638 52.8806 
-114.707 -103.945 53.3406 -115.399 -104.307 53.6654 -116.181 -104.654 53.9433 
-116.963 -104.905 54.38 -117.564 -105.04 54.9391 -118.003 -105.054 55.4545 
-112.982 -103.47 52.8156 -112.57 -103.279 52.3133 -113.4 -103.77 53.2546 
-113.925 -104.19 53.6332 -114.563 -104.617 53.9011 -115.253 -104.84 54.2289 
-116.009 -104.918 54.8716 -116.713 -105.074 55.633 -117.258 -105.206 56.184 
-117.741 -105.168 56.5001 -112.4 -103.535 53.2036 -112.139 -103.27 52.7534 
-112.674 -103.888 53.5561 -113.103 -104.346 53.8512 -113.764 -104.816 54.1152 
-114.503 -105.05 54.4771 -115.219 -105.01 55.186 -115.913 -105.072 56.086 
-116.524 -105.321 56.733 -117.051 -105.417 57.0448 -117.557 -105.258 57.2289 
-119.476 -102.18 48.9244 -118.679 -102.308 49.0753 -118.958 -101.692 48.7812 
-118.12 -101.829 48.9104 -118.391 -100.937 48.7755 -117.724 -102.356 49.3522 
-117.565 -101.13 48.8084 -117.872 -100.144 48.6245 -117.162 -101.99 48.9813 
-116.814 -102.453 49.5755 -117.073 -100.338 48.691 -117.434 -99.5551 48.2535 
-116.569 -101.432 48.7582 -116.196 -102.256 48.9948 -115.931 -102.573 49.8528 
-116.741 -99.5872 48.5225 -117.154 -99.1026 47.8127 -116.106 -100.615 48.8018 
-115.543 -101.825 48.8026 -115.239 -102.462 49.2525 -115.001 -102.627 50.2822 
-116.542 -98.9616 48.2385 -116.929 -98.6095 47.517 -115.904 -99.7212 48.7929 
-115.187 -100.975 48.9867 -114.642 -102.087 49.0903 -114.296 -102.548 49.6984 
-114.09 -102.736 50.675 -116.24 -98.5262 47.9651 -116.542 -98.1342 47.411 
-115.71 -99.1278 48.5453 -115.05 -100.075 49.0371 -114.396 -101.271 49.2212 
-113.781 -102.23 49.4129 -113.353 -102.704 50.0689 -113.224 -102.96 50.9986 
-115.811 -98.2201 47.8296 -116.034 -97.756 47.3651 -115.362 -98.8488 48.3311 
-114.779 -99.5731 48.9058 -114.194 -100.442 49.3043 -113.548 -101.485 49.4322 
-112.887 -102.377 49.7326 -112.524 -102.875 50.457 -112.506 -103.11 51.4004 
-115.438 -97.882 47.8086 -115.625 -97.405 47.344 -115.03 -98.54 48.2834 
-114.458 -99.2534 48.8185 -113.88 -99.9088 49.2903 -113.326 -100.681 49.541 
-112.726 -101.619 49.7621 -112.234 -102.407 50.2342 -112.043 -102.856 50.991 
-112.073 -103.083 51.9004 -115.28 -97.2805 47.7502 -114.915 -97.856 48.229 
-114.865 -97.1529 48.3236 -114.279 -97.7395 48.7243 -114.244 -97.1372 48.9136 
-114.343 -98.5922 48.7226 -113.542 -97.66 49.243 -113.569 -97.2687 49.5165 
-113.632 -98.4428 49.1418 -113.699 -99.3148 49.1996 -112.896 -97.7026 49.9265 
-113.019 -97.3659 50.2255 -112.954 -98.3128 49.6634 -113.013 -99.2034 49.5442 
-113.102 -99.9949 49.5658 -112.411 -97.7609 50.6821 -112.515 -97.357 50.9571 
-112.39 -98.3567 50.4381 -112.427 -99.1851 50.1819 -112.479 -100.02 50.0443 
-112.588 -100.804 49.9364 -111.994 -97.8239 51.4222 -112.073 -97.4243 51.7975 
-111.945 -98.4708 51.194 -111.966 -99.3123 51.0505 -112.08 -100.11 50.928 
-112.189 -100.841 50.7381 -112.195 -101.663 50.4396 -111.68 -98.0144 52.4177 
-111.886 -97.6928 52.8374 -111.56 -98.5839 51.9981 -111.586 -99.4055 51.799 
-111.762 -100.226 51.8236 -111.968 -100.902 51.7404 -112.016 -101.598 51.4022 
-111.944 -102.333 51.0655 -111.59 -98.371 53.5055 -111.959 -98.1017 53.7643 
-111.29 -98.7726 53.0353 -111.244 -99.4177 52.5963 -111.368 -100.241 52.5292 
-111.485 -101.025 52.5968 -111.589 -101.665 52.3916 -111.688 -102.246 52.0414 
-111.809 -102.758 51.8609 -111.703 -98.801 54.2568 -112.108 -98.5144 54.3663 
-111.257 -99.0923 53.9542 -111.064 -99.5041 53.4879 -111.062 -100.182 53.2415 
-110.901 -101.072 53.2971 -110.709 -101.844 53.2613 -110.89 -102.335 53.0165 
-111.348 -102.704 52.8039 -111.774 -103.036 52.7365 -111.943 -103.419 53.4752 
-111.441 -103.106 53.5653 -111.741 -103.642 54.1207 -110.619 -102.789 53.6731 
-111.081 -103.152 54.2699 -111.616 -103.823 54.7779 -109.927 -102.516 53.8404 
-110.103 -102.787 54.3424 -111.055 -103.116 54.8759 -111.66 -103.855 55.6639 
-110.081 -101.972 53.9944 -109.709 -102.56 54.4973 -110.446 -102.73 54.9353 
-111.439 -103.099 55.7134 -111.859 -103.756 56.7251 -110.738 -101.023 54.0032 
-110.343 -101.952 54.7508 -110.48 -102.504 55.3201 -111.2 -102.744 55.9753 
-111.807 -103.136 56.8696 -112.111 -103.601 57.6472 -111.045 -100.168 54.0679 
-111.015 -101.001 54.9151 -110.927 -101.834 55.8567 -111.082 -102.362 56.6505 
-111.525 -102.725 57.3571 -111.977 -103.129 57.9617 -112.377 -103.475 58.419 
-111.159 -99.7085 54.3703 -111.191 -100.331 55.0504 -111.114 -100.986 56.1245 
-110.968 -101.606 57.1828 -111.144 -102.137 57.9372 -111.651 -102.641 58.4554 
-112.186 -103.09 58.8477 -112.685 -103.395 59.227 -111.537 -99.4187 54.66 
-111.41 -99.9822 55.2259 -111.243 -100.444 56.2035 -110.999 -100.884 57.3088 
-110.992 -101.42 58.1542 -111.411 -102.034 58.772 -111.974 -102.603 59.2613 
-112.482 -103.02 59.6563 -113.014 -103.272 60.0059 -112.002 -99.0884 54.7871 
-111.822 -99.6315 55.3552 -111.583 -100.058 56.2656 -111.318 -100.386 57.3196 
-111.217 -100.806 58.1674 -111.463 -101.419 58.8535 -111.9 -102.058 59.4957 
-112.315 -102.541 60.003 -112.766 -102.858 60.3502 -113.33 -103.07 60.6069 
-112.131 -103.879 53.7945 -111.905 -104.335 54.3778 -112.316 -104.415 54.0271 
-111.749 -104.644 55.2853 -112.024 -104.934 54.7064 -112.798 -104.875 54.3141 
-111.771 -104.593 56.5156 -111.888 -105.11 55.9198 -112.594 -105.123 55.2155 
-113.638 -105.09 54.7502 -112.066 -104.266 57.5294 -112.103 -104.903 57.1959 
-112.627 -105.064 56.551 -113.608 -104.987 55.8942 -114.534 -105.024 55.4656 
-112.501 -103.917 58.2223 -112.622 -104.533 58.0323 -112.98 -104.957 57.6906 
-113.711 -104.94 57.1669 -114.588 -104.912 56.6542 -115.309 -105.033 56.3573 
-112.926 -103.706 58.9896 -113.15 -104.183 58.7696 -113.448 -104.773 58.5516 
-113.931 -105.025 58.2287 -114.624 -105.014 57.682 -115.368 -105.188 57.1899 
-115.983 -105.369 56.9919 -113.343 -103.565 59.8367 -113.609 -103.93 59.6315 
-113.85 -104.477 59.4075 -114.191 -104.911 59.1777 -114.715 -105.016 58.7159 
-115.399 -105.214 57.9614 -116.068 -105.572 57.43 -116.587 -105.64 57.2851 
-113.738 -103.383 60.5199 -114.038 -103.738 60.4039 -114.199 -104.23 60.2312 
-114.423 -104.712 60.0404 -114.875 -104.878 59.7546 -115.5 -104.958 59.0953 
-116.156 -105.315 58.2266 -116.703 -105.61 57.705 -117.132 -105.514 57.5221 
-113.938 -103.056 61.0637 -114.345 -103.436 61.0497 -114.501 -103.124 61.6356 
-114.752 -103.629 61.7905 -114.873 -103.267 62.4405 -114.506 -103.956 61.0413 
-115.003 -103.908 62.8069 -115.291 -103.317 63.2694 -114.738 -104.371 62.0107 
-114.577 -104.58 60.9663 -115.52 -103.998 63.589 -115.998 -103.193 63.8089 
-115.05 -104.755 63.1436 -114.932 -105.047 62.0128 -114.967 -104.918 60.7786 
-116.366 -103.83 63.7937 -116.775 -103.084 64.0979 -115.816 -104.717 63.6929 
-115.58 -105.265 62.9509 -115.672 -105.14 61.6266 -115.67 -104.858 60.3265 
-117.262 -103.705 63.8731 -117.521 -103.116 64.2551 -116.858 -104.423 63.7087 
-116.559 -105.026 63.2958 -116.511 -105.143 62.2289 -116.498 -104.898 60.9 
-116.355 -104.938 59.4797 -118.202 -103.7 64.0654 -118.351 -103.098 64.2233 
-117.949 -104.343 63.8652 -117.673 -104.828 63.4762 -117.422 -105.009 62.5581 
-117.195 -104.908 61.3405 -117.034 -104.887 59.9933 -116.894 -105.225 58.6206 
-119.089 -103.556 64.0584 -119.095 -102.86 63.9855 -118.981 -104.349 64.0081 
-118.784 -104.923 63.7012 -118.466 -105.09 62.8708 -118.001 -105 61.6839 
-117.619 -104.89 60.4562 -117.465 -104.98 59.1873 -117.342 -105.28 58.1173 
-119.664 -103.219 63.7214 -119.561 -102.515 63.606 -119.696 -104.103 63.7488 
-119.613 -104.873 63.5623 -119.406 -105.191 62.9394 -118.991 -105.146 61.8969 
-118.462 -105.028 60.7466 -118.124 -104.948 59.6122 -117.977 -104.977 58.5425 
-117.796 -105.125 57.7438 -113.26 -102.704 60.9602 -113.885 -102.714 61.4519 
-113.26 -102.295 61.2869 -113.894 -102.344 61.8853 -113.396 -101.788 61.5474 
-114.422 -102.813 62.1481 -113.993 -101.782 62.2549 -113.556 -101.09 61.7207 
-114.328 -102.409 62.7366 -114.809 -102.866 62.9935 -114.056 -100.93 62.4765 
-113.678 -100.349 61.8087 -114.309 -101.685 63.138 -114.702 -102.334 63.5511 
-115.397 -102.735 63.7371 -114.165 -100.11 62.5555 -113.967 -99.851 61.6941 
-114.424 -100.71 63.2455 -114.801 -101.573 63.7166 -115.461 -102.174 64.1345 
-116.23 -102.569 64.3014 -114.563 -99.7042 62.3259 -114.498 -99.5953 61.291 
-114.772 -99.968 63.169 -115.206 -100.732 63.5377 -115.786 -101.575 63.9308 
-116.415 -102.109 64.4774 -117.007 -102.579 64.5699 -115.129 -99.5677 61.718 
-115.009 -99.2942 60.8387 -115.315 -99.7273 62.6925 -115.728 -100.127 63.2859 
-116.301 -100.85 63.517 -116.81 -101.545 63.9282 -117.271 -102.127 64.3686 
-117.794 -102.645 64.4051 -115.549 -99.2454 61.1387 -115.313 -98.7732 60.6173 
-115.836 -99.6314 61.8185 -116.22 -99.883 62.6357 -116.739 -100.202 63.2287 
-117.256 -100.718 63.4943 -117.679 -101.399 63.7191 -118.115 -102.058 63.9415 
-118.612 -102.51 64.0259 -115.768 -98.6157 60.9103 -115.484 -98.1636 60.5586 
-116.189 -99.2143 61.1503 -116.651 -99.6728 61.6755 -117.115 -99.8696 62.5508 
[...]
CELL_DATA 2000
SCALARS Distance double
LOOKUP_TABLE default
164.1 163.656 164.025 164.272 163.117 163.517 163.772 164.158 164.413 
162.64 163.003 163.269 163.638 163.901 164.29 164.57 162.2 162.559 
162.851 163.198 163.509 163.843 164.172 164.51 164.838 161.745 162.111 
162.41 162.79 163.151 163.523 163.933 164.247 164.657 164.909 165.275 
161.364 161.689 161.991 162.347 162.709 163.133 163.571 163.999 164.447 
164.791 165.193 165.425 165.765 161.052 161.358 161.676 161.985 162.342 
162.71 163.129 163.566 164.001 164.455 164.861 165.256 165.602 165.88 
166.162 160.757 161.054 161.365 161.682 162.038 162.389 162.802 163.174 
163.587 163.977 164.381 164.811 165.209 165.606 165.937 166.216 166.457 
160.536 160.781 161.071 161.358 161.686 162.049 162.451 162.852 163.262 
163.625 164.002 164.368 164.777 165.188 165.601 165.953 166.263 166.489 
166.687 163.863 163.259 163.545 163.413 162.474 162.857 162.754 163.023 
162.866 161.587 162.024 161.966 162.314 162.198 162.481 162.369 160.724 
161.136 161.102 161.496 161.421 161.775 161.691 162.002 161.913 160.002 
160.325 160.278 160.643 160.597 160.981 160.93 161.286 161.211 161.528 
161.449 159.406 159.662 159.586 159.879 159.84 160.194 160.182 160.534 
160.482 160.802 160.735 161.065 161.037 158.829 159.081 158.995 159.244 
159.196 159.499 159.505 159.835 159.809 160.104 160.031 160.341 160.312 
160.678 160.7 158.24 158.508 158.461 158.696 158.655 158.906 158.894 
159.189 159.168 159.458 159.388 159.666 159.616 159.952 159.98 160.362 
160.418 157.699 157.96 157.97 158.204 158.191 158.408 158.371 158.605 
158.556 158.823 158.771 159.046 159.016 159.308 159.345 159.681 159.774 
160.128 160.223 157.457 157.229 157.466 157.719 156.941 157.181 157.392 
157.693 157.932 156.635 156.821 156.966 157.298 157.534 157.867 158.089 
156.45 156.533 156.617 156.865 157.09 157.428 157.669 157.997 158.23 
156.346 156.399 156.476 156.612 156.835 157.066 157.35 157.615 157.891 
158.178 158.452 156.296 156.325 156.446 156.545 156.802 156.957 157.302 
157.465 157.816 157.977 158.299 158.487 158.775 156.497 156.394 156.535 
156.558 156.832 156.977 157.37 157.54 157.949 158.062 158.412 158.488 
158.782 158.881 159.158 157.004 156.769 156.874 156.743 156.953 157.018 
157.379 157.585 157.99 158.183 158.509 158.624 158.876 158.958 159.206 
159.306 159.586 157.599 157.35 157.412 157.171 157.282 157.195 157.459 
157.579 157.924 158.129 158.396 158.582 158.768 158.947 159.157 159.334 
159.598 159.749 160.032 160.245 159.774 160.138 160.413 159.205 159.558 
159.755 160.245 160.574 158.726 158.952 159.017 159.466 159.771 160.389 
160.83 158.427 158.571 158.633 158.852 159.14 159.611 160.14 160.742 
161.274 158.107 158.343 158.565 158.711 159.067 159.278 159.828 160.22 
160.842 161.294 161.78 157.735 158.037 158.388 158.679 159.106 159.348 
159.824 160.094 160.617 160.973 161.466 161.819 162.205 157.598 157.786 
158.167 158.467 158.891 159.239 159.619 159.964 160.322 160.707 161.11 
161.513 161.919 162.257 162.626 157.749 157.824 158.19 158.345 158.73 
158.976 159.311 159.607 159.91 160.282 160.664 161.108 161.555 161.963 
162.378 162.703 163.071 157.93 158.018 158.344 158.442 158.772 158.905 
159.213 159.374 159.677 159.918 160.322 160.697 161.201 161.616 162.079 
162.433 162.8 163.114 163.434 160.548 160.762 160.79 161.068 161.029 
161.05 161.337 161.328 161.658 161.362 161.376 161.699 161.64 161.953 
161.981 162.411 161.761 161.76 162.11 162.035 162.323 162.301 162.711 
162.793 163.242 162.156 162.157 162.512 162.465 162.766 162.698 163.063 
163.098 163.552 163.614 164.011 162.522 162.513 162.873 162.871 163.245 
163.187 163.559 163.503 163.934 163.948 164.403 164.405 164.804 162.942 
162.89 163.258 163.25 163.686 163.684 164.111 164.045 164.433 164.379 
164.816 164.827 165.284 165.261 165.646 163.404 163.353 163.725 163.683 
164.107 164.119 164.559 164.554 164.915 164.861 165.208 165.217 165.64 
165.696 166.085 166.058 166.323 163.788 163.8 164.181 164.158 164.541 
164.533 164.933 164.948 165.309 165.282 165.583 165.563 165.901 165.968 
166.324 166.384 166.629 166.594 166.734 164.084 164.706 164.448 164.532 
165.36 165.102 165.203 164.891 164.924 166.028 165.784 165.928 165.606 
165.662 165.292 165.309 166.679 166.472 166.698 166.399 166.521 166.107 
166.122 165.696 165.68 167.264 167.098 167.355 167.163 167.359 167.016 
167.051 166.571 166.496 166.032 165.961 167.848 167.668 167.913 167.765 
167.994 167.78 167.845 167.459 167.342 166.858 166.715 166.282 166.242 
168.473 168.3 168.6 168.392 168.668 168.417 168.524 168.167 168.049 
167.61 167.408 166.997 166.886 166.565 166.58 168.93 168.902 169.276 
169.147 169.486 169.215 169.364 168.925 168.816 168.297 168.063 167.613 
167.434 167.118 167.052 166.835 166.825 169.041 169.198 169.56 169.665 
169.993 169.943 170.081 169.774 169.646 169.127 168.856 168.311 168.081 
167.655 167.531 167.244 167.184 166.982 166.926 163.887 163.759 164.045 
164.5 163.652 163.944 164.426 164.696 165.16 163.479 163.836 164.328 
164.625 165.082 165.347 165.792 163.149 163.572 164.046 164.445 164.886 
165.225 165.665 165.966 166.41 162.856 163.195 163.624 164.052 164.513 
164.948 165.441 165.818 166.314 166.604 167.039 162.809 162.996 163.393 
163.682 164.175 164.577 165.156 165.584 166.163 166.516 167.011 167.244 
167.648 162.861 163.026 163.419 163.601 164.079 164.365 164.943 165.331 
165.918 166.322 166.834 167.171 167.59 167.834 168.207 162.763 163.017 
163.401 163.638 164.072 164.332 164.828 165.153 165.655 166.031 166.489 
166.887 167.297 167.662 168.008 168.309 168.603 162.509 162.813 163.174 
163.507 163.919 164.246 164.686 165.008 165.436 165.759 166.151 166.506 
166.886 167.279 167.621 167.985 168.234 168.551 168.722 158.069 158.317 
158.307 158.494 158.557 158.54 158.776 158.741 158.92 158.982 158.85 
159.08 159.024 159.246 159.177 159.337 159.608 159.381 159.559 159.391 
159.589 159.501 159.702 159.607 159.786 160.255 160.033 160.174 159.928 
160.041 159.87 160.07 159.991 160.266 160.156 160.451 160.825 160.639 
160.782 160.539 160.611 160.358 160.494 160.376 160.699 160.668 161.069 
160.961 161.337 161.34 161.18 161.347 161.135 161.25 160.968 161.087 
160.865 161.15 161.103 161.538 161.536 161.94 161.849 162.176 161.798 
161.684 161.894 161.718 161.891 161.636 161.792 161.524 161.781 161.629 
162.033 161.99 162.404 162.356 162.68 162.591 162.861 162.192 162.132 
162.398 162.274 162.482 162.276 162.438 162.208 162.44 162.28 162.65 
162.555 162.962 162.853 163.187 163.061 163.341 163.229 163.489 157.823 
157.497 157.801 158.057 157.303 157.503 157.785 158.035 158.312 157.479 
157.472 157.764 157.877 158.206 158.392 158.769 157.887 157.801 158.073 
158.044 158.374 158.424 158.807 158.966 159.407 158.107 158.15 158.404 
158.414 158.706 158.695 159.004 159.066 159.452 159.634 160.057 158.105 
158.237 158.506 158.63 158.915 158.98 159.23 159.265 159.567 159.692 
160.09 160.274 160.657 158.187 158.271 158.591 158.694 159.011 159.108 
159.375 159.433 159.707 159.807 160.18 160.338 160.729 160.866 161.193 
158.385 158.444 158.793 158.854 159.19 159.243 159.539 159.575 159.865 
159.941 160.302 160.442 160.82 160.949 161.251 161.358 161.619 158.566 
158.634 158.948 159.047 159.365 159.446 159.739 159.778 160.067 160.118 
160.464 160.573 160.934 161.042 161.318 161.398 161.612 161.726 161.965 
158.755 159.166 158.981 159.105 159.798 159.456 159.545 159.378 159.539 
160.679 160.212 160.22 159.895 160.017 159.828 159.946 161.507 161.105 
161.056 160.638 160.654 160.358 160.456 160.233 160.315 162.16 161.844 
161.814 161.427 161.379 161.024 161.076 160.804 160.919 160.652 160.75 
162.868 162.517 162.537 162.15 162.13 161.746 161.797 161.483 161.616 
161.325 161.434 161.127 161.202 163.607 163.267 163.287 162.908 162.909 
162.518 162.577 162.24 162.373 162.063 162.148 161.81 161.81 161.509 
161.517 164.17 163.916 163.901 163.613 163.599 163.274 163.299 162.992 
163.083 162.8 162.86 162.517 162.464 162.094 162.025 161.749 161.764 
164.591 164.37 164.346 164.131 164.14 163.895 163.916 163.644 163.688 
163.433 163.482 163.192 163.162 162.777 162.693 162.311 162.3 162.029 
162.115 164.807 165.086 164.812 164.571 165.454 165.167 164.971 164.649 
164.433 165.865 165.604 165.489 165.143 164.922 164.533 164.261 166.332 
166.05 165.949 165.65 165.416 165.034 164.7 164.315 164.014 166.905 
166.552 166.378 166.057 165.802 165.461 165.118 164.739 164.398 164.058 
163.781 167.469 167.122 166.899 166.509 166.24 165.854 165.565 165.171 
164.863 164.47 164.157 163.808 163.48 167.888 167.615 167.41 167.042 
166.77 166.357 166.085 165.678 165.403 164.982 164.656 164.224 163.838 
163.443 163.042 168.228 167.987 167.81 167.506 167.231 166.863 166.545 
166.179 165.869 165.5 165.154 164.731 164.324 163.863 163.442 163.016 
162.656 168.584 168.331 168.152 167.871 167.589 167.253 166.892 166.552 
166.191 165.874 165.512 165.162 164.764 164.35 163.944 163.497 163.138 
162.723 162.454 165.077 165.657 165.356 165.362 166.26 165.983 165.947 
165.626 165.638 166.745 166.573 166.559 166.21 166.108 165.856 165.934 
167.142 167.051 167.143 166.823 166.692 166.326 166.311 166.17 166.383 
167.511 167.48 167.678 167.432 167.338 166.918 166.817 166.576 166.767 
166.715 167.016 167.744 167.809 168.039 167.941 167.868 167.511 167.311 
167.037 167.133 167.104 167.418 167.383 167.62 167.814 167.925 168.128 
168.177 168.136 167.925 167.685 167.428 167.429 167.408 167.713 167.751 
168.015 167.919 168.042 167.887 167.937 168.084 168.163 168.178 168.101 
167.952 167.747 167.739 167.679 167.982 168.037 168.366 168.305 168.466 
168.299 168.386 168.037 168.014 168.081 168.101 168.124 168.122 168.091 
167.998 168.035 167.981 168.24 168.302 168.656 168.665 168.898 168.759 
168.883 168.677 168.772 164.996 164.941 165.162 165.543 164.754 165.036 
165.419 165.705 166.096 164.566 164.835 165.2 165.503 165.879 166.185 
166.522 164.392 164.678 165.056 165.31 165.685 165.951 166.292 166.557 
166.87 164.111 164.485 164.898 165.183 165.579 165.827 166.215 166.415 
166.738 166.929 167.233 163.711 164.157 164.59 164.957 165.332 165.669 
166.086 166.384 166.756 166.911 167.156 167.287 167.501 163.263 163.725 
164.153 164.572 164.905 165.299 165.664 166.115 166.528 166.872 167.13 
167.261 167.381 167.491 167.622 162.837 163.26 163.656 164.086 164.411 
164.81 165.129 165.589 165.985 166.473 166.797 167.11 167.248 167.388 
167.482 167.606 167.747 162.496 162.846 163.206 163.592 163.936 164.324 
164.671 165.076 165.455 165.903 166.25 166.655 166.868 167.147 167.277 
167.471 167.627 167.779 167.942 162.457 162.591 162.727 163.126 162.742 
162.891 163.335 163.434 163.858 162.953 163.119 163.672 163.739 164.208 
164.228 164.653 163.154 163.362 163.959 164.102 164.595 164.634 165.042 
165.04 165.437 163.287 163.504 164.016 164.262 164.703 164.894 165.253 
165.363 165.696 165.772 166.136 163.462 163.592 164.005 164.212 164.607 
164.852 165.226 165.437 165.778 165.927 166.256 166.389 166.715 163.75 
163.779 164.12 164.217 164.597 164.78 165.221 165.423 165.85 165.995 
166.367 166.479 166.82 166.923 167.205 164.048 164.055 164.318 164.354 
164.671 164.817 165.25 165.471 165.919 166.096 166.47 166.596 166.942 
167.054 167.378 167.426 167.653 164.226 164.282 164.499 164.527 164.771 
164.878 165.233 165.458 165.853 166.093 166.416 166.616 166.917 167.117 
167.447 167.596 167.861 167.871 168.008 164.328 164.547 164.528 164.642 
164.771 164.791 164.988 164.859 164.959 164.988 165.066 165.397 165.3 
165.469 165.258 165.425 165.187 165.277 165.686 165.728 165.987 165.825 
165.965 165.776 165.98 165.488 165.471 165.796 165.921 166.232 166.257 
166.406 166.276 166.393 166.286 166.483 165.942 165.815 166.018 166.016 
166.281 166.373 166.598 166.608 166.759 166.674 166.863 166.779 167.014 
166.385 166.28 166.483 166.349 166.549 166.483 166.707 166.73 166.969 
166.988 167.238 167.198 167.469 167.369 167.603 166.69 166.672 166.942 
166.859 167.087 166.912 167.06 166.921 167.08 167.104 167.335 167.449 
167.704 167.765 167.976 167.914 168.024 166.881 166.915 167.206 167.251 
167.555 167.474 167.622 167.383 167.388 167.224 167.282 167.368 167.537 
167.758 167.929 168.086 168.167 168.167 168.142 168.149 168.138 168.145 
168.101 167.873 168.001 167.96 168.054 168.057 167.493 167.659 167.675 
167.849 167.931 168.045 168.082 167.346 167.389 167.497 167.617 167.822 
167.961 168.141 168.148 168.194 167.627 167.526 167.744 167.672 167.941 
167.97 168.247 168.279 168.475 168.382 168.483 167.953 167.953 168.237 
168.129 168.398 168.282 168.551 168.488 168.75 168.705 168.92 168.791 
168.902 167.834 168.084 168.324 168.478 168.703 168.73 168.965 168.903 
169.179 169.09 169.376 169.252 169.422 169.202 169.188 167.395 167.719 
167.87 168.226 168.39 168.713 168.925 169.15 169.438 169.53 169.839 
169.774 169.964 169.737 169.716 169.388 169.221 167.026 167.248 167.35 
167.648 167.769 168.155 168.343 168.791 169.074 169.496 169.797 170.048 
170.205 170.185 170.113 169.871 169.646 169.325 169.082 157.597 158.211 
157.829 157.701 158.855 158.505 158.445 158.023 157.96 159.436 159.137 
159.088 158.745 158.693 158.331 158.357 160.009 159.699 159.642 159.33 
159.261 158.967 158.961 158.714 158.815 160.711 160.319 160.274 159.907 
159.869 159.535 159.54 159.26 159.343 159.144 159.296 161.582 161.119 
161.086 160.633 160.633 160.237 160.286 159.924 160.022 159.721 159.896 
159.669 159.88 162.511 162.056 162.044 161.538 161.536 161.084 161.148 
160.747 160.848 160.485 160.66 160.371 160.629 160.365 160.621 163.339 
162.975 162.999 162.524 162.518 162.036 162.096 161.66 161.776 161.365 
161.528 161.185 161.434 161.167 161.444 161.163 161.388 163.952 163.714 
163.754 163.404 163.392 162.981 163.022 162.619 162.754 162.348 162.53 
162.121 162.335 161.991 162.231 161.952 162.163 161.88 162.038 157.256 
157.243 157.03 156.687 157.454 157.059 156.559 156.4 156.13 157.956 
157.423 156.869 156.4 156.019 155.908 155.821 158.589 158.087 157.664 
156.979 156.562 156.071 155.986 155.847 155.964 159.143 158.766 158.533 
157.932 157.591 156.906 156.764 156.336 156.488 156.255 156.422 159.68 
159.316 159.156 158.75 158.521 157.963 157.768 157.255 157.297 156.958 
157.112 156.808 156.911 160.365 159.909 159.732 159.343 159.189 158.774 
158.612 158.164 158.113 157.759 157.85 157.541 157.629 157.304 157.4 
161.124 160.643 160.456 160.001 159.89 159.467 159.383 158.943 158.895 
158.512 158.578 158.269 158.37 158.039 158.112 157.798 157.923 161.8 
161.377 161.205 160.765 160.677 160.257 160.233 159.782 159.756 159.309 
159.346 158.997 159.1 158.782 158.844 158.504 158.547 158.28 158.394 
157.19 156.72 156.998 157.028 156.276 156.579 156.721 156.892 156.853 
155.956 156.188 156.409 156.638 156.708 156.752 156.653 155.916 155.934 
156.066 156.309 156.472 156.642 156.648 156.615 156.514 156.195 155.98 
155.935 156.003 156.167 156.394 156.545 156.63 156.587 156.504 156.388 
156.655 156.325 156.23 156.055 156.213 156.258 156.53 156.592 156.672 
156.582 156.465 156.354 156.283 157.194 156.842 156.804 156.523 156.709 
156.574 156.897 156.809 156.975 156.776 156.702 156.481 156.419 156.333 
156.45 157.775 157.444 157.441 157.154 157.307 157.143 157.417 157.306 
157.471 157.228 157.158 156.832 156.755 156.564 156.698 156.669 156.952 
158.306 158.043 158.053 157.782 157.855 157.668 157.833 157.746 157.889 
157.724 157.68 157.357 157.243 156.967 157.034 156.956 157.218 157.243 
157.544 164.686 164.224 164.519 164.607 163.608 163.97 164.017 164.359 
164.411 162.828 163.229 163.251 163.677 163.734 164.125 164.2 162.123 
162.44 162.438 162.849 162.926 163.384 163.474 163.899 163.979 161.503 
161.803 161.78 162.099 162.155 162.571 162.667 163.112 163.16 163.603 
163.641 160.703 161.125 161.112 161.467 161.471 161.84 161.9 162.311 
162.342 162.746 162.733 163.185 163.209 159.811 160.249 160.277 160.717 
160.716 161.114 161.118 161.535 161.561 161.957 161.934 162.306 162.287 
162.738 162.777 159.132 159.435 159.478 159.882 159.918 160.311 160.283 
160.693 160.689 161.141 161.143 161.54 161.5 161.875 161.879 162.33 
162.393 158.669 158.861 158.854 159.168 159.201 159.546 159.507 159.851 
159.793 160.222 160.221 160.691 160.677 161.089 161.065 161.481 161.533 
161.994 162.088 
POINT_DATA 1002
SCALARS Distance double
LOOKUP_TABLE default
164.36 164.151 163.79 163.926 163.252 164.531 163.374 162.725 164.019 
164.691 162.91 162.286 163.524 164.162 164.86 162.484 161.831 163.16 
163.844 164.511 165.144 162.019 161.388 162.729 163.567 164.389 165.072 
165.608 161.66 161.046 162.296 163.105 164.042 164.913 165.595 166.093 
161.369 160.742 162.002 162.731 163.551 164.41 165.261 165.953 166.441 
161.051 160.479 161.678 162.436 163.24 163.972 164.762 165.606 166.256 
166.677 160.815 160.316 161.347 162.035 162.882 163.664 164.373 165.198 
166 166.535 166.852 163.65 163.197 162.929 162.446 162.048 162.622 
161.579 161.135 161.876 162.096 160.696 160.342 161.033 161.354 161.626 
159.939 159.727 160.203 160.557 160.879 161.131 159.322 159.171 159.498 
159.824 160.167 160.4 160.677 158.752 158.565 158.914 159.177 159.516 
159.746 159.948 160.312 158.21 157.947 158.424 158.629 158.876 159.114 
159.307 159.596 160.033 157.724 157.427 157.978 158.172 158.313 158.481 
158.719 159.023 159.416 159.874 157.221 157.455 157.014 157.074 156.736 
157.648 156.654 156.517 157.173 157.783 156.431 156.406 156.769 157.33 
157.897 156.361 156.274 156.639 157.102 157.62 158.159 156.343 156.274 
156.637 157.132 157.676 158.154 158.586 156.566 156.653 156.697 157.165 
157.814 158.359 158.725 159.036 157.089 157.27 156.97 157.195 157.778 
158.379 158.79 159.116 159.469 157.692 157.837 157.457 157.421 157.764 
158.233 158.579 158.937 159.421 159.907 160.513 159.995 160.731 159.259 
160.011 160.982 158.663 159.128 160.176 161.334 158.473 158.764 159.529 
160.716 161.774 158.327 158.898 159.541 160.416 161.395 162.172 158.022 
158.816 159.608 160.327 161.111 161.893 162.55 157.916 158.563 159.295 
159.958 160.684 161.537 162.329 163.001 158.099 158.558 159.071 159.57 
160.205 161.103 162.026 162.781 163.432 158.263 158.671 159.088 159.482 
159.98 160.782 161.718 162.492 163.128 163.743 161.044 161.375 161.593 
161.772 161.952 162.317 162.176 162.383 162.637 163.18 162.523 162.839 
163.077 163.479 163.999 162.845 163.252 163.647 163.957 164.368 164.844 
163.277 163.654 164.155 164.533 164.813 165.268 165.742 163.781 164.119 
164.549 164.976 165.239 165.573 166.079 166.434 164.188 164.574 164.931 
165.319 165.632 165.879 166.254 166.639 166.815 164.322 164.834 164.964 
165.509 165.61 165.266 166.234 166.241 166.043 165.679 166.941 166.857 
166.92 166.6 166.091 167.498 167.438 167.629 167.53 167.025 166.374 
168.071 168.036 168.171 168.183 167.826 167.179 166.596 168.794 168.591 
168.936 168.898 168.495 167.829 167.219 166.848 169.322 168.877 169.711 
169.811 169.385 168.571 167.793 167.291 167.02 169.395 168.853 169.964 
170.307 170.127 169.428 168.571 167.882 167.422 167.112 163.597 164.216 
163.463 164.155 163.34 164.908 164.014 163.084 164.815 165.526 163.618 
162.747 164.508 165.336 166.133 163.223 162.6 164.032 165.001 165.986 
166.823 163.166 162.664 163.793 164.7 165.767 166.739 167.471 163.249 
162.67 163.844 164.601 165.527 166.461 167.303 167.996 163.132 162.487 
163.822 164.551 165.333 166.107 166.9 167.688 168.342 162.822 162.219 
163.569 164.367 165.141 165.836 166.51 167.248 167.927 168.435 158.108 
158.55 158.293 158.777 158.602 159.002 159.172 159.173 159.294 159.443 
159.798 159.853 159.709 159.767 159.899 160.448 160.464 160.278 160.137 
160.308 160.592 161.005 161.006 160.894 160.662 160.686 161.106 161.51 
161.531 161.484 161.508 161.35 161.249 161.517 161.992 162.32 162.038 
161.873 162.115 162.051 161.975 162.12 162.462 162.759 162.962 157.525 
157.77 157.197 157.544 157.169 158.043 157.705 157.565 158.045 158.533 
158.134 157.965 158.383 158.695 159.195 158.352 158.005 158.727 159.009 
159.309 159.855 158.355 157.957 158.813 159.206 159.478 159.915 160.503 
158.503 158.101 158.916 159.306 159.617 160.029 160.596 161.089 158.731 
158.325 159.146 159.508 159.803 160.178 160.701 161.164 161.501 158.848 