# vtk DataFile Version 4.0
vtk output
ASCII
DATASET POLYDATA
POINTS 1002 float
-118.504 -100.616 46.9564 -118.543 -100.349 46.3594 -117.921 -100.449 46.5117 
-117.775 -100.787 47.1119 -117.161 -100.661 46.6234 -118.422 -101.035 47.4539 
-116.892 -101.043 47.2479 -116.384 -100.806 46.8948 -117.609 -101.253 47.633 
-118.264 -101.552 47.952 -116.085 -101.149 47.6112 -115.742 -100.735 47.48 
-116.703 -101.519 47.8086 -117.451 -101.736 48.2217 -118.033 -101.956 48.6389 
-115.433 -101.078 48.198 -115.104 -100.711 48.0521 -115.862 -101.636 48.1694 
-116.62 -101.986 48.4441 -117.306 -102.113 48.9738 -117.846 -102.286 49.4325 
-114.724 -101.338 48.5096 -114.306 -101.124 48.2269 -115.09 -101.728 48.6361 
-115.752 -102.149 48.8088 -116.579 -102.347 49.2728 -117.218 -102.475 49.8219 
-117.782 -102.67 50.3084 -113.87 -102.082 48.4479 -113.414 -101.785 48.2155 
-114.393 -102.184 48.8614 -114.973 -102.331 49.2649 -115.755 -102.499 49.716 
-116.535 -102.63 50.285 -117.172 -102.833 50.8037 -117.739 -103.045 51.27 
-113.011 -102.636 48.4894 -112.599 -102.176 48.3622 -113.761 -102.675 48.9468 
-114.479 -102.567 49.5464 -115.071 -102.605 50.1005 -115.742 -102.74 50.7318 
-116.435 -102.916 51.3212 -117.066 -103.159 51.7103 -117.634 -103.362 52.0622 
-112.404 -102.568 48.8086 -112.086 -102.104 48.6867 -113.18 -102.639 49.1803 
-114.09 -102.493 49.7314 -114.652 -102.528 50.2777 -115.054 -102.815 50.9303 
-115.624 -103.092 51.6435 -116.267 -103.276 52.0985 -116.907 -103.436 52.3786 
-117.526 -103.547 52.7599 -112.205 -102.126 49.2668 -111.971 -101.749 49.1106 
-112.797 -102.238 49.5639 -113.665 -102.153 49.9995 -114.297 -102.211 50.4828 
-114.569 -102.645 51.0926 -114.929 -103.201 51.8413 -115.504 -103.501 52.4151 
-116.138 -103.553 52.7493 -116.815 -103.547 53.1461 -117.481 -103.537 53.7061 
-118.209 -100.091 45.8405 -117.58 -100.221 45.957 -117.889 -99.7061 45.3611 
-117.251 -99.8276 45.5152 -117.552 -99.2833 44.9412 -116.847 -100.418 46.102 
-116.798 -99.3894 45.1591 -117.042 -99.0329 44.3822 -116.482 -100.043 45.673 
-116.079 -100.531 46.4417 -116.158 -99.1521 44.6099 -116.375 -98.8883 43.7201 
-115.938 -99.6895 45.2796 -115.567 -100.317 45.8867 -115.306 -100.539 47.0127 
-115.605 -98.915 44.0476 -115.891 -98.4622 43.4114 -115.425 -99.36 44.8771 
-115 -100.082 45.4405 -114.613 -100.515 46.3453 -114.512 -100.626 47.5631 
-115.4 -98.2815 43.9582 -115.709 -97.6035 43.5478 -115.209 -98.7537 44.713 
-114.773 -99.4989 45.3511 -114.182 -100.245 45.9888 -113.934 -100.496 47.0488 
-113.787 -100.89 47.9238 -115.396 -97.3866 44.2168 -115.589 -96.6063 43.7413 
-115.213 -97.9274 44.8562 -114.767 -98.6017 45.4911 -114.109 -99.5354 46.0106 
-113.704 -100.068 46.7584 -113.498 -100.389 47.6655 -113.073 -101.209 48.1695 
-115.359 -96.6071 44.4531 -115.434 -95.8059 43.8743 -115.243 -97.2484 45.0637 
-114.753 -97.8467 45.6007 -113.997 -98.7451 46.0416 -113.488 -99.5224 46.5437 
-113.257 -99.8741 47.2957 -112.883 -100.446 48.0132 -112.368 -101.396 48.4086 
-115.244 -96.027 44.6459 -115.324 -95.277 44.1044 -115.186 -96.7526 45.23 
-114.724 -97.3501 45.6781 -113.871 -98.1079 46.0233 -113.201 -98.9743 46.388 
-112.897 -99.5041 46.9314 -112.586 -99.9009 47.6545 -112.179 -100.593 48.2907 
-111.933 -101.339 48.7266 -115.122 -95.2885 44.7347 -115.027 -96.056 45.2671 
-114.8 -95.2692 45.3262 -114.534 -95.9911 45.7478 -114.347 -95.2465 45.7649 
-114.715 -96.7529 45.7274 -113.825 -95.9277 46.1095 -113.922 -95.404 46.3213 
-113.864 -96.6417 46.0927 -113.892 -97.4153 46.0481 -113.192 -96.0333 46.7091 
-113.566 -95.7101 47.2792 -112.98 -96.5134 46.487 -113.028 -97.3129 46.4557 
-113.073 -98.2479 46.3876 -112.768 -96.1981 47.6818 -113.23 -95.9788 48.3452 
-112.394 -96.4905 47.1619 -112.503 -97.0985 47.0413 -112.685 -98.0979 47.0043 
-112.69 -99.007 46.8744 -112.545 -96.3608 48.6772 -113.013 -96.2134 49.1559 
-112.074 -96.5786 48.0936 -112.141 -97.001 47.7998 -112.545 -97.8431 47.8141 
-112.503 -98.8491 47.7048 -112.349 -99.5279 47.542 -112.504 -96.6331 49.5408 
-112.927 -96.4668 49.8565 -111.985 -96.8426 49.0975 -111.776 -97.1416 48.6879 
-112.152 -97.7632 48.5731 -112.338 -98.6892 48.5751 -112.031 -99.5318 48.4014 
-111.926 -100.105 48.2534 -112.528 -96.9658 50.4156 -112.851 -96.714 50.6529 
-112.118 -97.2302 50.1241 -111.698 -97.4484 49.7403 -111.692 -97.8595 49.393 
-111.961 -98.6219 49.2514 -111.929 -99.4694 49.1757 -111.749 -100.157 49.0066 
-111.78 -100.744 48.8412 -112.523 -97.2335 51.3092 -112.76 -96.9322 51.4982 
-112.304 -97.5602 51.1027 -111.952 -97.7626 50.8405 -111.645 -98.0187 50.4649 
-111.649 -98.6321 50.0818 -111.789 -99.4413 49.8665 -111.855 -100.104 49.7479 
-111.905 -100.635 49.5694 -111.944 -101.184 49.3362 -112.21 -101.56 49.7621 
-112.196 -101.094 50.1016 -112.408 -101.495 50.6254 -112.061 -100.698 50.3969 
-112.197 -101.219 51.0486 -112.316 -101.711 51.5891 -111.833 -100.281 50.5983 
-111.93 -100.981 51.3803 -111.973 -101.481 51.9729 -112.232 -101.845 52.5115 
-111.654 -99.5728 50.8732 -111.734 -100.544 51.7358 -111.876 -101.147 52.3352 
-112.084 -101.482 52.7824 -112.471 -101.77 53.4914 -111.654 -98.7197 51.3004 
-111.657 -99.7188 52.2329 -111.849 -100.534 52.9159 -112.213 -100.956 53.2641 
-112.471 -101.43 53.8403 -112.766 -101.877 54.7501 -111.931 -98.2223 51.6532 
-111.784 -98.9509 52.5688 -111.699 -99.8043 53.449 -112.035 -100.326 54.0135 
-112.43 -100.873 54.509 -112.589 -101.646 55.2772 -112.918 -102.094 56.0192 
-112.276 -98.0096 51.8585 -112.133 -98.5505 52.6415 -111.791 -99.3073 53.539 
-111.715 -99.8916 54.4413 -112.065 -100.291 55.1854 -112.354 -101.022 55.8725 
-112.61 -101.766 56.4702 -113.194 -102.046 56.8371 -112.441 -97.6983 52.0537 
-112.41 -98.1939 52.7723 -112.205 -98.8603 53.5383 -111.92 -99.5403 54.4485 
-111.951 -99.9184 55.3769 -112.234 -100.334 56.1668 -112.53 -101.039 56.7421 
-113.002 -101.602 57.0792 -113.719 -101.848 57.3029 -112.558 -97.3112 52.2514 
-112.512 -97.7401 53.0078 -112.519 -98.2886 53.7378 -112.429 -98.973 54.4962 
-112.354 -99.5116 55.2846 -112.48 -99.836 56.0457 -112.753 -100.303 56.7024 
-113.132 -100.934 57.1631 -113.662 -101.439 57.4781 -114.258 -101.776 57.7972 
-112.529 -101.824 50.0098 -112.759 -101.829 50.9395 -113.169 -101.917 50.3603 
-112.787 -102.062 52.0257 -113.403 -102.03 51.3876 -113.88 -101.972 50.837 
-112.892 -102.046 53.1833 -113.558 -102.221 52.6946 -113.989 -102.209 52.0919 
-114.239 -102.328 51.495 -113.145 -101.941 54.4008 -113.762 -102.136 53.9934 
-114.196 -102.408 53.5461 -114.308 -102.685 52.9722 -114.486 -103.031 52.299 
-113.377 -102.093 55.6373 -113.928 -102.159 55.1379 -114.384 -102.481 54.6748 
-114.592 -102.877 54.2768 -114.704 -103.296 53.6656 -114.991 -103.574 52.9348 
-113.674 -102.211 56.5952 -114.12 -102.411 56.1858 -114.445 -102.76 55.6624 
-114.764 -103.029 55.2059 -115.07 -103.237 54.7403 -115.313 -103.524 54.0651 
-115.638 -103.658 53.3249 -114.146 -102.124 57.2004 -114.512 -102.527 57.0205 
-114.663 -103.057 56.7106 -114.873 -103.323 56.2588 -115.332 -103.249 55.7462 
-115.75 -103.267 55.2072 -116.013 -103.445 54.5584 -116.343 -103.542 53.8154 
-114.615 -102.058 57.7628 -114.971 -102.462 57.6792 -115.134 -103.038 57.5645 
-115.241 -103.444 57.3422 -115.613 -103.442 56.8839 -116.129 -103.343 56.327 
-116.483 -103.381 55.8545 -116.741 -103.434 55.2943 -117.081 -103.47 54.5122 
-114.784 -102.029 58.515 -115.154 -102.321 58.4616 -115.076 -102.289 59.3999 
-115.512 -102.508 59.1919 -115.392 -102.391 60.1177 -115.521 -102.725 58.2855 
-115.963 -102.634 59.7104 -116.054 -102.433 60.5085 -116.065 -102.836 58.8289 
-115.783 -103.191 58.1545 -116.645 -103.026 60.0688 -116.926 -102.515 60.6327 
-116.65 -103.235 59.3604 -116.53 -103.332 58.7204 -116.072 -103.487 57.94 
-117.394 -103.471 60.2047 -117.674 -102.536 60.4668 -117.179 -104.072 59.9202 
-117.024 -104.088 59.3861 -116.795 -103.933 58.4427 -116.482 -103.678 57.3748 
-118.09 -103.551 59.9591 -118.322 -102.604 60.1166 -117.752 -104.479 60.0188 
-117.362 -104.892 59.8176 -117.091 -104.845 58.7929 -117.005 -104.464 57.6309 
-116.861 -103.817 56.7994 -118.761 -103.472 59.6906 -119.057 -102.796 59.9228 
-118.429 -104.233 59.6182 -118.045 -104.894 59.5546 -117.604 -105.249 58.7673 
-117.346 -105.117 57.6336 -117.326 -104.439 57.0341 -117.167 -103.708 56.4341 
-119.418 -103.366 59.7324 -119.821 -102.852 59.9594 -119.031 -103.893 59.3614 
-118.858 -104.524 59.0557 -118.64 -105.074 58.52 -118.173 -105.153 57.6475 
-117.836 -104.615 57.1032 -117.73 -103.884 56.7632 -117.498 -103.488 55.8505 
-120.002 -103.096 59.8153 -120.413 -102.642 59.9333 -119.506 -103.548 59.3566 
-119.341 -104.159 58.8211 -119.445 -104.799 58.3906 -119.209 -104.991 57.8852 
-118.627 -104.529 57.3497 -118.257 -103.846 56.8889 -118.105 -103.469 56.1204 
-117.85 -103.45 54.9094 -114.374 -101.56 58.1862 -114.738 -101.848 59.0466 
-114.459 -101.125 58.5992 -114.716 -101.293 59.4146 -114.448 -100.434 58.9719 
-114.998 -102.066 59.9078 -114.769 -100.426 59.6429 -114.517 -99.8245 59.1236 
-115.176 -101.447 59.9878 -115.583 -102.155 60.4663 -115.055 -99.7996 59.6729 
-114.894 -99.5413 58.7925 -115.519 -100.573 59.9544 -116.131 -101.656 60.2488 
-116.555 -102.139 60.7215 -115.641 -99.6333 59.1731 -115.397 -99.2237 58.2058 
-115.939 -99.9277 59.8898 -116.575 -100.875 60.0328 -117.155 -101.704 60.4191 
-117.405 -101.954 60.7691 -116.24 -99.416 58.3954 -115.771 -98.5808 57.9198 
-116.469 -99.6966 59.2987 -116.832 -100.081 59.8925 -117.459 -100.916 60.1887 
-117.809 -101.398 60.5814 -117.985 -101.777 60.5706 -116.645 -98.8181 57.9711 
-116.158 -97.9281 57.8364 -116.969 -99.4998 58.4157 -117.191 -99.694 59.251 
-117.719 -100.036 59.9892 -118.216 -100.597 60.4427 -118.39 -101.132 60.519 
-118.662 -101.914 60.2313 -117.015 -98.1235 57.7973 -116.693 -97.5924 57.4816 
-117.353 -98.9565 57.9246 -117.617 -99.5042 58.3758 -118.1 -99.6564 59.2853 
-118.719 -99.8753 60.1217 -118.993 -100.385 60.3723 -119.144 -101.209 60.1706 
-119.51 -102.159 59.9949 -117.44 -97.6531 57.4564 -117.22 -97.5028 56.842 
[...]
CELL_DATA 2000
SCALARS Distance double
LOOKUP_TABLE default
161.073 160.701 161.049 161.383 160.293 160.646 160.976 161.364 161.723 
159.913 160.232 160.547 160.938 161.312 161.709 162.057 159.587 159.87 
160.156 160.514 160.9 161.307 161.692 162.044 162.375 159.316 159.573 
159.841 160.141 160.504 160.904 161.335 161.716 162.1 162.406 162.771 
159.105 159.351 159.659 159.893 160.238 160.548 160.978 161.364 161.802 
162.156 162.556 162.864 163.256 158.857 159.145 159.49 159.758 160.116 
160.363 160.739 161.044 161.463 161.835 162.25 162.616 163.001 163.333 
163.685 158.535 158.846 159.164 159.52 159.871 160.199 160.515 160.808 
161.14 161.489 161.883 162.272 162.652 163.015 163.347 163.685 163.986 
158.279 158.524 158.809 159.139 159.469 159.845 160.152 160.493 160.78 
161.133 161.504 161.905 162.312 162.671 163.006 163.32 163.618 163.946 
164.245 160.786 160.216 160.487 160.425 159.601 159.898 159.862 160.119 
160.041 158.929 159.251 159.217 159.532 159.483 159.735 159.669 158.19 
158.531 158.483 158.847 158.811 159.132 159.08 159.365 159.326 157.465 
157.784 157.759 158.117 158.108 158.439 158.394 158.715 158.69 159.017 
159.021 156.83 157.123 157.139 157.455 157.498 157.794 157.785 158.055 
158.043 158.356 158.393 158.732 158.78 156.241 156.561 156.629 156.914 
156.971 157.239 157.26 157.511 157.51 157.771 157.803 158.112 158.169 
158.5 158.535 155.687 156.035 156.207 156.481 156.551 156.757 156.746 
156.982 156.969 157.246 157.239 157.535 157.544 157.87 157.89 158.225 
158.236 155.255 155.569 155.831 156.121 156.236 156.392 156.329 156.478 
156.416 156.67 156.653 156.945 156.92 157.223 157.219 157.56 157.598 
157.938 157.992 155.155 155.153 155.351 155.714 154.967 155.25 155.572 
155.837 156.069 154.726 154.94 155.14 155.489 155.656 155.97 156.075 
154.709 154.7 154.715 154.943 155.07 155.434 155.605 155.931 156.123 
154.893 154.729 154.594 154.59 154.677 154.93 155.24 155.551 155.865 
156.111 156.386 155.138 154.923 154.743 154.578 154.605 154.709 155.092 
155.371 155.803 155.986 156.26 156.414 156.655 155.461 155.223 155.1 
154.834 154.813 154.748 155.063 155.303 155.781 156.003 156.294 156.367 
156.55 156.684 156.945 155.851 155.632 155.625 155.329 155.327 155.075 
155.248 155.299 155.711 155.953 156.319 156.439 156.652 156.691 156.933 
157.053 157.365 156.233 156.068 156.16 155.935 156.009 155.695 155.783 
155.587 155.858 155.931 156.335 156.481 156.82 156.871 157.153 157.176 
157.474 157.543 157.829 158.048 157.777 158.065 158.375 157.486 157.813 
158.161 158.435 158.751 157.118 157.503 157.878 158.21 158.524 158.791 
159.089 156.633 157.078 157.496 157.912 158.293 158.572 158.867 159.116 
159.46 156.232 156.603 157.065 157.513 157.984 158.347 158.713 158.953 
159.318 159.575 160.036 156.205 156.383 156.839 157.15 157.624 158.009 
158.423 158.764 159.149 159.463 159.922 160.238 160.729 156.395 156.503 
156.907 157.064 157.466 157.715 158.105 158.429 158.813 159.192 159.624 
160.04 160.494 160.867 161.271 156.468 156.63 156.969 157.137 157.483 
157.654 158.013 158.215 158.589 158.863 159.275 159.657 160.101 160.523 
160.935 161.311 161.683 156.46 156.603 156.892 157.096 157.424 157.642 
158.002 158.201 158.57 158.755 159.132 159.377 159.798 160.141 160.592 
160.964 161.397 161.74 162.152 158.303 158.598 158.543 158.804 159.001 
158.908 159.148 159.1 159.436 159.408 159.359 159.66 159.542 159.825 
159.767 160.108 159.812 159.787 160.196 160.118 160.438 160.263 160.534 
160.437 160.768 160.364 160.254 160.688 160.655 161.076 160.937 161.241 
161.013 161.325 161.177 161.56 161.047 160.884 161.258 161.172 161.605 
161.543 161.924 161.761 162.08 161.872 162.215 162.052 162.403 161.626 
161.54 161.905 161.786 162.178 162.083 162.468 162.372 162.698 162.569 
162.85 162.705 162.963 162.824 163.07 162.071 162.054 162.482 162.419 
162.839 162.716 163.091 162.937 163.256 163.113 163.394 163.26 163.504 
163.353 163.571 163.427 163.661 162.536 162.512 162.976 162.963 163.425 
163.365 163.763 163.612 163.933 163.731 164.036 163.842 164.151 163.947 
164.225 163.999 164.251 164.057 164.313 162.964 163.713 163.364 163.399 
164.33 164.062 164.124 163.81 163.849 164.914 164.645 164.74 164.486 
164.568 164.245 164.22 165.642 165.331 165.497 165.175 165.334 164.981 
165.013 164.575 164.44 166.319 166.131 166.425 166.102 166.329 165.882 
165.953 165.437 165.341 164.782 164.58 166.751 166.722 167.086 166.977 
167.217 166.892 166.899 166.406 166.275 165.726 165.528 164.941 164.706 
167.174 167.106 167.406 167.416 167.634 167.546 167.524 167.202 166.991 
166.556 166.324 165.845 165.589 165.038 164.76 167.697 167.542 167.694 
167.626 167.791 167.789 167.884 167.707 167.57 167.175 166.907 166.49 
166.224 165.803 165.512 165.02 164.736 168.081 167.969 167.965 167.846 
167.883 167.896 168.067 168.057 168.101 167.791 167.541 167.052 166.714 
166.303 166.017 165.647 165.378 164.958 164.729 162.855 162.877 163.13 
163.588 162.681 163.049 163.525 163.813 164.206 162.353 162.735 163.236 
163.658 164.165 164.425 164.819 162.196 162.45 162.938 163.341 163.984 
164.386 164.938 165.111 165.518 162.214 162.427 162.884 163.141 163.76 
164.2 164.87 165.207 165.629 165.767 166.079 162.126 162.458 162.938 
163.15 163.608 163.961 164.555 165.024 165.487 165.755 165.983 166.169 
166.438 161.926 162.312 162.841 163.134 163.518 163.78 164.227 164.65 
165.147 165.515 165.818 166.018 166.281 166.516 166.898 161.823 162.116 
162.618 162.957 163.374 163.641 164.045 164.369 164.872 165.228 165.646 
165.869 166.179 166.392 166.802 167.073 167.505 161.843 162.03 162.433 
162.729 163.153 163.459 163.876 164.194 164.663 165.018 165.454 165.727 
166.035 166.264 166.601 166.926 167.345 167.652 167.957 156.594 156.986 
156.815 156.971 157.493 157.247 157.352 157.247 157.495 158.039 157.78 
157.866 157.684 157.921 157.838 158.126 158.603 158.362 158.505 158.269 
158.505 158.339 158.637 158.507 158.751 159.194 158.975 159.207 158.978 
159.246 159.009 159.275 159.069 159.308 159.12 159.315 159.783 159.567 
159.773 159.631 159.903 159.746 159.987 159.754 159.955 159.716 159.927 
159.714 159.952 160.379 160.12 160.199 160.068 160.277 160.254 160.52 
160.411 160.622 160.4 160.626 160.392 160.671 160.443 160.74 160.982 
160.695 160.727 160.491 160.676 160.593 160.924 160.874 161.168 161.025 
161.275 161.098 161.404 161.21 161.53 161.287 161.571 161.534 161.291 
161.393 161.117 161.358 161.153 161.536 161.389 161.735 161.563 161.811 
161.666 161.954 161.868 162.213 162.068 162.364 162.111 162.349 156.494 
156.63 156.668 156.938 156.775 156.847 157.126 157.18 157.473 156.684 
156.888 157.176 157.342 157.653 157.73 158.009 156.445 156.694 157.022 
157.3 157.682 157.869 158.172 158.235 158.506 156.36 156.522 156.914 
157.165 157.64 157.879 158.253 158.359 158.62 158.703 159.019 156.522 
156.589 157.01 157.173 157.676 157.892 158.306 158.428 158.688 158.774 
159.082 159.243 159.635 156.833 156.85 157.249 157.341 157.809 157.98 
158.406 158.515 158.782 158.832 159.127 159.29 159.741 159.924 160.332 
157.199 157.192 157.555 157.594 158.012 158.134 158.583 158.682 159.018 
159.008 159.293 159.361 159.802 160.018 160.51 160.64 160.975 157.556 
157.546 157.872 157.887 158.25 158.335 158.767 158.893 159.299 159.324 
159.63 159.608 159.964 160.09 160.553 160.757 161.149 161.236 161.486 
157.854 158.438 158.14 158.167 159.134 158.761 158.763 158.466 158.534 
159.897 159.488 159.437 159.084 159.14 158.886 159.034 160.598 160.236 
160.159 159.769 159.771 159.495 159.64 159.432 159.572 161.209 160.899 
160.871 160.493 160.473 160.14 160.238 160.014 160.152 159.917 159.95 
161.828 161.517 161.539 161.202 161.232 160.88 160.951 160.643 160.752 
160.486 160.56 160.258 160.294 162.472 162.159 162.172 161.863 161.918 
161.623 161.706 161.385 161.454 161.129 161.198 160.895 160.985 160.686 
160.819 163.073 162.787 162.78 162.478 162.501 162.251 162.332 162.082 
162.144 161.835 161.873 161.56 161.634 161.362 161.483 161.239 161.364 
163.61 163.358 163.346 163.054 163.043 162.792 162.856 162.648 162.737 
162.483 162.536 162.234 162.288 162.001 162.084 161.837 161.918 161.689 
161.724 163.903 164.215 163.927 163.623 164.428 164.183 163.88 163.607 
163.319 164.622 164.385 164.146 163.885 163.664 163.371 163.16 164.988 
164.695 164.561 164.248 164.117 163.794 163.627 163.285 163.071 165.573 
165.237 165.181 164.797 164.679 164.311 164.146 163.785 163.549 163.177 
162.896 166.249 165.907 165.85 165.46 165.275 164.877 164.643 164.279 
164.02 163.651 163.349 162.966 162.66 166.951 166.576 166.444 166.061 
165.829 165.434 165.162 164.769 164.494 164.11 163.813 163.422 163.099 
162.721 162.432 167.594 167.222 166.983 166.579 166.301 165.934 165.682 
165.305 165.03 164.613 164.295 163.88 163.535 163.146 162.812 162.476 
162.209 167.978 167.722 167.393 167.025 166.652 166.331 166.051 165.768 
165.479 165.118 164.739 164.333 163.939 163.556 163.186 162.832 162.503 
162.216 161.96 164.097 164.483 164.368 164.462 164.819 164.752 164.897 
164.722 164.72 165.145 165.096 165.317 165.185 165.244 164.954 164.899 
165.565 165.493 165.808 165.681 165.829 165.525 165.456 165.12 165.137 
165.966 165.935 166.241 166.186 166.349 166.119 166.023 165.665 165.571 
165.379 165.566 166.107 166.164 166.272 166.38 166.421 166.445 166.335 
166.143 165.996 165.783 165.895 165.871 166.22 166.096 166.118 166.026 
166.123 166.037 166.227 166.22 166.305 166.33 166.213 166.359 166.254 
166.619 166.609 167.013 166.192 166.108 165.985 165.882 165.787 165.846 
166.014 166.199 166.542 166.588 166.897 166.785 167.109 167.047 167.438 
167.414 167.723 166.368 166.269 166.179 165.98 165.9 165.811 166.033 
166.178 166.667 166.846 167.262 167.267 167.492 167.446 167.655 167.708 
167.943 167.983 168.11 163.895 163.642 163.942 164.259 163.382 163.696 
164.062 164.325 164.616 163.123 163.456 163.876 164.168 164.494 164.679 
164.931 162.8 163.17 163.58 163.954 164.319 164.567 164.809 164.988 
165.273 162.391 162.798 163.187 163.599 163.99 164.336 164.638 164.862 
165.128 165.36 165.684 161.956 162.374 162.8 163.206 163.639 164.011 
164.423 164.704 165.047 165.247 165.549 165.753 165.978 161.58 161.967 
162.398 162.814 163.246 163.665 164.124 164.51 164.938 165.195 165.488 
165.642 165.832 165.964 166.07 161.269 161.618 161.995 162.389 162.758 
163.2 163.607 164.112 164.553 164.993 165.288 165.526 165.634 165.785 
165.875 166.028 166.138 160.943 161.288 161.633 161.992 162.342 162.714 
163.086 163.536 163.959 164.471 164.81 165.187 165.294 165.502 165.53 
165.751 165.88 166.115 166.268 160.84 160.949 161.119 161.567 161.143 
161.31 161.826 161.913 162.33 161.296 161.532 162.145 162.272 162.746 
162.716 163.099 161.334 161.619 162.26 162.55 163.106 163.175 163.551 
163.505 163.915 161.416 161.635 162.193 162.532 163.097 163.381 163.793 
163.895 164.221 164.287 164.671 161.544 161.741 162.219 162.452 162.931 
163.236 163.68 163.952 164.288 164.455 164.72 164.869 165.115 161.526 
161.8 162.248 162.472 162.864 163.091 163.497 163.78 164.175 164.411 
164.693 164.835 165.043 165.173 165.379 161.388 161.684 162.094 162.385 
162.733 162.989 163.327 163.608 163.989 164.273 164.62 164.804 165.078 
165.175 165.45 165.524 165.804 161.286 161.524 161.893 162.167 162.505 
162.78 163.094 163.385 163.721 164.044 164.404 164.696 165.044 165.242 
165.579 165.69 166.007 166.047 166.277 161.375 161.705 161.673 161.952 
162.075 162.038 162.319 162.266 162.544 162.419 162.424 162.749 162.682 
162.946 162.862 163.136 162.717 162.749 163.135 163.13 163.442 163.325 
163.57 163.466 163.76 163.084 163.062 163.455 163.497 163.892 163.842 
164.126 163.971 164.239 164.131 164.453 163.547 163.467 163.782 163.792 
164.174 164.232 164.595 164.538 164.836 164.69 165.005 164.875 165.174 
163.983 163.921 164.163 164.103 164.377 164.437 164.799 164.899 165.238 
165.231 165.519 165.439 165.722 165.587 165.793 164.316 164.313 164.572 
164.484 164.713 164.666 164.983 165.055 165.387 165.469 165.689 165.747 
165.934 165.989 166.177 166.116 166.218 164.593 164.624 164.934 164.885 
165.148 165.064 165.368 165.335 165.637 165.616 165.758 165.749 165.796 
165.924 166.038 166.235 166.354 166.397 166.416 166.436 166.294 166.357 
166.2 165.936 166.074 165.999 166.061 165.961 165.74 165.766 165.795 
165.89 166.042 166.05 166.212 165.866 165.801 165.878 165.846 166.096 
166.197 166.576 166.583 166.893 165.943 166.03 166.184 166.097 166.244 
166.276 166.598 166.797 167.155 167.243 167.434 165.74 166.012 166.275 
166.36 166.517 166.488 166.707 166.783 167.085 167.256 167.472 167.56 
167.613 165.463 165.75 166.04 166.294 166.581 166.721 167.066 167.08 
167.414 167.341 167.551 167.511 167.636 167.65 167.737 165.21 165.477 
165.737 166.013 166.332 166.646 167.109 167.389 167.839 167.849 168.025 
167.801 167.826 167.702 167.82 167.841 167.994 164.882 165.189 165.456 
165.737 166.029 166.348 166.747 167.193 167.649 168.015 168.216 168.216 
168.112 167.946 167.889 167.887 168.001 168.087 168.163 155.052 155.507 
155.186 155.186 156.175 155.789 155.806 155.525 155.734 156.874 156.54 
156.628 156.281 156.468 156.202 156.458 157.589 157.291 157.465 157.137 
157.326 157.004 157.233 156.953 157.179 158.36 158.078 158.345 158.029 
158.273 157.897 158.12 157.778 158.02 157.701 157.897 159.071 158.844 
159.133 158.917 159.214 158.886 159.105 158.714 158.927 158.574 158.768 
158.409 158.543 159.695 159.487 159.718 159.592 159.873 159.712 159.908 
159.63 159.755 159.443 159.563 159.241 159.333 158.994 159.106 160.318 
160.093 160.301 160.134 160.394 160.259 160.457 160.267 160.364 160.13 
160.208 159.953 160.036 159.738 159.838 159.545 159.718 160.916 160.718 
160.952 160.759 161.038 160.84 161.073 160.825 160.972 160.701 160.843 
160.585 160.752 160.458 160.612 160.29 160.46 160.182 160.393 154.882 
155.084 154.913 154.97 155.61 155.298 155.388 155.231 155.365 156.231 
155.851 155.797 155.646 155.732 155.608 155.548 156.862 156.409 156.155 
155.922 155.831 155.79 155.692 155.574 155.339 157.543 157.031 156.697 
156.274 156.068 155.857 155.788 155.663 155.572 155.367 155.261 158.211 
157.724 157.434 156.92 156.733 156.304 156.298 155.992 156.093 155.797 
155.884 155.553 155.653 158.856 158.413 158.218 157.726 157.602 157.122 
157.128 156.732 156.871 156.537 156.709 156.352 156.489 156.121 156.275 
159.546 159.123 159.022 158.561 158.487 158.02 158.001 157.588 157.652 
157.33 157.451 157.163 157.268 156.952 157.044 156.735 156.876 160.239 
159.855 159.787 159.376 159.319 158.891 158.86 158.438 158.451 158.078 
158.143 157.838 157.92 157.638 157.708 157.43 157.521 157.276 157.417 
154.913 154.857 154.831 154.874 155.103 154.856 154.661 154.706 154.701 
155.25 155.048 154.688 154.549 154.415 154.523 154.575 155.106 155.043 
154.739 154.586 154.407 154.375 154.472 154.564 154.724 155.049 154.921 
154.782 154.662 154.601 154.498 154.615 154.621 154.861 154.873 155.021 
155.397 155.085 155.012 154.836 154.902 154.787 154.951 154.883 155.119 
155.092 155.293 155.211 155.297 156.021 155.612 155.514 155.226 155.288 
155.14 155.32 155.246 155.484 155.425 155.65 155.545 155.679 155.514 
155.592 156.684 156.289 156.189 155.823 155.821 155.574 155.683 155.576 
155.781 155.761 156.006 155.953 156.129 155.96 156.04 155.838 155.925 
157.278 156.945 156.875 156.514 156.478 156.152 156.178 155.956 156.071 
156.002 156.214 156.238 156.458 156.402 156.515 156.322 156.365 156.17 
156.262 163.603 163.068 163.346 163.338 162.469 162.779 162.759 163.04 
163.03 161.806 162.134 162.113 162.428 162.409 162.729 162.749 161.173 
161.459 161.416 161.742 161.744 162.096 162.12 162.453 162.457 160.59 
160.855 160.788 161.063 161.062 161.417 161.468 161.819 161.8 162.105 
162.041 159.906 160.236 160.167 160.453 160.419 160.753 160.791 161.151 
161.121 161.419 161.296 161.612 161.545 159.11 159.474 159.389 159.752 
159.676 160.057 160.029 160.429 160.378 160.711 160.577 160.864 160.769 
161.134 161.159 158.374 158.673 158.565 158.917 158.819 159.215 159.135 
159.568 159.49 159.902 159.799 160.142 160.061 160.401 160.418 160.811 
160.884 157.775 157.997 157.884 158.153 158.068 158.382 158.304 158.66 
158.581 158.979 158.914 159.322 159.282 159.677 159.684 160.084 160.13 
160.537 160.577 
POINT_DATA 1002
SCALARS Distance double
LOOKUP_TABLE default
161.395 161.087 160.738 161.016 160.35 161.74 160.575 159.956 161.338 
162.093 160.166 159.62 160.901 161.699 162.381 159.827 159.316 160.477 
161.323 162.055 162.69 159.576 159.057 160.122 160.913 161.77 162.475 
163.15 159.421 158.838 159.982 160.611 161.412 162.226 162.969 163.652 
159.179 158.555 159.873 160.496 161.11 161.868 162.656 163.381 164.024 
158.805 158.246 159.511 160.23 160.819 161.49 162.293 163.009 163.653 
164.284 158.522 158.068 159.103 159.796 160.431 161.09 161.933 162.712 
163.3 163.903 164.55 160.535 160.189 159.926 159.579 159.299 159.82 
158.875 158.614 159.198 159.432 158.105 157.852 158.469 158.767 159.045 
157.397 157.148 157.776 158.081 158.336 158.692 156.827 156.518 157.194 
157.525 157.752 158.043 158.448 156.34 155.867 156.723 156.999 157.258 
157.522 157.847 158.215 155.898 155.298 156.383 156.551 156.691 156.959 
157.239 157.549 157.907 155.512 154.958 156.083 156.244 156.196 156.362 
156.639 156.884 157.226 157.661 154.995 155.549 154.917 155.287 154.698 
155.882 154.836 154.648 155.3 155.787 154.618 154.863 154.695 155.217 
155.814 154.707 155.111 154.459 154.88 155.624 156.16 154.954 155.351 
154.569 154.789 155.609 156.177 156.445 155.365 155.667 154.982 154.89 
155.511 156.225 156.483 156.726 155.867 156.02 155.644 155.357 155.499 
156.124 156.611 156.865 157.209 156.318 156.363 156.297 156.087 155.907 
156.171 156.711 157.139 157.455 157.758 158.318 158.119 158.688 157.865 
158.499 159.069 157.505 158.267 158.806 159.394 157.019 157.968 158.645 
159.15 159.837 156.622 157.556 158.43 159.067 159.739 160.534 156.623 
157.275 158.044 158.797 159.585 160.444 161.211 156.803 157.296 157.827 
158.446 159.196 160.094 160.947 161.657 156.791 157.315 157.84 158.372 
158.949 159.682 160.53 161.33 162.062 156.701 157.185 157.775 158.393 
158.946 159.501 160.213 161.033 161.828 162.567 158.789 159.247 159.409 
159.763 159.971 160.096 160.205 160.623 160.723 160.784 160.721 161.14 
161.468 161.534 161.66 161.399 161.656 162.021 162.284 162.425 162.564 
162.011 162.306 162.573 162.811 163 163.128 163.199 162.496 162.941 
163.271 163.43 163.53 163.653 163.734 163.783 162.98 163.451 163.884 
164.136 164.236 164.345 164.458 164.485 164.488 163.346 163.767 164.028 
164.393 164.571 164.212 164.972 165.201 164.854 164.64 165.82 165.906 
165.7 165.449 164.951 166.668 166.384 166.788 166.499 165.911 165.161 
167.117 166.756 167.476 167.389 166.809 166.107 165.316 167.446 167.323 
167.655 167.774 167.411 166.755 166.112 165.339 167.859 167.911 167.779 
167.939 167.941 167.362 166.604 165.958 165.239 168.137 168.195 167.9 
167.972 168.292 168.071 167.191 166.349 165.747 165.151 162.652 163.392 
162.589 163.166 162.289 164.019 162.752 162.018 163.79 164.685 162.581 
161.99 163.482 164.682 165.448 162.711 161.941 163.36 164.438 165.492 
165.948 162.724 161.714 163.38 164.085 165.143 165.826 166.177 162.499 
161.566 163.3 163.874 164.722 165.578 166.053 166.616 162.283 161.622 
163.072 163.751 164.511 165.385 165.977 166.509 167.282 162.186 161.722 
162.832 163.555 164.323 165.158 165.821 166.308 166.989 167.765 156.718 
157.028 157.214 157.502 157.764 157.528 158.075 158.28 158.023 158.213 
158.733 158.797 158.71 158.783 158.915 159.396 159.388 159.493 159.535 
159.509 159.5 159.917 160.046 160.006 160.211 160.218 160.139 160.143 
160.398 160.696 160.283 160.545 160.805 160.846 160.895 160.975 160.992 
161.261 160.794 160.953 161.275 161.426 161.555 161.762 161.853 156.403 
156.885 156.605 157.053 156.669 157.442 156.944 156.441 157.533 157.985 
156.7 156.195 157.424 158.09 158.442 156.671 156.215 157.372 158.125 
158.548 158.871 156.883 156.468 157.476 158.181 158.615 158.904 159.472 
157.2 156.832 157.665 158.285 158.753 158.982 159.496 160.255 157.546 
157.219 157.92 158.453 159.011 159.292 159.607 160.304 160.97 157.874 