# vtk DataFile Version 4.0
vtk output
ASCII
DATASET POLYDATA
POINTS 1002 float
-116.209 -100.416 46.9481 -116.307 -100.201 46.3373 -115.684 -100.124 46.6247 
-115.665 -100.243 47.4072 -115.177 -99.9943 47.0741 -116.092 -100.393 47.9247 
-115.191 -100.119 47.9426 -114.725 -99.8487 47.63 -115.546 -100.347 48.3887 
-115.958 -100.546 48.9262 -114.603 -100.048 48.4776 -114.061 -99.7584 48.1326 
-114.953 -100.401 48.8033 -115.266 -100.803 49.1583 -115.818 -101.256 49.434 
-113.748 -100.106 48.8984 -113.142 -99.9054 48.4516 -114.249 -100.423 49.2382 
-114.56 -100.932 49.4527 -115.018 -101.512 49.6134 -115.695 -101.96 49.7828 
-112.77 -100.376 49.1659 -112.275 -100.202 48.7284 -113.442 -100.51 49.6619 
-113.952 -100.861 49.9519 -114.384 -101.388 50.1217 -114.967 -101.868 50.295 
-115.603 -102.113 50.602 -111.949 -100.539 49.484 -111.617 -100.262 49.1549 
-112.575 -100.67 50.0281 -113.256 -100.898 50.4407 -113.816 -101.27 50.6944 
-114.384 -101.658 50.9486 -114.955 -102.006 51.2145 -115.502 -102.232 51.5519 
-111.375 -100.344 50.0142 -111.071 -100.044 49.6754 -111.816 -100.634 50.4682 
-112.365 -101.023 50.8062 -112.929 -101.479 50.9847 -113.577 -101.81 51.2514 
-114.258 -102.086 51.5867 -114.823 -102.406 51.8853 -115.359 -102.634 52.201 
-110.938 -100.063 50.6166 -110.587 -99.8287 50.1719 -111.259 -100.467 50.9856 
-111.572 -101.068 51.1494 -111.93 -101.739 51.1517 -112.482 -102.205 51.2965 
-113.268 -102.4 51.6686 -114.046 -102.584 52.0635 -114.663 -102.81 52.4335 
-115.217 -102.911 52.8267 -110.519 -99.9576 51.0904 -110.188 -99.7285 50.6181 
-110.78 -100.43 51.3908 -110.973 -101.129 51.4387 -111.203 -101.862 51.3721 
-111.601 -102.426 51.4709 -112.263 -102.684 51.8316 -113.116 -102.729 52.2842 
-113.938 -102.794 52.7241 -114.601 -102.883 53.1905 -115.138 -102.872 53.6719 
-115.964 -99.8325 45.991 -115.285 -99.8326 46.2469 -115.621 -99.4613 45.6021 
-114.994 -99.4578 45.9135 -115.4 -98.8747 45.3725 -114.78 -99.7351 46.7089 
-114.906 -98.7872 45.813 -115.261 -97.9438 45.4523 -114.526 -99.3328 46.4523 
-114.291 -99.5614 47.2765 -114.798 -97.9266 45.9182 -115.052 -97.1095 45.5309 
-114.356 -98.7273 46.3739 -113.886 -99.2036 46.9752 -113.526 -99.4873 47.7218 
-114.515 -97.2735 45.9623 -114.789 -96.6019 45.4672 -114.018 -98.1284 46.3161 
-113.398 -98.8585 46.6907 -112.989 -99.2334 47.3301 -112.668 -99.6484 48.0921 
-114.254 -96.7345 46.0318 -114.621 -96.0704 45.5815 -113.611 -97.5685 46.2515 
-112.834 -98.4886 46.4012 -112.409 -99.0062 46.9469 -112.288 -99.2835 47.8847 
-111.993 -99.7983 48.6182 -114.116 -96.1075 46.233 -114.531 -95.4514 45.8777 
-113.368 -96.8672 46.3523 -112.48 -97.8309 46.3448 -111.959 -98.5817 46.702 
-111.891 -98.8579 47.6848 -111.73 -99.2097 48.6347 -111.333 -99.7542 49.1456 
-113.916 -95.5298 46.3526 -114.354 -94.9384 46.0743 -113.174 -96.1668 46.4687 
-112.338 -96.9878 46.5188 -111.815 -97.8561 46.8033 -111.636 -98.3569 47.5771 
-111.385 -98.6797 48.4968 -110.937 -99.2104 49.0582 -110.622 -99.6702 49.4942 
-113.562 -95.0424 46.3382 -114.03 -94.5121 46.1372 -112.881 -95.605 46.4467 
-112.181 -96.2726 46.6159 -111.779 -97.0819 47.0328 -111.581 -97.7844 47.7 
-111.177 -98.2555 48.386 -110.559 -98.7679 48.844 -110.131 -99.3166 49.2192 
-110.072 -99.6174 49.8316 -113.312 -94.3665 46.3188 -112.704 -94.9217 46.4158 
-112.579 -94.1987 46.5785 -112.058 -94.8378 46.7114 -112.159 -94.2159 47.0589 
-112.071 -95.555 46.577 -111.807 -94.9619 47.4191 -111.956 -94.5171 47.8045 
-111.653 -95.5592 47.1237 -111.688 -96.3021 47.0774 -111.523 -95.2561 48.3787 
-111.581 -94.8774 48.7033 -111.372 -95.6348 48.0195 -111.367 -96.3114 47.8684 
-111.511 -97.1103 47.845 -110.984 -95.4841 49.2609 -111.055 -95.089 49.5526 
-110.808 -95.7369 48.8347 -110.704 -96.2449 48.5339 -110.854 -97.0709 48.5152 
-111.045 -97.7925 48.4718 -110.54 -95.611 49.9963 -110.706 -95.2656 50.2685 
-110.237 -95.8689 49.503 -109.881 -96.2301 48.9482 -109.83 -96.9175 48.8005 
-110.045 -97.7465 48.849 -110.265 -98.3786 48.8004 -110.328 -95.7824 50.7144 
-110.594 -95.5434 50.9357 -109.923 -96.0381 50.3108 -109.398 -96.3802 49.6092 
-109.122 -96.8516 49.1847 -109.264 -97.5237 49.2279 -109.496 -98.327 49.2135 
-109.73 -98.9607 49.1265 -110.202 -96.0175 51.445 -110.574 -95.8459 51.6306 
-109.72 -96.1933 51.2287 -109.172 -96.5207 50.6684 -108.834 -96.9419 50.044 
-108.936 -97.386 49.9171 -109.22 -98.0358 49.9979 -109.409 -98.8174 49.8674 
-109.652 -99.3646 49.7572 -110.119 -96.2356 52.1406 -110.559 -96.059 52.3275 
-109.589 -96.336 52.0365 -109.065 -96.5468 51.7419 -108.735 -96.9719 51.1653 
-108.758 -97.4472 50.7784 -109.016 -97.937 50.7935 -109.253 -98.5693 50.7983 
-109.457 -99.1858 50.6542 -109.77 -99.5553 50.5813 -109.979 -99.8594 51.2985 
-109.533 -99.6232 51.3191 -109.604 -100.244 51.7342 -109.168 -99.2367 51.4087 
-109.143 -99.9286 51.8393 -109.266 -100.738 52.1713 -108.926 -98.7304 51.4938 
-108.779 -99.5853 52.0229 -108.943 -100.338 52.5274 -109.241 -101.075 53.0925 
-108.775 -98.1662 51.5512 -108.638 -99.1482 52.2871 -108.705 -99.9744 53.0041 
-109.082 -100.588 53.6576 -109.453 -101.215 54.1731 -108.7 -97.5007 51.8477 
-108.681 -98.4043 52.6863 -108.644 -99.4213 53.5616 -108.902 -100.111 54.2245 
-109.337 -100.654 54.6091 -109.838 -101.205 54.8344 -108.802 -96.8783 52.372 
-108.759 -97.4889 53.1816 -108.69 -98.4737 54.0653 -108.812 -99.4344 54.6623 
-109.259 -100.096 54.9304 -109.822 -100.629 55.1233 -110.482 -101.063 55.3387 
-109.171 -96.5806 52.6904 -108.956 -96.9338 53.4753 -108.809 -97.5769 54.3227 
-108.858 -98.5022 54.8599 -109.343 -99.4144 55.0573 -109.982 -100.092 55.3113 
-110.587 -100.563 55.6611 -111.186 -100.915 55.9898 -109.717 -96.5001 52.7624 
-109.396 -96.7935 53.492 -109.163 -97.1772 54.308 -109.124 -97.7496 54.8885 
-109.561 -98.5817 55.098 -110.229 -99.4571 55.3901 -110.756 -100.082 55.8964 
-111.237 -100.476 56.309 -111.685 -100.833 56.6472 -110.262 -96.3454 52.8792 
-109.957 -96.6502 53.5045 -109.714 -96.9966 54.2339 -109.617 -97.368 54.8886 
-109.897 -97.9112 55.2279 -110.45 -98.7226 55.5277 -110.851 -99.5074 56.0898 
-111.158 -100.011 56.6163 -111.585 -100.367 56.9263 -111.972 -100.77 57.2624 
-110.203 -100.363 51.5946 -109.738 -101.02 51.8533 -110.359 -101.123 51.6495 
-109.441 -101.517 52.4745 -109.915 -101.789 51.9686 -110.577 -101.863 51.6313 
-109.527 -101.699 53.6273 -109.784 -102.013 52.9588 -110.374 -102.219 52.3269 
-111 -102.39 51.8324 -109.955 -101.705 54.5326 -110.131 -101.982 54.101 
-110.54 -102.186 53.5115 -111.094 -102.502 52.8793 -111.604 -102.733 52.2799 
-110.635 -101.539 55.0668 -110.858 -101.861 54.765 -111.102 -102.108 54.3813 
-111.414 -102.485 53.9133 -111.813 -102.791 53.3729 -112.37 -102.834 52.7725 
-111.306 -101.33 55.7688 -111.536 -101.688 55.4766 -111.772 -102.022 55.1124 
-111.906 -102.463 54.7112 -112.113 -102.806 54.3014 -112.6 -102.829 53.8177 
-113.278 -102.768 53.2432 -111.749 -101.268 56.6026 -111.847 -101.676 56.4949 
-112.083 -102.046 56.2263 -112.307 -102.442 55.8276 -112.483 -102.762 55.3655 
-112.894 -102.797 54.874 -113.546 -102.695 54.3484 -114.145 -102.742 53.765 
-112.026 -101.277 57.3542 -111.996 -101.77 57.4501 -112.143 -102.189 57.3695 
-112.483 -102.519 57.1036 -112.807 -102.732 56.6931 -113.207 -102.77 56.1192 
-113.819 -102.685 55.5048 -114.411 -102.648 54.939 -114.809 -102.745 54.3282 
-112.24 -101.053 58.0576 -112.231 -101.636 58.25 -112.456 -101.367 59.0445 
-112.642 -101.852 59.0838 -112.825 -101.574 59.8042 -112.318 -102.125 58.2805 
-113.438 -101.875 59.5686 -113.534 -101.693 60.1698 -113.145 -102.169 58.8308 
-112.706 -102.483 58.0959 -114.27 -102.057 60.0224 -114.408 -101.865 60.5212 
-114.164 -102.139 59.2689 -113.711 -102.457 58.5812 -113.163 -102.699 57.837 
-114.858 -102.518 60.6698 -115.24 -102.038 60.8672 -114.701 -102.616 60.0066 
-114.493 -102.643 59.1435 -114.031 -102.743 58.3497 -113.568 -102.773 57.3657 
-115.606 -102.826 60.9768 -116.147 -102.062 60.895 -115.138 -103.316 60.6059 
-114.886 -103.343 59.7517 -114.662 -103.13 58.7453 -114.394 -102.919 57.7415 
-114.13 -102.76 56.6397 -116.672 -102.796 60.8419 -117.107 -101.988 60.7866 
-116.117 -103.529 60.5975 -115.637 -103.82 59.9278 -115.311 -103.609 58.9715 
-115.087 -103.232 57.9639 -114.925 -102.914 56.9868 -114.725 -102.704 55.9792 
-117.561 -102.648 60.6534 -117.814 -101.918 60.6804 -117.177 -103.321 60.3833 
-116.708 -103.696 59.8064 -116.245 -103.647 59.0149 -115.847 -103.347 58.158 
-115.551 -103.014 57.3025 -115.344 -102.754 56.3983 -115.113 -102.666 55.379 
-117.995 -102.491 60.3456 -118.146 -101.842 60.337 -117.771 -103.044 60.1504 
-117.455 -103.369 59.6738 -117.075 -103.427 58.9774 -116.673 -103.285 58.235 
-116.267 -103.025 57.5054 -115.923 -102.745 56.686 -115.666 -102.618 55.7008 
-115.417 -102.711 54.6344 -111.943 -100.388 57.6962 -112.289 -100.641 58.5697 
-111.864 -99.9861 58.2208 -112.358 -100.198 59.0286 -112.01 -99.6559 58.5421 
-112.545 -100.95 59.5544 -112.668 -99.7987 59.1164 -112.441 -99.3236 58.458 
-112.784 -100.378 59.7931 -112.944 -101.127 60.1941 -113.097 -99.4335 58.8786 
-112.812 -98.7591 58.3407 -113.281 -99.7809 59.6689 -113.393 -100.316 60.3015 
-113.784 -101.147 60.4888 -113.395 -98.9349 58.7193 -113.025 -97.9688 58.4888 
-113.751 -99.4111 59.3805 -114.011 -99.5815 60.2196 -114.326 -100.211 60.6493 
-114.818 -101.193 60.7247 -113.724 -98.2564 58.6391 -113.382 -97.3106 58.5289 
-114.124 -99.0648 59.0379 -114.492 -99.3422 59.8846 -114.815 -99.6182 60.5871 
-115.25 -100.392 60.7361 -115.749 -101.292 60.7554 -114.212 -97.6833 58.3809 
-113.919 -96.992 58.1992 -114.579 -98.5056 58.626 -114.968 -99.0948 59.2754 
-115.278 -99.4504 60.0912 -115.608 -99.9584 60.4883 -116.121 -100.646 60.5263 
-116.681 -101.312 60.6411 -114.675 -97.3547 58.0061 -114.417 -96.8376 57.7285 
-115.008 -97.9808 58.2493 -115.431 -98.5707 58.7067 -115.832 -99.0894 59.3864 
-116.123 -99.6111 59.9554 -116.496 -100.157 60.228 -117.045 -100.684 60.4186 
-117.54 -101.26 60.6273 -115.049 -97.0797 57.6652 -114.812 -96.6396 57.3182 
[...]
CELL_DATA 2000
SCALARS Distance double
LOOKUP_TABLE default
159.3 158.934 159.258 159.54 158.658 158.944 159.237 159.509 159.794 
158.344 158.671 158.959 159.239 159.522 159.805 160.166 157.911 158.293 
158.589 158.929 159.203 159.517 159.848 160.213 160.622 157.493 157.839 
158.162 158.531 158.846 159.179 159.505 159.859 160.239 160.636 161.003 
157.153 157.45 157.755 158.12 158.477 158.835 159.192 159.528 159.902 
160.258 160.638 160.986 161.32 156.813 157.104 157.368 157.72 158.06 
158.451 158.807 159.189 159.542 159.919 160.289 160.652 161.012 161.333 
161.664 156.488 156.765 157.038 157.349 157.669 158.027 158.361 158.748 
159.078 159.49 159.837 160.26 160.62 161.01 161.348 161.682 161.982 
156.245 156.491 156.795 157.064 157.387 157.681 158.006 158.328 158.658 
159.021 159.372 159.777 160.142 160.563 160.916 161.312 161.627 161.963 
162.221 159.027 158.443 158.694 158.643 157.867 158.123 158.084 158.353 
158.357 157.279 157.574 157.562 157.816 157.802 158.074 158.047 156.65 
156.989 157.022 157.3 157.255 157.502 157.42 157.694 157.61 156.061 
156.38 156.416 156.719 156.651 156.908 156.78 157.045 156.959 157.25 
157.205 155.579 155.838 155.828 156.087 155.976 156.237 156.097 156.382 
156.326 156.638 156.651 156.927 156.917 155.178 155.388 155.323 155.504 
155.333 155.547 155.406 155.696 155.676 156.021 156.073 156.391 156.394 
156.643 156.587 154.775 154.971 154.845 154.987 154.767 154.932 154.809 
155.07 155.102 155.419 155.485 155.795 155.784 156.066 155.991 156.264 
156.212 154.299 154.5 154.314 154.463 154.221 154.383 154.293 154.553 
154.657 154.945 155.037 155.26 155.222 155.436 155.35 155.623 155.587 
155.904 155.934 153.952 153.352 153.74 153.901 152.97 153.182 153.337 
153.668 153.839 153.046 153.024 153.184 153.285 153.535 153.758 154.05 
153.303 153.241 153.352 153.316 153.535 153.653 154.014 154.188 154.534 
153.397 153.42 153.425 153.419 153.443 153.595 153.82 154.122 154.416 
154.654 154.87 153.433 153.436 153.396 153.362 153.22 153.307 153.316 
153.677 153.868 154.305 154.469 154.796 154.925 153.629 153.528 153.505 
153.371 153.217 153.101 153.007 153.136 153.29 153.661 153.922 154.293 
154.504 154.809 155.02 153.965 153.793 153.752 153.565 153.44 153.226 
153.128 153.026 153.161 153.297 153.656 153.911 154.286 154.508 154.822 
155.029 155.323 154.32 154.129 154.042 153.838 153.712 153.5 153.424 
153.265 153.374 153.372 153.705 153.853 154.272 154.45 154.819 154.969 
155.286 155.434 155.728 155.915 155.482 155.816 156.049 155.019 155.364 
155.578 155.928 156.197 154.513 154.89 155.129 155.472 155.777 156.152 
156.558 154.01 154.399 154.731 155.084 155.465 155.815 156.282 156.649 
157.139 153.658 153.961 154.356 154.738 155.198 155.572 156.056 156.416 
156.888 157.244 157.683 153.601 153.726 154.066 154.393 154.846 155.27 
155.743 156.156 156.598 156.971 157.396 157.753 158.188 153.827 153.792 
154.043 154.192 154.563 154.89 155.32 155.749 156.213 156.65 157.133 
157.508 157.997 158.32 158.796 154.175 154.085 154.3 154.292 154.6 
154.722 155.095 155.365 155.84 156.258 156.838 157.277 157.841 158.188 
158.675 158.96 159.386 154.49 154.431 154.633 154.592 154.862 154.878 
155.211 155.306 155.737 156.001 156.586 157.005 157.613 158.011 158.486 
158.804 159.176 159.474 159.818 156.231 156.392 156.474 156.792 156.569 
156.643 156.996 157.063 157.388 156.918 156.884 157.236 157.274 157.624 
157.671 157.995 157.475 157.346 157.656 157.581 157.93 157.936 158.3 
158.313 158.653 158.04 157.936 158.247 158.096 158.42 158.329 158.727 
158.693 159.082 159.03 159.386 158.561 158.483 158.849 158.717 159.05 
158.904 159.286 159.2 159.608 159.524 159.879 159.793 160.144 159.136 
159.033 159.425 159.318 159.688 159.551 159.915 159.795 160.168 160.066 
160.403 160.299 160.62 160.551 160.903 159.705 159.619 159.99 159.898 
160.282 160.178 160.555 160.429 160.778 160.637 160.955 160.822 161.136 
161.038 161.374 161.308 161.636 160.16 160.135 160.498 160.439 160.813 
160.748 161.143 161.054 161.42 161.27 161.581 161.407 161.716 161.579 
161.908 161.801 162.104 162.005 162.255 160.502 161.18 160.86 160.881 
161.875 161.563 161.597 161.236 161.227 162.575 162.27 162.35 161.989 
162.017 161.616 161.598 163.374 163.036 163.164 162.784 162.849 162.444 
162.44 161.995 161.906 164.236 163.912 164.072 163.663 163.73 163.297 
163.282 162.831 162.72 162.24 162.065 165 164.767 164.975 164.604 
164.671 164.205 164.152 163.662 163.53 163.04 162.866 162.371 162.197 
165.64 165.485 165.744 165.467 165.553 165.127 165.032 164.522 164.333 
163.832 163.642 163.167 162.995 162.52 162.368 166.129 166.061 166.301 
166.139 166.208 165.899 165.764 165.322 165.063 164.584 164.321 163.879 
163.659 163.249 163.058 162.652 162.495 166.322 166.387 166.543 166.526 
166.531 166.376 166.207 165.904 165.625 165.226 164.926 164.499 164.221 
163.822 163.583 163.228 163.038 162.71 162.569 160.338 160.252 160.541 
161.025 160.197 160.469 160.988 161.255 161.722 160.224 160.454 160.934 
161.197 161.667 161.925 162.383 160.197 160.471 160.908 161.141 161.561 
161.824 162.299 162.6 163.131 160.009 160.372 160.851 161.113 161.52 
161.735 162.187 162.488 163.05 163.393 163.96 159.8 160.156 160.704 
161.035 161.517 161.74 162.179 162.411 162.929 163.267 163.833 164.183 
164.691 159.746 160.008 160.544 160.883 161.423 161.725 162.202 162.433 
162.893 163.157 163.664 164.001 164.511 164.851 165.314 159.797 159.997 
160.46 160.744 161.251 161.59 162.096 162.405 162.864 163.122 163.568 
163.846 164.323 164.651 165.121 165.445 165.839 159.825 160.018 160.417 
160.658 161.095 161.403 161.879 162.232 162.699 163.022 163.438 163.726 
164.132 164.45 164.866 165.209 165.566 165.872 166.098 154.683 155.006 
154.856 154.864 155.331 155.194 155.258 155.078 155.117 155.739 155.578 
155.694 155.511 155.617 155.404 155.482 156.262 156.076 156.244 156.023 
156.187 155.965 156.128 155.858 156.018 156.862 156.66 156.86 156.631 
156.822 156.6 156.839 156.589 156.845 156.543 156.847 157.524 157.282 
157.455 157.236 157.421 157.238 157.506 157.33 157.637 157.402 157.71 
157.457 157.805 158.219 157.946 158.061 157.812 157.968 157.796 158.07 
157.963 158.291 158.141 158.412 158.216 158.47 158.311 158.595 158.876 
158.618 158.723 158.439 158.577 158.354 158.626 158.513 158.879 158.764 
159.056 158.854 159.057 158.869 159.1 158.985 159.248 159.462 159.249 
159.391 159.122 159.277 159.015 159.275 159.108 159.486 159.369 159.718 
159.519 159.751 159.491 159.707 159.504 159.777 159.637 159.909 154.611 
154.487 154.685 154.908 154.295 154.509 154.766 154.967 155.202 154.306 
154.377 154.631 154.807 155.078 155.272 155.563 154.642 154.573 154.831 
154.818 155.086 155.171 155.465 155.662 156.024 154.987 154.991 155.326 
155.234 155.504 155.369 155.605 155.616 155.964 156.174 156.615 155.139 
155.248 155.638 155.712 156.033 155.916 156.109 155.934 156.209 156.228 
156.692 156.869 157.358 155.352 155.387 155.737 155.878 156.225 156.306 
156.537 156.456 156.688 156.616 157.027 157.084 157.593 157.69 158.13 
155.765 155.7 156.006 156.007 156.319 156.396 156.676 156.736 157.011 
157.043 157.411 157.467 157.911 157.98 158.394 158.447 158.793 156.196 
156.153 156.459 156.376 156.651 156.592 156.867 156.874 157.189 157.266 
157.65 157.763 158.173 158.265 158.63 158.69 159.007 159.058 159.353 
156.504 157.075 156.812 156.81 157.649 157.387 157.395 157.081 157.004 
158.243 157.97 157.99 157.677 157.618 157.259 157.18 158.903 158.6 
158.648 158.311 158.288 157.907 157.848 157.479 157.481 159.653 159.318 
159.385 159.018 159.01 158.617 158.592 158.204 158.228 157.873 157.965 
160.41 160.087 160.133 159.766 159.735 159.345 159.327 158.967 159.022 
158.671 158.76 158.409 158.503 161.042 160.784 160.807 160.48 160.426 
160.048 160.014 159.682 159.761 159.459 159.561 159.213 159.264 158.906 
158.94 161.539 161.335 161.373 161.103 161.067 160.718 160.676 160.351 
160.424 160.165 160.293 159.99 160.036 159.658 159.648 159.288 159.295 
161.997 161.804 161.861 161.633 161.631 161.335 161.306 160.997 161.046 
160.799 160.926 160.679 160.752 160.412 160.393 160.007 159.982 159.63 
159.638 162.284 162.639 162.359 162.128 162.94 162.676 162.429 162.16 
161.891 163.297 162.987 162.745 162.451 162.189 161.897 161.608 163.778 
163.413 163.181 162.824 162.592 162.251 162.01 161.659 161.406 164.254 
163.918 163.685 163.314 163.091 162.728 162.515 162.139 161.906 161.525 
161.292 164.657 164.368 164.152 163.805 163.571 163.229 163.005 162.656 
162.395 162.022 161.731 161.382 161.089 165.096 164.804 164.64 164.278 
164.042 163.682 163.436 163.101 162.811 162.454 162.1 161.75 161.387 
161.075 160.719 165.586 165.297 165.152 164.788 164.532 164.148 163.86 
163.507 163.19 162.829 162.442 162.07 161.664 161.331 160.953 160.654 
160.303 165.994 165.751 165.549 165.239 164.914 164.57 164.205 163.878 
163.517 163.182 162.78 162.402 161.968 161.603 161.205 160.889 160.537 
160.251 159.937 162.46 162.894 162.734 162.838 163.324 163.166 163.244 
163.077 163.141 163.717 163.571 163.63 163.461 163.531 163.379 163.488 
164.154 163.999 164.094 163.871 163.959 163.789 163.948 163.8 163.974 
164.599 164.496 164.649 164.402 164.502 164.283 164.466 164.302 164.501 
164.321 164.46 164.772 164.846 164.972 164.879 164.943 164.814 164.991 
164.863 165.058 164.859 164.963 164.744 164.827 164.557 164.783 164.841 
164.955 164.985 165.067 165.278 165.332 165.593 165.447 165.537 165.252 
165.28 165.074 165.197 164.231 164.446 164.528 164.695 164.798 164.973 
165.286 165.509 165.932 165.963 166.147 165.868 165.847 165.546 165.616 
165.474 165.662 164.074 164.198 164.382 164.496 164.732 164.866 165.254 
165.499 166.004 166.214 166.52 166.422 166.405 166.11 166.078 165.885 
166.023 165.942 166.109 162.263 162.072 162.341 162.698 161.815 162.12 
162.49 162.798 163.153 161.443 161.792 162.126 162.518 162.895 163.221 
163.539 160.996 161.362 161.649 162.063 162.404 162.843 163.176 163.546 
163.88 160.531 160.911 161.19 161.562 161.86 162.288 162.607 163.056 
163.403 163.856 164.235 160.018 160.438 160.725 161.098 161.386 161.776 
162.114 162.516 162.864 163.301 163.676 164.156 164.446 159.491 159.915 
160.216 160.606 160.899 161.306 161.694 162.112 162.512 162.862 163.194 
163.571 163.844 164.24 164.338 159.05 159.432 159.771 160.131 160.439 
160.817 161.209 161.679 162.136 162.551 162.878 163.171 163.37 163.667 
163.787 164.063 164.067 158.695 159.046 159.417 159.76 160.097 160.417 
160.773 161.188 161.623 162.101 162.454 162.816 162.991 163.252 163.357 
163.596 163.669 163.863 163.903 158.628 158.766 158.922 159.361 158.905 
159.07 159.537 159.671 160.065 159.086 159.232 159.725 159.865 160.308 
160.374 160.763 159.251 159.425 159.953 160.107 160.617 160.679 161.113 
161.131 161.576 159.252 159.504 160.045 160.319 160.883 161.027 161.459 
161.483 161.853 161.928 162.328 159.216 159.433 159.934 160.293 160.867 
161.183 161.592 161.725 161.976 162.08 162.362 162.535 162.836 159.361 
159.47 159.926 160.173 160.697 161.032 161.424 161.668 161.877 162.053 
162.284 162.489 162.793 162.967 163.227 159.551 159.671 160.099 160.246 
160.685 160.889 161.235 161.435 161.659 161.858 162.122 162.373 162.732 
162.947 163.255 163.361 163.564 159.574 159.782 160.165 160.362 160.717 
160.894 161.181 161.318 161.542 161.683 161.962 162.202 162.594 162.873 
163.237 163.404 163.63 163.685 163.829 159.641 159.852 159.911 160.227 
160.075 160.101 160.423 160.49 160.783 160.493 160.414 160.734 160.717 
161.039 161.038 161.26 161.015 160.934 161.281 161.162 161.479 161.374 
161.616 161.503 161.648 161.381 161.407 161.764 161.72 162.009 161.888 
162.106 161.94 162.104 161.926 162.098 161.659 161.702 162.068 162.104 
162.413 162.362 162.578 162.442 162.616 162.444 162.649 162.481 162.737 
162.005 162.011 162.424 162.437 162.847 162.787 163.098 162.939 163.172 
162.985 163.221 163.057 163.311 163.159 163.38 162.318 162.359 162.783 
162.842 163.314 163.305 163.688 163.541 163.807 163.598 163.846 163.656 
163.898 163.717 163.888 163.703 163.786 162.523 162.601 162.969 163.112 
163.543 163.686 164.039 164.049 164.236 164.142 164.301 164.214 164.421 
164.294 164.435 164.21 164.237 163.998 163.986 164.127 164.449 164.351 
164.481 164.728 164.715 164.9 164.763 164.9 164.669 164.835 165.027 
165.105 165.294 165.226 165.447 164.429 164.59 164.665 164.936 165.136 
165.417 165.73 165.828 166.141 164.343 164.376 164.369 164.496 164.66 
165.029 165.42 165.841 166.226 166.429 166.597 164.2 164.317 164.357 
164.376 164.538 164.695 165.087 165.443 165.875 166.237 166.444 166.601 
166.507 163.728 164.033 164.131 164.338 164.526 164.706 165.036 165.259 
165.628 165.887 166.144 166.338 166.385 166.397 166.263 163.157 163.485 
163.617 163.959 164.169 164.528 164.822 165.149 165.445 165.701 165.953 
166.137 166.318 166.372 166.431 166.31 166.263 162.726 162.992 163.162 
163.461 163.691 164.057 164.349 164.755 165.053 165.417 165.689 165.97 
166.209 166.374 166.527 166.529 166.551 166.404 166.331 154.321 154.714 
154.461 154.347 155.068 154.8 154.626 154.426 154.411 155.479 155.178 
155.013 154.73 154.677 154.558 154.713 155.976 155.653 155.548 155.21 
155.15 154.899 155.004 154.936 155.154 156.592 156.237 156.189 155.824 
155.794 155.458 155.517 155.314 155.524 155.432 155.659 157.302 156.953 
156.987 156.578 156.614 156.194 156.276 155.935 156.138 155.93 156.223 
156.043 156.292 157.973 157.702 157.827 157.461 157.571 157.134 157.271 
156.833 157.041 156.688 156.968 156.712 156.991 156.751 156.975 158.582 
158.368 158.528 158.258 158.38 158.06 158.205 157.854 158.046 157.671 
157.884 157.535 157.756 157.468 157.673 157.42 157.603 159.179 158.986 
159.15 158.906 158.997 158.742 158.852 158.636 158.818 158.579 158.759 
158.439 158.592 158.258 158.425 158.128 158.303 158.032 158.2 154.031 
154.141 153.964 153.695 154.319 154.128 153.931 153.675 153.461 154.697 
154.45 154.294 153.967 153.696 153.446 153.322 155.114 154.88 154.736 
154.398 154.061 153.686 153.4 153.285 153.312 155.5 155.232 155.044 
154.783 154.501 154.118 153.802 153.459 153.379 153.346 153.556 156.045 
155.637 155.37 155.045 154.842 154.559 154.442 154.068 154.041 153.694 
153.856 153.75 154.054 156.753 156.282 156.037 155.534 155.343 154.976 
154.998 154.747 154.887 154.554 154.689 154.336 154.545 154.369 154.664 
157.427 157.022 156.89 156.375 156.238 155.708 155.696 155.353 155.522 
155.307 155.475 155.189 155.297 155.006 155.198 155.033 155.312 158.022 
157.679 157.618 157.234 157.188 156.707 156.674 156.193 156.26 155.932 
156.094 155.851 155.983 155.715 155.846 155.621 155.845 155.701 155.961 
153.808 153.452 153.498 153.255 153.248 153.219 153.001 152.991 152.876 
153.266 153.177 153.014 152.868 152.764 152.783 152.898 153.451 153.369 
153.325 153.06 152.901 152.751 152.796 152.925 153.133 153.74 153.67 
153.759 153.497 153.336 153.005 152.908 152.848 152.973 153.131 153.277 
154.135 154.015 154.139 153.953 153.885 153.53 153.398 153.107 153.127 
153.054 153.179 153.245 153.362 154.647 154.432 154.491 154.318 154.308 
154.062 154 153.691 153.666 153.394 153.44 153.298 153.422 153.42 
153.592 155.251 154.956 154.936 154.686 154.655 154.451 154.44 154.235 
154.22 153.96 153.924 153.677 153.72 153.607 153.786 153.773 153.982 
155.875 155.554 155.486 155.163 155.093 154.834 154.844 154.654 154.686 
154.457 154.409 154.136 154.102 153.934 154.056 154.021 154.238 154.213 
154.388 161.972 161.51 161.751 161.773 161.018 161.283 161.299 161.549 
161.543 160.353 160.703 160.703 161.034 161.014 161.273 161.195 159.552 
159.929 159.883 160.308 160.27 160.645 160.543 160.835 160.716 158.813 
159.127 159.064 159.444 159.4 159.802 159.702 160.068 159.931 160.287 
160.188 158.175 158.442 158.385 158.694 158.65 158.977 158.888 159.211 
159.081 159.435 159.329 159.725 159.649 157.55 157.802 157.689 158.006 
157.907 158.243 158.116 158.435 158.301 158.624 158.523 158.873 158.803 
159.182 159.126 156.933 157.146 156.944 157.236 157.06 157.415 157.231 
157.596 157.428 157.814 157.718 158.104 158.046 158.394 158.343 158.696 
158.678 156.354 156.521 156.272 156.483 156.282 156.567 156.4 156.709 
156.535 156.888 156.774 157.219 157.185 157.626 157.597 157.965 157.941 
158.3 158.321 
POINT_DATA 1002
SCALARS Distance double
LOOKUP_TABLE default
159.6 159.359 158.943 159.233 158.627 159.789 158.973 158.375 159.505 
160.089 158.667 157.992 159.239 159.823 160.587 158.22 157.524 158.882 
159.49 160.231 161.048 157.776 157.179 158.492 159.166 159.859 160.63 
161.332 157.397 156.883 158.093 158.849 159.561 160.288 160.997 161.634 
157.034 156.523 157.673 158.414 159.158 159.909 160.672 161.368 161.992 
156.74 156.202 157.341 157.995 158.674 159.404 160.199 160.99 161.686 
162.268 156.532 156.002 157.113 157.708 158.315 158.985 159.729 160.5 
161.26 161.935 162.463 158.78 158.362 158.187 157.82 157.595 158.071 
157.308 156.937 157.56 157.777 156.724 156.291 157.035 157.171 157.314 
156.126 155.767 156.4 156.519 156.652 156.914 155.623 155.35 155.737 
155.795 155.978 156.35 156.69 155.195 154.991 155.154 155.111 155.315 
155.737 156.136 156.357 154.729 154.606 154.614 154.533 154.785 155.206 
155.513 155.705 155.911 154.167 154.126 154.048 154.004 154.344 154.844 
155.063 155.09 155.254 155.598 153.564 153.489 153.003 153.056 152.853 
153.467 153.166 153.12 153.333 153.805 153.44 153.35 153.453 153.822 
154.417 153.471 153.372 153.366 153.512 154.129 154.705 153.467 153.461 
153.252 153.046 153.393 154.083 154.622 153.656 153.771 153.394 153.007 
152.971 153.509 154.176 154.716 153.953 154.173 153.648 153.279 153.101 
153.411 154.048 154.635 155.118 154.262 154.528 153.914 153.576 153.418 
153.605 154.101 154.669 155.156 155.587 156.159 155.704 156.285 155.233 
155.797 156.51 154.77 155.386 156.149 157.015 154.326 155.098 155.912 
156.786 157.617 153.953 154.792 155.707 156.551 157.33 158.104 153.81 
154.438 155.313 156.212 157.033 157.827 158.633 153.992 154.33 154.923 
155.725 156.705 157.663 158.502 159.254 154.351 154.557 154.915 155.448 
156.347 157.463 158.399 159.125 159.779 154.681 154.867 155.163 155.555 
156.208 157.205 158.173 158.887 159.517 160.157 156.733 156.913 157.344 
157.231 157.566 157.963 157.793 157.947 158.278 158.661 158.399 158.551 
158.765 159.141 159.446 158.947 159.202 159.397 159.696 159.988 160.205 
159.522 159.806 160.056 160.292 160.516 160.707 160.951 160.081 160.368 
160.672 160.939 161.105 161.246 161.459 161.714 160.545 160.868 161.204 
161.554 161.769 161.871 162.034 162.233 162.369 160.804 161.232 161.506 
161.952 162.167 161.61 162.693 162.866 162.407 162.037 163.549 163.708 
163.253 162.889 162.397 164.479 164.521 164.189 163.75 163.208 162.558 
165.302 165.178 165.146 164.678 164.029 163.355 162.687 165.977 165.766 
165.954 165.56 164.86 164.112 163.459 162.841 166.441 166.182 166.488 
166.185 165.549 164.782 164.069 163.449 162.885 166.538 166.246 166.65 
166.458 165.98 165.349 164.648 163.949 163.353 162.877 160.053 160.766 
159.937 160.705 159.95 161.494 160.706 160.015 161.393 162.115 160.694 
159.885 161.325 161.965 162.819 160.539 159.604 161.321 161.916 162.68 
163.654 160.327 159.47 161.246 161.984 162.638 163.469 164.376 160.23 
159.538 161.077 161.946 162.678 163.365 164.159 165.001 160.224 159.629 
160.927 161.749 162.593 163.322 164.016 164.793 165.569 160.202 159.644 
160.824 161.535 162.354 163.151 163.841 164.54 165.264 165.866 154.843 
155.046 155.131 155.408 155.455 155.322 155.872 155.892 155.804 155.728 
156.467 156.429 156.394 156.363 156.292 157.083 157.075 157.032 157.042 
157.113 157.13 157.69 157.808 157.593 157.64 157.836 157.963 158.038 
158.34 158.51 158.154 158.156 158.414 158.625 158.65 158.725 159.006 
159.112 158.824 158.753 158.969 159.254 159.289 159.234 159.342 154.463 
154.75 154.25 154.529 154.109 155.021 154.495 154.315 154.873 155.343 
154.91 154.701 155.088 155.301 155.752 155.362 154.899 155.707 155.72 
155.798 156.342 155.485 155.032 156.068 156.326 156.286 156.545 157.191 
155.644 155.38 156.084 156.526 156.76 157.02 157.516 158.073 156.078 
155.839 156.296 156.58 156.924 157.35 157.865 158.352 158.759 156.545 