# vtk DataFile Version 4.0
vtk output
ASCII
DATASET POLYDATA
POINTS 1002 float
-118.498 -104.51 49.7855 -118.783 -104.078 49.5313 -118.258 -103.898 49.6391 
-118.046 -104.221 50.0922 -117.767 -103.711 49.8493 -118.344 -104.808 50.2831 
-117.545 -103.932 50.4998 -117.141 -103.612 50.061 -117.804 -104.532 50.678 
-118.187 -104.929 51.1035 -116.879 -103.766 50.8455 -116.372 -103.529 50.2021 
-117.086 -104.343 51.0636 -117.416 -104.83 51.3425 -117.909 -104.942 52.1075 
-116.212 -103.577 51.1073 -115.707 -103.31 50.4206 -116.354 -104.235 51.389 
-116.505 -104.855 51.5374 -117.058 -104.98 52.2172 -117.584 -104.983 53.2318 
-115.661 -103.258 51.4256 -115.218 -102.999 50.8099 -115.855 -103.908 51.7878 
-115.832 -104.751 51.9057 -116.185 -105.058 52.4066 -116.869 -104.991 53.4094 
-117.334 -105.157 54.281 -115.103 -102.986 51.7756 -114.78 -102.677 51.2533 
-115.404 -103.445 52.2454 -115.474 -104.253 52.515 -115.544 -104.881 52.891 
-116.009 -105 53.6506 -116.684 -105.057 54.4801 -117.18 -105.286 55.0105 
-114.576 -102.746 52.1123 -114.38 -102.309 51.6881 -114.85 -103.135 52.625 
-115.093 -103.691 53.0582 -115.167 -104.394 53.4721 -115.237 -104.863 54.0394 
-115.696 -105.026 54.7057 -116.445 -105.107 55.2644 -117.059 -105.174 55.6434 
-114.171 -102.411 52.4836 -113.999 -101.963 52.0903 -114.38 -102.845 53.0082 
-114.63 -103.28 53.4645 -114.858 -103.851 53.8776 -114.867 -104.503 54.4213 
-114.904 -104.937 55.0492 -115.433 -105.061 55.6245 -116.251 -105.039 56.0895 
-116.894 -104.991 56.4474 -113.779 -102.102 52.8376 -113.573 -101.76 52.4063 
-114.015 -102.499 53.4207 -114.225 -102.906 53.8911 -114.488 -103.348 54.2276 
-114.692 -103.942 54.7382 -114.685 -104.56 55.4401 -114.82 -104.9 56.0719 
-115.387 -104.972 56.5686 -116.104 -104.974 56.9794 -116.668 -104.961 57.3234 
-118.789 -103.569 49.2136 -118.144 -103.492 49.2272 -118.72 -103.166 48.6664 
-117.949 -103.174 48.6606 -118.536 -102.692 48.2327 -117.456 -103.502 49.2754 
-117.747 -102.665 48.2713 -118.337 -101.93 48.1194 -117.089 -103.27 48.6257 
-116.59 -103.55 49.2813 -117.607 -101.839 48.1539 -118.191 -101.102 47.897 
-116.91 -102.626 48.3006 -116.143 -103.235 48.6489 -115.735 -103.426 49.3778 
-117.523 -101.016 47.9733 -118.069 -100.568 47.2974 -116.939 -101.634 48.3399 
-116.159 -102.344 48.6023 -115.451 -102.903 48.9792 -115.203 -103.071 49.7667 
-117.508 -100.426 47.6391 -117.966 -100.165 46.8131 -117.002 -100.748 48.3489 
-116.367 -101.257 48.829 -115.619 -101.899 49.1213 -115.084 -102.4 49.5336 
-114.878 -102.605 50.349 -117.519 -99.8725 47.4563 -117.917 -99.5608 46.764 
-116.979 -100.119 48.1707 -116.336 -100.448 48.7281 -115.653 -100.952 49.1537 
-115.096 -101.488 49.5163 -114.764 -101.867 50.1454 -114.552 -102.11 50.9692 
-117.488 -99.2154 47.5152 -117.915 -98.83 46.899 -116.851 -99.5634 48.0317 
-116.089 -99.8911 48.3711 -115.372 -100.305 48.7983 -114.865 -100.767 49.3212 
-114.612 -101.135 50.0029 -114.43 -101.422 50.8507 -114.195 -101.704 51.5526 
-117.403 -98.5886 47.6552 -117.893 -98.228 47.0322 -116.687 -99.0004 48.0406 
-115.872 -99.3912 48.1678 -115.152 -99.7897 48.485 -114.63 -100.218 49.0998 
-114.366 -100.582 49.8348 -114.253 -100.869 50.7032 -114.054 -101.172 51.4882 
-113.769 -101.492 51.9838 -117.461 -97.9793 47.6371 -116.722 -98.3503 48.0752 
-116.752 -97.7839 48.1397 -115.91 -98.0924 48.2663 -115.97 -97.503 48.4074 
-115.881 -98.7713 48.1748 -115.31 -97.7643 48.664 -115.406 -97.2158 48.9219 
-115.319 -98.5022 48.5397 -115.215 -99.2044 48.4322 -115.019 -97.645 49.6465 
-115.146 -97.2221 49.9797 -115.102 -98.3043 49.5159 -115.007 -99.0097 49.3672 
-114.712 -99.6516 49.1366 -114.816 -97.855 50.8173 -114.976 -97.4661 51.1298 
-114.825 -98.3648 50.638 -114.755 -98.9102 50.4619 -114.462 -99.4627 50.1493 
-114.26 -100.052 49.8743 -114.445 -97.957 51.7028 -114.659 -97.5863 52.0058 
-114.3 -98.404 51.445 -114.092 -98.8581 51.102 -113.809 -99.2659 50.714 
-113.754 -99.7918 50.5363 -113.978 -100.381 50.6027 -113.877 -97.7446 52.3267 
-114.222 -97.5427 52.7016 -113.646 -98.096 52.0568 -113.419 -98.6338 51.6871 
-113.076 -99.0958 51.155 -112.999 -99.5461 50.8966 -113.353 -100.171 51.1155 
-113.775 -100.747 51.4132 -113.333 -97.5231 52.9251 -113.812 -97.4976 53.3882 
-113.024 -97.7105 52.6157 -112.929 -98.2972 52.3979 -112.751 -98.9721 52.0336 
-112.58 -99.4519 51.6572 -112.75 -100.014 51.6342 -113.13 -100.681 51.8628 
-113.476 -101.161 52.0016 -112.97 -97.4697 53.6973 -113.469 -97.4712 54.1458 
-112.624 -97.5846 53.3076 -112.567 -98.1012 53.0843 -112.568 -98.8711 52.9302 
-112.482 -99.4627 52.7256 -112.502 -99.9466 52.548 -112.667 -100.588 52.4627 
-112.89 -101.175 52.4185 -113.2 -101.513 52.3957 -113.221 -101.851 52.9606 
-112.789 -101.636 52.9364 -112.871 -102 53.7183 -112.556 -101.225 53.0952 
-112.477 -101.743 53.7826 -112.506 -102.173 54.5722 -112.448 -100.557 53.3568 
-112.324 -101.228 54.0509 -112.184 -101.816 54.7624 -112.19 -102.23 55.4388 
-112.306 -99.9227 53.5257 -112.142 -100.502 54.2751 -112.023 -101.257 54.9966 
-111.924 -101.84 55.7082 -112.08 -102.148 56.4661 -112.269 -99.3879 53.6124 
-111.891 -99.7939 54.3413 -111.729 -100.481 55.1134 -111.779 -101.339 55.9282 
-111.854 -101.86 56.7999 -112.104 -102.132 57.7153 -112.353 -98.7173 53.7601 
-111.979 -99.2058 54.5234 -111.57 -99.6738 55.3174 -111.575 -100.523 56.1811 
-111.767 -101.373 57.1366 -111.854 -101.867 58.1265 -112.054 -102.193 58.9207 
-112.388 -98.036 54.0348 -112.27 -98.6836 54.9172 -111.914 -99.1784 55.744 
-111.615 -99.7353 56.5515 -111.698 -100.522 57.4816 -111.778 -101.224 58.4923 
-111.767 -101.725 59.3361 -112.055 -102.098 59.7851 -112.514 -97.6339 54.4211 
-112.398 -98.1742 55.3452 -112.322 -98.8516 56.1564 -112.032 -99.3801 56.8306 
-111.849 -99.8649 57.6442 -111.847 -100.416 58.6175 -111.757 -100.959 59.5142 
-111.82 -101.442 60.0887 -112.35 -101.834 60.2762 -112.879 -97.4827 54.8149 
-112.522 -97.738 55.681 -112.474 -98.3615 56.4226 -112.43 -99.0669 56.939 
-112.254 -99.5594 57.5835 -112.144 -99.9251 58.4677 -112.051 -100.327 59.3391 
-111.965 -100.766 60.0356 -112.212 -101.195 60.4493 -112.871 -101.589 60.5753 
-113.5 -102.166 53.6067 -113.136 -102.352 54.4089 -113.766 -102.546 54.2314 
-112.752 -102.552 55.1565 -113.433 -102.709 54.9376 -114.015 -102.916 54.613 
-112.572 -102.531 56.0981 -113.197 -102.828 55.7649 -113.799 -102.966 55.4558 
-114.347 -103.332 55.0884 -112.595 -102.394 57.3661 -113.178 -102.749 56.9706 
-113.697 -102.972 56.6238 -114.23 -103.271 56.2964 -114.601 -103.912 55.8883 
-112.554 -102.425 58.6056 -113.144 -102.685 58.2256 -113.663 -102.956 57.8128 
-114.194 -103.216 57.461 -114.635 -103.734 57.1041 -114.742 -104.431 56.6231 
-112.538 -102.476 59.4878 -113.079 -102.735 59.1604 -113.619 -103.006 58.7634 
-114.245 -103.263 58.3125 -114.809 -103.59 57.9233 -115.016 -104.145 57.5607 
-115.061 -104.698 57.111 -112.848 -102.32 60.02 -113.332 -102.676 59.7805 
-113.775 -103.001 59.568 -114.382 -103.338 59.2251 -115.018 -103.617 58.7701 
-115.3 -103.992 58.3445 -115.341 -104.509 57.9656 -115.577 -104.876 57.5317 
-113.383 -102.075 60.3887 -113.866 -102.49 60.2351 -114.206 -102.862 60.2094 
-114.63 -103.283 60.1432 -115.161 -103.678 59.8875 -115.435 -104.032 59.467 
-115.456 -104.486 58.9676 -115.633 -104.901 58.4698 -116.104 -105.029 57.9413 
-113.711 -101.751 60.8224 -114.216 -102.233 60.7341 -114.329 -102.028 61.322 
-114.673 -102.499 61.486 -114.689 -102.328 62.1571 -114.586 -102.642 60.7751 
-114.996 -102.756 62.5086 -115.274 -102.519 63.0252 -115.017 -102.889 61.5978 
-114.893 -103.075 60.8484 -115.73 -102.973 63.1925 -116.228 -102.671 63.4165 
-115.575 -103.171 62.3607 -115.459 -103.385 61.4651 -115.291 -103.603 60.8026 
-116.681 -103.274 63.2335 -117.21 -102.887 63.4388 -116.446 -103.533 62.7495 
-116.169 -103.773 61.9465 -115.753 -104.025 61.3348 -115.51 -104.112 60.6179 
-117.593 -103.581 63.2234 -118.234 -103.081 63.636 -117.205 -103.95 62.9185 
-116.922 -104.195 62.4231 -116.357 -104.451 61.7995 -115.754 -104.615 61.1863 
-115.498 -104.6 60.1733 -118.658 -103.766 63.4771 -119.248 -103.224 63.823 
-117.981 -104.236 63.1483 -117.506 -104.534 62.8095 -117.078 -104.755 62.2042 
-116.482 -104.924 61.5052 -115.938 -105.036 60.6347 -115.696 -105.026 59.5049 
-119.573 -103.925 63.4422 -119.854 -103.398 63.4802 -118.965 -104.403 63.2158 
-118.256 -104.769 62.8724 -117.734 -105.028 62.2868 -117.381 -105.096 61.5754 
-116.952 -105.104 60.8092 -116.49 -105.172 59.8457 -116.224 -105.151 58.8179 
-119.959 -104.109 62.8842 -120.047 -103.583 62.7474 -119.687 -104.558 62.8401 
-119.154 -104.947 62.5715 -118.496 -105.324 62.0448 -118.049 -105.434 61.4443 
-117.815 -105.21 60.8587 -117.479 -105.034 60.0706 -117.07 -105.022 59.0738 
-116.812 -104.999 58.1188 -113.042 -101.181 60.7739 -113.825 -101.387 61.1413 
-113.472 -100.807 60.8567 -114.192 -100.984 61.3282 -114.069 -100.392 60.8674 
-114.426 -101.696 61.6479 -114.717 -100.561 61.3351 -114.551 -99.9238 60.862 
-114.869 -101.313 61.689 -115.037 -101.999 62.2802 -115.154 -100.202 61.2174 
-114.961 -99.5981 60.7514 -115.444 -101.023 61.4881 -115.766 -101.713 61.9734 
-115.988 -102.196 62.8703 -115.658 -99.9653 60.9785 -115.607 -99.5212 60.3973 
-115.94 -100.761 61.2818 -116.419 -101.563 61.5608 -116.84 -102.031 62.3594 
-117.035 -102.371 63.2444 -116.406 -99.8241 60.5448 -116.382 -99.4709 59.9066 
-116.577 -100.381 61.11 -116.922 -101.177 61.3877 -117.376 -101.907 61.8306 
-117.744 -102.295 62.8109 -117.988 -102.581 63.5681 -117.112 -99.6096 60.0676 
-116.984 -99.161 59.6054 -117.308 -100.039 60.7594 -117.51 -100.521 61.3557 
-117.765 -101.321 61.578 -118.13 -102.167 62.095 -118.537 -102.547 63.1395 
-118.935 -102.752 63.828 -117.609 -99.1022 59.8826 -117.426 -98.5792 59.6225 
-117.845 -99.7177 60.3042 -118.033 -100.09 61.0316 -118.203 -100.517 61.5255 
-118.468 -101.491 61.6188 -118.805 -102.402 62.1312 -119.204 -102.686 63.0749 
-119.609 -102.882 63.5891 -118.039 -98.3807 60.0008 -117.837 -97.9774 59.7336 
-118.269 -99.1527 60.0911 -118.436 -99.8183 60.4571 -118.609 -100.092 61.1536 
[...]
CELL_DATA 2000
SCALARS Distance double
LOOKUP_TABLE default
164.411 163.986 164.321 164.598 163.563 163.91 164.176 164.528 164.813 
163.072 163.465 163.709 164.072 164.318 164.706 164.964 162.534 162.951 
163.219 163.582 163.795 164.167 164.415 164.824 165.094 162.048 162.435 
162.739 163.105 163.347 163.674 163.915 164.284 164.596 164.997 165.32 
161.63 161.978 162.267 162.64 162.921 163.262 163.512 163.838 164.118 
164.507 164.847 165.259 165.568 161.24 161.563 161.822 162.178 162.461 
162.832 163.108 163.448 163.686 164.03 164.294 164.721 165.022 165.457 
165.697 160.869 161.172 161.427 161.754 162.025 162.376 162.665 163.027 
163.294 163.614 163.841 164.176 164.439 164.857 165.143 165.548 165.761 
160.523 160.808 161.069 161.385 161.655 161.969 162.233 162.579 162.873 
163.227 163.509 163.804 164.061 164.361 164.652 165.015 165.306 165.647 
165.867 164.226 163.781 163.92 163.769 163.27 163.442 163.27 163.458 
163.328 162.673 162.893 162.706 162.912 162.728 162.957 162.798 162.008 
162.264 162.084 162.307 162.081 162.297 162.083 162.356 162.212 161.371 
161.608 161.46 161.681 161.484 161.661 161.44 161.646 161.501 161.794 
161.728 160.859 161.041 160.924 161.107 160.964 161.12 160.938 161.081 
160.931 161.145 161.087 161.376 161.347 160.433 160.597 160.481 160.626 
160.456 160.611 160.411 160.582 160.396 160.604 160.498 160.768 160.729 
161.019 160.98 160.017 160.189 160.055 160.183 159.932 160.06 159.775 
159.971 159.745 160 159.877 160.169 160.135 160.427 160.406 160.669 
160.627 159.628 159.779 159.628 159.731 159.441 159.514 159.196 159.33 
159.122 159.342 159.266 159.547 159.566 159.863 159.895 160.146 160.125 
160.343 160.3 159.416 158.984 159.258 159.319 158.37 158.692 158.687 
159.039 159.057 157.834 158.069 158.129 158.425 158.503 158.783 158.85 
157.745 157.759 157.971 158.105 158.361 158.463 158.616 158.723 158.862 
158.041 157.932 158.158 158.182 158.465 158.508 158.66 158.666 158.757 
158.846 159.029 158.242 158.207 158.271 158.332 158.395 158.504 158.455 
158.568 158.52 158.703 158.827 159.064 159.32 158.137 158.166 158.034 
158.174 158.067 158.228 158.048 158.168 158.029 158.269 158.392 158.767 
159.065 159.38 159.658 157.96 157.908 157.648 157.744 157.64 157.822 
157.788 157.853 157.821 157.877 158.043 158.318 158.69 159.061 159.393 
159.674 159.89 157.917 157.758 157.484 157.425 157.38 157.498 157.664 
157.772 157.944 157.928 158.129 158.188 158.534 158.761 159.122 159.383 
159.632 159.858 160.05 160.103 159.672 159.951 160.122 159.236 159.537 
159.71 160.016 160.245 158.765 159.106 159.336 159.639 159.863 160.163 
160.386 158.368 158.659 158.883 159.219 159.451 159.792 160.016 160.311 
160.552 158.092 158.315 158.426 158.704 158.865 159.277 159.557 159.956 
160.252 160.554 160.891 157.767 158.022 158.132 158.313 158.403 158.678 
158.968 159.436 159.867 160.284 160.671 160.976 161.344 157.455 157.675 
157.933 158.134 158.354 158.442 158.702 158.954 159.414 159.86 160.327 
160.721 161.059 161.377 161.672 157.481 157.497 157.798 158.013 158.41 
158.55 158.862 158.926 159.277 159.514 159.956 160.324 160.674 161.015 
161.265 161.604 161.876 157.854 157.692 157.868 157.958 158.33 158.567 
158.945 159.1 159.399 159.512 159.847 160.054 160.402 160.654 160.927 
161.197 161.466 161.806 162.138 160.411 160.473 160.61 160.983 160.597 
160.719 161.1 161.227 161.583 160.718 160.847 161.216 161.347 161.693 
161.803 162.14 160.892 160.982 161.379 161.484 161.848 161.927 162.288 
162.391 162.779 161.241 161.244 161.682 161.727 162.141 162.157 162.55 
162.602 163.037 163.11 163.487 161.68 161.661 162.077 162.096 162.513 
162.513 162.904 162.925 163.358 163.418 163.818 163.814 164.094 162.024 
162.064 162.442 162.474 162.86 162.88 163.266 163.289 163.7 163.748 
164.144 164.155 164.457 164.4 164.657 162.286 162.367 162.78 162.816 
163.219 163.232 163.666 163.679 164.131 164.128 164.529 164.497 164.817 
164.767 165.047 164.994 165.279 162.582 162.661 163.141 163.18 163.628 
163.632 164.102 164.123 164.622 164.617 165.034 164.948 165.254 165.155 
165.437 165.38 165.662 165.615 165.862 162.946 163.732 163.409 163.525 
164.496 164.191 164.309 163.968 164.031 165.282 164.947 165.069 164.736 
164.827 164.465 164.531 166.166 165.785 165.905 165.524 165.631 165.267 
165.381 165.007 165.077 167.028 166.672 166.815 166.429 166.54 166.122 
166.213 165.835 165.894 165.51 165.471 167.877 167.505 167.656 167.322 
167.466 167.07 167.121 166.682 166.668 166.258 166.178 165.776 165.644 
168.784 168.397 168.513 168.144 168.268 167.924 167.972 167.565 167.502 
167.043 166.926 166.471 166.341 165.916 165.808 169.449 169.244 169.342 
168.999 169.035 168.674 168.673 168.315 168.251 167.845 167.718 167.259 
167.112 166.65 166.525 166.108 166.02 169.634 169.678 169.796 169.664 
169.668 169.382 169.318 168.971 168.886 168.523 168.407 168.008 167.837 
167.401 167.205 166.791 166.627 166.272 166.163 162.73 162.733 162.978 
163.518 162.846 163.027 163.529 163.774 164.294 162.953 163.144 163.62 
163.823 164.346 164.571 165.108 162.999 163.21 163.72 163.938 164.497 
164.7 165.288 165.47 166.026 163.147 163.28 163.811 164.039 164.653 
164.892 165.531 165.722 166.31 166.431 166.927 163.445 163.506 163.995 
164.167 164.759 165.017 165.653 165.928 166.54 166.731 167.261 167.336 
167.808 163.666 163.778 164.214 164.371 164.871 165.087 165.614 165.921 
166.492 166.837 167.4 167.634 168.132 168.231 168.687 163.694 163.88 
164.28 164.503 164.935 165.146 165.547 165.799 166.252 166.638 167.169 
167.586 168.064 168.376 168.75 168.962 169.265 163.648 163.836 164.208 
164.466 164.875 165.121 165.48 165.696 166.067 166.371 166.831 167.242 
167.674 168.078 168.376 168.736 168.94 169.256 169.397 158.114 158.409 
158.168 158.085 158.822 158.524 158.482 158.283 158.439 159.502 159.102 
159.086 158.763 158.901 158.776 159.045 160.229 159.873 159.882 159.495 
159.582 159.31 159.529 159.389 159.588 160.822 160.541 160.581 160.278 
160.338 160.029 160.16 159.931 160.111 159.908 160.054 161.518 161.173 
161.259 160.948 161.029 160.723 160.806 160.553 160.694 160.482 160.625 
160.4 160.541 162.319 161.975 162.103 161.731 161.831 161.441 161.501 
161.173 161.292 161.067 161.228 160.999 161.115 160.882 161.016 162.936 
162.724 162.857 162.579 162.668 162.291 162.308 161.908 161.974 161.686 
161.864 161.631 161.792 161.505 161.622 161.366 161.546 163.362 163.232 
163.375 163.212 163.318 163.051 163.067 162.701 162.72 162.393 162.539 
162.298 162.501 162.228 162.382 162.062 162.232 161.971 162.224 158.294 
158.494 158.457 158.518 158.537 158.545 158.664 158.674 158.862 158.925 
158.71 158.883 158.829 159.12 159.144 159.503 159.673 159.352 159.513 
159.259 159.581 159.496 159.903 159.887 160.242 160.077 160.013 160.155 
159.975 160.222 160.081 160.444 160.351 160.678 160.585 160.853 160.12 
160.184 160.369 160.403 160.624 160.622 160.903 160.867 161.145 161.048 
161.298 161.196 161.509 160.403 160.31 160.559 160.555 160.847 160.882 
161.166 161.19 161.439 161.43 161.673 161.638 161.929 161.903 162.255 
160.954 160.769 161.025 160.908 161.24 161.184 161.503 161.451 161.696 
161.66 161.896 161.918 162.201 162.248 162.546 162.58 162.856 161.483 
161.329 161.552 161.433 161.731 161.655 161.968 161.873 162.116 161.991 
162.205 162.145 162.415 162.449 162.742 162.793 163.041 163.07 163.281 
161.811 162.359 162.013 161.907 162.987 162.612 162.519 162.162 162.105 
163.65 163.281 163.207 162.82 162.756 162.399 162.338 164.297 163.951 
163.896 163.521 163.435 163.058 162.962 162.6 162.473 164.937 164.595 
164.541 164.187 164.101 163.725 163.612 163.226 163.085 162.694 162.55 
165.577 165.246 165.207 164.844 164.771 164.382 164.279 163.885 163.764 
163.35 163.218 162.81 162.734 166.155 165.879 165.879 165.537 165.47 
165.068 164.945 164.545 164.428 164.041 163.93 163.521 163.425 163.046 
163.021 166.626 166.417 166.425 166.163 166.078 165.726 165.548 165.169 
165.01 164.669 164.571 164.219 164.126 163.741 163.657 163.316 163.286 
167.012 166.839 166.833 166.628 166.524 166.236 166.021 165.685 165.487 
165.19 165.1 164.821 164.766 164.423 164.335 163.955 163.872 163.545 
163.51 167.228 167.498 167.252 167.03 167.698 167.481 167.175 166.969 
166.668 167.726 167.591 167.252 167.051 166.67 166.492 166.133 167.795 
167.609 167.347 167.125 166.774 166.52 166.159 165.951 165.641 168.227 
167.852 167.645 167.326 167.08 166.75 166.462 166.125 165.851 165.575 
165.33 168.762 168.373 168.076 167.724 167.488 167.163 166.918 166.547 
166.259 165.899 165.615 165.322 165.037 168.974 168.729 168.339 168.076 
167.776 167.54 167.266 166.969 166.616 166.277 165.902 165.599 165.24 
164.971 164.613 169.055 168.833 168.502 168.253 167.962 167.748 167.452 
167.206 166.809 166.515 166.088 165.814 165.423 165.152 164.766 164.496 
164.136 169.296 169.034 168.819 168.508 168.27 167.972 167.675 167.368 
166.956 166.642 166.212 165.951 165.59 165.337 164.981 164.682 164.318 
164.042 163.744 167.39 167.775 167.626 167.71 168.224 168.073 168.196 
167.982 167.987 168.685 168.578 168.763 168.532 168.502 168.171 168.017 
169.015 169.019 169.281 169.133 169.083 168.683 168.424 168.089 167.984 
169.088 169.207 169.486 169.556 169.568 169.243 168.919 168.499 168.387 
168.207 168.393 169.016 169.111 169.275 169.53 169.635 169.603 169.368 
169.009 168.868 168.666 168.914 168.821 169.045 169.07 168.986 168.933 
169.126 169.209 169.463 169.453 169.39 169.31 169.148 169.313 169.281 
169.499 169.355 169.319 169.336 169.083 168.84 168.773 168.716 168.959 
169.127 169.367 169.521 169.527 169.641 169.589 169.704 169.646 169.629 
169.445 169.322 169.604 169.347 169.029 168.775 168.596 168.605 168.786 
169.066 169.442 169.656 169.896 169.874 169.93 169.813 169.794 169.669 
169.634 169.472 169.467 167.28 167.267 167.394 167.653 167.267 167.415 
167.678 167.79 168.063 167.148 167.387 167.706 167.85 168.111 168.213 
168.482 166.861 167.179 167.529 167.817 168.174 168.325 168.581 168.637 
168.836 166.512 166.835 167.138 167.515 167.928 168.299 168.677 168.809 
168.968 168.939 168.999 166.19 166.497 166.796 167.114 167.489 167.926 
168.364 168.744 168.969 169.06 169.058 169.025 169.018 165.897 166.209 
166.581 166.86 167.257 167.568 167.98 168.339 168.591 168.841 168.872 
168.997 169.025 169.078 169.159 165.627 165.94 166.339 166.668 167.114 
167.424 167.843 168.088 168.33 168.474 168.538 168.686 168.808 169.022 
169.265 169.349 169.512 165.371 165.671 166.024 166.38 166.785 167.19 
167.6 167.943 168.208 168.35 168.431 168.475 168.62 168.805 169.151 
169.397 169.714 169.744 169.825 165.327 165.416 165.569 165.967 165.467 
165.653 166.078 166.239 166.701 165.515 165.725 166.182 166.35 166.827 
167.018 167.512 165.537 165.786 166.298 166.484 166.95 167.125 167.596 
167.792 168.145 165.517 165.783 166.329 166.595 167.089 167.257 167.674 
167.837 168.178 168.29 168.434 165.49 165.735 166.254 166.582 167.13 
167.371 167.79 167.924 168.271 168.361 168.621 168.582 168.723 165.391 
165.657 166.111 166.463 167.004 167.343 167.784 167.991 168.328 168.474 
168.821 168.878 169.182 169.066 169.309 165.133 165.455 165.834 166.224 
166.679 167.107 167.513 167.852 168.134 168.404 168.69 168.961 169.285 
169.449 169.707 169.683 169.842 164.81 165.127 165.454 165.839 166.203 
166.654 166.995 167.427 167.664 168.032 168.21 168.597 168.803 169.219 
169.41 169.734 169.821 169.954 169.906 164.76 164.936 165.008 165.385 
165.158 165.211 165.553 165.656 166.088 165.332 165.418 165.735 165.816 
166.184 166.354 166.81 165.463 165.56 165.882 165.97 166.295 166.427 
166.82 167.033 167.455 165.673 165.719 166.056 166.121 166.47 166.556 
166.914 167.046 167.419 167.616 168.002 165.924 165.968 166.317 166.359 
166.753 166.799 167.165 167.194 167.488 167.581 167.906 168.13 168.544 
166.043 166.159 166.499 166.613 167.025 167.124 167.506 167.501 167.728 
167.686 167.883 168.009 168.364 168.675 169.124 166.061 166.194 166.488 
166.677 167.058 167.292 167.682 167.796 168.016 167.953 168.064 168.036 
168.27 168.471 168.876 169.217 169.591 166.131 166.211 166.46 166.604 
166.927 167.192 167.567 167.823 168.079 168.158 168.274 168.244 168.391 
168.445 168.713 168.942 169.247 169.554 169.737 169.544 169.171 169.284 
169.026 168.822 168.975 168.894 168.831 168.655 168.573 168.736 168.836 
168.84 168.849 168.727 168.849 168.371 168.522 168.649 168.8 168.968 
169.012 169.26 169.219 169.531 168.107 168.282 168.344 168.561 168.779 
169.035 169.394 169.574 169.907 169.905 170.055 167.63 167.914 167.994 
168.249 168.482 168.796 169.205 169.547 169.928 170.108 170.223 170.172 
170.069 167.047 167.375 167.547 167.882 168.168 168.512 168.9 169.279 
169.655 169.961 170.12 170.202 170.109 170.028 169.87 166.613 166.877 
167.106 167.448 167.775 168.159 168.503 168.899 169.19 169.567 169.743 
169.99 170.004 170.042 169.95 169.859 169.748 166.304 166.536 166.749 
167.055 167.347 167.725 168.019 168.412 168.63 169.011 169.151 169.505 
169.588 169.84 169.856 169.928 169.871 169.781 169.662 159.661 160.054 
159.849 159.928 160.5 160.294 160.412 160.251 160.505 160.968 160.774 
160.927 160.771 161.033 160.928 161.209 161.516 161.295 161.467 161.294 
161.532 161.427 161.688 161.574 161.73 162.183 161.927 162.123 161.884 
162.104 161.925 162.162 162.029 162.221 162.038 162.146 162.894 162.659 
162.917 162.637 162.88 162.585 162.806 162.561 162.782 162.574 162.77 
162.525 162.704 163.53 163.374 163.697 163.474 163.758 163.444 163.653 
163.309 163.507 163.223 163.461 163.215 163.468 163.201 163.458 164.048 
163.969 164.314 164.198 164.492 164.275 164.469 164.162 164.323 164.012 
164.23 163.963 164.238 163.989 164.265 164.001 164.254 164.477 164.438 
164.777 164.731 165.024 164.9 165.1 164.886 165.058 164.803 165.016 
164.755 165.005 164.756 165.008 164.767 164.99 164.741 164.926 159.475 
159.744 159.479 159.312 160.335 159.897 159.694 159.374 159.222 161.032 
160.581 160.338 159.889 159.685 159.338 159.209 161.518 161.185 160.935 
160.538 160.304 159.899 159.753 159.409 159.358 161.906 161.585 161.376 
161.06 160.893 160.533 160.415 160.039 160.006 159.668 159.711 162.465 
162.046 161.89 161.54 161.488 161.158 161.139 160.756 160.73 160.354 
160.386 160.08 160.179 163.238 162.743 162.617 162.183 162.17 161.825 
161.876 161.52 161.521 161.114 161.098 160.746 160.817 160.557 160.686 
164.052 163.579 163.464 162.997 162.955 162.562 162.586 162.245 162.262 
161.894 161.882 161.495 161.529 161.204 161.317 161.059 161.178 164.735 
164.349 164.231 163.819 163.745 163.347 163.319 162.95 162.943 162.595 
162.607 162.262 162.307 161.961 162.041 161.721 161.811 161.526 161.591 
159.33 159.155 159.177 158.988 159.03 159.024 158.857 158.799 158.471 
158.964 158.901 158.743 158.704 158.443 158.268 157.932 159.05 158.857 
158.654 158.603 158.449 158.327 158.089 157.868 157.756 159.379 159.028 
158.74 158.559 158.448 158.388 158.318 158.141 158.062 157.897 157.997 
159.894 159.463 159.145 158.773 158.636 158.491 158.537 158.424 158.414 
158.229 158.231 158.163 158.244 160.452 160.038 159.758 159.297 159.14 
158.851 158.94 158.771 158.818 158.574 158.49 158.332 158.323 158.302 
158.272 160.947 160.594 160.343 159.921 159.736 159.416 159.484 159.297 
159.384 159.074 158.923 158.584 158.456 158.354 158.366 158.305 158.221 
161.349 161.053 160.812 160.454 160.231 159.934 159.917 159.787 159.883 
159.668 159.522 159.088 158.813 158.521 158.46 158.407 158.433 158.308 
158.205 167.047 166.647 166.896 167.002 166.177 166.46 166.549 166.843 
166.96 165.637 165.961 166.053 166.358 166.442 166.751 166.819 165.007 
165.376 165.476 165.828 165.887 166.197 166.222 166.535 166.547 164.324 
164.692 164.749 165.164 165.212 165.584 165.569 165.897 165.876 166.213 
166.204 163.671 163.999 164.003 164.384 164.415 164.828 164.828 165.197 
165.156 165.507 165.486 165.847 165.847 163.05 163.366 163.376 163.685 
163.692 164.04 164.053 164.429 164.423 164.782 164.763 165.117 165.121 
165.49 165.521 162.438 162.754 162.782 163.089 163.083 163.377 163.35 
163.678 163.669 164.038 164.043 164.409 164.42 164.778 164.815 165.189 
165.253 161.876 162.157 162.156 162.466 162.44 162.75 162.696 163.001 
162.957 163.296 163.294 163.671 163.689 164.071 164.099 164.485 164.543 
164.937 165.012 
POINT_DATA 1002
SCALARS Distance double
LOOKUP_TABLE default
164.66 164.516 164.058 164.247 163.652 164.888 163.831 163.207 164.449 
165.103 163.359 162.65 163.938 164.567 165.226 162.847 162.106 163.452 
163.998 164.681 165.377 162.354 161.684 163.017 163.573 164.175 164.935 
165.649 161.898 161.309 162.551 163.198 163.767 164.414 165.194 165.861 
161.482 160.932 162.086 162.749 163.381 163.913 164.556 165.317 165.915 
161.104 160.573 161.696 162.296 162.952 163.551 164.061 164.701 165.414 
165.955 160.748 160.247 161.356 161.915 162.49 163.179 163.8 164.323 
164.932 165.573 166.076 164.105 163.597 163.64 163.089 163.083 163.125 
162.508 162.429 162.522 162.539 161.855 161.742 161.891 161.831 161.881 
161.227 161.147 161.3 161.265 161.226 161.396 160.751 160.681 160.795 
160.799 160.754 160.815 161.05 160.362 160.257 160.334 160.241 160.194 
160.243 160.439 160.7 159.95 159.845 159.855 159.608 159.479 159.564 
159.826 160.142 160.376 159.544 159.498 159.39 159.079 158.903 158.984 
159.251 159.622 159.921 160.08 159.207 159.026 158.719 158.333 158.058 
158.703 157.816 157.628 158.24 158.568 157.836 157.773 158.262 158.584 
158.7 158.188 158.165 158.452 158.683 158.718 158.855 158.269 158.294 
158.357 158.379 158.306 158.539 159.089 157.935 158.183 157.898 157.948 
157.819 157.962 158.676 159.432 157.608 158.09 157.4 157.623 157.796 
157.851 158.317 159.078 159.67 157.576 158.085 157.269 157.472 157.899 
158.139 158.398 158.889 159.401 159.825 160.238 159.791 160.337 159.42 
159.921 160.478 159.011 159.579 160.093 160.589 158.57 159.07 159.708 
160.251 160.817 158.238 158.473 159.055 159.911 160.596 161.264 157.93 
158.23 158.509 159.345 160.348 161.071 161.7 157.626 158.246 158.589 
159.011 159.89 160.747 161.36 161.957 157.6 158.17 158.818 159.18 
159.644 160.336 160.94 161.497 162.175 157.901 158.106 158.716 159.303 
159.715 160.183 160.686 161.156 161.747 162.493 160.846 160.976 161.48 
161.087 161.587 162.015 161.272 161.779 162.18 162.669 161.644 162.133 
162.513 162.96 163.483 162.077 162.512 162.895 163.304 163.812 164.16 
162.417 162.834 163.234 163.669 164.128 164.494 164.718 162.728 163.196 
163.629 164.136 164.589 164.87 165.09 165.334 163.08 163.615 164.073 
164.605 165.126 165.386 165.508 165.716 165.939 163.266 163.881 164.05 
164.641 164.797 164.406 165.405 165.646 165.162 164.915 166.304 166.549 
166.006 165.726 165.502 167.164 167.371 166.978 166.636 166.279 165.903 
167.982 168.278 167.825 167.595 167.132 166.593 166.039 168.932 169.144 
168.626 168.353 167.969 167.405 166.783 166.204 169.656 169.547 169.439 
169.042 168.624 168.161 167.59 166.967 166.405 169.833 169.524 169.9 
169.667 169.248 168.787 168.274 167.648 167.003 166.475 162.432 163.238 
162.53 163.314 162.694 164.034 163.423 162.742 164.122 164.881 163.466 
162.79 164.27 165.098 165.885 163.586 163.066 164.381 165.309 166.186 
166.861 163.867 163.403 164.534 165.362 166.289 167.148 167.776 164.063 
163.534 164.714 165.367 166.113 167.075 167.979 168.641 164.044 163.505 
164.735 165.358 165.917 166.727 167.705 168.508 169.103 163.962 163.479 
164.62 165.271 165.813 166.47 167.296 168.022 168.599 169.12 158.356 
158.249 158.624 158.702 159.141 158.497 159.464 159.902 159.091 159.117 
160.253 160.533 159.931 159.723 159.747 160.838 161.095 160.652 160.433 
160.323 160.265 161.588 161.87 161.354 161.084 160.903 160.859 160.754 
162.468 162.619 162.254 161.887 161.533 161.44 161.386 161.207 163.087 
163.104 163.017 162.734 162.305 162.086 162.067 161.924 161.735 158.441 
158.575 158.466 158.596 158.551 158.824 158.987 159.242 159.069 159.468 
159.831 159.95 159.723 159.951 160.293 160.26 160.022 160.375 160.57 
160.811 160.932 160.273 160.068 160.577 160.921 161.221 161.404 161.561 
160.591 160.552 160.816 161.15 161.43 161.667 161.95 162.278 161.166 
161.146 161.32 161.586 161.774 161.886 162.137 162.516 162.846 161.678 