# vtk DataFile Version 4.0
vtk output
ASCII
DATASET POLYDATA
POINTS 1002 float
-115.741 -98.0688 40.0274 -115.706 -97.6591 39.5391 -115.229 -98.019 39.4734 
-115.216 -98.4956 39.9727 -114.783 -98.5386 39.3591 -115.778 -98.5058 40.4966 
-114.661 -98.909 40.0591 -114.166 -98.8585 39.5598 -115.156 -98.8149 40.7183 
-115.822 -98.8035 41.3258 -113.932 -98.989 40.5282 -113.273 -98.9276 40.0564 
-114.519 -99.06 41.085 -115.175 -99.0228 41.7782 -115.916 -99.122 42.3357 
-113.047 -99.0203 41.0746 -112.353 -99.1629 40.4805 -113.805 -99.1448 41.5543 
-114.589 -99.3167 42.1264 -115.317 -99.3773 42.7466 -116.033 -99.5452 43.1607 
-112.315 -99.3806 41.4263 -111.705 -99.5696 40.8188 -113.07 -99.3324 41.9839 
-113.947 -99.5658 42.4653 -114.746 -99.6803 43.1135 -115.412 -99.6875 43.7171 
-116.102 -99.7956 44.1752 -111.83 -99.7064 41.8273 -111.247 -99.7229 41.3047 
-112.511 -99.6037 42.4985 -113.281 -99.7225 43.0352 -114.074 -99.8364 43.6634 
-114.777 -99.792 44.4068 -115.463 -99.819 44.992 -116.168 -99.9671 45.468 
-111.289 -99.7311 42.428 -110.739 -99.6454 41.9356 -111.979 -99.7035 43.1605 
-112.692 -99.8017 43.785 -113.417 -99.9037 44.3439 -114.139 -99.8909 45.0368 
-114.871 -99.9554 45.6478 -115.618 -100.146 46.0741 -116.296 -100.331 46.4666 
-110.62 -99.7209 43.0864 -110.176 -99.5987 42.5827 -111.276 -99.7509 43.8062 
-112.016 -99.908 44.4301 -112.789 -100.09 44.8773 -113.575 -100.133 45.4125 
-114.336 -100.215 46.0108 -115.082 -100.413 46.4676 -115.8 -100.561 46.8604 
-116.422 -100.615 47.2887 -110.076 -99.7636 43.6882 -109.717 -99.5774 43.1764 
-110.641 -99.8578 44.3545 -111.32 -100.052 44.9254 -112.087 -100.326 45.2811 
-112.962 -100.463 45.6715 -113.824 -100.499 46.2711 -114.563 -100.592 46.8982 
-115.23 -100.66 47.4429 -115.872 -100.619 47.9632 -116.442 -100.561 48.4524 
-115.363 -97.5316 38.8305 -114.892 -97.8734 38.8274 -115.026 -97.4559 38.0339 
-114.472 -97.6385 38.279 -114.67 -97.2652 37.4597 -114.363 -98.338 38.8668 
-113.962 -97.2455 37.9475 -114.243 -96.8299 37.174 -113.721 -97.9595 38.5528 
-113.551 -98.6653 39.1324 -113.415 -96.7819 37.625 -113.728 -96.2383 37.0239 
-113.054 -97.4529 38.2987 -112.785 -98.3163 38.8 -112.567 -98.8971 39.5257 
-112.832 -96.3902 37.2081 -113.183 -95.6458 36.8884 -112.541 -96.9979 37.9135 
-112.25 -97.796 38.5801 -111.964 -98.6038 39.2102 -111.744 -99.2015 39.9915 
-112.277 -95.9369 36.9165 -112.689 -95.0126 36.6889 -112.084 -96.6086 37.5843 
-111.949 -97.2626 38.4651 -111.661 -98.0047 39.2536 -111.334 -98.7287 39.9692 
-111.188 -99.376 40.6056 -111.931 -95.2565 36.8733 -112.313 -94.3166 36.4958 
-111.755 -96.049 37.6014 -111.65 -96.7214 38.5148 -111.391 -97.4146 39.3502 
-111.063 -98.0279 40.1321 -110.853 -98.6706 40.7836 -110.764 -99.3088 41.2823 
-111.814 -94.5309 37.0317 -112.104 -93.7193 36.5199 -111.689 -95.3516 37.8689 
-111.481 -96.0842 38.7385 -111.037 -96.8576 39.3724 -110.665 -97.502 40.0102 
-110.566 -97.9691 40.8006 -110.496 -98.5756 41.4389 -110.315 -99.2205 41.928 
-111.786 -93.9815 37.3397 -112.053 -93.3267 36.8173 -111.7 -94.7572 38.1669 
-111.465 -95.4921 38.9838 -110.824 -96.2603 39.4599 -110.208 -97.0147 39.8301 
-110.118 -97.5001 40.5458 -110.233 -97.9205 41.4129 -110.097 -98.5615 42.0321 
-109.826 -99.1989 42.5283 -111.848 -93.3848 37.5668 -111.632 -94.0958 38.2645 
-111.578 -93.4769 38.4433 -111.257 -94.2595 39.1198 -111.186 -93.6266 39.2499 
-111.435 -94.8864 39.0588 -110.703 -94.409 39.8439 -110.801 -93.8681 40.0538 
-110.762 -95.0275 39.7117 -110.813 -95.6274 39.5915 -110.197 -94.4491 40.6634 
-110.4 -94.0407 41.0138 -110.057 -95.0166 40.369 -109.953 -95.698 40.1133 
-109.951 -96.3981 39.8856 -109.623 -94.3435 41.6158 -109.872 -94.049 42.0296 
-109.556 -94.8339 41.1955 -109.481 -95.5998 40.8619 -109.408 -96.4105 40.6172 
-109.635 -97.0513 40.465 -109.068 -94.3654 42.56 -109.511 -94.1676 42.8903 
-109.002 -94.7237 42.1541 -109.178 -95.4807 41.7452 -109.246 -96.4022 41.5498 
-109.39 -97.0659 41.4764 -109.807 -97.498 41.4151 -109.035 -94.7309 43.4124 
-109.557 -94.4937 43.6265 -108.703 -94.9763 43.2153 -108.746 -95.5206 42.8493 
-108.908 -96.4433 42.4922 -109.044 -97.2279 42.3837 -109.358 -97.6617 42.342 
-109.781 -98.0617 42.2121 -109.406 -95.1357 44.2402 -109.71 -94.7303 44.4658 
-109.031 -95.4723 44.1755 -108.711 -95.785 44.0694 -108.585 -96.4482 43.7119 
-108.627 -97.3379 43.3139 -108.824 -97.9373 43.0932 -109.164 -98.3177 42.9345 
-109.515 -98.7606 42.7354 -109.592 -95.2511 45.1956 -109.667 -94.7293 45.4834 
-109.478 -95.8161 45.0127 -109.135 -96.1531 45.0074 -108.724 -96.5117 44.939 
-108.554 -97.255 44.5912 -108.641 -98.0434 44.1241 -108.84 -98.5176 43.7576 
-109.089 -98.8878 43.5026 -109.376 -99.2863 43.3112 -109.634 -99.6444 44.0845 
-109.306 -99.3398 44.2523 -109.811 -99.606 45.1699 -109.055 -98.9986 44.5586 
-109.4 -99.3325 45.5112 -110.054 -99.5742 46.329 -108.881 -98.6519 45.0324 
-109.048 -99.113 46.0477 -109.426 -99.449 46.8676 -110.322 -99.6758 47.4179 
-108.734 -98.0163 45.5675 -108.842 -98.727 46.6365 -108.957 -99.2805 47.4612 
-109.704 -99.6341 47.9621 -110.864 -99.8099 48.424 -108.75 -97.1866 45.8796 
-108.753 -97.9565 46.948 -108.813 -98.7011 47.8227 -109.421 -99.2843 48.3214 
-110.555 -99.6265 48.8024 -111.523 -99.7889 49.4724 -109.115 -96.6952 45.8539 
-108.942 -97.2607 46.8559 -108.919 -97.8736 47.8267 -109.473 -98.5023 48.4198 
-110.518 -99.0693 48.914 -111.386 -99.4424 49.6874 -111.92 -99.6628 50.5766 
-109.498 -96.3495 45.8249 -109.332 -96.8451 46.7372 -109.255 -97.2822 47.7217 
-109.683 -97.7324 48.4478 -110.612 -98.2996 48.9415 -111.413 -98.863 49.6917 
-111.788 -99.2832 50.7152 -112.16 -99.5806 51.6535 -109.528 -95.6805 46.0747 
-109.452 -96.2005 46.9567 -109.538 -96.7086 47.812 -109.952 -97.1393 48.525 
-110.706 -97.6324 49.0388 -111.49 -98.2017 49.6876 -111.89 -98.7265 50.6957 
-112.051 -99.1934 51.7986 -112.414 -99.562 52.6647 -109.442 -94.9359 46.431 
-109.335 -95.3291 47.3363 -109.567 -95.8963 48.0485 -110.119 -96.4613 48.5976 
-110.778 -97.0158 49.1022 -111.454 -97.594 49.7419 -111.994 -98.0998 50.6612 
-112.206 -98.5928 51.7738 -112.294 -99.1269 52.8129 -112.597 -99.5463 53.5488 
-110.143 -99.8377 44.7236 -110.476 -99.8284 45.7732 -110.774 -100.044 45.3262 
-110.875 -99.7903 46.8003 -111.133 -100.105 46.2467 -111.435 -100.357 45.7229 
-111.301 -99.874 47.8642 -111.562 -100.094 47.282 -111.745 -100.445 46.6847 
-112.254 -100.623 46.0856 -111.8 -99.995 49.0784 -112.019 -100.211 48.5578 
-112.204 -100.435 48.023 -112.624 -100.618 47.3928 -113.26 -100.664 46.7349 
-112.217 -99.9646 50.4011 -112.471 -100.311 50.0596 -112.729 -100.518 49.6278 
-113.172 -100.48 49.1131 -113.706 -100.482 48.4302 -114.164 -100.598 47.6089 
-112.557 -99.8573 51.6082 -112.905 -100.234 51.4965 -113.151 -100.601 51.2491 
-113.618 -100.588 50.7796 -114.191 -100.342 50.2221 -114.547 -100.34 49.4896 
-114.839 -100.553 48.4458 -112.909 -99.8087 52.6179 -113.377 -100.115 52.5605 
-113.522 -100.611 52.5139 -113.757 -100.968 52.137 -114.373 -100.861 51.5068 
-114.869 -100.534 51.0239 -115.103 -100.385 50.3426 -115.432 -100.481 49.1558 
-113.137 -99.8011 53.4891 -113.746 -100.053 53.3218 -113.937 -100.573 53.2815 
-113.882 -101.257 53.1097 -114.253 -101.635 52.4449 -114.908 -101.453 51.8083 
-115.301 -100.905 51.5438 -115.582 -100.46 50.944 -116.011 -100.402 49.7146 
-112.987 -99.6759 54.2878 -113.702 -99.9241 54.0901 -113.513 -99.6946 54.8002 
-114.208 -100.14 54.559 -114.227 -99.7099 55.1625 -114.228 -100.396 53.8619 
-114.709 -100.584 55.0727 -114.972 -99.8674 55.4936 -114.545 -101.006 54.4361 
-114.217 -101.222 53.819 -115.329 -101.038 55.5417 -115.723 -100.019 55.6549 
-114.974 -101.642 55.1385 -114.598 -101.861 54.4129 -114.268 -101.967 53.4203 
-116.325 -101.091 55.6329 -116.713 -99.9386 55.5504 -115.823 -101.895 55.5474 
-115.378 -102.024 54.9716 -114.995 -102.183 53.7242 -114.849 -102.182 52.5114 
-117.499 -100.758 55.4724 -117.611 -99.7218 55.3314 -117.097 -101.783 55.4396 
-116.596 -101.999 55.0551 -116.063 -101.911 53.9554 -115.622 -102.077 52.6771 
-115.424 -101.744 52.0149 -118.089 -100.299 55.2075 -117.91 -99.5117 54.8899 
-118.065 -101.424 55.1885 -117.825 -102.124 54.7743 -117.306 -102.026 53.9007 
-116.575 -101.818 52.8656 -116.03 -101.556 52.2679 -115.774 -100.945 51.8573 
-118.122 -99.812 54.5762 -117.934 -99.2678 54.072 -118.274 -100.76 54.7754 
-118.372 -101.825 54.437 -118.219 -102.239 53.6837 -117.583 -101.936 52.8964 
-116.826 -101.409 52.3954 -116.403 -100.841 51.957 -116.21 -100.436 51.0618 
-118.314 -99.3538 53.6557 -118.225 -98.9583 53.1551 -118.36 -100.001 54.0305 
-118.432 -100.934 53.9265 -118.487 -101.662 53.3538 -118.197 -101.714 52.7338 
-117.568 -101.28 52.3175 -117.077 -100.793 51.8419 -116.865 -100.488 50.9487 
-116.695 -100.444 49.6946 -112.489 -99.2087 53.9052 -112.782 -99.3376 54.6319 
-112.488 -98.6049 54.048 -112.864 -98.6811 54.6584 -112.524 -97.7999 54.0823 
-113.466 -99.2678 55.0663 -113.126 -97.788 54.5819 -112.634 -97.1001 53.9725 
-113.783 -98.5703 54.989 -114.453 -99.1045 55.3258 -113.432 -97.1019 54.3462 
-112.992 -96.7604 53.4126 -114.137 -97.7294 54.8526 -114.795 -98.413 55.1823 
-115.271 -99.0692 55.5079 -113.855 -96.8797 53.5887 -113.499 -96.5073 52.6117 
-114.405 -97.1692 54.471 -114.981 -97.7217 54.972 -115.452 -98.4073 55.2762 
-116.003 -99.1121 55.495 -114.296 -96.6303 52.6813 -113.876 -95.9369 52.1443 
-114.758 -96.9957 53.5196 -115.222 -97.2303 54.4288 -115.668 -97.7661 54.9665 
-116.208 -98.4508 55.1819 -116.929 -99.0898 55.291 -114.609 -95.9453 52.1971 
-114.166 -95.2213 51.9091 -115.088 -96.6538 52.5749 -115.562 -96.9744 53.4153 
-116.091 -97.1962 54.3355 -116.624 -97.7132 54.7872 -117.11 -98.4077 54.8916 
-117.563 -99.0328 54.9149 -114.916 -95.1736 51.9004 -114.529 -94.7333 51.4916 
-115.36 -95.8894 52.1072 -115.806 -96.5271 52.5363 -116.38 -96.8341 53.3503 
-117.037 -97.0584 54.0742 -117.449 -97.5741 54.3586 -117.583 -98.3217 54.3357 
-117.708 -98.9345 54.2046 -115.298 -94.7089 51.4137 -114.938 -94.4962 50.8817 
-115.716 -95.1302 51.7698 -116.107 -95.7372 52.0597 -116.54 -96.3175 52.4983 
[...]
CELL_DATA 2000
SCALARS Distance double
LOOKUP_TABLE default
155.576 155.474 155.667 155.99 155.356 155.571 155.836 156.062 156.391 
155.008 155.342 155.602 155.88 156.178 156.463 156.855 154.552 154.901 
155.207 155.573 155.942 156.269 156.677 156.978 157.42 154.308 154.536 
154.878 155.199 155.656 156.033 156.513 156.831 157.253 157.541 157.95 
154.223 154.417 154.767 155 155.45 155.785 156.286 156.638 157.064 
157.361 157.737 158.037 158.443 154.037 154.301 154.64 154.912 155.318 
155.623 156.074 156.403 156.831 157.14 157.544 157.844 158.28 158.578 
159.027 153.769 154.049 154.371 154.698 155.096 155.443 155.88 156.206 
156.642 156.938 157.383 157.68 158.154 158.454 158.921 159.196 159.606 
153.562 153.798 154.13 154.423 154.834 155.179 155.635 155.989 156.451 
156.778 157.245 157.555 158.032 158.335 158.782 159.069 159.448 159.71 
160.022 155.27 154.768 155.055 155.167 154.232 154.526 154.616 154.971 
155.062 153.603 153.919 153.921 154.325 154.387 154.769 154.728 152.863 
153.206 153.137 153.536 153.544 153.991 153.991 154.345 154.276 152.071 
152.426 152.366 152.734 152.741 153.153 153.209 153.599 153.637 153.959 
154.007 151.276 151.642 151.63 152 152.071 152.445 152.557 152.908 
153.003 153.342 153.44 153.783 153.89 150.521 150.885 150.947 151.327 
151.47 151.845 151.995 152.332 152.423 152.742 152.822 153.181 153.284 
153.65 153.718 149.926 150.232 150.407 150.757 150.975 151.308 151.453 
151.765 151.82 152.14 152.186 152.548 152.644 153.02 153.112 153.444 
153.483 149.586 149.794 150.046 150.352 150.631 150.903 151.019 151.235 
151.217 151.49 151.507 151.882 151.991 152.391 152.516 152.86 152.933 
153.224 153.273 149.539 149.651 149.714 150.013 149.695 149.818 150.129 
150.26 150.572 149.684 149.795 150.024 150.234 150.453 150.659 150.833 
149.691 149.738 149.824 149.998 150.11 150.354 150.461 150.734 150.902 
149.607 149.644 149.621 149.755 149.841 150.022 150.181 150.377 150.618 
150.87 151.203 149.55 149.494 149.436 149.526 149.669 149.85 150.139 
150.289 150.633 150.767 151.166 151.35 151.764 149.867 149.62 149.626 
149.497 149.689 149.772 150.143 150.329 150.727 150.881 151.248 151.4 
151.773 151.953 152.305 150.438 150.174 150.305 150.004 150.211 150.025 
150.355 150.391 150.792 150.942 151.296 151.449 151.761 151.934 152.243 
152.434 152.717 150.859 150.758 150.983 150.795 151.019 150.736 150.956 
150.761 151.085 151.08 151.473 151.539 151.884 151.954 152.259 152.375 
152.669 152.82 153.084 153.28 152.886 153.233 153.582 152.533 152.867 
153.229 153.597 154.027 152.236 152.581 152.98 153.295 153.707 154.07 
154.552 151.861 152.28 152.72 153.076 153.472 153.787 154.246 154.647 
155.221 151.493 151.877 152.308 152.733 153.126 153.509 153.936 154.359 
154.946 155.408 156.025 151.42 151.633 152.035 152.327 152.711 153.085 
153.522 153.991 154.584 155.116 155.755 156.202 156.718 151.477 151.659 
152.024 152.188 152.535 152.766 153.206 153.587 154.193 154.721 155.388 
155.889 156.424 156.806 157.228 151.308 151.578 151.848 152.112 152.399 
152.658 153.052 153.368 153.923 154.366 155.023 155.517 156.094 156.5 
156.946 157.292 157.71 151.033 151.257 151.429 151.749 152.006 152.392 
152.775 153.176 153.67 154.101 154.681 155.159 155.734 156.175 156.651 
157.015 157.425 157.774 158.169 153.584 153.932 153.887 154.197 154.413 
154.333 154.67 154.578 154.923 154.959 154.864 155.224 155.11 155.445 
155.349 155.717 155.638 155.472 155.84 155.687 156.021 155.893 156.253 
156.172 156.553 156.425 156.225 156.596 156.377 156.726 156.522 156.896 
156.755 157.166 157.045 157.411 157.1 156.983 157.379 157.192 157.578 
157.331 157.718 157.486 157.893 157.714 158.098 157.916 158.228 157.625 
157.585 158.036 157.945 158.39 158.21 158.615 158.37 158.742 158.497 
158.833 158.613 158.9 158.697 158.948 158.13 158.11 158.607 158.573 
159.057 158.963 159.387 159.219 159.589 159.358 159.669 159.39 159.628 
159.358 159.565 159.359 159.572 158.583 158.608 159.097 159.116 159.591 
159.566 159.983 159.898 160.277 160.137 160.475 160.239 160.472 160.141 
160.287 159.981 160.136 159.934 160.122 158.923 159.536 159.322 159.471 
160.151 159.95 160.159 159.894 159.994 160.878 160.648 160.909 160.621 
160.765 160.403 160.418 161.644 161.455 161.782 161.466 161.631 161.218 
161.241 160.802 160.747 162.334 162.231 162.629 162.369 162.521 162.098 
162.058 161.614 161.532 161.103 160.972 162.879 162.887 163.343 163.189 
163.376 162.968 162.85 162.363 162.179 161.793 161.618 161.225 160.962 
163.022 163.242 163.682 163.775 164.055 163.81 163.739 163.187 162.905 
162.383 162.12 161.74 161.453 161.067 160.723 162.706 163.078 163.406 
163.789 164.083 164.256 164.295 164.024 163.723 163.156 162.752 162.236 
161.896 161.491 161.174 160.792 160.511 162.33 162.634 162.881 163.28 
163.512 163.932 164.012 164.202 163.954 163.745 163.245 162.819 162.349 
161.942 161.607 161.244 160.995 160.644 160.458 158.694 158.45 158.816 
159.259 158.074 158.514 158.998 159.376 159.854 157.66 158.117 158.676 
159.116 159.655 160.014 160.542 157.388 157.762 158.348 158.805 159.397 
159.807 160.321 160.697 161.222 157.289 157.59 158.13 158.514 159.08 
159.507 160.006 160.411 160.876 161.313 161.838 157.146 157.493 157.995 
158.331 158.824 159.189 159.669 160.059 160.523 160.937 161.429 161.894 
162.383 156.852 157.253 157.738 158.132 158.588 158.944 159.396 159.756 
160.23 160.608 161.074 161.483 161.895 162.331 162.606 156.581 156.922 
157.367 157.781 158.225 158.637 159.07 159.474 159.92 160.316 160.722 
161.103 161.406 161.79 161.963 162.344 162.387 156.457 156.699 157.097 
157.425 157.844 158.23 158.645 159.073 159.481 159.924 160.272 160.674 
160.898 161.25 161.359 161.689 161.728 162.045 162.06 151.021 151.273 
151.143 151.327 151.893 151.559 151.662 151.56 151.919 152.594 152.307 
152.437 152.125 152.428 152.324 152.794 153.084 152.97 153.247 153 
153.286 153.025 153.43 153.303 153.778 153.605 153.466 153.849 153.744 
154.112 153.9 154.239 154.028 154.45 154.326 154.799 154.353 154.098 
154.436 154.326 154.74 154.631 154.981 154.8 155.153 155.013 155.461 
155.369 155.827 155.078 154.838 155.07 154.922 155.272 155.199 155.548 
155.439 155.746 155.641 156.02 155.979 156.416 156.355 156.738 155.627 
155.452 155.651 155.508 155.81 155.722 156.058 155.957 156.239 156.137 
156.446 156.434 156.834 156.858 157.256 157.197 157.52 156.112 155.956 
156.185 156.054 156.38 156.28 156.644 156.511 156.809 156.638 156.917 
156.826 157.194 157.215 157.637 157.655 158.027 157.951 158.251 150.915 
150.959 151.021 151.257 150.959 151.109 151.425 151.51 151.86 150.845 
151.041 151.368 151.602 151.941 152.114 152.434 150.853 150.946 151.228 
151.454 151.797 152.05 152.332 152.543 152.817 150.958 151.043 151.325 
151.417 151.785 151.939 152.309 152.45 152.792 152.948 153.354 150.884 
151.111 151.47 151.599 151.993 152.087 152.525 152.594 153.038 153.096 
153.577 153.679 154.185 150.778 151.013 151.432 151.663 152.065 152.267 
152.688 152.852 153.287 153.404 153.856 153.972 154.439 154.55 154.957 
150.921 151.028 151.427 151.597 151.962 152.2 152.589 152.876 153.298 
153.545 153.951 154.145 154.543 154.721 155.087 155.212 155.507 151.218 
151.263 151.608 151.666 151.962 152.089 152.439 152.702 153.165 153.475 
153.944 154.173 154.577 154.753 155.122 155.278 155.603 155.707 155.983 
151.499 152.052 151.809 151.872 152.695 152.385 152.399 152.13 152.162 
153.433 153.072 153.068 152.706 152.726 152.452 152.602 154.196 153.832 
153.865 153.461 153.525 153.153 153.344 153.067 153.367 155.014 154.629 
154.7 154.299 154.405 154.034 154.26 153.942 154.242 153.943 154.21 
155.88 155.5 155.586 155.172 155.266 154.899 155.09 154.822 155.089 
154.826 155.034 154.716 154.854 156.609 156.326 156.423 156.064 156.131 
155.747 155.847 155.557 155.747 155.547 155.736 155.486 155.595 155.281 
155.374 157.151 156.952 157.056 156.81 156.881 156.56 156.606 156.276 
156.375 156.135 156.311 156.112 156.267 156 156.089 155.777 155.851 
157.66 157.461 157.576 157.37 157.464 157.221 157.281 156.986 157.053 
156.771 156.915 156.694 156.883 156.655 156.787 156.488 156.543 156.218 
156.246 158.015 158.554 158.165 157.924 159.047 158.7 158.439 158.053 
157.799 159.416 159.144 158.91 158.552 158.266 157.899 157.625 159.786 
159.501 159.3 158.98 158.716 158.36 158.085 157.716 157.439 160.309 
159.95 159.758 159.392 159.156 158.8 158.568 158.209 157.976 157.575 
157.333 160.869 160.517 160.324 159.924 159.683 159.28 159.059 158.703 
158.512 158.145 157.929 157.518 157.289 161.275 161.001 160.802 160.477 
160.243 159.849 159.608 159.219 159.005 158.654 158.428 158.071 157.805 
157.435 157.161 161.562 161.328 161.142 160.89 160.716 160.394 160.19 
159.797 159.554 159.15 158.873 158.502 158.193 157.853 157.525 157.203 
156.883 161.868 161.628 161.502 161.25 161.146 160.863 160.725 160.373 
160.144 159.718 159.402 158.961 158.612 158.214 157.861 157.513 157.168 
156.861 156.549 158.182 158.621 158.511 158.734 159.074 158.934 159.123 
159.033 159.2 159.643 159.377 159.471 159.357 159.492 159.426 159.544 
160.333 159.961 159.924 159.701 159.807 159.712 159.874 159.773 159.929 
160.814 160.552 160.415 160.16 160.226 160.097 160.315 160.187 160.405 
160.249 160.465 160.838 160.815 160.691 160.553 160.574 160.503 160.714 
160.655 160.895 160.773 160.995 160.843 161.039 160.615 160.734 160.766 
160.747 160.799 160.765 160.916 160.936 161.165 161.183 161.436 161.37 
161.579 161.4 161.503 160.443 160.587 160.799 160.859 161.031 160.99 
161.12 161.08 161.288 161.353 161.697 161.762 162.077 161.959 162.09 
161.813 161.819 160.417 160.537 160.835 160.952 161.227 161.246 161.427 
161.342 161.54 161.527 161.91 162.016 162.446 162.442 162.645 162.411 
162.399 162.085 162.068 157.911 157.634 157.957 158.338 157.354 157.676 
158.081 158.42 158.844 157.042 157.386 157.797 158.169 158.686 159.022 
159.519 156.62 157.031 157.422 157.844 158.361 158.831 159.468 159.82 
160.317 156.08 156.554 156.947 157.405 157.832 158.366 158.946 159.578 
160.177 160.565 160.843 155.502 155.997 156.436 156.913 157.312 157.773 
158.183 158.822 159.349 160.073 160.436 160.818 160.812 154.934 155.424 
155.884 156.401 156.863 157.297 157.672 158.097 158.5 159.113 159.524 
160.123 160.262 160.569 160.477 154.407 154.863 155.286 155.817 156.294 
156.823 157.28 157.695 158.104 158.484 158.887 159.315 159.594 159.943 
159.999 160.226 160.22 153.978 154.369 154.757 155.218 155.646 156.191 
156.673 157.233 157.723 158.179 158.597 158.925 159.215 159.456 159.597 
159.791 159.859 160.06 160.163 153.92 154.175 154.244 154.691 154.53 
154.555 154.965 155.032 155.527 154.866 154.919 155.32 155.342 155.801 
155.919 156.52 155.129 155.222 155.658 155.704 156.162 156.238 156.843 
157.007 157.65 155.416 155.484 155.934 156.015 156.482 156.583 157.145 
157.329 157.964 158.121 158.612 155.714 155.785 156.195 156.277 156.71 
156.835 157.313 157.522 158.048 158.306 158.757 158.906 159.181 155.828 
155.999 156.38 156.505 156.907 157.03 157.475 157.633 158.092 158.297 
158.707 158.909 159.196 159.318 159.493 155.746 155.993 156.394 156.609 
157.035 157.207 157.689 157.834 158.338 158.438 158.882 158.947 159.294 
159.341 159.582 159.611 159.783 155.674 155.89 156.313 156.57 157.037 
157.286 157.795 158.025 158.556 158.724 159.2 159.258 159.634 159.605 
159.89 159.82 160.031 159.965 160.143 155.81 156.238 156.149 156.436 
156.691 156.609 156.939 156.855 157.199 157.191 157.099 157.465 157.388 
157.768 157.663 158.009 157.754 157.648 157.999 157.909 158.252 158.189 
158.548 158.474 158.79 158.287 158.213 158.541 158.434 158.679 158.587 
158.852 158.876 159.225 159.213 159.455 158.777 158.709 159.035 158.942 
159.146 158.991 159.149 159.102 159.418 159.517 159.865 159.815 159.935 
159.327 159.211 159.512 159.403 159.617 159.453 159.605 159.456 159.725 
159.734 160.13 160.162 160.401 160.224 160.208 159.881 159.771 160.035 
159.891 160.084 159.918 160.088 159.938 160.193 160.13 160.486 160.477 
160.754 160.646 160.686 160.425 160.318 160.295 160.258 160.512 160.399 
160.559 160.387 160.514 160.381 160.6 160.562 160.865 160.852 161.092 
161.002 161.069 160.861 160.782 160.5 160.391 160.555 160.932 160.814 
160.973 161.235 161.177 161.335 161.25 161.386 161.339 161.415 161.605 
161.583 161.733 161.621 161.643 161.166 161.4 161.64 161.769 161.977 
161.962 162.068 161.861 161.843 160.864 161.127 161.349 161.627 161.86 
162.08 162.305 162.307 162.443 162.186 162.267 160.759 160.89 161.079 
161.275 161.473 161.78 162.05 162.355 162.621 162.707 162.872 162.69 
162.763 160.839 160.913 161.136 161.172 161.393 161.499 161.814 162.059 
162.428 162.685 162.935 163.036 163.082 162.992 162.877 160.804 160.973 
161.226 161.316 161.598 161.639 162.04 162.109 162.604 162.678 163.054 
163.053 163.163 163.09 162.972 162.848 162.605 160.565 160.822 161.065 
161.301 161.595 161.801 162.221 162.419 162.973 163.09 163.57 163.461 
163.654 163.357 163.295 162.982 162.8 162.545 162.322 149.498 149.856 
149.638 149.695 150.515 150.157 150.193 149.95 150.021 151.307 150.909 
150.92 150.562 150.576 150.279 150.24 152.112 151.713 151.688 151.292 
151.264 150.907 150.874 150.505 150.441 152.94 152.544 152.527 152.069 
152.027 151.618 151.641 151.254 151.286 150.841 150.883 153.705 153.385 
153.448 152.985 152.97 152.471 152.516 152.095 152.206 151.783 151.873 
151.416 151.535 154.305 154.093 154.24 153.914 153.971 153.49 153.514 
153.039 153.138 152.725 152.839 152.409 152.495 152.077 152.206 154.811 
154.642 154.837 154.647 154.8 154.451 154.49 154.034 154.083 153.661 
153.773 153.364 153.464 153.024 153.112 152.711 152.846 155.318 155.145 
155.359 155.219 155.442 155.213 155.314 154.941 154.973 154.57 154.658 
154.283 154.398 153.988 154.068 153.63 153.713 153.33 153.467 149.426 
149.611 149.481 149.486 149.859 149.704 149.636 149.548 149.451 149.973 
149.849 149.698 149.64 149.457 149.357 149.08 150.074 149.871 149.678 
149.628 149.501 149.389 149.173 148.965 148.779 150.47 150.062 149.833 
149.651 149.643 149.543 149.574 149.317 149.32 148.991 149.089 151.173 
150.642 150.396 149.996 149.975 149.804 149.97 149.84 150.012 149.748 
149.891 149.56 149.706 151.916 151.426 151.217 150.718 150.609 150.267 
150.329 150.203 150.348 150.287 150.389 150.256 150.307 150.088 150.128 
152.591 152.166 152.006 151.548 151.409 150.969 150.909 150.612 150.653 
150.516 150.573 150.508 150.537 150.469 150.505 150.384 150.466 153.239 
152.846 152.724 152.309 152.193 151.752 151.666 151.263 151.268 150.956 
151.028 150.782 150.858 150.678 150.786 150.681 150.847 150.754 150.953 
149.423 149.426 149.419 149.47 149.377 149.413 149.364 149.429 149.486 
149.024 149.226 149.211 149.313 149.318 149.427 149.525 148.692 148.821 
148.925 149.114 149.21 149.313 149.433 149.536 149.649 148.898 148.712 
148.846 148.93 149.175 149.267 149.458 149.521 149.672 149.696 149.701 
149.447 149.11 149.134 149.056 149.34 149.375 149.637 149.629 149.796 
149.776 149.846 149.747 149.708 149.907 149.607 149.521 149.385 149.598 
149.631 149.928 149.9 150.065 149.97 150.066 149.962 150.022 149.867 
149.955 150.341 150.037 149.955 149.739 149.887 149.882 150.193 150.206 
150.392 150.281 150.353 150.233 150.331 150.223 150.344 150.231 150.408 
150.892 150.568 150.551 150.242 150.363 150.224 150.511 150.485 150.704 
150.6 150.664 150.528 150.617 150.539 150.685 150.598 150.721 150.644 
150.776 157.597 157.082 157.329 157.32 156.531 156.805 156.774 157.043 
157.034 155.796 156.164 156.116 156.452 156.42 156.733 156.708 154.922 
155.323 155.248 155.673 155.621 156.031 155.977 156.34 156.263 154.108 
154.449 154.336 154.734 154.647 155.11 155.041 155.497 155.399 155.802 
155.686 153.353 153.665 153.528 153.857 153.725 154.116 154.007 154.469 
154.37 154.844 154.732 155.171 155.071 152.581 152.878 152.696 153.035 
152.87 153.23 153.066 153.451 153.307 153.763 153.665 154.159 154.084 
154.556 154.497 151.878 152.096 151.839 152.143 151.931 152.32 152.142 
152.528 152.344 152.737 152.612 153.083 153.042 153.548 153.528 154.005 
153.986 151.318 151.454 151.182 151.35 151.12 151.398 151.243 151.599 
151.459 151.818 151.698 152.1 152.072 152.544 152.578 153.057 153.088 
153.54 153.57 
POINT_DATA 1002
SCALARS Distance double
LOOKUP_TABLE default
155.894 155.489 155.345 155.762 155.315 156.315 155.637 155.116 156.11 
156.75 155.276 154.635 155.894 156.533 157.285 154.795 154.228 155.552 
156.383 157.118 157.859 154.588 154.109 155.253 156.165 156.994 157.648 
158.344 154.555 154.006 155.161 155.938 156.757 157.444 158.123 158.863 
154.345 153.762 155.023 155.772 156.515 157.224 157.967 158.75 159.47 
154.041 153.506 154.73 155.536 156.333 157.078 157.85 158.645 159.37 
159.979 153.85 153.331 154.501 155.273 156.097 156.923 157.737 158.51 
159.193 159.784 160.306 154.978 154.843 154.485 154.25 153.962 154.757 
153.546 153.304 153.968 154.436 152.771 152.515 153.095 153.572 153.967 
151.993 151.707 152.336 152.795 153.261 153.685 151.227 150.896 151.673 
152.207 152.67 153.08 153.556 150.533 150.136 151.081 151.658 152.122 
152.478 152.909 153.387 150.03 149.614 150.66 151.188 151.516 151.822 
152.258 152.766 153.183 149.742 149.404 150.37 150.866 151.005 151.133 
151.567 152.151 152.632 152.984 149.473 149.931 149.551 149.975 149.562 
150.483 149.851 149.641 150.247 150.631 149.724 149.712 149.9 150.186 
150.569 149.499 149.612 149.643 149.982 150.378 150.91 149.374 149.666 
149.437 149.929 150.509 151.015 151.575 149.823 150.114 149.681 149.952 
150.553 151.12 151.611 152.135 150.586 150.617 150.508 150.445 150.671 
151.154 151.616 152.058 152.538 151.074 150.887 151.292 151.257 151.169 
151.418 151.848 152.189 152.532 152.938 153.571 153.191 153.985 152.881 
153.619 154.479 152.673 153.388 154.116 155.061 152.32 153.172 153.859 
154.765 155.838 151.896 152.712 153.498 154.453 155.621 156.618 151.837 
152.375 153.047 154.023 155.276 156.369 157.169 151.884 152.354 152.878 
153.693 154.865 156.025 156.881 157.635 151.56 152.101 152.746 153.534 
154.542 155.662 156.597 157.362 158.134 151.141 151.588 152.331 153.251 
154.227 155.274 156.268 157.088 157.827 158.548 154.24 154.776 154.995 
155.34 155.559 155.781 156.017 156.165 156.34 156.64 156.821 156.952 
157.062 157.287 157.574 157.514 157.804 157.982 158.113 158.285 158.438 
158.074 158.521 158.846 159.02 159.097 159.122 159.146 158.623 159.127 
159.525 159.792 159.959 159.953 159.813 159.742 159.068 159.601 160.047 
160.38 160.662 160.806 160.659 160.392 160.28 159.153 159.746 159.71 
160.396 160.348 160.335 161.2 161.086 161.131 160.829 162.079 161.768 
162.067 161.695 161.2 162.849 162.389 162.962 162.534 161.948 161.449 
163.425 162.825 163.759 163.408 162.61 161.984 161.421 163.478 162.764 
164.143 164.266 163.547 162.56 161.816 161.121 162.994 162.36 163.748 
164.36 164.26 163.363 162.334 161.538 160.864 162.55 162.082 163.1 
163.688 163.989 163.613 162.76 161.955 161.332 160.793 158.381 158.915 
158.054 158.575 157.593 159.503 158.184 157.203 159.271 160.191 157.901 
157.06 158.961 159.961 160.813 157.81 157 158.68 159.6 160.459 
161.357 157.671 156.769 158.506 159.289 160.118 160.994 161.937 157.321 
156.467 158.222 159.038 159.863 160.712 161.518 162.231 156.979 156.299 
157.802 158.652 159.523 160.376 161.08 161.621 162.039 156.819 156.256 
157.494 158.238 159.046 159.874 160.567 161.05 161.408 161.738 151.036 
151.253 151.532 151.894 152.255 151.84 152.774 152.755 152.643 152.803 
153.384 153.114 153.584 153.631 153.856 153.9 153.802 154.265 154.488 
154.598 154.896 154.594 154.665 154.814 155.142 155.315 155.548 155.94 
155.258 155.312 155.36 155.642 155.862 156.064 156.451 156.859 155.789 
155.783 155.906 156.166 156.368 156.488 156.788 157.266 157.647 150.824 
151.206 150.848 151.276 150.756 151.794 151.094 150.689 151.737 152.293 
151.059 150.815 151.533 152.122 152.584 151.258 150.804 151.661 152.163 
152.646 153.148 151.274 150.575 151.882 152.439 152.975 153.495 154.09 
151.19 150.571 151.834 152.481 153.144 153.743 154.332 154.897 151.323 
150.871 151.769 152.285 153.003 153.748 154.363 154.937 155.429 151.595 
151.187 151.906 152.214 152.818 153.675 154.41 154.961 155.471 155.911 