# vtk DataFile Version 4.0
vtk output
ASCII
DATASET POLYDATA
POINTS 1002 float
-118.008 -100.798 53.2352 -117.874 -100.553 52.7579 -117.533 -100.513 53.0899 
-117.594 -100.723 53.6922 -117.001 -100.597 53.3766 -118.036 -100.979 53.8092 
-116.874 -100.826 54.0136 -116.217 -100.727 53.5848 -117.441 -100.91 54.3262 
-117.94 -101.295 54.4621 -116.021 -101.024 54.1705 -115.428 -100.865 53.7799 
-116.586 -101.125 54.5558 -117.185 -101.437 54.7893 -117.813 -101.943 54.9743 
-115.309 -101.341 54.2683 -114.744 -101.143 53.9778 -115.825 -101.55 54.5902 
-116.363 -101.838 54.8816 -117.025 -102.234 55.1457 -117.677 -102.535 55.5018 
-114.612 -101.783 54.389 -114.017 -101.56 54.1413 -115.159 -102.031 54.6789 
-115.709 -102.27 55.0611 -116.298 -102.469 55.4972 -116.942 -102.666 55.9109 
-117.527 -102.779 56.3864 -113.835 -102.118 54.6148 -113.268 -101.888 54.3524 
-114.392 -102.317 54.9621 -114.993 -102.501 55.4484 -115.632 -102.549 56.062 
-116.244 -102.639 56.5826 -116.867 -102.862 56.9548 -117.419 -103.009 57.3751 
-113.099 -102.279 55.0097 -112.618 -102.073 54.6815 -113.681 -102.367 55.4411 
-114.273 -102.545 55.9322 -114.91 -102.652 56.5096 -115.544 -102.699 57.0662 
-116.194 -102.942 57.452 -116.842 -103.227 57.7747 -117.355 -103.323 58.1859 
-112.442 -102.476 55.4751 -112.102 -102.219 55.0749 -113.052 -102.494 55.9605 
-113.724 -102.637 56.3965 -114.341 -102.917 56.7862 -114.921 -103.053 57.2278 
-115.545 -103.167 57.7026 -116.244 -103.375 58.1387 -116.867 -103.493 58.5681 
-117.311 -103.481 59.0187 -111.939 -102.721 55.9044 -111.771 -102.302 55.4962 
-112.443 -102.824 56.3602 -113.163 -102.915 56.7346 -113.867 -103.216 57.0195 
-114.473 -103.446 57.3829 -115.048 -103.457 57.9495 -115.692 -103.46 58.5988 
-116.366 -103.502 59.15 -116.913 -103.512 59.5915 -117.3 -103.509 59.9859 
-117.498 -100.271 52.3735 -117.079 -100.247 52.6662 -117.114 -100.056 51.8512 
-116.585 -99.9652 52.1581 -116.709 -99.8327 51.3672 -116.458 -100.299 52.9368 
-116.037 -99.8088 51.6188 -116.199 -99.4418 51.0182 -115.893 -99.9654 52.497 
-115.656 -100.413 53.1897 -115.405 -99.6141 51.1518 -115.697 -98.7519 50.8615 
-115.307 -99.8699 51.9921 -115.128 -100.124 52.8373 -114.881 -100.603 53.4604 
-114.956 -98.9907 51.0552 -115.459 -97.9411 50.9294 -114.702 -99.7134 51.5425 
-114.568 -100.028 52.3594 -114.317 -100.377 53.1022 -114.112 -100.919 53.6967 
-114.893 -98.1389 51.363 -115.397 -97.3553 51.0509 -114.342 -99.1019 51.5084 
-113.958 -99.8056 51.8822 -113.676 -100.191 52.5772 -113.447 -100.614 53.3465 
-113.333 -101.258 53.9263 -114.838 -97.5177 51.6414 -115.209 -97.0054 51.0799 
-114.237 -98.3516 51.7786 -113.528 -99.3024 51.7309 -113.037 -99.9254 52.0853 
-112.864 -100.271 52.9387 -112.807 -100.764 53.7526 -112.722 -101.471 54.2353 
-114.46 -97.0806 51.6464 -114.861 -96.6813 51.1038 -113.981 -97.74 51.8783 
-113.278 -98.6952 51.7924 -112.598 -99.5139 51.8762 -112.394 -99.9495 52.5846 
-112.502 -100.292 53.5739 -112.485 -100.853 54.2164 -112.289 -101.583 54.583 
-113.965 -96.659 51.535 -114.53 -96.3487 51.2189 -113.513 -97.1733 51.7264 
-113.008 -98.0293 51.7946 -112.384 -98.9016 51.902 -112.057 -99.4891 52.3949 
-112.181 -99.9085 53.3189 -112.317 -100.346 54.1437 -112.198 -100.917 54.5796 
-111.951 -101.629 54.9471 -113.849 -96.221 51.4922 -113.225 -96.5148 51.5522 
-113.286 -96.1158 51.6796 -112.733 -96.5113 51.7958 -112.922 -96.1357 52.2277 
-112.792 -97.1862 51.7213 -112.412 -96.7136 52.6381 -112.554 -96.2874 53.2262 
-112.333 -97.2758 52.2441 -112.329 -98.0625 52.0253 -112.111 -96.9614 53.6345 
-112.219 -96.4868 54.1648 -112.081 -97.4241 53.1563 -111.983 -97.9632 52.7362 
-111.917 -98.7541 52.4408 -111.929 -97.1256 54.3997 -112.104 -96.7132 54.9029 
-111.963 -97.602 53.95 -111.895 -97.9915 53.5636 -111.731 -98.6073 53.2398 
-111.84 -99.376 53.1643 -111.839 -97.3123 55.2931 -112.123 -97.0317 55.7032 
-111.83 -97.8019 54.8692 -111.802 -98.2775 54.5241 -111.524 -98.8146 54.2078 
-111.491 -99.4768 54.0159 -111.917 -99.9959 54.0516 -111.851 -97.6327 56.3119 
-112.216 -97.4238 56.5164 -111.649 -98.0287 56.045 -111.551 -98.555 55.7318 
-111.239 -99.1292 55.3828 -110.988 -99.6938 55.0179 -111.323 -100.131 54.7643 
-111.897 -100.488 54.6531 -112.097 -98.0177 57.1005 -112.384 -97.7518 57.2458 
-111.748 -98.3204 56.9784 -111.449 -98.7123 56.7451 -111.145 -99.2288 56.3782 
-110.846 -99.7545 55.9672 -110.939 -100.146 55.5811 -111.422 -100.526 55.2699 
-111.799 -101.06 55.0619 -112.41 -98.3428 57.7152 -112.498 -97.9455 57.9742 
-112.133 -98.672 57.5763 -111.72 -98.9236 57.4236 -111.375 -99.2765 57.1013 
-111.165 -99.7766 56.6978 -111.15 -100.204 56.3653 -111.38 -100.566 56.0821 
-111.616 -101.118 55.8094 -111.691 -101.801 55.6005 -111.662 -102.651 56.2306 
-111.693 -102.09 56.4464 -111.766 -102.864 57.0423 -111.757 -101.399 56.7398 
-111.84 -102.311 57.4236 -111.994 -102.923 57.9081 -111.682 -100.92 57.0002 
-111.863 -101.815 57.8166 -111.927 -102.502 58.4375 -112.226 -103.005 58.9449 
-111.571 -100.5 57.2464 -111.784 -101.443 58.1473 -111.743 -102.212 58.9318 
-112 -102.733 59.5054 -112.534 -103.118 60.0669 -111.558 -99.905 57.6012 
-111.718 -100.8 58.5024 -111.646 -101.72 59.3817 -111.75 -102.414 60.0215 
-112.293 -102.853 60.5839 -112.981 -103.008 61.0235 -111.75 -99.4382 57.9521 
-111.738 -100.063 58.8393 -111.705 -100.859 59.7417 -111.774 -101.741 60.4068 
-112.099 -102.443 61.0788 -112.68 -102.737 61.5896 -113.384 -102.812 61.8437 
-112.162 -99.2277 58.1129 -111.985 -99.7205 58.9654 -111.842 -100.226 59.8954 
-111.983 -100.979 60.5488 -112.229 -101.863 61.2597 -112.478 -102.414 62.0512 
-112.945 -102.635 62.4692 -113.656 -102.904 62.673 -112.492 -98.9307 58.232 
-112.348 -99.5101 58.9756 -112.103 -99.9621 59.903 -112.178 -100.505 60.6155 
-112.523 -101.333 61.1881 -112.711 -102.04 61.9962 -112.825 -102.386 62.7605 
-113.241 -102.714 63.1864 -113.936 -103.183 63.4794 -112.534 -98.4189 58.5245 
-112.508 -99.0392 59.142 -112.383 -99.6116 59.9362 -112.388 -100.108 60.7256 
-112.704 -100.811 61.2611 -113.071 -101.597 61.7681 -113.21 -102.055 62.4866 
-113.317 -102.356 63.2212 -113.685 -102.82 63.7823 -114.26 -103.327 64.1833 
-111.887 -103.065 56.6232 -112.035 -103.275 57.3162 -112.449 -103.228 56.9539 
-112.297 -103.341 58.2357 -112.555 -103.518 57.6133 -113.2 -103.426 57.2463 
-112.624 -103.384 59.4996 -112.779 -103.564 58.7865 -113.303 -103.606 58.1333 
-113.979 -103.607 57.6797 -113.11 -103.291 60.663 -113.206 -103.493 60.2195 
-113.627 -103.464 59.5905 -114.247 -103.455 58.976 -114.708 -103.55 58.4138 
-113.693 -103.055 61.5185 -113.796 -103.407 61.33 -114.092 -103.559 60.9429 
-114.635 -103.413 60.4535 -115.065 -103.351 59.9768 -115.354 -103.443 59.3109 
-114.146 -103.096 62.3631 -114.334 -103.471 62.2534 -114.446 -103.955 61.972 
-114.815 -104.086 61.4409 -115.268 -103.798 61.1045 -115.637 -103.52 60.7698 
-115.997 -103.46 60.0285 -114.453 -103.452 63.2643 -114.719 -103.759 63.1774 
-114.699 -104.286 62.9625 -114.81 -104.783 62.2895 -115.221 -104.772 61.6417 
-115.74 -104.28 61.4494 -116.226 -103.763 61.1858 -116.617 -103.53 60.4602 
-114.704 -103.698 64.065 -114.999 -103.997 63.9549 -114.975 -104.397 63.8031 
-114.934 -104.914 63.2481 -115.232 -105.229 62.3583 -115.803 -105.066 61.7895 
-116.385 -104.507 61.6647 -116.82 -103.92 61.412 -117.095 -103.597 60.7683 
-114.767 -103.519 64.7984 -115.133 -103.898 64.6546 -115.098 -103.536 65.3649 
-115.38 -104.053 65.1833 -115.386 -103.671 65.8587 -115.257 -104.282 64.4884 
-115.753 -104.525 65.7504 -116.036 -104.033 66.155 -115.532 -104.623 65.0178 
-115.23 -104.719 64.1905 -116.649 -104.964 66.0934 -117.161 -104.164 66.0525 
-116.185 -105.11 65.6684 -115.806 -104.949 64.6923 -115.461 -105.072 63.4688 
-117.793 -104.713 65.9218 -118.238 -103.878 65.8585 -117.257 -105.148 65.9136 
-116.737 -105.063 65.2158 -116.345 -104.997 63.8951 -116.029 -105.193 62.5705 
-118.521 -104.138 65.6264 -118.891 -103.557 65.8827 -118.225 -104.678 65.5386 
-117.762 -104.936 65.1489 -117.225 -104.925 64.1677 -116.879 -104.988 62.9631 
-116.629 -104.97 62.0806 -118.904 -103.818 65.3951 -119.361 -103.373 65.7428 
-118.788 -104.373 65.0816 -118.669 -104.897 64.671 -118.088 -105.022 63.9814 
-117.478 -104.872 63.1788 -117.223 -104.734 62.4655 -117.057 -104.419 61.9179 
-119.39 -103.642 64.9972 -119.858 -103.214 65.2322 -119.24 -104.234 64.7174 
-119.373 -104.946 64.3322 -119.049 -105.231 63.7517 -118.209 -104.876 63.1906 
-117.638 -104.447 62.7431 -117.467 -104.178 62.2221 -117.318 -103.868 61.5551 
-119.956 -103.416 64.5159 -120.28 -103.015 64.6566 -119.745 -103.94 64.3532 
-119.839 -104.655 64.1201 -119.772 -105.121 63.689 -119.086 -104.836 63.2117 
-118.278 -104.195 62.8629 -117.887 -103.846 62.4282 -117.716 -103.716 61.7227 
-117.517 -103.586 60.8566 -114.269 -102.975 64.5343 -114.663 -103.082 65.2287 
-114.387 -102.493 64.6597 -114.642 -102.576 65.3836 -114.531 -101.982 64.6005 
-114.964 -103.042 65.8192 -114.846 -102.07 65.185 -114.705 -101.427 64.4705 
-115.068 -102.52 65.8925 -115.461 -103.044 66.1946 -115.276 -101.559 64.7668 
-114.988 -100.851 64.2798 -115.574 -102.088 65.4949 -115.88 -102.387 66.1015 
-116.42 -103.111 66.197 -115.711 -101.044 64.3665 -115.359 -100.364 64.01 
-116.171 -101.759 64.8728 -116.52 -102.062 65.5811 -116.932 -102.307 66.0012 
-117.64 -103.093 65.9893 -116.079 -100.476 64.112 -115.77 -99.9627 63.6812 
-116.543 -101.264 64.4082 -116.99 -101.906 64.8794 -117.378 -102.067 65.5048 
-118.021 -102.354 65.9441 -118.688 -103.03 66.0644 -116.494 -99.9143 63.8511 
-116.181 -99.6029 63.2741 -116.873 -100.501 64.1727 -117.301 -101.332 64.3843 
-117.719 -101.869 64.8172 -118.304 -102.041 65.5002 -119.045 -102.407 66.084 
-119.438 -102.966 66.1687 -116.884 -99.5235 63.3896 -116.513 -99.2927 62.7889 
-117.269 -99.858 63.8459 -117.653 -100.486 64.0992 -118.061 -101.209 64.3362 
-118.564 -101.629 64.7928 -119.219 -101.896 65.4497 -119.787 -102.346 65.8925 
-119.963 -102.852 65.7622 -117.147 -99.2928 62.7839 -116.764 -99.0149 62.2994 
[...]
CELL_DATA 2000
SCALARS Distance double
LOOKUP_TABLE default
162.753 162.555 162.822 163.116 162.223 162.563 162.836 163.123 163.407 
161.804 162.165 162.442 162.773 163.059 163.406 163.778 161.492 161.791 
162.116 162.406 162.734 163.055 163.454 163.829 164.252 161.285 161.558 
161.918 162.178 162.553 162.82 163.223 163.536 163.959 164.299 164.67 
161.049 161.346 161.684 161.983 162.341 162.652 163.026 163.331 163.706 
164.021 164.401 164.71 165.06 160.797 161.083 161.402 161.707 162.047 
162.382 162.749 163.082 163.437 163.755 164.128 164.459 164.858 165.151 
165.502 160.619 160.856 161.191 161.452 161.83 162.122 162.544 162.837 
163.243 163.51 163.903 164.203 164.632 164.955 165.357 165.611 165.919 
160.549 160.738 161.092 161.308 161.712 161.974 162.436 162.716 163.173 
163.408 163.82 164.048 164.472 164.756 165.186 165.463 165.819 166.02 
166.292 162.43 161.839 162.167 162.223 161.222 161.535 161.544 161.905 
161.898 160.567 160.888 160.841 161.184 161.166 161.519 161.483 159.807 
160.186 160.165 160.498 160.477 160.803 160.799 161.126 161.148 159.065 
159.42 159.453 159.818 159.834 160.16 160.15 160.464 160.483 160.84 
160.91 158.57 158.8 158.833 159.131 159.15 159.488 159.455 159.792 
159.757 160.134 160.177 160.597 160.675 158.225 158.411 158.414 158.607 
158.561 158.806 158.73 159.041 158.995 159.374 159.419 159.845 159.953 
160.364 160.453 157.785 158.008 157.949 158.17 158.055 158.254 158.116 
158.346 158.306 158.643 158.758 159.155 159.33 159.703 159.847 160.186 
160.294 157.286 157.464 157.308 157.57 157.433 157.698 157.56 157.78 
157.722 158.018 158.161 158.564 158.803 159.172 159.345 159.647 159.768 
160.076 160.212 156.99 156.489 156.747 156.886 156.238 156.313 156.419 
156.733 157.019 156.327 156.256 156.351 156.437 156.685 156.952 157.23 
156.54 156.46 156.572 156.534 156.7 156.765 156.995 157.192 157.465 
156.79 156.697 156.84 156.796 156.949 156.892 157.063 157.101 157.408 
157.575 157.975 157.177 156.999 157.154 157.088 157.309 157.214 157.391 
157.297 157.562 157.635 158.059 158.233 158.657 157.726 157.47 157.603 
157.464 157.703 157.614 157.809 157.681 157.841 157.816 158.107 158.277 
158.656 158.862 159.18 158.347 158.086 158.215 157.987 158.166 158.022 
158.191 158.068 158.181 158.083 158.248 158.298 158.603 158.79 159.13 
159.313 159.599 158.908 158.724 158.893 158.645 158.782 158.531 158.656 
158.461 158.61 158.453 158.656 158.549 158.856 158.859 159.246 159.329 
159.697 159.784 160.088 160.385 160.049 160.432 160.841 159.678 160.112 
160.603 160.949 161.366 159.356 159.791 160.368 160.746 161.218 161.492 
161.908 159.13 159.524 160.14 160.55 161.066 161.355 161.782 162.061 
162.526 158.992 159.309 159.865 160.303 160.832 161.184 161.607 161.915 
162.377 162.709 163.177 159.02 159.207 159.663 160.004 160.496 160.885 
161.327 161.696 162.16 162.533 163.007 163.319 163.717 159.201 159.315 
159.727 159.889 160.31 160.576 161.032 161.394 161.911 162.308 162.814 
163.14 163.548 163.811 164.205 159.308 159.48 159.871 160.005 160.361 
160.504 160.914 161.176 161.723 162.096 162.663 162.985 163.419 163.656 
164.036 164.322 164.79 159.233 159.464 159.803 160.038 160.36 160.549 
160.898 161.119 161.601 161.942 162.517 162.865 163.335 163.567 163.926 
164.158 164.575 164.92 165.407 160.671 161.112 160.989 161.221 161.602 
161.456 161.68 161.567 161.842 162.145 161.965 162.184 162.045 162.336 
162.247 162.579 162.805 162.577 162.802 162.59 162.864 162.751 163.105 
163.023 163.338 163.466 163.276 163.527 163.281 163.539 163.334 163.672 
163.556 163.902 163.765 164.013 164.006 163.896 164.204 164.024 164.339 
164.1 164.44 164.216 164.571 164.372 164.665 164.443 164.674 164.562 
164.458 164.863 164.719 165.135 164.935 165.324 165.068 165.408 165.135 
165.427 165.156 165.401 165.141 165.37 165.229 165.118 165.602 165.452 
165.9 165.727 166.114 165.91 166.217 165.971 166.225 165.955 166.178 
165.895 166.087 165.821 165.993 165.857 165.809 166.281 166.185 166.568 
166.434 166.731 166.584 166.827 166.664 166.888 166.696 166.911 166.665 
166.835 166.541 166.658 166.376 166.474 166.285 166.886 166.662 166.706 
167.352 167.185 167.263 167.007 166.965 168.027 167.755 167.875 167.55 
167.526 167.197 167.097 168.898 168.611 168.803 168.339 168.303 167.815 
167.695 167.306 167.183 169.522 169.409 169.615 169.296 169.223 168.694 
168.481 167.97 167.805 167.407 167.276 169.789 169.775 169.894 169.846 
169.786 169.482 169.206 168.735 168.468 168.049 167.884 167.508 167.336 
169.927 169.872 169.911 169.947 170.015 169.901 169.743 169.352 169.026 
168.613 168.362 168.051 167.846 167.507 167.252 170.027 169.947 169.963 
169.982 170.185 170.182 170.251 169.925 169.63 169.121 168.746 168.399 
168.135 167.893 167.625 167.323 167.023 170.057 170.018 170.027 170.051 
170.251 170.366 170.542 170.43 170.202 169.727 169.226 168.753 168.373 
168.102 167.845 167.61 167.334 167.049 166.781 166.097 165.957 166.273 
166.685 165.734 166.071 166.466 166.765 167.133 165.482 165.821 166.222 
166.531 166.92 167.223 167.714 165.257 165.589 166.056 166.351 166.772 
167.033 167.503 167.881 168.48 165.078 165.398 165.932 166.258 166.752 
166.973 167.396 167.666 168.199 168.636 169.166 164.941 165.233 165.741 
166.119 166.656 166.963 167.386 167.599 168.053 168.383 168.944 169.291 
169.66 164.836 165.094 165.523 165.877 166.368 166.769 167.217 167.527 
167.939 168.252 168.783 169.144 169.625 169.795 169.979 164.716 164.971 
165.349 165.642 166.06 166.431 166.872 167.256 167.663 168.036 168.472 
168.906 169.364 169.722 169.984 170.071 170.099 164.551 164.818 165.178 
165.454 165.821 166.134 166.528 166.894 167.284 167.669 168.02 168.451 
168.787 169.266 169.524 169.884 169.966 170.093 170.06 159.258 159.459 
159.48 159.793 159.89 159.755 160.06 160.076 160.408 160.636 160.358 
160.646 160.483 160.833 160.742 161.042 161.435 161.191 161.481 161.215 
161.508 161.29 161.607 161.45 161.788 162.035 161.91 162.195 162.01 
162.23 161.994 162.236 162.067 162.426 162.304 162.692 162.528 162.425 
162.693 162.588 162.802 162.629 162.829 162.671 162.995 162.918 163.306 
163.201 163.497 163.067 162.923 163.184 163.057 163.306 163.156 163.393 
163.239 163.548 163.461 163.836 163.757 164.059 163.903 164.1 163.637 
163.486 163.755 163.597 163.86 163.696 163.952 163.8 164.09 163.992 
164.339 164.27 164.6 164.468 164.732 164.521 164.763 164.174 164.05 
164.324 164.18 164.437 164.274 164.52 164.362 164.627 164.508 164.818 
164.747 165.079 165.002 165.319 165.181 165.483 165.277 165.575 159.006 
158.886 159.029 159.259 158.947 159.044 159.323 159.396 159.729 158.978 
159.143 159.514 159.596 159.942 160.002 160.441 158.938 159.124 159.52 
159.744 160.128 160.242 160.587 160.725 161.164 159.006 159.102 159.424 
159.656 160.046 160.293 160.618 160.798 161.126 161.354 161.749 159.195 
159.246 159.539 159.622 159.969 160.161 160.524 160.733 161.073 161.286 
161.662 161.897 162.286 159.368 159.461 159.808 159.835 160.176 160.228 
160.616 160.72 161.123 161.267 161.682 161.865 162.281 162.466 162.853 
159.517 159.627 159.996 160.083 160.447 160.513 160.918 160.969 161.394 
161.444 161.867 161.962 162.379 162.515 162.903 163.055 163.42 159.703 
159.777 160.111 160.219 160.573 160.714 161.122 161.26 161.678 161.761 
162.143 162.2 162.566 162.65 163.007 163.123 163.469 163.613 163.954 
159.941 160.451 160.219 160.315 161.092 160.784 160.86 160.622 160.772 
161.807 161.48 161.544 161.23 161.36 161.14 161.349 162.483 162.19 
162.257 161.938 162.022 161.758 161.937 161.748 161.939 163.15 162.861 
162.96 162.65 162.726 162.418 162.531 162.314 162.488 162.301 162.423 
163.843 163.551 163.677 163.375 163.48 163.141 163.219 162.917 163.047 
162.834 162.983 162.759 162.845 164.497 164.232 164.333 164.07 164.162 
163.874 163.941 163.624 163.715 163.439 163.584 163.34 163.464 163.193 
163.271 165.081 164.843 164.907 164.661 164.711 164.476 164.541 164.294 
164.387 164.125 164.259 163.994 164.129 163.842 163.938 163.637 163.719 
165.596 165.39 165.446 165.2 165.233 164.991 165.066 164.852 164.984 
164.766 164.919 164.674 164.812 164.532 164.635 164.327 164.41 164.103 
164.193 165.884 166.252 165.972 165.739 166.534 166.295 166.062 165.786 
165.526 166.771 166.535 166.338 166.104 165.911 165.609 165.391 167.177 
166.856 166.721 166.44 166.352 166.057 165.918 165.555 165.361 167.777 
167.422 167.353 166.974 166.91 166.569 166.469 166.113 165.928 165.54 
165.315 168.379 168.073 168.031 167.667 167.556 167.179 167.02 166.652 
166.438 166.071 165.821 165.453 165.195 168.972 168.664 168.589 168.262 
168.111 167.77 167.565 167.192 166.94 166.555 166.286 165.92 165.65 
165.292 165.012 169.567 169.269 169.18 168.809 168.64 168.27 168.069 
167.706 167.457 167.065 166.774 166.382 166.093 165.728 165.441 165.082 
164.788 169.971 169.807 169.767 169.44 169.278 168.85 168.617 168.206 
167.945 167.559 167.25 166.858 166.526 166.154 165.843 165.495 165.197 
164.848 164.561 166.009 166.298 166.244 166.4 166.622 166.551 166.752 
166.654 166.745 167.069 166.935 167.178 167.065 167.223 167.001 167.026 
167.624 167.456 167.698 167.554 167.745 167.527 167.568 167.289 167.356 
168.045 167.987 168.204 168.084 168.237 168.042 168.05 167.794 167.79 
167.63 167.807 168.09 168.242 168.489 168.509 168.667 168.515 168.503 
168.232 168.164 167.977 168.088 168.078 168.355 167.885 168.147 168.472 
168.663 168.917 168.902 168.964 168.717 168.655 168.372 168.445 168.348 
168.643 168.661 168.994 167.71 167.951 168.32 168.579 168.893 169.041 
169.176 169.115 169.092 168.88 168.904 168.752 168.989 168.977 169.319 
169.318 169.596 167.611 167.824 168.165 168.419 168.7 168.915 169.029 
169.142 169.116 169.128 169.103 169.093 169.216 169.265 169.511 169.577 
169.795 169.815 169.951 165.807 165.631 165.855 166.11 165.479 165.736 
166.041 166.191 166.45 165.166 165.561 165.947 166.17 166.445 166.574 
166.879 164.62 165.116 165.51 165.947 166.262 166.537 166.829 167.043 
167.401 164.043 164.508 164.844 165.349 165.686 166.161 166.496 166.888 
167.228 167.527 167.808 163.508 163.965 164.32 164.734 165.071 165.518 
165.897 166.4 166.786 167.221 167.467 167.755 167.84 162.935 163.439 
163.875 164.299 164.637 164.996 165.313 165.768 166.151 166.666 166.95 
167.315 167.375 167.612 167.601 162.381 162.869 163.314 163.815 164.149 
164.547 164.755 165.162 165.425 165.959 166.264 166.74 166.877 167.147 
167.143 167.361 167.403 161.913 162.328 162.702 163.2 163.529 163.977 
164.176 164.555 164.744 165.206 165.494 166.018 166.259 166.642 166.72 
166.95 166.985 167.22 167.314 161.767 161.735 161.99 162.511 161.829 
162.011 162.539 162.784 163.304 162.116 162.213 162.743 162.888 163.39 
163.561 163.985 162.375 162.501 163.008 163.154 163.669 163.76 164.173 
164.227 164.606 162.5 162.653 163.079 163.309 163.802 164.017 164.442 
164.508 164.854 164.899 165.325 162.639 162.758 163.138 163.305 163.715 
163.982 164.37 164.616 164.922 165.094 165.431 165.617 166.027 162.766 
162.922 163.362 163.458 163.853 163.941 164.262 164.424 164.703 164.955 
165.268 165.572 165.933 166.202 166.511 162.793 163.011 163.498 163.693 
164.139 164.202 164.516 164.487 164.752 164.805 165.154 165.365 165.782 
166.046 166.403 166.599 166.841 162.815 163.007 163.444 163.717 164.153 
164.38 164.716 164.789 165.063 165.054 165.404 165.451 165.882 166.002 
166.397 166.534 166.831 166.943 167.18 162.983 163.343 163.279 163.548 
163.673 163.616 163.871 163.868 164.199 164.099 163.993 164.226 164.162 
164.454 164.495 164.784 164.573 164.471 164.684 164.544 164.767 164.741 
165.066 165.068 165.273 164.951 164.901 165.097 164.981 165.146 165.071 
165.385 165.405 165.759 165.626 165.765 165.316 165.247 165.452 165.351 
165.515 165.426 165.691 165.724 166.115 166.13 166.395 166.164 166.235 
165.739 165.642 165.871 165.749 165.957 165.823 166.06 166.016 166.332 
166.396 166.678 166.662 166.779 166.582 166.625 166.132 166.06 166.306 
166.213 166.468 166.335 166.584 166.443 166.687 166.619 166.85 166.845 
167.015 166.965 167.06 166.916 166.987 166.484 166.424 166.679 166.632 
166.921 166.85 167.13 166.997 167.224 167.055 167.24 167.103 167.286 
167.204 167.388 167.295 167.438 167.274 167.356 167.642 167.745 167.867 
168.176 167.678 167.891 168.206 168.37 168.639 167.578 167.785 168.078 
168.287 168.51 168.699 168.874 167.575 167.73 168.009 168.151 168.325 
168.475 168.601 168.811 168.94 167.592 167.758 168.036 168.133 168.286 
168.336 168.432 168.546 168.705 168.889 169.041 167.488 167.724 167.996 
168.143 168.313 168.359 168.498 168.52 168.734 168.804 169.076 169.129 
169.315 167.244 167.532 167.797 168.026 168.23 168.37 168.62 168.702 
169.06 169.07 169.431 169.368 169.636 169.53 169.677 166.973 167.249 
167.519 167.78 168.014 168.235 168.556 168.801 169.31 169.487 169.956 
169.891 170.116 169.925 170.009 169.867 169.919 166.772 167.006 167.3 
167.537 167.805 168.022 168.332 168.645 169.16 169.58 170.121 170.32 
170.513 170.374 170.288 170.114 170.053 169.999 170.013 157.366 157.737 
157.497 157.307 158.135 157.869 157.651 157.329 157.08 158.53 158.28 
158.193 157.829 157.702 157.275 157.255 159.052 158.747 158.782 158.478 
158.553 158.141 158.228 157.769 157.938 159.809 159.409 159.419 159.097 
159.215 158.976 159.148 158.812 158.913 158.499 158.603 160.629 160.25 
160.254 159.822 159.847 159.561 159.717 159.543 159.664 159.369 159.381 
159.029 159.126 161.301 161.029 161.117 160.72 160.759 160.317 160.436 
160.121 160.306 160.022 160.108 159.761 159.845 159.562 159.807 161.874 
161.648 161.788 161.53 161.659 161.286 161.416 161.008 161.195 160.807 
160.962 160.547 160.656 160.301 160.508 160.297 160.606 162.45 162.221 
162.372 162.165 162.341 162.093 162.236 161.932 162.077 161.748 161.893 
161.495 161.593 161.17 161.309 161.002 161.247 161.062 161.326 157.211 
157.128 157.162 157.072 156.83 156.899 156.781 156.919 156.813 156.955 
156.724 156.602 156.59 156.493 156.577 156.512 157.635 157.164 157.085 
156.754 156.752 156.503 156.526 156.451 156.6 158.317 157.91 157.822 
157.468 157.507 157.122 157.194 156.846 157.043 156.873 157.161 158.902 
158.519 158.389 158.1 158.072 157.834 157.863 157.607 157.738 157.522 
157.766 157.575 157.79 159.68 159.212 159.116 158.677 158.617 158.301 
158.33 158.129 158.26 158.125 158.342 158.199 158.401 158.183 158.337 
160.524 160.088 160.045 159.541 159.503 159.018 159.09 158.717 158.927 
158.671 158.94 158.746 158.985 158.783 158.96 158.732 158.908 161.219 
160.873 160.825 160.433 160.399 159.973 160.042 159.645 159.853 159.508 
159.761 159.451 159.662 159.391 159.559 159.33 159.488 159.294 159.474 
157.009 157.013 156.9 156.624 156.928 156.975 156.833 156.593 156.383 
156.705 156.885 156.961 156.862 156.699 156.459 156.384 156.711 156.754 
156.965 156.992 156.987 156.793 156.673 156.505 156.527 157.107 156.93 
157.092 157.084 157.227 157.104 157.083 156.847 156.838 156.687 156.793 
157.614 157.346 157.374 157.296 157.482 157.42 157.55 157.337 157.395 
157.133 157.236 157.047 157.221 158.147 157.818 157.786 157.611 157.786 
157.735 157.956 157.833 157.956 157.731 157.826 157.592 157.729 157.547 
157.758 158.778 158.412 158.414 158.117 158.276 158.12 158.346 158.233 
158.371 158.216 158.295 158.129 158.231 158.064 158.211 158.087 158.315 
159.4 159.09 159.132 158.822 158.946 158.697 158.852 158.656 158.759 
158.587 158.671 158.533 158.654 158.519 158.646 158.505 158.647 158.581 
158.798 165.557 165.037 165.309 165.335 164.43 164.733 164.719 165.049 
165.088 163.761 164.083 164.039 164.371 164.346 164.732 164.729 163.065 
163.384 163.333 163.665 163.612 163.96 163.92 164.303 164.245 162.38 
162.673 162.571 162.911 162.824 163.192 163.124 163.503 163.44 163.799 
163.709 161.686 161.966 161.794 162.107 161.959 162.336 162.234 162.654 
162.563 162.969 162.841 163.223 163.1 160.978 161.245 161.067 161.337 
161.189 161.499 161.412 161.77 161.692 162.064 161.927 162.298 162.134 
162.555 162.458 160.343 160.563 160.412 160.649 160.536 160.808 160.755 
161.05 160.989 161.273 161.151 161.432 161.287 161.618 161.533 161.952 
161.942 159.817 159.987 159.838 160.043 159.921 160.178 160.086 160.392 
160.278 160.581 160.409 160.695 160.536 160.847 160.779 161.135 161.147 
161.534 161.559 
POINT_DATA 1002
SCALARS Distance double
LOOKUP_TABLE default
163.075 162.674 162.511 162.881 162.274 163.393 162.534 161.862 163.094 
163.733 162.1 161.45 162.693 163.39 164.212 161.824 161.204 162.427 
163.084 163.888 164.657 161.647 161.006 162.285 162.95 163.637 164.354 
164.999 161.387 160.756 162.019 162.721 163.409 164.073 164.779 165.404 
161.107 160.53 161.715 162.409 163.12 163.785 164.526 165.271 165.834 
160.932 160.397 161.534 162.243 162.983 163.627 164.299 165.07 165.731 
166.193 160.887 160.364 161.458 162.145 162.922 163.615 164.22 164.899 
165.591 166.137 166.547 162.106 161.884 161.53 161.191 160.946 161.558 
160.528 160.227 160.805 161.138 159.805 159.39 160.163 160.467 160.793 
159.066 158.742 159.488 159.852 160.134 160.523 158.594 158.377 158.84 
159.124 159.391 159.747 160.263 158.263 158.037 158.388 158.456 158.611 
158.985 159.525 160.072 157.725 157.595 157.86 157.92 157.974 158.335 
158.955 159.511 159.958 157.074 157.19 157.126 157.315 157.448 157.746 
158.403 159.05 159.473 159.875 156.708 156.458 156.3 156.183 156.231 
156.616 156.357 156.395 156.515 156.927 156.63 156.597 156.732 156.856 
157.203 156.864 156.909 157.028 157.089 157.246 157.778 157.225 157.398 
157.373 157.528 157.558 157.883 158.519 157.789 157.991 157.797 157.943 
157.959 158.01 158.431 159.018 158.48 158.571 158.378 158.327 158.305 
158.28 158.455 158.922 159.45 159.12 159.032 159.079 158.89 158.753 
158.774 158.913 159.201 159.617 160.027 160.764 160.505 161.254 160.217 
161.09 161.755 159.956 160.933 161.632 162.338 159.703 160.764 161.502 
162.215 163.028 159.45 160.444 161.29 162.032 162.887 163.619 159.42 
160.121 160.925 161.769 162.681 163.454 164.079 159.635 160.127 160.683 
161.491 162.476 163.287 163.903 164.635 159.726 160.253 160.703 161.356 
162.321 163.194 163.777 164.428 165.307 159.547 160.136 160.694 161.297 
162.151 163.081 163.731 164.271 165.026 165.888 161.319 161.797 161.925 
162.344 162.413 162.672 163.051 163.014 163.168 163.477 163.751 163.781 
163.824 164.026 164.205 164.321 164.541 164.697 164.801 164.888 164.906 
164.974 165.295 165.569 165.708 165.717 165.677 165.622 165.746 166.086 
166.319 166.454 166.49 166.47 166.389 166.253 166.376 166.722 166.896 
166.98 167.048 167.129 167.136 166.982 166.739 166.591 167.02 167.048 
167.489 167.521 167.279 168.256 168.304 167.882 167.418 169.273 169.118 
168.881 168.147 167.522 169.839 169.612 169.734 169.056 168.243 167.652 
169.877 169.88 169.968 169.658 168.908 168.256 167.746 169.86 170.042 
169.998 170.08 169.494 168.679 168.152 167.64 169.94 170.098 170.089 
170.471 170.204 169.193 168.366 167.888 167.349 170.017 170.056 170.126 
170.539 170.617 169.786 168.7 168.053 167.594 167.059 165.812 166.417 
165.644 166.152 165.407 166.83 165.905 165.137 166.61 167.319 165.727 
164.908 166.539 167.17 168.02 165.56 164.766 166.509 167.211 167.809 
168.771 165.375 164.683 166.288 167.17 167.779 168.571 169.49 165.226 
164.598 165.968 166.849 167.632 168.407 169.371 170.015 165.089 164.461 
165.734 166.478 167.289 168.069 168.941 169.78 170.157 164.906 164.286 
165.539 166.191 166.916 167.649 168.343 169.076 169.716 170.026 159.197 
159.697 159.483 160.086 160.1 160.397 160.888 160.922 160.965 161.138 
161.763 161.619 161.791 161.769 161.917 162.348 162.139 162.476 162.424 
162.516 162.845 162.79 162.657 162.942 162.989 163.076 163.393 163.679 
163.323 163.222 163.441 163.538 163.654 163.914 164.2 164.299 163.914 
163.775 164.029 164.111 164.209 164.409 164.695 164.906 164.993 158.792 
159.099 158.768 159.266 158.807 159.606 159.358 158.771 159.919 160.302 
159.245 158.799 159.958 160.508 160.953 159.262 158.958 159.767 160.414 
160.934 161.492 159.519 159.108 159.838 160.305 160.854 161.433 162.062 
159.757 159.238 160.149 160.543 161.001 161.514 162.1 162.681 159.887 
159.425 160.345 160.848 161.366 161.817 162.271 162.765 163.264 160.021 