# vtk DataFile Version 4.0
vtk output
ASCII
DATASET POLYDATA
POINTS 1002 float
-118.858 -101.645 51.276 -118.98 -101.165 50.9283 -118.331 -101.244 51.0317 
-118.177 -101.78 51.4417 -117.639 -101.427 51.1085 -118.709 -102.095 51.8415 
-117.427 -102.001 51.5651 -116.866 -101.716 51.2016 -117.992 -102.222 52.1285 
-118.521 -102.446 52.6341 -116.612 -102.194 51.7966 -116.086 -101.94 51.4712 
-117.216 -102.393 52.3719 -117.794 -102.57 52.9794 -118.277 -102.758 53.4455 
-115.835 -102.274 52.2839 -115.387 -102.036 51.9014 -116.406 -102.493 52.7835 
-117.036 -102.781 53.3012 -117.54 -102.979 53.7875 -117.994 -103.109 54.2927 
-115.081 -102.425 52.729 -114.648 -102.168 52.2383 -115.585 -102.629 53.281 
-116.219 -102.948 53.7239 -116.8 -103.306 54.111 -117.255 -103.468 54.6133 
-117.763 -103.609 55.114 -114.264 -102.66 52.9671 -113.798 -102.389 52.4411 
-114.735 -102.951 53.5464 -115.318 -103.183 54.0427 -115.985 -103.516 54.4407 
-116.57 -103.881 54.8366 -117.058 -104.097 55.2612 -117.578 -104.307 55.5761 
-113.486 -102.775 53.2916 -112.997 -102.605 52.6877 -113.969 -103.138 53.8393 
-114.483 -103.471 54.2689 -115.101 -103.725 54.7046 -115.799 -104.153 55.0772 
-116.442 -104.611 55.3089 -116.928 -104.85 55.5514 -117.36 -104.944 55.8657 
-112.855 -102.851 53.7284 -112.404 -102.757 53.0291 -113.353 -103.107 54.3409 
-113.866 -103.543 54.6809 -114.392 -103.965 54.9824 -114.968 -104.432 55.3442 
-115.675 -104.985 55.5064 -116.362 -105.354 55.5814 -116.834 -105.402 55.9039 
-117.197 -105.272 56.4315 -112.372 -103.007 54.0816 -112.042 -102.793 53.434 
-112.786 -103.215 54.7233 -113.288 -103.582 55.0811 -113.851 -104.113 55.256 
-114.348 -104.709 55.5221 -114.859 -105.261 55.7518 -115.577 -105.63 55.8314 
-116.316 -105.734 56.0603 -116.837 -105.612 56.5872 -117.21 -105.386 57.2003 
-118.676 -100.76 50.6294 -117.964 -100.803 50.7379 -118.303 -100.422 50.1934 
-117.477 -100.457 50.2882 -117.85 -100.146 49.6626 -117.195 -100.989 50.8356 
-116.888 -100.217 49.6931 -117.349 -99.7664 49.2174 -116.6 -100.612 50.4432 
-116.372 -101.299 50.979 -116.371 -99.8326 49.2846 -116.855 -99.1953 48.9689 
-116.015 -100.281 49.9582 -115.811 -100.802 50.6919 -115.628 -101.51 51.2593 
-116.008 -99.1544 49.1982 -116.377 -98.5434 48.8458 -115.677 -99.7657 49.7295 
-115.409 -100.239 50.4107 -115.194 -100.861 51.0777 -114.948 -101.603 51.6515 
-115.639 -98.3916 49.1002 -115.919 -97.8791 48.7881 -115.396 -99.0456 49.6421 
-115.162 -99.63 50.2941 -114.906 -100.157 50.9845 -114.544 -100.977 51.5553 
-114.129 -101.833 51.9513 -115.237 -97.7525 48.9266 -115.537 -97.2025 48.8222 
-114.946 -98.3814 49.3642 -114.747 -99.0727 50.0867 -114.611 -99.5993 50.8851 
-114.261 -100.323 51.5263 -113.68 -101.386 51.8401 -113.201 -102.218 52.0926 
-114.965 -97.2181 48.9684 -115.287 -96.5783 48.9501 -114.565 -97.8547 49.1988 
-114.267 -98.5792 49.8164 -114.194 -99.1732 50.6743 -114.004 -99.7384 51.4099 
-113.415 -100.721 51.772 -112.758 -101.831 51.9074 -112.425 -102.495 52.2686 
-114.869 -96.7252 49.2709 -115.156 -96.0678 49.1551 -114.441 -97.3562 49.4297 
-114.034 -98.034 49.8443 -113.869 -98.6824 50.5712 -113.743 -99.2131 51.3001 
-113.264 -99.9411 51.717 -112.57 -101.005 51.8792 -112.094 -101.957 52.1096 
-111.968 -102.501 52.6503 -114.942 -96.0458 49.6157 -114.571 -96.6906 49.8286 
-114.681 -96.0656 50.2132 -114.15 -96.6446 50.3845 -114.252 -96.1926 50.6962 
-114.061 -97.3005 50.0826 -113.506 -96.6645 50.788 -113.712 -96.4267 51.218 
-113.547 -97.1592 50.6678 -113.695 -97.9451 50.602 -112.881 -96.8194 51.4687 
-113.256 -96.646 52.1527 -112.873 -97.1475 51.1896 -113.198 -97.8205 51.2667 
-113.505 -98.5999 51.2996 -112.536 -97.0589 52.646 -112.875 -96.8422 53.2826 
-112.443 -97.3971 52.0927 -112.642 -97.9819 51.9223 -112.906 -98.6686 51.9001 
-113.096 -99.2924 51.7857 -112.269 -97.3671 53.7732 -112.492 -97.1344 54.1787 
-112.258 -97.743 53.2643 -112.343 -98.3377 52.8388 -112.391 -99.0045 52.5692 
-112.402 -99.5434 52.3022 -112.443 -100.189 52.0265 -112.018 -97.7779 54.5474 
-112.275 -97.527 54.8721 -111.931 -98.0993 54.1769 -111.946 -98.5818 53.762 
-111.978 -99.2646 53.379 -111.998 -99.8439 53.0543 -111.97 -100.369 52.6879 
-111.954 -101.161 52.3113 -112.013 -98.2552 55.1759 -112.319 -97.9529 55.4943 
-111.685 -98.5328 54.8476 -111.401 -98.7966 54.4811 -111.332 -99.3204 54.0927 
-111.54 -100.007 53.8064 -111.758 -100.524 53.5772 -111.781 -101.117 53.2075 
-111.779 -101.911 52.8084 -112.184 -98.7259 55.7781 -112.458 -98.3798 56.0368 
-111.764 -99.016 55.5151 -111.24 -99.1479 55.205 -110.882 -99.4256 54.8031 
-110.971 -100.089 54.4472 -111.366 -100.724 54.2991 -111.65 -101.158 54.1537 
-111.72 -101.746 53.809 -111.797 -102.414 53.4896 -111.954 -102.976 54.2397 
-111.761 -102.483 54.411 -111.84 -103.279 55.0564 -111.632 -101.844 54.7531 
-111.721 -102.63 55.3998 -111.75 -103.626 55.9313 -111.376 -101.448 54.9392 
-111.512 -102.069 55.7139 -111.747 -102.836 56.3909 -111.814 -103.869 56.8234 
-110.993 -101.01 55.0093 -111.158 -101.829 55.8285 -111.465 -102.383 56.6578 
-111.841 -103.065 57.2121 -112.053 -103.904 57.5649 -110.79 -100.229 55.3305 
-110.936 -101.283 56.0995 -111.068 -102.154 56.9342 -111.398 -102.688 57.5686 
-111.901 -103.222 57.9707 -112.328 -103.777 58.2882 -111.012 -99.6882 55.8 
-111.015 -100.451 56.6056 -110.962 -101.47 57.4426 -110.927 -102.351 58.1297 
-111.295 -102.875 58.6335 -111.945 -103.27 58.9558 -112.563 -103.665 59.121 
-111.526 -99.5809 56.1058 -111.312 -100.054 56.9209 -111.125 -100.695 57.7909 
-110.913 -101.627 58.5603 -110.933 -102.466 59.2345 -111.398 -102.944 59.7146 
-112.141 -103.266 59.8564 -112.872 -103.608 59.816 -112.031 -99.4045 56.2751 
-111.715 -99.9346 56.9871 -111.409 -100.34 57.807 -111.229 -100.947 58.5817 
-111.166 -101.811 59.338 -111.322 -102.521 60.0156 -111.828 -102.909 60.3433 
-112.586 -103.194 60.3249 -113.32 -103.511 60.2893 -112.376 -99.0296 56.4423 
-112.104 -99.6361 57.0415 -111.764 -100.077 57.7992 -111.601 -100.512 58.5399 
-111.608 -101.176 59.2356 -111.677 -101.92 59.9322 -111.916 -102.441 60.4375 
-112.45 -102.763 60.6039 -113.151 -103.061 60.6235 -113.773 -103.384 60.7468 
-112.181 -103.412 54.8013 -111.893 -104.026 55.4141 -112.506 -103.818 55.229 
-111.686 -104.583 56.1782 -112.14 -104.628 55.6353 -113.079 -104.289 55.4157 
-111.842 -104.723 57.1144 -112.033 -105.123 56.4127 -112.916 -105.03 55.8181 
-113.792 -104.875 55.6014 -112.317 -104.44 57.9396 -112.416 -104.942 57.4739 
-113.09 -105.17 56.7111 -113.848 -105.346 56.1058 -114.319 -105.424 55.8935 
-112.778 -104.132 58.656 -112.957 -104.526 58.3396 -113.493 -104.821 57.807 
-114.093 -105.196 57.0428 -114.413 -105.574 56.4835 -114.857 -105.729 56.1523 
-113.149 -104.019 59.3652 -113.35 -104.37 59.0191 -113.773 -104.663 58.6716 
-114.304 -105.034 58.1227 -114.598 -105.424 57.5009 -114.974 -105.691 56.9725 
-115.669 -105.811 56.4822 -113.569 -103.945 60.0262 -113.721 -104.353 59.752 
-114.004 -104.707 59.4472 -114.452 -105.099 59.0652 -114.769 -105.472 58.6155 
-115.122 -105.678 58.1111 -115.809 -105.768 57.5511 -116.484 -105.767 57.0125 
-114.002 -103.809 60.6555 -114.128 -104.262 60.546 -114.321 -104.678 60.3214 
-114.695 -105.076 59.975 -115.007 -105.465 59.6073 -115.272 -105.731 59.1836 
-115.881 -105.827 58.6193 -116.646 -105.789 58.0457 -117.07 -105.621 57.593 
-114.269 -103.553 61.3252 -114.436 -104.011 61.3443 -114.607 -103.81 62.0666 
-114.738 -104.33 62.1211 -114.917 -104.117 62.8195 -114.572 -104.517 61.2763 
-115.053 -104.741 62.8776 -115.355 -104.38 63.651 -114.956 -104.923 61.9932 
-114.901 -104.971 60.9891 -115.576 -105.019 63.6438 -115.937 -104.548 64.4052 
-115.381 -105.377 62.6631 -115.406 -105.362 61.6519 -115.296 -105.33 60.6062 
-116.386 -105.032 64.0892 -116.682 -104.629 64.5778 -116.096 -105.509 63.2251 
-115.947 -105.703 62.3036 -115.809 -105.565 61.2946 -115.537 -105.615 60.197 
-117.358 -104.947 63.9787 -117.569 -104.589 64.2483 -117.121 -105.293 63.3737 
-116.836 -105.693 62.7232 -116.535 -105.764 61.9012 -116.245 -105.719 60.7077 
-116.031 -105.819 59.5537 -118.278 -104.865 63.7569 -118.432 -104.386 63.9592 
-118.116 -105.12 63.2382 -117.891 -105.461 62.7133 -117.597 -105.78 62.1509 
-117.293 -105.85 61.0541 -117.06 -105.858 59.7444 -116.872 -105.85 58.8123 
-119.079 -104.678 63.7061 -119.198 -104.07 63.8323 -118.92 -105.063 63.2091 
-118.736 -105.337 62.5735 -118.538 -105.661 62.0457 -118.312 -105.868 61.2206 
-118.058 -105.85 59.9791 -117.767 -105.734 58.9779 -117.422 -105.635 58.3228 
-119.793 -104.366 63.6465 -119.892 -103.75 63.7069 -119.626 -104.898 63.2412 
-119.418 -105.256 62.5496 -119.217 -105.523 61.8974 -118.99 -105.725 61.2556 
-118.698 -105.732 60.3159 -118.351 -105.545 59.333 -117.953 -105.355 58.6357 
-117.544 -105.311 57.9899 -113.819 -103.081 61.1685 -114.265 -103.319 61.8499 
-113.813 -102.783 61.6935 -114.182 -103.06 62.4255 -113.825 -102.345 62.1741 
-114.613 -103.598 62.5947 -114.182 -102.485 62.8876 -113.968 -101.643 62.4424 
-114.583 -103.228 63.1284 -115.068 -103.79 63.3517 -114.374 -101.559 63.1634 
-114.217 -100.871 62.5916 -114.662 -102.442 63.5377 -115.169 -103.226 63.8171 
-115.632 -103.915 64.1917 -114.655 -100.733 63.3069 -114.461 -100.297 62.6755 
-114.936 -101.518 63.6788 -115.338 -102.401 63.9822 -115.831 -103.241 64.386 
-116.252 -104.036 64.7023 -114.986 -100.222 63.2306 -114.784 -99.8908 62.5005 
-115.326 -100.909 63.5401 -115.718 -101.732 63.7109 -116.175 -102.456 64.1017 
-116.637 -103.229 64.493 -117.07 -104.03 64.5372 -115.477 -99.8736 62.8301 
-115.286 -99.5778 62.0349 -115.792 -100.47 63.237 -116.201 -101.272 63.3082 
-116.697 -101.88 63.5906 -117.205 -102.354 64.0532 -117.609 -103.043 64.2249 
-117.987 -103.823 64.1205 -116.054 -99.6509 62.2132 -115.842 -99.3518 61.5009 
-116.312 -100.057 62.8002 -116.669 -100.673 63.0556 -117.159 -101.284 63.2904 
-117.698 -101.705 63.7071 -118.121 -102.171 63.9468 -118.435 -102.85 63.8969 
-118.789 -103.542 63.842 -116.546 -99.4833 61.6115 -116.304 -99.1136 61.0945 
-116.793 -99.7827 62.2221 -117.116 -100.093 62.7519 -117.556 -100.498 63.174 
[...]
CELL_DATA 2000
SCALARS Distance double
LOOKUP_TABLE default
163.245 162.877 163.232 163.582 162.52 162.872 163.228 163.583 163.928 
162.164 162.506 162.853 163.223 163.578 163.928 164.248 161.837 162.149 
162.48 162.842 163.225 163.592 163.943 164.248 164.549 161.527 161.834 
162.153 162.487 162.873 163.25 163.657 163.983 164.32 164.581 164.91 
161.168 161.508 161.835 162.173 162.531 162.898 163.305 163.687 164.086 
164.394 164.747 165.002 165.359 160.799 161.138 161.488 161.845 162.21 
162.557 162.934 163.313 163.744 164.135 164.568 164.872 165.238 165.47 
165.785 160.533 160.818 161.189 161.521 161.926 162.258 162.658 162.986 
163.422 163.799 164.288 164.665 165.106 165.375 165.699 165.877 166.127 
160.393 160.627 161.001 161.278 161.685 162 162.431 162.757 163.209 
163.546 164.014 164.379 164.828 165.178 165.547 165.799 166.076 166.226 
166.456 162.952 162.351 162.613 162.551 161.691 161.964 161.88 162.205 
162.178 160.974 161.256 161.131 161.483 161.464 161.835 161.834 160.221 
160.514 160.374 160.71 160.676 161.079 161.118 161.503 161.52 159.461 
159.77 159.681 159.994 159.963 160.31 160.351 160.757 160.82 161.198 
161.208 158.69 159.015 158.963 159.32 159.329 159.659 159.686 160.032 
160.1 160.483 160.527 160.874 160.853 157.963 158.26 158.187 158.565 
158.593 158.999 159.056 159.413 159.472 159.814 159.871 160.202 160.204 
160.508 160.485 157.39 157.615 157.552 157.828 157.856 158.244 158.364 
158.77 158.871 159.216 159.261 159.574 159.577 159.877 159.864 160.168 
160.198 157.008 157.176 157.18 157.331 157.365 157.615 157.763 158.124 
158.287 158.628 158.678 158.965 158.942 159.241 159.228 159.552 159.59 
159.933 160.034 156.885 156.859 156.94 157.066 156.784 156.87 156.959 
157.074 157.222 156.623 156.684 156.709 156.897 157.078 157.287 157.578 
156.59 156.505 156.449 156.591 156.807 157.104 157.459 157.723 158.071 
156.798 156.594 156.548 156.487 156.719 156.896 157.295 157.56 157.897 
158.144 158.41 157.07 156.892 156.929 156.788 157.027 157.019 157.392 
157.491 157.8 157.941 158.162 158.385 158.629 157.363 157.203 157.269 
157.172 157.345 157.341 157.603 157.663 157.919 157.957 158.157 158.22 
158.456 158.642 158.942 157.811 157.595 157.66 157.494 157.552 157.5 
157.603 157.711 157.917 158.066 158.3 158.352 158.586 158.626 158.92 
159.05 159.375 158.372 158.142 158.233 157.968 157.975 157.726 157.718 
157.648 157.814 157.975 158.301 158.477 158.784 158.841 159.115 159.155 
159.464 159.554 159.871 160.145 159.76 160.123 160.492 159.408 159.742 
160.11 160.496 160.909 159.043 159.393 159.731 160.113 160.537 160.947 
161.396 158.521 158.957 159.317 159.741 160.158 160.572 161.032 161.446 
161.88 158.02 158.401 158.835 159.314 159.797 160.216 160.656 161.059 
161.491 161.898 162.287 157.966 158.101 158.556 158.908 159.456 159.865 
160.328 160.7 161.107 161.494 161.908 162.293 162.676 158.302 158.3 
158.706 158.827 159.299 159.577 160.033 160.376 160.795 161.154 161.578 
161.944 162.368 162.714 163.101 158.603 158.664 159.016 159.06 159.392 
159.51 159.876 160.122 160.552 160.882 161.341 161.678 162.111 162.434 
162.833 163.153 163.527 158.718 158.857 159.175 159.272 159.53 159.607 
159.886 160.038 160.431 160.699 161.17 161.482 161.92 162.212 162.592 
162.889 163.258 163.575 163.938 160.47 160.831 160.786 161.083 161.248 
161.173 161.46 161.416 161.739 161.729 161.618 161.888 161.805 162.133 
162.113 162.489 162.221 162.12 162.391 162.269 162.604 162.553 162.981 
162.938 163.333 162.636 162.588 162.881 162.784 163.118 163.06 163.489 
163.461 163.877 163.791 164.136 163.012 162.979 163.288 163.237 163.571 
163.549 163.937 163.934 164.299 164.268 164.588 164.541 164.869 163.43 
163.38 163.696 163.637 163.979 163.964 164.354 164.35 164.697 164.647 
164.947 164.918 165.257 165.255 165.583 163.873 163.828 164.172 164.09 
164.44 164.388 164.8 164.781 165.174 165.093 165.416 165.319 165.677 
165.645 166.014 165.956 166.197 164.293 164.276 164.649 164.589 164.951 
164.884 165.286 165.254 165.662 165.601 165.937 165.832 166.163 166.105 
166.472 166.414 166.68 166.521 166.631 164.646 165.315 165.002 165.023 
165.998 165.683 165.724 165.377 165.365 166.737 166.394 166.468 166.114 
166.146 165.745 165.732 167.533 167.178 167.268 166.901 166.959 166.559 
166.553 166.127 166.089 168.25 167.959 168.046 167.709 167.77 167.387 
167.357 166.923 166.829 166.422 166.331 168.805 168.604 168.691 168.423 
168.493 168.176 168.167 167.73 167.607 167.141 167.037 166.634 166.571 
169.249 169.118 169.227 169.001 169.072 168.832 168.892 168.543 168.478 
167.979 167.86 167.384 167.332 166.922 166.881 169.609 169.549 169.707 
169.516 169.573 169.356 169.419 169.195 169.195 168.827 168.687 168.22 
168.06 167.649 167.52 167.164 167.021 169.883 169.883 170.078 169.963 
170.017 169.819 169.822 169.64 169.619 169.399 169.243 168.901 168.62 
168.247 167.962 167.647 167.393 167.123 166.893 164.516 164.532 164.751 
165.194 164.505 164.767 165.232 165.44 165.876 164.339 164.678 165.154 
165.446 165.917 166.138 166.603 164.068 164.428 164.891 165.277 165.774 
166.121 166.638 166.898 167.387 163.851 164.15 164.587 164.967 165.465 
165.886 166.427 166.832 167.359 167.655 168.092 163.735 163.979 164.414 
164.722 165.223 165.586 166.117 166.537 167.071 167.488 167.954 168.262 
168.621 163.694 163.905 164.351 164.615 165.12 165.419 165.94 166.275 
166.79 167.165 167.632 168.003 168.389 168.699 169.014 163.719 163.905 
164.338 164.572 165.039 165.323 165.813 166.131 166.618 166.941 167.377 
167.692 168.059 168.385 168.712 169.032 169.327 163.753 163.942 164.342 
164.551 164.957 165.212 165.639 165.956 166.398 166.741 167.141 167.453 
167.783 168.074 168.381 168.693 169.007 169.321 169.604 158.858 159.212 
159.124 159.302 159.623 159.477 159.616 159.528 159.66 160.098 159.892 
159.975 159.845 159.985 159.887 160.037 160.611 160.371 160.405 160.215 
160.35 160.249 160.476 160.362 160.603 161.175 160.933 161.008 160.72 
160.839 160.659 160.914 160.831 161.146 161.033 161.331 161.726 161.547 
161.743 161.446 161.6 161.281 161.498 161.312 161.632 161.549 161.876 
161.771 162.049 162.219 162.09 162.34 162.172 162.383 162.108 162.289 
161.999 162.252 162.071 162.401 162.288 162.591 162.457 162.708 162.751 
162.584 162.796 162.68 162.894 162.764 162.949 162.748 162.95 162.745 
163.04 162.877 163.208 163.036 163.321 163.128 163.381 163.354 163.145 
163.321 163.139 163.325 163.195 163.394 163.276 163.49 163.365 163.643 
163.524 163.859 163.707 164.013 163.8 164.056 163.83 164.071 158.624 
158.483 158.685 159.007 158.499 158.602 158.911 159.114 159.465 158.622 
158.663 158.921 159.066 159.445 159.641 160.004 158.745 158.807 159.056 
159.129 159.478 159.65 160.052 160.21 160.544 158.805 158.933 159.246 
159.307 159.624 159.722 160.081 160.239 160.578 160.724 161.033 158.887 
159.02 159.399 159.497 159.828 159.893 160.198 160.288 160.588 160.72 
161.019 161.187 161.508 159.107 159.183 159.579 159.662 160.015 160.082 
160.397 160.448 160.745 160.795 161.099 161.19 161.523 161.673 162.02 
159.375 159.439 159.801 159.866 160.192 160.258 160.584 160.656 160.998 
161.037 161.367 161.379 161.718 161.77 162.14 162.24 162.606 159.559 
159.647 159.953 160.044 160.321 160.404 160.696 160.81 161.165 161.28 
161.642 161.69 162.017 162.034 162.373 162.428 162.796 162.875 163.229 
159.746 160.194 159.996 160.116 160.839 160.501 160.549 160.361 160.475 
161.63 161.225 161.212 160.873 160.948 160.737 160.875 162.386 162.031 
162.055 161.641 161.678 161.324 161.454 161.216 161.392 163.122 162.787 
162.889 162.512 162.566 162.146 162.224 161.886 162.041 161.784 161.919 
163.908 163.557 163.674 163.341 163.439 163.041 163.094 162.697 162.782 
162.463 162.566 162.279 162.329 164.629 164.314 164.408 164.119 164.238 
163.891 163.951 163.553 163.593 163.219 163.276 162.941 162.991 162.666 
162.694 165.234 164.956 165.037 164.804 164.925 164.648 164.705 164.355 
164.37 164.007 164.032 163.674 163.711 163.362 163.41 163.067 163.115 
165.79 165.519 165.58 165.376 165.491 165.273 165.328 165.037 165.038 
164.721 164.741 164.415 164.449 164.102 164.144 163.8 163.852 163.509 
163.545 166.08 166.433 166.125 165.896 166.827 166.524 166.332 166.012 
165.811 167.293 166.978 166.81 166.466 166.235 165.9 165.635 167.852 
167.508 167.361 166.977 166.731 166.333 166.03 165.667 165.361 168.5 
168.112 167.941 167.534 167.272 166.853 166.55 166.126 165.815 165.413 
165.11 169.112 168.736 168.462 168.055 167.705 167.33 167.004 166.644 
166.327 165.922 165.583 165.172 164.838 169.478 169.197 168.824 168.465 
168.02 167.667 167.278 166.991 166.655 166.352 165.98 165.617 165.231 
164.862 164.515 169.601 169.389 168.99 168.707 168.267 167.939 167.54 
167.233 166.883 166.593 166.221 165.912 165.517 165.2 164.839 164.523 
164.203 169.666 169.455 169.079 168.826 168.442 168.166 167.814 167.517 
167.174 166.848 166.471 166.134 165.743 165.435 165.075 164.797 164.469 
164.191 163.875 166.358 166.855 166.625 166.655 167.213 167.079 167.104 
166.909 166.989 167.484 167.428 167.565 167.374 167.451 167.261 167.413 
167.87 167.813 168.119 167.926 168.07 167.786 167.89 167.707 167.931 
168.309 168.29 168.645 168.531 168.716 168.448 168.501 168.227 168.386 
168.273 168.581 168.605 168.654 168.899 168.91 169.011 168.932 168.941 
168.778 168.873 168.754 169.041 168.982 169.277 168.78 168.84 168.972 
168.982 168.948 168.967 168.931 168.985 169.094 169.144 169.411 169.427 
169.716 169.625 169.742 168.848 168.936 169.018 168.994 168.889 168.833 
168.74 168.821 168.948 169.168 169.47 169.663 169.953 169.99 170.123 
169.966 169.915 168.729 168.886 168.93 168.974 168.861 168.8 168.678 
168.674 168.759 168.953 169.264 169.561 169.895 170.093 170.277 170.27 
170.278 170.08 169.977 166.263 166.236 166.454 166.778 165.939 166.306 
166.627 166.88 167.091 165.442 165.858 166.177 166.577 166.802 167.061 
167.24 165.09 165.391 165.734 166.104 166.43 166.727 166.952 167.205 
167.507 164.881 165.147 165.508 165.795 166.213 166.478 166.817 166.993 
167.287 167.547 167.93 164.518 164.891 165.221 165.572 165.975 166.33 
166.732 166.954 167.224 167.381 167.655 167.944 168.274 164.027 164.442 
164.752 165.157 165.5 165.968 166.365 166.774 167.038 167.267 167.411 
167.642 167.865 168.209 168.48 163.582 163.967 164.3 164.669 165.004 
165.43 165.81 166.278 166.569 166.921 167.032 167.294 167.409 167.749 
167.98 168.367 168.58 163.164 163.541 163.876 164.25 164.596 164.98 
165.348 165.752 166.051 166.4 166.54 166.821 166.908 167.234 167.412 
167.817 168.032 168.407 168.519 163.019 162.984 163.242 163.722 163.01 
163.218 163.745 163.992 164.492 163.201 163.313 163.826 164.049 164.617 
164.813 165.285 163.43 163.534 163.976 164.155 164.687 164.925 165.406 
165.569 165.931 163.52 163.684 164.073 164.261 164.722 164.968 165.427 
165.626 165.955 166.096 166.356 163.542 163.713 164.093 164.288 164.751 
164.997 165.503 165.687 166.066 166.135 166.398 166.478 166.75 163.579 
163.743 164.127 164.305 164.78 165.03 165.596 165.823 166.286 166.345 
166.634 166.618 166.893 166.944 167.28 163.566 163.768 164.149 164.344 
164.782 165.04 165.561 165.867 166.334 166.525 166.806 166.855 167.068 
167.121 167.412 167.52 167.866 163.493 163.718 164.096 164.326 164.725 
164.986 165.421 165.738 166.143 166.433 166.707 166.888 167.071 167.202 
167.42 167.578 167.856 168.036 168.314 163.572 163.909 163.885 164.184 
164.261 164.242 164.559 164.525 164.837 164.577 164.59 164.933 164.921 
165.253 165.203 165.525 164.859 164.887 165.245 165.278 165.618 165.604 
165.903 165.874 166.175 165.22 165.201 165.558 165.575 165.904 165.914 
166.191 166.193 166.448 166.459 166.701 165.686 165.638 166.023 165.962 
166.27 166.196 166.452 166.437 166.709 166.717 166.965 166.938 167.127 
166.081 166.092 166.516 166.493 166.831 166.668 166.882 166.74 167.004 
166.988 167.283 167.252 167.47 167.372 167.535 166.343 166.388 166.782 
166.898 167.3 167.255 167.477 167.266 167.433 167.312 167.554 167.542 
167.757 167.717 167.881 167.796 167.96 166.609 166.595 166.894 167.036 
167.436 167.583 167.883 167.822 167.95 167.772 167.875 167.779 167.912 
167.903 168.04 168.058 168.226 168.212 168.385 168.622 168.395 168.618 
168.768 168.14 168.327 168.452 168.67 168.719 168.043 168.134 168.271 
168.402 168.525 168.623 168.644 168.131 168.166 168.397 168.412 168.644 
168.627 168.789 168.707 168.827 168.233 168.31 168.594 168.646 168.959 
168.942 169.208 169.072 169.275 169.111 169.355 168.067 168.288 168.481 
168.709 168.988 169.186 169.483 169.521 169.741 169.63 169.837 169.725 
169.968 167.584 167.915 168.041 168.385 168.614 168.99 169.296 169.591 
169.835 169.946 170.106 170.108 170.257 170.229 170.34 167.108 167.398 
167.599 167.911 168.198 168.558 168.918 169.281 169.584 169.843 170.011 
170.164 170.262 170.354 170.398 170.413 170.357 166.876 167.075 167.362 
167.596 167.942 168.232 168.625 168.952 169.288 169.558 169.733 169.928 
169.996 170.178 170.202 170.331 170.261 170.273 170.091 156.907 157.388 
157.074 156.988 158.053 157.703 157.715 157.314 157.358 158.824 158.484 
158.61 158.192 158.29 157.857 158.043 159.626 159.315 159.521 159.156 
159.32 158.872 159.015 158.617 158.856 160.433 160.147 160.377 160.062 
160.247 159.869 159.989 159.582 159.73 159.401 159.637 161.201 160.953 
161.178 160.888 161.046 160.718 160.834 160.482 160.61 160.264 160.451 
160.153 160.392 161.895 161.688 161.915 161.654 161.809 161.49 161.626 
161.297 161.463 161.128 161.311 160.98 161.184 160.894 161.129 162.527 
162.344 162.581 162.36 162.549 162.259 162.435 162.121 162.324 161.996 
162.175 161.826 161.978 161.666 161.857 161.609 161.846 163.108 162.945 
163.177 162.997 163.197 162.97 163.151 162.905 163.103 162.836 162.999 
162.666 162.765 162.426 162.558 162.301 162.518 162.311 162.555 156.669 
156.666 156.514 156.312 157.004 156.638 156.408 156.234 156.131 157.715 
157.175 156.941 156.54 156.439 156.206 156.209 158.586 158.02 157.795 
157.255 157.111 156.696 156.684 156.43 156.549 159.406 158.9 158.7 
158.161 157.983 157.473 157.418 157.044 157.177 156.936 157.185 160.17 
159.7 159.531 159.037 158.882 158.367 158.31 157.871 158.013 157.693 
157.959 157.693 157.946 160.929 160.473 160.34 159.868 159.77 159.277 
159.244 158.791 158.903 158.563 158.781 158.496 158.681 158.397 158.531 
161.681 161.245 161.142 160.694 160.643 160.191 160.193 159.738 159.798 
159.416 159.534 159.239 159.328 159.056 159.097 158.856 158.938 162.405 
161.997 161.898 161.479 161.426 161.038 161.062 160.669 160.72 160.305 
160.358 159.97 160.005 159.659 159.658 159.369 159.399 159.209 159.332 
156.686 156.352 156.571 156.689 156.108 156.251 156.393 156.612 156.696 
156.087 156.061 156.126 156.316 156.491 156.652 156.679 156.385 156.145 
156.09 156.098 156.258 156.462 156.673 156.73 156.758 157.003 156.59 
156.471 156.211 156.263 156.303 156.584 156.75 156.974 156.925 156.96 
157.722 157.286 157.149 156.746 156.721 156.498 156.717 156.763 157.105 
157.149 157.3 157.16 157.176 158.317 157.959 157.818 157.443 157.401 
157.081 157.223 157.081 157.407 157.384 157.642 157.514 157.568 157.371 
157.425 158.811 158.515 158.423 158.084 158.058 157.749 157.859 157.653 
157.902 157.798 158.049 157.916 158.018 157.798 157.838 157.662 157.817 
159.289 159.04 159.038 158.718 158.724 158.402 158.49 158.255 158.437 
158.289 158.47 158.334 158.424 158.242 158.275 158.092 158.197 158.098 
158.323 165.891 165.31 165.698 165.851 164.685 165.089 165.225 165.599 
165.616 163.915 164.377 164.496 164.939 164.968 165.27 165.177 163.057 
163.499 163.552 164.086 164.137 164.574 164.527 164.827 164.792 162.332 
162.668 162.66 163.102 163.143 163.642 163.646 164.093 164.081 164.48 
164.512 161.648 161.995 162.011 162.34 162.374 162.734 162.755 163.167 
163.162 163.629 163.635 164.119 164.115 160.842 161.246 161.27 161.688 
161.725 162.081 162.087 162.399 162.369 162.719 162.687 163.135 163.128 
163.623 163.612 160.108 160.418 160.383 160.832 160.851 161.326 161.325 
161.729 161.681 162.008 161.932 162.261 162.217 162.635 162.653 163.134 
163.164 159.606 159.771 159.685 159.988 159.991 160.405 160.419 160.863 
160.838 161.251 161.188 161.542 161.468 161.814 161.796 162.217 162.265 
162.732 162.773 
POINT_DATA 1002
SCALARS Distance double
LOOKUP_TABLE default
163.585 163.27 162.881 163.23 162.52 163.933 162.867 162.174 163.587 
164.266 162.478 161.841 163.216 163.933 164.545 162.13 161.541 162.833 
163.628 164.268 164.837 161.834 161.208 162.498 163.291 164.053 164.641 
165.255 161.484 160.814 162.188 162.908 163.718 164.49 165.11 165.713 
161.117 160.469 161.866 162.578 163.316 164.199 165.016 165.589 166.056 
160.869 160.264 161.582 162.33 163.065 163.884 164.782 165.52 165.988 
166.338 160.75 160.168 161.385 162.087 162.875 163.689 164.472 165.232 
165.889 166.353 166.679 162.708 162.252 162.094 161.547 161.433 161.843 
160.79 160.7 161.059 161.49 160.053 159.913 160.282 160.688 161.178 
159.344 159.127 159.647 159.961 160.405 160.877 158.576 158.368 158.971 
159.369 159.731 160.167 160.538 157.837 157.685 158.149 158.659 159.141 
159.547 159.903 160.173 157.324 157.161 157.497 157.923 158.511 158.962 
159.275 159.557 159.863 157.046 156.818 157.172 157.427 157.94 158.413 
158.661 158.893 159.237 159.672 156.792 156.983 156.803 156.826 156.724 
157.069 156.503 156.645 156.798 157.368 156.37 156.757 156.475 157.149 
157.862 156.659 156.982 156.618 157.065 157.672 158.159 157.039 157.193 
157.091 157.377 157.736 157.993 158.337 157.379 157.519 157.389 157.558 
157.877 158.145 158.334 158.699 157.888 158.028 157.715 157.553 157.699 
158.178 158.579 158.846 159.216 158.509 158.579 158.303 157.91 157.694 
158.05 158.675 159.098 159.403 159.775 160.493 160.102 160.883 159.723 
160.505 161.342 159.358 160.112 160.996 161.85 158.839 159.755 160.608 
161.494 162.297 158.317 159.351 160.286 161.076 161.903 162.661 158.296 
159.059 159.961 160.74 161.505 162.317 163.05 158.694 159.129 159.711 
160.429 161.217 162.013 162.776 163.478 158.997 159.358 159.692 160.227 
161.002 161.804 162.515 163.207 163.897 159.066 159.463 159.771 160.197 
160.87 161.639 162.316 162.946 163.621 164.297 161.117 161.519 161.746 
161.996 162.15 162.506 162.517 162.661 163.004 163.436 162.951 163.176 
163.519 163.946 164.249 163.326 163.586 163.954 164.34 164.61 164.904 
163.764 163.999 164.352 164.759 164.992 165.24 165.63 164.245 164.507 
164.815 165.235 165.53 165.727 166.065 166.349 164.687 165.017 165.33 
165.713 166.041 166.241 166.524 166.83 166.864 164.957 165.365 165.625 
166.059 166.31 165.75 166.814 167.088 166.532 166.156 167.634 167.878 
167.357 166.991 166.514 168.366 168.506 168.139 167.816 167.264 166.712 
168.942 168.969 168.766 168.576 168.111 167.449 166.951 169.445 169.334 
169.296 169.157 168.945 168.38 167.756 167.292 169.868 169.627 169.809 
169.616 169.485 169.158 168.527 167.9 167.37 170.154 169.871 170.212 
170.032 169.819 169.554 169.019 168.314 167.674 167.137 164.294 165.003 
164.3 165 164.216 165.694 164.818 163.982 165.645 166.411 164.485 
163.737 165.37 166.309 167.196 164.229 163.588 165.046 165.981 166.992 
167.892 164.12 163.499 164.892 165.731 166.64 167.582 168.389 164.098 
163.484 164.835 165.634 166.456 167.275 168.041 168.74 164.135 163.538 
164.783 165.502 166.304 167.094 167.763 168.375 169.023 164.155 163.569 
164.738 165.351 166.064 166.827 167.503 168.085 168.683 169.316 158.931 
159.378 159.329 159.725 159.817 159.746 160.135 160.343 160.066 160.145 
160.636 160.855 160.446 160.54 160.744 161.307 161.362 161.08 160.993 
161.211 161.484 161.971 161.846 161.951 161.77 161.732 161.953 162.192 
162.454 162.357 162.594 162.604 162.495 162.53 162.72 162.863 162.942 
162.956 162.992 163.096 163.147 163.211 163.38 163.525 163.576 158.363 
158.763 158.326 158.719 158.456 159.252 158.818 158.595 159.228 159.855 
159.009 158.633 159.342 159.866 160.435 159.158 158.626 159.573 159.959 
160.418 160.884 159.279 158.758 159.764 160.148 160.487 160.859 161.317 
159.513 159.052 159.945 160.337 160.71 161.041 161.397 161.858 159.752 
159.322 160.14 160.492 160.924 161.361 161.701 162.058 162.507 159.867 
159.49 160.242 160.581 161.016 161.557 162.009 162.344 162.72 163.163 